Title
43188
    1CHL1    C3    1   0.945   5.122   6.364 -0.5508 -0.9746 -0.4628
    1CHL1    H3    2   0.847   5.170   6.389 -0.5705  0.1156 -2.4574
    1CHL1    O3    3   0.999   5.078   6.491  0.8238  0.6691 -0.2393
    1CHL1   H3'    4   1.095   5.073   6.483  0.8459 -1.0984  0.6948
    1CHL1    C4    5   0.947   5.022   6.250 -0.2466  0.7305  0.6157
    1CHL1   H4A    6   1.049   4.979   6.243 -1.6446 -2.7772 -0.5840
    1CHL1   H4B    7   0.876   4.938   6.269  1.8305 -1.1760  0.3824
    1CHL1    C5    8   0.906   5.079   6.114 -0.1779  0.8493  0.1124
    1CHL1    C6    9   0.798   5.035   6.053 -0.6241  0.6292  0.1462
    1CHL1    H6   10   0.747   4.947   6.094  1.4065  0.6279  2.9167
    1CHL1    C7   11   0.754   5.096   5.928  0.4816  0.1736 -0.4087
    1CHL1   H7A   12   0.721   5.015   5.859 -1.8812  0.1547  0.6397
    1CHL1   H7B   13   0.664   5.159   5.947  1.3899  1.6161 -0.7654
    1CHL1    C8   14   0.864   5.182   5.850 -0.6006 -0.5189 -0.5396
    1CHL1    H8   15   0.946   5.117   5.813  1.9143  1.8091  0.6875
    1CHL1   C14   16   0.803   5.258   5.739 -0.0993 -0.6339 -0.4877
    1CHL1   H14   17   0.726   5.324   5.784  1.3482  0.3840  0.5554
    1CHL1   C15   18   0.735   5.170   5.632  1.1022 -0.1160  0.2457
    1CHL1  H15A   19   0.793   5.084   5.592  1.6203  0.8922 -1.2590
    1CHL1  H15B   20   0.632   5.146   5.666  1.3660 -0.8277  0.5686
    1CHL1   C16   21   0.714   5.272   5.521  0.4029 -0.2684  0.7092
    1CHL1  H16A   22   0.741   5.215   5.429  0.5672  0.6080  0.2021
    1CHL1  H16B   23   0.610   5.310   5.511  0.7865  0.7373  0.3868
    1CHL1   C17   24   0.810   5.397   5.544 -0.0222  0.8622 -0.0338
    1CHL1   H17   25   0.752   5.483   5.582 -1.4374 -0.0076 -0.1734
    1CHL1   C13   26   0.899   5.350   5.665  0.0789 -0.2595 -0.0649
    1CHL1   C18   27   1.006   5.265   5.596 -0.0189 -0.9568 -0.2885
    1CHL1  H18A   28   1.070   5.345   5.553 -1.1942  1.3505  1.9223
    1CHL1  H18B   29   1.071   5.209   5.666 -0.0037 -0.4688  0.0968
    1CHL1  H18C   30   0.967   5.200   5.515  1.2741 -1.7348 -0.3052
    1CHL1   C12   31   0.952   5.459   5.767  0.2005  0.0097 -0.1121
    1CHL1  H12A   32   1.030   5.523   5.721 -0.4659  0.2477 -0.9287
    1CHL1  H12B   33   0.865   5.517   5.804 -0.2066 -0.9490  0.4955
    1CHL1   C11   34   1.010   5.398   5.890  0.3464  0.2012 -0.6920
    1CHL1  H11A   35   1.103   5.350   5.853 -0.0081 -0.6494 -0.5168
    1CHL1  H11B   36   1.015   5.480   5.964 -1.4443  3.2904 -3.7206
    1CHL1    C9   37   0.924   5.284   5.950  0.5709  0.0738  0.1911
    1CHL1    H9   38   0.832   5.330   5.993  0.3279 -1.3790  1.2677
    1CHL1   C10   39   0.991   5.208   6.072  0.3125 -0.3330  0.3205
    1CHL1   C19   40   1.137   5.177   6.023 -0.1241  0.2540  0.0303
    1CHL1  H19A   41   1.183   5.096   6.083 -0.9625  0.1432  0.5468
    1CHL1  H19B   42   1.116   5.140   5.921 -0.6470  0.2206  0.1433
    1CHL1  H19C   43   1.202   5.265   6.041  2.0043 -0.3916 -3.5428
    1CHL1    C1   44   0.993   5.304   6.195  0.4496  0.1526 -0.7020
    1CHL1   H1A   45   1.056   5.393   6.173  0.1051  0.6904  0.3872
    1CHL1   H1B   46   0.892   5.347   6.210 -0.2690 -0.4167 -3.4613
    1CHL1    C2   47   1.039   5.240   6.329 -0.0587 -0.1317  0.9713
    1CHL1   H2A   48   1.043   5.318   6.408 -1.0106  1.1674 -0.2317
    1CHL1   H2B   49   1.143   5.206   6.308 -0.0134  0.3582  0.3722
    1CHL1   C20   50   0.872   5.442   5.412  0.2457  0.0355 -0.5363
    1CHL1   H20   51   0.947   5.367   5.378 -0.2598 -1.3273  1.2394
    1CHL1   C21   52   0.946   5.575   5.456  0.1597 -0.8350  0.5268
    1CHL1  H21A   53   0.863   5.642   5.488 -0.5817 -1.2983 -0.3518
    1CHL1  H21B   54   0.992   5.623   5.367 -2.7459  0.4753 -0.4176
    1CHL1  H21C   55   1.023   5.555   5.533  0.1720 -1.9314  0.2386
    1CHL1   C22   56   0.772   5.487   5.294  0.4140  0.0135  0.6326
    1CHL1  H22A   57   0.663   5.474   5.311 -0.0517  0.4362 -1.7342
    1CHL1  H22B   58   0.798   5.595   5.281  1.3702 -0.0673  1.6607
    1CHL1   C23   59   0.790   5.419   5.163 -0.2756  0.3663 -0.0051
    1CHL1  H23A   60   0.790   5.309   5.179  0.3447  0.7498  3.4036
    1CHL1  H23B   61   0.711   5.451   5.092 -1.1058  1.4791  1.3462
    1CHL1   C24   62   0.919   5.460   5.088  0.5357  0.2702 -0.2678
    1CHL1  H24A   63   0.901   5.566   5.061 -0.2493  0.9220  2.4536
    1CHL1  H24B   64   1.007   5.455   5.156 -0.1577  1.4034  0.7565
    1CHL1   C25   65   0.951   5.388   4.965 -0.1552  0.3895  0.8392
    1CHL1   H25   66   0.856   5.379   4.909 -1.3027 -4.0576  3.0910
    1CHL1   C26   67   1.049   5.457   4.867  0.3196  0.5430 -0.4855
    1CHL1  H26A   68   1.152   5.419   4.889  0.5322  1.0224 -0.6450
    1CHL1  H26B   69   1.037   5.433   4.759  1.6887  0.3478 -0.6184
    1CHL1  H26C   70   1.038   5.567   4.879 -1.0760  0.5166 -1.3104
    1CHL1   C27   71   0.989   5.235   4.991 -0.0132 -0.1338  0.0946
    1CHL1  H27A   72   1.003   5.190   4.891  1.0413 -0.8170  0.5412
    1CHL1  H27B   73   1.085   5.231   5.048  0.5385  0.0628 -0.8010
    1CHL1  H27C   74   0.909   5.179   5.044 -0.7700 -0.8214 -1.7151
    2CHL1    C3   75   3.953   5.648   5.820  0.0501  0.8204  0.2159
    2CHL1    H3   76   3.979   5.755   5.835 -2.4096  1.7673 -1.6375
    2CHL1    O3   77   3.993   5.576   5.935  0.0402  0.2151 -0.4174
    2CHL1   H3'   78   3.916   5.529   5.969 -0.0396  0.7499  0.1608
    2CHL1    C4   79   3.799   5.637   5.792 -0.1389  0.3499 -0.4748
    2CHL1   H4A   80   3.782   5.527   5.793 -0.3923  0.3804  0.5756
    2CHL1   H4B   81   3.753   5.676   5.886  1.2395 -0.1056  0.4333
    2CHL1    C5   82   3.757   5.702   5.663 -0.3261  0.2424 -0.3088
    2CHL1    C6   83   3.664   5.797   5.656  0.6743 -0.0743  0.4194
    2CHL1    H6   84   3.619   5.836   5.749  1.1747 -0.6466  0.9042
    2CHL1    C7   85   3.608   5.853   5.527  0.4967 -0.7822 -0.4658
    2CHL1   H7A   86   3.498   5.845   5.538  0.4821  0.6444  0.7160
    2CHL1   H7B   87   3.640   5.959   5.525  0.2715 -0.7142 -0.4790
    2CHL1    C8   88   3.658   5.780   5.410  0.1772  0.4062  0.0319
    2CHL1    H8   89   3.610   5.681   5.392 -0.1253  0.7107 -0.8706
    2CHL1   C14   90   3.629   5.862   5.288  0.3165 -0.2305  0.1941
    2CHL1   H14   91   3.684   5.957   5.305 -0.7122  0.3284  0.5038
    2CHL1   C15   92   3.483   5.902   5.262 -0.1160  0.2081  0.7253
    2CHL1  H15A   93   3.417   5.819   5.292  0.4813 -0.8292 -0.7128
    2CHL1  H15B   94   3.453   5.994   5.316  0.2450  0.9142 -0.2333
    2CHL1   C16   95   3.479   5.942   5.111  0.2521  0.0529 -0.8176
    2CHL1  H16A   96   3.409   5.872   5.062 -2.1021  0.5297  1.6184
    2CHL1  H16B   97   3.446   6.048   5.101 -0.4161 -0.1465 -0.7607
    2CHL1   C17   98   3.622   5.920   5.057 -0.2220 -0.1024 -0.9523
    2CHL1   H17   99   3.679   6.012   5.083  1.7672 -1.9880  2.0655
    2CHL1   C13  100   3.683   5.815   5.152  0.1871  0.0971  0.0882
    2CHL1   C18  101   3.616   5.679   5.126  0.4417  0.2715  0.2563
    2CHL1  H18A  102   3.506   5.696   5.123  0.6453  1.6288 -0.7520
    2CHL1  H18B  103   3.650   5.637   5.029  0.7044  1.3750 -0.1525
    2CHL1  H18C  104   3.637   5.600   5.201 -0.2158 -3.6667 -3.3569
    2CHL1   C12  105   3.831   5.806   5.169 -0.8333  0.1836  0.7948
    2CHL1  H12A  106   3.873   5.751   5.082 -0.9562  2.0323 -0.4811
    2CHL1  H12B  107   3.878   5.906   5.182 -1.9689  0.9451 -0.5741
    2CHL1   C11  108   3.873   5.711   5.283 -0.0782  0.5245  0.3111
    2CHL1  H11A  109   3.864   5.604   5.254  1.7295 -0.0642  1.7431
    2CHL1  H11B  110   3.981   5.733   5.289 -0.2159  1.7938 -1.2588
    2CHL1    C9  111   3.810   5.748   5.419  0.5189 -0.7544 -0.3935
    2CHL1    H9  112   3.854   5.844   5.453 -1.1825  0.6182 -1.8953
    2CHL1   C10  113   3.836   5.647   5.539 -0.0504 -0.1820 -0.4228
    2CHL1   C19  114   3.797   5.504   5.501 -0.0246  0.6753 -0.9159
    2CHL1  H19A  115   3.693   5.511   5.462 -1.2335  0.9911  2.0837
    2CHL1  H19B  116   3.868   5.451   5.435 -0.8533 -1.8942  0.1520
    2CHL1  H19C  117   3.792   5.441   5.592 -1.7642 -1.6165 -2.4915
    2CHL1    C1  118   3.987   5.653   5.565  0.3083 -0.5489 -0.8192
    2CHL1   H1A  119   4.039   5.593   5.488  2.4710  1.7156 -1.2310
    2CHL1   H1B  120   4.032   5.753   5.552 -0.4166 -0.1745 -0.5185
    2CHL1    C2  121   4.028   5.590   5.699  0.6068  0.1492  0.1407
    2CHL1   H2A  122   4.135   5.604   5.726  0.2287  0.7026  1.4286
    2CHL1   H2B  123   4.009   5.481   5.693 -1.6010  0.4217  1.2335
    2CHL1   C20  124   3.624   5.885   4.912  0.1884 -0.1787  1.1537
    2CHL1   H20  125   3.571   5.789   4.892  1.7854 -0.4301 -2.7964
    2CHL1   C21  126   3.766   5.875   4.864 -0.1257 -0.4233 -0.1772
    2CHL1  H21A  127   3.769   5.888   4.754 -1.9226  0.6740 -0.1345
    2CHL1  H21B  128   3.808   5.773   4.881 -0.9622 -0.7707 -0.1317
    2CHL1  H21C  129   3.835   5.946   4.914 -0.4605 -0.0224 -0.2776
    2CHL1   C22  130   3.565   5.991   4.813  0.2129  0.0416 -0.4649
    2CHL1  H22A  131   3.591   5.968   4.707  0.1448  1.4951 -0.8206
    2CHL1  H22B  132   3.453   5.994   4.815  0.2354  0.6083  0.5756
    2CHL1   C23  133   3.603   6.134   4.849 -0.6419 -0.3381  0.6104
    2CHL1  H23A  134   3.585   6.162   4.954  2.2158  0.8980  0.8764
    2CHL1  H23B  135   3.708   6.159   4.822 -1.1778  0.4705 -0.8358
    2CHL1   C24  136   3.516   6.230   4.756  0.9390  0.0358  0.4862
    2CHL1  H24A  137   3.534   6.203   4.649 -0.2593  0.9878  0.0165
    2CHL1  H24B  138   3.408   6.214   4.780  0.7345 -2.3746 -1.5676
    2CHL1   C25  139   3.557   6.380   4.752  0.3173 -0.0639  0.4501
    2CHL1   H25  140   3.667   6.375   4.737  0.2698 -1.6735  0.4918
    2CHL1   C26  141   3.491   6.447   4.630  0.2504  0.0110  0.3330
    2CHL1  H26A  142   3.383   6.437   4.655  0.6190  0.1547  2.1488
    2CHL1  H26B  143   3.514   6.555   4.616 -0.3938 -0.0298 -1.2638
    2CHL1  H26C  144   3.497   6.395   4.532 -2.0082 -0.9370  0.6340
    2CHL1   C27  145   3.527   6.448   4.881  0.3874 -0.0194 -0.0039
    2CHL1  H27A  146   3.593   6.406   4.960  1.0508  1.0445  0.0236
    2CHL1  H27B  147   3.550   6.556   4.877  1.9278 -0.3132  0.3652
    2CHL1  H27C  148   3.424   6.422   4.914  0.6072 -0.2209  0.5430
    3CHL1    C3  149   4.782   5.662   5.981  0.2629 -0.1207  0.4657
    3CHL1    H3  150   4.706   5.743   5.978  2.5579  2.3447  2.8113
    3CHL1    O3  151   4.830   5.625   6.108 -0.5350  0.2282  0.0260
    3CHL1   H3'  152   4.884   5.699   6.136 -0.6207 -0.5749  2.5458
    3CHL1    C4  153   4.724   5.541   5.916 -0.1320 -0.4582  0.2128
    3CHL1   H4A  154   4.798   5.458   5.910  0.2014 -0.0969 -0.9092
    3CHL1   H4B  155   4.639   5.516   5.982  0.1749  0.4749  0.9823
    3CHL1    C5  156   4.677   5.582   5.777 -0.7969  0.1038 -0.3177
    3CHL1    C6  157   4.553   5.556   5.735 -0.6491 -0.5831  0.5314
    3CHL1    H6  158   4.484   5.503   5.803 -1.1858 -0.8124 -0.1782
    3CHL1    C7  159   4.499   5.589   5.603  1.0677 -0.0287  0.0909
    3CHL1   H7A  160   4.423   5.513   5.576  0.8210  0.5600 -0.9285
    3CHL1   H7B  161   4.439   5.683   5.606 -1.3485 -1.5039  0.3793
    3CHL1    C8  162   4.611   5.613   5.497 -0.3350 -0.3975  0.8283
    3CHL1    H8  163   4.647   5.513   5.466 -1.8787 -0.4975 -0.8324
    3CHL1   C14  164   4.560   5.663   5.360  0.1796  0.0479  0.3143
    3CHL1   H14  165   4.523   5.765   5.388 -1.5827 -1.1388  2.6949
    3CHL1   C15  166   4.446   5.587   5.300  0.1639 -0.5386  0.1763
    3CHL1  H15A  167   4.471   5.480   5.316  1.2107 -0.1998  0.9487
    3CHL1  H15B  168   4.348   5.607   5.347 -1.0118 -2.4865 -1.2881
    3CHL1   C16  169   4.452   5.627   5.153  0.2128  0.1001  0.0798
    3CHL1  H16A  170   4.477   5.534   5.097 -0.4830 -1.2522  1.9125
    3CHL1  H16B  171   4.351   5.668   5.135 -0.3929 -0.6145  1.6648
    3CHL1   C17  172   4.570   5.726   5.137  0.7858 -0.0284 -0.3006
    3CHL1   H17  173   4.544   5.832   5.156  1.4632  0.3173 -1.1858
    3CHL1   C13  174   4.668   5.685   5.252  0.3150 -0.2823 -0.8912
    3CHL1   C18  175   4.736   5.553   5.214 -0.1954 -0.5813  0.1793
    3CHL1  H18A  176   4.666   5.480   5.169  0.9289 -0.3273 -2.0773
    3CHL1  H18B  177   4.813   5.566   5.135  2.7206 -0.7802  2.7704
    3CHL1  H18C  178   4.792   5.512   5.301  1.8636 -0.5882 -1.0822
    3CHL1   C12  179   4.770   5.783   5.302  0.9265 -0.0118 -0.1802
    3CHL1  H12A  180   4.854   5.805   5.232  0.8737  0.3366 -0.1387
    3CHL1  H12B  181   4.714   5.877   5.323  1.3535  0.0351  0.8054
    3CHL1   C11  182   4.830   5.742   5.438  0.0856 -0.6717 -0.5266
    3CHL1  H11A  183   4.905   5.664   5.414  0.5884 -0.6051  0.7521
    3CHL1  H11B  184   4.885   5.830   5.476 -0.9160 -0.2065 -0.1417
    3CHL1    C9  185   4.720   5.703   5.552 -0.1759  0.7770  0.0348
    3CHL1    H9  186   4.675   5.802   5.574 -0.5358  0.8235 -0.8631
    3CHL1   C10  187   4.788   5.646   5.686  0.5069  0.2969  0.3191
    3CHL1   C19  188   4.896   5.548   5.651 -0.3378 -0.0669 -0.9047
    3CHL1  H19A  189   4.980   5.580   5.585  1.6638 -1.2108  0.9721
    3CHL1  H19B  190   4.944   5.511   5.744 -0.3290  0.6782 -0.6057
    3CHL1  H19C  191   4.848   5.463   5.598 -1.2331 -1.1530  1.4934
    3CHL1    C1  192   4.850   5.768   5.765 -0.8314  0.2396  0.0266
    3CHL1   H1A  193   4.933   5.797   5.697  1.7441 -0.7248  2.5921
    3CHL1   H1B  194   4.764   5.839   5.767 -2.8960 -1.7685 -4.3987
    3CHL1    C2  195   4.894   5.726   5.901 -0.9485  0.6680  0.0564
    3CHL1   H2A  196   4.937   5.811   5.958 -0.0243  0.8461 -0.8795
    3CHL1   H2B  197   4.977   5.654   5.896 -2.5643 -1.2067 -1.0905
    3CHL1   C20  198   4.627   5.715   4.996 -0.0438  0.6139  0.7259
    3CHL1   H20  199   4.655   5.610   4.973 -0.9014  0.1272  1.8237
    3CHL1   C21  200   4.757   5.806   4.976 -0.0838 -0.7702  0.2179
    3CHL1  H21A  201   4.779   5.795   4.868 -0.2938 -1.6319  0.2529
    3CHL1  H21B  202   4.848   5.779   5.033  1.1679  1.1650 -0.7439
    3CHL1  H21C  203   4.737   5.913   4.997 -0.0004 -1.2086  2.9564
    3CHL1   C22  204   4.523   5.761   4.896  0.3385 -0.1020 -0.5972
    3CHL1  H22A  205   4.420   5.734   4.926 -0.2343 -0.2128 -2.5104
    3CHL1  H22B  206   4.531   5.870   4.877  0.7585  0.2494  1.3500
    3CHL1   C23  207   4.537   5.695   4.761  0.6325  0.1523 -0.3019
    3CHL1  H23A  208   4.641   5.696   4.722  0.2324 -3.6543 -1.8476
    3CHL1  H23B  209   4.505   5.590   4.777 -0.2815  0.2662 -1.2551
    3CHL1   C24  210   4.440   5.751   4.648 -0.4534  0.1160  0.2549
    3CHL1  H24A  211   4.334   5.721   4.661 -0.3629  0.5183  2.2661
    3CHL1  H24B  212   4.431   5.860   4.669 -2.5617  0.5732 -2.5230
    3CHL1   C25  213   4.490   5.746   4.500  0.4385 -0.1146  0.0892
    3CHL1   H25  214   4.594   5.783   4.509  0.5650 -0.5147  0.2899
    3CHL1   C26  215   4.503   5.610   4.428 -0.6423 -0.3527 -0.1433
    3CHL1  H26A  216   4.402   5.563   4.433 -0.4982 -0.5369  2.7727
    3CHL1  H26B  217   4.540   5.617   4.324  0.1194 -0.0280  0.1486
    3CHL1  H26C  218   4.576   5.547   4.483  1.2812 -0.0267 -2.1791
    3CHL1   C27  219   4.393   5.840   4.420  0.0354  0.2291 -0.7410
    3CHL1  H27A  220   4.385   5.940   4.468  2.0252  1.3887 -2.6677
    3CHL1  H27B  221   4.443   5.861   4.323 -0.9498  0.6827 -1.1687
    3CHL1  H27C  222   4.292   5.798   4.406  0.2692 -0.6313  0.0692
    4CHL1    C3  223   4.269   6.049   5.859 -0.2468 -0.1531 -0.2747
    4CHL1    H3  224   4.161   6.030   5.844 -0.1231 -0.0044 -1.4591
    4CHL1    O3  225   4.289   6.016   5.996 -0.7710  0.1545  0.5149
    4CHL1   H3'  226   4.306   6.102   6.035  4.0381  0.7397 -2.0288
    4CHL1    C4  227   4.350   5.957   5.764 -0.0864 -0.6001 -0.3064
    4CHL1   H4A  228   4.460   5.954   5.778  0.1707 -1.9812 -2.1401
    4CHL1   H4B  229   4.319   5.854   5.792 -2.3206 -0.2546 -1.2949
    4CHL1    C5  230   4.312   5.995   5.620  0.4986 -0.0543 -0.2885
    4CHL1    C6  231   4.257   5.900   5.543  0.2865 -0.5134  0.1509
    4CHL1    H6  232   4.236   5.801   5.585 -0.3650 -0.1806  0.6241
    4CHL1    C7  233   4.228   5.925   5.399  0.8470  0.5647 -0.4523
    4CHL1   H7A  234   4.266   5.841   5.336  1.7068  0.1390  0.6001
    4CHL1   H7B  235   4.118   5.940   5.393  0.5213 -1.4212 -0.3144
    4CHL1    C8  236   4.299   6.044   5.345 -0.5345 -0.0080  0.2011
    4CHL1    H8  237   4.407   6.019   5.334 -0.4595  1.0291 -1.9546
    4CHL1   C14  238   4.244   6.083   5.200  0.6181  0.0237 -0.7964
    4CHL1   H14  239   4.139   6.116   5.217  1.6776  2.2666  2.3239
    4CHL1   C15  240   4.230   5.966   5.107 -0.5683  0.7568 -1.2252
    4CHL1  H15A  241   4.319   5.901   5.126 -1.3494 -0.6470 -2.1599
    4CHL1  H15B  242   4.136   5.912   5.128 -0.2737  0.2074 -1.3002
    4CHL1   C16  243   4.231   6.043   4.968  0.1816  0.1323  0.7497
    4CHL1  H16A  244   4.309   6.004   4.899 -1.3510  0.4258 -1.2322
    4CHL1  H16B  245   4.131   6.031   4.922  0.5154  0.8630 -0.1841
    4CHL1   C17  246   4.244   6.196   4.998  0.0527 -0.0507 -0.1992
    4CHL1   H17  247   4.138   6.228   5.002 -0.0238  0.3245 -3.0133
    4CHL1   C13  248   4.310   6.199   5.136 -0.5888  0.0272  0.1960
    4CHL1   C18  249   4.461   6.167   5.117 -0.2468  0.5632 -0.7122
    4CHL1  H18A  250   4.524   6.249   5.076 -1.0115  0.9804 -1.0634
    4CHL1  H18B  251   4.504   6.151   5.219 -1.5860  1.6412  0.0530
    4CHL1  H18C  252   4.481   6.081   5.050  1.8718  0.9961 -0.7167
    4CHL1   C12  253   4.281   6.325   5.229 -0.4860  0.9037  0.1687
    4CHL1  H12A  254   4.326   6.421   5.198 -0.4823  0.5677 -0.8949
    4CHL1  H12B  255   4.170   6.333   5.224 -0.3895  1.4923 -1.7059
    4CHL1   C11  256   4.332   6.295   5.369 -0.1205 -0.5995  0.3333
    4CHL1  H11A  257   4.442   6.314   5.369 -0.1354 -0.1369 -2.2335
    4CHL1  H11B  258   4.296   6.376   5.436  2.2814  1.1143 -0.3113
    4CHL1    C9  259   4.279   6.166   5.438 -0.3266 -0.0805 -0.5481
    4CHL1    H9  260   4.169   6.173   5.451 -0.1765  1.3076  0.2291
    4CHL1   C10  261   4.335   6.143   5.584  0.3220 -0.0407 -0.5973
    4CHL1   C19  262   4.486   6.158   5.582 -0.2309  0.9561 -0.0209
    4CHL1  H19A  263   4.535   6.141   5.680 -0.6007  1.1816  0.2055
    4CHL1  H19B  264   4.519   6.083   5.507 -0.6786  1.7986 -1.0965
    4CHL1  H19C  265   4.521   6.259   5.551 -2.0401  2.0398  1.2535
    4CHL1    C1  266   4.256   6.228   5.684 -0.2938 -0.6166  0.0010
    4CHL1   H1A  267   4.299   6.328   5.662 -0.5027 -0.9106 -1.9480
    4CHL1   H1B  268   4.148   6.219   5.662 -0.3216 -2.0382  0.6478
    4CHL1    C2  269   4.283   6.199   5.831  0.1552  0.9126  1.0408
    4CHL1   H2A  270   4.200   6.250   5.884 -1.3817  0.2364 -0.6275
    4CHL1   H2B  271   4.381   6.237   5.867  1.1148 -1.5433  1.2319
    4CHL1   C20  272   4.305   6.269   4.873 -0.4074  0.3887  0.0662
    4CHL1   H20  273   4.391   6.209   4.834 -0.6683  0.2474 -0.2980
    4CHL1   C21  274   4.344   6.419   4.907 -0.1575  0.3435 -0.3455
    4CHL1  H21A  275   4.408   6.421   4.997 -0.5233  0.2100 -0.0799
    4CHL1  H21B  276   4.257   6.487   4.924  0.2168  0.5383  0.8328
    4CHL1  H21C  277   4.396   6.479   4.829 -0.2548  1.9489  0.7754
    4CHL1   C22  278   4.210   6.254   4.759  0.0528 -0.4635  0.1870
    4CHL1  H22A  279   4.186   6.148   4.737  0.4205 -0.4213 -0.4553
    4CHL1  H22B  280   4.114   6.301   4.789  0.3111  1.9503 -2.3814
    4CHL1   C23  281   4.252   6.324   4.623 -0.4065  0.2022 -0.1418
    4CHL1  H23A  282   4.168   6.326   4.551  0.9713  1.4487 -1.8017
    4CHL1  H23B  283   4.278   6.432   4.636 -2.7518  0.9404 -1.0997
    4CHL1   C24  284   4.358   6.247   4.540 -0.6582 -0.1243 -0.5409
    4CHL1  H24A  285   4.460   6.259   4.584  0.1157 -0.4977 -2.1718
    4CHL1  H24B  286   4.309   6.148   4.542 -0.5028 -0.2226  2.4680
    4CHL1   C25  287   4.366   6.291   4.390 -0.4378 -0.0313 -0.6702
    4CHL1   H25  288   4.457   6.234   4.363 -0.4587  0.0584 -0.9280
    4CHL1   C26  289   4.249   6.242   4.294 -0.1634 -0.9438  0.2626
    4CHL1  H26A  290   4.222   6.135   4.313 -1.6341 -0.2601  2.4362
    4CHL1  H26B  291   4.159   6.307   4.306  0.0460 -0.3527 -1.2097
    4CHL1  H26C  292   4.284   6.249   4.189 -1.6126  0.8828 -0.1458
    4CHL1   C27  293   4.402   6.440   4.365 -0.3850  0.1988  0.1312
    4CHL1  H27A  294   4.496   6.472   4.414 -1.3640  1.0498  1.5463
    4CHL1  H27B  295   4.432   6.459   4.260 -1.8946  1.1916 -0.1468
    4CHL1  H27C  296   4.320   6.513   4.386 -1.6430 -0.8856 -0.8323
    5CHL1    C3  297   3.363   5.491   5.919 -0.8381 -0.1524  0.0542
    5CHL1    H3  298   3.275   5.558   5.927 -1.3602 -0.7947 -0.3190
    5CHL1    O3  299   3.424   5.477   6.050 -0.4903 -0.4209 -0.3790
    5CHL1   H3'  300   3.475   5.396   6.045  0.4496  0.1553 -0.3396
    5CHL1    C4  301   3.301   5.362   5.873 -0.0892 -0.4076 -0.0999
    5CHL1   H4A  302   3.370   5.275   5.869 -1.1770 -1.2628 -0.6819
    5CHL1   H4B  303   3.230   5.328   5.951  0.9287 -1.1132  0.5549
    5CHL1    C5  304   3.236   5.376   5.736  0.7571 -0.3681  0.3668
    5CHL1    C6  305   3.102   5.344   5.723 -0.6912 -0.0290  0.5511
    5CHL1    H6  306   3.037   5.319   5.808  0.1063  2.5552  2.0484
    5CHL1    C7  307   3.035   5.354   5.593 -0.1793 -0.0143 -0.1664
    5CHL1   H7A  308   2.967   5.270   5.567 -3.4243  1.4827  2.5731
    5CHL1   H7B  309   2.973   5.447   5.596 -0.5809 -0.2998  1.1798
    5CHL1    C8  310   3.129   5.381   5.472  0.6838 -0.6612  0.6888
    5CHL1    H8  311   3.177   5.283   5.454 -0.2268 -1.2259  1.2897
    5CHL1   C14  312   3.048   5.419   5.356 -0.1987 -0.4982  0.4034
    5CHL1   H14  313   3.000   5.510   5.399 -0.0285 -1.1374  2.0167
    5CHL1   C15  314   2.940   5.322   5.312 -0.4434  0.6582 -0.2032
    5CHL1  H15A  315   2.987   5.221   5.314 -0.6635  0.5577  1.2929
    5CHL1  H15B  316   2.855   5.323   5.383 -0.1614 -3.1776  0.4093
    5CHL1   C16  317   2.921   5.355   5.164  0.2493 -0.5687 -0.1572
    5CHL1  H16A  318   2.933   5.272   5.091 -1.4895 -0.5670 -0.5031
    5CHL1  H16B  319   2.819   5.392   5.138  0.6530  0.1618 -0.7402
    5CHL1   C17  320   3.010   5.477   5.122 -0.0662  0.3816 -0.5126
    5CHL1   H17  321   2.958   5.572   5.144  0.3752  0.6804 -0.7386
    5CHL1   C13  322   3.127   5.457   5.229 -0.2318  0.3693  0.2536
    5CHL1   C18  323   3.218   5.341   5.188  0.1464  0.0492 -0.1113
    5CHL1  H18A  324   3.243   5.353   5.080  1.8889 -1.6208  0.0529
    5CHL1  H18B  325   3.308   5.332   5.253  0.3973 -0.6097 -0.5384
    5CHL1  H18C  326   3.160   5.247   5.196  2.7154 -1.5462  1.1353
    5CHL1   C12  327   3.221   5.577   5.257  0.0917 -0.0774  0.1441
    5CHL1  H12A  328   3.298   5.578   5.176  0.7601  0.8036  0.7762
    5CHL1  H12B  329   3.160   5.669   5.259  0.8209  0.5360 -2.1063
    5CHL1   C11  330   3.310   5.554   5.386  0.3623 -0.0449 -0.5495
    5CHL1  H11A  331   3.393   5.485   5.360  0.0521  0.3095 -2.6196
    5CHL1  H11B  332   3.352   5.652   5.418 -2.5816  1.3496 -0.6168
    5CHL1    C9  333   3.233   5.490   5.507  0.6810  0.6629  0.1371
    5CHL1    H9  334   3.164   5.572   5.538  0.1708  0.8473 -1.4011
    5CHL1   C10  335   3.318   5.437   5.622  0.0179 -0.0837  0.1606
    5CHL1   C19  336   3.418   5.320   5.579  0.4517  0.0566 -0.0790
    5CHL1  H19A  337   3.461   5.283   5.675 -0.7605 -0.7401  0.1795
    5CHL1  H19B  338   3.362   5.233   5.540  1.0878  0.5176 -2.1067
    5CHL1  H19C  339   3.497   5.357   5.510  0.3013  1.6908  0.5777
    5CHL1    C1  340   3.391   5.564   5.676  0.0349  0.0547  0.5763
    5CHL1   H1A  341   3.456   5.589   5.590  1.2130 -2.0911  0.7641
    5CHL1   H1B  342   3.319   5.646   5.696 -0.3369 -0.3231  0.7975
    5CHL1    C2  343   3.463   5.544   5.817  0.2505 -0.0423 -0.1721
    5CHL1   H2A  344   3.513   5.635   5.856  0.8382  0.5019 -2.0542
    5CHL1   H2B  345   3.539   5.464   5.802  0.2467 -0.5734  2.2875
    5CHL1   C20  346   3.034   5.481   4.969  0.6803 -0.6441  0.4997
    5CHL1   H20  347   3.092   5.392   4.938 -0.4905 -1.7588  1.3879
    5CHL1   C21  348   3.114   5.610   4.933  0.4036  0.9274 -0.4585
    5CHL1  H21A  349   3.055   5.697   4.967 -1.1503  0.1426 -1.0744
    5CHL1  H21B  350   3.129   5.614   4.823  0.1880  0.3115 -0.5113
    5CHL1  H21C  351   3.208   5.608   4.992 -1.5842 -1.5548  2.9979
    5CHL1   C22  352   2.896   5.471   4.888 -0.0300 -0.0330  0.3053
    5CHL1  H22A  353   2.839   5.378   4.910 -1.0874 -0.1008 -2.4046
    5CHL1  H22B  354   2.829   5.556   4.915 -0.6846 -0.7529  0.9975
    5CHL1   C23  355   2.934   5.469   4.739 -0.0341  0.1481  0.9923
    5CHL1  H23A  356   2.962   5.572   4.707 -0.1005 -0.9912 -3.3971
    5CHL1  H23B  357   3.019   5.401   4.716 -0.7357 -0.4390  0.0378
    5CHL1   C24  358   2.809   5.428   4.660 -0.1038  0.1233  0.4068
    5CHL1  H24A  359   2.780   5.324   4.686  2.2137 -1.2055 -1.8819
    5CHL1  H24B  360   2.719   5.489   4.683  0.2561  1.8948 -2.4116
    5CHL1   C25  361   2.825   5.443   4.507 -0.1206 -0.0756  0.5706
    5CHL1   H25  362   2.915   5.389   4.471 -1.2057 -1.6714  0.1048
    5CHL1   C26  363   2.697   5.388   4.443 -0.3845  0.5414  0.2628
    5CHL1  H26A  364   2.683   5.287   4.488 -3.2284  0.2819 -0.9430
    5CHL1  H26B  365   2.610   5.454   4.463  0.0187  0.9590  0.6359
    5CHL1  H26C  366   2.707   5.387   4.332  1.0562  1.5691  0.3625
    5CHL1   C27  367   2.847   5.588   4.460 -0.0566 -0.4654 -0.2470
    5CHL1  H27A  368   2.941   5.628   4.503 -0.3202  0.5730 -0.6201
    5CHL1  H27B  369   2.855   5.586   4.349  1.8764  1.3747 -0.1812
    5CHL1  H27C  370   2.771   5.666   4.480  2.1100  1.5489  0.4788
    6CHL1    C3  371   2.288   4.846   5.916  0.1207  0.0086  0.0630
    6CHL1    H3  372   2.297   4.950   5.878  1.5263 -1.1540 -3.0890
    6CHL1    O3  373   2.352   4.840   6.041  0.1091  0.3829 -0.1402
    6CHL1   H3'  374   2.309   4.764   6.081 -4.5517  2.3511 -0.8307
    6CHL1    C4  375   2.143   4.803   5.938  0.1058  0.1901  0.3522
    6CHL1   H4A  376   2.128   4.701   5.980 -1.3707 -0.3175 -1.3228
    6CHL1   H4B  377   2.099   4.873   6.012  1.7923  1.0438  0.5933
    6CHL1    C5  378   2.069   4.801   5.809  0.1668 -0.3311  0.4474
    6CHL1    C6  379   1.963   4.888   5.790  0.3394  0.4260  0.0243
    6CHL1    H6  380   1.920   4.946   5.873 -0.9646 -0.1225 -0.2395
    6CHL1    C7  381   1.885   4.889   5.662 -0.4169 -0.4636 -1.0637
    6CHL1   H7A  382   1.776   4.900   5.680 -0.0982  0.5095  0.4628
    6CHL1   H7B  383   1.929   4.975   5.608  0.5811  0.1757  0.7073
    6CHL1    C8  384   1.919   4.774   5.559 -0.4602  0.2254 -0.0566
    6CHL1    H8  385   1.863   4.683   5.588  0.8785  0.1261  2.5418
    6CHL1   C14  386   1.881   4.815   5.418 -0.2677  0.4554 -0.1191
    6CHL1   H14  387   1.949   4.898   5.386  1.5119 -0.0423  2.1182
    6CHL1   C15  388   1.736   4.868   5.402 -0.1243  0.6310 -0.4705
    6CHL1  H15A  389   1.662   4.810   5.460 -0.3257  1.2072 -0.1435
    6CHL1  H15B  390   1.738   4.971   5.445  1.3363  0.8116 -0.9189
    6CHL1   C16  391   1.721   4.857   5.249 -0.3118  0.2258 -0.2312
    6CHL1  H16A  392   1.627   4.801   5.231  0.0526 -0.5040  0.0954
    6CHL1  H16B  393   1.692   4.952   5.198  0.8803 -0.0693 -1.5063
    6CHL1   C17  394   1.859   4.797   5.183  0.4570 -0.2137 -0.0175
    6CHL1   H17  395   1.921   4.888   5.166 -1.1108  0.9386  0.2291
    6CHL1   C13  396   1.918   4.719   5.303  0.2645 -0.3440 -0.0553
    6CHL1   C18  397   1.847   4.584   5.330  0.3467 -0.4929  0.0987
    6CHL1  H18A  398   1.846   4.514   5.244 -0.4403 -0.1863 -0.1467
    6CHL1  H18B  399   1.884   4.530   5.419  0.3734 -0.2811  0.2165
    6CHL1  H18C  400   1.740   4.600   5.354  0.6161  0.1900  0.8825
    6CHL1   C12  401   2.076   4.705   5.302  1.2211 -0.3747 -0.1234
    6CHL1  H12A  402   2.104   4.633   5.223  0.7366  0.9360 -1.5404
    6CHL1  H12B  403   2.102   4.811   5.280 -3.0759  1.4913  2.5047
    6CHL1   C11  404   2.139   4.673   5.443  0.3070 -0.1722  0.0308
    6CHL1  H11A  405   2.108   4.566   5.452 -0.2806 -0.0799 -0.7472
    6CHL1  H11B  406   2.249   4.668   5.430  0.1164 -2.5344 -1.4821
    6CHL1    C9  407   2.077   4.756   5.560  0.5432 -0.4706  0.0604
    6CHL1    H9  408   2.114   4.855   5.528  0.1331 -0.7436 -1.3615
    6CHL1   C10  409   2.137   4.719   5.699  0.8376  0.5860 -0.1932
    6CHL1   C19  410   2.111   4.570   5.724 -0.3488  0.0145 -0.7117
    6CHL1  H19A  411   2.008   4.540   5.694 -0.1128  0.2837 -1.8106
    6CHL1  H19B  412   2.167   4.512   5.648  0.8239  0.3084 -0.1044
    6CHL1  H19C  413   2.140   4.530   5.824 -0.0666  2.2225  0.1463
    6CHL1    C1  414   2.290   4.744   5.692  0.0886 -0.0115  0.3405
    6CHL1   H1A  415   2.337   4.668   5.626 -0.4785 -0.1298  0.0661
    6CHL1   H1B  416   2.301   4.841   5.639  1.7517  0.0164  0.6823
    6CHL1    C2  417   2.363   4.756   5.817  0.2259 -0.5407 -0.3798
    6CHL1   H2A  418   2.467   4.790   5.798 -0.2890  1.4850  0.2559
    6CHL1   H2B  419   2.379   4.659   5.869 -0.8649 -0.1880  0.6424
    6CHL1   C20  420   1.834   4.736   5.049  0.1017  0.0799  0.7569
    6CHL1   H20  421   1.802   4.629   5.057 -0.6410  0.4111  2.8971
    6CHL1   C21  422   1.966   4.762   4.967 -0.2670 -0.1702 -0.3182
    6CHL1  H21A  423   1.974   4.702   4.874  0.3547 -0.8942  0.1959
    6CHL1  H21B  424   2.056   4.747   5.030 -0.2866  1.1618  0.0665
    6CHL1  H21C  425   1.967   4.869   4.938  0.7425 -0.7327 -2.5577
    6CHL1   C22  426   1.706   4.788   4.974 -0.3168  0.0553  0.3351
    6CHL1  H22A  427   1.615   4.767   5.034 -0.6712  2.1726  0.6024
    6CHL1  H22B  428   1.729   4.896   4.982 -0.6713  0.0217  2.3970
    6CHL1   C23  429   1.678   4.755   4.832 -0.2114  0.3110  0.1850
    6CHL1  H23A  430   1.595   4.819   4.795  2.5977  4.1571 -0.1871
    6CHL1  H23B  431   1.769   4.792   4.778 -0.0262  1.8796  1.4706
    6CHL1   C24  432   1.644   4.604   4.809 -0.6115  0.3358 -0.3267
    6CHL1  H24A  433   1.739   4.548   4.822 -1.4684 -0.9798  0.4170
    6CHL1  H24B  434   1.573   4.570   4.887  0.2137 -0.0507  0.2682
    6CHL1   C25  435   1.597   4.575   4.667 -0.0484  0.1795 -0.3703
    6CHL1   H25  436   1.502   4.629   4.643 -0.3911  0.1822  0.8985
    6CHL1   C26  437   1.699   4.615   4.570  0.4185 -0.1808 -0.1042
    6CHL1  H26A  438   1.710   4.726   4.574 -2.3109  0.1371  1.7489
    6CHL1  H26B  439   1.799   4.567   4.582  1.4708  0.4977 -4.2936
    6CHL1  H26C  440   1.667   4.608   4.464  1.8125 -0.1040 -0.5465
    6CHL1   C27  441   1.577   4.428   4.652 -0.4842 -0.0669 -0.4162
    6CHL1  H27A  442   1.556   4.409   4.544  0.4143  2.4600 -1.1080
    6CHL1  H27B  443   1.666   4.364   4.667  0.0504  1.0532  1.4515
    6CHL1  H27C  444   1.494   4.387   4.713  0.0394  0.3517  0.5939
    7CHL1    C3  445   3.739   4.984   4.633  0.2853  0.5290  0.3364
    7CHL1    H3  446   3.636   5.020   4.655  0.7434  1.5258  0.9335
    7CHL1    O3  447   3.776   4.867   4.705 -0.3517  0.2124 -0.0382
    7CHL1   H3'  448   3.838   4.894   4.773 -0.8692  0.3193  0.3963
    7CHL1    C4  449   3.722   4.948   4.483 -0.1836  0.2105  0.5567
    7CHL1   H4A  450   3.814   4.895   4.450 -1.3955 -0.6463 -1.6174
    7CHL1   H4B  451   3.634   4.881   4.481  0.5614 -0.7714 -0.1410
    7CHL1    C5  452   3.691   5.072   4.403  0.2143 -0.6320 -0.0278
    7CHL1    C6  453   3.578   5.080   4.337 -0.5892  0.3039  0.2376
    7CHL1    H6  454   3.498   5.005   4.349 -1.6536  1.5724  1.6504
    7CHL1    C7  455   3.540   5.193   4.246  0.7816  0.3635  0.4703
    7CHL1   H7A  456   3.478   5.153   4.163  0.4664  0.1342  0.8072
    7CHL1   H7B  457   3.477   5.269   4.297  2.8194  1.5484  1.3075
    7CHL1    C8  458   3.667   5.279   4.204 -0.2762  0.2309  0.0349
    7CHL1    H8  459   3.728   5.215   4.136 -0.4375  0.6190 -0.4855
    7CHL1   C14  460   3.631   5.405   4.144  0.8648  0.3487  0.6347
    7CHL1   H14  461   3.564   5.459   4.214  0.7293 -0.2977  1.0070
    7CHL1   C15  462   3.535   5.390   4.017  0.0563 -0.0038 -0.1873
    7CHL1  H15A  463   3.582   5.321   3.944 -0.9333 -1.4727  0.5117
    7CHL1  H15B  464   3.438   5.340   4.036  0.1160  0.3565  1.1905
    7CHL1   C16  465   3.535   5.535   3.963  0.0375  0.1691  0.2127
    7CHL1  H16A  466   3.540   5.528   3.852 -0.5176  3.0564 -0.0685
    7CHL1  H16B  467   3.434   5.573   3.990  0.0102 -1.9007  3.6610
    7CHL1   C17  468   3.648   5.613   4.038 -0.0386 -0.0357 -0.1632
    7CHL1   H17  469   3.602   5.663   4.126 -2.6708  0.3575 -1.6351
    7CHL1   C13  470   3.742   5.501   4.098  0.0805 -0.5506 -0.0396
    7CHL1   C18  471   3.827   5.438   3.990 -0.0050  0.3175 -0.3610
    7CHL1  H18A  472   3.853   5.333   4.017  1.4743  0.8878  0.4847
    7CHL1  H18B  473   3.784   5.436   3.887  3.7702 -1.5025 -2.0873
    7CHL1  H18C  474   3.921   5.497   3.985  2.5818 -3.2468  1.4493
    7CHL1   C12  475   3.818   5.533   4.230  0.4790 -0.7459  0.2758
    7CHL1  H12A  476   3.902   5.602   4.206 -0.8184  1.6018  2.1016
    7CHL1  H12B  477   3.748   5.587   4.297  1.1986  1.0987 -0.3879
    7CHL1   C11  478   3.869   5.402   4.292 -0.5116  0.1517 -0.0148
    7CHL1  H11A  479   3.938   5.357   4.218  0.1456  0.8233  0.1752
    7CHL1  H11B  480   3.925   5.433   4.383  1.1626  1.0404 -1.2802
    7CHL1    C9  481   3.752   5.312   4.333  0.4791  0.6478  0.3627
    7CHL1    H9  482   3.684   5.372   4.398 -0.5961 -1.4937  1.3408
    7CHL1   C10  483   3.801   5.179   4.401 -0.4878  0.1947 -0.0747
    7CHL1   C19  484   3.931   5.132   4.343  0.5302  0.1155  0.4213
    7CHL1  H19A  485   4.016   5.203   4.357 -0.8060  1.7596  0.5120
    7CHL1  H19B  486   3.967   5.037   4.388  1.3996  0.7369  1.0909
    7CHL1  H19C  487   3.917   5.119   4.234 -1.7331  2.5563  0.3130
    7CHL1    C1  488   3.829   5.216   4.552  0.3276  0.0109  0.4445
    7CHL1   H1A  489   3.918   5.282   4.548  0.4175 -0.0763  0.9727
    7CHL1   H1B  490   3.741   5.262   4.602 -0.4267 -0.7162 -0.1810
    7CHL1    C2  491   3.852   5.093   4.641 -0.2773 -0.1253  0.4111
    7CHL1   H2A  492   3.872   5.124   4.746 -1.4185  0.3539  0.4986
    7CHL1   H2B  493   3.949   5.046   4.615  1.2168  2.1410  1.5882
    7CHL1   C20  494   3.691   5.727   3.944 -0.4080  0.2109  0.3089
    7CHL1   H20  495   3.723   5.675   3.851  1.1092  0.3134  0.7478
    7CHL1   C21  496   3.826   5.789   4.005 -0.1212 -0.6896  0.1225
    7CHL1  H21A  497   3.906   5.713   4.017 -0.0799 -0.4447  1.5539
    7CHL1  H21B  498   3.808   5.833   4.105 -1.2750 -0.2634 -0.2511
    7CHL1  H21C  499   3.868   5.863   3.933 -1.6685 -0.0131 -0.1221
    7CHL1   C22  500   3.590   5.832   3.903 -0.2513 -0.3836  0.9287
    7CHL1  H22A  501   3.588   5.842   3.792  0.4685  1.2349  1.0446
    7CHL1  H22B  502   3.488   5.801   3.932 -0.7805 -0.9410 -1.3066
    7CHL1   C23  503   3.616   5.972   3.965 -0.1156  0.7141  0.6567
    7CHL1  H23A  504   3.622   5.964   4.075 -2.5156 -0.0909  0.7997
    7CHL1  H23B  505   3.714   6.012   3.932  0.0011 -0.4731 -0.5151
    7CHL1   C24  506   3.499   6.063   3.927  0.4105  0.8272  0.0316
    7CHL1  H24A  507   3.483   6.073   3.818  0.1943 -0.3214 -0.0523
    7CHL1  H24B  508   3.407   6.018   3.971  1.2746  0.5879  1.6961
    7CHL1   C25  509   3.524   6.204   3.976  0.2567  0.0456 -0.7363
    7CHL1   H25  510   3.556   6.196   4.082 -0.0770 -0.8330 -0.6921
    7CHL1   C26  511   3.651   6.273   3.919  0.3561 -0.7869  0.1268
    7CHL1  H26A  512   3.739   6.210   3.945  0.6832 -0.2903  0.2385
    7CHL1  H26B  513   3.653   6.284   3.809 -0.9647  1.2294  0.2595
    7CHL1  H26C  514   3.667   6.373   3.965  2.6192 -1.0601  0.0705
    7CHL1   C27  515   3.398   6.290   3.957  0.5066  0.1935 -0.4315
    7CHL1  H27A  516   3.426   6.397   3.966 -0.5775  0.8258 -3.2740
    7CHL1  H27B  517   3.350   6.269   3.859 -1.4550 -2.6321  1.0094
    7CHL1  H27C  518   3.332   6.259   4.041  1.5696  1.4863  0.9224
    8CHL1    C3  519   1.217   4.717   6.258 -0.4428 -0.7411 -0.1364
    8CHL1    H3  520   1.136   4.778   6.304 -1.1915 -0.5416 -1.6718
    8CHL1    O3  521   1.311   4.681   6.355  0.2584  0.3744 -0.3608
    8CHL1   H3'  522   1.373   4.755   6.364  1.4968 -0.8099  1.7281
    8CHL1    C4  523   1.149   4.588   6.200 -0.2671  0.1021  0.6166
    8CHL1   H4A  524   1.225   4.510   6.179  0.1404  0.5154  0.5513
    8CHL1   H4B  525   1.085   4.542   6.279 -0.5858 -2.3760 -0.9562
    8CHL1    C5  526   1.068   4.614   6.069  0.3839 -0.4537 -0.1948
    8CHL1    C6  527   0.947   4.567   6.049  0.0432 -0.2121 -0.2137
    8CHL1    H6  528   0.900   4.506   6.128  0.4004 -0.3930 -0.1378
    8CHL1    C7  529   0.869   4.573   5.925  0.3431  0.0444 -0.6001
    8CHL1   H7A  530   0.816   4.478   5.900  2.2776 -1.3074  0.2426
    8CHL1   H7B  531   0.781   4.640   5.937  0.2981  0.2382 -1.8795
    8CHL1    C8  532   0.945   4.637   5.803  0.6104 -0.2390 -0.4446
    8CHL1    H8  533   1.008   4.557   5.758 -0.1285  0.7726 -3.4433
    8CHL1   C14  534   0.851   4.683   5.693 -0.0131 -0.0189 -0.1649
    8CHL1   H14  535   0.784   4.762   5.735 -1.6337 -0.1974 -2.2583
    8CHL1   C15  536   0.743   4.585   5.638 -0.3721 -0.0555 -0.4581
    8CHL1  H15A  537   0.783   4.482   5.627  0.9902  0.1718  1.7630
    8CHL1  H15B  538   0.656   4.571   5.705 -0.1526 -1.2333 -0.4044
    8CHL1   C16  539   0.716   4.643   5.500 -0.1766  0.3576 -0.5746
    8CHL1  H16A  540   0.735   4.579   5.411 -2.2378 -1.5695  0.2759
    8CHL1  H16B  541   0.607   4.667   5.496  0.0796  1.4633 -1.7947
    8CHL1   C17  542   0.799   4.779   5.482 -0.0861 -0.2868  0.4390
    8CHL1   H17  543   0.754   4.869   5.530  0.9148 -0.0535  0.9665
    8CHL1   C13  544   0.916   4.745   5.567 -1.0850  0.0149 -0.1412
    8CHL1   C18  545   1.009   4.643   5.494 -0.4290 -0.5769  0.3769
    8CHL1  H18A  546   0.949   4.552   5.471 -0.1784 -0.9265  1.0718
    8CHL1  H18B  547   1.054   4.691   5.404  0.9742 -0.9860  0.8331
    8CHL1  H18C  548   1.086   4.615   5.569 -0.6345  1.6387  1.4869
    8CHL1   C12  549   1.006   4.869   5.609  0.1139  0.7213  0.0187
    8CHL1  H12A  550   1.065   4.906   5.522  0.6211 -3.0177 -1.4516
    8CHL1  H12B  551   0.936   4.947   5.645  0.9548  1.5867 -0.1641
    8CHL1   C11  552   1.102   4.836   5.728  0.4776  0.4382  0.0029
    8CHL1  H11A  553   1.181   4.775   5.679 -0.3700  0.0003 -0.8340
    8CHL1  H11B  554   1.145   4.930   5.768 -2.2422  1.5809  0.4442
    8CHL1    C9  555   1.037   4.754   5.854  0.5626 -1.0211 -0.0255
    8CHL1    H9  556   0.967   4.827   5.900  2.7446  1.3567 -0.2624
    8CHL1   C10  557   1.138   4.709   5.960 -0.3737  0.3085  0.5413
    8CHL1   C19  558   1.246   4.622   5.897 -0.3145 -0.0437 -0.2963
    8CHL1  H19A  559   1.293   4.676   5.812 -0.0060 -1.6433 -1.1836
    8CHL1  H19B  560   1.323   4.589   5.971  1.0824 -1.1486 -2.1626
    8CHL1  H19C  561   1.201   4.528   5.858  1.6681 -2.1169  2.0478
    8CHL1    C1  562   1.205   4.834   6.035  0.5098 -0.9720  0.3690
    8CHL1   H1A  563   1.261   4.892   5.959  1.6336 -0.5339  1.5052
    8CHL1   H1B  564   1.112   4.887   6.064  1.9985  0.8786  1.9593
    8CHL1    C2  565   1.293   4.805   6.154  0.6787  0.6604 -0.0841
    8CHL1   H2A  566   1.318   4.901   6.204  2.9542  0.5737 -0.9216
    8CHL1   H2B  567   1.386   4.753   6.125 -1.0345 -1.2365 -2.5958
    8CHL1   C20  568   0.813   4.816   5.331  0.4089 -0.4527  0.7784
    8CHL1   H20  569   0.896   4.755   5.289  0.3828 -0.5678  0.8923
    8CHL1   C21  570   0.856   4.964   5.320  0.0363  0.0821  0.1708
    8CHL1  H21A  571   0.941   4.983   5.251  0.7020  1.0090  1.2066
    8CHL1  H21B  572   0.891   5.003   5.418 -1.3386  1.1134  0.2678
    8CHL1  H21C  573   0.775   5.033   5.291  2.1297  2.6560  0.1337
    8CHL1   C22  574   0.678   4.798   5.252  0.7085  0.2643  0.4834
    8CHL1  H22A  575   0.639   4.694   5.245 -1.4837  1.1498 -1.6672
    8CHL1  H22B  576   0.605   4.862   5.306  0.0210  0.3678 -0.5482
    8CHL1   C23  577   0.674   4.834   5.102  0.0083 -0.3331 -1.2207
    8CHL1  H23A  578   0.567   4.830   5.072 -0.2647  1.3732 -0.6049
    8CHL1  H23B  579   0.695   4.943   5.090 -0.0346 -0.2253 -0.4126
    8CHL1   C24  580   0.750   4.738   5.004  0.2222 -0.1924 -0.3979
    8CHL1  H24A  581   0.859   4.754   5.021  0.5639 -2.9753  0.5233
    8CHL1  H24B  582   0.720   4.639   5.044  2.5832 -0.5346  0.7071
    8CHL1   C25  583   0.710   4.752   4.859 -0.4950  0.1139 -0.1979
    8CHL1   H25  584   0.602   4.727   4.847 -0.0594 -2.0863 -0.0586
    8CHL1   C26  585   0.742   4.887   4.801 -0.0229  0.3696  0.4735
    8CHL1  H26A  586   0.702   4.967   4.866 -0.1416  0.4166  0.3444
    8CHL1  H26B  587   0.851   4.892   4.782  0.0337 -1.8730 -0.1055
    8CHL1  H26C  588   0.681   4.890   4.708  1.8212  2.0164 -0.7537
    8CHL1   C27  589   0.776   4.641   4.776 -0.5684  0.1625 -0.5830
    8CHL1  H27A  590   0.887   4.636   4.785 -0.5598 -2.1173 -1.4655
    8CHL1  H27B  591   0.731   4.548   4.815 -0.6739  0.3791 -0.1848
    8CHL1  H27C  592   0.755   4.655   4.668 -0.1738 -0.3696 -0.7309
    9CHL1    C3  593   2.736   2.072   6.186 -0.2316 -0.2459 -0.1845
    9CHL1    H3  594   2.648   2.008   6.166 -1.5691  1.4135  0.1756
    9CHL1    O3  595   2.777   2.065   6.320  0.8878  0.1199 -0.0542
    9CHL1   H3'  596   2.828   2.146   6.332  1.6266 -0.6081  2.3148
    9CHL1    C4  597   2.857   2.023   6.100 -0.1682 -0.5331  0.5961
    9CHL1   H4A  598   2.948   2.081   6.129 -0.0370 -0.5320  0.1918
    9CHL1   H4B  599   2.873   1.919   6.136  2.3967 -0.1179  0.8825
    9CHL1    C5  600   2.824   2.033   5.952 -0.5966  0.1038 -0.4560
    9CHL1    C6  601   2.837   1.919   5.880  0.0150  0.4477 -0.5594
    9CHL1    H6  602   2.889   1.835   5.928  0.5480  1.2812  0.3589
    9CHL1    C7  603   2.842   1.935   5.731  0.1744 -0.1306  0.0785
    9CHL1   H7A  604   2.935   1.886   5.695  0.3107 -0.1833  0.4944
    9CHL1   H7B  605   2.748   1.886   5.699 -0.0847 -0.5728  1.4217
    9CHL1    C8  606   2.836   2.075   5.673 -0.0410 -0.3726  0.5329
    9CHL1    H8  607   2.943   2.103   5.689 -0.2339  1.3071 -0.8009
    9CHL1   C14  608   2.800   2.076   5.523 -0.2739  0.9800  0.7624
    9CHL1   H14  609   2.697   2.034   5.519 -1.3666  3.5020  0.6126
    9CHL1   C15  610   2.874   1.980   5.424 -0.4941 -0.4983  0.0517
    9CHL1  H15A  611   2.978   1.973   5.461 -0.2765 -1.3310 -0.6706
    9CHL1  H15B  612   2.829   1.880   5.441 -2.3531  0.1351 -0.8530
    9CHL1   C16  613   2.856   2.047   5.284  0.1530  0.2421 -0.7028
    9CHL1  H16A  614   2.958   2.081   5.255  1.0782 -2.5860 -1.1238
    9CHL1  H16B  615   2.834   1.967   5.210  1.7470 -2.8138  1.8184
    9CHL1   C17  616   2.762   2.167   5.309  0.4412 -0.3736  0.4490
    9CHL1   H17  617   2.658   2.128   5.302  0.0487  0.5242  1.1774
    9CHL1   C13  618   2.798   2.212   5.452  0.2343 -0.8934 -0.3709
    9CHL1   C18  619   2.940   2.275   5.456  0.2345  0.3553 -0.0737
    9CHL1  H18A  620   2.930   2.374   5.407  1.1223  2.1145  3.0298
    9CHL1  H18B  621   2.977   2.287   5.560 -1.6932  1.5415  0.5047
    9CHL1  H18C  622   3.009   2.208   5.399 -0.6622  1.1682 -2.2026
    9CHL1   C12  623   2.696   2.294   5.536  0.7517 -0.1436 -0.8465
    9CHL1  H12A  624   2.679   2.391   5.486 -1.7087  0.1207  0.3858
    9CHL1  H12B  625   2.594   2.253   5.526  0.5193  0.6913 -2.1433
    9CHL1   C11  626   2.743   2.313   5.686 -0.7913 -0.4862  0.3042
    9CHL1  H11A  627   2.837   2.373   5.687 -1.8241  1.4121 -2.8659
    9CHL1  H11B  628   2.680   2.381   5.747  1.3591  0.5182  1.5593
    9CHL1    C9  629   2.747   2.173   5.751  0.2256 -0.4523 -0.4316
    9CHL1    H9  630   2.645   2.131   5.744 -0.1679  0.2666  0.6909
    9CHL1   C10  631   2.789   2.171   5.903 -0.4190 -0.0064  0.4263
    9CHL1   C19  632   2.915   2.265   5.915  0.5791 -0.5844  0.3239
    9CHL1  H19A  633   2.985   2.244   5.832  0.8020  0.4586  0.2278
    9CHL1  H19B  634   2.881   2.370   5.903  0.2772 -0.6440  0.6255
    9CHL1  H19C  635   2.973   2.263   6.010  2.6498 -0.9660 -0.9025
    9CHL1    C1  636   2.675   2.219   5.996 -0.3096  0.0880 -0.2950
    9CHL1   H1A  637   2.642   2.320   5.965  1.8926  0.8836 -0.1726
    9CHL1   H1B  638   2.592   2.146   5.982 -0.4994  0.5157 -1.5114
    9CHL1    C2  639   2.701   2.216   6.152  0.0214  0.7673  0.8002
    9CHL1   H2A  640   2.605   2.246   6.199 -0.7351  2.2562 -1.5204
    9CHL1   H2B  641   2.780   2.283   6.192 -0.7020  0.5992  2.6033
    9CHL1   C20  642   2.781   2.270   5.201  0.0209 -1.0594 -0.8574
    9CHL1   H20  643   2.866   2.338   5.223  0.6123 -2.2229  0.6173
    9CHL1   C21  644   2.657   2.364   5.189 -0.5129  0.1592  0.1835
    9CHL1  H21A  645   2.560   2.311   5.198  0.2766 -1.6440 -1.1455
    9CHL1  H21B  646   2.652   2.415   5.090  0.0366  0.3662  0.2601
    9CHL1  H21C  647   2.653   2.444   5.266  0.1835 -1.1665  1.6310
    9CHL1   C22  648   2.809   2.215   5.055  0.4989  0.4712  0.4295
    9CHL1  H22A  649   2.804   2.302   4.986 -2.7149  1.3013  1.5093
    9CHL1  H22B  650   2.911   2.171   5.054  0.5776  0.6191  1.3652
    9CHL1   C23  651   2.709   2.122   4.986  0.1142 -0.1547  0.1657
    9CHL1  H23A  652   2.695   2.032   5.050 -0.9999  0.5135  0.8874
    9CHL1  H23B  653   2.610   2.171   4.979 -1.0546 -2.3596  0.5352
    9CHL1   C24  654   2.748   2.093   4.835  0.3447 -0.5207  0.1701
    9CHL1  H24A  655   2.747   2.187   4.775 -0.2645 -0.2850  0.5379
    9CHL1  H24B  656   2.858   2.077   4.832  0.9047  2.7579 -2.5881
    9CHL1   C25  657   2.671   1.995   4.760  0.3467  0.0832  0.2712
    9CHL1   H25  658   2.680   1.894   4.806 -2.8538 -1.3031 -1.8328
    9CHL1   C26  659   2.525   2.032   4.760 -0.1469  0.0335 -0.2761
    9CHL1  H26A  660   2.505   2.117   4.692 -1.6303 -0.1282 -0.0914
    9CHL1  H26B  661   2.465   1.951   4.714 -0.8269  1.1604 -1.4324
    9CHL1  H26C  662   2.492   2.054   4.864  1.4614 -0.8839  0.4694
    9CHL1   C27  663   2.727   1.975   4.618  0.2172  1.1892  0.0551
    9CHL1  H27A  664   2.701   2.060   4.551 -3.4554  1.2144  1.2536
    9CHL1  H27B  665   2.834   1.946   4.621  0.1332  0.1739 -2.9931
    9CHL1  H27C  666   2.677   1.888   4.570  1.9939  0.4679 -0.5714
   10CHL1    C3  667   3.030   1.565   6.321 -0.4557  0.0826 -0.7583
   10CHL1    H3  668   2.922   1.580   6.339 -0.6593 -0.4242 -1.5125
   10CHL1    O3  669   3.102   1.589   6.441 -0.3505 -0.1076 -0.2909
   10CHL1   H3'  670   3.198   1.586   6.429 -0.2813  1.8436 -0.6677
   10CHL1    C4  671   3.069   1.429   6.276  0.1070 -0.2194 -0.0818
   10CHL1   H4A  672   3.178   1.419   6.258  0.3723  1.0913  0.6481
   10CHL1   H4B  673   3.035   1.365   6.361 -0.2569  0.2409  0.1227
   10CHL1    C5  674   2.992   1.394   6.148 -0.0092 -0.6546  0.2178
   10CHL1    C6  675   2.903   1.295   6.138 -0.2492  0.1288 -0.2975
   10CHL1    H6  676   2.890   1.231   6.227  0.7818 -0.3991 -0.5111
   10CHL1    C7  677   2.844   1.254   6.006  0.4489  0.8025  0.2056
   10CHL1   H7A  678   2.825   1.144   6.001  0.8051  0.7731 -0.8028
   10CHL1   H7B  679   2.739   1.290   6.016  0.4370  0.9353 -0.3497
   10CHL1    C8  680   2.917   1.318   5.885  0.3517  0.1616 -0.0248
   10CHL1    H8  681   3.019   1.275   5.886 -0.0367 -0.8882 -1.6096
   10CHL1   C14  682   2.853   1.280   5.744 -0.0357  0.0961 -1.0927
   10CHL1   H14  683   2.743   1.297   5.741 -0.7109 -2.9149  1.5543
   10CHL1   C15  684   2.852   1.136   5.706 -0.1769 -0.7587  0.1250
   10CHL1  H15A  685   2.951   1.097   5.737  1.1940  2.3273  0.0012
   10CHL1  H15B  686   2.779   1.075   5.764 -0.4640 -1.4712 -0.9423
   10CHL1   C16  687   2.834   1.140   5.557 -0.0203  0.1749 -0.1996
   10CHL1  H16A  688   2.918   1.076   5.523  0.6043  1.2792 -0.8187
   10CHL1  H16B  689   2.742   1.088   5.523 -1.0751  3.3222 -2.7379
   10CHL1   C17  690   2.833   1.284   5.515 -0.6812 -0.8433  0.5469
   10CHL1   H17  691   2.728   1.321   5.527 -1.1570 -1.7684 -0.6446
   10CHL1   C13  692   2.910   1.359   5.625 -0.0394 -0.3868  0.0954
   10CHL1   C18  693   3.059   1.323   5.605 -1.2599  0.1793  0.0741
   10CHL1  H18A  694   3.103   1.397   5.535 -1.6905  0.0370 -0.3476
   10CHL1  H18B  695   3.115   1.332   5.701 -0.7844  2.8319 -0.3708
   10CHL1  H18C  696   3.089   1.223   5.569  0.2690  0.6427 -0.0530
   10CHL1   C12  697   2.894   1.505   5.646  0.1753 -0.5795 -0.5210
   10CHL1  H12A  698   2.916   1.573   5.560 -3.7969  1.7484  0.0362
   10CHL1  H12B  699   2.787   1.530   5.663  0.3513  0.9592 -1.4086
   10CHL1   C11  700   2.974   1.546   5.774 -0.2165 -0.2848  0.2470
   10CHL1  H11A  701   3.084   1.530   5.766  0.2772  0.8196  3.4290
   10CHL1  H11B  702   2.972   1.654   5.801  0.1539 -0.6214  1.7437
   10CHL1    C9  703   2.925   1.467   5.908 -0.6727  0.2740 -0.5393
   10CHL1    H9  704   2.826   1.505   5.939 -0.2486  1.0683 -0.1293
   10CHL1   C10  705   3.020   1.492   6.031  0.6470 -0.7796  0.0875
   10CHL1   C19  706   3.171   1.477   5.993 -0.1493 -0.0470 -0.3851
   10CHL1  H19A  707   3.248   1.491   6.071  0.5824 -0.8101 -0.9557
   10CHL1  H19B  708   3.184   1.374   5.952  0.4025 -0.0893 -0.1160
   10CHL1  H19C  709   3.196   1.555   5.918 -0.4373  0.4252  0.0032
   10CHL1    C1  710   3.006   1.638   6.085 -0.0335  0.1429 -0.0620
   10CHL1   H1A  711   3.047   1.715   6.016 -0.6496  0.7122  0.1972
   10CHL1   H1B  712   2.902   1.672   6.105  0.0200 -0.0113  0.4997
   10CHL1    C2  713   3.089   1.664   6.216  0.0226 -0.0414  0.1210
   10CHL1   H2A  714   3.076   1.771   6.244 -1.2314 -0.3635  0.8255
   10CHL1   H2B  715   3.197   1.650   6.193  0.3805  0.9382  1.1676
   10CHL1   C20  716   2.873   1.302   5.366  0.2583 -0.2567  0.0321
   10CHL1   H20  717   2.983   1.288   5.355  0.2392 -0.0444 -0.4475
   10CHL1   C21  718   2.828   1.447   5.325 -0.0476 -0.7767 -0.1146
   10CHL1  H21A  719   2.887   1.527   5.373  0.5184 -2.8926  3.0419
   10CHL1  H21B  720   2.726   1.465   5.367  0.4405  1.1672  0.3184
   10CHL1  H21C  721   2.829   1.456   5.214  0.3153 -0.6663 -0.1031
   10CHL1   C22  722   2.818   1.185   5.278 -0.0004  0.0704  0.3746
   10CHL1  H22A  723   2.853   1.087   5.318 -2.1266 -1.3617 -1.0664
   10CHL1  H22B  724   2.707   1.187   5.289 -0.2861  2.1913 -2.0940
   10CHL1   C23  725   2.856   1.181   5.129  0.3411 -0.0986  0.0279
   10CHL1  H23A  726   2.831   1.271   5.069 -2.3838 -0.7779  0.0119
   10CHL1  H23B  727   2.966   1.175   5.118  0.2057 -1.4861 -0.9089
   10CHL1   C24  728   2.802   1.057   5.061 -0.3903  0.7483  0.0207
   10CHL1  H24A  729   2.830   0.963   5.113 -0.0973  0.9743  0.2738
   10CHL1  H24B  730   2.693   1.065   5.080 -1.0090 -1.8918 -1.8893
   10CHL1   C25  731   2.801   1.055   4.902  0.3431  0.4669  0.1752
   10CHL1   H25  732   2.776   1.154   4.858 -4.1201 -0.8031 -0.6782
   10CHL1   C26  733   2.943   1.013   4.849  0.6708 -0.3574 -0.1411
   10CHL1  H26A  734   2.941   1.006   4.739  1.9754 -0.7312 -0.1564
   10CHL1  H26B  735   3.016   1.089   4.884 -1.5152  2.4281 -1.2280
   10CHL1  H26C  736   2.968   0.914   4.894  1.5655 -0.3303 -0.5705
   10CHL1   C27  737   2.699   0.955   4.836 -0.1788 -0.0589 -0.9465
   10CHL1  H27A  738   2.713   0.962   4.726  2.9275  0.4015 -0.6094
   10CHL1  H27B  739   2.704   0.852   4.875  1.6817 -0.2902 -1.6988
   10CHL1  H27C  740   2.596   0.980   4.869  0.1197  1.0795 -0.8222
   11CHL1    C3  741   0.649   4.161   6.083  0.0373  0.6088 -0.5065
   11CHL1    H3  742   0.679   4.267   6.095  1.2722  0.1428  0.8055
   11CHL1    O3  743   0.670   4.091   6.199  0.0185 -0.4676  0.1146
   11CHL1   H3'  744   0.642   4.001   6.182  0.4818 -0.7302  0.6954
   11CHL1    C4  745   0.494   4.164   6.079 -0.1913  0.1251  0.1707
   11CHL1   H4A  746   0.446   4.068   6.106  2.0330 -0.0437  4.4254
   11CHL1   H4B  747   0.464   4.217   6.172 -0.9153 -1.0513  0.6326
   11CHL1    C5  748   0.451   4.239   5.954 -0.3705  0.0916  0.2819
   11CHL1    C6  749   0.377   4.353   5.959  0.6493  0.3351 -0.7557
   11CHL1    H6  750   0.340   4.393   6.055 -0.9480 -1.5543 -0.5140
   11CHL1    C7  751   0.342   4.425   5.831  0.2885  0.3760 -0.1688
   11CHL1   H7A  752   0.248   4.484   5.839 -0.8315 -0.8335 -3.0163
   11CHL1   H7B  753   0.418   4.503   5.808  1.7249 -1.3606 -1.5850
   11CHL1    C8  754   0.353   4.344   5.704  0.5503  0.0540 -0.5766
   11CHL1    H8  755   0.259   4.285   5.714  1.7894 -1.8475  0.2894
   11CHL1   C14  756   0.336   4.422   5.578  0.2204 -0.4146  0.1587
   11CHL1   H14  757   0.422   4.487   5.551 -1.4412  0.3746 -4.1266
   11CHL1   C15  758   0.216   4.512   5.569  0.0364 -0.4683  0.7781
   11CHL1  H15A  759   0.126   4.479   5.626 -0.7870  0.6286  0.1482
   11CHL1  H15B  760   0.243   4.613   5.608  0.6286  0.4540 -1.8466
   11CHL1   C16  761   0.185   4.532   5.420  0.0905  0.3465 -0.5043
   11CHL1  H16A  762   0.082   4.500   5.394  0.2244 -1.4695  1.0131
   11CHL1  H16B  763   0.197   4.639   5.392 -0.6212  0.6877  0.4761
   11CHL1   C17  764   0.291   4.445   5.354  0.8220  0.4844 -0.2456
   11CHL1   H17  765   0.384   4.503   5.336 -0.3981  2.4411 -0.5070
   11CHL1   C13  766   0.325   4.330   5.457 -0.3160 -0.3358  0.8593
   11CHL1   C18  767   0.206   4.232   5.464  0.2992 -0.1561  0.3819
   11CHL1  H18A  768   0.111   4.266   5.510  0.8868 -0.5680  1.9710
   11CHL1  H18B  769   0.192   4.184   5.365  0.8101  0.3428  0.0591
   11CHL1  H18C  770   0.219   4.145   5.532  0.7374  0.7514  1.5040
   11CHL1   C12  771   0.457   4.259   5.433 -0.0932 -0.1940  0.5675
   11CHL1  H12A  772   0.460   4.185   5.350  0.9639 -1.9105  2.0527
   11CHL1  H12B  773   0.532   4.339   5.414  0.4895 -0.8749 -0.0975
   11CHL1   C11  774   0.497   4.177   5.563  0.6682 -0.4919  0.4214
   11CHL1  H11A  775   0.436   4.085   5.548  1.8126 -0.9404 -1.9149
   11CHL1  H11B  776   0.604   4.147   5.551  0.9837 -0.8006  3.2774
   11CHL1    C9  777   0.479   4.256   5.692 -0.6458 -0.7032 -0.8754
   11CHL1    H9  778   0.560   4.331   5.697 -1.4144  0.0878  0.0130
   11CHL1   C10  779   0.503   4.174   5.828  0.2337 -0.3666  0.3422
   11CHL1   C19  780   0.434   4.036   5.809  0.1324  0.4890 -0.5799
   11CHL1  H19A  781   0.342   4.033   5.747  1.2608  0.2301 -2.2989
   11CHL1  H19B  782   0.507   3.968   5.760 -0.0184  0.4123 -0.7006
   11CHL1  H19C  783   0.408   3.985   5.905  0.8753 -1.7372 -1.4898
   11CHL1    C1  784   0.663   4.154   5.833  0.2204 -0.0002  0.3123
   11CHL1   H1A  785   0.683   4.097   5.740  1.5961  0.5180  0.2747
   11CHL1   H1B  786   0.704   4.257   5.826  1.2000 -0.4827 -1.7573
   11CHL1    C2  787   0.711   4.095   5.960  0.1169  0.0677  0.3448
   11CHL1   H2A  788   0.820   4.113   5.972 -0.1677  1.3519  1.1302
   11CHL1   H2B  789   0.682   3.987   5.961 -3.3718  0.8514 -1.8565
   11CHL1   C20  790   0.233   4.395   5.216 -0.4206 -0.0137  0.5276
   11CHL1   H20  791   0.151   4.321   5.228  0.2379 -1.1184 -1.3622
   11CHL1   C21  792   0.334   4.315   5.135 -0.2467 -0.3134  0.1292
   11CHL1  H21A  793   0.435   4.357   5.151  0.1374 -1.2741  0.3198
   11CHL1  H21B  794   0.324   4.323   5.024  5.0722  0.8612 -0.5308
   11CHL1  H21C  795   0.351   4.209   5.163  0.2568 -0.8473 -2.0251
   11CHL1   C22  796   0.163   4.504   5.134  0.1854  0.3371  0.1019
   11CHL1  H22A  797   0.139   4.453   5.038  0.3626  0.4699 -0.0135
   11CHL1  H22B  798   0.070   4.544   5.181 -2.1009 -2.6078 -1.5974
   11CHL1   C23  799   0.255   4.617   5.073  0.0785 -1.2481 -0.0282
   11CHL1  H23A  800   0.299   4.666   5.162  0.4358  0.6122 -1.1895
   11CHL1  H23B  801   0.334   4.578   5.005  1.7045 -0.7879  1.5353
   11CHL1   C24  802   0.182   4.715   4.987  0.0372 -0.1747  0.0249
   11CHL1  H24A  803   0.119   4.664   4.910  0.7614 -1.4527  0.2423
   11CHL1  H24B  804   0.111   4.782   5.039 -0.4632 -0.6145 -0.0759
   11CHL1   C25  805   0.269   4.818   4.911  0.5713 -0.2703 -0.0886
   11CHL1   H25  806   0.367   4.776   4.880 -0.3787 -1.1141 -2.0837
   11CHL1   C26  807   0.197   4.876   4.791 -0.8096 -0.0557  0.7372
   11CHL1  H26A  808   0.249   4.966   4.752 -1.5542  0.7659  1.6062
   11CHL1  H26B  809   0.189   4.793   4.718 -0.2135 -0.1491  0.7700
   11CHL1  H26C  810   0.097   4.912   4.824 -2.9519 -2.6663 -2.1977
   11CHL1   C27  811   0.314   4.932   5.010  0.1061 -0.1566 -0.9781
   11CHL1  H27A  812   0.363   4.876   5.092 -2.5945 -0.3610  0.6021
   11CHL1  H27B  813   0.374   5.015   4.967  1.0876  0.1104  0.8059
   11CHL1  H27C  814   0.221   4.983   5.041 -0.0235 -0.5416 -0.7237
   12CHL1    C3  815   2.870   3.978   5.867  0.0760 -0.5996  0.0229
   12CHL1    H3  816   2.954   3.915   5.903 -0.1336 -1.2774 -0.6460
   12CHL1    O3  817   2.831   4.056   5.974  0.1907  0.0447 -0.8999
   12CHL1   H3'  818   2.761   4.113   5.941  2.4516  3.0021 -0.9099
   12CHL1    C4  819   2.914   4.064   5.757  0.1835  0.7544 -0.0511
   12CHL1   H4A  820   2.839   4.145   5.745 -1.9895 -1.2538 -0.6890
   12CHL1   H4B  821   3.005   4.113   5.797  0.5374 -1.6708  2.4138
   12CHL1    C5  822   2.926   4.000   5.618  0.3920 -0.0367 -0.3220
   12CHL1    C6  823   3.040   4.008   5.541  0.4349 -0.0440 -1.0298
   12CHL1    H6  824   3.123   4.075   5.568 -0.1848 -0.5005  2.4011
   12CHL1    C7  825   3.063   3.948   5.407 -0.1296 -0.0698  0.8207
   12CHL1   H7A  826   3.108   4.020   5.335 -1.8085  0.1497 -0.0716
   12CHL1   H7B  827   3.134   3.864   5.396 -0.2127  0.0282 -0.7628
   12CHL1    C8  828   2.926   3.895   5.348  0.4236  0.1712 -0.7303
   12CHL1    H8  829   2.874   3.982   5.304  0.2207 -0.7763 -2.4702
   12CHL1   C14  830   2.955   3.803   5.231  0.0354  0.1450  0.6028
   12CHL1   H14  831   3.017   3.722   5.274  0.3672  0.7552  1.2925
   12CHL1   C15  832   3.043   3.860   5.122  0.2248 -0.6328  0.7434
   12CHL1  H15A  833   3.006   3.963   5.101 -1.2009 -1.4545 -1.0114
   12CHL1  H15B  834   3.153   3.852   5.137  0.1558 -2.6826  0.3813
   12CHL1   C16  835   3.010   3.767   5.000 -0.2777 -0.2201 -0.4384
   12CHL1  H16A  836   2.982   3.829   4.912 -2.5326  0.3438  0.5989
   12CHL1  H16B  837   3.101   3.709   4.975 -0.9290 -1.2823 -0.4283
   12CHL1   C17  838   2.906   3.666   5.050 -0.0104 -0.0621 -0.3463
   12CHL1   H17  839   2.967   3.582   5.090 -1.3785 -0.6053  0.6993
   12CHL1   C13  840   2.838   3.736   5.171  0.6149 -0.0359  0.5088
   12CHL1   C18  841   2.724   3.827   5.122  0.8314 -0.1049  0.3248
   12CHL1  H18A  842   2.676   3.885   5.204 -1.3244 -2.6909  1.0188
   12CHL1  H18B  843   2.754   3.901   5.045 -0.0831  2.3534  2.1836
   12CHL1  H18C  844   2.637   3.764   5.093  2.1593 -0.8386 -2.3279
   12CHL1   C12  845   2.783   3.642   5.271 -0.1178  0.3196 -0.2816
   12CHL1  H12A  846   2.694   3.584   5.239 -0.8058  1.4429 -0.4714
   12CHL1  H12B  847   2.863   3.567   5.289  0.7031  1.2369  0.0484
   12CHL1   C11  848   2.743   3.711   5.402 -0.2591 -0.1630  0.1695
   12CHL1  H11A  849   2.661   3.782   5.379 -0.5480 -0.3909  0.5030
   12CHL1  H11B  850   2.725   3.635   5.481  2.0468 -0.7336  0.2126
   12CHL1    C9  851   2.861   3.808   5.453 -0.0539 -0.7846 -0.1111
   12CHL1    H9  852   2.941   3.738   5.486 -0.2500 -1.8501 -1.7753
   12CHL1   C10  853   2.816   3.900   5.578  0.3896  0.1363  0.3831
   12CHL1   C19  854   2.690   3.981   5.545  0.5297  0.2113  0.5689
   12CHL1  H19A  855   2.702   4.036   5.450 -0.9391  1.4817  1.0851
   12CHL1  H19B  856   2.593   3.928   5.542  0.0303  1.1090  0.4402
   12CHL1  H19C  857   2.671   4.064   5.616  0.5034 -0.4769  1.3920
   12CHL1    C1  858   2.797   3.808   5.706 -0.1278 -0.3565  0.1632
   12CHL1   H1A  859   2.729   3.720   5.699 -0.8501  0.0967  1.2699
   12CHL1   H1B  860   2.900   3.767   5.717  0.0855 -0.0145 -0.4973
   12CHL1    C2  861   2.762   3.881   5.833  1.0337  0.0635 -0.0508
   12CHL1   H2A  862   2.755   3.815   5.922  1.8032  0.5594  0.3799
   12CHL1   H2B  863   2.670   3.942   5.822  0.0075 -0.2131  4.8755
   12CHL1   C20  864   2.821   3.600   4.932  0.0601 -0.3551 -0.0995
   12CHL1   H20  865   2.764   3.673   4.872  1.7003  0.2272 -0.9946
   12CHL1   C21  866   2.730   3.491   4.993  0.4445 -0.9803  0.6411
   12CHL1  H21A  867   2.646   3.544   5.043  1.7536  0.4582  1.3936
   12CHL1  H21B  868   2.782   3.444   5.079  1.1167  0.4286  1.0218
   12CHL1  H21C  869   2.697   3.412   4.921 -0.8305  1.1046 -1.1983
   12CHL1   C22  870   2.904   3.530   4.827  0.4338 -0.6210  0.6208
   12CHL1  H22A  871   2.836   3.484   4.753 -0.1163 -0.2277  0.8736
   12CHL1  H22B  872   2.964   3.606   4.774 -0.8372 -0.5816 -0.8207
   12CHL1   C23  873   3.010   3.430   4.873 -0.5153  1.4242  0.8169
   12CHL1  H23A  874   3.107   3.482   4.887  0.3856  0.3213 -1.0147
   12CHL1  H23B  875   2.976   3.388   4.971  0.7579  0.0701  0.7005
   12CHL1   C24  876   3.035   3.331   4.764 -0.5750 -1.0481  0.1309
   12CHL1  H24A  877   2.940   3.288   4.727  0.0296 -1.8320 -0.5459
   12CHL1  H24B  878   3.091   3.385   4.684 -0.1116  1.0268  1.7743
   12CHL1   C25  879   3.123   3.210   4.798  0.0780 -0.0151 -0.0536
   12CHL1   H25  880   3.211   3.252   4.852 -0.1738 -0.1055  0.4284
   12CHL1   C26  881   3.041   3.116   4.894 -0.0726  0.5341 -0.1457
   12CHL1  H26A  882   3.085   3.015   4.911  1.6878  1.1273 -0.9784
   12CHL1  H26B  883   3.048   3.168   4.992  1.1766  1.5422 -0.7462
   12CHL1  H26C  884   2.939   3.106   4.852  0.3301 -1.5161 -0.7437
   12CHL1   C27  885   3.176   3.141   4.671 -0.1017  0.6303 -0.2258
   12CHL1  H27A  886   3.227   3.220   4.611 -0.7397  2.2440  1.2602
   12CHL1  H27B  887   3.249   3.061   4.697 -0.4504  0.3901  0.0200
   12CHL1  H27C  888   3.090   3.094   4.618  0.6574 -1.0143 -0.0533
   13CHL1    C3  889   2.301   3.655   6.047  0.5673  0.3483  1.1328
   13CHL1    H3  890   2.235   3.567   6.030 -1.1478  0.4940  5.7313
   13CHL1    O3  891   2.337   3.657   6.183  0.4114  0.0834  0.4561
   13CHL1   H3'  892   2.404   3.725   6.191 -0.5293  0.9001  1.7712
   13CHL1    C4  893   2.425   3.664   5.962 -0.0223  0.0904 -0.0751
   13CHL1   H4A  894   2.484   3.756   5.982 -1.0031  0.6654  0.2155
   13CHL1   H4B  895   2.486   3.576   5.992 -1.6155 -1.5283 -1.3523
   13CHL1    C5  896   2.403   3.656   5.811 -0.1186 -0.1319 -0.1300
   13CHL1    C6  897   2.460   3.567   5.729  0.1607 -0.2735  0.6277
   13CHL1    H6  898   2.541   3.504   5.768  1.0585  2.0002  2.7386
   13CHL1    C7  899   2.447   3.567   5.581  0.0661  0.0002  0.3732
   13CHL1   H7A  900   2.546   3.563   5.530  0.2906 -1.5670  0.8635
   13CHL1   H7B  901   2.390   3.472   5.565 -0.4683  0.1980  1.0824
   13CHL1    C8  902   2.362   3.683   5.531  0.2057 -0.3869  0.5888
   13CHL1    H8  903   2.432   3.767   5.517 -1.0417  0.3669 -1.6336
   13CHL1   C14  904   2.299   3.663   5.391  0.4063  1.0176 -0.6720
   13CHL1   H14  905   2.224   3.582   5.403  0.7003  0.9188  0.5190
   13CHL1   C15  906   2.392   3.626   5.276 -0.1177  0.1953  0.4109
   13CHL1  H15A  907   2.486   3.684   5.275  1.0973 -1.6750 -1.0436
   13CHL1  H15B  908   2.422   3.519   5.275 -1.5820 -0.2445 -0.5139
   13CHL1   C16  909   2.308   3.667   5.151 -0.2139  0.7055 -0.8154
   13CHL1  H16A  910   2.375   3.731   5.091  2.2302 -0.1084  0.8681
   13CHL1  H16B  911   2.301   3.571   5.095  1.6388 -3.0653  4.4900
   13CHL1   C17  912   2.184   3.737   5.212  1.2424 -0.0218  0.5712
   13CHL1   H17  913   2.115   3.653   5.230 -0.1501  0.9564 -0.0266
   13CHL1   C13  914   2.219   3.784   5.345 -0.1776 -0.0374  0.2421
   13CHL1   C18  915   2.314   3.908   5.331 -0.2381  0.0800 -0.4303
   13CHL1  H18A  916   2.399   3.889   5.262  0.1045 -0.5767  0.1585
   13CHL1  H18B  917   2.253   3.993   5.294 -0.6723 -0.5297 -1.1440
   13CHL1  H18C  918   2.351   3.948   5.428 -2.2459  1.7902 -0.2916
   13CHL1   C12  919   2.099   3.806   5.437 -0.6185 -0.3138 -0.1034
   13CHL1  H12A  920   2.052   3.902   5.404 -1.3345  0.4561  2.8383
   13CHL1  H12B  921   2.014   3.738   5.415 -1.2969  1.1811 -2.6147
   13CHL1   C11  922   2.141   3.819   5.587  0.1825  0.1563  0.5207
   13CHL1  H11A  923   2.153   3.929   5.596  0.5380  0.0015  2.3018
   13CHL1  H11B  924   2.045   3.807   5.643 -1.9562  1.5145 -2.5653
   13CHL1    C9  925   2.251   3.724   5.631 -0.2788 -0.3112 -0.5215
   13CHL1    H9  926   2.210   3.627   5.665  0.8578  0.2587  2.9305
   13CHL1   C10  927   2.303   3.764   5.769 -0.1474  0.0234  0.4464
   13CHL1   C19  928   2.358   3.908   5.758 -0.5554  1.1086 -0.4053
   13CHL1  H19A  929   2.285   3.992   5.749 -1.8835  0.1251  0.6463
   13CHL1  H19B  930   2.395   3.930   5.860 -1.6811 -2.3986  0.9178
   13CHL1  H19C  931   2.445   3.907   5.690  0.1645 -1.4004  0.4339
   13CHL1    C1  932   2.179   3.777   5.867 -0.8098  0.5542 -0.5509
   13CHL1   H1A  933   2.113   3.864   5.847 -1.1180  1.1563  2.6137
   13CHL1   H1B  934   2.110   3.691   5.852 -0.0757 -0.0944 -0.2889
   13CHL1    C2  935   2.219   3.783   6.015 -0.4326 -0.2867  0.4429
   13CHL1   H2A  936   2.128   3.783   6.078 -0.7103  0.8532  0.0694
   13CHL1   H2B  937   2.280   3.871   6.046 -0.7829  0.4405 -0.8678
   13CHL1   C20  938   2.114   3.837   5.108  0.5209  0.1377 -0.4108
   13CHL1   H20  939   2.076   3.924   5.165  0.4580 -1.0190  1.3855
   13CHL1   C21  940   1.998   3.756   5.048  1.0975  0.6698 -0.3176
   13CHL1  H21A  941   1.925   3.816   4.990  0.7926  1.2035  0.5953
   13CHL1  H21B  942   1.935   3.716   5.131  0.9247  2.3064  0.3750
   13CHL1  H21C  943   2.035   3.664   4.998 -2.3655 -1.5407  0.8132
   13CHL1   C22  944   2.195   3.900   4.994  0.3145  0.3146 -0.3849
   13CHL1  H22A  945   2.280   3.938   5.055 -0.7571 -0.7374  1.8620
   13CHL1  H22B  946   2.228   3.828   4.916 -0.6677 -0.7140  0.1248
   13CHL1   C23  947   2.136   4.025   4.928  0.7921 -0.8576  0.3219
   13CHL1  H23A  948   2.072   3.996   4.842  0.8238 -0.0487  0.0250
   13CHL1  H23B  949   2.063   4.070   4.998 -0.1647 -2.6422  0.5341
   13CHL1   C24  950   2.235   4.131   4.880  0.4607  0.9618  0.0977
   13CHL1  H24A  951   2.310   4.154   4.959  0.4867 -1.3244  0.8147
   13CHL1  H24B  952   2.296   4.089   4.797 -1.6943 -1.8325 -0.2078
   13CHL1   C25  953   2.169   4.263   4.839  0.8750  0.0290  0.3433
   13CHL1   H25  954   2.087   4.230   4.772  1.3057  0.4897 -0.4305
   13CHL1   C26  955   2.113   4.345   4.951  0.1956  0.1436  0.3795
   13CHL1  H26A  956   2.082   4.275   5.031 -2.0500 -0.2616 -0.7596
   13CHL1  H26B  957   2.189   4.413   4.994  0.9288 -1.4093  1.6426
   13CHL1  H26C  958   2.031   4.405   4.907 -0.9017 -0.8422  1.0252
   13CHL1   C27  959   2.269   4.347   4.763 -0.1891  0.2562  0.8650
   13CHL1  H27A  960   2.280   4.318   4.656 -0.5952  0.3692  0.7907
   13CHL1  H27B  961   2.239   4.454   4.764 -0.1488  0.3251 -1.0977
   13CHL1  H27C  962   2.375   4.341   4.794  0.7120 -0.5595 -2.0304
   14CHL1    C3  963   3.739   0.881   6.232 -0.5619 -0.6614 -0.0101
   14CHL1    H3  964   3.822   0.918   6.167  0.9186 -3.3857  0.2097
   14CHL1    O3  965   3.725   0.964   6.351 -0.1585 -0.0185 -0.3298
   14CHL1   H3'  966   3.723   0.908   6.430  2.2924 -1.2238 -0.9999
   14CHL1    C4  967   3.603   0.859   6.174  0.2639  0.6168  0.0805
   14CHL1   H4A  968   3.520   0.831   6.244 -0.8756  0.2841 -1.3642
   14CHL1   H4B  969   3.575   0.962   6.144  0.5101  0.2170 -1.5656
   14CHL1    C5  970   3.596   0.771   6.052  0.9679 -0.3343 -0.2297
   14CHL1    C6  971   3.554   0.814   5.937 -0.6574 -0.0265 -0.2053
   14CHL1    H6  972   3.532   0.920   5.923  3.1912  0.5987 -3.0909
   14CHL1    C7  973   3.546   0.725   5.819 -0.4705  0.2237 -0.0104
   14CHL1   H7A  974   3.459   0.747   5.755 -1.3233 -2.9834 -0.1197
   14CHL1   H7B  975   3.641   0.751   5.767 -0.8652 -0.1411 -0.9149
   14CHL1    C8  976   3.542   0.571   5.859 -0.2308  0.5176  0.2048
   14CHL1    H8  977   3.441   0.551   5.901 -0.4486  0.8929 -0.1305
   14CHL1   C14  978   3.575   0.485   5.734  0.0289 -0.1285  0.0723
   14CHL1   H14  979   3.669   0.523   5.689  0.1248 -1.1616 -0.6289
   14CHL1   C15  980   3.469   0.503   5.624  0.6855  0.2106  0.2034
   14CHL1  H15A  981   3.374   0.519   5.680 -0.0976 -1.5260 -0.5559
   14CHL1  H15B  982   3.480   0.600   5.571  2.5212  1.6265  2.9341
   14CHL1   C16  983   3.476   0.376   5.548 -0.4104  0.6073 -0.0611
   14CHL1  H16A  984   3.381   0.318   5.541 -0.4813  0.8283 -1.1048
   14CHL1  H16B  985   3.493   0.393   5.440 -1.9130  2.2318 -0.0865
   14CHL1   C17  986   3.586   0.287   5.622 -0.0340 -0.4233 -0.0624
   14CHL1   H17  987   3.689   0.316   5.591  0.0543  0.1585  0.7285
   14CHL1   C13  988   3.587   0.336   5.763  0.6855 -0.1701 -0.0848
   14CHL1   C18  989   3.454   0.282   5.831 -0.0702  0.3108 -0.0372
   14CHL1  H18A  990   3.441   0.317   5.935  2.2664  1.7283 -0.1428
   14CHL1  H18B  991   3.364   0.293   5.767  0.0531 -0.5859 -0.3925
   14CHL1  H18C  992   3.471   0.172   5.842 -1.2684 -0.0448 -1.4307
   14CHL1   C12  993   3.710   0.319   5.852 -0.4866  0.1923 -0.3462
   14CHL1  H12A  994   3.719   0.216   5.892  3.0604  0.8427  0.8915
   14CHL1  H12B  995   3.810   0.344   5.813  0.2501  0.5970  1.6751
   14CHL1   C11  996   3.686   0.397   5.985 -0.4807 -0.5938  0.3621
   14CHL1  H11A  997   3.611   0.336   6.041  0.2489 -0.2106  1.7945
   14CHL1  H11B  998   3.784   0.384   6.035  0.4824  1.3003 -0.9160
   14CHL1    C9  999   3.657   0.542   5.953 -0.2740 -0.7872 -0.5150
   14CHL1    H9 1000   3.749   0.572   5.898  1.3101  1.5480  3.0627
   14CHL1   C10 1001   3.650   0.629   6.081 -0.3411  0.1838  0.8004
   14CHL1   C19 1002   3.552   0.554   6.179 -0.2093 -0.0746  0.0608
   14CHL1  H19A 1003   3.575   0.451   6.214 -1.5665 -0.1161  0.8585
   14CHL1  H19B 1004   3.543   0.616   6.271  2.1513 -0.6990  0.7907
   14CHL1  H19C 1005   3.453   0.560   6.129  0.4286  0.3782 -1.2028
   14CHL1    C1 1006   3.784   0.632   6.159  0.4954 -0.0974 -0.2688
   14CHL1   H1A 1007   3.807   0.538   6.214  1.6690  0.2201 -0.1920
   14CHL1   H1B 1008   3.869   0.659   6.093  0.2392  0.5647 -0.3389
   14CHL1    C2 1009   3.789   0.738   6.274 -0.2299  0.0062  0.0090
   14CHL1   H2A 1010   3.894   0.743   6.310 -0.4624 -2.4078  1.2157
   14CHL1   H2B 1011   3.718   0.711   6.355 -2.6356  2.8188 -1.0085
   14CHL1   C20 1012   3.562   0.136   5.594  0.7234  0.1444  0.7471
   14CHL1   H20 1013   3.464   0.103   5.633 -0.0655 -1.1655 -2.0909
   14CHL1   C21 1014   3.669   0.047   5.668  0.9925 -0.5198  0.9846
   14CHL1  H21A 1015   3.644   0.057   5.776 -1.5816 -2.1903  0.6436
   14CHL1  H21B 1016   3.775   0.070   5.647  0.6347  0.0317 -0.3435
   14CHL1  H21C 1017   3.644  -0.057   5.637  2.4396 -0.9231  1.0965
   14CHL1   C22 1018   3.562   0.091   5.444 -0.0957 -0.2216  0.0440
   14CHL1  H22A 1019   3.547  -0.019   5.437 -1.5727 -0.0199 -0.2735
   14CHL1  H22B 1020   3.471   0.129   5.392 -1.1206 -1.2613  1.0113
   14CHL1   C23 1021   3.686   0.124   5.367 -0.7977 -0.0975  0.2432
   14CHL1  H23A 1022   3.711   0.232   5.371  1.6960 -0.4176 -2.8015
   14CHL1  H23B 1023   3.768   0.062   5.410 -1.5977 -0.1186  1.7962
   14CHL1   C24 1024   3.684   0.094   5.211 -0.2409 -1.0277  0.4579
   14CHL1  H24A 1025   3.623   0.169   5.157 -0.4921  0.2064  2.3318
   14CHL1  H24B 1026   3.776   0.099   5.150 -0.8147 -1.1246 -0.4227
   14CHL1   C25 1027   3.635  -0.046   5.172 -0.1813  0.2537 -0.0682
   14CHL1   H25 1028   3.538  -0.070   5.220 -0.7512  1.9166 -0.3369
   14CHL1   C26 1029   3.624  -0.057   5.019  0.3008  0.3631 -0.0729
   14CHL1  H26A 1030   3.540   0.011   4.991  0.2033  0.6074  0.7700
   14CHL1  H26B 1031   3.719  -0.023   4.974  0.6299  0.5254  0.7296
   14CHL1  H26C 1032   3.604  -0.158   4.977  0.2196  0.5260 -0.4327
   14CHL1   C27 1033   3.736  -0.152   5.226  0.0812 -0.2379 -0.5103
   14CHL1  H27A 1034   3.709  -0.185   5.329 -1.5197 -2.1773 -1.4881
   14CHL1  H27B 1035   3.739  -0.243   5.162  2.6577  0.1027 -1.0099
   14CHL1  H27C 1036   3.837  -0.106   5.234  0.1186 -0.5170  0.8619
   15CHL1    C3 1037   2.057   5.233   5.966  0.3923 -0.2503  0.0419
   15CHL1    H3 1038   2.049   5.123   5.956  1.5053 -0.2182 -1.6716
   15CHL1    O3 1039   2.106   5.257   6.100  0.3806  0.2470  0.3498
   15CHL1   H3' 1040   2.185   5.205   6.107  1.4164  1.6908 -0.0967
   15CHL1    C4 1041   2.156   5.286   5.868  0.5492 -0.2189  0.4212
   15CHL1   H4A 1042   2.178   5.394   5.885  1.5971 -0.2307 -0.6861
   15CHL1   H4B 1043   2.253   5.245   5.903  0.1087 -0.6721  1.1248
   15CHL1    C5 1044   2.116   5.265   5.723  0.4195  0.3714 -0.5225
   15CHL1    C6 1045   2.192   5.198   5.638 -0.3588  0.3722 -0.4605
   15CHL1    H6 1046   2.280   5.142   5.675 -0.2959  1.2989  0.8890
   15CHL1    C7 1047   2.159   5.175   5.492 -0.3204  0.2006  0.5539
   15CHL1   H7A 1048   2.253   5.190   5.435 -0.0579  1.5006  1.2974
   15CHL1   H7B 1049   2.121   5.072   5.476 -0.7060  0.5788 -1.1565
   15CHL1    C8 1050   2.048   5.266   5.440  0.5096 -0.0332 -0.9377
   15CHL1    H8 1051   2.086   5.367   5.415 -0.2770  0.5046 -0.0404
   15CHL1   C14 1052   1.984   5.215   5.315  0.5393  0.0714  0.6565
   15CHL1   H14 1053   1.928   5.122   5.341 -0.5206 -0.4564 -2.9793
   15CHL1   C15 1054   2.080   5.181   5.202 -0.8208  1.2901 -0.0560
   15CHL1  H15A 1055   2.151   5.265   5.188  0.1936  0.0275 -3.5188
   15CHL1  H15B 1056   2.130   5.088   5.238 -0.2899  1.6866  0.2402
   15CHL1   C16 1057   1.992   5.168   5.080  0.2221 -1.1712  0.3740
   15CHL1  H16A 1058   2.031   5.220   4.990 -0.3732 -0.7430  0.3566
   15CHL1  H16B 1059   1.989   5.063   5.044 -1.3821 -0.9608 -0.1633
   15CHL1   C17 1060   1.846   5.226   5.109  0.2228  0.3671 -1.0994
   15CHL1   H17 1061   1.800   5.126   5.124  1.2908 -0.0694 -0.6681
   15CHL1   C13 1062   1.876   5.303   5.250  0.4684  0.3467  0.9800
   15CHL1   C18 1063   1.933   5.443   5.209  0.2926  0.2219 -0.3851
   15CHL1  H18A 1064   1.851   5.500   5.162  1.5595  2.3818 -0.1292
   15CHL1  H18B 1065   1.974   5.500   5.296  0.0437  0.4948 -0.4474
   15CHL1  H18C 1066   2.011   5.428   5.131  0.4847  0.2470 -0.2008
   15CHL1   C12 1067   1.762   5.309   5.348  0.3346  0.2398  0.0056
   15CHL1  H12A 1068   1.678   5.370   5.308 -0.2946  0.0871  1.0383
   15CHL1  H12B 1069   1.710   5.215   5.376 -0.9980  1.0475  0.3916
   15CHL1   C11 1070   1.807   5.363   5.488 -0.2823 -0.3486  0.2925
   15CHL1  H11A 1071   1.834   5.471   5.480  0.0189 -0.3323  1.3835
   15CHL1  H11B 1072   1.725   5.337   5.558  0.2920 -0.2226  1.0191
   15CHL1    C9 1073   1.932   5.285   5.541  0.0195  0.0771 -0.4508
   15CHL1    H9 1074   1.903   5.180   5.564  2.1432 -0.8131 -1.5812
   15CHL1   C10 1075   1.988   5.328   5.685 -0.1114 -0.1080 -0.6480
   15CHL1   C19 1076   2.002   5.486   5.685 -0.3555  0.3550 -0.2438
   15CHL1  H19A 1077   2.018   5.521   5.789 -0.0466 -0.6517  0.0586
   15CHL1  H19B 1078   2.078   5.518   5.610 -0.9453  2.8121  0.1418
   15CHL1  H19C 1079   1.906   5.534   5.656  0.3834  2.2349  0.2663
   15CHL1    C1 1080   1.883   5.285   5.790  0.9042  0.0309  1.1064
   15CHL1   H1A 1081   1.794   5.351   5.774  1.2437 -0.1043 -1.9620
   15CHL1   H1B 1082   1.861   5.179   5.764 -0.1984  0.4218  0.3449
   15CHL1    C2 1083   1.917   5.294   5.941 -0.3059 -0.3623  0.3116
   15CHL1   H2A 1084   1.837   5.243   6.000 -0.4385 -2.0842 -1.2686
   15CHL1   H2B 1085   1.920   5.403   5.966 -0.2186 -0.3818  0.3871
   15CHL1   C20 1086   1.775   5.285   4.988  0.0594 -0.7214 -0.4847
   15CHL1   H20 1087   1.834   5.368   4.944 -0.9945 -0.1388 -0.8449
   15CHL1   C21 1088   1.639   5.351   5.029  0.3849  0.3487 -0.4229
   15CHL1  H21A 1089   1.656   5.433   5.103 -1.4080  0.3195  0.0624
   15CHL1  H21B 1090   1.567   5.274   5.063  0.3487  0.3980 -0.3860
   15CHL1  H21C 1091   1.584   5.405   4.949 -3.0013  2.3057  2.8893
   15CHL1   C22 1092   1.751   5.186   4.867  0.6485 -0.2750 -0.0561
   15CHL1  H22A 1093   1.839   5.124   4.841 -1.7175 -2.6877 -3.1735
   15CHL1  H22B 1094   1.675   5.112   4.901 -0.7730  1.5963  1.0587
   15CHL1   C23 1095   1.703   5.245   4.734 -0.5409  0.8292  0.1006
   15CHL1  H23A 1096   1.602   5.289   4.745  0.6602  3.4103  2.0359
   15CHL1  H23B 1097   1.777   5.317   4.692  0.3514 -1.1794 -2.0014
   15CHL1   C24 1098   1.695   5.124   4.629  0.2617 -0.5243 -0.6993
   15CHL1  H24A 1099   1.794   5.085   4.598 -0.0955 -0.1948 -2.3431
   15CHL1  H24B 1100   1.644   5.039   4.679  3.5075 -1.3357  1.5364
   15CHL1   C25 1101   1.606   5.156   4.509  0.1545  0.1872 -0.7052
   15CHL1   H25 1102   1.515   5.209   4.545  2.0917  3.0817  0.2566
   15CHL1   C26 1103   1.679   5.255   4.412 -0.2450 -0.0358  0.7860
   15CHL1  H26A 1104   1.771   5.201   4.382 -0.5965 -0.5557  0.6402
   15CHL1  H26B 1105   1.611   5.269   4.325 -1.3570 -1.5878  1.3634
   15CHL1  H26C 1106   1.697   5.351   4.465  1.0029 -0.8985  1.9985
   15CHL1   C27 1107   1.565   5.030   4.441  0.0483 -0.0358  0.0890
   15CHL1  H27A 1108   1.502   5.055   4.353  0.9822  2.7750  0.1252
   15CHL1  H27B 1109   1.655   4.968   4.422 -0.2938 -0.4879 -0.0766
   15CHL1  H27C 1110   1.498   4.969   4.505  1.2599 -0.4470  1.0000
   16CHL1    C3 1111   1.356   6.065   5.931 -0.1308  0.0700  0.3666
   16CHL1    H3 1112   1.307   5.967   5.912 -0.3454  0.4839 -1.3634
   16CHL1    O3 1113   1.298   6.116   6.054  0.1996  0.0952  0.2230
   16CHL1   H3' 1114   1.223   6.058   6.071  0.6634 -0.9703 -1.1837
   16CHL1    C4 1115   1.503   6.047   5.931  0.7809  0.4399 -0.1390
   16CHL1   H4A 1116   1.554   6.137   5.973 -0.1264 -0.7570  4.0250
   16CHL1   H4B 1117   1.512   5.966   6.006 -0.6106  0.0283 -0.3832
   16CHL1    C5 1118   1.566   6.009   5.799  0.3602 -0.7112 -0.7762
   16CHL1    C6 1119   1.647   5.902   5.792  0.4774 -0.0851 -0.3059
   16CHL1    H6 1120   1.661   5.857   5.891 -2.6621  0.1121  0.3475
   16CHL1    C7 1121   1.712   5.848   5.667 -0.2627  0.7662  0.1090
   16CHL1   H7A 1122   1.821   5.825   5.679  0.1506  1.1293 -2.4773
   16CHL1   H7B 1123   1.659   5.755   5.637 -1.7536  2.2576 -2.1308
   16CHL1    C8 1124   1.697   5.947   5.545  0.1861 -0.3652  0.4475
   16CHL1    H8 1125   1.774   6.026   5.564  2.9484 -2.3651 -1.6170
   16CHL1   C14 1126   1.720   5.891   5.400  0.0166 -0.0320 -0.4983
   16CHL1   H14 1127   1.623   5.837   5.397 -1.6865  2.6371  1.8677
   16CHL1   C15 1128   1.844   5.796   5.380 -0.8803 -0.1605 -0.0824
   16CHL1  H15A 1129   1.937   5.850   5.409 -0.3777 -1.2011  0.3181
   16CHL1  H15B 1130   1.840   5.706   5.446  4.0593 -1.1751 -0.7547
   16CHL1   C16 1131   1.831   5.771   5.231  0.2795  0.9675 -0.2069
   16CHL1  H16A 1132   1.929   5.762   5.179  0.0138 -1.7480 -0.3680
   16CHL1  H16B 1133   1.764   5.684   5.216 -0.9057  1.4922  1.8233
   16CHL1   C17 1134   1.746   5.891   5.170  0.1359  0.5873 -0.0831
   16CHL1   H17 1135   1.648   5.849   5.140 -0.7024  0.8957  2.0058
   16CHL1   C13 1136   1.718   5.994   5.287 -0.2701  0.2462 -0.2743
   16CHL1   C18 1137   1.832   6.102   5.291 -0.1067 -0.5262  0.4488
   16CHL1  H18A 1138   1.819   6.163   5.383  0.5194 -1.2531  1.0278
   16CHL1  H18B 1139   1.932   6.056   5.301  0.0028 -0.5928 -0.8345
   16CHL1  H18C 1140   1.835   6.171   5.204  1.5134 -1.0263  0.0833
   16CHL1   C12 1141   1.580   6.054   5.281  0.3513 -0.0748 -0.3510
   16CHL1  H12A 1142   1.582   6.127   5.197  0.2786  0.9346  0.5096
   16CHL1  H12B 1143   1.515   5.969   5.252  1.2843 -0.0765 -2.6202
   16CHL1   C11 1144   1.540   6.127   5.411  0.1559  0.2936  0.2845
   16CHL1  H11A 1145   1.613   6.210   5.419 -0.8037  1.1414  0.4057
   16CHL1  H11B 1146   1.437   6.169   5.403  0.2633  0.3641 -0.9194
   16CHL1    C9 1147   1.561   6.027   5.539 -0.5917  0.1467  1.0611
   16CHL1    H9 1148   1.480   5.954   5.518 -0.8348  0.8933 -0.7473
   16CHL1   C10 1149   1.523   6.090   5.676 -0.2339 -0.3455 -0.3754
   16CHL1   C19 1150   1.585   6.234   5.686 -0.0479 -0.1750  0.6506
   16CHL1  H19A 1151   1.546   6.298   5.604 -0.4540  0.9667  1.6978
   16CHL1  H19B 1152   1.549   6.285   5.779  1.0459  0.2360  0.8576
   16CHL1  H19C 1153   1.694   6.230   5.704 -0.0840 -1.3128  0.6999
   16CHL1    C1 1154   1.366   6.099   5.681  0.4855  0.0345 -1.0048
   16CHL1   H1A 1155   1.329   6.166   5.601  0.0300  1.0899  0.0676
   16CHL1   H1B 1156   1.319   5.999   5.668  0.0006  0.0087  0.6033
   16CHL1    C2 1157   1.310   6.156   5.812 -0.0098  0.5404 -0.0157
   16CHL1   H2A 1158   1.199   6.150   5.819  0.0611 -0.6134  0.3622
   16CHL1   H2B 1159   1.338   6.263   5.814  0.1523  0.6278 -2.9127
   16CHL1   C20 1160   1.795   5.949   5.041 -0.4540 -0.4796  1.1306
   16CHL1   H20 1161   1.887   6.009   5.054 -0.7332  0.5613 -1.1174
   16CHL1   C21 1162   1.694   6.058   4.974  0.1899 -0.6053 -0.4444
   16CHL1  H21A 1163   1.716   6.053   4.866  1.0257  0.7423 -0.3585
   16CHL1  H21B 1164   1.708   6.156   5.025 -1.0301 -0.2588 -0.7337
   16CHL1  H21C 1165   1.588   6.028   4.989 -0.3163  2.1417  2.5950
   16CHL1   C22 1166   1.834   5.848   4.931 -0.4806 -0.6165 -1.1290
   16CHL1  H22A 1167   1.863   5.908   4.843  0.0920  1.1062  0.1815
   16CHL1  H22B 1168   1.921   5.785   4.960  0.3936  0.5634 -1.1173
   16CHL1   C23 1169   1.725   5.747   4.882 -0.1237  0.0363  0.3448
   16CHL1  H23A 1170   1.679   5.698   4.970  1.5420  0.3156  1.4111
   16CHL1  H23B 1171   1.639   5.790   4.826 -2.6072 -1.2369  2.8911
   16CHL1   C24 1172   1.780   5.646   4.780  0.2762  0.2097  0.0994
   16CHL1  H24A 1173   1.861   5.585   4.825  0.5584  0.9052  0.5381
   16CHL1  H24B 1174   1.699   5.574   4.755 -0.5458  1.3227 -0.5844
   16CHL1   C25 1175   1.829   5.704   4.645  0.4661 -0.2075  0.3198
   16CHL1   H25 1176   1.911   5.776   4.667 -0.6457  0.9314  0.9489
   16CHL1   C26 1177   1.889   5.595   4.559 -0.6184 -0.4990 -0.3132
   16CHL1  H26A 1178   1.908   5.644   4.461 -1.4845 -4.1844 -2.5019
   16CHL1  H26B 1179   1.985   5.558   4.599 -0.2007  1.4311  0.5762
   16CHL1  H26C 1180   1.827   5.505   4.536  1.1300 -1.2682 -2.3074
   16CHL1   C27 1181   1.715   5.773   4.572  0.4174 -0.7902  0.3495
   16CHL1  H27A 1182   1.664   5.850   4.635  0.4760 -0.3265 -0.1567
   16CHL1  H27B 1183   1.766   5.830   4.491  0.7760 -0.6578  0.6678
   16CHL1  H27C 1184   1.646   5.701   4.522  1.2122 -1.2309 -0.1221
   17CHL1    C3 1185   0.753   2.712   6.356  0.5616 -0.3850  0.3303
   17CHL1    H3 1186   0.779   2.607   6.332  2.6410  0.6252 -2.3484
   17CHL1    O3 1187   0.779   2.740   6.494 -0.4652 -0.5469 -0.0149
   17CHL1   H3' 1188   0.807   2.832   6.499 -2.1626  0.0051  0.2793
   17CHL1    C4 1189   0.835   2.804   6.263  0.0262 -0.1080  0.7140
   17CHL1   H4A 1190   0.821   2.911   6.291  0.0753  0.0612  0.0970
   17CHL1   H4B 1191   0.941   2.781   6.287  0.1144 -0.4691 -0.0020
   17CHL1    C5 1192   0.799   2.782   6.119 -0.2156 -0.0844 -0.0846
   17CHL1    C6 1193   0.887   2.744   6.030  0.8812 -0.1382 -0.0188
   17CHL1    H6 1194   0.989   2.731   6.068  1.1204  2.8790  0.6502
   17CHL1    C7 1195   0.874   2.740   5.880 -0.3010 -0.2569  0.5614
   17CHL1   H7A 1196   0.960   2.796   5.838 -0.4917  0.7553  1.4688
   17CHL1   H7B 1197   0.873   2.633   5.851 -2.4854  0.1549 -1.0762
   17CHL1    C8 1198   0.740   2.799   5.841 -0.3278 -0.6181  0.3657
   17CHL1    H8 1199   0.745   2.910   5.833 -0.2956 -0.7478 -2.4410
   17CHL1   C14 1200   0.712   2.763   5.698  0.0061  0.3358  0.1838
   17CHL1   H14 1201   0.710   2.652   5.698  0.1089  0.3337  0.2465
   17CHL1   C15 1202   0.822   2.796   5.593 -0.1801 -0.7110  0.1106
   17CHL1  H15A 1203   0.875   2.892   5.607  0.2661 -0.8954 -0.2656
   17CHL1  H15B 1204   0.895   2.713   5.599 -0.1957 -0.7321  0.0214
   17CHL1   C16 1205   0.746   2.780   5.457  0.4865  0.7021 -0.4777
   17CHL1  H16A 1206   0.750   2.875   5.400 -0.1560  0.5867 -0.7279
   17CHL1  H16B 1207   0.794   2.693   5.408 -0.1467 -0.0775  0.2560
   17CHL1   C17 1208   0.596   2.758   5.489 -0.1811 -0.2510  0.9878
   17CHL1   H17 1209   0.592   2.647   5.493 -0.8384 -0.3287 -0.6712
   17CHL1   C13 1210   0.582   2.814   5.637 -0.0497  0.0092  0.0659
   17CHL1   C18 1211   0.576   2.965   5.632  0.6632 -0.9179  0.2368
   17CHL1  H18A 1212   0.479   3.012   5.604  2.0012  2.0272  0.1831
   17CHL1  H18B 1213   0.600   3.001   5.734  1.7216 -2.5206  0.5951
   17CHL1  H18C 1214   0.651   3.012   5.565  1.1864 -1.2061  0.6072
   17CHL1   C12 1215   0.467   2.763   5.721  0.0654  0.1355  0.5943
   17CHL1  H12A 1216   0.372   2.814   5.694  0.8123  1.6196  0.7021
   17CHL1  H12B 1217   0.456   2.655   5.698 -1.8595 -0.1970  2.7446
   17CHL1   C11 1218   0.484   2.780   5.873 -0.0821  0.6075  0.1381
   17CHL1  H11A 1219   0.455   2.885   5.894  1.2274  0.7737  1.2332
   17CHL1  H11B 1220   0.411   2.714   5.923 -1.1321  1.4061 -0.3000
   17CHL1    C9 1221   0.624   2.751   5.934  0.2853 -0.1093 -0.0678
   17CHL1    H9 1222   0.633   2.641   5.932  0.6001 -0.1113  1.0871
   17CHL1   C10 1223   0.654   2.794   6.084  0.3986 -0.1624  0.1523
   17CHL1   C19 1224   0.617   2.941   6.104 -0.6327 -0.2515 -0.3929
   17CHL1  H19A 1225   0.509   2.957   6.084 -0.4818 -0.6176 -1.6173
   17CHL1  H19B 1226   0.644   2.982   6.204  1.4009 -1.0665 -0.5666
   17CHL1  H19C 1227   0.652   3.018   6.032 -1.4216  1.5706  1.0792
   17CHL1    C1 1228   0.572   2.714   6.189  0.5552 -0.9098 -0.6436
   17CHL1   H1A 1229   0.466   2.745   6.180  0.5925 -0.3027  0.6518
   17CHL1   H1B 1230   0.575   2.610   6.151  2.9277 -1.4120  0.6756
   17CHL1    C2 1231   0.602   2.729   6.330 -0.0829 -0.3201  0.0193
   17CHL1   H2A 1232   0.537   2.656   6.383 -0.7563 -0.2701 -0.7254
   17CHL1   H2B 1233   0.562   2.828   6.360  1.0872  0.0709  0.3636
   17CHL1   C20 1234   0.499   2.812   5.380 -0.6204 -0.4841 -0.1581
   17CHL1   H20 1235   0.478   2.921   5.392 -2.6999 -0.8964  0.3621
   17CHL1   C21 1236   0.355   2.753   5.399  0.6508  0.0170 -0.0737
   17CHL1  H21A 1237   0.359   2.645   5.424 -1.7066 -0.2060 -0.4326
   17CHL1  H21B 1238   0.293   2.758   5.307  0.9893 -0.3862 -0.3265
   17CHL1  H21C 1239   0.295   2.816   5.468  1.1508 -0.5410  0.8890
   17CHL1   C22 1240   0.549   2.779   5.238  0.0572  0.3586  0.5889
   17CHL1  H22A 1241   0.650   2.823   5.218  0.8659 -1.6329  0.0685
   17CHL1  H22B 1242   0.562   2.669   5.230 -0.7578  0.0952  2.4831
   17CHL1   C23 1243   0.459   2.825   5.118  0.0113 -0.3093 -0.3575
   17CHL1  H23A 1244   0.515   2.795   5.026  0.7787 -1.6583  0.5037
   17CHL1  H23B 1245   0.361   2.774   5.118 -0.6510  0.9137 -1.3095
   17CHL1   C24 1246   0.438   2.979   5.110  0.2862  0.4927 -0.2820
   17CHL1  H24A 1247   0.414   3.023   5.209  2.9602 -0.7892  1.0612
   17CHL1  H24B 1248   0.533   3.030   5.083  0.2898  2.8919  3.5140
   17CHL1   C25 1249   0.325   3.019   5.019 -0.4994  0.4278 -0.1008
   17CHL1   H25 1250   0.343   2.982   4.916 -1.2528  0.4822 -0.2590
   17CHL1   C26 1251   0.181   2.972   5.055 -0.8597 -0.6656 -1.2486
   17CHL1  H26A 1252   0.179   2.867   5.089 -0.2449 -0.5846 -0.9534
   17CHL1  H26B 1253   0.136   3.029   5.139  0.4739 -0.8390 -0.3941
   17CHL1  H26C 1254   0.108   2.990   4.972 -1.3411 -0.1226 -0.7167
   17CHL1   C27 1255   0.325   3.172   5.007  0.4363  0.1751  0.3887
   17CHL1  H27A 1256   0.303   3.219   5.105  1.2081 -0.7755  1.0245
   17CHL1  H27B 1257   0.421   3.205   4.962  0.2445 -0.8898 -0.8507
   17CHL1  H27C 1258   0.243   3.202   4.937  0.2606 -0.4775  0.3119
   18CHL1    C3 1259   4.070   4.029   5.826 -0.1453  0.0700 -0.4627
   18CHL1    H3 1260   4.079   4.133   5.790  1.1583 -0.4495 -1.7309
   18CHL1    O3 1261   4.140   4.007   5.951  0.2955 -0.8358  0.7788
   18CHL1   H3' 1262   4.144   3.913   5.968 -0.7731 -0.5415  3.0026
   18CHL1    C4 1263   3.921   3.995   5.845 -0.2388 -0.0653 -0.4286
   18CHL1   H4A 1264   3.932   3.892   5.884  3.2320  0.8278  1.3164
   18CHL1   H4B 1265   3.875   4.053   5.928  0.5793 -0.2195  0.1430
   18CHL1    C5 1266   3.841   4.003   5.720  0.0980  0.4066  0.2228
   18CHL1    C6 1267   3.733   4.083   5.709 -0.5800 -0.0407 -0.2922
   18CHL1    H6 1268   3.703   4.133   5.803 -1.3793 -2.2283  0.6783
   18CHL1    C7 1269   3.647   4.084   5.585 -0.0652  0.5310  0.3021
   18CHL1   H7A 1270   3.543   4.068   5.619 -0.2512 -0.8591 -0.7889
   18CHL1   H7B 1271   3.648   4.183   5.536  0.5548 -0.9386 -2.9589
   18CHL1    C8 1272   3.672   3.965   5.485 -1.1251 -0.4563 -0.5950
   18CHL1    H8 1273   3.625   3.871   5.521 -1.4316  0.3168  1.1010
   18CHL1   C14 1274   3.605   4.000   5.355 -0.1561 -0.1070  0.2819
   18CHL1   H14 1275   3.664   4.089   5.321 -1.0716 -0.2095 -1.6617
   18CHL1   C15 1276   3.454   4.035   5.353 -0.2465  0.5694  0.0948
   18CHL1  H15A 1277   3.412   3.947   5.407 -0.5719  0.8417  0.2889
   18CHL1  H15B 1278   3.427   4.125   5.413 -1.5090  0.4392 -0.2523
   18CHL1   C16 1279   3.414   4.019   5.202  0.5666 -0.5147 -0.2910
   18CHL1  H16A 1280   3.337   3.939   5.199 -0.8059  0.7086  0.8461
   18CHL1  H16B 1281   3.371   4.109   5.153 -1.3401 -0.6470  1.0551
   18CHL1   C17 1282   3.545   3.965   5.127  0.0562  0.1614  0.0464
   18CHL1   H17 1283   3.605   4.054   5.096  3.9926 -2.6635 -1.1880
   18CHL1   C13 1284   3.639   3.904   5.239  1.0935  0.2019 -0.2042
   18CHL1   C18 1285   3.579   3.769   5.271 -0.6782  0.1438 -0.4870
   18CHL1  H18A 1286   3.471   3.771   5.298 -0.8503 -1.2867 -0.9641
   18CHL1  H18B 1287   3.596   3.696   5.189 -0.6813 -0.6879  0.2344
   18CHL1  H18C 1288   3.636   3.733   5.359 -1.9022 -0.2003  0.1891
   18CHL1   C12 1289   3.790   3.906   5.219  0.0842 -0.4668 -0.2104
   18CHL1  H12A 1290   3.826   3.835   5.141 -0.8060 -0.4149 -0.6930
   18CHL1  H12B 1291   3.813   4.010   5.187 -0.1268 -0.2727  0.2684
   18CHL1   C11 1292   3.874   3.879   5.351  0.6702  0.2157  0.0888
   18CHL1  H11A 1293   3.879   3.769   5.363 -0.2573  0.0043 -1.3425
   18CHL1  H11B 1294   3.977   3.914   5.329  1.0936 -1.7228 -1.2892
   18CHL1    C9 1295   3.822   3.961   5.472 -0.2361 -0.0485 -0.5995
   18CHL1    H9 1296   3.856   4.065   5.456  1.4224 -0.5327 -0.3885
   18CHL1   C10 1297   3.892   3.922   5.601 -0.7129  0.6777 -0.7762
   18CHL1   C19 1298   3.858   3.773   5.640 -0.3474 -0.4177 -0.4491
   18CHL1  H19A 1299   3.903   3.705   5.565  2.2555  2.0089 -1.2748
   18CHL1  H19B 1300   3.907   3.740   5.734 -1.5425 -4.3326 -1.0087
   18CHL1  H19C 1301   3.749   3.750   5.646 -0.4716  0.2372 -0.0385
   18CHL1    C1 1302   4.049   3.940   5.592 -0.0680 -0.0856 -0.3052
   18CHL1   H1A 1303   4.103   3.876   5.520  0.0995  1.4687 -1.6187
   18CHL1   H1B 1304   4.071   4.040   5.550  3.1500  0.3422  2.0358
   18CHL1    C2 1305   4.124   3.933   5.727 -0.8135  0.6729  0.0381
   18CHL1   H2A 1306   4.225   3.969   5.697  0.2609 -1.1736  1.2490
   18CHL1   H2B 1307   4.134   3.832   5.773 -0.6073  0.6122 -0.1367
   18CHL1   C20 1308   3.505   3.890   4.997  0.6927  0.3346  0.4267
   18CHL1   H20 1309   3.440   3.806   5.026 -0.9392  0.4417 -2.5102
   18CHL1   C21 1310   3.637   3.842   4.932  0.1611 -0.2220  0.0539
   18CHL1  H21A 1311   3.712   3.917   4.899  0.3537 -0.1063  0.7435
   18CHL1  H21B 1312   3.609   3.790   4.838 -0.0191  0.6029 -0.3555
   18CHL1  H21C 1313   3.694   3.774   4.999  0.2032 -0.5111 -0.2706
   18CHL1   C22 1314   3.422   3.971   4.890  0.1388 -0.9195 -0.2212
   18CHL1  H22A 1315   3.348   4.035   4.942 -0.8214 -3.3120  1.5388
   18CHL1  H22B 1316   3.497   4.032   4.835  1.9526 -1.5946  1.3989
   18CHL1   C23 1317   3.340   3.882   4.796  0.0447 -0.6926 -0.4303
   18CHL1  H23A 1318   3.403   3.798   4.761 -0.0163 -0.7552 -0.3891
   18CHL1  H23B 1319   3.251   3.833   4.839  1.0406 -1.6231  0.6324
   18CHL1   C24 1320   3.303   3.970   4.677 -0.2489 -0.1759 -0.1086
   18CHL1  H24A 1321   3.258   4.066   4.709  0.2492  0.1959 -0.5252
   18CHL1  H24B 1322   3.398   3.990   4.624 -0.8400  2.0372 -0.4173
   18CHL1   C25 1323   3.204   3.918   4.572 -0.4738 -0.7669  0.4470
   18CHL1   H25 1324   3.218   3.981   4.482  2.0198 -0.7286  0.7761
   18CHL1   C26 1325   3.227   3.771   4.537 -0.6865 -0.3439 -0.0183
   18CHL1  H26A 1326   3.336   3.748   4.539  0.0068  2.4425 -1.2119
   18CHL1  H26B 1327   3.177   3.703   4.609 -1.2242 -0.2106 -0.2639
   18CHL1  H26C 1328   3.171   3.759   4.442 -3.6927  4.0105  0.8956
   18CHL1   C27 1329   3.057   3.931   4.619  0.1432 -0.0498  0.1324
   18CHL1  H27A 1330   2.993   3.929   4.528  2.3480  1.4323 -1.5836
   18CHL1  H27B 1331   3.024   3.855   4.692  1.2625  0.8403  1.6248
   18CHL1  H27C 1332   3.051   4.034   4.660 -0.0645  1.2454 -2.8438
   19CHL1    C3 1333   1.656   2.766   6.480  0.0659 -0.1572  0.3049
   19CHL1    H3 1334   1.760   2.729   6.469  0.3068  0.3614  0.7606
   19CHL1    O3 1335   1.605   2.770   6.613 -0.0538 -0.6039 -0.1248
   19CHL1   H3' 1336   1.510   2.763   6.612 -0.2620  1.5960 -0.3235
   19CHL1    C4 1337   1.661   2.906   6.419 -0.3289 -0.9850  0.0965
   19CHL1   H4A 1338   1.560   2.952   6.427  0.3825  0.6390  0.1903
   19CHL1   H4B 1339   1.737   2.957   6.482 -0.9378 -1.1213  0.9554
   19CHL1    C5 1340   1.713   2.900   6.277  0.6664  0.1312  0.8496
   19CHL1    C6 1341   1.811   2.980   6.231 -0.1826  0.4884  0.5282
   19CHL1    H6 1342   1.862   3.044   6.305  0.4655  0.0973  0.4325
   19CHL1    C7 1343   1.860   2.972   6.089  0.2813 -0.6073  0.6501
   19CHL1   H7A 1344   1.878   3.079   6.062  1.2311 -1.2148 -1.2696
   19CHL1   H7B 1345   1.959   2.925   6.074  0.2167 -0.0462 -2.0189
   19CHL1    C8 1346   1.766   2.903   5.990  0.3174 -0.0922  1.1195
   19CHL1    H8 1347   1.686   2.975   5.965 -0.6565 -1.0081  1.5141
   19CHL1   C14 1348   1.845   2.872   5.863  0.3428 -0.5808 -0.1263
   19CHL1   H14 1349   1.921   2.797   5.892 -1.0693 -2.0331 -0.0075
   19CHL1   C15 1350   1.912   2.992   5.793  0.1718 -0.2717 -0.3262
   19CHL1  H15A 1351   1.853   3.086   5.793  1.2184  0.4781  2.2714
   19CHL1  H15B 1352   1.996   3.033   5.853 -1.4662  2.7972  0.0700
   19CHL1   C16 1353   1.942   2.940   5.652 -0.9177 -0.5625 -0.0899
   19CHL1  H16A 1354   1.924   3.015   5.572 -1.1578 -1.1653 -0.6112
   19CHL1  H16B 1355   2.050   2.915   5.640 -0.7943 -0.6383  1.0949
   19CHL1   C17 1356   1.866   2.807   5.647 -0.1015 -0.5622  0.0648
   19CHL1   H17 1357   1.935   2.723   5.672 -1.0156 -1.9555 -1.7996
   19CHL1   C13 1358   1.764   2.802   5.754 -0.0499  0.4885 -0.6278
   19CHL1   C18 1359   1.642   2.882   5.705 -0.7979 -0.4140 -1.0189
   19CHL1  H18A 1360   1.594   2.830   5.620 -0.4266 -1.0913 -0.8150
   19CHL1  H18B 1361   1.557   2.887   5.776  0.4095 -1.2967  0.5466
   19CHL1  H18C 1362   1.667   2.984   5.666 -2.3302  0.3516 -0.1028
   19CHL1   C12 1363   1.718   2.669   5.810  1.2197 -0.3672 -1.0732
   19CHL1  H12A 1364   1.652   2.606   5.747  0.4270 -1.0048  0.3252
   19CHL1  H12B 1365   1.810   2.611   5.829  2.1983  0.5943 -2.6463
   19CHL1   C11 1366   1.636   2.694   5.949 -0.0288 -0.2216 -0.3168
   19CHL1  H11A 1367   1.537   2.736   5.920 -1.1488 -1.1105  1.9843
   19CHL1  H11B 1368   1.609   2.597   5.996 -1.6596 -0.2810 -1.3114
   19CHL1    C9 1369   1.710   2.779   6.052 -0.0590  0.3990  0.0249
   19CHL1    H9 1370   1.798   2.720   6.084 -0.8074  0.5529  2.6222
   19CHL1   C10 1371   1.634   2.805   6.181  0.5289  0.2020  0.2863
   19CHL1   C19 1372   1.491   2.850   6.156  0.3509  0.1674 -0.3810
   19CHL1  H19A 1373   1.496   2.944   6.099 -0.5117 -0.6649 -1.9038
   19CHL1  H19B 1374   1.431   2.774   6.101 -0.2305  0.5444 -0.2775
   19CHL1  H19C 1375   1.432   2.873   6.248 -0.9340 -4.6237  0.3142
   19CHL1    C1 1376   1.611   2.663   6.244  0.0981 -1.1142 -1.1810
   19CHL1   H1A 1377   1.540   2.595   6.192 -0.6192 -0.5696 -0.9240
   19CHL1   H1B 1378   1.707   2.607   6.249 -0.0557 -1.2800  0.6726
   19CHL1    C2 1379   1.562   2.676   6.396  0.4019  0.7753  0.2600
   19CHL1   H2A 1380   1.549   2.577   6.445  0.5238 -0.3990 -1.9265
   19CHL1   H2B 1381   1.461   2.721   6.382 -0.0555  0.1403  1.3742
   19CHL1   C20 1382   1.812   2.764   5.504 -0.5805 -0.1699 -0.0196
   19CHL1   H20 1383   1.723   2.701   5.522 -1.1357  1.0611  1.8542
   19CHL1   C21 1384   1.930   2.686   5.441  0.5009  0.2796  0.0758
   19CHL1  H21A 1385   1.907   2.641   5.342  1.4192 -0.7763  0.3200
   19CHL1  H21B 1386   1.968   2.597   5.496 -0.8608 -2.2745 -2.8241
   19CHL1  H21C 1387   2.004   2.770   5.437 -0.1583  0.9283  1.0607
   19CHL1   C22 1388   1.776   2.884   5.410  0.0914  0.4694 -0.3553
   19CHL1  H22A 1389   1.716   2.957   5.469 -0.8417 -0.4860 -0.0785
   19CHL1  H22B 1390   1.869   2.939   5.385  0.5526 -0.6549 -1.2206
   19CHL1   C23 1391   1.696   2.831   5.288 -0.0747  0.1113  0.0749
   19CHL1  H23A 1392   1.733   2.745   5.227 -1.5658 -0.2059 -0.4499
   19CHL1  H23B 1393   1.597   2.800   5.329 -2.2824  2.9114 -2.6067
   19CHL1   C24 1394   1.665   2.939   5.182  0.2918  0.7131  0.5397
   19CHL1  H24A 1395   1.592   3.014   5.219 -0.4543  1.0656 -1.5304
   19CHL1  H24B 1396   1.761   2.986   5.151 -0.0088  0.5087 -0.7306
   19CHL1   C25 1397   1.598   2.871   5.064  0.0040  0.4224 -0.1442
   19CHL1   H25 1398   1.661   2.783   5.039  3.2565  1.8049  2.4438
   19CHL1   C26 1399   1.452   2.822   5.099  0.2051  0.1836  0.2395
   19CHL1  H26A 1400   1.403   2.818   5.000  1.9226 -2.9929 -0.6057
   19CHL1  H26B 1401   1.459   2.728   5.158 -0.4417 -2.4504 -3.5366
   19CHL1  H26C 1402   1.390   2.898   5.151  0.3816  0.2981  0.2855
   19CHL1   C27 1403   1.596   2.967   4.944 -0.0178 -0.0507 -0.1793
   19CHL1  H27A 1404   1.545   2.912   4.862  0.6789 -0.5251 -0.2954
   19CHL1  H27B 1405   1.535   3.055   4.975 -2.1401 -1.8407  1.0440
   19CHL1  H27C 1406   1.695   2.999   4.906  0.3048 -0.1139  0.5827
   20CHL1    C3 1407   4.858   5.140   5.948  0.0651  0.1184  0.9543
   20CHL1    H3 1408   4.851   5.248   5.926 -0.4246  0.2083  1.5308
   20CHL1    O3 1409   4.879   5.121   6.090 -0.1190 -0.7308  0.1937
   20CHL1   H3' 1410   4.887   5.026   6.095  1.4116 -0.5914  0.6836
   20CHL1    C4 1411   4.731   5.077   5.901  0.3349  0.4229  0.5847
   20CHL1   H4A 1412   4.732   4.966   5.913 -0.9713  0.0776 -1.7434
   20CHL1   H4B 1413   4.644   5.124   5.951 -1.0454 -0.9426 -0.4089
   20CHL1    C5 1414   4.720   5.084   5.748  0.5642 -0.7462  0.2243
   20CHL1    C6 1415   4.614   5.137   5.692 -0.9305 -0.1360  0.6608
   20CHL1    H6 1416   4.527   5.164   5.754 -3.1004 -0.1374 -2.1467
   20CHL1    C7 1417   4.587   5.151   5.542 -0.8191  0.1173  0.4378
   20CHL1   H7A 1418   4.481   5.122   5.524 -1.1886  1.7106 -0.1488
   20CHL1   H7B 1419   4.600   5.258   5.517 -0.7276 -0.1727 -0.8258
   20CHL1    C8 1420   4.678   5.060   5.463 -0.1148 -0.4138  0.0466
   20CHL1    H8 1421   4.645   4.954   5.465 -0.2020 -0.3784  0.8815
   20CHL1   C14 1422   4.677   5.107   5.318  0.2066  0.6096  0.1566
   20CHL1   H14 1423   4.729   5.205   5.316  1.7767 -0.1671 -2.8161
   20CHL1   C15 1424   4.542   5.135   5.251  0.1692 -0.4418 -0.6230
   20CHL1  H15A 1425   4.470   5.057   5.281  0.4078 -0.5685 -0.3692
   20CHL1  H15B 1426   4.501   5.228   5.297 -1.8178 -1.8588  0.6161
   20CHL1   C16 1427   4.570   5.133   5.108  0.2839 -1.0311 -0.2153
   20CHL1  H16A 1428   4.517   5.046   5.062 -0.6458 -0.6862  0.1806
   20CHL1  H16B 1429   4.564   5.224   5.044 -0.2039 -0.2697  0.8959
   20CHL1   C17 1430   4.723   5.099   5.095  0.4123 -0.2164 -0.0149
   20CHL1   H17 1431   4.777   5.196   5.095 -1.6901  1.0296  0.9821
   20CHL1   C13 1432   4.761   5.029   5.222 -0.3394  0.0515  0.1614
   20CHL1   C18 1433   4.703   4.886   5.218  0.0822 -0.2509 -0.6527
   20CHL1  H18A 1434   4.593   4.886   5.206 -0.3405  0.2172  2.3158
   20CHL1  H18B 1435   4.748   4.825   5.137  0.2682  0.3349 -0.9947
   20CHL1  H18C 1436   4.718   4.821   5.307  1.5977 -0.4175 -1.0071
   20CHL1   C12 1437   4.908   5.028   5.272  0.1951  0.3756 -0.5392
   20CHL1  H12A 1438   4.962   4.961   5.203 -0.3002  1.2703 -1.8336
   20CHL1  H12B 1439   4.954   5.129   5.270  1.0008  0.1002  1.3085
   20CHL1   C11 1440   4.911   4.966   5.412  0.4078 -0.0556 -0.3681
   20CHL1  H11A 1441   4.889   4.858   5.423  1.7718 -0.2051  1.3350
   20CHL1  H11B 1442   5.015   4.977   5.451  1.5016 -2.3615 -2.3616
   20CHL1    C9 1443   4.823   5.051   5.505 -0.4123 -0.1378  0.7997
   20CHL1    H9 1444   4.864   5.153   5.488 -0.0048 -0.5183 -0.6601
   20CHL1   C10 1445   4.834   5.029   5.662 -0.0979 -0.0187 -0.6194
   20CHL1   C19 1446   4.838   4.875   5.676 -0.5137  0.4095 -0.0628
   20CHL1  H19A 1447   4.758   4.829   5.613 -2.3194  1.5500  1.2974
   20CHL1  H19B 1448   4.937   4.838   5.642 -0.7367 -0.7424  0.4705
   20CHL1  H19C 1449   4.821   4.837   5.779  3.5926 -1.9408 -0.0458
   20CHL1    C1 1450   4.964   5.099   5.717  0.6873  0.0128 -0.0034
   20CHL1   H1A 1451   5.055   5.065   5.664  0.9775 -0.9518  1.0712
   20CHL1   H1B 1452   4.957   5.208   5.699 -2.0422 -0.0617  0.1291
   20CHL1    C2 1453   4.978   5.084   5.867 -0.3514  0.1532 -0.3756
   20CHL1   H2A 1454   5.071   5.129   5.909 -2.0350  1.4945  2.1685
   20CHL1   H2B 1455   4.980   4.975   5.886 -0.6882  0.5767  2.4497
   20CHL1   C20 1456   4.759   5.044   4.956  0.0897  0.9045 -0.0523
   20CHL1   H20 1457   4.715   4.942   4.946  1.7136  0.0133  1.3140
   20CHL1   C21 1458   4.912   5.042   4.935  0.7493  0.1022  0.1652
   20CHL1  H21A 1459   4.958   5.140   4.958 -1.5072  1.5997 -1.2619
   20CHL1  H21B 1460   4.940   5.015   4.831 -0.2684 -0.4824  0.0259
   20CHL1  H21C 1461   4.954   4.964   5.002  0.7200 -1.2239 -1.2746
   20CHL1   C22 1462   4.699   5.138   4.844 -0.4656 -0.0176 -0.1512
   20CHL1  H22A 1463   4.588   5.141   4.842 -0.4549  0.7309  0.0671
   20CHL1  H22B 1464   4.737   5.242   4.853 -0.1280  0.2687 -3.7049
   20CHL1   C23 1465   4.746   5.092   4.705 -0.2095 -1.7561 -0.5070
   20CHL1  H23A 1466   4.845   5.134   4.677 -1.3968  0.2634 -1.9629
   20CHL1  H23B 1467   4.747   4.981   4.700 -0.0924 -1.7013 -2.8333
   20CHL1   C24 1468   4.656   5.144   4.595  0.3912 -0.0791 -0.7917
   20CHL1  H24A 1469   4.556   5.097   4.603  0.8704 -0.7897  2.1502
   20CHL1  H24B 1470   4.638   5.252   4.617  2.5672  0.1749 -0.0131
   20CHL1   C25 1471   4.707   5.128   4.459 -0.0675 -0.3032  0.1484
   20CHL1   H25 1472   4.735   5.021   4.451  0.4359 -0.2647  1.1693
   20CHL1   C26 1473   4.595   5.151   4.357  0.1666  0.0411 -0.0063
   20CHL1  H26A 1474   4.501   5.110   4.398  0.4422  1.1250  1.8497
   20CHL1  H26B 1475   4.582   5.258   4.331  0.1985 -0.6193 -3.0650
   20CHL1  H26C 1476   4.620   5.097   4.263 -0.4623 -0.3191  0.0326
   20CHL1   C27 1477   4.830   5.215   4.431 -0.1261 -0.2755  0.4446
   20CHL1  H27A 1478   4.923   5.174   4.476  0.0014  0.9084  1.2779
   20CHL1  H27B 1479   4.846   5.216   4.321 -0.6517 -0.0097  0.3679
   20CHL1  H27C 1480   4.812   5.322   4.454 -0.7604  0.0133 -1.2669
   21CHL1    C3 1481   4.969   3.704   5.783  0.1090  0.0716 -0.5937
   21CHL1    H3 1482   5.000   3.809   5.800 -2.4390  1.3350 -2.8377
   21CHL1    O3 1483   4.967   3.633   5.908  0.1430  0.1755 -0.2884
   21CHL1   H3' 1484   4.905   3.560   5.897 -0.5708  0.9176 -1.3611
   21CHL1    C4 1485   4.823   3.715   5.734  0.3788 -0.3303  0.2022
   21CHL1   H4A 1486   4.777   3.613   5.738 -1.0188  0.3114  1.7459
   21CHL1   H4B 1487   4.768   3.781   5.805  0.0096  1.2985 -1.5200
   21CHL1    C5 1488   4.811   3.775   5.595  0.0680 -0.0528 -0.0439
   21CHL1    C6 1489   4.738   3.885   5.582  0.3825 -0.9274  0.5414
   21CHL1    H6 1490   4.681   3.922   5.669 -1.5553 -0.1767 -0.9659
   21CHL1    C7 1491   4.711   3.947   5.448  0.5667  0.2284 -0.3672
   21CHL1   H7A 1492   4.602   3.970   5.447 -0.3324 -2.8326  3.2268
   21CHL1   H7B 1493   4.753   4.050   5.440 -2.5558  1.7609  1.1971
   21CHL1    C8 1494   4.748   3.865   5.328 -0.1388 -0.5736  0.3291
   21CHL1    H8 1495   4.685   3.774   5.317  0.7251 -1.3625  1.6757
   21CHL1   C14 1496   4.761   3.956   5.205 -0.2206  0.4988 -0.3702
   21CHL1   H14 1497   4.842   4.029   5.226 -0.3397  1.4751 -2.9511
   21CHL1   C15 1498   4.651   4.060   5.168  0.2103  0.3069  0.3057
   21CHL1  H15A 1499   4.550   4.016   5.188  0.4200 -0.5821 -0.5153
   21CHL1  H15B 1500   4.665   4.151   5.231  2.0873 -0.2319  0.7372
   21CHL1   C16 1501   4.672   4.085   5.015 -0.0687 -0.0322 -0.9955
   21CHL1  H16A 1502   4.579   4.051   4.964  0.0803 -0.6677 -0.8596
   21CHL1  H16B 1503   4.683   4.195   5.003  1.4373  0.1834  1.6124
   21CHL1   C17 1504   4.804   4.008   4.971 -0.0236  0.0860 -0.3592
   21CHL1   H17 1505   4.892   4.073   4.989  0.0866 -0.5030  1.4600
   21CHL1   C13 1506   4.812   3.892   5.077 -0.1404 -0.3096  0.1680
   21CHL1   C18 1507   4.715   3.782   5.036  0.2631  0.5335  0.3979
   21CHL1  H18A 1508   4.735   3.733   4.938 -1.3190 -0.6987  0.6460
   21CHL1  H18B 1509   4.713   3.695   5.105  0.4382 -0.8912 -1.3104
   21CHL1  H18C 1510   4.612   3.821   5.018  0.6760  0.7801 -1.7677
   21CHL1   C12 1511   4.956   3.832   5.104  0.3620  0.2052 -0.0281
   21CHL1  H12A 1512   4.995   3.770   5.020  1.2527  0.7676 -0.0425
   21CHL1  H12B 1513   5.026   3.916   5.126  1.8062 -1.6482  3.2368
   21CHL1   C11 1514   4.956   3.749   5.234  0.3098  0.5098 -0.3078
   21CHL1  H11A 1515   4.902   3.656   5.208 -0.9118  1.1388 -0.0900
   21CHL1  H11B 1516   5.063   3.720   5.241 -0.4309 -2.6932 -0.6502
   21CHL1    C9 1517   4.886   3.808   5.356  0.4596  0.5831 -0.3299
   21CHL1    H9 1518   4.940   3.901   5.384  0.6158  0.2010  0.6903
   21CHL1   C10 1519   4.890   3.709   5.486 -0.2212 -0.0955 -0.4293
   21CHL1   C19 1520   4.824   3.576   5.454 -0.0128  0.3070 -0.0077
   21CHL1  H19A 1521   4.813   3.527   5.553  0.1849  0.8011  0.2616
   21CHL1  H19B 1522   4.723   3.572   5.408 -0.3036 -1.7598  0.6943
   21CHL1  H19C 1523   4.899   3.512   5.403 -0.0407  0.7545 -0.6209
   21CHL1    C1 1524   5.035   3.709   5.542 -0.5327  0.2991  0.1545
   21CHL1   H1A 1525   5.105   3.659   5.471  1.5153  2.1602  0.7463
   21CHL1   H1B 1526   5.072   3.813   5.548  1.3034 -0.2314 -1.0730
   21CHL1    C2 1527   5.059   3.638   5.677  0.6024 -0.2811  0.3704
   21CHL1   H2A 1528   5.163   3.652   5.714  1.4439 -0.3257 -1.8069
   21CHL1   H2B 1529   5.047   3.528   5.675  0.9691 -0.3124 -1.4327
   21CHL1   C20 1530   4.810   3.975   4.824  0.7002 -0.8759  0.3203
   21CHL1   H20 1531   4.762   3.877   4.804 -0.9571 -0.0764  0.1661
   21CHL1   C21 1532   4.961   3.963   4.778  0.8701 -0.2907  0.3178
   21CHL1  H21A 1533   4.993   4.069   4.770 -2.2805  0.6803 -0.6685
   21CHL1  H21B 1534   4.973   3.918   4.676  0.4273  0.3705 -0.0283
   21CHL1  H21C 1535   5.016   3.902   4.853  0.7618 -2.0640 -0.9520
   21CHL1   C22 1536   4.738   4.077   4.733 -0.2807  0.0840  0.9640
   21CHL1  H22A 1537   4.630   4.080   4.760 -0.3023  0.1555  0.8720
   21CHL1  H22B 1538   4.781   4.179   4.743 -1.4452  0.6673  0.3207
   21CHL1   C23 1539   4.745   4.061   4.575  0.2283 -0.7722 -0.1606
   21CHL1  H23A 1540   4.850   4.086   4.548 -0.4248  1.0562 -1.2001
   21CHL1  H23B 1541   4.711   3.958   4.551 -1.5098 -0.7941  2.1027
   21CHL1   C24 1542   4.664   4.159   4.495 -0.3840 -1.8883  0.0260
   21CHL1  H24A 1543   4.555   4.147   4.510 -0.6471  1.7065  2.3433
   21CHL1  H24B 1544   4.697   4.262   4.521  1.6060 -2.3037 -0.6907
   21CHL1   C25 1545   4.682   4.152   4.338 -0.5563 -0.1821  0.5837
   21CHL1   H25 1546   4.639   4.053   4.312 -0.3286  0.5816 -3.4578
   21CHL1   C26 1547   4.612   4.263   4.268 -0.3144  0.0606 -0.5195
   21CHL1  H26A 1548   4.502   4.245   4.264 -0.4923  0.4213  1.7254
   21CHL1  H26B 1549   4.645   4.351   4.327  5.2488 -1.8937 -0.1267
   21CHL1  H26C 1550   4.645   4.284   4.164 -2.0172 -1.6209 -1.4790
   21CHL1   C27 1551   4.827   4.154   4.283 -1.0200 -0.5721  0.4584
   21CHL1  H27A 1552   4.896   4.082   4.331 -0.5066  0.2312  0.9549
   21CHL1  H27B 1553   4.827   4.115   4.179 -0.8479 -2.0662  1.0037
   21CHL1  H27C 1554   4.881   4.251   4.291  1.2218 -1.8453  1.7172
   22CHL1    C3 1555   1.828   1.715   6.473 -0.4039  0.0320 -0.0810
   22CHL1    H3 1556   1.795   1.609   6.485  0.8486 -0.1366  2.4245
   22CHL1    O3 1557   1.839   1.746   6.608  0.3418  1.1100 -0.2410
   22CHL1   H3' 1558   1.918   1.702   6.641 -1.3362 -0.8095  1.4297
   22CHL1    C4 1559   1.966   1.739   6.403 -0.2562  0.1946 -0.1707
   22CHL1   H4A 1560   2.002   1.842   6.420 -0.5485  0.4161 -0.8559
   22CHL1   H4B 1561   2.047   1.679   6.448  0.5723  0.8184 -0.8064
   22CHL1    C5 1562   1.943   1.715   6.253 -0.2111  0.5623 -0.7076
   22CHL1    C6 1563   2.020   1.624   6.192 -0.1627  0.2578 -0.6372
   22CHL1    H6 1564   2.098   1.567   6.246 -0.9851  0.4247  0.7831
   22CHL1    C7 1565   2.027   1.596   6.051  0.5513  0.5228  0.4130
   22CHL1   H7A 1566   2.132   1.577   6.021  0.5777  1.3450 -0.0515
   22CHL1   H7B 1567   1.971   1.503   6.028  0.1043  0.2749  2.2896
   22CHL1    C8 1568   1.940   1.702   5.963 -0.3979  1.2844  0.1935
   22CHL1    H8 1569   2.010   1.789   5.956  0.4930  0.5903  0.2729
   22CHL1   C14 1570   1.914   1.651   5.824  0.1164 -0.4800 -0.6772
   22CHL1   H14 1571   1.839   1.569   5.830 -1.3276  0.7578 -1.2341
   22CHL1   C15 1572   2.032   1.583   5.747 -0.8404  0.1454  0.1058
   22CHL1  H15A 1573   2.124   1.643   5.759 -0.9378  0.0363  1.5726
   22CHL1  H15B 1574   2.048   1.478   5.779 -2.2707  0.1502  0.9294
   22CHL1   C16 1575   1.997   1.598   5.602  0.2897 -0.7727 -0.0099
   22CHL1  H16A 1576   2.077   1.653   5.548 -0.0670 -1.9423 -1.8144
   22CHL1  H16B 1577   1.982   1.502   5.548 -2.1897 -0.3798 -0.1367
   22CHL1   C17 1578   1.865   1.682   5.592 -0.2274  0.2039  0.0958
   22CHL1   H17 1579   1.779   1.612   5.577  0.1330 -0.5698  1.3938
   22CHL1   C13 1580   1.851   1.751   5.730  0.3029 -0.4036 -0.7242
   22CHL1   C18 1581   1.942   1.886   5.729  1.0249 -0.1736  0.1066
   22CHL1  H18A 1582   1.957   1.937   5.827  0.6964  1.2375 -0.5447
   22CHL1  H18B 1583   2.037   1.857   5.680 -0.1958 -2.2762 -1.1911
   22CHL1  H18C 1584   1.903   1.958   5.654  1.6302 -0.6461 -0.6807
   22CHL1   C12 1585   1.709   1.788   5.790  0.7405  0.8629 -0.1952
   22CHL1  H12A 1586   1.661   1.866   5.728  1.1929  1.5827  0.3465
   22CHL1  H12B 1587   1.650   1.695   5.780  1.3648  0.4796 -0.4105
   22CHL1   C11 1588   1.717   1.827   5.938 -0.0354 -0.5539 -0.4203
   22CHL1  H11A 1589   1.765   1.927   5.935 -0.7660 -0.2122 -0.7185
   22CHL1  H11B 1590   1.620   1.846   5.987  0.4193 -0.7253  0.5701
   22CHL1    C9 1591   1.805   1.740   6.033 -0.4023  0.2554 -0.4858
   22CHL1    H9 1592   1.754   1.641   6.038 -0.9851  0.6194  1.4489
   22CHL1   C10 1593   1.832   1.790   6.176 -0.0642 -0.2257  0.5415
   22CHL1   C19 1594   1.867   1.941   6.167 -0.2143  0.4311 -0.2144
   22CHL1  H19A 1595   1.894   1.986   6.265 -1.8395 -0.4701  0.6915
   22CHL1  H19B 1596   1.950   1.951   6.094  0.9139  0.4797  1.0412
   22CHL1  H19C 1597   1.785   2.009   6.135  1.0555  1.9940 -0.3111
   22CHL1    C1 1598   1.699   1.780   6.264 -0.2900  0.3025  0.6628
   22CHL1   H1A 1599   1.623   1.852   6.225  0.2480 -0.3666 -1.7792
   22CHL1   H1B 1600   1.664   1.675   6.256  0.5690  0.1058 -1.1213
   22CHL1    C2 1601   1.719   1.805   6.421  0.0851 -0.1031 -0.0247
   22CHL1   H2A 1602   1.621   1.806   6.474 -0.6861  0.8660 -1.4053
   22CHL1   H2B 1603   1.754   1.910   6.427 -0.9155  0.2026  0.6945
   22CHL1   C20 1604   1.855   1.765   5.461 -0.7120  0.5227  0.1170
   22CHL1   H20 1605   1.936   1.840   5.471 -0.6336  0.7748 -2.0101
   22CHL1   C21 1606   1.727   1.851   5.460  0.0122  0.7113 -0.7634
   22CHL1  H21A 1607   1.718   1.900   5.361  1.7014 -2.9697 -2.9539
   22CHL1  H21B 1608   1.735   1.929   5.539  1.8599  1.8520 -2.0068
   22CHL1  H21C 1609   1.629   1.800   5.468  0.3355  0.3191  1.1854
   22CHL1   C22 1610   1.871   1.672   5.334 -0.6451  0.5879 -1.0495
   22CHL1  H22A 1611   1.964   1.612   5.332  0.1032  1.6608 -3.8089
   22CHL1  H22B 1612   1.787   1.601   5.347 -0.1145  0.0606 -0.4647
   22CHL1   C23 1613   1.866   1.748   5.199 -0.4090 -0.9413  0.1629
   22CHL1  H23A 1614   1.880   1.672   5.119  2.3485  0.1428 -0.5091
   22CHL1  H23B 1615   1.771   1.805   5.200  0.2019  0.0970  1.0606
   22CHL1   C24 1616   1.988   1.835   5.167  0.4189  0.5169  0.2475
   22CHL1  H24A 1617   2.027   1.879   5.261  2.3614  0.3363 -0.4390
   22CHL1  H24B 1618   2.066   1.766   5.129 -0.3047  0.7366 -1.7911
   22CHL1   C25 1619   1.971   1.945   5.063 -0.6586 -0.6043  0.2251
   22CHL1   H25 1620   1.883   2.011   5.079 -1.4045 -1.6934  0.7241
   22CHL1   C26 1621   2.100   2.031   5.042  0.7695  0.5262  0.6043
   22CHL1  H26A 1622   2.132   2.058   5.145 -2.1713 -1.3814  2.1794
   22CHL1  H26B 1623   2.181   1.969   4.998 -0.3471 -1.0840  0.7216
   22CHL1  H26C 1624   2.077   2.109   4.967  0.0854  0.6756  0.9601
   22CHL1   C27 1625   1.933   1.881   4.924 -0.3607  0.0346 -0.5567
   22CHL1  H27A 1626   1.831   1.838   4.924 -0.2188 -0.3712 -2.2967
   22CHL1  H27B 1627   1.932   1.959   4.845 -1.4543  1.4814  0.8236
   22CHL1  H27C 1628   2.000   1.795   4.906 -0.2228 -0.0767  0.4464
   23CHL1    C3 1629   6.753   6.879   5.896  0.4490  0.4620 -0.4204
   23CHL1    H3 1630   6.861   6.852   5.897  0.2186 -0.5003 -0.2931
   23CHL1    O3 1631   6.696   6.850   6.024  0.0161 -0.0961 -0.4701
   23CHL1   H3' 1632   6.741   6.905   6.089 -0.0313 -0.6405  0.0371
   23CHL1    C4 1633   6.737   7.022   5.858 -0.6601  0.5681  0.3593
   23CHL1   H4A 1634   6.629   7.047   5.865 -0.7335 -0.2344  2.8544
   23CHL1   H4B 1635   6.786   7.091   5.930 -1.6320  0.9166  0.7107
   23CHL1    C5 1636   6.786   7.054   5.719 -0.2341 -0.0103 -0.4371
   23CHL1    C6 1637   6.875   7.148   5.696 -0.1923  0.5325  0.3557
   23CHL1    H6 1638   6.913   7.198   5.786 -1.6601  0.1706  1.2114
   23CHL1    C7 1639   6.934   7.176   5.561  1.0705 -0.3849 -0.7779
   23CHL1   H7A 1640   6.942   7.286   5.546 -0.3853 -0.2952 -1.0651
   23CHL1   H7B 1641   7.033   7.126   5.566  1.0713 -0.2924  0.6001
   23CHL1    C8 1642   6.854   7.102   5.446  0.5554  0.3223 -0.0370
   23CHL1    H8 1643   6.763   7.161   5.426  0.2396 -0.9773 -2.9338
   23CHL1   C14 1644   6.928   7.104   5.307  0.0083 -0.4372  0.2153
   23CHL1   H14 1645   7.021   7.047   5.331 -0.6279 -0.7400  2.1857
   23CHL1   C15 1646   6.990   7.232   5.243  0.4401 -0.2985  0.7891
   23CHL1  H15A 1647   6.920   7.318   5.250 -0.8130 -1.2332  0.1033
   23CHL1  H15B 1648   7.073   7.255   5.312  0.7401 -1.3306  0.7937
   23CHL1   C16 1649   7.022   7.196   5.096  0.2136  0.2969 -0.2907
   23CHL1  H16A 1650   6.967   7.271   5.035 -0.5121 -2.3115 -3.1373
   23CHL1  H16B 1651   7.129   7.203   5.067  0.0339 -0.2052 -1.1022
   23CHL1   C17 1652   6.967   7.050   5.078 -0.2771 -0.5469  0.1570
   23CHL1   H17 1653   7.051   6.981   5.100  0.0663  0.0274  0.6689
   23CHL1   C13 1654   6.858   7.037   5.189 -0.2620  0.3067  0.5269
   23CHL1   C18 1655   6.736   7.116   5.146  0.0173 -0.2137  0.0066
   23CHL1  H18A 1656   6.772   7.214   5.109  2.3623 -0.6174  1.0273
   23CHL1  H18B 1657   6.679   7.065   5.066  0.7055 -1.8242  0.4968
   23CHL1  H18C 1658   6.664   7.144   5.227  1.4553  0.7551  1.0075
   23CHL1   C12 1659   6.827   6.890   5.236  0.6434  0.2561  0.0023
   23CHL1  H12A 1660   6.766   6.834   5.161  1.4217 -2.6898  1.4161
   23CHL1  H12B 1661   6.927   6.843   5.246  0.3466 -0.7630 -1.4412
   23CHL1   C11 1662   6.742   6.888   5.358 -0.6137 -0.2114 -0.0966
   23CHL1  H11A 1663   6.652   6.945   5.327 -1.0235 -0.7736  0.0243
   23CHL1  H11B 1664   6.715   6.781   5.376 -0.6715 -0.2369 -0.3418
   23CHL1    C9 1665   6.811   6.954   5.482 -0.2529 -0.9353  0.3969
   23CHL1    H9 1666   6.909   6.906   5.501  0.2606  0.1859  0.6170
   23CHL1   C10 1667   6.733   6.957   5.608 -0.9057  0.4154 -0.1584
   23CHL1   C19 1668   6.579   6.995   5.580 -0.1127  0.0018 -0.1810
   23CHL1  H19A 1669   6.532   6.913   5.522  1.8552 -1.3307 -0.0070
   23CHL1  H19B 1670   6.525   7.008   5.676 -0.1089 -0.4500 -0.1131
   23CHL1  H19C 1671   6.583   7.085   5.517  1.9660  0.9177  1.1344
   23CHL1    C1 1672   6.736   6.809   5.657 -0.4225  0.1906 -0.1706
   23CHL1   H1A 1673   6.683   6.757   5.575 -1.3773  0.7266  0.0904
   23CHL1   H1B 1674   6.842   6.779   5.653  0.2902  2.4459  0.2986
   23CHL1    C2 1675   6.682   6.786   5.796  0.1499 -0.5914 -0.2007
   23CHL1   H2A 1676   6.696   6.683   5.836  2.0345 -0.3177 -0.0851
   23CHL1   H2B 1677   6.575   6.813   5.787 -0.1234 -1.2869  0.7682
   23CHL1   C20 1678   6.931   7.020   4.927 -0.2986  0.2109  0.2465
   23CHL1   H20 1679   6.852   7.095   4.905 -1.4577 -1.0756 -0.1547
   23CHL1   C21 1680   6.887   6.877   4.911 -0.0625 -0.0146  0.3127
   23CHL1  H21A 1681   6.965   6.814   4.961  2.5637  1.5876 -1.4886
   23CHL1  H21B 1682   6.874   6.848   4.805 -1.5983  0.6633  0.3058
   23CHL1  H21C 1683   6.794   6.857   4.968 -0.9208 -0.1817 -1.0985
   23CHL1   C22 1684   7.044   7.050   4.827 -0.1654  0.0173 -0.2072
   23CHL1  H22A 1685   7.108   7.130   4.868  1.2311 -0.1115 -1.9918
   23CHL1  H22B 1686   7.121   6.969   4.833  1.1039  1.2221  0.1748
   23CHL1   C23 1687   6.999   7.078   4.677 -0.2002  0.3615  0.1848
   23CHL1  H23A 1688   6.976   6.987   4.618  0.3373  1.1624 -1.3498
   23CHL1  H23B 1689   6.912   7.146   4.685  0.2005  0.6750  2.4999
   23CHL1   C24 1690   7.114   7.141   4.595 -0.3544 -0.8058 -0.1042
   23CHL1  H24A 1691   7.141   7.245   4.622  4.7767 -1.9242 -0.0061
   23CHL1  H24B 1692   7.206   7.080   4.605 -0.2105 -1.2405 -3.0998
   23CHL1   C25 1693   7.095   7.137   4.444  0.9021  0.0668  0.4378
   23CHL1   H25 1694   7.074   7.034   4.409 -2.6710  0.4589  1.0237
   23CHL1   C26 1695   6.984   7.238   4.397 -0.3353  0.5326  0.4228
   23CHL1  H26A 1696   6.885   7.196   4.424 -0.7642  1.2917  0.0588
   23CHL1  H26B 1697   7.007   7.336   4.445 -1.2153  0.9101  0.1115
   23CHL1  H26C 1698   7.001   7.254   4.288 -0.4641  0.7376  0.4316
   23CHL1   C27 1699   7.225   7.179   4.360 -0.6306 -0.4789 -0.2018
   23CHL1  H27A 1700   7.294   7.092   4.364 -0.8127 -0.5735  1.8190
   23CHL1  H27B 1701   7.200   7.187   4.252 -2.6076 -1.4627  0.1396
   23CHL1  H27C 1702   7.270   7.271   4.403 -2.2813  0.6699 -0.8170
   24CHL1    C3 1703   1.053   1.773   6.156  0.0487  0.1379 -0.2324
   24CHL1    H3 1704   1.100   1.681   6.118 -0.1754  0.5955 -1.6880
   24CHL1    O3 1705   1.028   1.769   6.296  0.5234  0.4677 -0.3602
   24CHL1   H3' 1706   0.957   1.704   6.302  0.9439  0.0123 -0.2337
   24CHL1    C4 1707   1.150   1.888   6.125 -0.1163  0.2995  0.0545
   24CHL1   H4A 1708   1.107   1.980   6.170 -0.7281  0.1464 -0.2119
   24CHL1   H4B 1709   1.244   1.866   6.182 -1.0087 -2.7835  0.5129
   24CHL1    C5 1710   1.181   1.899   5.976 -0.1695 -0.3469 -0.2318
   24CHL1    C6 1711   1.305   1.899   5.925  0.0463 -0.5151 -0.2890
   24CHL1    H6 1712   1.386   1.875   5.996 -1.7294 -1.6240  1.4496
   24CHL1    C7 1713   1.343   1.923   5.781 -0.5500  0.0610 -0.0871
   24CHL1   H7A 1714   1.424   1.998   5.768  0.0685 -1.0520 -4.0041
   24CHL1   H7B 1715   1.373   1.829   5.729 -2.3984 -0.6333  0.0400
   24CHL1    C8 1716   1.225   1.990   5.709  0.2714 -0.4430  0.2556
   24CHL1    H8 1717   1.226   2.093   5.751  1.7653  0.2128 -1.2503
   24CHL1   C14 1718   1.253   1.987   5.557 -0.2864  0.1457 -0.6644
   24CHL1   H14 1719   1.277   1.881   5.530  0.8870  0.0715  0.5758
   24CHL1   C15 1720   1.374   2.065   5.500  0.2704  0.7229 -0.7573
   24CHL1  H15A 1721   1.390   2.166   5.546 -2.0163  0.8742 -0.1579
   24CHL1  H15B 1722   1.468   2.007   5.502  0.2123  0.6312  0.6337
   24CHL1   C16 1723   1.337   2.094   5.356 -0.8388  0.4035 -0.4091
   24CHL1  H16A 1724   1.346   2.203   5.339  1.2794  0.5546  1.2927
   24CHL1  H16B 1725   1.404   2.041   5.286 -0.5839 -0.0549  0.1741
   24CHL1   C17 1726   1.196   2.034   5.332  0.5436  0.0979  0.6522
   24CHL1   H17 1727   1.213   1.931   5.294  0.8478  0.7531 -1.1024
   24CHL1   C13 1728   1.131   2.030   5.471 -0.2470  0.3399  0.5554
   24CHL1   C18 1729   1.075   2.167   5.512 -0.0213 -0.3647 -0.0506
   24CHL1  H18A 1730   0.977   2.192   5.465  1.4907  3.1215 -1.6815
   24CHL1  H18B 1731   1.059   2.175   5.622  1.1490  0.9456  0.0431
   24CHL1  H18C 1732   1.150   2.244   5.487 -0.3508 -0.2037 -0.5661
   24CHL1   C12 1733   1.026   1.917   5.499 -0.1289  0.0614  0.6887
   24CHL1  H12A 1734   0.942   1.926   5.427  1.5750 -1.4611 -1.6715
   24CHL1  H12B 1735   1.074   1.821   5.467 -0.2709  0.3809 -0.5320
   24CHL1   C11 1736   0.978   1.927   5.641 -0.4660 -0.4457  0.0438
   24CHL1  H11A 1737   0.917   2.017   5.663  1.7397  1.2968 -0.5795
   24CHL1  H11B 1738   0.910   1.842   5.664 -0.4151 -0.1708  1.3259
   24CHL1    C9 1739   1.102   1.910   5.738 -0.1576 -0.0720  0.4929
   24CHL1    H9 1740   1.125   1.801   5.726 -0.1455 -0.1198  0.9293
   24CHL1   C10 1741   1.063   1.916   5.890 -0.4746  0.0324  0.5594
   24CHL1   C19 1742   1.004   2.055   5.929  0.2196  0.5675  0.5021
   24CHL1  H19A 1743   1.025   2.100   6.029 -0.0536 -0.0330  0.8344
   24CHL1  H19B 1744   1.042   2.127   5.854  0.1621  0.2580  0.1740
   24CHL1  H19C 1745   0.894   2.057   5.914  0.0232  0.0269  1.7460
   24CHL1    C1 1746   0.955   1.810   5.924 -0.5325  0.2601 -0.6768
   24CHL1   H1A 1747   0.861   1.827   5.868  0.1123 -2.5891 -2.8616
   24CHL1   H1B 1748   0.996   1.710   5.896 -0.9498  0.2590 -1.2886
   24CHL1    C2 1749   0.919   1.794   6.080  0.0080  0.4177  0.3218
   24CHL1   H2A 1750   0.861   1.701   6.099  0.3397  0.0669 -0.3607
   24CHL1   H2B 1751   0.867   1.883   6.123  0.4610  0.6126  0.4693
   24CHL1   C20 1752   1.112   2.101   5.220 -0.6587  0.5086 -0.5594
   24CHL1   H20 1753   1.090   2.205   5.250  1.8913  1.9868 -3.1791
   24CHL1   C21 1754   0.987   2.019   5.196  0.3845  0.8889  0.3473
   24CHL1  H21A 1755   1.013   1.913   5.177 -2.3915  0.1819 -0.0247
   24CHL1  H21B 1756   0.942   2.053   5.100 -0.2734 -1.6562 -0.3348
   24CHL1  H21C 1757   0.905   2.033   5.270  0.6307  1.9617  0.4256
   24CHL1   C22 1758   1.193   2.120   5.082 -0.0593 -0.4007  0.1268
   24CHL1  H22A 1759   1.135   2.189   5.018 -0.4724 -0.4449  0.4467
   24CHL1  H22B 1760   1.287   2.173   5.107  0.3890 -1.2321  0.2182
   24CHL1   C23 1761   1.228   1.996   4.996  0.0037  0.8066  0.1363
   24CHL1  H23A 1762   1.282   1.918   5.053 -2.3635 -1.2274 -0.2239
   24CHL1  H23B 1763   1.131   1.962   4.954 -1.0977  1.9935  1.5880
   24CHL1   C24 1764   1.321   2.029   4.881 -0.0550  0.0578  0.0979
   24CHL1  H24A 1765   1.347   1.937   4.825 -0.9687  1.1630 -2.2748
   24CHL1  H24B 1766   1.275   2.114   4.826 -0.9723  0.2545  1.1334
   24CHL1   C25 1767   1.466   2.085   4.911  0.4447 -0.5405 -0.0508
   24CHL1   H25 1768   1.451   2.168   4.984  0.9512 -1.6987  1.4214
   24CHL1   C26 1769   1.557   1.980   4.968  0.5474 -0.8545  0.1403
   24CHL1  H26A 1770   1.532   1.969   5.076 -0.6444 -0.7127 -0.0997
   24CHL1  H26B 1771   1.553   1.882   4.915 -1.0574 -0.2209 -1.0026
   24CHL1  H26C 1772   1.658   2.024   4.971  0.3159 -0.0374 -2.0529
   24CHL1   C27 1773   1.541   2.137   4.786  0.2233 -0.2351 -0.1027
   24CHL1  H27A 1774   1.634   2.183   4.824  0.4665 -2.0352  1.6833
   24CHL1  H27B 1775   1.557   2.061   4.706  0.3794  1.5414 -1.8214
   24CHL1  H27C 1776   1.480   2.221   4.747  1.8317  1.4295  0.7932
   25CHL1    C3 1777   4.925   4.316   5.728 -0.2711 -0.0133 -0.4465
   25CHL1    H3 1778   4.855   4.238   5.692 -1.0783 -0.6716  2.3104
   25CHL1    O3 1779   4.926   4.284   5.865  0.4162  0.5889  0.0225
   25CHL1   H3' 1780   5.005   4.321   5.905 -1.2702  5.2594 -0.3208
   25CHL1    C4 1781   5.067   4.297   5.673 -0.3230  0.5909  0.9982
   25CHL1   H4A 1782   5.142   4.368   5.715  0.8835 -0.0209 -0.0521
   25CHL1   H4B 1783   5.113   4.199   5.695  0.0488 -0.0104 -2.0392
   25CHL1    C5 1784   5.056   4.317   5.522  0.1198 -0.1820 -0.0593
   25CHL1    C6 1785   5.090   4.221   5.436 -0.5586 -0.0062  0.5899
   25CHL1    H6 1786   5.132   4.125   5.470  2.0635  0.5658 -0.7623
   25CHL1    C7 1787   5.093   4.227   5.287 -0.3601 -0.5937 -0.0177
   25CHL1   H7A 1788   5.186   4.193   5.236  0.1687 -0.2848  0.7245
   25CHL1   H7B 1789   5.004   4.174   5.247  0.0775 -3.2016  2.1744
   25CHL1    C8 1790   5.081   4.376   5.236 -0.3703 -1.1573 -0.1507
   25CHL1    H8 1791   5.174   4.435   5.249 -0.5235 -1.4889  3.9816
   25CHL1   C14 1792   5.046   4.368   5.081  0.1471 -0.5827 -0.4262
   25CHL1   H14 1793   4.953   4.307   5.075 -1.0144  1.1755 -1.2728
   25CHL1   C15 1794   5.141   4.287   4.990  0.1387 -0.0256 -0.2612
   25CHL1  H15A 1795   5.249   4.304   5.009 -0.2801  0.1254  2.3872
   25CHL1  H15B 1796   5.110   4.181   4.999  1.4823 -0.3857  0.3056
   25CHL1   C16 1797   5.096   4.347   4.855  0.1607  0.2415 -0.2419
   25CHL1  H16A 1798   5.179   4.407   4.811  1.9255  0.2470  2.8232
   25CHL1  H16B 1799   5.077   4.255   4.795  1.7173  0.4474 -1.1264
   25CHL1   C17 1800   4.981   4.450   4.873  0.3834 -0.7501  0.5813
   25CHL1   H17 1801   4.890   4.388   4.886 -0.7533  1.1737  2.4646
   25CHL1   C13 1802   5.008   4.498   5.015  0.5689 -0.5791 -0.3837
   25CHL1   C18 1803   5.130   4.596   5.017 -0.2738 -0.5590 -0.3182
   25CHL1  H18A 1804   5.175   4.597   5.119  0.6691 -1.8390 -0.6890
   25CHL1  H18B 1805   5.212   4.564   4.949 -0.2198 -0.2155 -0.4167
   25CHL1  H18C 1806   5.101   4.700   4.993  3.6305  1.0796  1.2589
   25CHL1   C12 1807   4.887   4.553   5.093 -0.1743  0.5181  0.5006
   25CHL1  H12A 1808   4.858   4.651   5.049  1.5667  1.1838  0.7847
   25CHL1  H12B 1809   4.807   4.476   5.088 -1.5317  1.9397 -1.8494
   25CHL1   C11 1810   4.926   4.574   5.238 -0.9489  0.2574 -0.9552
   25CHL1  H11A 1811   5.003   4.653   5.241 -0.8483  0.1475 -0.4472
   25CHL1  H11B 1812   4.835   4.615   5.288  0.8939 -1.3680  4.4345
   25CHL1    C9 1813   4.968   4.442   5.313  0.0622  0.3483 -0.3354
   25CHL1    H9 1814   4.875   4.382   5.307 -1.1502  2.0055  0.8535
   25CHL1   C10 1815   4.997   4.452   5.470  0.2131  0.4476 -0.0068
   25CHL1   C19 1816   5.091   4.577   5.493  0.3299 -0.3082 -0.3439
   25CHL1  H19A 1817   5.139   4.572   5.594 -1.7008 -1.1666  0.6256
   25CHL1  H19B 1818   5.173   4.555   5.422  0.3948  0.2657 -0.4580
   25CHL1  H19C 1819   5.065   4.685   5.479  3.0380  0.1791 -2.5175
   25CHL1    C1 1820   4.859   4.477   5.542 -1.0216 -0.0403 -0.6128
   25CHL1   H1A 1821   4.839   4.584   5.523 -1.2395  0.0026 -0.1409
   25CHL1   H1B 1822   4.774   4.420   5.499 -0.7867 -0.8545 -0.0289
   25CHL1    C2 1823   4.870   4.458   5.696 -0.3048 -0.3762 -0.0606
   25CHL1   H2A 1824   4.777   4.474   5.754  1.3207  1.1488  2.3140
   25CHL1   H2B 1825   4.928   4.543   5.737 -0.8074  0.0754 -0.2773
   25CHL1   C20 1826   4.971   4.549   4.757 -0.1334 -0.1230 -0.3778
   25CHL1   H20 1827   5.059   4.617   4.754  1.7676 -2.4227  0.8806
   25CHL1   C21 1828   4.850   4.650   4.774  0.8163 -0.2982  0.6833
   25CHL1  H21A 1829   4.885   4.717   4.855  2.7527 -2.3093  1.6163
   25CHL1  H21B 1830   4.753   4.602   4.798  0.1817 -0.7464 -2.3800
   25CHL1  H21C 1831   4.840   4.714   4.683  1.5039  0.7525  1.3289
   25CHL1   C22 1832   4.956   4.476   4.623 -0.3393  0.0370 -0.2409
   25CHL1  H22A 1833   5.039   4.401   4.615  0.0601  0.2582  1.4677
   25CHL1  H22B 1834   4.859   4.423   4.633  0.0416 -0.6492 -0.0553
   25CHL1   C23 1835   4.965   4.562   4.487 -0.8172 -0.3419 -0.0318
   25CHL1  H23A 1836   4.954   4.504   4.393 -2.3625 -2.1063  1.1735
   25CHL1  H23B 1837   4.876   4.630   4.484  0.0370  0.7885 -2.2715
   25CHL1   C24 1838   5.090   4.654   4.483 -0.8804 -0.5908 -0.4641
   25CHL1  H24A 1839   5.113   4.716   4.572 -0.6964 -0.2972 -0.7134
   25CHL1  H24B 1840   5.175   4.584   4.470 -0.5773 -0.4457  0.6950
   25CHL1   C25 1841   5.080   4.758   4.368 -0.4706  0.1401  0.2977
   25CHL1   H25 1842   5.065   4.704   4.272 -0.3478 -0.4293  0.5905
   25CHL1   C26 1843   4.970   4.868   4.378  0.3456  0.5327  0.5291
   25CHL1  H26A 1844   4.998   4.946   4.304  1.9682  0.5441  1.1073
   25CHL1  H26B 1845   4.872   4.824   4.350  0.5429  0.2958  0.1988
   25CHL1  H26C 1846   4.967   4.915   4.478  1.3819  0.3854  0.6437
   25CHL1   C27 1847   5.207   4.827   4.367 -0.2917 -0.4543 -0.1944
   25CHL1  H27A 1848   5.212   4.920   4.306  2.8084 -0.2192  0.2874
   25CHL1  H27B 1849   5.240   4.870   4.464 -1.9924  1.8342 -0.5223
   25CHL1  H27C 1850   5.285   4.756   4.334 -1.3145 -1.5443 -0.3584
   26CHL1    C3 1851   3.006   3.604   4.211 -0.1324  0.0651 -0.7005
   26CHL1    H3 1852   2.964   3.692   4.263 -0.0829  0.3220 -1.0886
   26CHL1    O3 1853   3.143   3.631   4.187  0.5995  0.1671 -0.0133
   26CHL1   H3' 1854   3.170   3.580   4.110 -0.7915  0.1870 -0.5428
   26CHL1    C4 1855   3.002   3.465   4.290  0.5108  0.0291  0.0436
   26CHL1   H4A 1856   3.035   3.383   4.223 -1.1880  0.5960 -1.5977
   26CHL1   H4B 1857   3.064   3.475   4.381  2.1043 -0.0841 -0.9851
   26CHL1    C5 1858   2.855   3.438   4.320  0.1580 -0.5950  0.6260
   26CHL1    C6 1859   2.815   3.431   4.444 -0.1508  0.7907  0.7435
   26CHL1    H6 1860   2.885   3.435   4.529 -0.4494 -0.2448  1.0542
   26CHL1    C7 1861   2.674   3.386   4.466  0.9577 -0.2773  0.3752
   26CHL1   H7A 1862   2.670   3.315   4.551  0.9571 -0.7416 -0.0062
   26CHL1   H7B 1863   2.601   3.465   4.494  0.7188 -0.6612  0.8503
   26CHL1    C8 1864   2.601   3.309   4.361 -0.5204  0.0309  0.4309
   26CHL1    H8 1865   2.652   3.210   4.356 -0.1049  0.3090 -1.8462
   26CHL1   C14 1866   2.462   3.277   4.398  0.3379  0.3619 -1.0391
   26CHL1   H14 1867   2.410   3.374   4.416  0.6854  0.1562  1.3853
   26CHL1   C15 1868   2.425   3.194   4.521 -0.3596  0.0749  0.2632
   26CHL1  H15A 1869   2.502   3.114   4.527  1.9538  2.0547 -1.1548
   26CHL1  H15B 1870   2.438   3.253   4.615 -0.8547  0.0150  0.3710
   26CHL1   C16 1871   2.284   3.140   4.496  0.0014 -0.0605 -0.2732
   26CHL1  H16A 1872   2.289   3.035   4.531 -0.6371  0.3067  0.9900
   26CHL1  H16B 1873   2.222   3.201   4.565  1.1394  1.6272 -0.6777
   26CHL1   C17 1874   2.251   3.171   4.348  0.4362  0.7023  0.2320
   26CHL1   H17 1875   2.201   3.271   4.350  0.2123  0.6292 -0.9120
   26CHL1   C13 1876   2.385   3.208   4.287 -0.3420  0.3026  1.1673
   26CHL1   C18 1877   2.462   3.075   4.240 -0.4466 -0.3532 -0.1474
   26CHL1  H18A 1878   2.402   3.035   4.156 -1.8644  0.3723  0.4799
   26CHL1  H18B 1879   2.567   3.088   4.205 -0.1912  0.6388  0.9083
   26CHL1  H18C 1880   2.464   3.011   4.331 -0.4325  2.0306  1.6553
   26CHL1   C12 1881   2.381   3.307   4.173  0.0154  0.1049  0.3151
   26CHL1  H12A 1882   2.323   3.274   4.085  0.0455 -0.7522  0.6101
   26CHL1  H12B 1883   2.328   3.397   4.211 -1.8608 -0.7526 -0.1821
   26CHL1   C11 1884   2.518   3.356   4.122  0.5412  0.1108 -0.0523
   26CHL1  H11A 1885   2.544   3.263   4.069 -2.6642 -0.6509 -0.5103
   26CHL1  H11B 1886   2.497   3.436   4.047 -0.2377 -0.3201 -0.3105
   26CHL1    C9 1887   2.611   3.393   4.236 -0.6138 -0.3488 -0.6060
   26CHL1    H9 1888   2.580   3.497   4.256  0.9914  0.5394 -2.4131
   26CHL1   C10 1889   2.764   3.424   4.196  0.7020 -0.1711 -0.0152
   26CHL1   C19 1890   2.808   3.303   4.112 -0.3339  0.3917 -0.6345
   26CHL1  H19A 1891   2.917   3.307   4.093 -0.2961  2.1622 -0.2194
   26CHL1  H19B 1892   2.771   3.204   4.147  1.4309  0.6615  2.3115
   26CHL1  H19C 1893   2.761   3.307   4.011 -1.7495  0.9259  0.0243
   26CHL1    C1 1894   2.772   3.555   4.116  0.5107 -0.2793  0.7144
   26CHL1   H1A 1895   2.711   3.547   4.024  0.2826  1.5935  0.6607
   26CHL1   H1B 1896   2.723   3.638   4.172 -0.4785 -0.7815  0.6224
   26CHL1    C2 1897   2.924   3.591   4.080 -0.4810  0.4626  0.8289
   26CHL1   H2A 1898   2.941   3.680   4.016 -0.2537 -0.7707 -0.8797
   26CHL1   H2B 1899   2.978   3.511   4.025 -0.2421  1.2473 -0.0910
   26CHL1   C20 1900   2.153   3.071   4.284  0.5283 -1.0917 -0.1839
   26CHL1   H20 1901   2.191   2.967   4.272 -0.7182 -1.4878 -0.9881
   26CHL1   C21 1902   2.101   3.113   4.143  0.3317  0.4684  0.6512
   26CHL1  H21A 1903   2.197   3.112   4.087  0.7081  1.6250  1.2440
   26CHL1  H21B 1904   2.048   3.211   4.146  1.6676  1.2253  0.5912
   26CHL1  H21C 1905   2.035   3.039   4.095  2.5475 -0.9668 -0.3150
   26CHL1   C22 1906   2.028   3.057   4.376  0.1276 -0.1866  0.8657
   26CHL1  H22A 1907   1.969   2.970   4.341  1.6345 -0.8255 -0.1988
   26CHL1  H22B 1908   2.054   3.020   4.477 -0.5577 -1.3101  0.6450
   26CHL1   C23 1909   1.933   3.181   4.385  0.4866 -0.1984 -0.3282
   26CHL1  H23A 1910   1.995   3.269   4.414  3.1624 -1.9947 -0.2467
   26CHL1  H23B 1911   1.885   3.194   4.286  0.8582  1.4110 -0.3274
   26CHL1   C24 1912   1.825   3.152   4.493  0.3019  0.1146  0.1728
   26CHL1  H24A 1913   1.759   3.076   4.447 -1.9824  0.5105  2.5486
   26CHL1  H24B 1914   1.872   3.091   4.573  0.5534 -2.0526 -1.5103
   26CHL1   C25 1915   1.737   3.268   4.542 -0.6831  0.0308 -0.4301
   26CHL1   H25 1916   1.808   3.343   4.583  1.5615 -1.8309 -0.6485
   26CHL1   C26 1917   1.654   3.335   4.429  0.2818 -0.1950  0.0825
   26CHL1  H26A 1918   1.736   3.368   4.362 -0.7940  2.3186 -0.1199
   26CHL1  H26B 1919   1.593   3.258   4.376 -0.1565  0.3563 -0.2218
   26CHL1  H26C 1920   1.610   3.434   4.454 -1.5272 -0.3695 -2.1378
   26CHL1   C27 1921   1.634   3.233   4.644 -0.4509  0.8333 -1.1013
   26CHL1  H27A 1922   1.585   3.315   4.700  1.4247 -0.1412  2.2698
   26CHL1  H27B 1923   1.555   3.163   4.609  0.2037 -1.4190  1.4971
   26CHL1  H27C 1924   1.687   3.180   4.727  0.9142  2.9310 -0.5510
   27CHL1    C3 1925   2.224   0.576   6.238  0.1182 -0.8633  0.5935
   27CHL1    H3 1926   2.288   0.666   6.229 -1.5363  0.2562 -0.4972
   27CHL1    O3 1927   2.227   0.542   6.369 -0.0044  0.2902 -0.3697
   27CHL1   H3' 1928   2.179   0.460   6.383 -1.2146  1.0741  0.3210
   27CHL1    C4 1929   2.082   0.646   6.206 -0.7071 -0.9359 -0.0943
   27CHL1   H4A 1930   1.994   0.580   6.222  0.2150 -1.3464  4.6582
   27CHL1   H4B 1931   2.077   0.734   6.273 -0.2646 -0.6064 -0.4872
   27CHL1    C5 1932   2.087   0.696   6.064  0.8640  0.3079 -0.1249
   27CHL1    C6 1933   2.054   0.823   6.032  0.4575  0.0184  0.1295
   27CHL1    H6 1934   2.030   0.893   6.113 -0.6603  0.7035 -0.7619
   27CHL1    C7 1935   2.054   0.881   5.892 -0.1134 -0.0280  0.6403
   27CHL1   H7A 1936   1.958   0.931   5.869  0.3446 -0.4029 -2.5025
   27CHL1   H7B 1937   2.128   0.958   5.861 -0.6841 -0.5466 -2.3258
   27CHL1    C8 1938   2.063   0.772   5.783 -0.4562  0.1620  0.2730
   27CHL1    H8 1939   1.964   0.722   5.781 -0.3824 -0.0335  1.1804
   27CHL1   C14 1940   2.093   0.822   5.645 -0.3546  0.3480 -0.3219
   27CHL1   H14 1941   2.203   0.833   5.640 -0.3963  0.3958 -3.6599
   27CHL1   C15 1942   2.018   0.951   5.606  0.0491  0.8425  0.5210
   27CHL1  H15A 1943   1.910   0.940   5.627  0.0034  1.0931  0.4203
   27CHL1  H15B 1944   2.057   1.044   5.655 -0.6793  0.5687  1.6426
   27CHL1   C16 1945   2.045   0.949   5.452  0.4970  0.4762 -0.1363
   27CHL1  H16A 1946   1.946   0.956   5.401  0.6663 -0.3173 -0.5890
   27CHL1  H16B 1947   2.113   1.035   5.433  0.4934  0.4851 -0.1087
   27CHL1   C17 1948   2.114   0.818   5.411 -0.2884  0.1321  0.0705
   27CHL1   H17 1949   2.224   0.837   5.407  0.0634 -1.7561 -0.2597
   27CHL1   C13 1950   2.081   0.725   5.533 -1.0800 -0.1054 -0.1804
   27CHL1   C18 1951   1.941   0.658   5.526  0.1887  0.3295 -0.0565
   27CHL1  H18A 1952   1.934   0.586   5.442  1.5725 -0.9950  0.8957
   27CHL1  H18B 1953   1.911   0.597   5.614 -3.2442  2.8185  0.6892
   27CHL1  H18C 1954   1.869   0.742   5.523  0.7178  0.7633 -1.9457
   27CHL1   C12 1955   2.184   0.614   5.559 -0.0028  0.4354  0.5372
   27CHL1  H12A 1956   2.185   0.526   5.491  0.3247  0.4604  0.5103
   27CHL1  H12B 1957   2.280   0.669   5.551  0.3531 -0.3825 -1.6332
   27CHL1   C11 1958   2.183   0.564   5.698 -0.6790  0.7964 -0.1662
   27CHL1  H11A 1959   2.114   0.478   5.698  0.6451 -0.3188  1.4052
   27CHL1  H11B 1960   2.279   0.510   5.714 -0.7871  0.1136 -1.6731
   27CHL1    C9 1961   2.158   0.658   5.821  1.4166  0.0324 -0.1846
   27CHL1    H9 1962   2.255   0.709   5.841  0.1080  1.9877  1.6393
   27CHL1   C10 1963   2.126   0.590   5.957 -0.5545  0.2240  0.3411
   27CHL1   C19 1964   2.011   0.485   5.931 -0.2417  0.1763 -0.4635
   27CHL1  H19A 1965   2.035   0.397   5.868  0.0450  0.2690 -0.4843
   27CHL1  H19B 1966   1.987   0.442   6.031 -1.7346  1.1949 -0.3498
   27CHL1  H19C 1967   1.927   0.536   5.879 -0.2424 -1.5804 -2.3125
   27CHL1    C1 1968   2.262   0.514   5.999 -0.5577 -0.1914  1.3009
   27CHL1   H1A 1969   2.291   0.426   5.939  0.7612 -0.4126  2.2463
   27CHL1   H1B 1970   2.348   0.584   5.987  0.8202 -2.1576 -1.4683
   27CHL1    C2 1971   2.268   0.463   6.145 -0.2221 -0.8418  1.0323
   27CHL1   H2A 1972   2.368   0.429   6.180 -0.3896 -1.0731  1.2936
   27CHL1   H2B 1973   2.196   0.378   6.148  1.4034 -2.4598 -1.6171
   27CHL1   C20 1974   2.070   0.771   5.270 -0.7080  0.1805  0.1969
   27CHL1   H20 1975   1.962   0.744   5.271 -0.8209  0.5518 -0.6450
   27CHL1   C21 1976   2.160   0.656   5.223  0.1855  0.0187 -0.1053
   27CHL1  H21A 1977   2.267   0.685   5.213  0.1305 -0.4841 -2.7776
   27CHL1  H21B 1978   2.124   0.615   5.127  2.1259  0.1385 -0.9324
   27CHL1  H21C 1979   2.158   0.567   5.290 -0.7350  0.1722  0.0820
   27CHL1   C22 1980   2.076   0.886   5.159 -0.6653 -0.3678 -0.3453
   27CHL1  H22A 1981   2.021   0.970   5.205  0.6679 -0.5758  1.7232
   27CHL1  H22B 1982   2.180   0.921   5.144 -1.2713  1.7910  0.2723
   27CHL1   C23 1983   2.021   0.838   5.024  0.1576  0.0187 -0.5025
   27CHL1  H23A 1984   2.049   0.909   4.943  0.0913  0.5747 -0.0464
   27CHL1  H23B 1985   2.067   0.741   4.997  2.1276  0.2348  1.7243
   27CHL1   C24 1986   1.867   0.834   5.004 -0.4629 -0.0531  0.0716
   27CHL1  H24A 1987   1.807   0.772   5.075  0.3316  1.1323  1.8376
   27CHL1  H24B 1988   1.828   0.936   5.024 -1.1536 -0.4787  0.9732
   27CHL1   C25 1989   1.821   0.795   4.861 -0.8303 -0.8249 -0.2593
   27CHL1   H25 1990   1.845   0.876   4.790 -1.8815 -1.0402 -0.8883
   27CHL1   C26 1991   1.876   0.663   4.814  0.0481 -0.4525 -0.6378
   27CHL1  H26A 1992   1.811   0.626   4.732 -0.3811  3.1630 -2.1260
   27CHL1  H26B 1993   1.975   0.681   4.767  1.0112  0.0656  1.4665
   27CHL1  H26C 1994   1.877   0.599   4.905 -1.1870  1.0794  0.5343
   27CHL1   C27 1995   1.667   0.787   4.871  0.1179  0.2540 -0.4985
   27CHL1  H27A 1996   1.613   0.772   4.775 -1.5429 -0.7610  0.5375
   27CHL1  H27B 1997   1.650   0.696   4.934  2.7269  0.2968  0.3754
   27CHL1  H27C 1998   1.628   0.875   4.926  0.1718 -0.0795  0.0862
   28CHL1    C3 1999   6.307   6.395   6.295  0.1211 -0.0291 -0.5026
   28CHL1    H3 2000   6.214   6.454   6.310 -1.6326 -2.2898 -1.7354
   28CHL1    O3 2001   6.359   6.349   6.417 -0.3531  0.7557 -0.1357
   28CHL1   H3' 2002   6.283   6.330   6.474 -0.5554 -0.6696 -0.8288
   28CHL1    C4 2003   6.282   6.273   6.213  0.6446  0.0841  0.3566
   28CHL1   H4A 2004   6.379   6.220   6.208  0.2779 -0.5735  0.0557
   28CHL1   H4B 2005   6.210   6.208   6.267 -0.1290 -0.1397 -0.8914
   28CHL1    C5 2006   6.245   6.316   6.068  0.4420 -0.4038 -0.2668
   28CHL1    C6 2007   6.137   6.262   6.009  0.0391  0.7616  0.7247
   28CHL1    H6 2008   6.073   6.194   6.066 -1.3946 -1.4469 -3.1541
   28CHL1    C7 2009   6.096   6.293   5.867  0.0570  0.8438  0.2205
   28CHL1   H7A 2010   6.059   6.203   5.813 -0.6464  0.3909  1.4295
   28CHL1   H7B 2011   6.004   6.354   5.862 -1.3728 -1.2945 -1.8728
   28CHL1    C8 2012   6.212   6.363   5.782  0.4838  0.0249  0.3055
   28CHL1    H8 2013   6.267   6.271   5.753 -3.1428 -2.2453 -0.0382
   28CHL1   C14 2014   6.160   6.424   5.656 -0.6675 -0.2005 -0.4353
   28CHL1   H14 2015   6.107   6.516   5.689  0.0842  0.6610 -1.5650
   28CHL1   C15 2016   6.070   6.341   5.560  0.2772 -0.0562 -0.9485
   28CHL1  H15A 2017   6.123   6.244   5.554  0.4408 -0.2548  2.1256
   28CHL1  H15B 2018   5.970   6.316   5.601  1.1155 -1.5757  0.2661
   28CHL1   C16 2019   6.063   6.422   5.434 -0.1536 -0.0989  0.5355
   28CHL1  H16A 2020   6.074   6.342   5.357 -1.2798 -0.9226  1.1941
   28CHL1  H16B 2021   5.964   6.469   5.416 -0.0302 -0.0872 -0.1503
   28CHL1   C17 2022   6.172   6.532   5.438 -0.3306  0.0146 -0.3187
   28CHL1   H17 2023   6.110   6.618   5.472 -0.3016  0.4094 -1.2348
   28CHL1   C13 2024   6.260   6.490   5.555 -0.7410  0.6262 -0.7717
   28CHL1   C18 2025   6.356   6.381   5.503 -0.4607  0.3411  0.1416
   28CHL1  H18A 2026   6.305   6.325   5.422 -0.6126  0.5763  0.0708
   28CHL1  H18B 2027   6.445   6.421   5.450 -1.5516  0.2384 -1.8919
   28CHL1  H18C 2028   6.390   6.306   5.577 -0.5556  0.5925  0.4451
   28CHL1   C12 2029   6.335   6.594   5.635 -0.4368 -0.4047  0.3183
   28CHL1  H12A 2030   6.427   6.633   5.587 -1.7241 -1.2546 -3.0755
   28CHL1  H12B 2031   6.264   6.672   5.670 -1.5352 -0.2440 -2.1253
   28CHL1   C11 2032   6.393   6.524   5.764 -0.2288  0.0503 -0.5483
   28CHL1  H11A 2033   6.466   6.445   5.736  0.9058 -0.3512  2.9579
   28CHL1  H11B 2034   6.445   6.603   5.822  0.3735 -0.4674 -0.3686
   28CHL1    C9 2035   6.292   6.461   5.861  0.0504 -0.1107  0.2571
   28CHL1    H9 2036   6.221   6.543   5.887 -0.1262 -0.5676  1.2837
   28CHL1   C10 2037   6.346   6.396   5.993  0.3411  0.9526  0.0894
   28CHL1   C19 2038   6.479   6.310   5.970  0.0002  0.3254  0.5815
   28CHL1  H19A 2039   6.551   6.366   5.907  0.2657  0.2750  0.8394
   28CHL1  H19B 2040   6.518   6.269   6.065  0.3506 -0.8030 -0.0430
   28CHL1  H19C 2041   6.451   6.215   5.920 -3.2024  1.4439  0.0095
   28CHL1    C1 2042   6.379   6.520   6.084 -0.6627  0.0134 -0.0008
   28CHL1   H1A 2043   6.470   6.563   6.037  0.6960 -0.9509  1.6340
   28CHL1   H1B 2044   6.298   6.596   6.081 -2.6651 -1.9954 -0.0650
   28CHL1    C2 2045   6.413   6.479   6.225  0.1230 -0.1610 -0.6412
   28CHL1   H2A 2046   6.440   6.574   6.275  0.9316 -1.2413  1.0591
   28CHL1   H2B 2047   6.497   6.407   6.216  0.1165 -0.0739 -1.5722
   28CHL1   C20 2048   6.219   6.570   5.303 -0.4016  0.3772  0.5035
   28CHL1   H20 2049   6.261   6.481   5.251  1.0429 -0.9999  3.7578
   28CHL1   C21 2050   6.325   6.683   5.307 -0.3095  0.3085 -0.4548
   28CHL1  H21A 2051   6.357   6.717   5.206 -1.1376  1.6844 -0.2828
   28CHL1  H21B 2052   6.417   6.634   5.345 -0.2122  1.4707  0.8974
   28CHL1  H21C 2053   6.310   6.764   5.382  0.2648  0.4339 -0.4712
   28CHL1   C22 2054   6.105   6.611   5.201 -0.3436 -0.2952  0.2462
   28CHL1  H22A 2055   6.019   6.541   5.199 -1.0037  0.4890  0.3763
   28CHL1  H22B 2056   6.059   6.705   5.239 -2.8219 -1.0648 -0.6593
   28CHL1   C23 2057   6.140   6.620   5.053  0.1755  0.1440  0.3812
   28CHL1  H23A 2058   6.205   6.704   5.018  2.2504 -0.4168  2.6625
   28CHL1  H23B 2059   6.208   6.533   5.041  1.4026  1.2950 -1.6686
   28CHL1   C24 2060   6.025   6.584   4.959 -0.0047 -0.7873  0.0551
   28CHL1  H24A 2061   6.070   6.582   4.857 -0.5675  0.4078 -0.2454
   28CHL1  H24B 2062   5.966   6.491   4.976 -0.2469 -0.9646 -1.5137
   28CHL1   C25 2063   5.911   6.690   4.943  0.3287 -0.9017 -0.6749
   28CHL1   H25 2064   5.856   6.709   5.038 -0.4852  1.8859 -1.6032
   28CHL1   C26 2065   5.962   6.815   4.881  0.6012  0.0316  1.0229
   28CHL1  H26A 2066   5.869   6.867   4.852  0.8364  2.0934  3.6199
   28CHL1  H26B 2067   6.012   6.887   4.949  0.2064  1.0275  0.2795
   28CHL1  H26C 2068   6.028   6.805   4.792 -0.7548 -1.0906  0.1031
   28CHL1   C27 2069   5.815   6.620   4.851  0.9217 -0.7506 -0.0930
   28CHL1  H27A 2070   5.842   6.617   4.744 -0.5740  1.8581 -0.6615
   28CHL1  H27B 2071   5.777   6.526   4.897  1.4622 -0.3966  1.1208
   28CHL1  H27C 2072   5.719   6.677   4.847  1.1366 -0.4389 -1.2097
   29CHL1    C3 2073   4.587   1.254   2.850 -0.4944 -0.3662  0.0845
   29CHL1    H3 2074   4.591   1.360   2.883  0.5296 -0.3377 -0.1039
   29CHL1    O3 2075   4.612   1.248   2.709  0.4446  0.3050  0.3350
   29CHL1   H3' 2076   4.692   1.300   2.699  0.5798  0.6896  2.7146
   29CHL1    C4 2077   4.701   1.163   2.921 -0.3712 -0.6614 -0.3707
   29CHL1   H4A 2078   4.705   1.067   2.865 -0.3415  0.0900 -1.6997
   29CHL1   H4B 2079   4.800   1.209   2.903  0.2572 -1.3883  1.1181
   29CHL1    C5 2080   4.667   1.152   3.068 -0.6491  0.6210 -0.3463
   29CHL1    C6 2081   4.749   1.200   3.164  0.0283 -0.1236  0.8009
   29CHL1    H6 2082   4.849   1.240   3.142 -0.3728 -0.3849 -1.8444
   29CHL1    C7 2083   4.720   1.202   3.309 -0.0315  0.2218 -0.6586
   29CHL1   H7A 2084   4.817   1.184   3.358  0.9420 -0.9259 -2.8652
   29CHL1   H7B 2085   4.688   1.303   3.344 -0.2466 -0.3224  0.7759
   29CHL1    C8 2086   4.613   1.096   3.345 -0.1454  0.2191 -0.1984
   29CHL1    H8 2087   4.667   0.999   3.347  1.3469  1.0066  2.4078
   29CHL1   C14 2088   4.556   1.126   3.482 -0.0971 -0.4110 -0.3735
   29CHL1   H14 2089   4.499   1.220   3.465 -0.6937 -0.9891 -1.7690
   29CHL1   C15 2090   4.654   1.155   3.585  0.0106 -0.2080  0.6385
   29CHL1  H15A 2091   4.737   1.081   3.579 -0.5235 -0.7624 -0.2790
   29CHL1  H15B 2092   4.701   1.255   3.588  0.8467 -0.5885  0.6616
   29CHL1   C16 2093   4.576   1.138   3.718 -0.6953 -0.4429 -0.9050
   29CHL1  H16A 2094   4.629   1.072   3.789 -1.3371  0.4241  0.4266
   29CHL1  H16B 2095   4.556   1.237   3.764 -2.3877 -1.0653 -0.2380
   29CHL1   C17 2096   4.444   1.071   3.680  0.1523 -0.0800  0.3857
   29CHL1   H17 2097   4.369   1.152   3.678  0.9026  0.7634  2.9479
   29CHL1   C13 2098   4.463   1.020   3.541 -1.0862  0.3794  0.5875
   29CHL1   C18 2099   4.537   0.887   3.546 -0.5951 -0.5363  0.0098
   29CHL1  H18A 2100   4.620   0.901   3.618 -0.4406 -1.5233  0.0374
   29CHL1  H18B 2101   4.482   0.805   3.598 -0.3858  0.4100  1.8071
   29CHL1  H18C 2102   4.563   0.836   3.451 -0.6289  0.8950 -0.7967
   29CHL1   C12 2103   4.343   1.017   3.449  0.6809 -1.1392 -0.1547
   29CHL1  H12A 2104   4.283   0.927   3.476 -1.4267  0.3739  0.4414
   29CHL1  H12B 2105   4.287   1.113   3.460  0.5901 -1.0443 -1.2846
   29CHL1   C11 2106   4.384   1.008   3.303  0.1449 -0.6295 -0.1029
   29CHL1  H11A 2107   4.418   0.904   3.289  0.3753 -0.5349 -0.2526
   29CHL1  H11B 2108   4.293   1.024   3.241 -0.2491  0.6237  0.7659
   29CHL1    C9 2109   4.493   1.109   3.251  0.4728  0.0808 -0.9663
   29CHL1    H9 2110   4.442   1.206   3.263  0.7050 -0.0364  1.2952
   29CHL1   C10 2111   4.530   1.094   3.105 -0.1246 -1.0043  0.3891
   29CHL1   C19 2112   4.538   0.944   3.065  1.1195 -0.4535  0.0663
   29CHL1  H19A 2113   4.565   0.934   2.958  0.7605 -2.6590  0.1293
   29CHL1  H19B 2114   4.615   0.894   3.127  1.0866 -1.1877 -0.4668
   29CHL1  H19C 2115   4.442   0.891   3.078  1.0014 -0.2290  0.1153
   29CHL1    C1 2116   4.421   1.163   3.028  0.2796 -0.1166  0.5913
   29CHL1   H1A 2117   4.323   1.111   3.026 -0.1337  0.4927  2.6791
   29CHL1   H1B 2118   4.399   1.263   3.071 -1.1566  0.1260 -0.6173
   29CHL1    C2 2119   4.449   1.187   2.873 -0.6177  0.4206 -0.5618
   29CHL1   H2A 2120   4.366   1.255   2.842 -0.4181  0.9822  0.1128
   29CHL1   H2B 2121   4.436   1.091   2.819  0.1524  0.3466 -0.6180
   29CHL1   C20 2122   4.390   0.970   3.787 -0.2682  0.4730 -0.3917
   29CHL1   H20 2123   4.459   0.883   3.795  0.9691  0.9623 -4.0873
   29CHL1   C21 2124   4.250   0.906   3.756 -0.0678 -0.4730  0.9218
   29CHL1  H21A 2125   4.234   0.846   3.663 -1.9571  1.3553 -0.0261
   29CHL1  H21B 2126   4.179   0.991   3.747 -0.5107 -0.6134  2.7160
   29CHL1  H21C 2127   4.220   0.842   3.842  2.5364 -2.3273  0.5517
   29CHL1   C22 2128   4.365   1.048   3.922  0.0136  0.1447 -0.0555
   29CHL1  H22A 2129   4.451   1.111   3.953 -0.9348  1.2648  0.3313
   29CHL1  H22B 2130   4.293   1.129   3.900  2.5901  2.1570 -1.8203
   29CHL1   C23 2131   4.342   0.966   4.049  0.0570 -0.1847 -0.1122
   29CHL1  H23A 2132   4.240   0.924   4.037  0.6338 -0.9865 -3.1941
   29CHL1  H23B 2133   4.409   0.878   4.056  1.2827  0.6490 -1.0273
   29CHL1   C24 2134   4.350   1.045   4.182 -0.7869  0.7119 -0.0767
   29CHL1  H24A 2135   4.458   1.059   4.203  0.2682 -2.6835 -2.3586
   29CHL1  H24B 2136   4.305   1.146   4.178  1.5428  1.9058  1.2999
   29CHL1   C25 2137   4.287   0.978   4.304  0.0758  0.3104  0.2241
   29CHL1   H25 2138   4.315   0.871   4.303 -1.7545 -0.2009  1.0209
   29CHL1   C26 2139   4.338   1.050   4.427 -0.3752  0.1184 -0.3481
   29CHL1  H26A 2140   4.280   1.007   4.512  0.0429 -0.5717 -0.4145
   29CHL1  H26B 2141   4.448   1.037   4.433 -0.6898 -2.6804  0.8523
   29CHL1  H26C 2142   4.315   1.159   4.417 -1.8283 -0.1972 -0.6203
   29CHL1   C27 2143   4.134   0.991   4.300 -0.6118 -0.5533  0.4404
   29CHL1  H27A 2144   4.083   0.960   4.394 -0.1629  2.4455  1.7781
   29CHL1  H27B 2145   4.111   1.098   4.280  0.7991  0.0221  1.6980
   29CHL1  H27C 2146   4.087   0.932   4.218 -2.0482 -1.2856  1.7364
   30CHL1    C3 2147   1.413   1.901   3.000 -0.0631 -0.3121 -0.3077
   30CHL1    H3 2148   1.313   1.946   3.015 -0.1766 -0.7722  0.3509
   30CHL1    O3 2149   1.456   1.919   2.867  0.5215  0.0838  0.0463
   30CHL1   H3' 2150   1.389   1.868   2.820 -2.3156  1.8917  1.8224
   30CHL1    C4 2151   1.524   1.960   3.088 -0.2806 -0.2019 -0.2254
   30CHL1   H4A 2152   1.619   1.910   3.060  1.1424  2.3455 -0.3183
   30CHL1   H4B 2153   1.550   2.066   3.065  0.9133 -0.3278  0.4772
   30CHL1    C5 2154   1.496   1.961   3.235 -0.3335  0.2432 -0.8749
   30CHL1    C6 2155   1.477   2.079   3.299 -0.5387  0.3615 -0.2048
   30CHL1    H6 2156   1.501   2.167   3.239  0.5521 -0.7371 -1.4415
   30CHL1    C7 2157   1.449   2.085   3.447  0.0124 -0.0081  0.1208
   30CHL1   H7A 2158   1.517   2.163   3.487 -0.2718  0.3068 -0.0031
   30CHL1   H7B 2159   1.344   2.120   3.452 -0.0569 -0.0330 -0.9877
   30CHL1    C8 2160   1.472   1.946   3.519 -0.8664  0.3355  0.3004
   30CHL1    H8 2161   1.581   1.930   3.525 -0.7735 -0.9274 -2.7104
   30CHL1   C14 2162   1.397   1.941   3.650 -0.3517  0.5636  0.4869
   30CHL1   H14 2163   1.289   1.939   3.627 -0.5423  1.4487  1.2636
   30CHL1   C15 2164   1.412   2.059   3.743  0.5128 -1.1605 -0.0318
   30CHL1  H15A 2165   1.516   2.098   3.743  0.6767 -1.5548  0.9268
   30CHL1  H15B 2166   1.334   2.132   3.714  1.3757 -0.0195  0.4301
   30CHL1   C16 2167   1.370   2.010   3.879  0.3381  0.1779 -0.2939
   30CHL1  H16A 2168   1.463   2.030   3.936  0.0181 -2.1469  1.1786
   30CHL1  H16B 2169   1.295   2.072   3.932 -1.5530 -0.9434 -1.5566
   30CHL1   C17 2170   1.339   1.855   3.866 -0.0500 -0.3340  0.7245
   30CHL1   H17 2171   1.234   1.845   3.832 -0.2025  0.0182  1.0795
   30CHL1   C13 2172   1.416   1.820   3.734 -0.3785  0.3130 -0.6362
   30CHL1   C18 2173   1.571   1.803   3.769 -0.1402 -0.2852 -0.3315
   30CHL1  H18A 2174   1.622   1.889   3.817 -0.7407 -0.3817  0.4949
   30CHL1  H18B 2175   1.599   1.717   3.833  1.8645  1.2032  0.8943
   30CHL1  H18C 2176   1.627   1.781   3.676 -1.7917  0.8657 -1.6797
   30CHL1   C12 2177   1.359   1.701   3.653  0.0328 -0.2584 -0.5220
   30CHL1  H12A 2178   1.389   1.608   3.706  0.8346 -0.6749 -1.6665
   30CHL1  H12B 2179   1.248   1.700   3.656 -0.0735 -2.4392 -2.3810
   30CHL1   C11 2180   1.407   1.695   3.510 -0.1671  0.0784  0.0451
   30CHL1  H11A 2181   1.511   1.656   3.520 -0.8640 -1.3607  2.4421
   30CHL1  H11B 2182   1.355   1.613   3.458 -0.7307 -0.6773  1.7373
   30CHL1    C9 2183   1.414   1.828   3.438  0.2678  0.4113 -0.7695
   30CHL1    H9 2184   1.307   1.853   3.425  0.0926  0.2590  0.2800
   30CHL1   C10 2185   1.468   1.820   3.296  0.3091 -0.0897  0.6495
   30CHL1   C19 2186   1.602   1.745   3.294 -0.3755  0.1000  0.4507
   30CHL1  H19A 2187   1.654   1.724   3.198 -1.3399  1.0374 -0.2903
   30CHL1  H19B 2188   1.677   1.805   3.350  0.0114 -0.7233  0.8346
   30CHL1  H19C 2189   1.597   1.642   3.336 -0.6999  0.6116  1.7080
   30CHL1    C1 2190   1.374   1.741   3.197  0.6217 -0.0487 -0.6512
   30CHL1   H1A 2191   1.368   1.637   3.235  0.0105 -0.0776 -0.8110
   30CHL1   H1B 2192   1.273   1.787   3.203  0.0097 -1.4171 -0.0396
   30CHL1    C2 2193   1.407   1.749   3.046 -0.4230  0.4691  0.9741
   30CHL1   H2A 2194   1.324   1.698   2.992 -0.6020  0.0098  1.6743
   30CHL1   H2B 2195   1.503   1.705   3.013 -1.2547 -0.0385 -0.9370
   30CHL1   C20 2196   1.358   1.775   3.992  0.1376 -0.3692 -0.2382
   30CHL1   H20 2197   1.463   1.783   4.027 -0.2321 -1.5587  1.2594
   30CHL1   C21 2198   1.335   1.630   3.964  0.1518 -0.4946  0.4152
   30CHL1  H21A 2199   1.249   1.609   3.896 -0.3701  0.8592  0.6244
   30CHL1  H21B 2200   1.323   1.582   4.063 -0.2747  0.8301  1.0229
   30CHL1  H21C 2201   1.427   1.588   3.918 -0.5318 -1.7230  0.1135
   30CHL1   C22 2202   1.275   1.815   4.120  0.2039  0.4858 -0.8286
   30CHL1  H22A 2203   1.174   1.847   4.086 -0.5597 -1.4217 -0.5144
   30CHL1  H22B 2204   1.264   1.726   4.186  3.3269  0.0831 -0.6968
   30CHL1   C23 2205   1.333   1.929   4.197 -0.2716  0.2631  0.0632
   30CHL1  H23A 2206   1.440   1.913   4.222  0.0838 -0.5384 -1.8170
   30CHL1  H23B 2207   1.325   2.026   4.143 -0.6205 -0.3283 -0.9759
   30CHL1   C24 2208   1.253   1.957   4.329 -0.2510  1.0865 -0.9801
   30CHL1  H24A 2209   1.152   1.996   4.305 -1.4331 -1.0763  0.1471
   30CHL1  H24B 2210   1.242   1.860   4.382  0.0008  2.2756  1.3590
   30CHL1   C25 2211   1.327   2.053   4.424  0.3452  0.0976 -0.0663
   30CHL1   H25 2212   1.408   1.995   4.473  0.4258  0.1732 -0.1098
   30CHL1   C26 2213   1.381   2.178   4.355  0.2748  0.3926 -0.2662
   30CHL1  H26A 2214   1.478   2.151   4.307 -0.2955  1.5840 -2.2013
   30CHL1  H26B 2215   1.301   2.225   4.294  0.2232  0.2416 -0.3155
   30CHL1  H26C 2216   1.414   2.254   4.429  0.9390  2.0452 -2.1667
   30CHL1   C27 2217   1.227   2.096   4.535  0.2446  0.3312 -0.1280
   30CHL1  H27A 2218   1.142   2.143   4.480 -0.2029 -0.6305 -0.2868
   30CHL1  H27B 2219   1.176   2.014   4.591  0.0888  0.6760  0.2424
   30CHL1  H27C 2220   1.259   2.173   4.608 -0.5884 -1.2743  2.0358
   31CHL1    C3 2221   1.687   4.996   2.467 -0.3725 -0.4679  0.6973
   31CHL1    H3 2222   1.617   4.913   2.491 -1.0178  0.7313  3.4144
   31CHL1    O3 2223   1.704   5.007   2.324 -0.0246  0.5675  0.1694
   31CHL1   H3' 2224   1.616   5.024   2.289  0.1997 -0.9829 -1.2674
   31CHL1    C4 2225   1.640   5.130   2.537  0.2887  0.5216  0.0230
   31CHL1   H4A 2226   1.709   5.214   2.514  1.1590  1.0384  3.8328
   31CHL1   H4B 2227   1.545   5.160   2.489  0.3441 -2.5689 -2.3563
   31CHL1    C5 2228   1.623   5.125   2.682 -0.2333 -0.3018 -1.4067
   31CHL1    C6 2229   1.504   5.158   2.736  0.0945  0.6032  0.3143
   31CHL1    H6 2230   1.420   5.182   2.670  0.8128 -1.3859 -1.4543
   31CHL1    C7 2231   1.490   5.160   2.882 -0.4489  0.4853  0.7227
   31CHL1   H7A 2232   1.426   5.245   2.914 -1.0129  1.1289 -1.9086
   31CHL1   H7B 2233   1.435   5.067   2.909 -1.2276  0.1767 -1.6991
   31CHL1    C8 2234   1.618   5.157   2.970  0.5064  0.1394  0.8468
   31CHL1    H8 2235   1.663   5.259   2.962 -1.8205  1.0970 -2.0113
   31CHL1   C14 2236   1.585   5.137   3.116  1.1789 -0.5889 -0.1159
   31CHL1   H14 2237   1.531   5.040   3.126 -3.0003  1.6870  1.8577
   31CHL1   C15 2238   1.488   5.243   3.181 -0.4622 -0.3457 -0.0899
   31CHL1  H15A 2239   1.499   5.345   3.140 -0.6685 -0.9039 -1.6212
   31CHL1  H15B 2240   1.382   5.217   3.156 -1.4755  1.1726  2.3280
   31CHL1   C16 2241   1.521   5.241   3.332 -0.0017 -0.0108  0.1556
   31CHL1  H16A 2242   1.559   5.336   3.373  2.2456 -1.6202  2.0444
   31CHL1  H16B 2243   1.433   5.221   3.397  0.3068  1.9346  1.2495
   31CHL1   C17 2244   1.635   5.134   3.344  0.0200 -0.7797 -0.3864
   31CHL1   H17 2245   1.589   5.034   3.357  2.0574 -1.6836  0.3031
   31CHL1   C13 2246   1.708   5.127   3.205  0.0253 -0.5382 -0.2885
   31CHL1   C18 2247   1.790   5.257   3.202 -0.0790 -1.1050 -0.2953
   31CHL1  H18A 2248   1.736   5.333   3.261  0.8394  0.9864 -1.9985
   31CHL1  H18B 2249   1.885   5.230   3.253 -0.1342 -0.5779  0.0875
   31CHL1  H18C 2250   1.796   5.308   3.103 -3.1130 -3.3879 -1.8299
   31CHL1   C12 2251   1.784   5.001   3.155  0.1929  0.2869  0.4376
   31CHL1  H12A 2252   1.872   4.979   3.219 -1.1959 -0.0519  2.3405
   31CHL1  H12B 2253   1.711   4.918   3.151  0.5248 -0.0713  1.4954
   31CHL1   C11 2254   1.833   5.023   3.005  0.3578 -0.4123  0.4856
   31CHL1  H11A 2255   1.912   5.102   3.005  0.2150 -0.2682  0.6700
   31CHL1  H11B 2256   1.882   4.930   2.969  1.4974  0.5338 -0.5071
   31CHL1    C9 2257   1.714   5.052   2.911 -0.2596  0.1867 -0.4422
   31CHL1    H9 2258   1.653   4.959   2.924 -0.5327  0.5170  0.7720
   31CHL1   C10 2259   1.749   5.077   2.763  0.3125 -0.2798  0.8247
   31CHL1   C19 2260   1.867   5.182   2.752 -0.0354 -0.4073  0.3169
   31CHL1  H19A 2261   1.893   5.213   2.648  0.5030 -0.4538  0.4328
   31CHL1  H19B 2262   1.855   5.273   2.814 -0.9529  0.3139 -0.8544
   31CHL1  H19C 2263   1.962   5.142   2.792  0.0773 -0.9495 -0.4795
   31CHL1    C1 2264   1.804   4.952   2.692 -0.5221 -0.8650 -0.0832
   31CHL1   H1A 2265   1.904   4.917   2.724  0.4315  0.0749 -1.9174
   31CHL1   H1B 2266   1.740   4.864   2.714 -0.0260 -0.9312  1.1988
   31CHL1    C2 2267   1.821   4.957   2.536  0.4736  0.2311 -0.1314
   31CHL1   H2A 2268   1.859   4.861   2.497 -2.3477 -0.9549 -0.1606
   31CHL1   H2B 2269   1.889   5.040   2.507  0.2639  0.4886  0.1077
   31CHL1   C20 2270   1.730   5.149   3.466 -0.8775  0.5984  0.1043
   31CHL1   H20 2271   1.784   5.245   3.455 -0.6653  0.7315  1.9460
   31CHL1   C21 2272   1.840   5.037   3.475  0.3030 -1.0556 -0.3343
   31CHL1  H21A 2273   1.886   5.037   3.575  0.8072  1.1883 -0.5140
   31CHL1  H21B 2274   1.919   5.064   3.401 -0.6711  0.6862 -0.8085
   31CHL1  H21C 2275   1.802   4.935   3.454 -0.4278 -1.1108  1.1353
   31CHL1   C22 2276   1.641   5.169   3.591 -0.0545  0.2957 -0.3986
   31CHL1  H22A 2277   1.575   5.257   3.581  0.0217  0.3033 -0.8731
   31CHL1  H22B 2278   1.574   5.081   3.599  1.4305 -0.8055  0.6132
   31CHL1   C23 2279   1.709   5.191   3.728 -0.0115 -0.1722 -0.0792
   31CHL1  H23A 2280   1.760   5.098   3.762 -1.0694 -0.5619  0.5169
   31CHL1  H23B 2281   1.784   5.269   3.705  0.0231 -0.4453 -0.9324
   31CHL1   C24 2282   1.605   5.230   3.837  0.3665 -0.3275  0.6084
   31CHL1  H24A 2283   1.574   5.332   3.806 -2.2150 -1.3627 -0.4973
   31CHL1  H24B 2284   1.519   5.161   3.824  0.0274  0.1101  0.5349
   31CHL1   C25 2285   1.655   5.245   3.985  0.0487  0.0162  0.1535
   31CHL1   H25 2286   1.567   5.281   4.044  0.1921  0.1612  0.2779
   31CHL1   C26 2287   1.715   5.126   4.058  0.1057  0.7685  0.2962
   31CHL1  H26A 2288   1.806   5.077   4.019 -0.4091 -0.2089  0.2810
   31CHL1  H26B 2289   1.739   5.153   4.164 -0.4951 -0.4860  0.7761
   31CHL1  H26C 2290   1.652   5.036   4.074  0.7062  0.5544  1.6089
   31CHL1   C27 2291   1.765   5.354   3.992 -0.8666 -0.6088 -0.0104
   31CHL1  H27A 2292   1.727   5.443   3.938 -1.9812 -0.6684  0.6572
   31CHL1  H27B 2293   1.792   5.378   4.097 -2.1638 -0.9454  0.4206
   31CHL1  H27C 2294   1.856   5.320   3.938 -0.6694  0.0853 -0.1278
   32CHL1    C3 2295   4.233   2.385   3.127 -0.2665 -0.5382 -0.0495
   32CHL1    H3 2296   4.124   2.362   3.122  0.2250 -2.8008 -1.6943
   32CHL1    O3 2297   4.290   2.377   2.993 -0.0425 -0.5388 -0.2679
   32CHL1   H3' 2298   4.301   2.469   2.966 -1.9442  0.1972  1.1743
   32CHL1    C4 2299   4.263   2.522   3.199  0.4715 -0.6420 -0.2219
   32CHL1   H4A 2300   4.373   2.535   3.201  0.3706  0.2585  2.0908
   32CHL1   H4B 2301   4.225   2.606   3.137 -1.2860 -1.6581 -0.5964
   32CHL1    C5 2302   4.200   2.526   3.338  0.3933  0.0825 -0.0461
   32CHL1    C6 2303   4.106   2.617   3.365  0.5037  0.2281 -0.0971
   32CHL1    H6 2304   4.082   2.690   3.287  0.5355 -0.5057 -0.8158
   32CHL1    C7 2305   4.035   2.636   3.497 -0.0147 -0.1293 -0.6753
   32CHL1   H7A 2306   4.016   2.742   3.528  0.1869 -0.7143  1.6486
   32CHL1   H7B 2307   3.932   2.596   3.494  0.6546 -1.8956 -1.0925
   32CHL1    C8 2308   4.109   2.558   3.614  0.9003  0.4984 -0.3415
   32CHL1    H8 2309   4.199   2.614   3.647  1.5270 -0.9849  0.5334
   32CHL1   C14 2310   4.020   2.529   3.733 -0.2161  0.0876 -0.2724
   32CHL1   H14 2311   3.926   2.481   3.701 -2.6860  3.2880  1.5160
   32CHL1   C15 2312   3.956   2.658   3.793  0.0476  0.4945  0.2000
   32CHL1  H15A 2313   4.027   2.743   3.787 -1.2838  1.6105 -0.4393
   32CHL1  H15B 2314   3.870   2.677   3.724 -0.7595 -0.8077  0.8127
   32CHL1   C16 2315   3.915   2.616   3.932  0.1432  0.5934 -0.0311
   32CHL1  H16A 2316   3.956   2.691   4.003  0.7171  0.3457 -0.0918
   32CHL1  H16B 2317   3.807   2.621   3.958  0.1447  1.6029 -0.1940
   32CHL1   C17 2318   3.961   2.471   3.954 -0.0316  0.1493  0.0232
   32CHL1   H17 2319   3.875   2.407   3.924 -0.2133 -0.6060  2.0017
   32CHL1   C13 2320   4.075   2.451   3.855 -0.2113 -0.2105 -0.2683
   32CHL1   C18 2321   4.205   2.513   3.918  0.1146 -0.6573  0.1310
   32CHL1  H18A 2322   4.282   2.534   3.840 -1.0412 -0.2612 -0.9357
   32CHL1  H18B 2323   4.185   2.609   3.970 -0.3848 -0.4130 -0.4905
   32CHL1  H18C 2324   4.247   2.440   3.990 -0.5765  0.5579  1.8261
   32CHL1   C12 2325   4.089   2.307   3.793 -0.2491 -0.0639  0.1139
   32CHL1  H12A 2326   4.127   2.244   3.877  2.1587  0.4471 -0.5401
   32CHL1  H12B 2327   3.990   2.265   3.764 -0.8672  1.9969 -0.9455
   32CHL1   C11 2328   4.178   2.310   3.665  0.0970  0.2957 -0.6437
   32CHL1  H11A 2329   4.285   2.329   3.691  0.2900  0.1827 -1.3474
   32CHL1  H11B 2330   4.189   2.207   3.624  2.1778 -0.0885  0.6804
   32CHL1    C9 2331   4.139   2.413   3.557 -0.2618  0.5883  0.9930
   32CHL1    H9 2332   4.047   2.377   3.507  0.3497 -1.7294  1.4051
   32CHL1   C10 2333   4.233   2.415   3.433  0.1255 -0.7821 -0.3623
   32CHL1   C19 2334   4.379   2.437   3.475 -0.6326 -0.3236  0.0362
   32CHL1  H19A 2335   4.376   2.528   3.538 -1.3860  0.4756 -1.1201
   32CHL1  H19B 2336   4.410   2.351   3.538 -3.5884 -0.0837  1.9742
   32CHL1  H19C 2337   4.446   2.455   3.387  1.3460 -2.2238  1.0598
   32CHL1    C1 2338   4.233   2.280   3.355 -0.0879  0.1130 -0.3781
   32CHL1   H1A 2339   4.285   2.202   3.415 -1.0482 -0.3280 -0.1089
   32CHL1   H1B 2340   4.127   2.249   3.354 -0.6330  1.7458  1.0874
   32CHL1    C2 2341   4.300   2.276   3.217 -0.8348  0.1121  0.4368
   32CHL1   H2A 2342   4.287   2.177   3.167  1.8833  1.3602 -3.1619
   32CHL1   H2B 2343   4.409   2.299   3.220 -0.6262 -0.4660 -1.3004
   32CHL1   C20 2344   3.986   2.433   4.106 -0.3251 -0.0513 -0.4889
   32CHL1   H20 2345   4.072   2.494   4.141 -0.7614  0.7388 -0.7541
   32CHL1   C21 2346   4.000   2.285   4.120  0.4029 -0.0295  0.0727
   32CHL1  H21A 2347   3.918   2.231   4.068 -0.1335  0.0761  0.7837
   32CHL1  H21B 2348   3.996   2.253   4.226  0.3621 -0.7484 -0.1390
   32CHL1  H21C 2349   4.099   2.252   4.083  0.0043 -3.7962  1.9498
   32CHL1   C22 2350   3.874   2.494   4.195  0.5741 -0.5815  0.5107
   32CHL1  H22A 2351   3.887   2.603   4.185  1.6439 -0.4812  2.5379
   32CHL1  H22B 2352   3.777   2.458   4.153  1.1237 -1.5668  0.0440
   32CHL1   C23 2353   3.887   2.473   4.349 -0.8145  0.4577  0.7788
   32CHL1  H23A 2354   3.908   2.365   4.369 -0.9396  0.3562  0.3804
   32CHL1  H23B 2355   3.977   2.521   4.392 -1.2328  1.6943  0.3168
   32CHL1   C24 2356   3.776   2.520   4.440  0.2436 -0.0743  0.3780
   32CHL1  H24A 2357   3.766   2.627   4.413 -0.8548 -0.0618  0.7865
   32CHL1  H24B 2358   3.682   2.467   4.414  0.5470 -1.4122  1.8943
   32CHL1   C25 2359   3.797   2.500   4.590  0.3198  0.1451 -1.0048
   32CHL1   H25 2360   3.884   2.564   4.617  1.8776 -2.3143  0.1788
   32CHL1   C26 2361   3.672   2.543   4.676 -0.3320 -0.1720  0.0965
   32CHL1  H26A 2362   3.588   2.474   4.653 -0.8752  0.8785 -1.2088
   32CHL1  H26B 2363   3.689   2.541   4.786  0.2481  0.2014  0.0155
   32CHL1  H26C 2364   3.638   2.646   4.652 -0.0209  0.3749  1.8368
   32CHL1   C27 2365   3.845   2.358   4.628  0.5609  0.1477  0.6386
   32CHL1  H27A 2366   3.774   2.280   4.593  1.1094  0.5326 -1.4833
   32CHL1  H27B 2367   3.935   2.332   4.570 -0.8078  0.3841 -1.7126
   32CHL1  H27C 2368   3.872   2.349   4.735 -0.7051  1.5088  1.1129
   33CHL1    C3 2369   3.419   3.606   2.814  0.2371  0.3922  0.0610
   33CHL1    H3 2370   3.310   3.624   2.825  0.3853  2.5959 -1.3942
   33CHL1    O3 2371   3.435   3.603   2.672  0.3892  0.0305  0.2986
   33CHL1   H3' 2372   3.523   3.572   2.651 -0.8966 -3.1626 -1.0733
   33CHL1    C4 2373   3.500   3.729   2.874  0.2786 -0.4781  0.0883
   33CHL1   H4A 2374   3.606   3.741   2.844  0.0762 -0.0483 -0.4816
   33CHL1   H4B 2375   3.453   3.817   2.824 -0.9530 -2.1642 -1.9215
   33CHL1    C5 2376   3.477   3.734   3.023 -0.0685 -0.0963  0.2783
   33CHL1    C6 2377   3.424   3.847   3.084 -0.0835  0.8166 -0.1228
   33CHL1    H6 2378   3.407   3.935   3.020 -0.6554  0.5226 -0.3864
   33CHL1    C7 2379   3.396   3.869   3.222  0.4288 -0.5113 -0.3896
   33CHL1   H7A 2380   3.417   3.974   3.249 -1.0206  0.0740 -1.4108
   33CHL1   H7B 2381   3.286   3.866   3.243  0.7299 -0.9609  1.3211
   33CHL1    C8 2382   3.466   3.762   3.303  0.1282  0.0086 -0.1220
   33CHL1    H8 2383   3.574   3.789   3.304 -0.5498  3.2975 -1.8358
   33CHL1   C14 2384   3.403   3.758   3.443  0.5962  0.3482  0.1973
   33CHL1   H14 2385   3.300   3.718   3.428  1.3128 -0.9732 -1.6301
   33CHL1   C15 2386   3.388   3.885   3.517 -0.6125  0.0925  0.0964
   33CHL1  H15A 2387   3.482   3.942   3.530 -0.0281 -0.5512 -1.2117
   33CHL1  H15B 2388   3.316   3.959   3.474 -0.9449 -0.1619  0.2110
   33CHL1   C16 2389   3.340   3.846   3.656  0.0865 -0.2452 -0.2723
   33CHL1  H16A 2390   3.392   3.904   3.735  2.4217  0.8258 -2.4432
   33CHL1  H16B 2391   3.230   3.856   3.661 -0.1492  0.5094 -4.0840
   33CHL1   C17 2392   3.376   3.690   3.664 -0.7447 -0.4725  0.0601
   33CHL1   H17 2393   3.280   3.638   3.642 -0.2482 -1.8558  0.9833
   33CHL1   C13 2394   3.463   3.663   3.544 -0.3909 -0.1873 -0.0262
   33CHL1   C18 2395   3.615   3.708   3.575  0.7624 -0.2392 -0.8861
   33CHL1  H18A 2396   3.661   3.630   3.641  0.6039  0.1051 -0.3668
   33CHL1  H18B 2397   3.675   3.709   3.481  0.7040  0.2763 -0.9201
   33CHL1  H18C 2398   3.620   3.804   3.630  2.9760 -0.1657 -1.0992
   33CHL1   C12 2399   3.448   3.518   3.483 -0.2928  0.2902  0.1814
   33CHL1  H12A 2400   3.497   3.446   3.551 -1.0176 -0.2737  0.1164
   33CHL1  H12B 2401   3.341   3.489   3.484 -0.6003  0.9130  4.0214
   33CHL1   C11 2402   3.508   3.509   3.346  0.5950  0.4321  0.7618
   33CHL1  H11A 2403   3.618   3.517   3.353  0.6650 -1.0314  2.0461
   33CHL1  H11B 2404   3.483   3.408   3.306  2.9439 -0.2171  0.7623
   33CHL1    C9 2405   3.454   3.623   3.248  0.6237 -0.0699  0.6171
   33CHL1    H9 2406   3.345   3.605   3.244  0.5285  0.5874 -1.6759
   33CHL1   C10 2407   3.511   3.607   3.102  0.0982 -0.1785 -0.1713
   33CHL1   C19 2408   3.669   3.601   3.115 -0.3621  0.9003 -0.0204
   33CHL1  H19A 2409   3.709   3.503   3.151 -1.4407  0.2261 -0.6143
   33CHL1  H19B 2410   3.717   3.622   3.017  0.4923 -0.8865 -0.0273
   33CHL1  H19C 2411   3.713   3.677   3.183  0.9733  1.1419 -1.1034
   33CHL1    C1 2412   3.463   3.475   3.030 -0.4295 -0.0058 -0.1660
   33CHL1   H1A 2413   3.519   3.389   3.072  0.0820  0.5783  0.3534
   33CHL1   H1B 2414   3.356   3.467   3.062 -0.2889 -0.4867  0.1920
   33CHL1    C2 2415   3.472   3.477   2.874  0.3219  0.1051 -0.7874
   33CHL1   H2A 2416   3.426   3.382   2.839  0.0257 -0.4900  1.0837
   33CHL1   H2B 2417   3.580   3.465   2.851  1.5841  2.7183  2.8427
   33CHL1   C20 2418   3.413   3.634   3.800  0.1348 -0.3596  0.0654
   33CHL1   H20 2419   3.477   3.544   3.784 -1.7311 -1.7125 -0.0968
   33CHL1   C21 2420   3.286   3.604   3.886  0.5937 -0.1597  0.0079
   33CHL1  H21A 2421   3.224   3.530   3.832 -0.9038  1.0024  0.0779
   33CHL1  H21B 2422   3.231   3.698   3.906  1.9798  0.8111 -0.5594
   33CHL1  H21C 2423   3.313   3.564   3.986  1.0415  0.4777  0.1511
   33CHL1   C22 2424   3.506   3.722   3.894 -0.0261 -0.9360 -0.1257
   33CHL1  H22A 2425   3.567   3.780   3.822 -2.0230  0.6299 -0.6609
   33CHL1  H22B 2426   3.448   3.803   3.943 -1.2735 -0.3203 -2.4466
   33CHL1   C23 2427   3.595   3.652   3.999  0.5173  0.3186  0.2247
   33CHL1  H23A 2428   3.532   3.580   4.055  0.2681 -1.1104 -1.7962
   33CHL1  H23B 2429   3.675   3.595   3.947  1.1715  0.6701  0.8331
   33CHL1   C24 2430   3.675   3.740   4.095  0.3339  0.0161  0.1020
   33CHL1  H24A 2431   3.730   3.818   4.039  1.1962 -1.0097 -0.5095
   33CHL1  H24B 2432   3.606   3.789   4.167  0.7701  0.6844  0.0714
   33CHL1   C25 2433   3.779   3.661   4.177  0.0182 -0.4781 -0.7337
   33CHL1   H25 2434   3.835   3.598   4.105 -0.0948 -1.0509 -0.3302
   33CHL1   C26 2435   3.879   3.757   4.232 -0.6949 -0.2890 -0.4712
   33CHL1  H26A 2436   3.856   3.828   4.314  0.5963 -0.5347  0.1274
   33CHL1  H26B 2437   3.969   3.703   4.268 -0.8115 -1.1736 -1.4547
   33CHL1  H26C 2438   3.915   3.818   4.147  1.7921 -0.1704  0.5690
   33CHL1   C27 2439   3.725   3.574   4.287 -0.8144  0.6013 -0.2027
   33CHL1  H27A 2440   3.812   3.525   4.335 -2.1231 -0.8676  0.7868
   33CHL1  H27B 2441   3.655   3.621   4.360 -1.6603  1.2817 -1.4154
   33CHL1  H27C 2442   3.678   3.488   4.236  0.5724 -1.4716  1.8381
   34CHL1    C3 2443   0.852   3.559   3.014  0.0076 -0.0242  0.2182
   34CHL1    H3 2444   0.849   3.669   2.997  3.0213  0.6379  2.9510
   34CHL1    O3 2445   0.892   3.488   2.899 -0.0219 -0.4925 -0.1715
   34CHL1   H3' 2446   0.971   3.443   2.930  1.5476  1.2317 -1.5140
   34CHL1    C4 2447   0.962   3.542   3.127 -0.1639  0.2042  0.1181
   34CHL1   H4A 2448   0.978   3.434   3.146 -4.5604 -0.3635  1.5860
   34CHL1   H4B 2449   1.053   3.592   3.087  0.6592 -1.3087  0.0187
   34CHL1    C5 2450   0.937   3.602   3.265 -0.1447  0.5996  0.4950
   34CHL1    C6 2451   1.018   3.694   3.320  0.4361 -0.1382  0.4939
   34CHL1    H6 2452   1.114   3.728   3.278 -0.7021  1.0899 -1.2618
   34CHL1    C7 2453   0.976   3.748   3.455  0.5769  0.2497  0.1873
   34CHL1   H7A 2454   1.056   3.760   3.531 -1.5221 -1.6449  2.8570
   34CHL1   H7B 2455   0.928   3.847   3.441 -1.4638 -0.6430  0.5601
   34CHL1    C8 2456   0.872   3.665   3.531  0.5577  0.2209 -0.3427
   34CHL1    H8 2457   0.927   3.573   3.557  1.0386  0.2372 -1.2727
   34CHL1   C14 2458   0.827   3.736   3.653 -0.1198 -0.7349  0.3502
   34CHL1   H14 2459   0.784   3.832   3.617  2.4829  0.8362  1.1645
   34CHL1   C15 2460   0.936   3.771   3.760 -0.8044  0.1387 -0.4757
   34CHL1  H15A 2461   1.016   3.694   3.767 -0.7326  0.3498  2.9897
   34CHL1  H15B 2462   0.975   3.871   3.731  0.5437  0.0426  0.8801
   34CHL1   C16 2463   0.857   3.791   3.890  0.9740  0.1817 -0.0535
   34CHL1  H16A 2464   0.893   3.720   3.967 -1.9907  0.1524  1.4589
   34CHL1  H16B 2465   0.845   3.896   3.925  1.1521  0.1235  0.1803
   34CHL1   C17 2466   0.700   3.749   3.862 -0.5069  0.5283  0.0855
   34CHL1   H17 2467   0.639   3.839   3.838  1.0746  2.0174  1.3766
   34CHL1   C13 2468   0.715   3.669   3.730 -0.3023 -0.5404 -0.0150
   34CHL1   C18 2469   0.765   3.527   3.770  0.4690 -0.5831  0.4717
   34CHL1  H18A 2470   0.793   3.463   3.684 -0.8521 -1.4321  0.6464
   34CHL1  H18B 2471   0.840   3.522   3.853 -1.1101 -0.7215  1.9423
   34CHL1  H18C 2472   0.680   3.465   3.805 -0.2266  0.6673  1.0374
   34CHL1   C12 2473   0.596   3.665   3.630 -0.6661  0.3047 -0.5949
   34CHL1  H12A 2474   0.502   3.626   3.677 -0.6650  0.8891 -0.0897
   34CHL1  H12B 2475   0.579   3.767   3.590  2.0428  0.7558 -0.7754
   34CHL1   C11 2476   0.627   3.581   3.501  0.0405 -0.1467 -0.0662
   34CHL1  H11A 2477   0.640   3.476   3.536 -0.3537  0.5155  2.2302
   34CHL1  H11B 2478   0.534   3.574   3.440 -0.1768  1.3746  0.0517
   34CHL1    C9 2479   0.754   3.631   3.432 -0.0519  0.2051  0.2837
   34CHL1    H9 2480   0.723   3.731   3.394 -0.4024 -0.5219 -1.4640
   34CHL1   C10 2481   0.803   3.553   3.311  0.5644 -0.1128 -0.2742
   34CHL1   C19 2482   0.813   3.407   3.350 -0.5150 -0.4021  0.4660
   34CHL1  H19A 2483   0.711   3.370   3.373 -0.9792  1.8390  2.4077
   34CHL1  H19B 2484   0.855   3.341   3.271  0.4289 -2.4426  2.5559
   34CHL1  H19C 2485   0.871   3.398   3.444  0.6387 -2.1390 -0.3718
   34CHL1    C1 2486   0.696   3.576   3.196  0.0010 -0.2947  0.5742
   34CHL1   H1A 2487   0.601   3.534   3.235  0.1896  0.4720  1.9465
   34CHL1   H1B 2488   0.678   3.686   3.186 -0.5429 -0.3828  0.5293
   34CHL1    C2 2489   0.720   3.513   3.065  0.6543 -0.1482  0.3198
   34CHL1   H2A 2490   0.640   3.532   2.990  3.3611 -0.3709 -2.8057
   34CHL1   H2B 2491   0.717   3.402   3.075  0.0106 -0.3780 -1.9127
   34CHL1   C20 2492   0.642   3.678   3.985  0.1994  0.1788 -0.3162
   34CHL1   H20 2493   0.683   3.575   3.995 -0.7364 -0.2667 -0.9068
   34CHL1   C21 2494   0.493   3.655   3.962 -0.4045  0.2216 -0.5597
   34CHL1  H21A 2495   0.484   3.576   3.885 -2.9351 -0.1566  0.0415
   34CHL1  H21B 2496   0.456   3.752   3.922  2.4846  2.1542  1.1119
   34CHL1  H21C 2497   0.441   3.627   4.056  1.6375  1.7075  1.1141
   34CHL1   C22 2498   0.671   3.747   4.111 -0.2616  0.4361 -0.5842
   34CHL1  H22A 2499   0.780   3.766   4.125 -0.5414  0.3844  2.1513
   34CHL1  H22B 2500   0.623   3.847   4.119 -1.4317 -0.0779 -0.9597
   34CHL1   C23 2501   0.636   3.666   4.240  0.2204 -0.7166 -0.1330
   34CHL1  H23A 2502   0.525   3.660   4.248 -0.0105  0.8433 -1.6187
   34CHL1  H23B 2503   0.677   3.564   4.228 -0.2733 -0.8912 -0.3618
   34CHL1   C24 2504   0.699   3.750   4.358  0.5268  0.4865  0.1332
   34CHL1  H24A 2505   0.798   3.794   4.333 -0.3721  2.5411 -0.0010
   34CHL1  H24B 2506   0.634   3.837   4.380 -0.5516  0.0623 -1.2394
   34CHL1   C25 2507   0.710   3.652   4.481  0.0945  0.4355  0.0363
   34CHL1   H25 2508   0.792   3.583   4.452  3.3199  3.6641  0.6895
   34CHL1   C26 2509   0.748   3.725   4.611 -1.2366 -0.6284  0.0384
   34CHL1  H26A 2510   0.661   3.777   4.657 -0.5537 -1.1042  1.9568
   34CHL1  H26B 2511   0.801   3.663   4.686  1.0148  0.6123 -0.4318
   34CHL1  H26C 2512   0.828   3.799   4.588 -1.0176 -0.6765  0.6365
   34CHL1   C27 2513   0.578   3.585   4.504 -0.2309  0.0206 -0.0064
   34CHL1  H27A 2514   0.547   3.504   4.434  1.6720 -0.7022 -0.0701
   34CHL1  H27B 2515   0.570   3.535   4.602  0.0486 -0.3382 -0.1642
   34CHL1  H27C 2516   0.494   3.657   4.505  1.9178  2.7521 -1.6353
   35CHL1    C3 2517   5.725   5.913   2.820  0.4646 -0.4035  0.7832
   35CHL1    H3 2518   5.827   5.881   2.847  1.2583  2.0258  0.9237
   35CHL1    O3 2519   5.700   5.898   2.683 -0.2781 -1.1602 -0.3421
   35CHL1   H3' 2520   5.607   5.919   2.675 -0.0293  0.3124  0.2997
   35CHL1    C4 2521   5.620   5.831   2.903  0.6920  0.1205  0.0357
   35CHL1   H4A 2522   5.524   5.877   2.871  1.0698  1.5250  0.7934
   35CHL1   H4B 2523   5.622   5.729   2.861  0.7707 -0.6838  1.9159
   35CHL1    C5 2524   5.638   5.853   3.052  0.3379  0.5088 -0.0158
   35CHL1    C6 2525   5.645   5.747   3.133 -0.4424  0.4662 -0.2226
   35CHL1    H6 2526   5.622   5.650   3.089  0.0716  0.4514 -0.4661
   35CHL1    C7 2527   5.657   5.765   3.282 -0.5659 -0.5130  0.2234
   35CHL1   H7A 2528   5.593   5.692   3.336  0.7435 -0.1916  2.3382
   35CHL1   H7B 2529   5.761   5.747   3.316  0.4103  0.5026 -2.0311
   35CHL1    C8 2530   5.607   5.905   3.330 -0.4924  0.0308  0.1206
   35CHL1    H8 2531   5.497   5.908   3.319 -0.5144  1.4718  0.4854
   35CHL1   C14 2532   5.635   5.927   3.478 -0.4702 -0.0936 -0.1557
   35CHL1   H14 2533   5.746   5.926   3.487 -0.5848 -0.3536  1.5427
   35CHL1   C15 2534   5.575   5.822   3.570  0.0529  0.1358  0.2416
   35CHL1  H15A 2535   5.473   5.800   3.532 -0.0939  0.1985  0.6004
   35CHL1  H15B 2536   5.648   5.739   3.560  0.4792  0.5360 -0.0698
   35CHL1   C16 2537   5.576   5.894   3.700 -0.4788 -1.0842 -0.2984
   35CHL1  H16A 2538   5.475   5.904   3.744 -0.3203 -1.5600  0.1837
   35CHL1  H16B 2539   5.646   5.856   3.777 -0.0664  0.0743 -0.0793
   35CHL1   C17 2540   5.630   6.045   3.680  0.1130  0.9269  0.3395
   35CHL1   H17 2541   5.741   6.057   3.681  0.3039  0.2033 -2.5665
   35CHL1   C13 2542   5.595   6.060   3.531 -0.0369 -0.5089  0.1618
   35CHL1   C18 2543   5.447   6.091   3.514 -0.1497  0.3286  0.0773
   35CHL1  H18A 2544   5.412   6.101   3.409  0.7801  0.1637 -0.2593
   35CHL1  H18B 2545   5.379   6.019   3.565 -0.3409  0.0004 -0.6230
   35CHL1  H18C 2546   5.415   6.190   3.553 -1.2680 -0.3023  0.8438
   35CHL1   C12 2547   5.680   6.170   3.461 -0.3563  0.4373 -0.2990
   35CHL1  H12A 2548   5.652   6.276   3.484  2.2015  1.2241 -0.5378
   35CHL1  H12B 2549   5.787   6.150   3.482 -0.2701 -1.5265 -2.2938
   35CHL1   C11 2550   5.662   6.160   3.311 -1.0608 -0.4828  0.7986
   35CHL1  H11A 2551   5.555   6.185   3.295 -1.7660 -1.7495  3.0691
   35CHL1  H11B 2552   5.725   6.231   3.253 -1.2945 -1.0454 -0.1752
   35CHL1    C9 2553   5.675   6.016   3.246 -0.5547 -0.3677  0.3610
   35CHL1    H9 2554   5.783   5.993   3.256 -0.7385 -1.0246  0.9312
   35CHL1   C10 2555   5.639   6.004   3.094  0.8854  0.7521 -0.0438
   35CHL1   C19 2556   5.490   6.046   3.079 -0.0252 -0.1938  0.3090
   35CHL1  H19A 2557   5.479   6.156   3.093  0.3467 -0.1556  0.2933
   35CHL1  H19B 2558   5.456   6.032   2.974  1.3795 -1.5470  0.0065
   35CHL1  H19C 2559   5.413   5.987   3.134  1.7911 -3.1983 -0.1779
   35CHL1    C1 2560   5.734   6.074   3.002  1.0356  0.0836 -0.2280
   35CHL1   H1A 2561   5.739   6.180   3.036 -0.9318 -0.0484  0.6061
   35CHL1   H1B 2562   5.831   6.023   3.022  0.7936 -0.1495  0.3363
   35CHL1    C2 2563   5.712   6.065   2.851  0.5211 -0.0857 -0.2352
   35CHL1   H2A 2564   5.791   6.114   2.790  0.1960 -1.7242 -2.0749
   35CHL1   H2B 2565   5.611   6.098   2.817  1.0368 -0.5362 -2.3284
   35CHL1   C20 2566   5.570   6.142   3.778  0.0341  0.3792 -0.1472
   35CHL1   H20 2567   5.459   6.148   3.770 -0.1806 -0.9813  1.2078
   35CHL1   C21 2568   5.618   6.287   3.755 -0.4462  0.1734  0.4728
   35CHL1  H21A 2569   5.552   6.316   3.671 -0.3684 -2.2508 -0.4786
   35CHL1  H21B 2570   5.728   6.280   3.746 -0.2773  1.8019  0.9391
   35CHL1  H21C 2571   5.606   6.344   3.850  1.0281 -0.9718  1.3875
   35CHL1   C22 2572   5.594   6.098   3.922  0.8799  0.2263 -0.8447
   35CHL1  H22A 2573   5.552   5.996   3.937  0.1909  0.3436 -1.8255
   35CHL1  H22B 2574   5.702   6.093   3.949  0.5620 -2.9960  0.3312
   35CHL1   C23 2575   5.515   6.191   4.029 -0.5792  0.2311  0.2122
   35CHL1  H23A 2576   5.562   6.291   4.040 -2.1287  0.7400  3.6957
   35CHL1  H23B 2577   5.409   6.200   3.997 -1.2392 -0.6717  2.0065
   35CHL1   C24 2578   5.513   6.120   4.171  0.1109  0.3982  0.2402
   35CHL1  H24A 2579   5.444   6.033   4.162  1.2964 -0.6004  0.6173
   35CHL1  H24B 2580   5.618   6.092   4.193  0.3114  1.1325  0.2434
   35CHL1   C25 2581   5.462   6.225   4.281 -0.9320  0.7735 -0.0231
   35CHL1   H25 2582   5.361   6.261   4.254 -2.8277 -1.9870  2.8270
   35CHL1   C26 2583   5.480   6.159   4.413  0.4129 -0.2195  0.1572
   35CHL1  H26A 2584   5.439   6.216   4.499  0.2446  2.4391 -1.5715
   35CHL1  H26B 2585   5.449   6.053   4.402  0.9844 -0.1925 -2.2337
   35CHL1  H26C 2586   5.588   6.146   4.436  0.0283 -1.5302  1.4140
   35CHL1   C27 2587   5.546   6.359   4.287 -0.0111 -0.4594 -0.0638
   35CHL1  H27A 2588   5.518   6.426   4.203  0.2415  0.3694  0.4999
   35CHL1  H27B 2589   5.516   6.414   4.379 -3.6825  0.8534 -1.8304
   35CHL1  H27C 2590   5.655   6.341   4.282  0.4172  0.6602  2.8641
   36CHL1    C3 2591   1.608   4.272   2.770 -1.3160 -0.2310  0.7080
   36CHL1    H3 2592   1.568   4.374   2.752 -2.1293 -0.5354  0.7423
   36CHL1    O3 2593   1.593   4.204   2.650  0.0218 -0.2473 -0.0233
   36CHL1   H3' 2594   1.511   4.153   2.652 -0.4784  0.4983 -0.6519
   36CHL1    C4 2595   1.755   4.287   2.816 -0.0511  0.1166  0.2484
   36CHL1   H4A 2596   1.800   4.185   2.825  0.3423  0.2379 -0.3292
   36CHL1   H4B 2597   1.807   4.344   2.737 -2.0517  0.3448 -0.9761
   36CHL1    C5 2598   1.755   4.345   2.959  0.0136 -0.0015  0.4041
   36CHL1    C6 2599   1.811   4.472   2.981 -0.0744  0.0340  0.3486
   36CHL1    H6 2600   1.851   4.523   2.892  1.2766 -0.1655  0.8219
   36CHL1    C7 2601   1.823   4.542   3.111  0.6839 -0.0648 -0.9138
   36CHL1   H7A 2602   1.916   4.604   3.107 -0.0833  1.2814  1.0091
   36CHL1   H7B 2603   1.743   4.617   3.130  0.1579 -0.9293  0.3592
   36CHL1    C8 2604   1.819   4.444   3.227 -0.5349  0.1143 -0.6479
   36CHL1    H8 2605   1.918   4.394   3.229  1.3338  3.5350  0.4799
   36CHL1   C14 2606   1.801   4.533   3.357 -0.3206  0.2737  0.1426
   36CHL1   H14 2607   1.704   4.585   3.344 -1.3751 -1.2035  1.6524
   36CHL1   C15 2608   1.905   4.644   3.390  0.0140 -0.0436 -0.7242
   36CHL1  H15A 2609   2.009   4.622   3.360  0.6676 -0.5304  1.7451
   36CHL1  H15B 2610   1.879   4.738   3.335  1.6254  1.2764  0.6599
   36CHL1   C16 2611   1.887   4.668   3.541  0.7302 -0.2512  0.0918
   36CHL1  H16A 2612   1.982   4.639   3.590  1.0115 -0.5873 -0.6404
   36CHL1  H16B 2613   1.851   4.772   3.559  1.9147  0.1623  0.2190
   36CHL1   C17 2614   1.780   4.562   3.587  0.1107  0.7082 -0.3092
   36CHL1   H17 2615   1.679   4.605   3.577  0.1418  0.3072 -3.5725
   36CHL1   C13 2616   1.782   4.444   3.483 -0.0769  0.3716 -0.4471
   36CHL1   C18 2617   1.906   4.350   3.502 -0.0909  0.3106 -0.0815
   36CHL1  H18A 2618   1.907   4.279   3.416  1.2733  0.2327 -0.0247
   36CHL1  H18B 2619   2.008   4.395   3.496 -0.0072  0.7602  3.2641
   36CHL1  H18C 2620   1.888   4.286   3.590 -0.0037 -0.3877 -0.5626
   36CHL1   C12 2621   1.648   4.369   3.460  0.2726 -0.1593  0.2563
   36CHL1  H12A 2622   1.612   4.315   3.550 -1.2638  0.5764  0.1181
   36CHL1  H12B 2623   1.571   4.447   3.444  0.0691 -0.9186 -3.3450
   36CHL1   C11 2624   1.648   4.272   3.337  0.6185 -0.1171 -0.7146
   36CHL1  H11A 2625   1.720   4.188   3.344  2.1383  1.1691 -0.1680
   36CHL1  H11B 2626   1.551   4.225   3.311  1.1155 -1.5267 -0.1166
   36CHL1    C9 2627   1.697   4.351   3.207 -0.2655  0.3086 -0.0713
   36CHL1    H9 2628   1.615   4.426   3.200 -2.4861 -1.9856 -0.3257
   36CHL1   C10 2629   1.692   4.271   3.072 -0.3398  0.0884 -0.7130
   36CHL1   C19 2630   1.754   4.134   3.105 -0.3034  0.7117 -0.4975
   36CHL1  H19A 2631   1.755   4.066   3.017 -0.8386  0.2088 -0.1251
   36CHL1  H19B 2632   1.860   4.146   3.136 -0.8669  1.3550  1.3179
   36CHL1  H19C 2633   1.697   4.086   3.188  0.2725  0.6129 -0.1509
   36CHL1    C1 2634   1.547   4.260   3.017 -0.2656 -0.3065 -0.5078
   36CHL1   H1A 2635   1.479   4.206   3.087  0.8559  0.9265  1.6318
   36CHL1   H1B 2636   1.497   4.359   3.017  0.5714  0.1250  0.5351
   36CHL1    C2 2637   1.533   4.194   2.875  0.7842 -0.0777  0.0044
   36CHL1   H2A 2638   1.426   4.193   2.843  1.1784 -0.2656 -1.3939
   36CHL1   H2B 2639   1.574   4.091   2.883  1.9997  0.5083  1.7271
   36CHL1   C20 2640   1.806   4.526   3.739  0.6511 -0.3969 -0.2195
   36CHL1   H20 2641   1.901   4.471   3.758  0.2185 -0.2839  2.7459
   36CHL1   C21 2642   1.690   4.440   3.792  0.3112  0.0117 -1.0428
   36CHL1  H21A 2643   1.696   4.406   3.897 -1.4348 -0.7866 -1.1640
   36CHL1  H21B 2644   1.672   4.349   3.730  1.2363  0.5490 -2.1408
   36CHL1  H21C 2645   1.597   4.501   3.791 -1.0646 -1.7102  2.9445
   36CHL1   C22 2646   1.811   4.662   3.837 -0.2645  0.0174  0.8886
   36CHL1  H22A 2647   1.904   4.714   3.804 -1.0552  0.3897 -0.9037
   36CHL1  H22B 2648   1.724   4.731   3.827 -0.8960 -0.5782  2.0891
   36CHL1   C23 2649   1.832   4.638   3.985  0.1076 -0.2840 -0.2533
   36CHL1  H23A 2650   1.733   4.628   4.034 -0.2597 -2.4988 -1.3139
   36CHL1  H23B 2651   1.887   4.543   4.004 -1.9339 -1.8927 -1.8871
   36CHL1   C24 2652   1.897   4.757   4.062 -0.1680 -0.2885 -0.0759
   36CHL1  H24A 2653   1.998   4.774   4.018  0.3791 -0.6496  1.0038
   36CHL1  H24B 2654   1.832   4.845   4.046 -0.2074 -0.2633  0.2294
   36CHL1   C25 2655   1.903   4.735   4.213 -0.2849  0.5855 -0.4463
   36CHL1   H25 2656   1.797   4.724   4.244  0.3316 -3.7951  0.7536
   36CHL1   C26 2657   1.972   4.609   4.261 -0.2500  0.5583  0.5583
   36CHL1  H26A 2658   2.079   4.610   4.228 -0.9152 -1.1050 -1.9242
   36CHL1  H26B 2659   1.961   4.594   4.371  0.8153 -0.0763  0.5959
   36CHL1  H26C 2660   1.921   4.520   4.217 -0.0262  0.6659  0.0777
   36CHL1   C27 2661   1.961   4.860   4.285  0.5975  0.4088  0.7824
   36CHL1  H27A 2662   1.961   4.841   4.395 -0.9805 -1.2691  0.5400
   36CHL1  H27B 2663   2.064   4.890   4.255  1.4542 -3.6195 -1.0263
   36CHL1  H27C 2664   1.903   4.951   4.260 -0.1851  0.0860  1.3866
   37CHL1    C3 2665   2.875   3.706   2.679 -0.6409  0.6128 -0.3299
   37CHL1    H3 2666   2.790   3.777   2.681 -1.0591  0.1209 -0.5206
   37CHL1    O3 2667   2.908   3.684   2.541 -0.1194  0.0242 -0.6205
   37CHL1   H3' 2668   2.961   3.605   2.534  0.9932  0.7018 -0.0863
   37CHL1    C4 2669   3.006   3.756   2.744  0.3558 -0.3324  0.4756
   37CHL1   H4A 2670   3.092   3.690   2.720  0.0266 -0.5289 -0.2077
   37CHL1   H4B 2671   3.036   3.850   2.692 -1.4946  0.0646  0.0384
   37CHL1    C5 2672   2.996   3.774   2.892 -0.0910 -0.6013  0.4031
   37CHL1    C6 2673   3.023   3.896   2.954  0.0419  0.2323  0.1484
   37CHL1    H6 2674   3.054   3.981   2.892 -0.6443 -2.1102 -3.7616
   37CHL1    C7 2675   3.009   3.919   3.106  0.7030  0.5858  0.6749
   37CHL1   H7A 2676   3.086   3.984   3.151 -1.1568  1.8772  2.1685
   37CHL1   H7B 2677   2.915   3.977   3.117 -1.0479 -2.1535  1.2710
   37CHL1    C8 2678   2.992   3.780   3.184 -0.1420  0.2294  0.0865
   37CHL1    H8 2679   3.091   3.731   3.192  0.1545  0.3955 -1.9543
   37CHL1   C14 2680   2.935   3.808   3.325 -0.2777 -0.0611  0.0820
   37CHL1   H14 2681   2.837   3.855   3.303  0.2054  0.8945 -0.1155
   37CHL1   C15 2682   3.009   3.908   3.411  0.4507  0.4309 -0.0231
   37CHL1  H15A 2683   3.116   3.880   3.422  0.5576  1.5953  3.0048
   37CHL1  H15B 2684   2.997   4.014   3.383  0.3449  0.4573  0.1194
   37CHL1   C16 2685   2.942   3.877   3.549 -0.1237 -0.4860 -0.6701
   37CHL1  H16A 2686   3.024   3.843   3.616 -0.7238 -0.0366  0.3069
   37CHL1  H16B 2687   2.891   3.964   3.596 -1.0386 -1.6993  0.6639
   37CHL1   C17 2688   2.846   3.755   3.533  0.4585 -0.1668  0.5751
   37CHL1   H17 2689   2.743   3.790   3.508  0.9996  1.6291  0.7126
   37CHL1   C13 2690   2.900   3.679   3.409 -0.9330  0.5295  0.3715
   37CHL1   C18 2691   3.034   3.599   3.439 -0.2817 -0.3366  0.4737
   37CHL1  H18A 2692   3.004   3.515   3.505 -2.1978 -0.7185 -0.8039
   37CHL1  H18B 2693   3.079   3.544   3.355 -0.2523  0.5338 -0.0985
   37CHL1  H18C 2694   3.117   3.655   3.488 -1.4909 -0.0090  2.2755
   37CHL1   C12 2695   2.810   3.587   3.331  0.7017 -0.7064 -0.7771
   37CHL1  H12A 2696   2.781   3.490   3.377 -1.7895  0.5548  0.5105
   37CHL1  H12B 2697   2.709   3.630   3.315 -0.0264 -2.2984 -0.5677
   37CHL1   C11 2698   2.859   3.556   3.183  0.2770 -0.0471 -0.4320
   37CHL1  H11A 2699   2.939   3.480   3.188  0.2821 -0.0740 -0.8890
   37CHL1  H11B 2700   2.767   3.510   3.140 -0.1712 -0.7595  1.2166
   37CHL1    C9 2701   2.890   3.685   3.103 -0.3663 -0.4010  0.0671
   37CHL1    H9 2702   2.796   3.744   3.110  0.3368  0.6200  1.6475
   37CHL1   C10 2703   2.934   3.652   2.961  0.0424 -0.8295  0.1841
   37CHL1   C19 2704   3.049   3.549   2.968  0.4097  0.2472  0.5601
   37CHL1  H19A 2705   3.126   3.601   3.030  0.8133  0.8092 -0.3932
   37CHL1  H19B 2706   3.019   3.448   3.003  2.4479 -0.0747  1.5221
   37CHL1  H19C 2707   3.094   3.543   2.867 -2.5408  1.1491 -0.9332
   37CHL1    C1 2708   2.817   3.581   2.881 -0.1643  0.2718  0.4457
   37CHL1   H1A 2709   2.793   3.480   2.919  1.3829 -0.1766  0.3310
   37CHL1   H1B 2710   2.741   3.659   2.903 -0.6329  0.3681 -1.3292
   37CHL1    C2 2711   2.832   3.570   2.729  0.2497 -0.0887 -0.1939
   37CHL1   H2A 2712   2.745   3.526   2.675 -1.7003  0.1262  2.5552
   37CHL1   H2B 2713   2.919   3.502   2.718  0.9321  0.9329 -1.2928
   37CHL1   C20 2714   2.839   3.679   3.664  0.0560 -0.1563 -0.7700
   37CHL1   H20 2715   2.939   3.636   3.688 -0.1702 -0.9115 -1.1617
   37CHL1   C21 2716   2.747   3.559   3.653 -0.3098 -0.3490  0.3609
   37CHL1  H21A 2717   2.750   3.499   3.747 -0.9217 -2.1210 -0.6975
   37CHL1  H21B 2718   2.781   3.479   3.583  0.5531  1.1818 -1.0255
   37CHL1  H21C 2719   2.641   3.585   3.630 -0.6285 -0.6719  1.3854
   37CHL1   C22 2720   2.797   3.761   3.784 -0.5363  0.0353 -0.1557
   37CHL1  H22A 2721   2.776   3.694   3.870  0.6646  0.1973  0.2853
   37CHL1  H22B 2722   2.864   3.842   3.821 -0.7894  0.1530  0.0536
   37CHL1   C23 2723   2.657   3.830   3.765 -0.1842  0.3834  0.4730
   37CHL1  H23A 2724   2.662   3.895   3.675 -0.6659 -1.0144 -0.6076
   37CHL1  H23B 2725   2.571   3.761   3.745 -0.0851  0.8767 -1.8280
   37CHL1   C24 2726   2.615   3.900   3.892  0.4576  0.5237  0.1129
   37CHL1  H24A 2727   2.606   3.821   3.970  3.1658 -0.4828 -0.5091
   37CHL1  H24B 2728   2.696   3.964   3.932  0.7861 -0.6924  1.5143
   37CHL1   C25 2729   2.491   3.984   3.893 -0.5416  0.5177 -1.1024
   37CHL1   H25 2730   2.496   4.039   3.796  1.7950  0.1778 -1.2309
   37CHL1   C26 2731   2.368   3.896   3.903 -0.7850  0.1641 -0.0345
   37CHL1  H26A 2732   2.362   3.844   4.001  1.2151  1.8004  1.0379
   37CHL1  H26B 2733   2.275   3.951   3.882 -0.5252  0.4901 -0.3440
   37CHL1  H26C 2734   2.370   3.811   3.832  0.5753  1.2755 -1.3998
   37CHL1   C27 2735   2.490   4.068   4.018 -0.3692 -0.1946 -0.2484
   37CHL1  H27A 2736   2.387   4.103   4.038 -0.7535 -2.3434  1.9248
   37CHL1  H27B 2737   2.520   4.004   4.104 -0.5010 -1.1061 -0.8669
   37CHL1  H27C 2738   2.553   4.159   4.005 -1.1178  0.7156  1.9617
   38CHL1    C3 2739   5.030   5.655   2.589 -0.1014  0.4197 -0.3624
   38CHL1    H3 2740   4.993   5.758   2.610  0.2125  0.8272 -1.6461
   38CHL1    O3 2741   5.019   5.644   2.453  0.4062 -0.3441  1.1635
   38CHL1   H3' 2742   4.951   5.578   2.432  1.6063 -1.4681  0.6648
   38CHL1    C4 2743   5.170   5.624   2.634  0.3778 -0.6424  0.2648
   38CHL1   H4A 2744   5.185   5.518   2.603  2.1221 -0.9671  2.0122
   38CHL1   H4B 2745   5.250   5.685   2.587  0.0846  0.2726  0.9304
   38CHL1    C5 2746   5.169   5.641   2.788 -0.0864  0.6806  0.5523
   38CHL1    C6 2747   5.247   5.732   2.851  0.0544 -0.1304 -0.3888
   38CHL1    H6 2748   5.323   5.790   2.796  0.1097  0.3449  0.1681
   38CHL1    C7 2749   5.258   5.744   3.000  0.3178  0.6367 -0.1710
   38CHL1   H7A 2750   5.364   5.751   3.033 -0.0876  0.3185  1.3010
   38CHL1   H7B 2751   5.211   5.841   3.027 -0.3390  0.0678  0.7992
   38CHL1    C8 2752   5.192   5.630   3.075 -0.0467  0.0630 -0.0811
   38CHL1    H8 2753   5.260   5.542   3.076 -0.9432 -0.6523  1.8801
   38CHL1   C14 2754   5.161   5.667   3.219  0.2782  0.2032  0.2707
   38CHL1   H14 2755   5.094   5.755   3.209  1.8814  1.3716 -1.0423
   38CHL1   C15 2756   5.269   5.733   3.303  0.1432  0.0575  0.2249
   38CHL1  H15A 2757   5.362   5.673   3.298  0.2942  0.3620 -0.8047
   38CHL1  H15B 2758   5.296   5.836   3.272  0.4600 -0.2181 -0.4206
   38CHL1   C16 2759   5.212   5.725   3.443 -0.1994 -0.4796 -0.2352
   38CHL1  H16A 2760   5.287   5.694   3.519 -1.2888  1.5398  1.8168
   38CHL1  H16B 2761   5.185   5.826   3.479  0.6283 -0.5996  0.7797
   38CHL1   C17 2762   5.086   5.634   3.441  0.1255 -0.3949  0.3256
   38CHL1   H17 2763   4.997   5.700   3.444 -0.6662 -1.4226  0.0841
   38CHL1   C13 2764   5.093   5.557   3.308  0.0594  0.1736  0.9061
   38CHL1   C18 2765   5.192   5.440   3.319 -0.4510  0.1317  0.3701
   38CHL1  H18A 2766   5.297   5.471   3.338 -0.7897  0.9397  0.9904
   38CHL1  H18B 2767   5.176   5.356   3.390  2.1768  0.6561  1.7088
   38CHL1  H18C 2768   5.204   5.397   3.217 -1.1396  2.4877 -0.7998
   38CHL1   C12 2769   4.962   5.513   3.247 -0.3698 -0.3439  0.2695
   38CHL1  H12A 2770   4.942   5.414   3.294  0.7638 -0.2707  0.9546
   38CHL1  H12B 2771   4.880   5.586   3.261 -0.4605  0.2295 -2.7215
   38CHL1   C11 2772   4.971   5.487   3.091 -0.7542 -0.2950  0.5248
   38CHL1  H11A 2773   5.021   5.388   3.091 -1.0052 -0.4246  0.2301
   38CHL1  H11B 2774   4.871   5.477   3.044 -1.0497  0.4791  0.9741
   38CHL1    C9 2775   5.065   5.586   3.012  0.1229  0.1896  0.5462
   38CHL1    H9 2776   5.005   5.680   3.014  1.2104  0.9155  2.6842
   38CHL1   C10 2777   5.071   5.546   2.862  0.6178  0.2640  0.3055
   38CHL1   C19 2778   5.119   5.402   2.857 -0.6541 -0.1343 -0.1886
   38CHL1  H19A 2779   5.221   5.384   2.896  0.2121 -3.7192 -3.4749
   38CHL1  H19B 2780   5.052   5.325   2.900  1.8044 -1.4629  1.4667
   38CHL1  H19C 2781   5.123   5.361   2.753 -2.3163  1.4954 -0.9541
   38CHL1    C1 2782   4.926   5.550   2.798  0.1883  0.1013  0.3744
   38CHL1   H1A 2783   4.864   5.466   2.836 -0.3813  2.0294  4.1257
   38CHL1   H1B 2784   4.891   5.649   2.834  1.2050  1.4254 -2.0102
   38CHL1    C2 2785   4.920   5.555   2.647  0.3705  0.5686 -0.0129
   38CHL1   H2A 2786   4.819   5.586   2.611  0.2936 -1.5241 -1.7826
   38CHL1   H2B 2787   4.953   5.459   2.602  1.9674  0.8455  0.4829
   38CHL1   C20 2788   5.078   5.566   3.584 -0.2387 -0.3853  1.2053
   38CHL1   H20 2789   5.162   5.494   3.596  0.8255  0.7429  0.7372
   38CHL1   C21 2790   4.947   5.493   3.578  0.0273  0.1626  0.3875
   38CHL1  H21A 2791   4.864   5.559   3.548 -0.1771  0.1606  0.9409
   38CHL1  H21B 2792   4.928   5.446   3.678  0.1328  0.5869  0.6084
   38CHL1  H21C 2793   4.941   5.408   3.506 -2.2623 -0.6431  1.4506
   38CHL1   C22 2794   5.086   5.661   3.703 -0.1419  0.1494 -1.0601
   38CHL1  H22A 2795   5.192   5.689   3.720 -0.1797  0.5343 -1.4275
   38CHL1  H22B 2796   5.030   5.756   3.687 -0.5765  0.3293  1.2045
   38CHL1   C23 2797   5.038   5.620   3.846  0.1381  1.5415 -0.0140
   38CHL1  H23A 2798   4.941   5.566   3.836  0.6319  0.2920  1.5498
   38CHL1  H23B 2799   5.101   5.535   3.879 -4.1189 -2.4339 -1.0499
   38CHL1   C24 2800   5.018   5.733   3.944 -0.0084 -0.0247  0.7873
   38CHL1  H24A 2801   5.086   5.820   3.931  0.0164 -0.3121 -1.3599
   38CHL1  H24B 2802   4.921   5.779   3.913  0.9507  1.5370  0.0063
   38CHL1   C25 2803   5.017   5.692   4.091 -0.6333 -0.1521  0.0981
   38CHL1   H25 2804   5.104   5.624   4.109 -0.5840 -0.5279 -1.3719
   38CHL1   C26 2805   5.038   5.819   4.175 -0.0465  0.5228  0.1837
   38CHL1  H26A 2806   5.053   5.794   4.282  2.4002  0.4213 -0.1061
   38CHL1  H26B 2807   5.136   5.859   4.139 -0.0485  0.1985 -0.1888
   38CHL1  H26C 2808   4.951   5.887   4.173  0.4379  1.2392  1.8899
   38CHL1   C27 2809   4.892   5.614   4.127 -0.3882 -0.1876 -0.0234
   38CHL1  H27A 2810   4.868   5.520   4.072 -0.1807 -2.1642  3.0375
   38CHL1  H27B 2811   4.887   5.593   4.236  0.6768 -0.9428 -0.1083
   38CHL1  H27C 2812   4.806   5.681   4.108  0.0351  0.8196  1.4410
   39CHL1    C3 2813   0.910   5.296   2.633 -0.0110  0.1354  0.2798
   39CHL1    H3 2814   1.017   5.325   2.646 -0.1305 -0.4247  3.2841
   39CHL1    O3 2815   0.865   5.298   2.496 -0.5184  0.3310  0.0052
   39CHL1   H3' 2816   0.769   5.308   2.496 -0.5995 -0.3923  0.2266
   39CHL1    C4 2817   0.904   5.150   2.693  0.3444 -0.2218  0.2066
   39CHL1   H4A 2818   0.803   5.108   2.676  0.7508 -0.6825 -1.1908
   39CHL1   H4B 2819   0.977   5.088   2.638  0.9034 -0.3917  1.1225
   39CHL1    C5 2820   0.933   5.146   2.840  0.2642  0.7446 -0.2440
   39CHL1    C6 2821   1.032   5.062   2.876 -0.6148 -0.0405 -0.4334
   39CHL1    H6 2822   1.088   4.993   2.811  0.2380 -0.3887  0.6509
   39CHL1    C7 2823   1.073   5.045   3.020  1.4382 -0.0894  0.5307
   39CHL1   H7A 2824   1.069   4.938   3.051 -1.0457 -0.0429  0.5751
   39CHL1   H7B 2825   1.173   5.092   3.031  2.1664 -1.2515 -0.7788
   39CHL1    C8 2826   0.983   5.112   3.122 -0.2458 -0.7381 -0.2644
   39CHL1    H8 2827   0.900   5.043   3.146 -2.4125  1.7774  0.0177
   39CHL1   C14 2828   1.044   5.136   3.256  0.4919  0.3463  0.3594
   39CHL1   H14 2829   1.126   5.210   3.243  2.4734 -1.7799 -0.0441
   39CHL1   C15 2830   1.109   5.013   3.325 -0.2129  0.4719  0.3716
   39CHL1  H15A 2831   1.044   4.924   3.312  0.1551  0.2273  0.1698
   39CHL1  H15B 2832   1.204   4.996   3.270 -0.4711  2.4197 -0.7611
   39CHL1   C16 2833   1.126   5.045   3.470  0.2819 -0.0292 -0.1728
   39CHL1  H16A 2834   1.091   4.954   3.525  0.3222 -1.3909 -2.2666
   39CHL1  H16B 2835   1.229   5.071   3.502  0.1786 -2.1395  2.3025
   39CHL1   C17 2836   1.035   5.171   3.491 -0.2866  0.4784 -0.3738
   39CHL1   H17 2837   1.104   5.255   3.471 -2.8021  2.6652 -0.4910
   39CHL1   C13 2838   0.947   5.195   3.364 -0.3170  0.5791 -0.3285
   39CHL1   C18 2839   0.816   5.104   3.382 -0.0454 -0.5531 -0.1380
   39CHL1  H18A 2840   0.852   4.999   3.390  1.7080 -0.0323 -0.6430
   39CHL1  H18B 2841   0.760   5.136   3.472  2.6053  1.3959  0.9756
   39CHL1  H18C 2842   0.751   5.119   3.293  0.1653  0.3048 -0.1599
   39CHL1   C12 2843   0.920   5.333   3.317 -0.1891  0.1336 -0.2430
   39CHL1  H12A 2844   0.849   5.390   3.381  1.9097  0.8275  1.5859
   39CHL1  H12B 2845   1.015   5.390   3.316  1.0644 -1.8423 -1.5385
   39CHL1   C11 2846   0.861   5.335   3.178 -0.1943  0.1243  0.1951
   39CHL1  H11A 2847   0.761   5.288   3.195 -0.8548  0.7912 -1.6452
   39CHL1  H11B 2848   0.830   5.438   3.150 -1.1486 -0.0506  0.5629
   39CHL1    C9 2849   0.928   5.249   3.075 -1.7917  0.8382 -0.0753
   39CHL1    H9 2850   1.020   5.305   3.049  0.0916 -2.0459 -0.1526
   39CHL1   C10 2851   0.855   5.240   2.936  0.0316  0.2805  0.1643
   39CHL1   C19 2852   0.705   5.204   2.953  0.2985  0.0959  0.0032
   39CHL1  H19A 2853   0.647   5.215   2.859 -1.5465  0.3639  1.1260
   39CHL1  H19B 2854   0.696   5.100   2.991 -1.6881 -0.2104 -1.1776
   39CHL1  H19C 2855   0.658   5.270   3.029  1.4740  1.5943 -0.5299
   39CHL1    C1 2856   0.860   5.382   2.875  0.0934 -0.4162  0.0525
   39CHL1   H1A 2857   0.788   5.444   2.933  1.2013 -0.9627  2.1037
   39CHL1   H1B 2858   0.957   5.435   2.880  0.0261 -0.3708  0.9291
   39CHL1    C2 2859   0.825   5.392   2.719 -0.0164 -0.9710 -0.1221
   39CHL1   H2A 2860   0.844   5.493   2.678 -0.5081 -1.2232 -1.0078
   39CHL1   H2B 2861   0.716   5.367   2.714  0.1239 -1.3004 -2.1686
   39CHL1   C20 2862   0.990   5.196   3.634  0.3638  0.1496 -0.3777
   39CHL1   H20 2863   0.916   5.120   3.665 -0.8170  0.8179 -1.4753
   39CHL1   C21 2864   0.928   5.338   3.634 -0.0762 -0.1955  0.5406
   39CHL1  H21A 2865   0.999   5.409   3.585 -1.4437 -0.1170 -1.4808
   39CHL1  H21B 2866   0.917   5.368   3.740  2.3977  1.0288  0.5186
   39CHL1  H21C 2867   0.833   5.358   3.579 -0.1193 -1.7180  0.0126
   39CHL1   C22 2868   1.102   5.168   3.738  0.6655  0.6636  0.2475
   39CHL1  H22A 2869   1.160   5.076   3.718  2.6704  1.6894  1.0075
   39CHL1  H22B 2870   1.174   5.251   3.724  0.7398  1.1346  2.9294
   39CHL1   C23 2871   1.039   5.175   3.879 -0.2866  0.4427  0.0409
   39CHL1  H23A 2872   1.020   5.283   3.895 -0.7030  0.5202 -0.9110
   39CHL1  H23B 2873   0.942   5.123   3.893 -0.0667  0.5853  2.7135
   39CHL1   C24 2874   1.141   5.141   3.986  0.2436 -0.2608 -0.3707
   39CHL1  H24A 2875   1.173   5.035   3.993  0.2929 -0.1423  2.2439
   39CHL1  H24B 2876   1.233   5.201   3.973 -0.6376  2.0048  2.6220
   39CHL1   C25 2877   1.090   5.171   4.129  0.1680  0.0425 -0.4231
   39CHL1   H25 2878   1.051   5.274   4.144  1.0470  0.4549 -0.8752
   39CHL1   C26 2879   0.974   5.076   4.169 -0.9423 -0.5806 -0.2515
   39CHL1  H26A 2880   0.929   5.093   4.269  0.8784  1.3920  0.2991
   39CHL1  H26B 2881   0.894   5.091   4.094 -0.7104  1.6739 -0.1139
   39CHL1  H26C 2882   1.012   4.971   4.171  0.3066 -0.1360  0.1621
   39CHL1   C27 2883   1.190   5.148   4.234 -0.1448  0.0199 -0.3540
   39CHL1  H27A 2884   1.242   5.053   4.212  0.2991  0.7399 -2.6665
   39CHL1  H27B 2885   1.272   5.222   4.234 -2.7224  3.2665  2.8752
   39CHL1  H27C 2886   1.152   5.149   4.339  1.2829 -0.0547  0.1807
   40CHL1    C3 2887   3.148   3.049   2.588  0.2952  0.4539 -0.0113
   40CHL1    H3 2888   3.204   3.145   2.581 -2.0345  1.8396 -1.0570
   40CHL1    O3 2889   3.121   3.004   2.455 -0.3656  0.4665  0.2813
   40CHL1   H3' 2890   3.205   2.971   2.422  0.8284  1.8843  1.6992
   40CHL1    C4 2891   3.234   2.938   2.666 -0.1441  0.6426 -0.1998
   40CHL1   H4A 2892   3.177   2.843   2.673 -2.0368  1.6646 -0.9701
   40CHL1   H4B 2893   3.330   2.915   2.615  0.4209  3.4460 -0.5742
   40CHL1    C5 2894   3.268   2.991   2.806 -0.0258 -0.4446  0.0906
   40CHL1    C6 2895   3.392   3.015   2.849 -1.1532 -0.7228  0.5041
   40CHL1    H6 2896   3.477   3.004   2.779 -0.7664 -0.3022  0.8977
   40CHL1    C7 2897   3.427   3.053   2.986  0.1359 -0.1812 -1.0987
   40CHL1   H7A 2898   3.508   2.991   3.029 -0.1667 -0.6019 -1.1345
   40CHL1   H7B 2899   3.460   3.159   2.980  0.9038 -0.4498 -1.7684
   40CHL1    C8 2900   3.306   3.049   3.082  0.4725 -0.5071 -0.0283
   40CHL1    H8 2901   3.295   2.942   3.111  0.6418 -0.8208 -1.0658
   40CHL1   C14 2902   3.343   3.124   3.211 -0.0198  0.1912 -0.0133
   40CHL1   H14 2903   3.349   3.233   3.187  1.0955  0.2127  0.3202
   40CHL1   C15 2904   3.468   3.090   3.289 -0.3068  0.5358 -0.4979
   40CHL1  H15A 2905   3.485   2.981   3.288 -0.2000  0.5521 -0.4907
   40CHL1  H15B 2906   3.546   3.156   3.245 -0.5065  1.6498  0.7421
   40CHL1   C16 2907   3.445   3.136   3.440 -0.8131 -0.2086  0.3975
   40CHL1  H16A 2908   3.462   3.049   3.507 -0.2992 -0.7009 -0.3551
   40CHL1  H16B 2909   3.515   3.219   3.459 -1.6907  0.1858  2.0964
   40CHL1   C17 2910   3.294   3.189   3.439  0.0445  0.0258 -0.1173
   40CHL1   H17 2911   3.290   3.295   3.406 -0.9632 -0.2021 -0.7833
   40CHL1   C13 2912   3.231   3.121   3.313  0.8124 -0.0034  0.6543
   40CHL1   C18 2913   3.190   2.983   3.356  0.3090  0.4777 -0.1849
   40CHL1  H18A 2914   3.093   2.997   3.409  0.1675  0.0232 -0.3172
   40CHL1  H18B 2915   3.169   2.918   3.267  2.9308 -0.2867 -0.3048
   40CHL1  H18C 2916   3.266   2.939   3.423 -0.0983 -1.8358 -1.1232
   40CHL1   C12 2917   3.112   3.200   3.242 -0.2443  0.4949 -0.5479
   40CHL1  H12A 2918   3.021   3.221   3.302  0.2266 -2.2054  1.3063
   40CHL1  H12B 2919   3.155   3.293   3.199 -0.3001  0.5743 -0.4322
   40CHL1   C11 2920   3.061   3.138   3.108 -0.2882  0.1341 -0.0062
   40CHL1  H11A 2921   3.003   3.048   3.139  0.0485 -0.5667 -1.3337
   40CHL1  H11B 2922   2.988   3.209   3.064 -0.1785  1.3613  1.6996
   40CHL1    C9 2923   3.182   3.103   3.017  0.3520  0.0126  0.1712
   40CHL1    H9 2924   3.202   3.210   2.992  1.1710  0.1229  1.2081
   40CHL1   C10 2925   3.140   3.035   2.888  0.1125 -0.0021  0.4867
   40CHL1   C19 2926   3.063   2.903   2.934  0.8479  0.4763  0.2733
   40CHL1  H19A 2927   3.111   2.858   3.024 -0.2009  2.1602  1.7567
   40CHL1  H19B 2928   2.958   2.931   2.957  0.8947 -0.1712  1.3752
   40CHL1  H19C 2929   3.057   2.830   2.851 -3.8217  1.0568 -0.1688
   40CHL1    C1 2930   3.041   3.122   2.806  0.1430  0.0180 -0.4019
   40CHL1   H1A 2931   2.945   3.146   2.855  0.7656  2.4085 -0.2170
   40CHL1   H1B 2932   3.082   3.225   2.814  0.0957  0.0695 -0.7958
   40CHL1    C2 2933   3.021   3.082   2.659  0.1748  0.0734  0.2389
   40CHL1   H2A 2934   2.972   3.167   2.607 -0.8003 -1.6779 -1.8424
   40CHL1   H2B 2935   2.954   2.994   2.662 -1.5503  1.1749 -2.2517
   40CHL1   C20 2936   3.221   3.172   3.578  0.3782  0.1449  0.6031
   40CHL1   H20 2937   3.211   3.062   3.592  1.6020 -0.0301  0.2257
   40CHL1   C21 2938   3.072   3.232   3.580  0.0175 -0.2623  1.0585
   40CHL1  H21A 2939   3.013   3.174   3.506 -0.2257 -1.6865  2.3303
   40CHL1  H21B 2940   3.066   3.339   3.549 -2.0352 -0.8685 -0.8672
   40CHL1  H21C 2941   3.026   3.215   3.680  1.0909  0.2226  1.6605
   40CHL1   C22 2942   3.302   3.235   3.698 -0.6401  0.1139 -0.2014
   40CHL1  H22A 2943   3.399   3.182   3.706  0.4699  1.9422 -0.8895
   40CHL1  H22B 2944   3.331   3.340   3.678  2.2637 -0.1331  2.1062
   40CHL1   C23 2945   3.234   3.213   3.833 -0.3428  0.2646  0.8537
   40CHL1  H23A 2946   3.150   3.284   3.847 -0.4867  0.9026 -2.3726
   40CHL1  H23B 2947   3.193   3.110   3.832  1.6574 -0.5739  0.5598
   40CHL1   C24 2948   3.331   3.235   3.952  0.2411 -0.3011  0.3996
   40CHL1  H24A 2949   3.420   3.171   3.940 -0.2814 -0.8530 -0.6741
   40CHL1  H24B 2950   3.362   3.342   3.948  0.9381 -0.5127 -0.0365
   40CHL1   C25 2951   3.265   3.218   4.091 -0.9388  0.4100 -0.4587
   40CHL1   H25 2952   3.169   3.275   4.092 -1.3872 -0.3334  0.3398
   40CHL1   C26 2953   3.242   3.070   4.134 -0.3696  0.0985 -0.0940
   40CHL1  H26A 2954   3.177   3.007   4.070  1.5951 -1.5761 -0.5362
   40CHL1  H26B 2955   3.340   3.017   4.131 -0.3047  0.2610 -1.8597
   40CHL1  H26C 2956   3.206   3.060   4.239 -0.8322  0.2044 -0.2433
   40CHL1   C27 2957   3.350   3.290   4.203 -0.0922  0.3138 -0.6373
   40CHL1  H27A 2958   3.444   3.235   4.224 -1.0007 -1.5444 -1.1312
   40CHL1  H27B 2959   3.387   3.386   4.163  2.3664 -0.4410 -0.3241
   40CHL1  H27C 2960   3.288   3.305   4.294 -0.1858  0.8030 -0.7821
   41CHL1    C3 2961   6.650   6.375   3.096  0.3036  0.1441 -0.5971
   41CHL1    H3 2962   6.750   6.389   3.142 -0.5779  2.2404  0.8561
   41CHL1    O3 2963   6.667   6.372   2.953  0.0499 -0.2618  0.4301
   41CHL1   H3' 2964   6.600   6.435   2.924  1.4846  1.4478  0.7153
   41CHL1    C4 2965   6.588   6.239   3.143 -0.0335  0.5153 -0.0145
   41CHL1   H4A 2966   6.505   6.208   3.075 -0.4850  2.7558 -0.5908
   41CHL1   H4B 2967   6.666   6.164   3.119 -0.9447 -0.8313  1.0814
   41CHL1    C5 2968   6.560   6.242   3.297 -0.3396  0.0241 -0.3591
   41CHL1    C6 2969   6.615   6.147   3.375  0.1924 -0.1384 -0.2191
   41CHL1    H6 2970   6.664   6.057   3.337 -0.4673 -0.9788  0.8578
   41CHL1    C7 2971   6.605   6.147   3.524 -0.5437 -0.3193 -0.7549
   41CHL1   H7A 2972   6.597   6.041   3.556  1.9681 -0.6420 -0.9651
   41CHL1   H7B 2973   6.702   6.187   3.563  0.4285 -2.2652 -1.0343
   41CHL1    C8 2974   6.495   6.237   3.583  0.7098 -0.8196 -1.0995
   41CHL1    H8 2975   6.398   6.188   3.558  1.0154 -2.3076  0.4647
   41CHL1   C14 2976   6.515   6.265   3.731  0.1838 -0.7346  0.6064
   41CHL1   H14 2977   6.618   6.306   3.722 -0.4030  0.3430 -2.1999
   41CHL1   C15 2978   6.522   6.150   3.829  0.3873 -0.0513 -0.1528
   41CHL1  H15A 2979   6.425   6.096   3.828 -0.7524  1.8253 -2.4335
   41CHL1  H15B 2980   6.608   6.085   3.803  1.0441  1.0133 -0.7428
   41CHL1   C16 2981   6.540   6.228   3.958  0.1270 -0.4948  0.3631
   41CHL1  H16A 2982   6.501   6.169   4.044 -1.4412 -0.0234  0.0115
   41CHL1  H16B 2983   6.646   6.251   3.983  0.7432 -2.2654 -0.4832
   41CHL1   C17 2984   6.466   6.372   3.945 -0.2287 -0.7542  0.4874
   41CHL1   H17 2985   6.553   6.440   3.951 -0.6514 -0.1240 -0.2829
   41CHL1   C13 2986   6.416   6.372   3.799  0.1932 -0.1238  0.6025
   41CHL1   C18 2987   6.268   6.331   3.795 -0.6894 -0.0563  0.4017
   41CHL1  H18A 2988   6.200   6.409   3.837 -1.6575 -0.7489  0.1418
   41CHL1  H18B 2989   6.242   6.305   3.691 -0.8155  1.1533  0.1134
   41CHL1  H18C 2990   6.260   6.242   3.861  3.2314 -0.4994  0.4695
   41CHL1   C12 2991   6.424   6.504   3.722 -0.3031  0.4826  0.4910
   41CHL1  H12A 2992   6.338   6.569   3.750 -1.8660 -0.0852 -2.5513
   41CHL1  H12B 2993   6.519   6.560   3.735  0.0323 -0.1503  0.8265
   41CHL1   C11 2994   6.403   6.486   3.572 -0.1471  0.0872 -0.1047
   41CHL1  H11A 2995   6.304   6.442   3.547  0.4337 -2.9663  2.3446
   41CHL1  H11B 2996   6.404   6.587   3.525 -0.5004 -0.0371 -0.3781
   41CHL1    C9 2997   6.493   6.379   3.509 -0.4436  0.0886  0.2645
   41CHL1    H9 2998   6.596   6.411   3.535  0.2552 -1.1421 -0.8575
   41CHL1   C10 2999   6.494   6.370   3.352  0.6797  0.1473 -0.6670
   41CHL1   C19 3000   6.333   6.349   3.312 -0.0493 -0.0186 -0.1868
   41CHL1  H19A 3001   6.295   6.452   3.328  0.6078 -0.1621  2.9551
   41CHL1  H19B 3002   6.329   6.315   3.206  0.9494 -1.3188  0.1630
   41CHL1  H19C 3003   6.271   6.282   3.376 -1.6566  1.9329  0.4007
   41CHL1    C1 3004   6.551   6.500   3.289 -0.2257 -0.2379  0.0256
   41CHL1   H1A 3005   6.490   6.590   3.312 -1.1667 -0.8667  0.0467
   41CHL1   H1B 3006   6.655   6.513   3.327 -0.6333  1.5637  0.5949
   41CHL1    C2 3007   6.566   6.496   3.139 -0.3773  0.1620  0.9768
   41CHL1   H2A 3008   6.605   6.593   3.101  1.2394 -1.0264 -0.5757
   41CHL1   H2B 3009   6.468   6.479   3.089 -0.2860  0.1473  0.8028
   41CHL1   C20 3010   6.363   6.413   4.052  0.4229  0.4122  0.1276
   41CHL1   H20 3011   6.278   6.342   4.047  1.4694 -0.7865 -1.3933
   41CHL1   C21 3012   6.321   6.562   4.028  0.3076  0.1474  0.3668
   41CHL1  H21A 3013   6.406   6.631   4.012  0.2425  0.1679  0.0941
   41CHL1  H21B 3014   6.270   6.601   4.118 -2.3811  2.3463 -1.9242
   41CHL1  H21C 3015   6.251   6.579   3.943  1.4426 -0.6561 -0.7534
   41CHL1   C22 3016   6.419   6.403   4.195 -0.4785 -0.1285 -0.8441
   41CHL1  H22A 3017   6.481   6.312   4.207 -0.4425  0.0493  0.5136
   41CHL1  H22B 3018   6.486   6.488   4.217  0.3290 -1.1164  0.6454
   41CHL1   C23 3019   6.314   6.397   4.306  0.3770 -0.7730  0.2655
   41CHL1  H23A 3020   6.246   6.483   4.289 -0.1986 -1.4033 -0.7203
   41CHL1  H23B 3021   6.266   6.297   4.298  1.3561 -1.3832  1.6736
   41CHL1   C24 3022   6.379   6.423   4.444 -0.8225 -0.3267 -0.7823
   41CHL1  H24A 3023   6.459   6.347   4.461 -1.6933 -1.1980 -0.4672
   41CHL1  H24B 3024   6.416   6.527   4.439 -0.7955 -0.2843  0.2277
   41CHL1   C25 3025   6.280   6.415   4.563 -0.0902 -0.8828 -0.0562
   41CHL1   H25 3026   6.329   6.462   4.651 -2.1067  2.5292 -0.5840
   41CHL1   C26 3027   6.152   6.495   4.536  0.1251  0.7369  0.1011
   41CHL1  H26A 3028   6.086   6.486   4.624 -1.4392  0.4199 -1.0506
   41CHL1  H26B 3029   6.172   6.604   4.535 -0.7683  0.9876  2.6601
   41CHL1  H26C 3030   6.093   6.466   4.446 -0.2057  0.1785  0.4938
   41CHL1   C27 3031   6.241   6.267   4.582 -0.0246  0.2381 -0.3551
   41CHL1  H27A 3032   6.199   6.230   4.486  1.2142 -1.1165 -0.3892
   41CHL1  H27B 3033   6.331   6.205   4.595 -0.9173 -0.9871  0.1759
   41CHL1  H27C 3034   6.179   6.241   4.671  0.3729 -0.1531 -0.1902
   42CHL1    C3 3035   2.573   2.865   2.832  0.6008 -0.3096 -0.0733
   42CHL1    H3 3036   2.468   2.902   2.841  0.1220 -1.6832  0.2577
   42CHL1    O3 3037   2.591   2.836   2.698 -0.3389  0.1977  0.8005
   42CHL1   H3' 3038   2.680   2.800   2.688 -0.8384 -0.4794 -2.0236
   42CHL1    C4 3039   2.681   2.959   2.877  0.5179 -0.0818 -0.2224
   42CHL1   H4A 3040   2.774   2.903   2.851 -1.7523 -4.3965  0.0764
   42CHL1   H4B 3041   2.676   3.056   2.823 -1.2637 -0.6741 -1.1621
   42CHL1    C5 3042   2.670   2.982   3.029  0.7686  0.3258  0.0798
   42CHL1    C6 3043   2.653   3.102   3.071  0.1538  0.1142 -0.8938
   42CHL1    H6 3044   2.652   3.182   2.996  1.0005  0.9958  0.0035
   42CHL1    C7 3045   2.655   3.133   3.220 -0.5273  0.2192  0.1153
   42CHL1   H7A 3046   2.732   3.210   3.242  0.6178 -0.6016 -0.9058
   42CHL1   H7B 3047   2.558   3.178   3.250 -1.9148 -1.8815 -0.9873
   42CHL1    C8 3048   2.685   3.013   3.313  0.0306  0.0763 -0.2341
   42CHL1    H8 3049   2.796   3.001   3.317 -0.0651 -1.3976 -1.2679
   42CHL1   C14 3050   2.626   3.052   3.452  0.0259 -0.5127  0.3237
   42CHL1   H14 3051   2.517   3.064   3.437  0.1184  0.0058  0.0424
   42CHL1   C15 3052   2.676   3.180   3.522  0.0783 -0.0486  0.1463
   42CHL1  H15A 3053   2.773   3.219   3.486 -0.7801  2.1846  0.1322
   42CHL1  H15B 3054   2.610   3.263   3.491 -1.1379 -1.3377 -0.8882
   42CHL1   C16 3055   2.634   3.159   3.670 -0.0468  0.1401  0.3928
   42CHL1  H16A 3056   2.724   3.166   3.734  0.0057 -1.6674  0.5672
   42CHL1  H16B 3057   2.566   3.237   3.710  0.1088 -1.4000  3.9742
   42CHL1   C17 3058   2.583   3.010   3.684 -0.5274  0.1714  0.0731
   42CHL1   H17 3059   2.476   3.014   3.654 -0.2306  0.5392 -1.0020
   42CHL1   C13 3060   2.645   2.939   3.555 -0.6121 -0.2358  0.7898
   42CHL1   C18 3061   2.793   2.917   3.580 -1.0613 -0.5330 -0.3290
   42CHL1  H18A 3062   2.855   2.886   3.494  0.4805 -1.8158  1.1882
   42CHL1  H18B 3063   2.847   3.007   3.616 -0.3849 -0.5298 -1.3059
   42CHL1  H18C 3064   2.801   2.838   3.658 -3.1964  1.3940  2.0499
   42CHL1   C12 3065   2.569   2.811   3.508  0.3283 -0.1793 -0.2537
   42CHL1  H12A 3066   2.605   2.734   3.580 -2.1928 -1.8070 -0.5845
   42CHL1  H12B 3067   2.463   2.843   3.519  0.2992 -0.5165  0.5426
   42CHL1   C11 3068   2.612   2.781   3.367 -1.0572  0.0368 -0.1429
   42CHL1  H11A 3069   2.723   2.779   3.364 -1.0325  1.3986 -1.4921
   42CHL1  H11B 3070   2.562   2.691   3.324  0.3677  0.0017 -1.8691
   42CHL1    C9 3071   2.607   2.892   3.259 -0.4085  0.0114 -0.5364
   42CHL1    H9 3072   2.499   2.920   3.262 -0.1397  1.1973 -1.1106
   42CHL1   C10 3073   2.658   2.856   3.122 -0.3188  0.1284  0.2775
   42CHL1   C19 3074   2.807   2.798   3.125  0.1257 -0.1831  0.5123
   42CHL1  H19A 3075   2.824   2.769   3.019  0.5996  1.4002  0.1115
   42CHL1  H19B 3076   2.882   2.873   3.159 -1.1436  1.0522  0.6755
   42CHL1  H19C 3077   2.812   2.706   3.186  1.3504  0.2445  1.0898
   42CHL1    C1 3078   2.557   2.750   3.058  0.1086  0.3591  0.0089
   42CHL1   H1A 3079   2.565   2.648   3.103 -1.4451 -0.3339 -1.1536
   42CHL1   H1B 3080   2.454   2.789   3.074 -0.2487  0.2031 -1.7157
   42CHL1    C2 3081   2.577   2.734   2.905  0.0866  0.2565  0.1008
   42CHL1   H2A 3082   2.487   2.678   2.873 -0.2461  1.2765 -0.8079
   42CHL1   H2B 3083   2.669   2.673   2.889 -0.5395 -0.4926 -0.7922
   42CHL1   C20 3084   2.583   2.944   3.820 -0.5396 -0.3147  0.6440
   42CHL1   H20 3085   2.589   2.835   3.801  1.6593  0.1852 -2.3207
   42CHL1   C21 3086   2.448   2.972   3.890  0.6943  0.0736 -0.0035
   42CHL1  H21A 3087   2.429   3.082   3.892  0.1690 -0.0287  1.7512
   42CHL1  H21B 3088   2.440   2.931   3.992 -1.1650 -1.5720 -0.7616
   42CHL1  H21C 3089   2.361   2.934   3.833  0.8490  0.3731 -0.4551
   42CHL1   C22 3090   2.701   2.970   3.907 -0.5477 -0.2702  0.4828
   42CHL1  H22A 3091   2.790   3.000   3.848 -1.0150 -0.4338 -0.3146
   42CHL1  H22B 3092   2.663   3.060   3.961  2.0758  1.6295 -0.6000
   42CHL1   C23 3093   2.738   2.852   4.003 -0.2110 -0.8486 -0.2031
   42CHL1  H23A 3094   2.645   2.801   4.035  0.6740 -0.7683  2.8436
   42CHL1  H23B 3095   2.793   2.772   3.949  2.0771  1.8215 -2.1205
   42CHL1   C24 3096   2.831   2.893   4.116 -0.0732 -0.1582 -0.0277
   42CHL1  H24A 3097   2.924   2.942   4.080  1.2139 -3.1502 -1.1312
   42CHL1  H24B 3098   2.762   2.965   4.165 -0.2352  0.1503 -0.7096
   42CHL1   C25 3099   2.864   2.786   4.225 -0.1767  0.3422  0.3775
   42CHL1   H25 3100   2.765   2.740   4.250 -1.3034  1.7473 -1.2925
   42CHL1   C26 3101   2.974   2.693   4.171  0.7823  0.4995 -0.8758
   42CHL1  H26A 3102   2.998   2.623   4.254  1.3874  1.4543 -0.2361
   42CHL1  H26B 3103   2.938   2.635   4.083  0.1525 -1.2623  0.4748
   42CHL1  H26C 3104   3.065   2.753   4.151  0.7390  0.2079 -2.0223
   42CHL1   C27 3105   2.916   2.859   4.352  1.0581  0.7809  0.4073
   42CHL1  H27A 3106   2.848   2.940   4.386  0.7318  1.2772 -1.3391
   42CHL1  H27B 3107   2.916   2.775   4.425  1.0019 -0.8149 -1.3445
   42CHL1  H27C 3108   3.021   2.895   4.350  1.5409 -0.5214  1.0039
   43CHL1    C3 3109   0.376   5.509   2.803  0.4118 -0.2751  0.7735
   43CHL1    H3 3110   0.279   5.459   2.785  1.4545 -2.8785  1.9247
   43CHL1    O3 3111   0.450   5.488   2.680 -0.0063 -0.0330 -0.0702
   43CHL1   H3' 3112   0.493   5.574   2.676  0.0052  0.1270  2.3045
   43CHL1    C4 3113   0.368   5.655   2.842 -0.3312  0.2864  0.4551
   43CHL1   H4A 3114   0.470   5.694   2.864 -0.0040 -1.4530  2.4069
   43CHL1   H4B 3115   0.338   5.711   2.751  0.8236 -1.0116 -0.7799
   43CHL1    C5 3116   0.283   5.676   2.964  0.1352 -0.0977 -0.2564
   43CHL1    C6 3117   0.171   5.754   2.972  0.1267  0.0115  0.3619
   43CHL1    H6 3118   0.137   5.794   2.875  2.4784 -1.6442 -1.2883
   43CHL1    C7 3119   0.088   5.789   3.093 -0.2400  0.6277 -0.4080
   43CHL1   H7A 3120   0.055   5.895   3.091 -3.9475 -0.3688 -0.4981
   43CHL1   H7B 3121  -0.011   5.737   3.098  0.2118 -0.1742  0.6758
   43CHL1    C8 3122   0.177   5.755   3.222  0.4571 -0.3087  1.2908
   43CHL1    H8 3123   0.249   5.839   3.228 -1.1760  1.1414  1.4048
   43CHL1   C14 3124   0.086   5.760   3.345  0.4583  0.0960  0.1586
   43CHL1   H14 3125  -0.002   5.692   3.334  1.8102 -1.4116 -2.2915
   43CHL1   C15 3126   0.019   5.891   3.384  0.3641  0.6029 -0.2724
   43CHL1  H15A 3127   0.090   5.976   3.383 -0.0972  1.0283  1.0392
   43CHL1  H15B 3128  -0.069   5.909   3.318 -0.0504 -3.9877 -1.3041
   43CHL1   C16 3129  -0.035   5.864   3.529  0.0595 -0.1907 -0.1397
   43CHL1  H16A 3130  -0.013   5.959   3.582  1.2877 -1.2849  1.4000
   43CHL1  H16B 3131  -0.144   5.844   3.531 -0.3469  1.8993  1.1201
   43CHL1   C17 3132   0.027   5.734   3.578 -0.2887 -1.3991 -0.0598
   43CHL1   H17 3133  -0.050   5.657   3.557 -2.2470  0.7592 -1.3765
   43CHL1   C13 3134   0.143   5.708   3.476 -0.3012  0.0800 -0.6852
   43CHL1   C18 3135   0.261   5.804   3.520 -0.4788 -1.2849 -0.4698
   43CHL1  H18A 3136   0.348   5.807   3.450 -0.5408 -0.4573 -0.5278
   43CHL1  H18B 3137   0.216   5.904   3.540  1.1086 -0.6662  0.1728
   43CHL1  H18C 3138   0.297   5.772   3.620 -1.8666  2.2165  1.3180
   43CHL1   C12 3139   0.196   5.570   3.458 -0.3537  0.3814 -0.1218
   43CHL1  H12A 3140   0.251   5.534   3.548  0.6450 -0.8607 -1.1881
   43CHL1  H12B 3141   0.109   5.506   3.434  1.3194 -1.9317 -0.4252
   43CHL1   C11 3142   0.296   5.561   3.335 -0.5895  0.0035  0.3746
   43CHL1  H11A 3143   0.380   5.628   3.365 -0.0586  0.7876 -2.5698
   43CHL1  H11B 3144   0.342   5.461   3.324 -1.7643 -0.2714 -3.1343
   43CHL1    C9 3145   0.239   5.620   3.206  0.4469 -0.1240  0.4039
   43CHL1    H9 3146   0.165   5.539   3.187  0.6194 -0.4007  0.9196
   43CHL1   C10 3147   0.341   5.610   3.092  0.1688 -0.3496 -0.2444
   43CHL1   C19 3148   0.477   5.676   3.139 -0.6408 -0.4553  0.5599
   43CHL1  H19A 3149   0.521   5.638   3.234  1.2993  4.1109  1.7628
   43CHL1  H19B 3150   0.546   5.651   3.055  0.6267 -0.5015  1.5902
   43CHL1  H19C 3151   0.479   5.787   3.145  0.8803 -0.3378 -1.1394
   43CHL1    C1 3152   0.367   5.463   3.049  0.0166 -0.6908 -0.1802
   43CHL1   H1A 3153   0.416   5.411   3.134  2.0137 -1.0694 -1.4849
   43CHL1   H1B 3154   0.267   5.414   3.052 -0.7374  0.8456  1.1573
   43CHL1    C2 3155   0.449   5.438   2.915 -0.2353  0.6320 -0.4267
   43CHL1   H2A 3156   0.452   5.328   2.906  1.5319  0.6733 -0.6407
   43CHL1   H2B 3157   0.554   5.476   2.922  1.7573 -4.0892 -1.2578
   43CHL1   C20 3158   0.044   5.730   3.731  0.1383  0.1134 -0.6918
   43CHL1   H20 3159   0.122   5.805   3.755 -1.3987  1.5675 -0.0222
   43CHL1   C21 3160   0.088   5.591   3.771  0.0126  0.4205 -0.3859
   43CHL1  H21A 3161   0.083   5.581   3.882 -2.1251  0.5999 -0.4289
   43CHL1  H21B 3162   0.192   5.561   3.747 -0.4262  0.1018 -1.9499
   43CHL1  H21C 3163   0.018   5.510   3.741 -0.0850  0.1082  0.6309
   43CHL1   C22 3164  -0.084   5.770   3.811  0.0462 -0.3642 -0.0036
   43CHL1  H22A 3165  -0.116   5.863   3.759 -0.6113  0.4905  1.8343
   43CHL1  H22B 3166  -0.170   5.703   3.790  0.5521 -0.9592 -0.1985
   43CHL1   C23 3167  -0.069   5.799   3.959  0.3745  0.2353  0.4342
   43CHL1  H23A 3168  -0.047   5.711   4.023  0.5172  1.0871  1.5894
   43CHL1  H23B 3169   0.020   5.864   3.975 -0.6076  2.1139 -1.1974
   43CHL1   C24 3170  -0.196   5.858   4.020 -0.5302  0.0197  0.6918
   43CHL1  H24A 3171  -0.227   5.944   3.956  0.1559 -0.1434  0.1257
   43CHL1  H24B 3172  -0.267   5.773   4.031  2.0709 -2.2936  0.7445
   43CHL1   C25 3173  -0.187   5.905   4.169 -0.5287  0.1649 -0.3828
   43CHL1   H25 3174  -0.282   5.957   4.193 -0.0212  0.2679  1.5611
   43CHL1   C26 3175  -0.160   5.791   4.273 -0.3825 -0.2552 -0.7359
   43CHL1  H26A 3176  -0.064   5.746   4.240  0.5296  0.2425  1.0701
   43CHL1  H26B 3177  -0.141   5.840   4.371  3.2427 -0.8437 -1.0194
   43CHL1  H26C 3178  -0.244   5.718   4.274 -2.7648  2.3091 -2.4555
   43CHL1   C27 3179  -0.080   6.015   4.188  0.1417 -0.7519 -0.1430
   43CHL1  H27A 3180   0.022   5.974   4.172 -0.2282 -2.2233  1.0859
   43CHL1  H27B 3181  -0.099   6.104   4.124  1.6305 -1.4938 -1.7052
   43CHL1  H27C 3182  -0.079   6.046   4.294 -0.9879 -2.7303  0.5022
   44CHL1    C3 3183   3.766   5.353   2.610 -0.1275 -0.1204 -0.1579
   44CHL1    H3 3184   3.762   5.464   2.611 -2.5453 -0.1526  0.9781
   44CHL1    O3 3185   3.706   5.301   2.490  0.3983  0.5430 -0.7346
   44CHL1   H3' 3186   3.677   5.210   2.502  1.6448  0.1504 -0.5204
   44CHL1    C4 3187   3.918   5.314   2.634 -0.1885  0.0750  0.6478
   44CHL1   H4A 3188   3.921   5.204   2.624 -0.2456  0.1623 -0.4236
   44CHL1   H4B 3189   3.978   5.362   2.554  0.5287  2.1875  2.3466
   44CHL1    C5 3190   3.965   5.367   2.772 -0.2130 -0.3265  0.6958
   44CHL1    C6 3191   4.068   5.452   2.771  1.0390 -0.2486 -0.2273
   44CHL1    H6 3192   4.108   5.486   2.675  1.1308 -0.4677 -0.2661
   44CHL1    C7 3193   4.130   5.511   2.892 -1.1309  0.0525 -0.0460
   44CHL1   H7A 3194   4.240   5.523   2.886 -0.9632 -1.4601 -0.3239
   44CHL1   H7B 3195   4.087   5.613   2.906 -1.3714 -0.0988  0.3601
   44CHL1    C8 3196   4.093   5.428   3.014 -0.2902 -0.3968 -0.1015
   44CHL1    H8 3197   4.129   5.323   3.005  0.9457  0.0017  0.0177
   44CHL1   C14 3198   4.143   5.490   3.146 -0.2825  0.5372 -0.5821
   44CHL1   H14 3199   4.106   5.594   3.154  1.0117  0.9535  0.2166
   44CHL1   C15 3200   4.294   5.490   3.170  0.2685  0.1666  0.1542
   44CHL1  H15A 3201   4.328   5.390   3.136  2.2715  0.7339  0.3645
   44CHL1  H15B 3202   4.346   5.566   3.107  1.0694  0.5982  1.3061
   44CHL1   C16 3203   4.316   5.491   3.324 -0.5962 -0.0481  0.1425
   44CHL1  H16A 3204   4.378   5.401   3.340  1.0793  1.2046  0.9533
   44CHL1  H16B 3205   4.377   5.582   3.342 -0.0735 -0.0504 -1.4313
   44CHL1   C17 3206   4.176   5.487   3.382  0.4298 -0.4470  0.0785
   44CHL1   H17 3207   4.146   5.594   3.386 -0.1269 -0.6189  0.6931
   44CHL1   C13 3208   4.090   5.415   3.269 -0.4624  0.2011 -0.5258
   44CHL1   C18 3209   4.123   5.270   3.277 -0.2976  0.1365  0.1237
   44CHL1  H18A 3210   4.232   5.268   3.258 -0.4844  1.6666 -1.3642
   44CHL1  H18B 3211   4.081   5.215   3.364 -0.1996  1.1328  0.8216
   44CHL1  H18C 3212   4.073   5.219   3.191  1.6660 -0.0006 -0.9933
   44CHL1   C12 3213   3.935   5.440   3.283  0.6773  0.0971 -0.7783
   44CHL1  H12A 3214   3.892   5.391   3.374 -0.1025  0.0191 -1.1847
   44CHL1  H12B 3215   3.917   5.548   3.302 -4.0984 -0.5064 -0.5415
   44CHL1   C11 3216   3.873   5.385   3.150  0.1274 -0.6479 -0.3483
   44CHL1  H11A 3217   3.857   5.276   3.164 -0.6647 -0.5470 -0.4379
   44CHL1  H11B 3218   3.770   5.426   3.148 -0.3260 -1.7229  0.2349
   44CHL1    C9 3219   3.939   5.418   3.013 -0.4360  0.3173  0.5152
   44CHL1    H9 3220   3.904   5.522   2.999 -0.5908  0.2923  0.7242
   44CHL1   C10 3221   3.882   5.326   2.897  0.5661 -0.5262  0.0696
   44CHL1   C19 3222   3.924   5.175   2.908 -0.5758 -0.3358  0.1323
   44CHL1  H19A 3223   3.902   5.129   2.810  0.9978  2.2925 -1.5632
   44CHL1  H19B 3224   4.035   5.168   2.914 -0.3875  0.5437 -1.6881
   44CHL1  H19C 3225   3.873   5.116   2.987 -0.2408 -0.2012  0.4542
   44CHL1    C1 3226   3.734   5.346   2.871  0.1180  0.8155  0.6126
   44CHL1   H1A 3227   3.670   5.306   2.953 -1.7137  0.7024 -0.7917
   44CHL1   H1B 3228   3.723   5.456   2.880 -0.4166  1.0210 -1.8627
   44CHL1    C2 3229   3.684   5.298   2.730 -0.0251  0.2403 -0.0438
   44CHL1   H2A 3230   3.575   5.319   2.733 -0.4199 -1.3509 -1.4339
   44CHL1   H2B 3231   3.698   5.187   2.734 -1.1002  0.0827 -0.2539
   44CHL1   C20 3232   4.154   5.438   3.528  0.3566 -0.2759  0.1380
   44CHL1   H20 3233   4.047   5.409   3.530 -0.1142  1.0919 -1.7903
   44CHL1   C21 3234   4.167   5.561   3.624  0.3144  0.4096  0.3850
   44CHL1  H21A 3235   4.273   5.586   3.649 -0.0021  2.6259 -0.2139
   44CHL1  H21B 3236   4.103   5.544   3.713 -2.0657 -1.2826 -1.5412
   44CHL1  H21C 3237   4.119   5.652   3.582 -0.5141  0.2851  1.0256
   44CHL1   C22 3238   4.245   5.325   3.575  0.0677  0.0994 -0.1107
   44CHL1  H22A 3239   4.239   5.246   3.497  1.0701 -0.4666  0.3625
   44CHL1  H22B 3240   4.348   5.365   3.575 -0.3638  1.5993 -4.0259
   44CHL1   C23 3241   4.234   5.270   3.716 -0.2582  0.5854 -0.8152
   44CHL1  H23A 3242   4.309   5.189   3.731 -0.3128  0.8503  1.1654
   44CHL1  H23B 3243   4.254   5.353   3.787 -0.3532 -0.3077  0.2802
   44CHL1   C24 3244   4.102   5.201   3.757  0.1932  0.3189 -0.5957
   44CHL1  H24A 3245   4.019   5.275   3.766  0.4938  0.5044  0.9589
   44CHL1  H24B 3246   4.070   5.128   3.679 -1.5847  0.7652 -0.3165
   44CHL1   C25 3247   4.111   5.124   3.889  0.0366  0.2755 -0.5086
   44CHL1   H25 3248   4.187   5.043   3.879 -0.8543 -0.6163 -0.1832
   44CHL1   C26 3249   4.152   5.216   4.000  0.2119  0.6385 -0.0698
   44CHL1  H26A 3250   4.253   5.256   3.978  1.2204 -1.1673  1.0128
   44CHL1  H26B 3251   4.070   5.291   4.008 -1.1622 -0.6768 -1.1608
   44CHL1  H26C 3252   4.168   5.156   4.092  1.2064 -1.1971 -1.3859
   44CHL1   C27 3253   3.983   5.057   3.934 -0.4933 -0.9046 -0.0812
   44CHL1  H27A 3254   3.900   5.127   3.959  1.5594  2.1227 -1.1368
   44CHL1  H27B 3255   3.952   4.985   3.856 -0.5913  0.1775 -1.0764
   44CHL1  H27C 3256   4.003   5.001   4.028 -0.7812 -1.7420 -0.5080
   45CHL1    C3 3257   4.542   6.706   2.831  0.2361 -0.2328 -0.0446
   45CHL1    H3 3258   4.622   6.632   2.856  0.4777 -0.4544 -1.4052
   45CHL1    O3 3259   4.525   6.715   2.690 -0.5294  0.1348 -0.1019
   45CHL1   H3' 3260   4.447   6.769   2.676 -0.8917 -0.6781 -1.4868
   45CHL1    C4 3261   4.400   6.688   2.882  0.1995  0.0330 -0.1187
   45CHL1   H4A 3262   4.332   6.767   2.844 -0.3795 -0.8804 -1.0246
   45CHL1   H4B 3263   4.359   6.594   2.841 -0.0502 -0.6325  1.5950
   45CHL1    C5 3264   4.392   6.693   3.035  0.1402  0.0031 -0.1224
   45CHL1    C6 3265   4.350   6.587   3.101  0.0909 -0.0611  0.2480
   45CHL1    H6 3266   4.308   6.509   3.035  0.5259 -1.1583  1.2269
   45CHL1    C7 3267   4.340   6.583   3.249  0.4165  0.6407 -0.5145
   45CHL1   H7A 3268   4.231   6.567   3.262  0.5978  0.2228  0.6042
   45CHL1   H7B 3269   4.389   6.495   3.296 -1.0803 -0.4364 -0.8836
   45CHL1    C8 3270   4.366   6.717   3.318  0.3038  0.6466 -0.2638
   45CHL1    H8 3271   4.280   6.786   3.302  0.4836  1.1482  0.8839
   45CHL1   C14 3272   4.410   6.696   3.457  0.0784  0.1643 -0.5295
   45CHL1   H14 3273   4.504   6.635   3.456 -0.2726 -0.4580  1.1605
   45CHL1   C15 3274   4.318   6.608   3.553 -0.1497  0.4155  1.3751
   45CHL1  H15A 3275   4.209   6.622   3.540 -0.1784  0.3813  1.5726
   45CHL1  H15B 3276   4.335   6.499   3.542 -0.0312  0.6409 -1.7149
   45CHL1   C16 3277   4.368   6.645   3.691  0.5212 -0.3154  0.2989
   45CHL1  H16A 3278   4.278   6.663   3.753 -0.6596  0.6690 -1.6157
   45CHL1  H16B 3279   4.419   6.562   3.745 -0.6953  0.1128  2.2109
   45CHL1   C17 3280   4.461   6.770   3.677  0.4298 -0.8793  0.3504
   45CHL1   H17 3281   4.562   6.725   3.661  0.0949 -1.7943  0.7331
   45CHL1   C13 3282   4.425   6.825   3.541  0.5536 -0.3900  0.9365
   45CHL1   C18 3283   4.290   6.907   3.536  0.4928 -0.3300  0.2103
   45CHL1  H18A 3284   4.274   6.950   3.435 -0.1444  0.3648  0.6006
   45CHL1  H18B 3285   4.199   6.851   3.564  0.1577 -0.7306 -1.5301
   45CHL1  H18C 3286   4.292   6.989   3.610  3.5358  0.0487 -0.1381
   45CHL1   C12 3287   4.544   6.898   3.476  0.0807 -0.7312 -0.1943
   45CHL1  H12A 3288   4.572   6.995   3.523 -2.1178 -0.9754  1.8314
   45CHL1  H12B 3289   4.630   6.829   3.473 -0.4489 -1.6041  2.4422
   45CHL1   C11 3290   4.519   6.920   3.323 -0.3966 -0.5745 -0.4164
   45CHL1  H11A 3291   4.449   7.003   3.302  0.9412  0.4296 -0.9951
   45CHL1  H11B 3292   4.611   6.966   3.283 -0.5975  0.4624  0.2678
   45CHL1    C9 3293   4.483   6.790   3.248 -0.6649 -0.1196 -0.0429
   45CHL1    H9 3294   4.576   6.729   3.253  0.4128  1.3715 -1.2087
   45CHL1   C10 3295   4.455   6.821   3.097  0.5224  0.4886  0.1679
   45CHL1   C19 3296   4.354   6.933   3.064 -0.0794  0.9250  0.0583
   45CHL1  H19A 3297   4.398   7.031   3.093  0.2865  0.9363 -0.5321
   45CHL1  H19B 3298   4.327   6.935   2.956 -0.9939  0.0007  0.2546
   45CHL1  H19C 3299   4.271   6.915   3.136  2.0913 -3.0158  1.8837
   45CHL1    C1 3300   4.591   6.852   3.024 -0.3826 -0.0507  0.2007
   45CHL1   H1A 3301   4.628   6.953   3.051 -0.2196 -0.0832  0.0999
   45CHL1   H1B 3302   4.647   6.767   3.067 -1.0882 -0.9844 -0.6702
   45CHL1    C2 3303   4.593   6.843   2.875  0.6506 -0.6730  0.1649
   45CHL1   H2A 3304   4.699   6.860   2.846  0.3733  0.0839 -0.4612
   45CHL1   H2B 3305   4.533   6.929   2.838 -0.2283 -1.4972 -0.3783
   45CHL1   C20 3306   4.457   6.860   3.799 -0.2240  0.6567 -0.5226
   45CHL1   H20 3307   4.354   6.900   3.807 -1.2308 -1.9128  0.4793
   45CHL1   C21 3308   4.540   6.984   3.778 -0.4964  0.3069  0.7619
   45CHL1  H21A 3309   4.635   6.953   3.731 -1.3331  0.4700 -1.1200
   45CHL1  H21B 3310   4.566   7.038   3.872 -0.8571 -0.1594  1.1365
   45CHL1  H21C 3311   4.492   7.050   3.703 -0.6096 -1.5147 -0.8406
   45CHL1   C22 3312   4.486   6.777   3.924  0.1025  0.5524 -1.7516
   45CHL1  H22A 3313   4.429   6.682   3.928 -2.0901  1.7789 -2.3055
   45CHL1  H22B 3314   4.597   6.763   3.927  0.1578  1.1398 -0.0500
   45CHL1   C23 3315   4.448   6.856   4.050  0.0951 -0.5480 -0.6796
   45CHL1  H23A 3316   4.527   6.934   4.051 -0.8407  0.4618 -1.6771
   45CHL1  H23B 3317   4.352   6.905   4.022  0.7855  1.0130 -0.4416
   45CHL1   C24 3318   4.439   6.784   4.189  0.2911  0.1807  0.6973
   45CHL1  H24A 3319   4.362   6.705   4.184  0.1966  0.0523  3.1589
   45CHL1  H24B 3320   4.535   6.741   4.226 -0.1267 -0.5422  0.9570
   45CHL1   C25 3321   4.380   6.875   4.299  0.1696 -0.7244 -0.2010
   45CHL1   H25 3322   4.444   6.965   4.311  1.1203 -1.5064  0.9369
   45CHL1   C26 3323   4.243   6.929   4.274  0.9413 -0.2380  0.0969
   45CHL1  H26A 3324   4.214   7.011   4.343 -1.4786  0.0941 -1.2220
   45CHL1  H26B 3325   4.239   6.986   4.179 -0.5683 -2.2080 -1.1040
   45CHL1  H26C 3326   4.169   6.846   4.273  1.1861 -0.4498 -1.0366
   45CHL1   C27 3327   4.383   6.802   4.435  1.1471 -0.1775 -0.7077
   45CHL1  H27A 3328   4.483   6.758   4.459  1.7530  1.8225  0.6499
   45CHL1  H27B 3329   4.355   6.881   4.508 -3.3226 -2.2198  0.1388
   45CHL1  H27C 3330   4.305   6.723   4.432  0.8827  0.1122 -2.4834
   46CHL1    C3 3331   1.204   6.706   3.049 -0.4966  0.1034  0.2486
   46CHL1    H3 3332   1.242   6.607   3.083  2.3349  0.7488 -0.8461
   46CHL1    O3 3333   1.231   6.696   2.912 -0.2066  0.6892 -0.0614
   46CHL1   H3' 3334   1.196   6.779   2.878 -1.6098 -0.3983 -1.4540
   46CHL1    C4 3335   1.054   6.722   3.070 -0.5859  0.1304 -0.2394
   46CHL1   H4A 3336   1.028   6.824   3.033  0.3418  0.5683  0.2722
   46CHL1   H4B 3337   1.002   6.648   3.006  1.6852 -0.9229 -0.9722
   46CHL1    C5 3338   1.023   6.707   3.219  0.5888 -0.3760  0.6121
   46CHL1    C6 3339   0.940   6.611   3.263 -0.9216  0.5115 -0.0966
   46CHL1    H6 3340   0.896   6.540   3.191  0.4307 -1.7514  1.1552
   46CHL1    C7 3341   0.912   6.581   3.412 -0.1207  0.4014  0.3731
   46CHL1   H7A 3342   0.802   6.582   3.425 -0.0995 -0.8976  0.8249
   46CHL1   H7B 3343   0.955   6.484   3.445 -0.4064 -0.0070 -0.4374
   46CHL1    C8 3344   0.967   6.690   3.515  0.0134  0.0357 -0.0354
   46CHL1    H8 3345   0.891   6.771   3.516 -0.8544 -0.7695  0.0579
   46CHL1   C14 3346   0.985   6.637   3.659 -0.2598 -0.4412 -0.1840
   46CHL1   H14 3347   1.049   6.546   3.657  2.3320  1.2773 -0.8796
   46CHL1   C15 3348   0.853   6.591   3.733 -0.1785  0.1906 -0.8339
   46CHL1  H15A 3349   0.772   6.658   3.699 -1.9563 -1.7369 -0.6605
   46CHL1  H15B 3350   0.838   6.493   3.683  2.1202  1.5105 -4.5211
   46CHL1   C16 3351   0.878   6.595   3.884 -0.6513  0.2168 -0.1221
   46CHL1  H16A 3352   0.803   6.654   3.942  1.4275  1.4796  1.3953
   46CHL1  H16B 3353   0.872   6.489   3.919 -0.6284 -0.2160 -1.3972
   46CHL1   C17 3354   1.020   6.661   3.892 -0.1383 -0.0902 -0.4217
   46CHL1   H17 3355   1.095   6.579   3.898  2.8607  2.5013  0.0026
   46CHL1   C13 3356   1.046   6.737   3.752  0.5613 -0.1904 -0.8809
   46CHL1   C18 3357   0.964   6.870   3.768  0.4289  0.2557  0.4695
   46CHL1  H18A 3358   0.870   6.856   3.827 -0.6927  0.1163 -1.2822
   46CHL1  H18B 3359   1.019   6.950   3.821  2.6682  0.6475 -2.2390
   46CHL1  H18C 3360   0.935   6.905   3.667 -2.0747 -0.6745  0.7864
   46CHL1   C12 3361   1.187   6.775   3.711  1.2469 -0.4870 -0.0182
   46CHL1  H12A 3362   1.244   6.848   3.773 -1.6365  1.9140 -0.0082
   46CHL1  H12B 3363   1.246   6.684   3.733  1.3960 -0.0912  1.3019
   46CHL1   C11 3364   1.178   6.834   3.572 -0.1012 -0.2224  0.2771
   46CHL1  H11A 3365   1.120   6.929   3.570 -2.5602 -1.6468 -0.9112
   46CHL1  H11B 3366   1.286   6.841   3.549 -0.0766 -2.0335 -0.2900
   46CHL1    C9 3367   1.105   6.735   3.469  0.9534  0.1489  0.2375
   46CHL1    H9 3368   1.162   6.641   3.457 -0.6178 -0.6524 -1.4489
   46CHL1   C10 3369   1.104   6.793   3.316 -0.0609 -0.4085 -0.1185
   46CHL1   C19 3370   1.032   6.929   3.312 -0.0764 -0.0193 -0.2401
   46CHL1  H19A 3371   1.055   6.985   3.219 -0.5581 -1.0832 -1.0255
   46CHL1  H19B 3372   0.921   6.926   3.312 -0.2024  1.9270 -2.0542
   46CHL1  H19C 3373   1.062   6.991   3.399 -1.3614  0.0178  0.1981
   46CHL1    C1 3374   1.252   6.811   3.273 -0.1386 -0.5843  0.5986
   46CHL1   H1A 3375   1.291   6.904   3.319  1.5723 -1.3046  0.6622
   46CHL1   H1B 3376   1.305   6.731   3.329  1.1801 -0.3157 -0.2173
   46CHL1    C2 3377   1.276   6.820   3.121 -0.2975 -0.0117  0.2541
   46CHL1   H2A 3378   1.386   6.817   3.105 -0.0583  2.1425  1.1781
   46CHL1   H2B 3379   1.234   6.918   3.089  0.0879 -0.2262 -1.0008
   46CHL1   C20 3380   1.038   6.733   4.025 -0.6498 -0.6689  0.5651
   46CHL1   H20 3381   0.972   6.823   4.022  0.9527  0.5319 -0.1466
   46CHL1   C21 3382   1.172   6.809   4.050  0.1415 -0.4740  0.2042
   46CHL1  H21A 3383   1.152   6.883   4.131  0.5077 -1.6841  1.4325
   46CHL1  H21B 3384   1.190   6.879   3.966 -0.6387  1.8073  1.8323
   46CHL1  H21C 3385   1.260   6.746   4.074  0.1653 -0.2217  0.7880
   46CHL1   C22 3386   1.002   6.644   4.153  0.1609  0.5147  0.9283
   46CHL1  H22A 3387   1.003   6.710   4.243 -1.7678 -1.0573  2.1838
   46CHL1  H22B 3388   0.893   6.624   4.147  0.5000 -1.2699  0.0968
   46CHL1   C23 3389   1.072   6.516   4.165 -0.2606 -0.0788 -0.0347
   46CHL1  H23A 3390   1.057   6.460   4.071 -4.0060  1.5853 -0.6023
   46CHL1  H23B 3391   1.179   6.521   4.194 -0.0627 -0.7937 -0.6214
   46CHL1   C24 3392   1.004   6.430   4.268  0.3007 -0.3102  0.9471
   46CHL1  H24A 3393   1.028   6.464   4.371 -0.2648  1.6255  0.4873
   46CHL1  H24B 3394   0.893   6.431   4.260  0.3529 -0.6205 -0.0284
   46CHL1   C25 3395   1.060   6.284   4.262 -0.7065  0.0375 -0.5712
   46CHL1   H25 3396   1.064   6.244   4.158  1.2029 -0.9709 -0.1492
   46CHL1   C26 3397   1.203   6.273   4.327 -0.1999  0.2545  0.3283
   46CHL1  H26A 3398   1.246   6.171   4.327  1.9515  1.1218  0.6907
   46CHL1  H26B 3399   1.275   6.344   4.281 -0.5424  0.5524  0.2425
   46CHL1  H26C 3400   1.195   6.301   4.434  1.4327 -0.9027  0.7862
   46CHL1   C27 3401   0.956   6.194   4.325 -0.9021 -1.4243  0.1246
   46CHL1  H27A 3402   0.975   6.087   4.301 -0.5379 -1.0844 -1.2173
   46CHL1  H27B 3403   0.964   6.206   4.435 -0.6195  0.4713 -0.0699
   46CHL1  H27C 3404   0.852   6.227   4.300 -0.3108  0.2564 -0.2412
   47CHL1    C3 3405   0.715   0.435   3.018  0.2857 -0.1137 -0.2021
   47CHL1    H3 3406   0.825   0.423   3.025  0.4680  1.2900 -0.4150
   47CHL1    O3 3407   0.697   0.426   2.880 -0.1411 -0.3219  0.2391
   47CHL1   H3' 3408   0.695   0.510   2.834 -0.3240 -0.6883 -0.4344
   47CHL1    C4 3409   0.640   0.321   3.085 -0.5159 -0.6944 -0.1229
   47CHL1   H4A 3410   0.532   0.325   3.061 -0.9441  2.0754  1.7631
   47CHL1   H4B 3411   0.676   0.228   3.036  0.7509 -0.4441  0.2986
   47CHL1    C5 3412   0.647   0.327   3.236  0.5981  0.3072  0.1933
   47CHL1    C6 3413   0.694   0.217   3.307  0.1882 -0.6980  0.3182
   47CHL1    H6 3414   0.736   0.129   3.257  1.2301 -0.0501  0.0202
   47CHL1    C7 3415   0.710   0.227   3.458 -0.1584  0.0184  0.0561
   47CHL1   H7A 3416   0.646   0.146   3.499 -0.2046 -0.2179 -0.4870
   47CHL1   H7B 3417   0.816   0.238   3.490  0.0981  2.9670 -1.4934
   47CHL1    C8 3418   0.637   0.345   3.527  0.6646  0.6252  1.1886
   47CHL1    H8 3419   0.528   0.325   3.526  0.6738  0.6109  0.4628
   47CHL1   C14 3420   0.679   0.363   3.670 -0.4674 -0.1756  0.0129
   47CHL1   H14 3421   0.783   0.402   3.672 -1.1658  1.8399  2.3335
   47CHL1   C15 3422   0.674   0.235   3.754 -0.2938 -0.5954  0.0947
   47CHL1  H15A 3423   0.583   0.174   3.739 -1.2104  0.6290  0.4615
   47CHL1  H15B 3424   0.766   0.178   3.731  2.0385  2.2833  1.5779
   47CHL1   C16 3425   0.682   0.295   3.894  0.7091 -0.3754 -0.1150
   47CHL1  H16A 3426   0.590   0.254   3.940 -0.9495  2.5870 -0.5326
   47CHL1  H16B 3427   0.759   0.247   3.959  1.9073  1.5731 -0.0315
   47CHL1   C17 3428   0.681   0.452   3.892 -0.2148 -0.4830 -0.1638
   47CHL1   H17 3429   0.785   0.483   3.871 -0.5718  0.1171 -1.0889
   47CHL1   C13 3430   0.610   0.475   3.754  0.2500 -0.2186  0.4078
   47CHL1   C18 3431   0.453   0.446   3.772  0.3749 -0.7983 -0.5642
   47CHL1  H18A 3432   0.404   0.446   3.673  1.1416  3.0074 -1.1092
   47CHL1  H18B 3433   0.441   0.344   3.814  3.4038 -1.2122 -0.5231
   47CHL1  H18C 3434   0.405   0.524   3.836 -0.4826 -0.2132 -1.8650
   47CHL1   C12 3435   0.637   0.605   3.676  0.8890  0.0270  0.2163
   47CHL1  H12A 3436   0.582   0.693   3.715  2.3193  0.9836  0.1601
   47CHL1  H12B 3437   0.747   0.624   3.681  1.6218 -3.6449  1.5265
   47CHL1   C11 3438   0.588   0.592   3.529 -0.4264  0.0689 -0.2295
   47CHL1  H11A 3439   0.478   0.581   3.526 -0.2519 -2.8538  0.7995
   47CHL1  H11B 3440   0.617   0.688   3.483  1.9792 -0.0293  0.9345
   47CHL1    C9 3441   0.656   0.477   3.450  0.2146 -0.1948  0.1422
   47CHL1    H9 3442   0.765   0.497   3.463  0.0239  1.3466 -0.3728
   47CHL1   C10 3443   0.617   0.467   3.295  0.5190 -0.6524 -0.1087
   47CHL1   C19 3444   0.467   0.506   3.282 -0.3630 -0.0358  0.1503
   47CHL1  H19A 3445   0.398   0.441   3.340  0.8269 -1.2349  0.2609
   47CHL1  H19B 3446   0.459   0.614   3.306 -0.6091  0.4333 -1.8364
   47CHL1  H19C 3447   0.445   0.487   3.175  2.7060 -1.0360 -0.3936
   47CHL1    C1 3448   0.705   0.569   3.224 -0.6647 -0.1976  0.3981
   47CHL1   H1A 3449   0.667   0.668   3.259 -1.4209 -1.5362  3.7030
   47CHL1   H1B 3450   0.814   0.561   3.244 -0.3920 -0.6450 -1.0908
   47CHL1    C2 3451   0.689   0.577   3.068  0.5234 -0.0424 -0.4277
   47CHL1   H2A 3452   0.763   0.652   3.030  2.2751 -1.4322  0.1113
   47CHL1   H2B 3453   0.588   0.613   3.039  0.7155 -0.8100 -2.2474
   47CHL1   C20 3454   0.639   0.519   4.022  0.5514 -0.5524 -0.0535
   47CHL1   H20 3455   0.539   0.482   4.052  0.4527 -0.3310 -0.1041
   47CHL1   C21 3456   0.617   0.668   4.021  0.2946 -0.2572 -0.3573
   47CHL1  H21A 3457   0.712   0.724   4.036  0.2689  0.2226 -1.8460
   47CHL1  H21B 3458   0.546   0.694   4.102  2.2898  1.5314  0.9362
   47CHL1  H21C 3459   0.569   0.690   3.923  0.8330 -1.5209 -0.9251
   47CHL1   C22 3460   0.743   0.508   4.128 -0.3835  0.7547  0.1292
   47CHL1  H22A 3461   0.785   0.405   4.123 -5.6414 -1.7683  0.3928
   47CHL1  H22B 3462   0.830   0.571   4.101 -0.2870 -0.2425 -2.0224
   47CHL1   C23 3463   0.683   0.521   4.272  0.0585  0.0131 -0.0594
   47CHL1  H23A 3464   0.634   0.620   4.288 -0.3832 -0.6226  3.1606
   47CHL1  H23B 3465   0.602   0.447   4.290 -1.5595  1.7790  0.2925
   47CHL1   C24 3466   0.791   0.500   4.382 -0.4916  0.1779  0.2105
   47CHL1  H24A 3467   0.820   0.393   4.381  0.7998  0.4863  1.6132
   47CHL1  H24B 3468   0.882   0.559   4.358  0.0797 -2.2300 -4.9534
   47CHL1   C25 3469   0.737   0.519   4.520 -0.0626 -0.1839  0.2403
   47CHL1   H25 3470   0.640   0.467   4.536  1.0081 -1.7347  2.0867
   47CHL1   C26 3471   0.823   0.458   4.633  0.9176  0.3804  0.3140
   47CHL1  H26A 3472   0.923   0.505   4.626  1.1472 -0.1564 -0.0800
   47CHL1  H26B 3473   0.779   0.471   4.734 -0.0837 -0.9254  0.0831
   47CHL1  H26C 3474   0.819   0.351   4.605 -2.0545  0.5864 -0.4765
   47CHL1   C27 3475   0.713   0.666   4.551  0.6579  0.5011 -0.0638
   47CHL1  H27A 3476   0.649   0.711   4.472  0.0223 -2.5746 -1.4326
   47CHL1  H27B 3477   0.667   0.677   4.651  0.3892  0.6758 -0.2036
   47CHL1  H27C 3478   0.806   0.728   4.555  0.9832 -0.0131  0.4091
   48CHL1    C3 3479   6.878   2.447   3.014  0.4300 -0.0069 -0.4245
   48CHL1    H3 3480   6.778   2.401   3.000 -0.0509  1.4853 -2.2664
   48CHL1    O3 3481   6.938   2.467   2.891  0.3053  0.3288 -0.0860
   48CHL1   H3' 3482   6.952   2.384   2.845  0.6261  0.6535 -0.5890
   48CHL1    C4 3483   6.854   2.578   3.087 -0.3199  0.0245 -0.3040
   48CHL1   H4A 3484   6.951   2.631   3.082  0.0804 -0.5984  0.5286
   48CHL1   H4B 3485   6.782   2.646   3.037 -0.9825 -1.2222 -1.1076
   48CHL1    C5 3486   6.813   2.560   3.235 -0.1491 -0.2083  0.3783
   48CHL1    C6 3487   6.706   2.628   3.280 -0.0150  0.2119 -0.6005
   48CHL1    H6 3488   6.647   2.693   3.213  1.1459  0.4758 -1.3956
   48CHL1    C7 3489   6.660   2.625   3.429 -0.5429 -1.0356  0.4116
   48CHL1   H7A 3490   6.649   2.729   3.466 -0.6841 -1.3014  1.1335
   48CHL1   H7B 3491   6.571   2.559   3.440 -1.1836 -0.0327  1.3688
   48CHL1    C8 3492   6.756   2.549   3.526  0.2911 -0.0051 -0.2191
   48CHL1    H8 3493   6.838   2.617   3.556 -0.6909  0.6065  1.1634
   48CHL1   C14 3494   6.690   2.502   3.652  0.0388  0.3664 -0.0017
   48CHL1   H14 3495   6.599   2.444   3.624  1.3074 -1.1462 -1.2177
   48CHL1   C15 3496   6.617   2.607   3.737 -0.0583 -0.0714 -0.3014
   48CHL1  H15A 3497   6.672   2.703   3.741  1.8601 -1.1493  0.2237
   48CHL1  H15B 3498   6.519   2.633   3.691 -0.9497 -3.1642 -0.4116
   48CHL1   C16 3499   6.617   2.545   3.881  0.2859 -0.3632  0.5157
   48CHL1  H16A 3500   6.688   2.601   3.946 -0.6360  0.6893  0.6346
   48CHL1  H16B 3501   6.519   2.545   3.933 -1.2679  0.1414 -2.2321
   48CHL1   C17 3502   6.674   2.399   3.862 -0.4042 -0.2505 -0.0402
   48CHL1   H17 3503   6.591   2.335   3.826 -1.5158  2.0389 -1.7861
   48CHL1   C13 3504   6.773   2.408   3.743 -0.3031  0.2628 -0.3904
   48CHL1   C18 3505   6.902   2.479   3.789  0.0884 -0.2176  0.8219
   48CHL1  H18A 3506   6.950   2.405   3.856 -1.4260 -0.9777  1.1228
   48CHL1  H18B 3507   6.967   2.511   3.705 -1.2917  0.5622 -0.0082
   48CHL1  H18C 3508   6.882   2.566   3.854 -0.9941  0.6493 -0.5906
   48CHL1   C12 3509   6.795   2.279   3.669  0.3812  0.7551  0.0234
   48CHL1  H12A 3510   6.851   2.198   3.720 -1.1937  0.5115  1.4742
   48CHL1  H12B 3511   6.698   2.239   3.634 -0.4167  2.0407  0.6755
   48CHL1   C11 3512   6.880   2.317   3.546  0.2073 -0.8168 -0.2598
   48CHL1  H11A 3513   6.982   2.347   3.579  0.0175 -1.3272  0.8389
   48CHL1  H11B 3514   6.898   2.222   3.492  1.1927 -1.1036  0.5225
   48CHL1    C9 3515   6.812   2.423   3.456  0.1563 -0.1605  0.6641
   48CHL1    H9 3516   6.722   2.377   3.409  0.2149 -1.6458  1.9166
   48CHL1   C10 3517   6.892   2.457   3.328  0.0867 -0.4641  0.4586
   48CHL1   C19 3518   7.035   2.514   3.374  0.3448  0.3337 -0.1125
   48CHL1  H19A 3519   7.097   2.541   3.286  0.6143  3.9088  1.0361
   48CHL1  H19B 3520   7.020   2.612   3.424  1.2878  2.0661 -3.0034
   48CHL1  H19C 3521   7.098   2.442   3.430 -1.1685 -2.2355 -1.5288
   48CHL1    C1 3522   6.915   2.331   3.243 -0.3064  1.3178 -0.1376
   48CHL1   H1A 3523   6.992   2.268   3.292  0.1599  0.5829 -1.7752
   48CHL1   H1B 3524   6.821   2.272   3.235  2.6666 -4.3619  1.6132
   48CHL1    C2 3525   6.965   2.357   3.098  0.4744 -0.2645 -0.2523
   48CHL1   H2A 3526   6.973   2.263   3.040 -1.2914 -0.0987 -0.8086
   48CHL1   H2B 3527   7.069   2.395   3.110  0.5085 -0.8684  1.7778
   48CHL1   C20 3528   6.728   2.337   3.995  0.3457  0.5723 -0.1874
   48CHL1   H20 3529   6.819   2.397   4.017  0.2543  0.9278 -0.7632
   48CHL1   C21 3530   6.768   2.189   3.972 -0.6817 -0.5053  0.6592
   48CHL1  H21A 3531   6.700   2.131   3.905  2.0685 -1.1636 -1.8002
   48CHL1  H21B 3532   6.774   2.139   4.071  1.2591 -1.5086  0.0890
   48CHL1  H21C 3533   6.869   2.195   3.926 -0.9840  0.0335  0.0499
   48CHL1   C22 3534   6.632   2.344   4.116 -0.6091 -0.2612  0.1177
   48CHL1  H22A 3535   6.568   2.435   4.110  0.0664  0.2128  0.0971
   48CHL1  H22B 3536   6.553   2.266   4.101  0.0061 -0.7732 -0.5552
   48CHL1   C23 3537   6.709   2.342   4.249 -0.3994 -1.0661  0.1180
   48CHL1  H23A 3538   6.785   2.262   4.236  0.4136 -0.3773  0.4795
   48CHL1  H23B 3539   6.763   2.436   4.276 -0.9481 -1.1553  1.6457
   48CHL1   C24 3540   6.616   2.309   4.361  0.2679 -0.2609 -0.0084
   48CHL1  H24A 3541   6.564   2.397   4.405 -2.2781 -2.1910  1.1391
   48CHL1  H24B 3542   6.547   2.233   4.319  1.0140 -1.8331  1.4725
   48CHL1   C25 3543   6.690   2.239   4.483  0.8392 -0.5915 -0.7021
   48CHL1   H25 3544   6.765   2.163   4.451  0.6122  0.0549 -2.9566
   48CHL1   C26 3545   6.770   2.339   4.563 -0.1376 -0.4557 -0.3504
   48CHL1  H26A 3546   6.814   2.292   4.653 -1.0565  0.7213  0.7548
   48CHL1  H26B 3547   6.864   2.363   4.509  0.1826  2.8836  1.4391
   48CHL1  H26C 3548   6.721   2.436   4.587  1.5197  0.1983  0.5494
   48CHL1   C27 3549   6.584   2.166   4.571 -0.0225  0.0324  0.3562
   48CHL1  H27A 3550   6.525   2.246   4.619  2.9870  2.8566 -0.2907
   48CHL1  H27B 3551   6.525   2.097   4.508  0.2243  0.5965 -0.5063
   48CHL1  H27C 3552   6.628   2.111   4.657  0.9678 -1.0145 -0.7666
   49CHL1    C3 3553   3.732   5.949   2.396  0.2427  0.0939  0.3333
   49CHL1    H3 3554   3.637   5.989   2.437  1.0450  0.0522  2.3411
   49CHL1    O3 3555   3.690   5.924   2.269  0.0956  0.3156  0.4340
   49CHL1   H3' 3556   3.758   5.875   2.221  0.7588  2.2286 -0.7123
   49CHL1    C4 3557   3.833   6.065   2.395 -0.4111 -0.1864  0.0409
   49CHL1   H4A 3558   3.913   6.041   2.322 -1.9435  2.5141 -2.7566
   49CHL1   H4B 3559   3.782   6.157   2.357  0.6399 -0.5143 -2.3020
   49CHL1    C5 3560   3.901   6.083   2.531  0.2538  0.1771  0.2188
   49CHL1    C6 3561   3.908   6.203   2.584 -0.4077 -0.0918  0.4683
   49CHL1    H6 3562   3.865   6.287   2.528 -0.1943  0.0349  0.4931
   49CHL1    C7 3563   3.967   6.233   2.719  0.2607 -1.0347  0.4736
   49CHL1   H7A 3564   4.033   6.322   2.707 -0.1240 -0.8126 -0.0445
   49CHL1   H7B 3565   3.892   6.258   2.796  0.7807  1.2605  0.3269
   49CHL1    C8 3566   4.056   6.125   2.776 -0.6114  0.3188  0.9261
   49CHL1    H8 3567   4.152   6.125   2.720 -2.5151 -1.7031 -2.7104
   49CHL1   C14 3568   4.085   6.138   2.924 -0.4509 -0.4640  0.4243
   49CHL1   H14 3569   3.990   6.126   2.979 -0.5652  2.8162  1.1774
   49CHL1   C15 3570   4.140   6.275   2.982 -0.3913  0.0106 -0.2328
   49CHL1  H15A 3571   4.228   6.312   2.926 -0.7023 -0.1368 -0.8198
   49CHL1  H15B 3572   4.061   6.354   2.983 -0.1008  0.3015  0.0883
   49CHL1   C16 3573   4.182   6.237   3.128 -1.0383 -0.2778 -0.7686
   49CHL1  H16A 3574   4.291   6.256   3.137 -1.4240  2.0296 -0.2040
   49CHL1  H16B 3575   4.125   6.298   3.202 -0.4894  0.8689 -1.2719
   49CHL1   C17 3576   4.167   6.076   3.140 -0.1030 -0.4007 -0.0237
   49CHL1   H17 3577   4.062   6.063   3.174 -1.4236  2.7797 -2.3264
   49CHL1   C13 3578   4.172   6.025   2.995  0.1967 -0.2603  0.0931
   49CHL1   C18 3579   4.314   6.027   2.942  0.3473 -0.0721 -0.2887
   49CHL1  H18A 3580   4.348   6.132   2.955 -1.1320  0.6006 -1.6114
   49CHL1  H18B 3581   4.389   5.953   2.977  0.1027 -1.1912 -2.0006
   49CHL1  H18C 3582   4.316   6.010   2.833  1.4260  0.4205 -0.3575
   49CHL1   C12 3583   4.104   5.889   2.971  0.3762 -0.1800 -0.0484
   49CHL1  H12A 3584   4.171   5.806   3.001  1.2501  1.2269  2.1867
   49CHL1  H12B 3585   4.010   5.892   3.031  0.5044  0.0406  0.1442
   49CHL1   C11 3586   4.081   5.875   2.819  0.8170 -0.0842  0.2761
   49CHL1  H11A 3587   4.177   5.866   2.763  0.8834 -1.6619  0.5735
   49CHL1  H11B 3588   4.023   5.782   2.798 -0.7452  1.1457 -1.0632
   49CHL1    C9 3589   3.993   5.985   2.754  0.5824  0.2455  0.6248
   49CHL1    H9 3590   3.897   5.985   2.810 -0.5539 -1.1013 -1.2162
   49CHL1   C10 3591   3.951   5.955   2.605  1.2594 -0.0244 -0.8350
   49CHL1   C19 3592   4.073   5.908   2.526  0.2037 -0.1396  0.3334
   49CHL1  H19A 3593   4.167   5.965   2.537  0.3793 -0.2057 -0.7485
   49CHL1  H19B 3594   4.098   5.805   2.558 -3.2327 -0.8802  1.0869
   49CHL1  H19C 3595   4.065   5.896   2.416  2.0752  1.1484  0.0152
   49CHL1    C1 3596   3.840   5.845   2.599  0.0782 -0.4451 -0.2012
   49CHL1   H1A 3597   3.874   5.751   2.648  0.3288 -0.7511 -0.9569
   49CHL1   H1B 3598   3.757   5.875   2.667 -2.9766 -2.1906 -2.8913
   49CHL1    C2 3599   3.774   5.817   2.456  0.1724  0.4575 -0.6195
   49CHL1   H2A 3600   3.684   5.755   2.474 -0.5311  1.2247 -1.4108
   49CHL1   H2B 3601   3.841   5.769   2.381 -1.3211  0.1184 -1.7878
   49CHL1   C20 3602   4.274   6.028   3.239  0.0071 -0.4312  0.5132
   49CHL1   H20 3603   4.374   6.042   3.193  0.1715  1.0564  1.2480
   49CHL1   C21 3604   4.272   5.874   3.265 -0.4232  0.0705  0.2689
   49CHL1  H21A 3605   4.170   5.835   3.289 -0.7829  1.5993  1.3519
   49CHL1  H21B 3606   4.349   5.857   3.342  0.1210  0.6858 -0.1271
   49CHL1  H21C 3607   4.296   5.816   3.173  1.7969 -1.7297  1.8684
   49CHL1   C22 3608   4.274   6.105   3.375  0.1272  0.4841  0.2832
   49CHL1  H22A 3609   4.367   6.077   3.427  0.3141 -2.4442 -1.3993
   49CHL1  H22B 3610   4.275   6.215   3.363  2.3453  0.2672 -2.8586
   49CHL1   C23 3611   4.155   6.067   3.461 -0.3743 -0.7900  1.1778
   49CHL1  H23A 3612   4.066   6.083   3.396  0.5164 -1.3939 -0.2226
   49CHL1  H23B 3613   4.158   5.963   3.501 -0.8760 -1.2551  0.0446
   49CHL1   C24 3614   4.147   6.155   3.590  0.3139 -0.1078  0.2657
   49CHL1  H24A 3615   4.234   6.130   3.655  2.3215  3.2254 -0.9108
   49CHL1  H24B 3616   4.148   6.263   3.567 -1.5150 -0.4042 -1.4707
   49CHL1   C25 3617   4.021   6.126   3.681 -0.3703 -0.3245 -0.4355
   49CHL1   H25 3618   4.018   6.015   3.686  0.8251 -0.4002 -0.9846
   49CHL1   C26 3619   4.041   6.178   3.822 -0.0865 -0.3373 -0.0649
   49CHL1  H26A 3620   4.115   6.107   3.865 -0.2855 -1.1034 -0.9704
   49CHL1  H26B 3621   4.074   6.284   3.816  4.2065 -1.4206  0.7233
   49CHL1  H26C 3622   3.944   6.173   3.876  0.3706 -2.8649  0.6222
   49CHL1   C27 3623   3.910   6.189   3.608  0.5136 -0.5760  0.2144
   49CHL1  H27A 3624   3.887   6.141   3.511 -1.7206  0.4397  0.1717
   49CHL1  H27B 3625   3.822   6.185   3.677  1.9063 -1.3992  2.0206
   49CHL1  H27C 3626   3.935   6.296   3.593 -2.8872  0.6355  2.0023
   50CHL1    C3 3627   2.214   5.788   2.679 -0.2098  0.3208 -0.0407
   50CHL1    H3 3628   2.178   5.684   2.697  0.9414 -0.3820 -1.5190
   50CHL1    O3 3629   2.157   5.831   2.553  0.0241  0.5154 -0.3340
   50CHL1   H3' 3630   2.224   5.878   2.501  1.9833 -1.8216 -0.0937
   50CHL1    C4 3631   2.164   5.884   2.790  0.0527  0.2863 -0.3469
   50CHL1   H4A 3632   2.162   5.988   2.752  1.6685 -0.0807 -1.5848
   50CHL1   H4B 3633   2.055   5.863   2.793 -0.0961  1.0501 -0.2822
   50CHL1    C5 3634   2.222   5.867   2.921 -0.6526 -0.2311 -0.3674
   50CHL1    C6 3635   2.140   5.841   3.028  0.3816 -0.5379  0.0922
   50CHL1    H6 3636   2.032   5.835   3.009  0.1229 -0.3785  1.3960
   50CHL1    C7 3637   2.184   5.819   3.165 -0.1480  0.6384 -0.0194
   50CHL1   H7A 3638   2.108   5.870   3.227 -2.3935 -0.7732 -1.4672
   50CHL1   H7B 3639   2.175   5.711   3.185 -4.1320  0.9023  0.3624
   50CHL1    C8 3640   2.332   5.871   3.187  0.8293 -0.0969  0.7927
   50CHL1    H8 3641   2.323   5.981   3.182 -1.3859 -0.2020  1.7565
   50CHL1   C14 3642   2.384   5.830   3.320 -0.0971 -0.4375 -0.7764
   50CHL1   H14 3643   2.391   5.719   3.327  1.8954 -0.2580  1.0980
   50CHL1   C15 3644   2.299   5.857   3.447  0.5444  1.0037  0.1357
   50CHL1  H15A 3645   2.242   5.952   3.440 -0.2902  0.6028  1.2536
   50CHL1  H15B 3646   2.219   5.782   3.464  1.9261 -0.6177 -0.2747
   50CHL1   C16 3647   2.392   5.853   3.567  0.4614 -0.0017  0.1721
   50CHL1  H16A 3648   2.381   5.955   3.608 -1.7824 -0.1569  0.0841
   50CHL1  H16B 3649   2.384   5.769   3.639 -0.4655 -2.8216 -2.9189
   50CHL1   C17 3650   2.540   5.829   3.505 -0.0767  0.1243 -0.7005
   50CHL1   H17 3651   2.555   5.720   3.495  0.4358  0.0765  0.4055
   50CHL1   C13 3652   2.527   5.873   3.351  0.2389  0.3187 -0.0901
   50CHL1   C18 3653   2.533   6.023   3.341  0.9474  0.9832  0.0366
   50CHL1  H18A 3654   2.636   6.063   3.350  1.8598 -1.0052 -0.9284
   50CHL1  H18B 3655   2.507   6.057   3.238  4.6493 -1.4253 -1.9347
   50CHL1  H18C 3656   2.470   6.068   3.420  1.7709  2.0661  0.0934
   50CHL1   C12 3657   2.621   5.814   3.255  0.3698  0.5453  0.3157
   50CHL1  H12A 3658   2.728   5.844   3.248  0.9316 -1.7176 -3.0747
   50CHL1  H12B 3659   2.618   5.703   3.257  0.2960  0.3427 -3.6114
   50CHL1   C11 3660   2.575   5.838   3.105 -0.5007 -0.2740  0.4044
   50CHL1  H11A 3661   2.601   5.945   3.086 -0.3916 -0.3370  0.2042
   50CHL1  H11B 3662   2.638   5.777   3.037  0.3822  0.1391  0.8432
   50CHL1    C9 3663   2.421   5.816   3.074 -0.7863  0.7005 -1.0177
   50CHL1    H9 3664   2.402   5.707   3.082 -0.0701  0.6590  0.4269
   50CHL1   C10 3665   2.374   5.864   2.934 -0.7549  0.0211 -0.3316
   50CHL1   C19 3666   2.427   6.007   2.905  0.2870 -0.5092 -0.2163
   50CHL1  H19A 3667   2.537   6.010   2.889  0.1442 -0.2176 -1.2266
   50CHL1  H19B 3668   2.392   6.052   2.810  2.3167 -0.8415 -1.1901
   50CHL1  H19C 3669   2.397   6.073   2.989  0.9746 -0.9672  0.4063
   50CHL1    C1 3670   2.428   5.763   2.815  0.6940  0.3118  0.5854
   50CHL1   H1A 3671   2.538   5.762   2.805  0.4861  0.3436 -3.1667
   50CHL1   H1B 3672   2.386   5.661   2.831  1.4750 -0.0910  0.0855
   50CHL1    C2 3673   2.366   5.793   2.674 -0.6752  0.5274 -0.1482
   50CHL1   H2A 3674   2.399   5.716   2.601 -1.2603  0.4321 -0.3172
   50CHL1   H2B 3675   2.398   5.896   2.648  0.6060  0.0444 -0.5246
   50CHL1   C20 3676   2.656   5.890   3.587 -0.2916  0.2688 -0.2491
   50CHL1   H20 3677   2.620   5.994   3.599  1.1099  0.7589 -0.1547
   50CHL1   C21 3678   2.791   5.862   3.521  0.4614 -0.4948 -0.6500
   50CHL1  H21A 3679   2.872   5.886   3.593 -0.7793  0.1858  0.5565
   50CHL1  H21B 3680   2.809   5.924   3.430 -0.7701  0.1419 -0.4731
   50CHL1  H21C 3681   2.801   5.755   3.492 -1.0528 -0.7188 -0.3939
   50CHL1   C22 3682   2.664   5.829   3.733 -0.3666 -0.1403  0.2024
   50CHL1  H22A 3683   2.744   5.883   3.788  2.4448 -1.9133 -1.8535
   50CHL1  H22B 3684   2.564   5.833   3.782 -1.0500 -3.2402 -0.7623
   50CHL1   C23 3685   2.721   5.690   3.752 -0.3682 -0.2013  0.2312
   50CHL1  H23A 3686   2.663   5.616   3.692 -1.6274  1.0454 -0.1350
   50CHL1  H23B 3687   2.826   5.696   3.718  0.0073  0.1735  1.4254
   50CHL1   C24 3688   2.734   5.645   3.898 -0.4288 -0.3843  0.5405
   50CHL1  H24A 3689   2.771   5.541   3.905  1.0958 -0.2270 -2.9799
   50CHL1  H24B 3690   2.798   5.715   3.956 -2.1898  1.1476  0.7592
   50CHL1   C25 3691   2.596   5.653   3.973 -0.2099  0.2519  0.1948
   50CHL1   H25 3692   2.567   5.760   3.972  1.5453  0.7933  1.5192
   50CHL1   C26 3693   2.494   5.557   3.905  0.8010  0.2919 -0.4140
   50CHL1  H26A 3694   2.542   5.459   3.882 -2.4716 -1.2833 -1.0918
   50CHL1  H26B 3695   2.413   5.545   3.980  0.7123  2.9098 -0.0022
   50CHL1  H26C 3696   2.451   5.591   3.809 -0.1669 -0.9211 -0.4400
   50CHL1   C27 3697   2.615   5.623   4.126 -0.6136  0.4250 -0.0908
   50CHL1  H27A 3698   2.674   5.703   4.174 -2.2245  1.4245  0.2672
   50CHL1  H27B 3699   2.517   5.605   4.175  0.3176 -2.4332  0.9284
   50CHL1  H27C 3700   2.664   5.524   4.138 -1.6621 -0.0226  0.5989
   51CHL1    C3 3701   3.831   6.785   2.619 -0.0258 -0.4225  0.1920
   51CHL1    H3 3702   3.724   6.775   2.592  0.3092 -0.3759 -1.2301
   51CHL1    O3 3703   3.890   6.817   2.496 -0.6740 -0.5065  0.0803
   51CHL1   H3' 3704   3.983   6.795   2.499  0.1626  2.5548  0.6430
   51CHL1    C4 3705   3.859   6.909   2.716  0.6842 -0.6664 -0.5859
   51CHL1   H4A 3706   3.969   6.923   2.705  0.6878  0.9748  1.0392
   51CHL1   H4B 3707   3.801   6.992   2.671  0.6647 -0.6593 -0.5477
   51CHL1    C5 3708   3.814   6.875   2.862 -0.1713  0.6167  0.7404
   51CHL1    C6 3709   3.726   6.953   2.929  0.0292 -0.7801  0.1951
   51CHL1    H6 3710   3.694   7.044   2.876  1.7655 -0.6053 -0.5969
   51CHL1    C7 3711   3.680   6.922   3.068 -0.0779 -0.2976 -0.2209
   51CHL1   H7A 3712   3.666   7.021   3.117 -1.8753 -0.6046 -0.0240
   51CHL1   H7B 3713   3.578   6.878   3.065 -0.3735  0.3994 -0.5975
   51CHL1    C8 3714   3.775   6.828   3.143 -0.4290  0.0316 -0.2633
   51CHL1    H8 3715   3.867   6.886   3.162 -0.9922  0.3430  1.7361
   51CHL1   C14 3716   3.711   6.787   3.277 -0.5716  0.1287 -0.2926
   51CHL1   H14 3717   3.624   6.720   3.262 -0.3121 -0.5231  0.9930
   51CHL1   C15 3718   3.672   6.903   3.376 -0.1794 -0.4327 -0.9221
   51CHL1  H15A 3719   3.740   6.990   3.362 -2.0288  1.4840  1.3740
   51CHL1  H15B 3720   3.570   6.943   3.359 -0.3121 -0.8548 -1.1489
   51CHL1   C16 3721   3.681   6.837   3.517 -0.5639  0.4856 -0.0188
   51CHL1  H16A 3722   3.762   6.884   3.576  3.6080 -1.7526 -3.4435
   51CHL1  H16B 3723   3.581   6.841   3.566 -0.8411 -2.5195 -0.1238
   51CHL1   C17 3724   3.727   6.688   3.486  0.1408 -0.6743 -0.0213
   51CHL1   H17 3725   3.637   6.630   3.452  0.3156 -0.3096 -1.1545
   51CHL1   C13 3726   3.809   6.697   3.353  0.0038  0.4462 -0.2216
   51CHL1   C18 3727   3.948   6.770   3.384  0.3882 -0.2652  0.1173
   51CHL1  H18A 3728   4.014   6.705   3.446  0.0663 -0.9862 -0.2753
   51CHL1  H18B 3729   4.007   6.785   3.290 -2.0191  0.2990 -1.3930
   51CHL1  H18C 3730   3.926   6.867   3.433  0.7588  0.6464 -1.4617
   51CHL1   C12 3731   3.827   6.568   3.269  0.6824 -0.3747  0.7862
   51CHL1  H12A 3732   3.892   6.492   3.317  1.5830  0.7978  1.4701
   51CHL1  H12B 3733   3.728   6.518   3.267 -0.6104  2.0113 -0.8228
   51CHL1   C11 3734   3.882   6.591   3.124  0.3800 -0.1916 -0.0427
   51CHL1  H11A 3735   3.989   6.616   3.142 -0.2083  1.7757  1.0815
   51CHL1  H11B 3736   3.867   6.499   3.063 -1.2444  0.1931 -0.2829
   51CHL1    C9 3737   3.806   6.704   3.053 -0.4373 -0.6138  0.1202
   51CHL1    H9 3738   3.707   6.659   3.031 -1.9407  1.6152  1.8289
   51CHL1   C10 3739   3.871   6.745   2.916  0.3872 -0.5195  0.3815
   51CHL1   C19 3740   4.023   6.784   2.934 -0.5057  0.1911 -0.0074
   51CHL1  H19A 3741   4.076   6.822   2.844 -3.0948  1.2448 -1.2096
   51CHL1  H19B 3742   4.037   6.861   3.013 -1.2949  1.1576 -0.7765
   51CHL1  H19C 3743   4.073   6.689   2.961 -1.5425 -0.7677 -1.3023
   51CHL1    C1 3744   3.852   6.630   2.818 -0.1421  0.2770  0.2871
   51CHL1   H1A 3745   3.909   6.543   2.858  0.4165  0.1161 -0.8159
   51CHL1   H1B 3746   3.746   6.597   2.816  0.5445 -2.1921  0.9627
   51CHL1    C2 3747   3.900   6.655   2.674  0.0098  0.4026 -0.7029
   51CHL1   H2A 3748   3.884   6.578   2.596  2.5286 -0.4928 -0.4095
   51CHL1   H2B 3749   4.010   6.663   2.678 -0.1012  1.4188  1.6171
   51CHL1   C20 3750   3.779   6.597   3.603  0.1166 -0.7623 -0.5932
   51CHL1   H20 3751   3.835   6.517   3.551  1.0482 -0.3303 -0.2685
   51CHL1   C21 3752   3.655   6.537   3.678 -0.1394  0.0092 -0.2312
   51CHL1  H21A 3753   3.619   6.445   3.628 -1.9665 -0.1764  1.3207
   51CHL1  H21B 3754   3.572   6.610   3.686  1.1052  1.4288  0.0391
   51CHL1  H21C 3755   3.678   6.501   3.781 -0.6656 -1.3213 -0.5550
   51CHL1   C22 3756   3.862   6.668   3.705 -0.5544  0.5403  0.1339
   51CHL1  H22A 3757   3.942   6.730   3.659  0.5604  0.8801  2.3915
   51CHL1  H22B 3758   3.787   6.734   3.753  0.2337  0.7955  1.0343
   51CHL1   C23 3759   3.936   6.570   3.797 -0.3265 -0.2394  0.1743
   51CHL1  H23A 3760   3.891   6.468   3.800 -0.2531 -0.2667  0.3881
   51CHL1  H23B 3761   4.038   6.560   3.753 -0.6910 -0.9160 -0.5484
   51CHL1   C24 3762   3.958   6.627   3.936 -0.3101 -0.3729 -0.2284
   51CHL1  H24A 3763   4.004   6.728   3.925  0.0110 -0.2545  1.8656
   51CHL1  H24B 3764   3.860   6.650   3.984 -1.3213  1.8099 -3.0176
   51CHL1   C25 3765   4.033   6.533   4.039 -0.5402  0.4927 -0.6474
   51CHL1   H25 3766   3.978   6.437   4.030 -0.2359  0.2315  0.2119
   51CHL1   C26 3767   4.177   6.504   3.991  0.0548  1.3885 -0.7763
   51CHL1  H26A 3768   4.220   6.603   3.969 -2.0306  2.0663 -2.0784
   51CHL1  H26B 3769   4.228   6.446   4.071  1.1530  0.3545 -2.1865
   51CHL1  H26C 3770   4.189   6.447   3.897 -0.9904  2.4393 -1.5720
   51CHL1   C27 3771   4.033   6.583   4.181 -0.3732  0.1520  0.8135
   51CHL1  H27A 3772   4.102   6.670   4.184  3.5210 -2.6866  2.0945
   51CHL1  H27B 3773   3.932   6.617   4.211 -0.5616  1.6315 -1.2958
   51CHL1  H27C 3774   4.062   6.497   4.245 -0.8339 -1.5070 -1.1008
   52CHL1    C3 3775   5.309   1.759   3.054  0.3770 -0.0952 -0.2980
   52CHL1    H3 3776   5.303   1.653   3.020  2.0668 -0.0775 -0.7245
   52CHL1    O3 3777   5.361   1.846   2.958 -0.3106 -0.0759  0.6287
   52CHL1   H3' 3778   5.456   1.833   2.950 -0.3755  0.0669 -0.5001
   52CHL1    C4 3779   5.165   1.810   3.101  0.2550  0.5403 -0.7700
   52CHL1   H4A 3780   5.165   1.919   3.125  3.0432  0.4625 -0.0325
   52CHL1   H4B 3781   5.095   1.804   3.015  1.1642  1.5532 -1.6015
   52CHL1    C5 3782   5.115   1.731   3.231 -0.5840 -0.3487 -0.3598
   52CHL1    C6 3783   4.997   1.676   3.228 -0.4451  0.5827  0.0868
   52CHL1    H6 3784   4.942   1.677   3.132 -1.4150 -0.5645  0.6047
   52CHL1    C7 3785   4.933   1.607   3.347 -0.8513 -0.2285 -0.3605
   52CHL1   H7A 3786   4.829   1.642   3.365  0.4140  2.8184  2.0866
   52CHL1   H7B 3787   4.943   1.498   3.329 -1.1954 -0.4058  0.4866
   52CHL1    C8 3788   5.010   1.638   3.481  0.1088  0.3486 -0.3327
   52CHL1    H8 3789   4.966   1.736   3.512  1.0184  1.0048 -1.0646
   52CHL1   C14 3790   4.968   1.537   3.590 -0.6280 -0.0524  0.2718
   52CHL1   H14 3791   5.003   1.434   3.567 -0.9887 -0.4814  1.5888
   52CHL1   C15 3792   4.817   1.510   3.624  0.7691 -0.1654  0.3028
   52CHL1  H15A 3793   4.777   1.612   3.641  2.8445  1.3505 -2.9255
   52CHL1  H15B 3794   4.752   1.462   3.548  0.7410  1.6859 -0.8864
   52CHL1   C16 3795   4.821   1.443   3.765  0.5655 -0.1999 -1.4326
   52CHL1  H16A 3796   4.740   1.492   3.823 -1.3738 -2.0599 -2.4238
   52CHL1  H16B 3797   4.791   1.336   3.769  1.0600 -0.3443  2.5352
   52CHL1   C17 3798   4.963   1.459   3.816 -0.1480 -0.1172 -0.1699
   52CHL1   H17 3799   5.011   1.369   3.773 -2.6777 -0.8620 -1.6282
   52CHL1   C13 3800   5.036   1.561   3.725 -0.2786  0.0952  0.3804
   52CHL1   C18 3801   5.005   1.705   3.781  0.3296  0.1984 -0.4569
   52CHL1  H18A 3802   5.076   1.722   3.864 -1.0240  2.2040  0.3529
   52CHL1  H18B 3803   5.041   1.778   3.705 -0.0473  1.5280  0.5956
   52CHL1  H18C 3804   4.902   1.730   3.814 -0.2719  1.5170 -3.0307
   52CHL1   C12 3805   5.190   1.537   3.696  0.4336  0.2127  0.4091
   52CHL1  H12A 3806   5.253   1.532   3.787  2.5853  0.1899 -1.0152
   52CHL1  H12B 3807   5.198   1.433   3.657 -1.7068 -0.9841  2.8587
   52CHL1   C11 3808   5.242   1.642   3.594  0.0378  0.2578 -0.3468
   52CHL1  H11A 3809   5.260   1.732   3.657  2.8495 -0.9822  0.7922
   52CHL1  H11B 3810   5.344   1.605   3.571 -0.2543 -1.3587  0.7753
   52CHL1    C9 3811   5.163   1.636   3.462  0.4715 -0.0354  0.4641
   52CHL1    H9 3812   5.175   1.535   3.417  0.5688  0.7704 -1.4088
   52CHL1   C10 3813   5.218   1.727   3.349  0.4569  0.1892 -0.2083
   52CHL1   C19 3814   5.229   1.864   3.404  0.3677 -0.2199 -0.4316
   52CHL1  H19A 3815   5.250   1.936   3.321 -2.0328  0.1622 -0.7802
   52CHL1  H19B 3816   5.139   1.908   3.453  0.6635  0.3589 -0.3963
   52CHL1  H19C 3817   5.307   1.871   3.483  0.6411 -0.6146 -0.6650
   52CHL1    C1 3818   5.355   1.669   3.294 -0.1542 -0.5675  0.3990
   52CHL1   H1A 3819   5.433   1.659   3.372  0.1278 -0.4390  0.1374
   52CHL1   H1B 3820   5.350   1.562   3.265  1.8647 -1.0857  1.7466
   52CHL1    C2 3821   5.405   1.747   3.171 -0.5979 -0.0200 -0.5034
   52CHL1   H2A 3822   5.505   1.705   3.147 -0.7474 -0.9476  0.4496
   52CHL1   H2B 3823   5.421   1.851   3.206  1.7941 -0.0155 -1.4095
   52CHL1   C20 3824   4.979   1.467   3.971 -0.0044  0.2730 -0.7387
   52CHL1   H20 3825   4.970   1.570   4.013 -0.6212  0.5098 -1.4176
   52CHL1   C21 3826   5.131   1.440   4.013  0.9308 -0.0398  0.0838
   52CHL1  H21A 3827   5.159   1.425   4.120  1.6512 -2.5838 -0.4010
   52CHL1  H21B 3828   5.195   1.527   3.986 -0.4193  1.2501  0.8702
   52CHL1  H21C 3829   5.158   1.345   3.962  1.4824  0.5759 -0.7996
   52CHL1   C22 3830   4.889   1.374   4.051  0.7217 -0.3937 -0.0917
   52CHL1  H22A 3831   4.897   1.409   4.156  0.3325 -0.1263 -0.1487
   52CHL1  H22B 3832   4.781   1.381   4.026  0.4368  0.5071  1.2252
   52CHL1   C23 3833   4.919   1.218   4.037 -0.2361 -0.7079  0.0356
   52CHL1  H23A 3834   4.898   1.184   3.933  0.8042 -5.1809  1.0749
   52CHL1  H23B 3835   5.022   1.211   4.077 -0.5541  2.0437  1.6379
   52CHL1   C24 3836   4.835   1.138   4.131 -0.6691  1.0168 -0.6302
   52CHL1  H24A 3837   4.726   1.155   4.121 -1.3578 -2.4844 -0.4818
   52CHL1  H24B 3838   4.860   1.032   4.108  2.5196  1.5655 -0.1134
   52CHL1   C25 3839   4.859   1.158   4.290 -0.2113 -0.7301 -0.6558
   52CHL1   H25 3840   4.847   1.265   4.317 -0.2978 -1.3439  2.0047
   52CHL1   C26 3841   4.760   1.072   4.368 -0.5632 -0.9439  0.3469
   52CHL1  H26A 3842   4.782   1.083   4.476  2.1133 -1.1383 -0.0953
   52CHL1  H26B 3843   4.656   1.103   4.345 -0.7194 -2.1500 -0.6624
   52CHL1  H26C 3844   4.765   0.964   4.344  1.9799 -1.1323  1.3585
   52CHL1   C27 3845   5.000   1.110   4.339 -0.5805  0.6476  0.2244
   52CHL1  H27A 3846   5.006   1.104   4.450 -1.5724  3.0469  0.4518
   52CHL1  H27B 3847   4.996   1.006   4.299 -0.5493  1.8237 -3.1902
   52CHL1  H27C 3848   5.063   1.184   4.286 -2.0991  1.6300 -0.2653
   53CHL1    C3 3849   6.003   6.640   2.600  1.0501  0.0887 -0.4673
   53CHL1    H3 3850   5.897   6.609   2.584  0.7951  1.1464 -0.8772
   53CHL1    O3 3851   6.060   6.655   2.476  0.3462  0.1371  0.1548
   53CHL1   H3' 3852   6.145   6.697   2.493  0.7264 -0.6512  0.2759
   53CHL1    C4 3853   6.000   6.774   2.677  0.8748 -0.4579 -0.6584
   53CHL1   H4A 3854   6.103   6.815   2.665  0.4104  0.9013 -0.2676
   53CHL1   H4B 3855   5.935   6.846   2.624 -0.3606 -1.9879 -1.2909
   53CHL1    C5 3856   5.967   6.749   2.825 -0.1115 -0.0347  0.8520
   53CHL1    C6 3857   5.863   6.809   2.885  0.2265  0.2171 -0.3426
   53CHL1    H6 3858   5.808   6.882   2.823  0.6363  1.9524  1.2579
   53CHL1    C7 3859   5.824   6.800   3.036 -0.4040  0.2874  0.4246
   53CHL1   H7A 3860   5.800   6.898   3.083 -1.1709  0.4417 -0.2663
   53CHL1   H7B 3861   5.734   6.735   3.043 -0.3494  0.2243  0.5437
   53CHL1    C8 3862   5.931   6.726   3.110 -0.1099 -0.2794 -0.6671
   53CHL1    H8 3863   6.022   6.786   3.129  0.8858 -2.0753  0.5822
   53CHL1   C14 3864   5.868   6.693   3.249 -0.9971  0.7254 -0.2212
   53CHL1   H14 3865   5.770   6.642   3.237 -1.0655  0.9408 -0.6173
   53CHL1   C15 3866   5.837   6.818   3.336  0.5484  0.4281  0.1350
   53CHL1  H15A 3867   5.916   6.892   3.363  0.6219  0.6968 -0.7888
   53CHL1  H15B 3868   5.754   6.881   3.296  0.0907 -0.2482  0.0113
   53CHL1   C16 3869   5.806   6.752   3.472  0.4001 -0.0382 -0.1519
   53CHL1  H16A 3870   5.844   6.811   3.558 -0.8859 -0.6721  0.8995
   53CHL1  H16B 3871   5.698   6.740   3.495  0.9026 -2.5930  1.3188
   53CHL1   C17 3872   5.869   6.602   3.469 -1.5008  0.5999  0.4783
   53CHL1   H17 3873   5.787   6.528   3.456 -1.2733  0.5163 -0.5749
   53CHL1   C13 3874   5.951   6.604   3.339 -0.2008 -0.4698  0.2913
   53CHL1   C18 3875   6.090   6.678   3.370 -0.0447 -0.1603  0.6638
   53CHL1  H18A 3876   6.145   6.597   3.423 -1.6104 -0.2322  2.2901
   53CHL1  H18B 3877   6.140   6.690   3.272  0.4400 -0.9034  0.8102
   53CHL1  H18C 3878   6.083   6.779   3.416  0.2616  0.0943  0.1545
   53CHL1   C12 3879   5.967   6.472   3.258  0.0374 -0.1934 -1.1424
   53CHL1  H12A 3880   6.028   6.400   3.317 -0.0188  0.1580 -0.6390
   53CHL1  H12B 3881   5.868   6.427   3.234  0.3956 -1.0353 -1.0750
   53CHL1   C11 3882   6.035   6.492   3.117 -0.2141 -0.1631 -0.2198
   53CHL1  H11A 3883   6.140   6.525   3.127  0.0867 -1.3140  0.5880
   53CHL1  H11B 3884   6.027   6.393   3.067  0.3416 -0.2104 -0.2190
   53CHL1    C9 3885   5.956   6.601   3.033 -0.0286  0.2496 -0.0836
   53CHL1    H9 3886   5.854   6.558   3.019  0.0118 -0.4959  1.6619
   53CHL1   C10 3887   6.027   6.634   2.895 -0.5852 -0.5519 -0.5003
   53CHL1   C19 3888   6.183   6.663   2.919 -0.2738 -0.3172 -0.7028
   53CHL1  H19A 3889   6.216   6.736   2.996 -0.0634 -0.7228 -0.4112
   53CHL1  H19B 3890   6.248   6.574   2.930  1.0521  0.6850 -0.0129
   53CHL1  H19C 3891   6.222   6.719   2.831  2.1971 -0.3334  0.3082
   53CHL1    C1 3892   6.023   6.507   2.805  0.4170  0.2558  0.5236
   53CHL1   H1A 3893   6.082   6.433   2.862  0.3607  0.8276  1.3425
   53CHL1   H1B 3894   5.922   6.465   2.782  0.6922 -0.3171  0.3421
   53CHL1    C2 3895   6.084   6.526   2.668 -0.7792 -0.2275  0.4381
   53CHL1   H2A 3896   6.083   6.441   2.597 -1.2673  0.2767 -0.1763
   53CHL1   H2B 3897   6.193   6.550   2.669 -1.0697  1.2902 -0.4981
   53CHL1   C20 3898   5.928   6.553   3.604 -0.1664 -0.0629 -0.6904
   53CHL1   H20 3899   6.020   6.614   3.617 -0.2044 -0.2493  0.6325
   53CHL1   C21 3900   5.957   6.403   3.591 -0.0318 -0.1733 -0.4557
   53CHL1  H21A 3901   6.041   6.387   3.520 -1.6304 -0.2349 -2.3956
   53CHL1  H21B 3902   5.866   6.348   3.558 -0.4004 -1.0272  1.7849
   53CHL1  H21C 3903   5.979   6.352   3.687 -1.0580  0.6869  0.2595
   53CHL1   C22 3904   5.824   6.583   3.718 -0.6185 -0.3596 -0.4086
   53CHL1  H22A 3905   5.794   6.690   3.723  0.9415  0.1925 -1.7096
   53CHL1  H22B 3906   5.730   6.526   3.701 -0.4402 -0.1342 -2.5179
   53CHL1   C23 3907   5.881   6.548   3.851  0.2096  0.4711 -0.1771
   53CHL1  H23A 3908   5.883   6.438   3.864 -0.0265  0.6523  1.6933
   53CHL1  H23B 3909   5.985   6.587   3.863 -0.2965  1.6913  0.4711
   53CHL1   C24 3910   5.790   6.607   3.960 -0.2329 -0.4192 -0.2801
   53CHL1  H24A 3911   5.789   6.717   3.973 -0.5721 -0.2926 -1.3077
   53CHL1  H24B 3912   5.684   6.586   3.935  0.0461 -0.3181 -1.6398
   53CHL1   C25 3913   5.831   6.554   4.102  0.6016 -0.3331 -0.4808
   53CHL1   H25 3914   5.815   6.444   4.102  0.2335 -0.2878  0.2600
   53CHL1   C26 3915   5.978   6.568   4.137  0.1725 -0.2433 -0.4126
   53CHL1  H26A 3916   6.049   6.542   4.056 -0.6372 -0.2386 -1.1459
   53CHL1  H26B 3917   5.999   6.676   4.152  1.3555 -0.5524  0.2643
   53CHL1  H26C 3918   6.008   6.509   4.226 -1.1596  1.0240  0.9503
   53CHL1   C27 3919   5.746   6.613   4.213 -0.0593  0.0420 -0.9565
   53CHL1  H27A 3920   5.755   6.723   4.216  0.4536 -0.0163  1.4347
   53CHL1  H27B 3921   5.640   6.577   4.213  0.4015 -1.4372  0.4328
   53CHL1  H27C 3922   5.785   6.584   4.312 -1.6072  0.9446 -0.0420
   54CHL1    C3 3923   3.703   0.636   2.970 -0.2481  0.2530  0.2164
   54CHL1    H3 3924   3.806   0.619   3.007 -0.9100 -0.7846  1.6453
   54CHL1    O3 3925   3.708   0.655   2.826  0.5542  0.5054  0.1041
   54CHL1   H3' 3926   3.620   0.667   2.789 -0.3239 -2.5040  0.9523
   54CHL1    C4 3927   3.627   0.507   3.005  0.1037  0.4276 -0.2283
   54CHL1   H4A 3928   3.524   0.513   2.962 -0.9105 -0.6455  1.9002
   54CHL1   H4B 3929   3.666   0.423   2.944  0.0714 -0.5504  1.0586
   54CHL1    C5 3930   3.618   0.493   3.159  0.0812 -0.3643  0.7162
   54CHL1    C6 3931   3.658   0.387   3.226 -0.6310  0.3739 -0.5591
   54CHL1    H6 3932   3.692   0.296   3.175 -0.4673  0.8842 -1.3824
   54CHL1    C7 3933   3.651   0.372   3.381 -0.2311  0.0641  0.2366
   54CHL1   H7A 3934   3.617   0.270   3.408  2.8521 -0.9744  0.6738
   54CHL1   H7B 3935   3.749   0.390   3.431 -0.6952  1.0921  0.8053
   54CHL1    C8 3936   3.550   0.476   3.457 -0.0109 -0.1487 -0.0384
   54CHL1    H8 3937   3.447   0.448   3.428 -0.5305  0.1953  1.3813
   54CHL1   C14 3938   3.565   0.478   3.607 -0.7811  0.0077 -0.6038
   54CHL1   H14 3939   3.667   0.517   3.626 -0.8183  0.5879 -1.5222
   54CHL1   C15 3940   3.570   0.344   3.687  0.5787 -0.8857  0.4246
   54CHL1  H15A 3941   3.482   0.280   3.662  0.0759 -0.4665  1.0829
   54CHL1  H15B 3942   3.663   0.283   3.679  0.7395 -0.8700  1.9181
   54CHL1   C16 3943   3.552   0.397   3.826 -0.6240 -0.8370 -0.4236
   54CHL1  H16A 3944   3.478   0.339   3.886  0.0635  1.0887  2.5381
   54CHL1  H16B 3945   3.653   0.383   3.872 -1.0342  0.1817  0.8631
   54CHL1   C17 3946   3.514   0.550   3.825 -0.1119 -0.1849  0.1245
   54CHL1   H17 3947   3.607   0.607   3.843  1.7281 -3.2036  0.8012
   54CHL1   C13 3948   3.481   0.582   3.679  0.6159 -0.3550  0.1766
   54CHL1   C18 3949   3.329   0.544   3.654 -0.3627  0.0669 -0.6431
   54CHL1  H18A 3950   3.313   0.436   3.677 -0.9685  0.1316 -0.7328
   54CHL1  H18B 3951   3.265   0.605   3.721  0.7041  1.0352 -0.4777
   54CHL1  H18C 3952   3.305   0.570   3.549  1.7847  1.0582 -0.9359
   54CHL1   C12 3953   3.516   0.727   3.620 -0.4123  0.4935 -0.2356
   54CHL1  H12A 3954   3.452   0.806   3.665 -1.7781  0.4596 -1.9839
   54CHL1  H12B 3955   3.621   0.752   3.646  0.0703 -0.6199 -1.0243
   54CHL1   C11 3956   3.495   0.720   3.470  0.2973  0.6888  0.0068
   54CHL1  H11A 3957   3.389   0.706   3.441  0.9043 -3.6174 -0.6847
   54CHL1  H11B 3958   3.534   0.814   3.425 -0.1562 -0.0424 -1.9773
   54CHL1    C9 3959   3.577   0.610   3.394 -0.5150  0.4159 -0.0879
   54CHL1    H9 3960   3.685   0.622   3.418 -0.3830  0.3965 -0.6590
   54CHL1   C10 3961   3.565   0.616   3.237 -0.5763  0.0106  0.1416
   54CHL1   C19 3962   3.412   0.622   3.202  0.1856 -0.3853 -0.2277
   54CHL1  H19A 3963   3.360   0.713   3.237  0.6633  0.6191 -2.0107
   54CHL1  H19B 3964   3.390   0.609   3.093 -1.9796  3.1684 -0.3507
   54CHL1  H19C 3965   3.364   0.537   3.255  2.2635 -1.6065 -0.1782
   54CHL1    C1 3966   3.645   0.739   3.194 -0.9005 -0.0840  0.1276
   54CHL1   H1A 3967   3.611   0.837   3.234  0.2091  0.2279  0.3452
   54CHL1   H1B 3968   3.752   0.729   3.221 -0.7281  1.1735  0.0036
   54CHL1    C2 3969   3.648   0.761   3.043  0.0223  0.0979 -0.0119
   54CHL1   H2A 3970   3.701   0.851   3.004  2.7187 -1.2745  0.2823
   54CHL1   H2B 3971   3.545   0.761   3.000  0.7824  0.0232 -1.9082
   54CHL1   C20 3972   3.413   0.591   3.935 -0.7042  0.4242 -0.1879
   54CHL1   H20 3973   3.318   0.536   3.923 -0.3521 -0.2700  0.1911
   54CHL1   C21 3974   3.393   0.745   3.934  0.3369  0.0499 -0.2748
   54CHL1  H21A 3975   3.493   0.791   3.949  0.3369 -0.0673  0.1148
   54CHL1  H21B 3976   3.318   0.777   4.009  2.2435  1.6467  1.0609
   54CHL1  H21C 3977   3.352   0.784   3.839  0.8968  0.5098 -0.3363
   54CHL1   C22 3978   3.473   0.545   4.077 -0.2881 -0.9662 -0.0204
   54CHL1  H22A 3979   3.502   0.438   4.081  0.4594 -0.7425  1.2390
   54CHL1  H22B 3980   3.563   0.609   4.087 -1.0668  0.3286 -0.9976
   54CHL1   C23 3981   3.379   0.585   4.191  0.4838  0.7047 -0.1084
   54CHL1  H23A 3982   3.378   0.696   4.192  0.4052  0.7020  0.3379
   54CHL1  H23B 3983   3.280   0.550   4.154  0.8629  1.1285 -1.5915
   54CHL1   C24 3984   3.423   0.517   4.324 -0.1416 -0.3489 -0.7115
   54CHL1  H24A 3985   3.454   0.412   4.303  1.0782  0.1922 -1.7490
   54CHL1  H24B 3986   3.511   0.577   4.353 -1.9770  1.6910  1.0068
   54CHL1   C25 3987   3.317   0.532   4.428  0.5325 -0.4722 -1.3173
   54CHL1   H25 3988   3.230   0.465   4.411 -0.9278  1.5392 -2.0925
   54CHL1   C26 3989   3.383   0.492   4.562 -0.5079 -0.5116 -0.0656
   54CHL1  H26A 3990   3.314   0.509   4.647 -2.2815 -0.2768 -1.4811
   54CHL1  H26B 3991   3.405   0.383   4.558 -1.8966 -0.8724 -4.7170
   54CHL1  H26C 3992   3.470   0.558   4.581 -1.3104  0.7492 -0.6138
   54CHL1   C27 3993   3.260   0.675   4.437  0.1168  0.3310  0.7902
   54CHL1  H27A 3994   3.188   0.674   4.522 -0.0167 -1.5796  0.6833
   54CHL1  H27B 3995   3.342   0.749   4.445 -2.6759  3.5072  3.1830
   54CHL1  H27C 3996   3.206   0.696   4.342  1.1649  1.3867  0.3988
   55CHL1    C3 3997   1.564   6.237   2.763  0.1698  0.1748  0.8935
   55CHL1    H3 3998   1.648   6.264   2.830 -2.0768  1.6726  3.3207
   55CHL1    O3 3999   1.621   6.248   2.630 -0.5093  0.3504  0.4256
   55CHL1   H3' 4000   1.542   6.244   2.575 -0.6355 -2.7225  0.6652
   55CHL1    C4 4001   1.519   6.092   2.793  0.5489  0.7376 -0.9901
   55CHL1   H4A 4002   1.429   6.067   2.732 -0.4443  0.6092  0.4730
   55CHL1   H4B 4003   1.588   6.011   2.761 -0.2546 -0.3023 -0.1813
   55CHL1    C5 4004   1.472   6.087   2.937 -0.0796  0.1421 -0.7859
   55CHL1    C6 4005   1.521   5.996   3.025  0.6265 -0.5403  0.6165
   55CHL1    H6 4006   1.589   5.921   2.982  0.1073 -1.1939  0.9251
   55CHL1    C7 4007   1.491   5.982   3.166  0.3778 -0.8264  0.5964
   55CHL1   H7A 4008   1.471   5.873   3.180 -0.3400 -0.5911  1.4843
   55CHL1   H7B 4009   1.575   6.019   3.229  1.0421 -0.3036 -0.5818
   55CHL1    C8 4010   1.359   6.062   3.202 -0.5520  0.0969  0.2218
   55CHL1    H8 4011   1.271   6.004   3.167 -0.2784  0.3652 -0.9307
   55CHL1   C14 4012   1.346   6.068   3.353 -0.0914 -0.3795 -0.0057
   55CHL1   H14 4013   1.435   6.126   3.386 -0.0123 -0.8244  0.5603
   55CHL1   C15 4014   1.353   5.930   3.429  0.4240 -0.5802  0.1902
   55CHL1  H15A 4015   1.293   5.849   3.381 -2.0931  1.5149 -0.4203
   55CHL1  H15B 4016   1.459   5.904   3.446 -0.1560 -1.2056  3.3061
   55CHL1   C16 4017   1.284   5.964   3.567 -0.3319  0.2880 -0.1642
   55CHL1  H16A 4018   1.216   5.880   3.593 -0.4589  1.3913  3.8112
   55CHL1  H16B 4019   1.355   5.958   3.652  0.9003  0.4628 -1.1652
   55CHL1   C17 4020   1.217   6.101   3.566 -0.1658 -0.2289  0.5702
   55CHL1   H17 4021   1.289   6.164   3.622 -2.2493  1.6468  1.2752
   55CHL1   C13 4022   1.214   6.134   3.407 -0.1260  0.1430 -0.9017
   55CHL1   C18 4023   1.086   6.068   3.350  0.1673  0.4386 -0.4104
   55CHL1  H18A 4024   1.098   5.959   3.369  2.3731  0.3176 -2.0947
   55CHL1  H18B 4025   0.989   6.099   3.395  1.4378 -0.7404  3.5399
   55CHL1  H18C 4026   1.085   6.070   3.239 -1.0961 -0.8643 -0.4512
   55CHL1   C12 4027   1.210   6.278   3.361  0.7748 -0.0747 -0.0661
   55CHL1  H12A 4028   1.113   6.324   3.387  1.8155  1.3678  1.4671
   55CHL1  H12B 4029   1.302   6.326   3.401  0.5341  0.0001  0.3995
   55CHL1   C11 4030   1.241   6.295   3.208 -0.5512 -0.0609 -0.1848
   55CHL1  H11A 4031   1.142   6.278   3.159 -1.6143  0.0686  1.7845
   55CHL1  H11B 4032   1.261   6.403   3.191 -0.7960  0.1789  0.9782
   55CHL1    C9 4033   1.353   6.204   3.149  0.1348  0.1267 -0.3224
   55CHL1    H9 4034   1.449   6.243   3.188  0.3659 -2.0035  1.4576
   55CHL1   C10 4035   1.380   6.202   2.984 -0.4441  0.2729 -1.4264
   55CHL1   C19 4036   1.240   6.163   2.913 -0.4825 -0.8657 -0.2590
   55CHL1  H19A 4037   1.160   6.228   2.954 -0.2959 -3.0960  4.1856
   55CHL1  H19B 4038   1.253   6.182   2.804 -0.8461 -0.1213 -0.1754
   55CHL1  H19C 4039   1.217   6.056   2.934 -0.8228 -0.4783  1.4787
   55CHL1    C1 4040   1.421   6.345   2.938  0.4036 -0.2152 -0.2690
   55CHL1   H1A 4041   1.343   6.421   2.961  1.1355  0.4340  0.1398
   55CHL1   H1B 4042   1.512   6.387   2.987  0.3508 -0.2263 -0.1628
   55CHL1    C2 4043   1.453   6.350   2.792  0.0786  0.0318 -0.0148
   55CHL1   H2A 4044   1.494   6.443   2.749  0.3574 -1.3272 -2.9358
   55CHL1   H2B 4045   1.360   6.325   2.736  1.1551 -1.7775 -1.1251
   55CHL1   C20 4046   1.087   6.111   3.648 -0.6158 -0.2879 -0.1079
   55CHL1   H20 4047   1.005   6.054   3.600 -2.2603  0.8864  1.2077
   55CHL1   C21 4048   1.050   6.259   3.664 -0.7161  0.4162  0.0463
   55CHL1  H21A 4049   0.956   6.269   3.723 -1.2455 -2.6298 -0.1164
   55CHL1  H21B 4050   1.041   6.303   3.563  1.3821  0.7601 -0.0284
   55CHL1  H21C 4051   1.131   6.313   3.717  0.6393 -1.3425 -0.1205
   55CHL1   C22 4052   1.107   6.045   3.789 -0.6400 -0.1503  1.0142
   55CHL1  H22A 4053   1.124   5.936   3.775  1.0903  0.2821 -0.6142
   55CHL1  H22B 4054   1.197   6.092   3.833 -0.2248  1.4115 -1.3487
   55CHL1   C23 4055   0.996   6.077   3.888 -0.0945  0.7536  0.3051
   55CHL1  H23A 4056   0.984   6.185   3.913 -1.0532  0.8081 -0.3400
   55CHL1  H23B 4057   0.907   6.050   3.828  0.5181 -0.4216 -0.1058
   55CHL1   C24 4058   0.990   5.993   4.018  0.1840 -0.8963  0.3423
   55CHL1  H24A 4059   1.072   6.037   4.078  2.1049 -0.3497 -2.5003
   55CHL1  H24B 4060   0.891   6.003   4.067  1.5753  0.2665  3.1156
   55CHL1   C25 4061   1.014   5.846   3.997 -0.4185 -0.4299 -0.1141
   55CHL1   H25 4062   1.110   5.821   3.947  0.5193 -0.1391  1.4723
   55CHL1   C26 4063   1.025   5.795   4.142 -0.8839  0.4227 -0.0577
   55CHL1  H26A 4064   1.098   5.859   4.197 -1.4906  1.5078 -0.4670
   55CHL1  H26B 4065   0.924   5.813   4.185 -0.4190 -0.3939  1.4261
   55CHL1  H26C 4066   1.068   5.693   4.144  1.5483  1.3781  1.7626
   55CHL1   C27 4067   0.896   5.791   3.912 -0.4012 -0.5015  0.0940
   55CHL1  H27A 4068   0.802   5.830   3.956 -0.2297 -0.2723  0.2578
   55CHL1  H27B 4069   0.906   5.827   3.807  0.1975  0.9851  0.6376
   55CHL1  H27C 4070   0.904   5.680   3.907  0.0671 -0.4420 -3.6079
   56CHL1    C3 4071   2.588   0.105   3.120  0.7212  0.0806  0.7151
   56CHL1    H3 4072   2.646   0.199   3.133 -2.5135  2.1769  1.1908
   56CHL1    O3 4073   2.556   0.096   2.981  0.2774  0.3664 -0.0523
   56CHL1   H3' 4074   2.480   0.038   2.981 -1.1166  2.0872  1.0769
   56CHL1    C4 4075   2.681  -0.013   3.164 -0.0038 -0.8283  0.4699
   56CHL1   H4A 4076   2.643  -0.110   3.127 -0.3141 -0.8359  0.8024
   56CHL1   H4B 4077   2.780  -0.001   3.114  0.3688  0.7979  1.5140
   56CHL1    C5 4078   2.688  -0.023   3.312 -0.5181 -0.1178 -0.9171
   56CHL1    C6 4079   2.807  -0.044   3.370  0.1533  0.1770 -0.8649
   56CHL1    H6 4080   2.891  -0.072   3.306  0.1864 -3.0544  0.3697
   56CHL1    C7 4081   2.819  -0.076   3.519 -1.0809  0.7290  0.5985
   56CHL1   H7A 4082   2.883  -0.165   3.537 -0.8112  0.8405  0.2179
   56CHL1   H7B 4083   2.895  -0.006   3.558  0.6572 -0.7922  0.1065
   56CHL1    C8 4084   2.689  -0.088   3.593  0.0364  0.4558  0.5163
   56CHL1    H8 4085   2.641  -0.187   3.581 -0.1335  0.7198 -1.1180
   56CHL1   C14 4086   2.717  -0.072   3.746  0.5417  0.3593 -0.0717
   56CHL1   H14 4087   2.766   0.026   3.764  1.4726 -0.1853  0.4169
   56CHL1   C15 4088   2.818  -0.168   3.816  0.2462 -0.0708  0.3338
   56CHL1  H15A 4089   2.803  -0.271   3.775 -1.7437  0.7095 -1.0786
   56CHL1  H15B 4090   2.921  -0.147   3.783  0.9074 -1.4289  1.4368
   56CHL1   C16 4091   2.799  -0.153   3.962  0.3321  0.4237 -0.3179
   56CHL1  H16A 4092   2.778  -0.252   4.006 -1.0561  1.4208  1.4195
   56CHL1  H16B 4093   2.890  -0.115   4.014 -0.1660 -2.5109  3.1198
   56CHL1   C17 4094   2.671  -0.069   3.981  0.0006  0.3506 -0.5874
   56CHL1   H17 4095   2.694   0.040   3.988  0.6403  0.2065 -0.3866
   56CHL1   C13 4096   2.598  -0.079   3.842  0.6319  0.0391  0.4713
   56CHL1   C18 4097   2.542  -0.222   3.831 -0.2396  0.1179 -0.5601
   56CHL1  H18A 4098   2.506  -0.247   3.729  0.9053  2.8566 -1.7278
   56CHL1  H18B 4099   2.612  -0.301   3.869  0.3373  1.8667  2.2995
   56CHL1  H18C 4100   2.452  -0.236   3.894  0.0436 -2.1982 -0.5807
   56CHL1   C12 4101   2.498   0.029   3.798 -0.2974 -0.0820 -0.3277
   56CHL1  H12A 4102   2.400   0.004   3.844  0.1235 -3.0315 -0.8768
   56CHL1  H12B 4103   2.545   0.123   3.834  1.4663 -1.9526  2.7751
   56CHL1   C11 4104   2.470   0.025   3.642  0.0344 -0.3952 -0.6094
   56CHL1  H11A 4105   2.397  -0.058   3.633 -0.2543 -0.0995 -1.0877
   56CHL1  H11B 4106   2.421   0.123   3.623  3.4247  1.9773  1.7517
   56CHL1    C9 4107   2.591   0.020   3.546  0.2810  0.2077  0.0259
   56CHL1    H9 4108   2.645   0.116   3.550  1.1729 -0.2092 -1.2417
   56CHL1   C10 4109   2.556   0.001   3.400  0.0032  0.5162  0.0421
   56CHL1   C19 4110   2.468  -0.127   3.387  0.3074 -0.9325  0.4480
   56CHL1  H19A 4111   2.459  -0.153   3.279  0.8824 -2.8213  0.8083
   56CHL1  H19B 4112   2.525  -0.217   3.419  1.6812 -0.4294 -0.5199
   56CHL1  H19C 4113   2.373  -0.126   3.445 -0.2992 -1.7606 -0.5006
   56CHL1    C1 4114   2.486   0.135   3.348 -0.0146  0.7016 -0.1387
   56CHL1   H1A 4115   2.393   0.140   3.409  1.2507 -0.5444  2.0437
   56CHL1   H1B 4116   2.553   0.219   3.375 -0.0113  0.7064 -0.1626
   56CHL1    C2 4117   2.460   0.132   3.197 -0.0794 -0.4960  0.4007
   56CHL1   H2A 4118   2.406   0.223   3.163 -1.8481 -1.7218 -0.2409
   56CHL1   H2B 4119   2.397   0.044   3.173  0.2286 -0.7465  0.5135
   56CHL1   C20 4120   2.585  -0.111   4.103 -0.4469  0.7058  0.3138
   56CHL1   H20 4121   2.539  -0.210   4.084  0.3793  0.5353 -0.9164
   56CHL1   C21 4122   2.480   0.002   4.138  0.3468 -0.1484 -0.2416
   56CHL1  H21A 4123   2.528   0.102   4.135 -0.3853  0.1914 -0.8290
   56CHL1  H21B 4124   2.438  -0.012   4.240  2.5688 -1.1915  0.5983
   56CHL1  H21C 4125   2.395   0.021   4.069  1.0898  2.2535 -0.5770
   56CHL1   C22 4126   2.666  -0.154   4.230 -0.3008  0.1100 -0.9910
   56CHL1  H22A 4127   2.711  -0.251   4.202  1.0190 -0.3788  2.3079
   56CHL1  H22B 4128   2.743  -0.084   4.270 -0.2555 -1.1907  1.4266
   56CHL1   C23 4129   2.581  -0.212   4.342 -0.4555 -0.1728  0.3924
   56CHL1  H23A 4130   2.517  -0.131   4.385  1.2508  1.0124  0.8124
   56CHL1  H23B 4131   2.514  -0.287   4.295  0.2606  0.7546 -2.2683
   56CHL1   C24 4132   2.647  -0.290   4.455  0.0266 -0.3468 -0.6577
   56CHL1  H24A 4133   2.569  -0.331   4.522  1.6181 -0.1130  1.4448
   56CHL1  H24B 4134   2.721  -0.359   4.408  1.0349  1.0396 -1.1980
   56CHL1   C25 4135   2.738  -0.205   4.541  0.0251  0.2063 -0.1680
   56CHL1   H25 4136   2.820  -0.167   4.477  1.3758 -0.0797  1.3191
   56CHL1   C26 4137   2.667  -0.092   4.609  0.9855 -0.1626 -0.2228
   56CHL1  H26A 4138   2.731  -0.036   4.681 -1.7784  1.3598  1.2621
   56CHL1  H26B 4139   2.638  -0.013   4.536  0.3681 -1.0391 -0.9517
   56CHL1  H26C 4140   2.577  -0.130   4.663  1.1322  0.4004  0.4472
   56CHL1   C27 4141   2.785  -0.294   4.651  0.2195 -0.9615 -0.0148
   56CHL1  H27A 4142   2.869  -0.237   4.696 -2.2050  4.1536 -1.2297
   56CHL1  H27B 4143   2.706  -0.315   4.726 -2.0810  1.0211 -1.7271
   56CHL1  H27C 4144   2.828  -0.388   4.611 -1.5486 -0.8173 -2.4949
   57SAPC     N 4145   5.765   6.603   6.913  0.5119 -0.2335  0.2306
   57SAPC   C12 4146   5.901   6.542   6.888  0.3285 -0.0819 -0.9254
   57SAPC  H12A 4147   5.959   6.510   6.973  1.5199 -1.1752 -2.1012
   57SAPC  H12B 4148   5.959   6.625   6.852  1.4057 -0.6042 -0.4238
   57SAPC   C13 4149   5.671   6.501   6.966  0.8239  0.6262  0.2674
   57SAPC  H13A 4150   5.579   6.554   6.988  1.5626  0.7051  3.6317
   57SAPC  H13B 4151   5.646   6.430   6.888 -0.6965  1.4534 -0.0406
   57SAPC  H13C 4152   5.710   6.458   7.056  0.4198 -0.0261  0.1341
   57SAPC   C14 4153   5.782   6.708   7.022  0.7091 -0.7753  0.0404
   57SAPC  H14A 4154   5.687   6.759   7.020  0.7277 -0.7634 -1.5500
   57SAPC  H14B 4155   5.794   6.667   7.121 -4.4126 -0.0919  1.2231
   57SAPC  H14C 4156   5.851   6.787   6.999 -0.6508 -0.0267 -1.6481
   57SAPC   C15 4157   5.717   6.672   6.792  0.1582  0.1188  0.3916
   57SAPC  H15A 4158   5.619   6.714   6.807 -0.7355 -0.9465 -1.9383
   57SAPC  H15B 4159   5.784   6.754   6.774  2.1193 -1.1321  1.6249
   57SAPC  H15C 4160   5.711   6.614   6.701  0.4539  0.7440 -0.0326
   57SAPC   C11 4161   5.904   6.430   6.792  0.5000  0.7060  0.2219
   57SAPC  H11A 4162   5.874   6.450   6.687 -0.5139 -1.7948 -0.0261
   57SAPC  H11B 4163   5.824   6.356   6.815  0.3020  0.1492 -2.0565
   57SAPC     P 4164   6.164   6.430   6.744  0.4178 -0.2712  0.2477
   57SAPC   O13 4165   6.144   6.574   6.723  0.0757 -0.7737  0.8139
   57SAPC   O14 4166   6.284   6.387   6.820  0.0788 -0.2596 -0.4127
   57SAPC   O12 4167   6.030   6.367   6.812  0.0543  0.3040  0.0407
   57SAPC   O11 4168   6.166   6.362   6.603  0.4547  0.6130 -0.1129
   57SAPC    C1 4169   6.105   6.234   6.573  0.1036 -0.0905 -0.0777
   57SAPC    HA 4170   5.999   6.240   6.607  0.8498 -0.0169  2.4390
   57SAPC    HB 4171   6.100   6.221   6.463 -1.1990 -2.6059  0.2159
   57SAPC    C2 4172   6.177   6.109   6.620  0.1084  0.6343 -0.2227
   57SAPC    HS 4173   6.216   6.124   6.722  0.1217 -0.9230  0.0219
   57SAPC   O21 4174   6.290   6.087   6.528  0.3222  0.1663 -0.2159
   57SAPC   C21 4175   6.376   5.995   6.572  0.7326  0.0960  0.0106
   57SAPC   O22 4176   6.390   5.954   6.684 -0.1179  0.1034  0.0951
   57SAPC   C22 4177   6.462   5.944   6.453  0.0474  0.0832  0.2546
   57SAPC   H2R 4178   6.390   5.899   6.381 -0.7507 -0.0053  1.0919
   57SAPC   H2S 4179   6.497   6.039   6.406 -1.0854  0.4727  0.1585
   57SAPC    C3 4180   6.082   5.983   6.618  1.0682 -0.5037  1.6375
   57SAPC    HX 4181   6.003   6.007   6.692  0.8569 -2.1640  1.9827
   57SAPC    HY 4182   6.134   5.891   6.651  2.7499  0.3208  1.3852
   57SAPC   O31 4183   6.028   5.964   6.483  0.1567 -0.0891  0.4132
   57SAPC   C31 4184   6.073   5.882   6.399 -0.7403  0.3218 -0.5133
   57SAPC   O32 4185   6.164   5.800   6.415 -0.6307  0.3877  0.2043
   57SAPC   C32 4186   6.014   5.920   6.266  0.9305  0.1363 -0.6623
   57SAPC   H2X 4187   6.056   6.020   6.241 -0.9419  1.7357  2.0105
   57SAPC   H2Y 4188   5.904   5.931   6.269  0.9912  1.0896  3.2048
   57SAPC   C23 4189   6.586   5.865   6.495  0.2345 -0.6912  0.3962
   57SAPC   H3R 4190   6.551   5.771   6.543 -1.1981  0.1573  1.0752
   57SAPC   H3S 4191   6.651   5.924   6.564  1.6217 -0.7134 -0.8374
   57SAPC   C24 4192   6.681   5.823   6.377 -0.0772 -0.0209  0.1894
   57SAPC   H4R 4193   6.764   5.763   6.420  0.1479 -0.6340 -1.0723
   57SAPC   H4S 4194   6.728   5.908   6.323 -1.6545 -0.2788 -1.7058
   57SAPC   C25 4195   6.624   5.725   6.290  0.4196 -0.2978 -0.2191
   57SAPC   H5R 4196   6.605   5.626   6.332  2.1729 -0.6970 -0.2823
   57SAPC   C26 4197   6.571   5.745   6.163 -0.7012  1.4362 -0.9948
   57SAPC   H6R 4198   6.547   5.657   6.102  1.4561 -0.2114  0.4015
   57SAPC   C27 4199   6.581   5.869   6.080  0.1127  0.7063  1.1365
   57SAPC   H7R 4200   6.632   5.852   5.983 -1.4416 -0.2290  0.4511
   57SAPC   H7S 4201   6.645   5.948   6.124 -1.2173  1.3977  1.8993
   57SAPC   C28 4202   6.440   5.914   6.067  0.0526  0.4196  0.0293
   57SAPC   H8R 4203   6.394   5.951   6.160  0.4885  2.6567 -0.5704
   57SAPC   C29 4204   6.382   5.930   5.947  0.0988  0.1512 -0.0233
   57SAPC   H9R 4205   6.276   5.961   5.949  0.3579  1.0324  0.3934
   57SAPC  C210 4206   6.450   5.893   5.817  0.1290 -0.1188  0.1844
   57SAPC  H10R 4207   6.459   5.785   5.791  1.9945  0.2361 -0.8526
   57SAPC  H10S 4208   6.552   5.938   5.823 -1.0588  2.5673  4.3947
   57SAPC  C211 4209   6.387   5.967   5.701 -0.4782 -0.4925  0.0493
   57SAPC  H11R 4210   6.328   6.056   5.727 -0.0454  0.4561 -1.9468
   57SAPC  C212 4211   6.416   5.966   5.569 -0.6427  0.6390 -0.7168
   57SAPC  H12R 4212   6.380   6.044   5.500  0.2991 -0.3912 -2.4433
   57SAPC  C213 4213   6.503   5.855   5.507 -0.1074 -0.3729  0.0674
   57SAPC  H13R 4214   6.437   5.800   5.437 -0.8174 -1.6066  1.6407
   57SAPC  H13S 4215   6.526   5.781   5.587 -1.3731  0.5556  1.3525
   57SAPC  C214 4216   6.633   5.912   5.465  0.7669  0.8399 -0.1294
   57SAPC  H14R 4217   6.710   5.892   5.541  0.0744  0.2195  0.4089
   57SAPC  C215 4218   6.661   5.977   5.353 -0.4837  0.0707 -0.2011
   57SAPC  H15R 4219   6.759   6.025   5.340 -0.0999 -0.8950 -1.0177
   57SAPC  C216 4220   6.567   5.998   5.240  0.1176 -0.3089 -0.1860
   57SAPC  H16R 4221   6.468   5.953   5.262 -1.3828  2.8676  0.1762
   57SAPC  H16S 4222   6.613   5.964   5.145  1.2415 -0.2386  0.3113
   57SAPC  C217 4223   6.513   6.152   5.224 -0.0560  0.6011 -0.1361
   57SAPC  H17R 4224   6.586   6.212   5.165 -0.1206 -0.0092 -0.8576
   57SAPC  H17S 4225   6.498   6.200   5.324 -1.7798 -0.5059  0.1685
   57SAPC  C218 4226   6.381   6.137   5.150 -0.0872  0.0453 -0.2781
   57SAPC  H18R 4227   6.303   6.122   5.229  0.4997 -2.3067 -0.0613
   57SAPC  H18S 4228   6.381   6.050   5.081 -1.2588  0.1433 -0.4254
   57SAPC  C219 4229   6.348   6.264   5.065  0.0877  0.5552 -0.1231
   57SAPC  H19R 4230   6.439   6.274   5.003 -1.7402 -0.7033 -3.2521
   57SAPC  H19S 4231   6.344   6.352   5.132  0.3098 -0.9492  1.9862
   57SAPC  C220 4232   6.215   6.254   4.987  0.0811 -0.9843  1.2374
   57SAPC  H20R 4233   6.194   6.344   4.925  1.6804 -1.2026  0.3207
   57SAPC  H20S 4234   6.134   6.229   5.058  0.4382 -1.7713  1.3763
   57SAPC  H20T 4235   6.223   6.172   4.912 -2.0415 -0.8311  0.7790
   57SAPC   C33 4236   6.051   5.808   6.162 -0.0637  0.6546 -0.2908
   57SAPC   H3X 4237   6.013   5.709   6.196  0.7167  1.0449  1.9019
   57SAPC   H3Y 4238   6.161   5.807   6.145  0.0501 -0.1969  0.4095
   57SAPC   C34 4239   5.987   5.846   6.034  0.8576 -0.0731 -0.5922
   57SAPC   H4X 4240   5.996   5.957   6.026  0.7122 -0.0138  0.0102
   57SAPC   H4Y 4241   5.877   5.834   6.030  0.5998  1.4425  0.6836
   57SAPC   C35 4242   6.040   5.766   5.914 -0.1114 -0.6103 -0.2652
   57SAPC   H5X 4243   6.019   5.657   5.923  1.8792 -1.2148 -2.1449
   57SAPC   H5Y 4244   6.149   5.782   5.922 -0.5352  2.8561  0.4432
   57SAPC   C36 4245   6.004   5.822   5.775  0.0712  0.4879  0.1157
   57SAPC   H6X 4246   6.033   5.929   5.767 -0.8937  0.7730  0.3242
   57SAPC   H6Y 4247   5.894   5.819   5.764  0.1013  1.1191 -0.4253
   57SAPC   C37 4248   6.072   5.752   5.655  0.2760  0.2271 -0.1676
   57SAPC   H7X 4249   6.042   5.645   5.655 -1.0922  0.5963 -0.1087
   57SAPC   H7Y 4250   6.183   5.748   5.655  0.3686  1.0454 -2.7223
   57SAPC   C38 4251   6.025   5.824   5.528  0.2704 -0.3828  0.4214
   57SAPC   H8X 4252   6.037   5.934   5.536 -0.4062 -0.3231  0.6849
   57SAPC   H8Y 4253   5.922   5.785   5.516 -0.0456  0.2407  1.0619
   57SAPC   C39 4254   6.095   5.769   5.403 -0.0257  0.2111 -0.4588
   57SAPC   H9X 4255   6.078   5.660   5.410  0.2034  0.1401 -0.9856
   57SAPC   H9Y 4256   6.202   5.798   5.412 -0.0377 -0.2323  1.6354
   57SAPC  C310 4257   6.032   5.828   5.278  0.4385  0.1958  0.2471
   57SAPC  H10X 4258   6.041   5.938   5.289 -2.2075  0.3581  1.6661
   57SAPC  H10Y 4259   5.927   5.791   5.270  0.9221 -1.4714  1.2202
   57SAPC  C311 4260   6.105   5.798   5.145  0.0880  0.3933 -0.1502
   57SAPC  H11X 4261   6.093   5.692   5.113 -0.3149  0.8368 -1.5098
   57SAPC  H11Y 4262   6.213   5.812   5.170  0.3711 -1.2920 -0.2877
   57SAPC  C312 4263   6.069   5.888   5.026 -0.6110  0.0716  0.0053
   57SAPC  H12X 4264   6.155   5.880   4.955 -0.4629 -1.8851  0.3473
   57SAPC  H12Y 4265   6.074   5.994   5.059 -2.4771  0.8050 -1.8369
   57SAPC  C313 4266   5.945   5.841   4.949  0.2818 -0.4364 -0.5701
   57SAPC  H13X 4267   5.851   5.859   5.004  1.5767  0.1627  1.5781
   57SAPC  H13Y 4268   5.960   5.737   4.912  1.6538 -1.0138  1.4238
   57SAPC  C314 4269   5.926   5.922   4.812 -0.7547 -0.2774  0.9577
   57SAPC  H14X 4270   6.023   5.921   4.757 -0.4863  3.3613  1.0747
   57SAPC  H14Y 4271   5.908   6.027   4.846 -0.5184  0.1742 -0.2670
   57SAPC  C315 4272   5.813   5.881   4.716 -0.4601  0.2448 -1.0315
   57SAPC  H15X 4273   5.719   5.853   4.769 -0.2283 -0.8346 -1.1575
   57SAPC  H15Y 4274   5.838   5.789   4.658  0.3713  0.6151 -1.2759
   57SAPC  C316 4275   5.792   5.992   4.614 -0.2520 -0.0230 -0.4998
   57SAPC  H16X 4276   5.753   6.082   4.666  1.8862  0.3666  0.5410
   57SAPC  H16Y 4277   5.713   5.951   4.548  0.5675  1.6738 -2.6644
   57SAPC  C317 4278   5.909   6.038   4.525 -0.8434  0.3815 -0.8150
   57SAPC  H17X 4279   5.953   5.951   4.472  2.0323  1.1359  0.1478
   57SAPC  H17Y 4280   5.992   6.068   4.592  3.0057 -1.9317 -4.0523
   57SAPC  C318 4281   5.872   6.155   4.432  0.0723  0.3655  0.1543
   57SAPC  H18X 4282   5.963   6.186   4.376  0.4012  1.4808  1.2486
   57SAPC  H18Y 4283   5.828   6.245   4.481 -2.8522 -1.1459  0.4633
   57SAPC  H18Z 4284   5.801   6.122   4.354  0.7694  1.3706 -0.9334
   58SAPC     N 4285   1.437   3.977   6.934 -0.8506 -0.0077 -0.2324
   58SAPC   C12 4286   1.423   3.848   6.861  0.3850 -0.7019 -0.1900
   58SAPC  H12A 4287   1.520   3.802   6.853  0.1227 -1.3290  0.1436
   58SAPC  H12B 4288   1.383   3.877   6.765  0.7859  1.9534  0.3653
   58SAPC   C13 4289   1.505   3.953   7.063  0.3098  0.9929 -0.4459
   58SAPC  H13A 4290   1.590   3.886   7.056 -0.0841  0.0726  2.4698
   58SAPC  H13B 4291   1.542   4.041   7.113  0.6840  0.4454  0.2457
   58SAPC  H13C 4292   1.430   3.902   7.121 -0.2539  1.4684 -0.7473
   58SAPC   C14 4293   1.532   4.047   6.839 -0.2623 -0.0025 -0.8452
   58SAPC  H14A 4294   1.478   4.063   6.747  1.3494  0.2410 -1.7907
   58SAPC  H14B 4295   1.542   4.152   6.863 -0.5285  0.3339 -2.1234
   58SAPC  H14C 4296   1.625   3.999   6.814 -1.2187 -1.6196 -1.4213
   58SAPC   C15 4297   1.311   4.058   6.945 -1.0665  0.1884 -0.0243
   58SAPC  H15A 4298   1.279   4.078   6.844  0.9925 -0.9746 -0.9702
   58SAPC  H15B 4299   1.235   4.001   6.995 -4.0002  1.4228 -2.7146
   58SAPC  H15C 4300   1.326   4.153   6.996 -2.4661  2.1213 -2.9756
   58SAPC   C11 4301   1.322   3.744   6.918  0.3457 -0.5248  0.2451
   58SAPC  H11A 4302   1.306   3.675   6.832  3.3136 -1.8939  0.6813
   58SAPC  H11B 4303   1.227   3.796   6.943  0.2520 -1.5632  2.2126
   58SAPC     P 4304   1.469   3.567   7.032  0.3462 -0.0568  0.4623
   58SAPC   O13 4305   1.589   3.623   6.968 -0.5923 -0.3405 -0.0092
   58SAPC   O14 4306   1.483   3.504   7.167  0.6521  0.1207 -0.1235
   58SAPC   O12 4307   1.362   3.676   7.038  0.2462  0.0957  0.4450
   58SAPC   O11 4308   1.405   3.464   6.934 -0.2221 -0.0364 -0.2831
   58SAPC    C1 4309   1.482   3.361   6.865 -0.5827 -0.3311  0.3063
   58SAPC    HA 4310   1.570   3.336   6.929  0.2335  2.1665  0.2692
   58SAPC    HB 4311   1.428   3.265   6.855  0.3231 -0.7009 -1.5649
   58SAPC    C2 4312   1.532   3.389   6.721 -0.8582  0.2132 -0.5434
   58SAPC    HS 4313   1.614   3.464   6.721 -2.3668  2.0088  1.5367
   58SAPC   O21 4314   1.416   3.415   6.637 -0.6003 -0.2570  0.0683
   58SAPC   C21 4315   1.396   3.538   6.604 -0.3193  0.3218  0.2109
   58SAPC   O22 4316   1.459   3.632   6.645 -0.4239  0.2627  0.2457
   58SAPC   C22 4317   1.287   3.549   6.500  0.6343  0.4239 -0.1031
   58SAPC   H2R 4318   1.291   3.454   6.441 -0.4695 -0.2061  0.8079
   58SAPC   H2S 4319   1.190   3.552   6.553  0.3006 -0.1343 -0.6662
   58SAPC    C3 4320   1.601   3.265   6.660 -0.1850  0.1217  0.0840
   58SAPC    HX 4321   1.532   3.179   6.675  0.2552  0.1284  2.6283
   58SAPC    HY 4322   1.696   3.242   6.712 -1.3144 -3.4689  0.8514
   58SAPC   O31 4323   1.607   3.276   6.516 -0.6659  0.3483  0.5561
   58SAPC   C31 4324   1.718   3.316   6.459  0.5865  0.2965  0.1832
   58SAPC   O32 4325   1.818   3.354   6.512  0.6152  0.4224 -0.5861
   58SAPC   C32 4326   1.701   3.309   6.307  0.5839  0.3932  0.5589
   58SAPC   H2X 4327   1.609   3.365   6.280  2.0879  1.9780 -1.5760
   58SAPC   H2Y 4328   1.694   3.200   6.287 -1.5035  0.3134  1.4763
   58SAPC   C23 4329   1.293   3.668   6.400 -0.3951  0.5099 -0.4595
   58SAPC   H3R 4330   1.393   3.714   6.387  0.3211 -0.1693  2.1940
   58SAPC   H3S 4331   1.225   3.750   6.430 -0.7763  0.0221  0.0197
   58SAPC   C24 4332   1.248   3.608   6.265 -0.1946  0.4494 -0.1558
   58SAPC   H4R 4333   1.146   3.563   6.266 -0.2129  0.3483 -1.9609
   58SAPC   H4S 4334   1.302   3.515   6.239  0.8032  1.6394 -2.7129
   58SAPC   C25 4335   1.259   3.710   6.155  0.8626  0.5162  0.8806
   58SAPC   H5R 4336   1.270   3.812   6.194 -1.0154  1.2899 -0.4678
   58SAPC   C26 4337   1.263   3.689   6.024 -0.0865 -0.5092 -0.0079
   58SAPC   H6R 4338   1.277   3.768   5.948  1.2871 -1.8658 -1.2356
   58SAPC   C27 4339   1.243   3.555   5.956 -0.0241 -0.5631 -0.0754
   58SAPC   H7R 4340   1.142   3.559   5.910  0.2649  1.1044 -0.6098
   58SAPC   H7S 4341   1.246   3.474   6.031  0.8063  0.4877  1.0530
   58SAPC   C28 4342   1.347   3.529   5.849 -0.1249  0.2716  0.0755
   58SAPC   H8R 4343   1.442   3.487   5.886 -0.9085 -0.9328  0.7808
   58SAPC   C29 4344   1.334   3.527   5.715  0.1821 -1.0610  0.0993
   58SAPC   H9R 4345   1.418   3.503   5.647  1.6064  2.3174  0.4670
   58SAPC  C210 4346   1.219   3.591   5.645  1.1383 -0.0545 -0.2660
   58SAPC  H10R 4347   1.132   3.612   5.711 -1.7678 -0.8965 -3.5074
   58SAPC  H10S 4348   1.176   3.515   5.576  2.2459  0.4019 -1.4951
   58SAPC  C211 4349   1.255   3.717   5.572  0.2218  0.5479 -0.0988
   58SAPC  H11R 4350   1.349   3.759   5.611  0.2978 -1.8031  2.6018
   58SAPC  C212 4351   1.185   3.775   5.476  0.1961  0.1656 -0.2633
   58SAPC  H12R 4352   1.230   3.871   5.446 -2.1334  1.1178 -0.9591
   58SAPC  C213 4353   1.052   3.733   5.417 -0.3605 -0.6504  0.2449
   58SAPC  H13R 4354   1.040   3.624   5.431  1.4564 -0.9199 -0.1094
   58SAPC  H13S 4355   1.065   3.750   5.308  1.5658  0.5732  0.6159
   58SAPC  C214 4356   0.942   3.814   5.484 -0.0987  0.7474  0.1920
   58SAPC  H14R 4357   0.941   3.830   5.593 -2.0464  3.7925 -0.1343
   58SAPC  C215 4358   0.850   3.886   5.412  0.4845  0.1393 -0.5586
   58SAPC  H15R 4359   0.778   3.946   5.470  0.2165 -1.1375  0.5015
   58SAPC  C216 4360   0.816   3.876   5.266  0.9662  0.2000 -0.5841
   58SAPC  H16R 4361   0.750   3.788   5.250 -0.2911  0.9703  0.1833
   58SAPC  H16S 4362   0.906   3.856   5.204 -1.0825 -2.5405 -2.9774
   58SAPC  C217 4363   0.743   4.003   5.218 -0.4063  0.1181  0.0609
   58SAPC  H17R 4364   0.807   4.093   5.230  2.3655 -1.8713  1.2103
   58SAPC  H17S 4365   0.648   4.012   5.275 -0.5278  2.7493 -0.4177
   58SAPC  C218 4366   0.702   4.005   5.072 -0.0872  0.1979  0.2890
   58SAPC  H18R 4367   0.651   3.907   5.065 -0.8280  0.4161  2.0319
   58SAPC  H18S 4368   0.785   4.014   4.999 -0.8342  1.1376 -0.4869
   58SAPC  C219 4369   0.580   4.094   5.043 -0.0456  0.3213 -0.5849
   58SAPC  H19R 4370   0.590   4.200   5.074  1.0260 -0.2729  1.2074
   58SAPC  H19S 4371   0.497   4.055   5.104 -0.4450  0.2020 -1.1922
   58SAPC  C220 4372   0.533   4.074   4.899  0.1231 -0.1459 -0.4218
   58SAPC  H20R 4373   0.522   3.969   4.867 -0.1109 -0.5796  1.0281
   58SAPC  H20S 4374   0.621   4.102   4.838  2.8456 -1.3452  2.6658
   58SAPC  H20T 4375   0.442   4.136   4.882  0.7078  1.8595  2.7647
   58SAPC   C33 4376   1.827   3.372   6.239  0.8678  0.3218 -0.2102
   58SAPC   H3X 4377   1.919   3.310   6.251  0.2418 -0.5777  0.0950
   58SAPC   H3Y 4378   1.852   3.469   6.287  1.0968  0.9948 -1.6369
   58SAPC   C34 4379   1.798   3.396   6.091 -0.4086  0.3802  0.5082
   58SAPC   H4X 4380   1.701   3.450   6.079 -0.4203  0.9671  2.8092
   58SAPC   H4Y 4381   1.786   3.296   6.043 -1.4047  0.3927  0.6960
   58SAPC   C35 4382   1.906   3.481   6.025 -0.1711 -0.4629  0.0187
   58SAPC   H5X 4383   2.010   3.448   6.047 -0.4834 -0.7777  1.0907
   58SAPC   H5Y 4384   1.901   3.576   6.081 -1.3056 -1.0029  0.8615
   58SAPC   C36 4385   1.876   3.517   5.882  0.2913 -0.5574  0.0433
   58SAPC   H6X 4386   1.903   3.621   5.855  2.4606 -0.7446  1.3058
   58SAPC   H6Y 4387   1.766   3.508   5.869 -0.3194  0.8290  3.3174
   58SAPC   C37 4388   1.954   3.434   5.775 -0.5310  0.2326  0.3003
   58SAPC   H7X 4389   1.927   3.328   5.797 -0.9450  0.2055 -0.3347
   58SAPC   H7Y 4390   2.064   3.447   5.783 -0.2581 -0.6235 -1.5033
   58SAPC   C38 4391   1.920   3.472   5.628  0.1646 -0.0181  0.2466
   58SAPC   H8X 4392   1.946   3.577   5.601 -0.7552  0.7614  2.1822
   58SAPC   H8Y 4393   1.812   3.453   5.614  0.4592 -2.2792  0.6063
   58SAPC   C39 4394   1.993   3.376   5.540  0.0001  0.2288  0.2823
   58SAPC   H9X 4395   1.975   3.270   5.569  3.9373 -0.8620 -0.6642
   58SAPC   H9Y 4396   2.102   3.394   5.554 -0.0808 -0.8004  2.5726
   58SAPC  C310 4397   1.949   3.384   5.387  0.8181 -0.1271  0.0477
   58SAPC  H10X 4398   2.027   3.333   5.326  0.5449 -0.8818  0.3150
   58SAPC  H10Y 4399   1.941   3.488   5.350 -3.3847 -0.9186 -1.9148
   58SAPC  C311 4400   1.825   3.307   5.349  0.1227 -0.1917 -0.1305
   58SAPC  H11X 4401   1.734   3.345   5.400  0.1442 -0.9454  0.4870
   58SAPC  H11Y 4402   1.825   3.199   5.376  1.4045 -0.6690 -1.8545
   58SAPC  C312 4403   1.803   3.317   5.193 -0.0825 -0.1153 -0.1790
   58SAPC  H12X 4404   1.783   3.421   5.162 -1.6321  0.2664  1.8620
   58SAPC  H12Y 4405   1.705   3.265   5.177 -1.4028  2.0299  0.5469
   58SAPC  C313 4406   1.909   3.253   5.106 -0.0053 -0.1607 -0.4023
   58SAPC  H13X 4407   1.895   3.143   5.118 -0.2905 -0.1521 -0.6457
   58SAPC  H13Y 4408   2.013   3.282   5.133 -0.2499  1.7780 -1.3591
   58SAPC  C314 4409   1.891   3.275   4.954  0.4957  1.0478 -0.2242
   58SAPC  H14X 4410   1.784   3.300   4.938  0.0496 -0.3086  0.5164
   58SAPC  H14Y 4411   1.913   3.179   4.902  0.7287  1.1556 -0.3302
   58SAPC  C315 4412   1.973   3.390   4.889 -0.2369 -1.0768 -0.2864
   58SAPC  H15X 4413   1.937   3.480   4.944 -0.8846 -0.3712 -1.8134
   58SAPC  H15Y 4414   1.939   3.405   4.784  2.8163 -0.2973 -1.2792
   58SAPC  C316 4415   2.124   3.372   4.894 -0.0799  0.4672 -0.1680
   58SAPC  H16X 4416   2.143   3.270   4.853  2.6788  0.4678  0.8718
   58SAPC  H16Y 4417   2.157   3.374   5.000 -0.1877  0.1107 -0.1269
   58SAPC  C317 4418   2.199   3.464   4.801  0.5975 -0.9142  0.3313
   58SAPC  H17X 4419   2.216   3.569   4.833 -0.0638 -0.7409  0.1244
   58SAPC  H17Y 4420   2.164   3.454   4.696 -0.0284  0.3631  0.4045
   58SAPC  C318 4421   2.343   3.405   4.811 -0.0172  0.1615 -0.1596
   58SAPC  H18X 4422   2.412   3.458   4.742  0.5413  2.1562  1.8269
   58SAPC  H18Y 4423   2.359   3.297   4.790 -1.2640 -0.2107  0.7344
   58SAPC  H18Z 4424   2.380   3.418   4.915 -2.4264  0.8266  0.6770
   59SAPC     N 4425   1.245   5.841   6.670  0.6249  0.4519  0.1817
   59SAPC   C12 4426   1.103   5.879   6.617  0.4160  0.4825 -0.0804
   59SAPC  H12A 4427   1.033   5.809   6.660  0.8018  0.2962  0.2524
   59SAPC  H12B 4428   1.100   5.875   6.510 -0.9302  0.4255 -0.0600
   59SAPC   C13 4429   1.266   5.698   6.653  0.5516  0.1088  0.4163
   59SAPC  H13A 4430   1.192   5.642   6.708 -0.7657  0.7417 -0.6638
   59SAPC  H13B 4431   1.244   5.662   6.553 -0.3532  2.5701 -0.3327
   59SAPC  H13C 4432   1.367   5.667   6.678  0.3363 -0.4018  0.6585
   59SAPC   C14 4433   1.349   5.909   6.590  0.2526  0.7232  0.3746
   59SAPC  H14A 4434   1.449   5.882   6.620  0.3334  0.3495 -0.2178
   59SAPC  H14B 4435   1.331   5.882   6.487 -2.6753 -0.2991  1.0561
   59SAPC  H14C 4436   1.334   6.016   6.595  0.9540  0.8134  0.6537
   59SAPC   C15 4437   1.254   5.873   6.817 -0.0097 -0.0460  0.4370
   59SAPC  H15A 4438   1.245   5.980   6.830 -0.8363 -0.0810  0.1767
   59SAPC  H15B 4439   1.173   5.835   6.876 -1.6093  0.4663 -1.3484
   59SAPC  H15C 4440   1.350   5.846   6.858  0.8620  1.2517 -0.6333
   59SAPC   C11 4441   1.052   6.015   6.659  0.0942  0.1319 -0.0370
   59SAPC  H11A 4442   1.050   6.015   6.770  1.3885 -0.2804  0.0060
   59SAPC  H11B 4443   0.949   6.016   6.616 -0.9678 -0.7434  2.3131
   59SAPC     P 4444   1.154   6.249   6.700  0.4441  0.2194  0.1318
   59SAPC   O13 4445   1.058   6.253   6.810 -0.1441 -0.0676 -0.2718
   59SAPC   O14 4446   1.296   6.261   6.737 -0.2194  0.2029 -0.0819
   59SAPC   O12 4447   1.137   6.123   6.612 -0.3930 -0.2074 -0.5024
   59SAPC   O11 4448   1.118   6.363   6.597 -0.0517  0.4204  0.5468
   59SAPC    C1 4449   0.997   6.380   6.530  0.7475 -0.1501 -0.1543
   59SAPC    HA 4450   0.941   6.285   6.519 -0.2821  0.6587 -2.5500
   59SAPC    HB 4451   0.937   6.459   6.579 -1.1811 -2.3726  1.2560
   59SAPC    C2 4452   1.025   6.414   6.381 -0.8591 -0.0006  0.3844
   59SAPC    HS 4453   1.062   6.325   6.326 -0.7317  1.2882 -1.6802
   59SAPC   O21 4454   1.117   6.524   6.383 -0.1235 -0.0530 -0.7410
   59SAPC   C21 4455   1.221   6.523   6.295 -0.0008 -0.2697 -0.2012
   59SAPC   O22 4456   1.265   6.425   6.235  0.8408  0.4912  0.1629
   59SAPC   C22 4457   1.272   6.668   6.279  0.0969  0.1900  0.0227
   59SAPC   H2R 4458   1.246   6.722   6.372 -0.5277 -1.5369  0.9077
   59SAPC   H2S 4459   1.383   6.662   6.274  0.0860 -0.7248  0.5780
   59SAPC    C3 4460   0.898   6.461   6.311  0.1369 -1.0147  0.0260
   59SAPC    HX 4461   0.869   6.561   6.351  0.8638 -1.1142  0.8236
   59SAPC    HY 4462   0.809   6.398   6.334  0.1033 -0.2788  2.1815
   59SAPC   O31 4463   0.910   6.480   6.169 -0.5325  0.1905  0.4420
   59SAPC   C31 4464   0.914   6.366   6.100 -0.6013 -1.0784  0.5203
   59SAPC   O32 4465   0.905   6.253   6.140 -0.2842 -0.3136  0.2447
   59SAPC   C32 4466   0.913   6.401   5.946  0.6782  0.4327 -0.7980
   59SAPC   H2X 4467   0.838   6.482   5.931  0.0230  0.2129  0.9549
   59SAPC   H2Y 4468   0.865   6.314   5.896  0.9164 -0.0943 -0.1223
   59SAPC   C23 4469   1.218   6.728   6.146 -0.2242 -0.4905  0.3325
   59SAPC   H3R 4470   1.110   6.753   6.153  0.0456  1.2728 -1.0955
   59SAPC   H3S 4471   1.241   6.650   6.070  1.3359 -1.8376  2.0619
   59SAPC   C24 4472   1.301   6.851   6.098 -0.2637  0.9774 -0.6136
   59SAPC   H4R 4473   1.404   6.809   6.086  0.0858  0.1194  3.7776
   59SAPC   H4S 4474   1.303   6.918   6.187 -1.4991  0.9910 -0.5872
   59SAPC   C25 4475   1.231   6.894   5.976  0.0461 -0.7401  0.5307
   59SAPC   H5R 4476   1.150   6.965   5.998  1.4037  0.8902  0.4235
   59SAPC   C26 4477   1.268   6.861   5.852  0.0550  0.4113  0.1547
   59SAPC   H6R 4478   1.213   6.905   5.768 -1.1498 -0.3836  0.4894
   59SAPC   C27 4479   1.387   6.764   5.811  0.1910  0.1602 -0.8535
   59SAPC   H7R 4480   1.363   6.674   5.750 -1.6789 -1.4602  2.0210
   59SAPC   H7S 4481   1.428   6.717   5.903 -0.6280 -0.7949 -0.9478
   59SAPC   C28 4482   1.508   6.836   5.760  0.3561 -0.0077 -0.2515
   59SAPC   H8R 4483   1.547   6.911   5.831 -0.0764  1.1549 -1.2050
   59SAPC   C29 4484   1.572   6.803   5.645  0.2085 -0.4488  0.7413
   59SAPC   H9R 4485   1.660   6.862   5.617  1.2138 -0.9547  2.6386
   59SAPC  C210 4486   1.547   6.677   5.554 -0.2864  0.0322  0.3327
   59SAPC  H10R 4487   1.553   6.714   5.449 -0.2156 -1.4162 -0.2057
   59SAPC  H10S 4488   1.440   6.648   5.561 -0.0397 -1.5467 -1.5458
   59SAPC  C211 4489   1.649   6.565   5.569 -0.0133  0.3086 -0.0152
   59SAPC  H11R 4490   1.668   6.523   5.669  1.0184 -1.4683 -0.9035
   59SAPC  C212 4491   1.678   6.482   5.464 -0.6953 -0.1663  0.0396
   59SAPC  H12R 4492   1.760   6.410   5.472  0.8469  1.6330  1.5527
   59SAPC  C213 4493   1.626   6.502   5.320 -0.2813  0.4635  0.2455
   59SAPC  H13R 4494   1.537   6.567   5.302  1.7219  2.6415 -2.8129
   59SAPC  H13S 4495   1.602   6.407   5.267 -1.1542  1.5090 -1.3235
   59SAPC  C214 4496   1.733   6.581   5.243 -0.7620  0.4297  0.2112
   59SAPC  H14R 4497   1.793   6.651   5.304  0.3909  0.8163 -1.3043
   59SAPC  C215 4498   1.737   6.578   5.108  0.4724 -0.0004  0.0186
   59SAPC  H15R 4499   1.822   6.635   5.068  1.4290 -0.2305  1.6435
   59SAPC  C216 4500   1.660   6.494   5.011 -0.1363 -0.1813  0.2845
   59SAPC  H16R 4501   1.575   6.446   5.063  0.3288 -0.7387  0.5382
   59SAPC  H16S 4502   1.728   6.410   4.984  0.7640  1.0370 -1.4455
   59SAPC  C217 4503   1.613   6.568   4.890  0.0342 -0.3200  0.4024
   59SAPC  H17R 4504   1.554   6.657   4.921  0.5192 -0.1805  0.9507
   59SAPC  H17S 4505   1.543   6.501   4.836 -1.0590 -0.4512  1.9403
   59SAPC  C218 4506   1.731   6.619   4.796 -0.3766  0.3968 -0.0101
   59SAPC  H18R 4507   1.788   6.530   4.761 -1.4918 -0.2155 -0.3091
   59SAPC  H18S 4508   1.793   6.691   4.853  0.0515  0.7104 -0.8553
   59SAPC  C219 4509   1.670   6.682   4.676 -0.4273 -0.9402  0.0772
   59SAPC  H19R 4510   1.606   6.767   4.709 -0.5100 -1.2226  0.6570
   59SAPC  H19S 4511   1.594   6.613   4.635 -2.5778  0.2309  1.8380
   59SAPC  C220 4512   1.774   6.741   4.577  0.2704  0.5168  0.0546
   59SAPC  H20R 4513   1.840   6.813   4.629  1.3637 -1.9575  2.3858
   59SAPC  H20S 4514   1.731   6.793   4.489 -0.6108  1.9467  1.2949
   59SAPC  H20T 4515   1.848   6.662   4.549  0.8618  0.9670  0.3311
   59SAPC   C33 4516   1.047   6.442   5.883  0.0296  0.5437  0.0127
   59SAPC   H3X 4517   1.116   6.359   5.911  1.5253  1.6694 -0.2216
   59SAPC   H3Y 4518   1.089   6.531   5.933  1.6610  0.5652 -1.2899
   59SAPC   C34 4519   1.018   6.460   5.729  0.2607  1.1960  0.0916
   59SAPC   H4X 4520   0.925   6.518   5.717 -0.2612  0.2351 -0.7529
   59SAPC   H4Y 4521   1.013   6.356   5.690 -0.5162  1.0458  0.5849
   59SAPC   C35 4522   1.115   6.545   5.639  0.0303 -0.0285 -0.3875
   59SAPC   H5X 4523   1.219   6.507   5.641 -0.5331 -1.6677  0.7123
   59SAPC   H5Y 4524   1.110   6.641   5.695 -2.2313  0.6721 -1.6745
   59SAPC   C36 4525   1.061   6.576   5.499 -0.3732 -0.4182 -0.2953
   59SAPC   H6X 4526   1.017   6.479   5.468  0.0738 -0.6754 -0.1273
   59SAPC   H6Y 4527   1.152   6.596   5.438 -0.0335  0.8098  0.5735
   59SAPC   C37 4528   0.967   6.698   5.483 -0.8307 -0.8700  0.0337
   59SAPC   H7X 4529   1.010   6.794   5.517 -1.7535 -0.2682 -0.4283
   59SAPC   H7Y 4530   0.878   6.672   5.544 -0.7181 -1.0023  0.1402
   59SAPC   C38 4531   0.913   6.710   5.341 -0.1863  0.9914 -0.4106
   59SAPC   H8X 4532   0.855   6.619   5.320  1.1590  0.0182 -0.0529
   59SAPC   H8Y 4533   0.995   6.718   5.267  0.9470 -1.5251  0.4653
   59SAPC   C39 4534   0.819   6.825   5.326 -0.2075  0.2665 -0.0465
   59SAPC   H9X 4535   0.862   6.916   5.373 -2.1534  1.5718 -0.6675
   59SAPC   H9Y 4536   0.722   6.818   5.380 -0.6882  1.4267 -0.7435
   59SAPC  C310 4537   0.796   6.863   5.176  0.6842  0.4572  0.3190
   59SAPC  H10X 4538   0.734   6.780   5.135  3.2506 -1.4070 -0.0148
   59SAPC  H10Y 4539   0.894   6.858   5.124  1.1222  1.1479  1.0602
   59SAPC  C311 4540   0.715   6.987   5.164  0.0682 -0.1963  0.0503
   59SAPC  H11X 4541   0.644   6.991   5.249 -0.4051  0.9568 -0.3906
   59SAPC  H11Y 4542   0.647   6.978   5.077  1.6083  1.1893 -1.3744
   59SAPC  C312 4543   0.791   7.117   5.151 -0.4483 -0.7338 -0.2794
   59SAPC  H12X 4544   0.877   7.119   5.221 -0.7106  3.2352  0.1588
   59SAPC  H12Y 4545   0.738   7.198   5.206  0.1273  0.4341 -1.4064
   59SAPC  C313 4546   0.839   7.153   5.010 -0.1534  0.3881  0.1298
   59SAPC  H13X 4547   0.745   7.163   4.951 -0.0947  2.5534  0.3254
   59SAPC  H13Y 4548   0.899   7.071   4.967  1.7989  2.5971 -1.6415
   59SAPC  C314 4549   0.921   7.287   4.993 -0.0005  1.0015  0.3565
   59SAPC  H14X 4550   0.847   7.363   5.026 -2.3696 -1.4895  1.1404
   59SAPC  H14Y 4551   0.938   7.295   4.883 -1.0745 -1.0200  0.0008
   59SAPC  C315 4552   1.045   7.298   5.083 -0.2098  0.1014 -0.1820
   59SAPC  H15X 4553   1.081   7.195   5.097 -0.6329  0.3009  2.9424
   59SAPC  H15Y 4554   1.034   7.335   5.187  0.3474 -1.4151  0.4436
   59SAPC  C316 4555   1.156   7.379   5.016 -0.3498  0.4791 -0.9120
   59SAPC  H16X 4556   1.121   7.481   4.987  1.0768  0.7204 -1.8773
   59SAPC  H16Y 4557   1.174   7.328   4.919 -0.6560  1.6144 -1.5899
   59SAPC  C317 4558   1.291   7.393   5.088  0.0620  0.2337  1.0083
   59SAPC  H17X 4559   1.369   7.455   5.038 -1.1268 -0.4450 -1.8373
   59SAPC  H17Y 4560   1.336   7.291   5.084 -0.0623  0.2221 -0.3609
   59SAPC  C318 4561   1.284   7.434   5.230 -0.5480 -0.6001  0.0215
   59SAPC  H18X 4562   1.236   7.533   5.237  1.9842  0.6312  1.0920
   59SAPC  H18Y 4563   1.383   7.433   5.281  1.0933  0.2701 -2.8845
   59SAPC  H18Z 4564   1.227   7.362   5.292  0.1835 -1.1534  0.0674
   60SAPC     N 4565   2.884   6.591   6.793 -0.5068 -0.5860 -0.5567
   60SAPC   C12 4566   2.835   6.656   6.660 -0.1265 -0.0837 -0.7843
   60SAPC  H12A 4567   2.788   6.580   6.600  0.3667 -0.9101 -0.1489
   60SAPC  H12B 4568   2.918   6.703   6.609 -0.0983 -0.8301 -1.4412
   60SAPC   C13 4569   2.777   6.507   6.848  0.2574 -0.7422  0.2439
   60SAPC  H13A 4570   2.809   6.455   6.937  1.0525  0.2942  0.5786
   60SAPC  H13B 4571   2.692   6.570   6.867 -0.5241 -1.2111 -1.5199
   60SAPC  H13C 4572   2.752   6.434   6.772  0.2807  1.6504 -2.1904
   60SAPC   C14 4573   3.000   6.506   6.774 -0.9292  0.0094  0.6796
   60SAPC  H14A 4574   3.045   6.487   6.870  2.6871  1.4751 -0.5242
   60SAPC  H14B 4575   2.982   6.421   6.709 -1.5925  0.6050  0.0614
   60SAPC  H14C 4576   3.074   6.560   6.716 -1.3367 -1.9969 -1.8958
   60SAPC   C15 4577   2.903   6.697   6.896 -0.4477 -0.7264 -0.5847
   60SAPC  H15A 4578   2.807   6.743   6.916  0.3921  1.3645 -1.0405
   60SAPC  H15B 4579   2.953   6.653   6.980 -0.3307  0.5802  0.0668
   60SAPC  H15C 4580   2.978   6.768   6.863 -0.7370  0.2031  0.6644
   60SAPC   C11 4581   2.717   6.755   6.674  0.3156 -0.5092 -0.0252
   60SAPC  H11A 4582   2.685   6.802   6.578 -1.5048  1.5598  1.4873
   60SAPC  H11B 4583   2.735   6.843   6.740  0.0372  0.1995 -0.8788
   60SAPC     P 4584   2.452   6.692   6.683  0.0333  0.1562  0.7546
   60SAPC   O13 4585   2.375   6.601   6.763 -0.2477  0.3859 -0.0387
   60SAPC   O14 4586   2.408   6.831   6.678 -0.2283  0.0098  0.4927
   60SAPC   O12 4587   2.605   6.696   6.733 -0.0279 -0.1094 -0.3646
   60SAPC   O11 4588   2.457   6.646   6.530 -0.0495  0.5877 -0.3457
   60SAPC    C1 4589   2.520   6.520   6.498  0.1762  0.5927 -0.0219
   60SAPC    HA 4590   2.625   6.512   6.534  0.4680 -1.5055 -1.1280
   60SAPC    HB 4591   2.468   6.433   6.543 -0.1437  0.4824 -0.5862
   60SAPC    C2 4592   2.518   6.488   6.346  0.1499 -0.5746  0.3946
   60SAPC    HS 4593   2.587   6.402   6.332  0.7201 -0.2128  0.8907
   60SAPC   O21 4594   2.560   6.601   6.271  0.3593  0.2835  0.5428
   60SAPC   C21 4595   2.682   6.637   6.292  0.5246 -0.0850 -0.0585
   60SAPC   O22 4596   2.774   6.569   6.339 -0.1255 -0.9007  0.2730
   60SAPC   C22 4597   2.716   6.779   6.241  0.3782  0.0160 -0.0908
   60SAPC   H2R 4598   2.680   6.803   6.139  3.6419  1.4453 -1.0201
   60SAPC   H2S 4599   2.655   6.846   6.307  0.6677 -0.2638  0.4713
   60SAPC    C3 4600   2.379   6.445   6.299 -0.3550 -0.2704 -0.0170
   60SAPC    HX 4601   2.315   6.525   6.340 -0.8184 -0.5081 -0.2745
   60SAPC    HY 4602   2.343   6.350   6.344 -0.3594  0.7205  2.1655
   60SAPC   O31 4603   2.365   6.434   6.156 -0.3974  0.7178  0.2692
   60SAPC   C31 4604   2.452   6.359   6.088  0.2803  0.5220  0.0298
   60SAPC   O32 4605   2.530   6.278   6.138 -0.2386  0.0412  0.5264
   60SAPC   C32 4606   2.444   6.385   5.935 -0.3322  0.0466 -0.8699
   60SAPC   H2X 4607   2.453   6.492   5.908 -0.5890  0.2283 -0.2675
   60SAPC   H2Y 4608   2.347   6.351   5.892 -0.3636 -0.1715 -0.6314
   60SAPC   C23 4609   2.871   6.812   6.248  0.1864 -0.5311  0.1317
   60SAPC   H3R 4610   2.923   6.740   6.181  1.9558 -1.5164  2.4095
   60SAPC   H3S 4611   2.893   6.799   6.356 -0.6956 -1.6348  0.1941
   60SAPC   C24 4612   2.925   6.951   6.206 -0.2246  0.0743 -0.0320
   60SAPC   H4R 4613   2.928   6.958   6.096 -0.2782 -1.4982 -0.1570
   60SAPC   H4S 4614   3.033   6.952   6.231 -0.3424  1.2732  0.4690
   60SAPC   C25 4615   2.857   7.078   6.267 -0.0987 -0.4973  0.2947
   60SAPC   H5R 4616   2.888   7.091   6.371 -2.4143  0.3935  0.9474
   60SAPC   C26 4617   2.763   7.157   6.211 -0.0261 -0.1579  0.0810
   60SAPC   H6R 4618   2.732   7.250   6.260  1.4750  0.7584 -0.6420
   60SAPC   C27 4619   2.735   7.143   6.061  0.1341 -0.0020  0.3847
   60SAPC   H7R 4620   2.665   7.060   6.035  2.8446 -2.0847 -0.8349
   60SAPC   H7S 4621   2.823   7.117   5.998  0.3060  1.9562 -0.2304
   60SAPC   C28 4622   2.674   7.272   6.012 -0.4738  0.5600  0.2113
   60SAPC   H8R 4623   2.651   7.349   6.087 -0.8497 -0.9727  1.7449
   60SAPC   C29 4624   2.635   7.289   5.883  0.2649  0.0722 -0.2462
   60SAPC   H9R 4625   2.599   7.388   5.851  1.2134  0.7910  0.8472
   60SAPC  C210 4626   2.661   7.210   5.766  0.0856 -0.1783 -0.2191
   60SAPC  H10R 4627   2.747   7.145   5.794 -0.6952 -1.5835 -0.9703
   60SAPC  H10S 4628   2.708   7.270   5.685  0.4984 -0.5253 -0.2382
   60SAPC  C211 4629   2.542   7.114   5.721 -0.9074 -0.2716 -0.0209
   60SAPC  H11R 4630   2.517   7.041   5.799 -1.6966  0.2657  0.2444
   60SAPC  C212 4631   2.482   7.128   5.606 -0.2924 -0.5004 -0.4001
   60SAPC  H12R 4632   2.402   7.060   5.572  0.4006 -1.6028  0.1009
   60SAPC  C213 4633   2.496   7.231   5.489 -0.1653 -0.0948 -0.6366
   60SAPC  H13R 4634   2.502   7.337   5.522 -1.3960 -0.0679 -0.4543
   60SAPC  H13S 4635   2.401   7.224   5.432 -1.9314 -0.9512  2.1865
   60SAPC  C214 4636   2.611   7.203   5.399 -0.6017  0.6454 -0.1480
   60SAPC  H14R 4637   2.711   7.206   5.445 -0.1772 -0.1944 -0.9919
   60SAPC  C215 4638   2.603   7.191   5.260 -0.5334 -0.0392  0.4471
   60SAPC  H15R 4639   2.692   7.145   5.215 -1.2834 -0.9253 -0.1768
   60SAPC  C216 4640   2.481   7.182   5.167 -0.2468 -0.6321 -0.3600
   60SAPC  H16R 4641   2.387   7.212   5.217  0.8268  1.4308  0.5402
   60SAPC  H16S 4642   2.477   7.080   5.123  0.8414 -0.4992 -0.7927
   60SAPC  C217 4643   2.483   7.276   5.047  0.1584 -0.7101  0.1622
   60SAPC  H17R 4644   2.551   7.235   4.969  1.5757  0.0043  0.9721
   60SAPC  H17S 4645   2.520   7.377   5.075 -1.0024  0.3187 -1.8420
   60SAPC  C218 4646   2.343   7.290   4.981  0.0428 -0.1079 -0.2140
   60SAPC  H18R 4647   2.279   7.329   5.064  0.7115  0.7373 -0.0901
   60SAPC  H18S 4648   2.311   7.186   4.957 -1.9538  0.3780  0.1418
   60SAPC  C219 4649   2.357   7.382   4.852 -0.0836 -0.4576 -0.0298
   60SAPC  H19R 4650   2.423   7.332   4.778 -1.5360  0.2258 -1.8752
   60SAPC  H19S 4651   2.397   7.479   4.888 -0.1415 -1.5990  3.4594
   60SAPC  C220 4652   2.217   7.413   4.793  0.0780 -0.1487  0.3847
   60SAPC  H20R 4653   2.168   7.473   4.872 -2.9653 -4.9133  2.5693
   60SAPC  H20S 4654   2.162   7.318   4.775 -1.1348  0.0373  2.6951
   60SAPC  H20T 4655   2.235   7.470   4.699  2.6431 -0.2336  0.7444
   60SAPC   C33 4656   2.569   6.310   5.875 -0.2098 -0.4414  0.0984
   60SAPC   H3X 4657   2.555   6.205   5.906 -1.2042  0.4286  2.8789
   60SAPC   H3Y 4658   2.660   6.359   5.916 -0.2454  0.5845 -0.9960
   60SAPC   C34 4659   2.577   6.326   5.722 -0.7173  0.3211  0.3130
   60SAPC   H4X 4660   2.571   6.434   5.696  0.7202  0.0320 -1.4090
   60SAPC   H4Y 4661   2.487   6.278   5.678 -1.0658  1.3427 -0.1359
   60SAPC   C35 4662   2.714   6.274   5.657 -0.2139  0.1626  0.4016
   60SAPC   H5X 4663   2.717   6.163   5.660 -2.6349  0.0607  1.4149
   60SAPC   H5Y 4664   2.796   6.304   5.725  0.1782 -1.7928  0.8464
   60SAPC   C36 4665   2.734   6.331   5.516 -0.2808  0.2674 -0.2598
   60SAPC   H6X 4666   2.841   6.319   5.487 -0.3727  0.9914 -0.9332
   60SAPC   H6Y 4667   2.715   6.440   5.522 -0.8407  0.2087 -0.8213
   60SAPC   C37 4668   2.625   6.283   5.411  0.4831  0.1861 -0.3641
   60SAPC   H7X 4669   2.531   6.327   5.451  0.3567 -0.3094 -0.1033
   60SAPC   H7Y 4670   2.633   6.172   5.416 -1.7860 -0.0988 -1.4989
   60SAPC   C38 4671   2.648   6.330   5.266 -0.3517 -0.1430  0.2931
   60SAPC   H8X 4672   2.723   6.269   5.212 -1.3183 -0.8257 -0.3127
   60SAPC   H8Y 4673   2.688   6.434   5.266  1.7109 -0.9099  0.0235
   60SAPC   C39 4674   2.516   6.338   5.189 -0.7596  0.3956  0.1223
   60SAPC   H9X 4675   2.446   6.411   5.237 -1.0095 -0.6981  1.4854
   60SAPC   H9Y 4676   2.469   6.238   5.180  1.1574 -0.7744  2.3018
   60SAPC  C310 4677   2.541   6.376   5.041 -0.1454  0.0035  0.3843
   60SAPC  H10X 4678   2.594   6.294   4.989  0.3366  0.1216  0.6865
   60SAPC  H10Y 4679   2.601   6.470   5.043  0.0360 -0.1176  2.3098
   60SAPC  C311 4680   2.420   6.417   4.954  0.0942  0.3230  0.1370
   60SAPC  H11X 4681   2.348   6.333   4.951 -1.3823  1.5502 -0.7415
   60SAPC  H11Y 4682   2.453   6.431   4.849  0.9599  3.2592  0.6988
   60SAPC  C312 4683   2.349   6.553   5.000  0.0266  0.8129 -0.0151
   60SAPC  H12X 4684   2.387   6.590   5.098 -2.3274  0.4809  1.1085
   60SAPC  H12Y 4685   2.245   6.516   5.019  0.6986 -1.2164 -0.0316
   60SAPC  C313 4686   2.361   6.659   4.892 -0.5189  0.2486  0.3909
   60SAPC  H13X 4687   2.308   6.609   4.808  2.2535 -1.6302 -0.3898
   60SAPC  H13Y 4688   2.468   6.669   4.865 -0.2746 -1.1348  0.7495
   60SAPC  C314 4689   2.290   6.797   4.916  0.8465  0.2134 -0.1268
   60SAPC  H14X 4690   2.281   6.844   4.816 -2.1388  1.4418  0.6187
   60SAPC  H14Y 4691   2.361   6.853   4.981  1.0579  2.7612 -2.3709
   60SAPC  C315 4692   2.148   6.790   4.979  0.2436 -0.6202  0.3935
   60SAPC  H15X 4693   2.169   6.736   5.074  0.7226  1.8274  1.7578
   60SAPC  H15Y 4694   2.091   6.713   4.923  0.3422 -1.0563  0.8893
   60SAPC  C316 4695   2.090   6.930   4.999  0.3357  0.1570 -0.1927
   60SAPC  H16X 4696   2.186   6.987   4.994  0.3560  0.2181  0.7982
   60SAPC  H16Y 4697   2.062   6.940   5.106  1.2886  0.2019  0.0699
   60SAPC  C317 4698   1.966   6.971   4.923 -0.0624 -0.1748  0.0924
   60SAPC  H17X 4699   1.916   7.060   4.966  0.4867  0.9715 -1.5416
   60SAPC  H17Y 4700   1.902   6.881   4.934 -2.1630  0.9331 -2.2572
   60SAPC  C318 4701   1.997   7.005   4.779 -0.3152 -0.2837  0.6494
   60SAPC  H18X 4702   2.015   6.923   4.706 -0.2155  1.4461 -1.3748
   60SAPC  H18Y 4703   2.085   7.073   4.774 -0.6732  0.1985  0.7653
   60SAPC  H18Z 4704   1.920   7.074   4.739  0.0514 -2.0771 -3.7627
   61SAPC     N 4705   4.956   1.244   7.186 -0.3387  0.6636 -0.0866
   61SAPC   C12 4706   4.956   1.393   7.232  0.3896 -0.1964 -0.3317
   61SAPC  H12A 4707   5.025   1.406   7.314  1.9891 -0.4904 -1.5861
   61SAPC  H12B 4708   4.855   1.417   7.264  0.2642  0.0292 -0.8839
   61SAPC   C13 4709   4.865   1.223   7.074 -0.9427 -0.0372  0.5394
   61SAPC  H13A 4710   4.846   1.118   7.059  0.6347 -0.1256 -1.2961
   61SAPC  H13B 4711   4.778   1.286   7.084 -0.2110  1.0947 -0.0560
   61SAPC  H13C 4712   4.922   1.257   6.989  0.0170 -0.0008  1.1824
   61SAPC   C14 4713   5.097   1.202   7.148 -0.3728  0.0045  0.3388
   61SAPC  H14A 4714   5.125   1.232   7.048  0.3762  0.9286  0.8158
   61SAPC  H14B 4715   5.171   1.232   7.220  0.0269 -0.2872  0.0565
   61SAPC  H14C 4716   5.110   1.095   7.143  1.5650  0.2236 -0.2861
   61SAPC   C15 4717   4.920   1.166   7.311  0.2469 -0.1179  0.5014
   61SAPC  H15A 4718   4.812   1.173   7.320  0.3938  1.0454  1.9410
   61SAPC  H15B 4719   4.940   1.061   7.300  1.7494  0.3101 -1.2364
   61SAPC  H15C 4720   4.985   1.209   7.386  1.2032 -0.6647 -0.0034
   61SAPC   C11 4721   5.007   1.491   7.121 -0.6917 -0.3875 -0.0258
   61SAPC  H11A 4722   5.114   1.462   7.117 -1.0580 -1.7393 -0.6583
   61SAPC  H11B 4723   4.996   1.597   7.150 -0.0695  0.3210 -2.1941
   61SAPC     P 4724   5.007   1.504   6.856 -0.1041  0.3178 -0.1063
   61SAPC   O13 4725   5.050   1.651   6.856 -0.3246  0.2127  0.3977
   61SAPC   O14 4726   5.098   1.398   6.823 -0.3488  0.3667  0.6724
   61SAPC   O12 4727   4.947   1.471   6.994  0.6478  0.2558  0.1590
   61SAPC   O11 4728   4.889   1.501   6.762  0.0285  0.8054  0.4630
   61SAPC    C1 4729   4.827   1.374   6.723  0.0164 -0.1624 -0.2627
   61SAPC    HA 4730   4.857   1.287   6.787 -0.4444 -0.4308 -0.4098
   61SAPC    HB 4731   4.719   1.385   6.744 -0.1971 -0.7292 -1.0200
   61SAPC    C2 4732   4.853   1.326   6.581 -0.6654 -0.3745  0.1122
   61SAPC    HS 4733   4.962   1.342   6.568 -0.1962 -1.6111  2.1266
   61SAPC   O21 4734   4.776   1.419   6.490 -0.2585  0.5479  0.0508
   61SAPC   C21 4735   4.793   1.432   6.367  0.4730 -0.0082 -0.8367
   61SAPC   O22 4736   4.892   1.399   6.305 -0.1762 -0.3833  0.4368
   61SAPC   C22 4737   4.667   1.480   6.296 -0.9311 -0.3731  0.5205
   61SAPC   H2R 4738   4.692   1.474   6.188  1.1756 -1.4090  1.0122
   61SAPC   H2S 4739   4.593   1.402   6.321  0.1324 -1.6668 -0.2753
   61SAPC    C3 4740   4.818   1.180   6.553 -0.3911 -0.4273 -0.8452
   61SAPC    HX 4741   4.709   1.163   6.565 -0.1803 -0.6127  1.0586
   61SAPC    HY 4742   4.870   1.112   6.623 -0.3005 -0.5271 -1.0099
   61SAPC   O31 4743   4.851   1.143   6.409  0.2187 -1.0859  0.0697
   61SAPC   C31 4744   4.982   1.140   6.383 -0.0761 -0.2055  0.2900
   61SAPC   O32 4745   5.069   1.145   6.468 -0.1946 -0.9300  0.0887
   61SAPC   C32 4746   4.994   1.112   6.232  0.0744 -0.1742 -0.2285
   61SAPC   H2X 4747   4.918   1.178   6.187 -0.2358  0.3060  0.9884
   61SAPC   H2Y 4748   4.970   1.005   6.215  2.1760 -0.4681 -2.0049
   61SAPC   C23 4749   4.636   1.629   6.343 -0.2975  0.6403 -0.3688
   61SAPC   H3R 4750   4.732   1.684   6.345 -0.6863  1.3387 -0.4409
   61SAPC   H3S 4751   4.590   1.629   6.444 -1.3046 -0.0527 -0.8166
   61SAPC   C24 4752   4.536   1.703   6.245 -0.6495  0.1691  0.2588
   61SAPC   H4R 4753   4.571   1.671   6.145  1.0671  2.3482  0.0782
   61SAPC   H4S 4754   4.559   1.811   6.258 -0.1177  0.1219 -0.2030
   61SAPC   C25 4755   4.393   1.670   6.246 -0.0073 -0.1778 -0.5078
   61SAPC   H5R 4756   4.333   1.751   6.291 -0.8271 -1.1052  0.1208
   61SAPC   C26 4757   4.328   1.567   6.186 -0.1870 -0.8359 -0.5952
   61SAPC   H6R 4758   4.219   1.568   6.204 -0.6948  4.3935 -2.2666
   61SAPC   C27 4759   4.382   1.460   6.092  0.2366 -0.2884 -0.2835
   61SAPC   H7R 4760   4.340   1.364   6.129  0.4921 -0.1617  0.3471
   61SAPC   H7S 4761   4.492   1.456   6.099  0.0895 -0.8451  2.8776
   61SAPC   C28 4762   4.355   1.498   5.951 -0.3280 -1.0916  0.7242
   61SAPC   H8R 4763   4.382   1.599   5.916 -0.8768 -0.9231  0.7770
   61SAPC   C29 4764   4.273   1.440   5.858  0.0765  0.0488 -0.1492
   61SAPC   H9R 4765   4.266   1.476   5.754  0.7900  1.5097  0.2866
   61SAPC  C210 4766   4.182   1.327   5.892  0.4615 -0.3637  0.4626
   61SAPC  H10R 4767   4.168   1.327   6.002 -1.1000 -0.0393  0.2991
   61SAPC  H10S 4768   4.210   1.228   5.851  0.3288  0.3080 -1.3603
   61SAPC  C211 4769   4.042   1.368   5.838  0.1521 -0.4342 -0.2101
   61SAPC  H11R 4770   3.976   1.407   5.916 -0.4445 -1.9077  0.0602
   61SAPC  C212 4771   3.984   1.341   5.717 -0.4762  0.2435 -0.2727
   61SAPC  H12R 4772   3.881   1.370   5.689 -0.9359 -0.3561  0.7209
   61SAPC  C213 4773   4.052   1.275   5.602 -0.2492  0.1596  0.6748
   61SAPC  H13R 4774   3.999   1.178   5.598  1.5165 -0.9632  2.5796
   61SAPC  H13S 4775   4.157   1.251   5.630  0.1776  0.7478 -0.3607
   61SAPC  C214 4776   4.049   1.363   5.476 -0.3482  0.2217 -0.3900
   61SAPC  H14R 4777   4.047   1.472   5.491  1.8263  0.4342 -1.1984
   61SAPC  C215 4778   4.071   1.313   5.356 -0.6255  0.9184 -0.0486
   61SAPC  H15R 4779   4.061   1.371   5.263  2.7485  0.6288 -0.7083
   61SAPC  C216 4780   4.099   1.170   5.335  0.4403  0.6180  0.6067
   61SAPC  H16R 4781   4.145   1.127   5.427 -0.9679  1.6043  1.8267
   61SAPC  H16S 4782   4.173   1.152   5.255  0.4862 -1.0512  0.9888
   61SAPC  C217 4783   3.972   1.093   5.302 -0.0508 -0.1592 -0.5503
   61SAPC  H17R 4784   3.899   1.110   5.384 -0.7089  1.0468 -1.3510
   61SAPC  H17S 4785   3.996   0.985   5.305  1.4319  0.1499 -0.8359
   61SAPC  C218 4786   3.928   1.116   5.155  0.6348  0.8138  0.2747
   61SAPC  H18R 4787   4.011   1.139   5.085  0.1866 -0.0701 -0.5602
   61SAPC  H18S 4788   3.869   1.209   5.167  3.1113  2.4036  0.8535
   61SAPC  C219 4789   3.857   0.998   5.094  0.4086 -0.7483  0.3257
   61SAPC  H19R 4790   3.771   0.964   5.155  0.0160  0.5332  0.5117
   61SAPC  H19S 4791   3.932   0.915   5.093  2.4399  0.9167  2.2840
   61SAPC  C220 4792   3.816   1.027   4.955 -0.0907  0.0261  0.5097
   61SAPC  H20R 4793   3.899   1.078   4.901 -1.3123 -0.6342 -2.1745
   61SAPC  H20S 4794   3.731   1.098   4.949  0.9576  1.2325 -1.1820
   61SAPC  H20T 4795   3.796   0.934   4.897  0.2354 -0.2907  0.8974
   61SAPC   C33 4796   5.123   1.152   6.162  0.2778 -0.4242  0.6542
   61SAPC   H3X 4797   5.189   1.065   6.180  2.3461  0.6707 -1.1444
   61SAPC   H3Y 4798   5.175   1.232   6.218 -0.5843  0.4326  0.2683
   61SAPC   C34 4799   5.114   1.188   6.008 -0.2060 -0.0748  0.5715
   61SAPC   H4X 4800   5.205   1.246   5.985  0.4645 -0.6241  1.7496
   61SAPC   H4Y 4801   5.029   1.259   5.992  1.4209  1.9513  0.5406
   61SAPC   C35 4802   5.111   1.065   5.911 -0.0908 -0.5502 -0.5056
   61SAPC   H5X 4803   5.036   0.986   5.929 -0.0842 -0.4137  0.1244
   61SAPC   H5Y 4804   5.203   1.004   5.926 -1.1155 -2.2160 -0.8147
   61SAPC   C36 4805   5.106   1.096   5.765  0.1898 -0.6734 -0.4470
   61SAPC   H6X 4806   5.173   1.180   5.736  0.1696 -0.9042 -1.1918
   61SAPC   H6Y 4807   5.009   1.130   5.721  1.2239  0.7118 -1.7842
   61SAPC   C37 4808   5.137   0.972   5.679 -0.1596 -0.1230 -0.3847
   61SAPC   H7X 4809   5.088   0.884   5.728  2.5714 -0.2518  2.3605
   61SAPC   H7Y 4810   5.247   0.966   5.673 -0.0111  2.7731 -2.8708
   61SAPC   C38 4811   5.085   0.990   5.535  0.2930 -0.2449 -0.0590
   61SAPC   H8X 4812   5.099   1.096   5.504  0.8437 -0.0090  0.9827
   61SAPC   H8Y 4813   4.978   0.962   5.528  0.5135 -1.1587  0.0319
   61SAPC   C39 4814   5.159   0.893   5.439 -0.2247 -0.4965 -0.1060
   61SAPC   H9X 4815   5.116   0.793   5.457  0.0175 -0.8137 -1.1743
   61SAPC   H9Y 4816   5.265   0.895   5.474 -0.3153 -2.4548  0.3532
   61SAPC  C310 4817   5.145   0.945   5.300  0.7753 -0.1189  0.3840
   61SAPC  H10X 4818   5.150   1.056   5.305  1.2436 -0.0426 -1.1901
   61SAPC  H10Y 4819   5.046   0.921   5.256  1.3402 -0.8830 -0.5415
   61SAPC  C311 4820   5.256   0.912   5.195 -0.9421  0.5257 -0.0181
   61SAPC  H11X 4821   5.265   0.801   5.187  0.4337  0.5770  0.4945
   61SAPC  H11Y 4822   5.353   0.946   5.238 -0.8375  2.2134 -1.4964
   61SAPC  C312 4823   5.239   0.994   5.063 -0.1233 -0.4349 -0.3000
   61SAPC  H12X 4824   5.232   1.103   5.079  1.6088 -0.2859 -0.3976
   61SAPC  H12Y 4825   5.149   0.965   5.003  0.4095 -2.1063 -0.3592
   61SAPC  C313 4826   5.366   0.966   4.974 -0.3790  0.0627  0.4265
   61SAPC  H13X 4827   5.395   0.859   4.974  2.3500  0.6896  2.2707
   61SAPC  H13Y 4828   5.453   1.017   5.022  1.0267 -0.2186 -1.6672
   61SAPC  C314 4829   5.350   1.018   4.829  0.1925  0.1403  0.9128
   61SAPC  H14X 4830   5.440   1.077   4.802  0.5959 -0.2289  1.4317
   61SAPC  H14Y 4831   5.263   1.087   4.834 -0.8694 -1.1586  0.9563
   61SAPC  C315 4832   5.343   0.909   4.718  0.9820 -0.4661 -0.1240
   61SAPC  H15X 4833   5.405   0.821   4.743  0.2356 -0.7547  0.7767
   61SAPC  H15Y 4834   5.375   0.957   4.623 -1.9996  0.2357 -0.8942
   61SAPC  C316 4835   5.194   0.873   4.685  0.4202  0.0692  0.2894
   61SAPC  H16X 4836   5.147   0.971   4.664 -0.0328 -0.2167 -0.0514
   61SAPC  H16Y 4837   5.141   0.821   4.768 -0.5925 -0.1252 -0.4601
   61SAPC  C317 4838   5.179   0.792   4.554  0.4705 -1.2804  0.1397
   61SAPC  H17X 4839   5.245   0.843   4.481 -1.1164  0.8762  0.0874
   61SAPC  H17Y 4840   5.072   0.816   4.532  0.9515  0.7062 -0.2500
   61SAPC  C318 4841   5.213   0.647   4.559  0.3419  0.1197 -0.2046
   61SAPC  H18X 4842   5.160   0.588   4.482 -0.6520  0.9159 -0.1403
   61SAPC  H18Y 4843   5.178   0.614   4.660  1.3402 -1.2112 -0.2558
   61SAPC  H18Z 4844   5.319   0.611   4.557  0.2178 -0.2296 -2.1509
   62SAPC     N 4845   6.015   5.341   6.977 -0.0080 -0.2472  0.3195
   62SAPC   C12 4846   6.084   5.438   6.886 -0.4686 -0.7337  0.5659
   62SAPC  H12A 4847   6.068   5.532   6.936  0.9770 -0.4733  0.5800
   62SAPC  H12B 4848   6.027   5.451   6.796  1.6546  2.7696 -0.4426
   62SAPC   C13 4849   6.071   5.345   7.118  0.3262 -0.2224 -0.1478
   62SAPC  H13A 4850   6.175   5.319   7.107  0.4349  0.8583 -2.2103
   62SAPC  H13B 4851   6.064   5.448   7.149 -4.8417 -0.2723 -0.3265
   62SAPC  H13C 4852   6.029   5.271   7.185 -1.4985  1.0205  0.1680
   62SAPC   C14 4853   5.863   5.373   6.984  0.0318 -0.1193 -0.5460
   62SAPC  H14A 4854   5.818   5.362   6.887  0.3427 -1.6072 -0.5533
   62SAPC  H14B 4855   5.815   5.314   7.061 -1.9806  2.3024  0.1814
   62SAPC  H14C 4856   5.852   5.475   7.016  2.9833  1.4412 -3.7934
   62SAPC   C15 4857   6.026   5.205   6.928 -0.0902  0.2173  1.1802
   62SAPC  H15A 4858   6.130   5.178   6.911 -0.8319 -2.6945  0.7231
   62SAPC  H15B 4859   5.985   5.130   6.994 -0.9561  0.0439  0.4585
   62SAPC  H15C 4860   5.983   5.193   6.830 -1.5101 -0.4862  1.8518
   62SAPC   C11 4861   6.229   5.408   6.853 -0.0866 -0.8051 -0.7019
   62SAPC  H11A 4862   6.275   5.383   6.952  1.4382  0.9611 -0.9066
   62SAPC  H11B 4863   6.294   5.493   6.824  1.4109 -1.1297  1.4345
   62SAPC     P 4864   6.206   5.303   6.613  0.0051  0.4962  0.6139
   62SAPC   O13 4865   6.212   5.166   6.560  0.1776  0.1049  0.1066
   62SAPC   O14 4866   6.076   5.365   6.590  0.0614 -0.9023  0.2819
   62SAPC   O12 4867   6.232   5.301   6.766 -0.5676  0.1517  0.2903
   62SAPC   O11 4868   6.320   5.386   6.558 -0.0528  0.0740 -0.6015
   62SAPC    C1 4869   6.435   5.316   6.508 -0.7330 -0.5026  0.6372
   62SAPC    HA 4870   6.512   5.392   6.529 -1.4183  0.5774 -0.5874
   62SAPC    HB 4871   6.465   5.228   6.569  1.8207  1.0285  1.7165
   62SAPC    C2 4872   6.430   5.287   6.354 -0.3149  0.6612 -0.4741
   62SAPC    HS 4873   6.355   5.207   6.337 -1.4295  1.2437  1.4789
   62SAPC   O21 4874   6.569   5.268   6.312 -0.3134 -0.7982  0.0967
   62SAPC   C21 4875   6.591   5.147   6.276  0.8789  0.5410 -0.3772
   62SAPC   O22 4876   6.508   5.051   6.264  0.1493  0.1027 -0.7205
   62SAPC   C22 4877   6.739   5.134   6.238  0.6997  0.2595 -0.3409
   62SAPC   H2R 4878   6.804   5.185   6.312  0.0928 -1.1223  1.1998
   62SAPC   H2S 4879   6.772   5.028   6.238  2.3880  0.7508  0.3815
   62SAPC    C3 4880   6.378   5.407   6.278  0.4434  0.1062  0.7926
   62SAPC    HX 4881   6.442   5.497   6.293  0.5992  0.6792 -2.6064
   62SAPC    HY 4882   6.280   5.426   6.327  0.0688 -1.7950  0.8674
   62SAPC   O31 4883   6.360   5.385   6.138 -0.3620 -0.4069 -0.5098
   62SAPC   C31 4884   6.271   5.300   6.093  0.3580 -0.5720 -0.1145
   62SAPC   O32 4885   6.185   5.247   6.156  1.0755 -0.3189 -0.0108
   62SAPC   C32 4886   6.312   5.274   5.944 -0.3221  0.2372 -0.2940
   62SAPC   H2X 4887   6.259   5.181   5.915  3.1456 -2.0194  0.0136
   62SAPC   H2Y 4888   6.415   5.233   5.946 -0.7200 -0.8697 -1.3096
   62SAPC   C23 4889   6.778   5.208   6.103  0.6614  0.3794  0.6552
   62SAPC   H3R 4890   6.734   5.309   6.122 -1.9830 -0.7711  1.1097
   62SAPC   H3S 4891   6.720   5.167   6.018  1.0588 -1.4261  1.2091
   62SAPC   C24 4892   6.928   5.219   6.074 -0.0314 -0.7434  0.1160
   62SAPC   H4R 4893   6.980   5.245   6.169  1.7733  0.3506 -1.1063
   62SAPC   H4S 4894   6.958   5.310   6.018  2.0447 -0.8069  1.0361
   62SAPC   C25 4895   6.977   5.098   6.000  0.0047  0.5856  0.2794
   62SAPC   H5R 4896   7.024   5.026   6.069 -1.2367  1.0023  1.6131
   62SAPC   C26 4897   6.962   5.085   5.863  0.0867 -0.3212  0.2868
   62SAPC   H6R 4898   6.990   4.989   5.818  1.4851  1.1386 -2.1352
   62SAPC   C27 4899   6.906   5.176   5.764  0.4392  0.1799 -0.4223
   62SAPC   H7R 4900   6.981   5.206   5.687  3.0230 -0.1524  1.8181
   62SAPC   H7S 4901   6.887   5.274   5.814  0.4564 -0.8484  1.6884
   62SAPC   C28 4902   6.772   5.132   5.700  0.8828 -0.7785  0.7849
   62SAPC   H8R 4903   6.682   5.145   5.762  0.7962 -0.8748  0.6791
   62SAPC   C29 4904   6.752   5.083   5.576  0.4914  0.4340 -0.4831
   62SAPC   H9R 4905   6.650   5.046   5.559  0.3689  0.5638 -0.0335
   62SAPC  C210 4906   6.855   5.065   5.469  0.0440 -0.4500  0.2509
   62SAPC  H10R 4907   6.957   5.076   5.512  0.1906 -0.5376 -0.0686
   62SAPC  H10S 4908   6.852   5.151   5.399  0.4805 -1.9804 -1.7556
   62SAPC  C211 4909   6.830   4.941   5.388 -1.3524 -0.0216 -0.7356
   62SAPC  H11R 4910   6.802   4.852   5.446  1.5001  0.7208  2.0280
   62SAPC  C212 4911   6.824   4.931   5.257  0.1003 -0.5269  0.0204
   62SAPC  H12R 4912   6.783   4.834   5.227  0.4548 -0.9305  0.8187
   62SAPC  C213 4913   6.860   5.036   5.145 -0.1688 -0.0797  0.4320
   62SAPC  H13R 4914   6.876   4.979   5.050 -0.1909  1.2009 -0.3603
   62SAPC  H13S 4915   6.960   5.075   5.171  0.1215  1.0164 -2.0100
   62SAPC  C214 4916   6.774   5.152   5.113 -0.1457 -0.3676 -0.3643
   62SAPC  H14R 4917   6.694   5.176   5.184 -0.2004  0.1864 -0.6045
   62SAPC  C215 4918   6.790   5.236   5.009 -1.3703 -0.3447 -0.0196
   62SAPC  H15R 4919   6.716   5.317   5.003 -1.6969 -0.6177  0.2211
   62SAPC  C216 4920   6.902   5.241   4.904 -0.1859 -0.0606 -0.5412
   62SAPC  H16R 4921   6.960   5.147   4.900 -0.7200 -0.3720 -1.1805
   62SAPC  H16S 4922   6.973   5.325   4.921  0.8434 -1.1160  0.4621
   62SAPC  C217 4923   6.844   5.268   4.764 -0.3325  0.9918 -0.3605
   62SAPC  H17R 4924   6.764   5.344   4.757 -1.9307 -0.6019  0.0933
   62SAPC  H17S 4925   6.806   5.176   4.715 -0.9976  0.6594  0.7415
   62SAPC  C218 4926   6.953   5.338   4.670  0.2050  0.4102 -0.0679
   62SAPC  H18R 4927   7.040   5.270   4.658 -0.8034 -1.2385  1.4054
   62SAPC  H18S 4928   6.977   5.427   4.731 -1.1164  2.0697 -1.8550
   62SAPC  C219 4929   6.889   5.395   4.543 -0.3824  0.2562  0.5215
   62SAPC  H19R 4930   6.797   5.450   4.570 -2.5835 -1.6956 -2.3282
   62SAPC  H19S 4931   6.851   5.314   4.477 -0.5631 -0.1653  1.1311
   62SAPC  C220 4932   6.992   5.480   4.464  0.1822 -0.1116 -0.6459
   62SAPC  H20R 4933   7.087   5.428   4.437  0.6691  0.3795  0.0631
   62SAPC  H20S 4934   7.014   5.580   4.508  1.8567 -0.1931 -1.2030
   62SAPC  H20T 4935   6.931   5.512   4.377 -0.9271  0.9714  0.4927
   62SAPC   C33 4936   6.287   5.387   5.847  0.3852  0.4787 -0.6418
   62SAPC   H3X 4937   6.338   5.482   5.873 -1.8655  1.2403  1.3093
   62SAPC   H3Y 4938   6.178   5.406   5.854 -0.0072 -1.2404 -1.4675
   62SAPC   C34 4939   6.301   5.351   5.698  0.3385 -0.1941 -1.2728
   62SAPC   H4X 4940   6.279   5.436   5.630  0.4907  0.6534 -0.2921
   62SAPC   H4Y 4941   6.241   5.261   5.671  1.9154 -1.5379 -0.4837
   62SAPC   C35 4942   6.447   5.313   5.664  0.4723 -0.1364  0.1451
   62SAPC   H5X 4943   6.460   5.202   5.667 -0.0923 -0.2480 -0.9302
   62SAPC   H5Y 4944   6.513   5.362   5.739 -0.3789  0.7469  0.3318
   62SAPC   C36 4945   6.498   5.372   5.529 -0.0334 -0.0833  0.2201
   62SAPC   H6X 4946   6.606   5.347   5.523 -0.0018 -0.1639  0.9970
   62SAPC   H6Y 4947   6.483   5.481   5.546 -2.7087 -0.6774  2.5183
   62SAPC   C37 4948   6.442   5.309   5.403 -0.0805  0.6324  0.6828
   62SAPC   H7X 4949   6.334   5.288   5.419 -0.3439  0.9238 -0.6395
   62SAPC   H7Y 4950   6.475   5.204   5.387 -0.3786  0.4356  1.3039
   62SAPC   C38 4951   6.474   5.396   5.275 -0.1227  0.0977 -0.6799
   62SAPC   H8X 4952   6.426   5.342   5.190 -0.4283 -0.7277  0.0024
   62SAPC   H8Y 4953   6.584   5.385   5.271 -0.1375  0.3690 -2.4391
   62SAPC   C39 4954   6.426   5.538   5.287 -0.5760  0.4859 -0.1804
   62SAPC   H9X 4955   6.464   5.588   5.379 -0.6855 -1.5487  1.0472
   62SAPC   H9Y 4956   6.315   5.538   5.294 -0.5616 -1.6863  0.8603
   62SAPC  C310 4957   6.455   5.612   5.159  0.2677 -0.1169 -0.2610
   62SAPC  H10X 4958   6.561   5.608   5.125 -0.2418  0.9353 -2.1427
   62SAPC  H10Y 4959   6.429   5.719   5.177 -3.2824 -0.6342 -1.4724
   62SAPC  C311 4960   6.377   5.577   5.031  0.0564  0.2304  0.4551
   62SAPC  H11X 4961   6.267   5.570   5.051  0.0612 -1.4182  0.0821
   62SAPC  H11Y 4962   6.414   5.478   4.996  0.3752  0.9124 -1.2308
   62SAPC  C312 4963   6.390   5.677   4.921  0.1615 -0.1811 -0.4608
   62SAPC  H12X 4964   6.501   5.681   4.910  0.2286 -0.2665  0.1380
   62SAPC  H12Y 4965   6.339   5.773   4.942  0.1182 -0.3994  0.4912
   62SAPC  C313 4966   6.344   5.623   4.782  0.7041 -0.1847 -0.5590
   62SAPC  H13X 4967   6.256   5.555   4.789  0.1379  0.6486  0.9809
   62SAPC  H13Y 4968   6.426   5.562   4.739  1.1918  0.0429  0.0472
   62SAPC  C314 4969   6.298   5.730   4.682 -0.1999  1.0476 -0.4545
   62SAPC  H14X 4970   6.355   5.819   4.719  0.0007  0.1986  1.4066
   62SAPC  H14Y 4971   6.192   5.760   4.702  0.3934  1.2134  3.2445
   62SAPC  C315 4972   6.321   5.686   4.544 -0.2099 -0.6156  0.8076
   62SAPC  H15X 4973   6.257   5.597   4.529 -0.1100 -0.9064  1.9913
   62SAPC  H15Y 4974   6.423   5.651   4.515 -0.7964 -1.0938 -0.7957
   62SAPC  C316 4975   6.280   5.788   4.437  0.0973  0.1612  0.4103
   62SAPC  H16X 4976   6.180   5.826   4.469  0.5136  0.9395  0.8096
   62SAPC  H16Y 4977   6.269   5.730   4.343 -0.0780  0.4059  0.2783
   62SAPC  C317 4978   6.389   5.895   4.436 -0.3017 -0.4553  0.0272
   62SAPC  H17X 4979   6.487   5.845   4.424 -0.3055 -0.6553  0.7446
   62SAPC  H17Y 4980   6.381   5.937   4.539  0.4266  0.6331 -0.3433
   62SAPC  C318 4981   6.358   5.998   4.329  0.0683  0.1987 -0.1059
   62SAPC  H18X 4982   6.254   6.038   4.332  0.2218  0.5438  0.5239
   62SAPC  H18Y 4983   6.370   5.953   4.227 -1.9994 -0.9740  0.1045
   62SAPC  H18Z 4984   6.432   6.081   4.328  0.8682 -0.4812  0.9920
   63SAPC     N 4985   2.351   1.564   6.893  0.5339  0.1602  0.2410
   63SAPC   C12 4986   2.312   1.632   6.762 -0.2540 -0.0025  0.3535
   63SAPC  H12A 4987   2.374   1.718   6.741 -0.9313  0.4359  0.0871
   63SAPC  H12B 4988   2.213   1.673   6.774 -0.4169  0.3365 -1.7875
   63SAPC   C13 4989   2.229   1.489   6.961 -0.8249  0.1029  0.7156
   63SAPC  H13A 4990   2.256   1.446   7.056  0.7970 -0.6213 -0.0508
   63SAPC  H13B 4991   2.154   1.559   6.996 -0.4483  1.5119 -1.1562
   63SAPC  H13C 4992   2.176   1.421   6.895 -1.1965 -0.7611  1.8684
   63SAPC   C14 4993   2.451   1.461   6.854 -0.6214  0.3247 -0.8290
   63SAPC  H14A 4994   2.455   1.383   6.927 -0.5640  2.6068  1.7654
   63SAPC  H14B 4995   2.431   1.407   6.762 -0.4576  0.9120 -1.2224
   63SAPC  H14C 4996   2.549   1.501   6.833 -0.2567  0.0123  0.2625
   63SAPC   C15 4997   2.395   1.664   6.986  0.0950  0.7257  0.1228
   63SAPC  H15A 4998   2.481   1.715   6.946 -0.1710 -0.6622 -2.4364
   63SAPC  H15B 4999   2.309   1.727   7.004 -0.8646 -0.2648 -0.8515
   63SAPC  H15C 5000   2.422   1.620   7.080  0.4701 -1.3903 -0.9066
   63SAPC   C11 5001   2.312   1.557   6.622  0.1984 -0.1220  0.1106
   63SAPC  H11A 5002   2.420   1.548   6.595  0.4938  1.4004  0.6676
   63SAPC  H11B 5003   2.272   1.609   6.533  0.1392 -1.4573 -0.6636
   63SAPC     P 5004   2.087   1.428   6.658  0.3169 -0.2763  0.2486
   63SAPC   O13 5005   2.049   1.327   6.751  0.3632  0.7968  0.4493
   63SAPC   O14 5006   2.038   1.565   6.692 -0.5022 -0.2874 -0.9580
   63SAPC   O12 5007   2.247   1.431   6.628  0.5503  0.3116 -0.4834
   63SAPC   O11 5008   2.026   1.393   6.513 -0.0277  0.1597  0.1097
   63SAPC    C1 5009   2.108   1.318   6.417 -0.3357 -0.5700 -0.1524
   63SAPC    HA 5010   2.084   1.364   6.319 -0.2379  0.5579  0.3405
   63SAPC    HB 5011   2.216   1.342   6.433 -0.1192 -0.6684 -1.3602
   63SAPC    C2 5012   2.070   1.169   6.419 -0.3250  0.0204  0.4030
   63SAPC    HS 5013   2.113   1.138   6.517  1.0324 -0.9061 -0.4542
   63SAPC   O21 5014   2.128   1.102   6.306 -0.2005  0.4987 -0.3473
   63SAPC   C21 5015   2.250   1.098   6.291 -1.0920  0.4361 -0.4443
   63SAPC   O22 5016   2.334   1.131   6.377 -0.2499  0.1789 -0.2255
   63SAPC   C22 5017   2.287   1.039   6.157  0.4263 -0.0017  0.4190
   63SAPC   H2R 5018   2.349   0.948   6.168 -0.9752 -1.1198 -0.4785
   63SAPC   H2S 5019   2.194   1.021   6.099 -0.1888 -3.4075  2.2469
   63SAPC    C3 5020   1.920   1.133   6.428  0.4800 -0.1323  0.2350
   63SAPC    HX 5021   1.899   1.179   6.527 -1.2511  0.6998 -0.4738
   63SAPC    HY 5022   1.899   1.025   6.444 -1.5279  0.2431  0.4339
   63SAPC   O31 5023   1.842   1.198   6.330  0.2113 -0.4429  0.3900
   63SAPC   C31 5024   1.811   1.125   6.228  0.4086  0.3751 -0.3806
   63SAPC   O32 5025   1.813   1.005   6.219 -0.0458  0.0295  0.1869
   63SAPC   C32 5026   1.792   1.233   6.116  0.5339 -0.4447  0.6381
   63SAPC   H2X 5027   1.896   1.266   6.092  1.6327 -1.9789  2.8490
   63SAPC   H2Y 5028   1.735   1.323   6.147  0.0013 -0.0736 -1.3162
   63SAPC   C23 5029   2.376   1.139   6.079  0.2923 -0.0198 -0.1023
   63SAPC   H3R 5030   2.404   1.082   5.988 -0.4590  0.7066 -0.8048
   63SAPC   H3S 5031   2.470   1.163   6.133 -1.1296  3.9145  0.9753
   63SAPC   C24 5032   2.300   1.267   6.040 -0.0125 -0.1216  0.2102
   63SAPC   H4R 5033   2.373   1.332   5.987  0.2606 -0.5794  0.0188
   63SAPC   H4S 5034   2.273   1.318   6.135  0.4703 -0.0113  0.2945
   63SAPC   C25 5035   2.183   1.242   5.952 -0.0978 -0.7268  0.0503
   63SAPC   H5R 5036   2.087   1.218   6.001 -0.3997  0.5292  0.1197
   63SAPC   C26 5037   2.176   1.250   5.818 -0.4788 -0.4381 -0.5696
   63SAPC   H6R 5038   2.081   1.215   5.775 -0.3267 -1.4959 -0.0907
   63SAPC   C27 5039   2.285   1.281   5.724  0.2040 -0.4752 -0.4227
   63SAPC   H7R 5040   2.314   1.388   5.740 -1.0091 -0.0467 -0.9836
   63SAPC   H7S 5041   2.248   1.307   5.623  0.0983  0.7343 -0.0878
   63SAPC   C28 5042   2.402   1.191   5.710  0.6382  0.4999 -0.0228
   63SAPC   H8R 5043   2.433   1.145   5.805  0.8282 -0.4896 -0.5488
   63SAPC   C29 5044   2.473   1.161   5.599  0.4099  0.6680  0.4337
   63SAPC   H9R 5045   2.562   1.098   5.606  0.7270  1.1200  0.5325
   63SAPC  C210 5046   2.432   1.226   5.469 -0.2865  0.0363  0.7125
   63SAPC  H10R 5047   2.521   1.285   5.437 -1.5642  0.6950 -1.8892
   63SAPC  H10S 5048   2.350   1.301   5.470 -0.6845 -0.3008 -1.5004
   63SAPC  C211 5049   2.403   1.124   5.360 -0.1723  0.0458 -1.0120
   63SAPC  H11R 5050   2.394   1.021   5.396  0.8885  0.6324  1.0787
   63SAPC  C212 5051   2.375   1.163   5.229  0.2826 -0.0321 -0.1904
   63SAPC  H12R 5052   2.330   1.089   5.160 -0.0222 -0.5966  0.5987
   63SAPC  C213 5053   2.380   1.301   5.172  0.2400 -0.0236 -0.5838
   63SAPC  H13R 5054   2.402   1.377   5.249  0.0185  0.1629 -0.7040
   63SAPC  H13S 5055   2.285   1.320   5.117  1.6473 -0.4223 -3.3612
   63SAPC  C214 5056   2.499   1.286   5.075  0.2639 -0.6130 -0.1440
   63SAPC  H14R 5057   2.596   1.315   5.118 -0.8145  0.1022  1.9378
   63SAPC  C215 5058   2.494   1.262   4.942 -0.3360 -0.2044  0.0225
   63SAPC  H15R 5059   2.588   1.255   4.886 -0.2362  0.3893  0.1113
   63SAPC  C216 5060   2.374   1.228   4.859 -0.2363 -0.1734 -0.3784
   63SAPC  H16R 5061   2.301   1.176   4.924 -2.2382  1.9801 -0.7924
   63SAPC  H16S 5062   2.402   1.156   4.779  1.4395  2.5703 -2.4134
   63SAPC  C217 5063   2.290   1.349   4.798 -0.2962  0.4364  0.1920
   63SAPC  H17R 5064   2.279   1.417   4.885  0.6705 -0.0320  0.6897
   63SAPC  H17S 5065   2.190   1.307   4.774 -0.4901  1.5616 -1.0976
   63SAPC  C218 5066   2.374   1.416   4.689  0.8611 -0.4469 -0.1948
   63SAPC  H18R 5067   2.475   1.437   4.730 -0.0151 -0.2831  2.0008
   63SAPC  H18S 5068   2.311   1.503   4.660 -1.6971 -1.3585  2.2529
   63SAPC  C219 5069   2.388   1.317   4.572  0.0618 -0.5130 -0.3454
   63SAPC  H19R 5070   2.380   1.374   4.477 -1.6327  1.0464  0.6581
   63SAPC  H19S 5071   2.303   1.247   4.556  0.4874 -0.7803 -1.5818
   63SAPC  C220 5072   2.521   1.247   4.567  0.4300  0.9036  0.2344
   63SAPC  H20R 5073   2.516   1.151   4.623 -1.8909  0.7115 -0.2087
   63SAPC  H20S 5074   2.599   1.311   4.615  0.2810 -0.6157  2.7068
   63SAPC  H20T 5075   2.554   1.229   4.463  0.9535  1.8621  0.2148
   63SAPC   C33 5076   1.734   1.172   5.990 -0.9425  0.0618  0.0115
   63SAPC   H3X 5077   1.630   1.139   6.007  0.1139 -3.5744  0.2895
   63SAPC   H3Y 5078   1.792   1.077   5.986  0.1379  0.6270  1.2748
   63SAPC   C34 5079   1.757   1.252   5.860 -0.3036 -1.0680 -0.9070
   63SAPC   H4X 5080   1.862   1.287   5.851 -0.2759 -0.8064  0.2798
   63SAPC   H4Y 5081   1.692   1.343   5.863  0.6289 -0.4031 -0.6754
   63SAPC   C35 5082   1.706   1.180   5.734  0.0760 -0.2010 -0.3941
   63SAPC   H5X 5083   1.604   1.139   5.747  1.2367 -3.1638  0.3235
   63SAPC   H5Y 5084   1.760   1.084   5.721  0.8083  0.0314  0.7617
   63SAPC   C36 5085   1.728   1.267   5.610 -0.6524  0.6312 -1.6536
   63SAPC   H6X 5086   1.815   1.332   5.630 -0.4650 -0.1130  0.1250
   63SAPC   H6Y 5087   1.642   1.335   5.592 -0.6827  1.3749  0.9920
   63SAPC   C37 5088   1.765   1.194   5.478 -0.3251 -0.1790 -0.6464
   63SAPC   H7X 5089   1.700   1.104   5.469 -2.1843  1.0765 -0.4332
   63SAPC   H7Y 5090   1.866   1.153   5.496 -0.7573 -0.2311  2.0196
   63SAPC   C38 5091   1.769   1.286   5.355  0.3545  0.1456 -0.6388
   63SAPC   H8X 5092   1.823   1.383   5.365 -0.0811  0.4806 -1.3734
   63SAPC   H8Y 5093   1.666   1.313   5.325  0.1849 -0.9372 -1.0683
   63SAPC   C39 5094   1.819   1.213   5.230  0.2571  0.1375 -0.8648
   63SAPC   H9X 5095   1.758   1.121   5.217 -1.9283  1.3982  0.0578
   63SAPC   H9Y 5096   1.926   1.182   5.234  0.3993  0.6803 -0.3771
   63SAPC  C310 5097   1.806   1.295   5.100  0.3095  0.1136  0.4085
   63SAPC  H10X 5098   1.866   1.388   5.111  2.7132 -1.4867  1.4993
   63SAPC  H10Y 5099   1.704   1.323   5.065 -0.0370 -0.2136  1.1444
   63SAPC  C311 5100   1.872   1.210   4.983  0.4624  0.0225  0.1032
   63SAPC  H11X 5101   1.816   1.116   4.964  1.2429 -0.0684 -2.0300
   63SAPC  H11Y 5102   1.978   1.193   5.013  0.3868  1.5098  1.3231
   63SAPC  C312 5103   1.883   1.288   4.850 -0.3001  0.1061  0.4226
   63SAPC  H12X 5104   1.963   1.237   4.792 -1.4819 -1.6725  0.2765
   63SAPC  H12Y 5105   1.918   1.388   4.881  0.1542 -0.3308  1.3472
   63SAPC  C313 5106   1.754   1.283   4.766  0.2542 -0.2754  0.2822
   63SAPC  H13X 5107   1.672   1.336   4.818 -0.1101 -0.0627 -0.4980
   63SAPC  H13Y 5108   1.712   1.182   4.749 -0.7838  0.3556 -1.1058
   63SAPC  C314 5109   1.767   1.354   4.624 -0.8533 -0.1484 -0.8098
   63SAPC  H14X 5110   1.867   1.332   4.582  0.1110  0.8310  0.8427
   63SAPC  H14Y 5111   1.766   1.464   4.641 -2.1859 -0.0111 -1.6411
   63SAPC  C315 5112   1.655   1.318   4.529  0.2427  0.6701 -0.0414
   63SAPC  H15X 5113   1.558   1.322   4.582  0.4489  1.5462  0.2935
   63SAPC  H15Y 5114   1.670   1.210   4.511 -1.4278 -0.3183  3.6309
   63SAPC  C316 5115   1.635   1.414   4.415 -0.4284 -0.5730  0.0428
   63SAPC  H16X 5116   1.548   1.376   4.358 -2.2849 -0.8511  2.9002
   63SAPC  H16Y 5117   1.726   1.418   4.351 -0.0032  3.1807  0.6801
   63SAPC  C317 5118   1.595   1.557   4.453  0.2217  0.3883  0.1407
   63SAPC  H17X 5119   1.681   1.615   4.413 -0.6830  1.5240 -0.1997
   63SAPC  H17Y 5120   1.593   1.564   4.564 -1.6200  2.7938  0.0272
   63SAPC  C318 5121   1.467   1.610   4.376 -0.5703 -0.1983 -0.0565
   63SAPC  H18X 5122   1.374   1.558   4.405 -2.1843  2.1710 -0.7418
   63SAPC  H18Y 5123   1.470   1.578   4.269  0.1708 -0.6221  0.0833
   63SAPC  H18Z 5124   1.452   1.720   4.380  0.1395 -0.1033  0.2501
   64SAPC     N 5125   0.792   3.419   7.126 -0.1414 -0.7400 -1.0927
   64SAPC   C12 5126   0.711   3.332   7.024  0.0723 -0.5394  0.0974
   64SAPC  H12A 5127   0.626   3.392   6.994 -0.3943 -0.9199  0.6253
   64SAPC  H12B 5128   0.662   3.248   7.071 -1.6822  0.1286 -0.4650
   64SAPC   C13 5129   0.921   3.348   7.164  1.0511  0.6999 -0.2731
   64SAPC  H13A 5130   0.976   3.402   7.239 -0.1482 -0.3064  1.4050
   64SAPC  H13B 5131   0.886   3.257   7.211 -1.4732  1.9865  0.5260
   64SAPC  H13C 5132   0.990   3.327   7.084  1.1087 -0.0662 -0.0350
   64SAPC   C14 5133   0.827   3.551   7.070  0.2647 -0.2758 -0.4358
   64SAPC  H14A 5134   0.744   3.616   7.047  0.6074  0.4096  0.2161
   64SAPC  H14B 5135   0.892   3.610   7.133  1.5248  0.5796 -2.4328
   64SAPC  H14C 5136   0.887   3.539   6.982  0.1216 -2.1651 -0.3112
   64SAPC   C15 5137   0.716   3.433   7.247  0.4505  0.0055 -1.1846
   64SAPC  H15A 5138   0.692   3.337   7.292  2.1191 -0.1775 -0.6395
   64SAPC  H15B 5139   0.764   3.491   7.324 -0.4943 -0.8419  0.1008
   64SAPC  H15C 5140   0.620   3.479   7.226 -0.0532 -1.8453 -3.2742
   64SAPC   C11 5141   0.798   3.292   6.905  0.4919  0.3780  0.3462
   64SAPC  H11A 5142   0.857   3.378   6.868  0.6342 -0.5007 -1.6388
   64SAPC  H11B 5143   0.731   3.258   6.823  0.4413 -2.6712  1.5215
   64SAPC     P 5144   0.847   3.044   6.985  0.2971  0.0154  0.3719
   64SAPC   O13 5145   0.933   3.017   7.104  0.0776  0.2746 -0.5155
   64SAPC   O14 5146   0.701   3.031   7.007  0.4334 -0.3484  0.0904
   64SAPC   O12 5147   0.888   3.185   6.926  0.6261 -0.4485  0.3104
   64SAPC   O11 5148   0.880   2.955   6.866 -0.0169 -0.0684  0.5396
   64SAPC    C1 5149   0.971   2.841   6.867 -0.2789 -0.9189 -0.4137
   64SAPC    HA 5150   0.957   2.779   6.958 -0.0250 -2.2723 -1.2781
   64SAPC    HB 5151   0.954   2.775   6.780  1.6453 -0.3828 -1.2495
   64SAPC    C2 5152   1.117   2.885   6.840  0.5031 -0.2056 -0.0721
   64SAPC    HS 5153   1.143   2.973   6.902  0.5037 -0.7810  0.7513
   64SAPC   O21 5154   1.117   2.932   6.700  0.1514  0.3656  0.6238
   64SAPC   C21 5155   1.217   3.005   6.670  0.3507 -0.4049  0.2909
   64SAPC   O22 5156   1.301   3.053   6.742  0.2245 -0.3375 -0.0112
   64SAPC   C22 5157   1.221   3.007   6.519 -0.4292 -0.5155  0.0974
   64SAPC   H2R 5158   1.279   2.916   6.492 -0.7180 -0.5247 -0.5099
   64SAPC   H2S 5159   1.121   3.017   6.471 -0.1807  4.5390  0.1555
   64SAPC    C3 5160   1.222   2.782   6.866 -0.3916  0.7807  0.4284
   64SAPC    HX 5161   1.226   2.759   6.975 -0.0499 -0.0108  0.2581
   64SAPC    HY 5162   1.318   2.828   6.835 -0.5399  0.2121 -0.9522
   64SAPC   O31 5163   1.193   2.658   6.802 -0.4409  0.0754 -0.0283
   64SAPC   C31 5164   1.266   2.633   6.689  0.0859  0.0650 -0.0361
   64SAPC   O32 5165   1.346   2.715   6.641 -0.1894  0.2869 -0.0688
   64SAPC   C32 5166   1.230   2.495   6.630 -0.4533  0.2682  1.2279
   64SAPC   H2X 5167   1.142   2.450   6.681 -0.1235 -1.3615  0.4281
   64SAPC   H2Y 5168   1.304   2.419   6.663  0.5690  0.5953 -0.1808
   64SAPC   C23 5169   1.298   3.134   6.481  0.1019  0.4405 -0.7825
   64SAPC   H3R 5170   1.402   3.107   6.507 -0.7430 -2.1480  0.2523
   64SAPC   H3S 5171   1.273   3.221   6.547  1.8103 -0.5183  1.2508
   64SAPC   C24 5172   1.288   3.174   6.328 -0.1829  0.1012  0.7817
   64SAPC   H4R 5173   1.322   3.088   6.268 -2.3930  0.5596 -1.2934
   64SAPC   H4S 5174   1.369   3.250   6.313  0.6876 -0.6607  1.5403
   64SAPC   C25 5175   1.150   3.214   6.283 -0.1399 -0.3477 -0.6990
   64SAPC   H5R 5176   1.109   3.289   6.352  0.4389  0.2686 -1.0146
   64SAPC   C26 5177   1.075   3.168   6.190  0.5460  0.7217 -0.0981
   64SAPC   H6R 5178   0.978   3.217   6.172  0.2388  0.9315  1.9721
   64SAPC   C27 5179   1.103   3.052   6.089 -0.1810 -0.7898 -0.0625
   64SAPC   H7R 5180   1.009   3.008   6.049  0.3114  0.1149 -2.3814
   64SAPC   H7S 5181   1.151   2.973   6.150  1.8480  1.0617  0.8975
   64SAPC   C28 5182   1.195   3.093   5.978 -0.9934 -0.0336  0.1286
   64SAPC   H8R 5183   1.303   3.100   5.999 -1.1034  0.3780  0.5466
   64SAPC   C29 5184   1.159   3.134   5.858 -0.0363  0.2359  0.4764
   64SAPC   H9R 5185   1.236   3.142   5.780  0.0458  0.1673  0.5515
   64SAPC  C210 5186   1.024   3.161   5.800  0.7677  0.2277  0.5013
   64SAPC  H10R 5187   0.949   3.139   5.879  0.5500  1.5807  0.6958
   64SAPC  H10S 5188   1.020   3.088   5.716 -1.4190  0.3792  0.4154
   64SAPC  C211 5189   0.999   3.293   5.750  0.1296  0.2117 -0.0817
   64SAPC  H11R 5190   1.064   3.372   5.790  0.4675  0.1269 -0.4584
   64SAPC  C212 5191   0.911   3.331   5.655 -0.2138 -0.9532  0.3113
   64SAPC  H12R 5192   0.911   3.435   5.618  1.3953 -0.7188  0.8571
   64SAPC  C213 5193   0.820   3.234   5.586  0.4291  0.3303  0.1234
   64SAPC  H13R 5194   0.792   3.149   5.653  0.5695  0.3598  0.2203
   64SAPC  H13S 5195   0.881   3.187   5.506 -0.6201 -2.1628  0.6602
   64SAPC  C214 5196   0.692   3.295   5.540 -0.1213  0.4453 -0.2285
   64SAPC  H14R 5197   0.625   3.321   5.624  1.2164  1.4441  0.5691
   64SAPC  C215 5198   0.653   3.338   5.416 -0.2459 -0.2640  0.1395
   64SAPC  H15R 5199   0.556   3.389   5.411 -0.5582 -0.9301 -1.0117
   64SAPC  C216 5200   0.713   3.301   5.283 -0.1094  0.4618 -0.1229
   64SAPC  H16R 5201   0.647   3.227   5.231 -1.1600  0.9104  0.5301
   64SAPC  H16S 5202   0.813   3.254   5.288  0.0344  0.7541 -0.2892
   64SAPC  C217 5203   0.746   3.423   5.199 -0.6319  0.0758  0.3000
   64SAPC  H17R 5204   0.831   3.483   5.239  0.0743  0.6731 -1.9509
   64SAPC  H17S 5205   0.655   3.484   5.188 -1.0178 -0.6249 -0.4619
   64SAPC  C218 5206   0.773   3.370   5.059 -0.0534  0.5120 -0.4167
   64SAPC  H18R 5207   0.673   3.328   5.036 -1.2105  1.5461  2.3157
   64SAPC  H18S 5208   0.857   3.299   5.050  2.8260  3.7626 -1.7920
   64SAPC  C219 5209   0.788   3.481   4.953  0.1382  0.1713 -0.7745
   64SAPC  H19R 5210   0.685   3.524   4.948 -1.4993 -3.3495 -0.6644
   64SAPC  H19S 5211   0.809   3.434   4.855 -5.2042 -0.6549 -1.8633
   64SAPC  C220 5212   0.886   3.590   4.991  0.0729 -0.7324 -0.1027
   64SAPC  H20R 5213   0.981   3.537   5.014 -0.7471 -3.1276 -1.8098
   64SAPC  H20S 5214   0.844   3.635   5.083 -0.9072 -1.2848 -0.2615
   64SAPC  H20T 5215   0.907   3.665   4.912  0.0060 -0.4113  0.1842
   64SAPC   C33 5216   1.222   2.484   6.478  0.6266  0.0628  0.2298
   64SAPC   H3X 5217   1.263   2.385   6.449  0.4746  0.5273 -1.6629
   64SAPC   H3Y 5218   1.287   2.560   6.429 -0.0963  0.1642 -0.5886
   64SAPC   C34 5219   1.082   2.482   6.421 -0.6759 -0.1176 -0.7090
   64SAPC   H4X 5220   1.019   2.572   6.436 -1.1931 -0.5471 -0.2401
   64SAPC   H4Y 5221   1.032   2.404   6.482 -0.2214  1.4231  1.7751
   64SAPC   C35 5222   1.075   2.430   6.271 -0.0875 -0.3230 -0.5010
   64SAPC   H5X 5223   0.971   2.445   6.234 -1.1361  3.2946  3.1748
   64SAPC   H5Y 5224   1.099   2.322   6.271 -2.3139 -0.8763  0.0138
   64SAPC   C36 5225   1.159   2.506   6.168 -0.4486 -0.4802 -0.2797
   64SAPC   H6X 5226   1.257   2.540   6.209 -1.7397  1.5755  1.3128
   64SAPC   H6Y 5227   1.107   2.603   6.158  1.2985  0.3423 -2.0784
   64SAPC   C37 5228   1.171   2.444   6.028 -0.0321 -0.1706  0.4263
   64SAPC   H7X 5229   1.069   2.419   5.991  0.2204 -0.4525 -0.0847
   64SAPC   H7Y 5230   1.221   2.345   6.028 -2.3509 -1.4508  2.0953
   64SAPC   C38 5231   1.244   2.538   5.932  0.1241 -0.7671 -0.0835
   64SAPC   H8X 5232   1.350   2.549   5.963 -0.1068  0.5940  0.2673
   64SAPC   H8Y 5233   1.190   2.634   5.943 -2.0771 -1.6889 -1.8255
   64SAPC   C39 5234   1.235   2.499   5.779  0.6401 -0.0657  0.3061
   64SAPC   H9X 5235   1.130   2.469   5.761  0.8426 -0.3457 -0.4404
   64SAPC   H9Y 5236   1.298   2.409   5.763  0.9155  0.3880 -1.3055
   64SAPC  C310 5237   1.291   2.610   5.690  0.1619 -0.4769  0.1425
   64SAPC  H10X 5238   1.396   2.635   5.716  0.4689 -0.4601 -1.0566
   64SAPC  H10Y 5239   1.235   2.706   5.702  3.2638  1.4455  0.4466
   64SAPC  C311 5240   1.290   2.580   5.537  0.5313 -0.6510  0.1200
   64SAPC  H11X 5241   1.338   2.482   5.517 -1.9969 -1.7350 -1.0278
   64SAPC  H11Y 5242   1.338   2.658   5.474 -3.3839  2.8456  1.0121
   64SAPC  C312 5243   1.150   2.568   5.474  1.1314 -0.2890  0.9359
   64SAPC  H12X 5244   1.096   2.665   5.478 -2.2306 -2.0104  1.3490
   64SAPC  H12Y 5245   1.100   2.482   5.526  1.0223  0.4954  2.1738
   64SAPC  C313 5246   1.142   2.529   5.325  0.0921  1.1249 -0.7697
   64SAPC  H13X 5247   1.038   2.509   5.290  1.0040 -3.4563 -1.5034
   64SAPC  H13Y 5248   1.196   2.433   5.312 -0.6644  0.4165  0.9146
   64SAPC  C314 5249   1.202   2.632   5.232  0.6898 -0.8113 -0.6337
   64SAPC  H14X 5250   1.305   2.656   5.266  0.1402 -1.3386  1.5219
   64SAPC  H14Y 5251   1.152   2.730   5.237  1.5155 -0.2789 -2.1240
   64SAPC  C315 5252   1.199   2.595   5.087  0.5029  1.0294 -0.4210
   64SAPC  H15X 5253   1.228   2.680   5.021  2.2844 -0.1448 -1.2387
   64SAPC  H15Y 5254   1.093   2.578   5.059  0.5736  1.1087 -0.7468
   64SAPC  C316 5255   1.280   2.469   5.046 -0.6266  0.4860 -0.4768
   64SAPC  H16X 5256   1.226   2.378   5.078 -1.2663  0.8851 -0.3964
   64SAPC  H16Y 5257   1.379   2.472   5.095 -0.0740  1.4899 -1.6033
   64SAPC  C317 5258   1.289   2.464   4.894  0.0421 -0.6382 -0.1004
   64SAPC  H17X 5259   1.204   2.523   4.853 -0.8614  0.0016  2.5319
   64SAPC  H17Y 5260   1.286   2.359   4.857 -1.1254 -0.3016 -1.0494
   64SAPC  C318 5261   1.416   2.536   4.841 -0.7373 -0.4446  0.2928
   64SAPC  H18X 5262   1.432   2.642   4.871  1.9866 -0.4252 -0.9584
   64SAPC  H18Y 5263   1.405   2.552   4.732 -2.0929  1.0402  0.5959
   64SAPC  H18Z 5264   1.505   2.478   4.873 -0.5487 -0.0601  0.4780
   65SAPC     N 5265   6.811   0.560   2.287  0.2654 -0.5925  0.8419
   65SAPC   C12 5266   6.912   0.671   2.323  0.5696 -0.4405  0.2607
   65SAPC  H12A 5267   6.941   0.651   2.426  0.3622 -0.3091  0.3450
   65SAPC  H12B 5268   6.861   0.766   2.323  0.5467 -0.4511  0.5762
   65SAPC   C13 5269   6.704   0.553   2.388  0.1690  0.2374 -0.5321
   65SAPC  H13A 5270   6.659   0.649   2.411 -2.8403 -1.7252  2.6244
   65SAPC  H13B 5271   6.623   0.494   2.348  0.1174 -1.8858  2.3967
   65SAPC  H13C 5272   6.737   0.507   2.480 -0.1040  1.0282 -0.0281
   65SAPC   C14 5273   6.759   0.592   2.141 -0.0250 -0.7589 -0.4700
   65SAPC  H14A 5274   6.832   0.569   2.065  0.1618 -1.0714 -0.2016
   65SAPC  H14B 5275   6.667   0.535   2.140 -1.1888  0.7339  3.2573
   65SAPC  H14C 5276   6.724   0.694   2.141  0.4593 -0.5681  0.8549
   65SAPC   C15 5277   6.890   0.426   2.291  0.0227  0.1011 -0.1662
   65SAPC  H15A 5278   6.826   0.341   2.273 -0.7912  0.5009  0.7652
   65SAPC  H15B 5279   6.984   0.425   2.237  0.7747 -1.9887  1.0673
   65SAPC  H15C 5280   6.934   0.414   2.388 -0.2449 -0.6936 -0.1342
   65SAPC   C11 5281   7.040   0.690   2.229  0.2871  0.3125 -0.4799
   65SAPC  H11A 5282   7.087   0.787   2.254 -0.0800  0.4421 -0.2877
   65SAPC  H11B 5283   7.005   0.705   2.125  1.8102  0.0426 -1.0462
   65SAPC     P 5284   7.245   0.555   2.319 -0.0284 -0.0132  0.0470
   65SAPC   O13 5285   7.314   0.431   2.280  0.4040 -0.2131  0.3358
   65SAPC   O14 5286   7.329   0.672   2.327 -0.2549 -0.3090  0.0408
   65SAPC   O12 5287   7.132   0.582   2.215 -0.2160  0.5886 -0.3731
   65SAPC   O11 5288   7.169   0.541   2.451 -0.1422  0.0254  0.1257
   65SAPC    C1 5289   7.241   0.534   2.575  0.1539 -0.6492  0.5974
   65SAPC    HA 5290   7.351   0.528   2.568  0.2786  2.0335 -2.8460
   65SAPC    HB 5291   7.230   0.629   2.632  1.1464 -0.3540  0.3157
   65SAPC    C2 5292   7.185   0.426   2.668  0.0296 -0.4906 -0.1425
   65SAPC    HS 5293   7.163   0.328   2.619  0.5474 -0.2864 -0.8085
   65SAPC   O21 5294   7.068   0.475   2.736  0.1102 -0.0159  0.2058
   65SAPC   C21 5295   6.956   0.441   2.677 -0.4940  0.5471  0.7891
   65SAPC   O22 5296   6.946   0.346   2.596  0.2915  0.0381 -0.7183
   65SAPC   C22 5297   6.845   0.519   2.743 -0.7440 -0.5758 -0.4973
   65SAPC   H2R 5298   6.860   0.525   2.853 -0.4544  1.1679 -0.5902
   65SAPC   H2S 5299   6.859   0.625   2.710 -1.0994  0.3214  1.9988
   65SAPC    C3 5300   7.290   0.401   2.782 -0.6903  0.9669  0.3751
   65SAPC    HX 5301   7.331   0.497   2.819 -0.6725  0.2137  2.4740
   65SAPC    HY 5302   7.374   0.349   2.731 -2.6858 -0.5220 -1.6082
   65SAPC   O31 5303   7.233   0.322   2.892 -0.2229  0.1472 -0.9463
   65SAPC   C31 5304   7.212   0.192   2.857  0.0062 -0.4544  0.4267
   65SAPC   O32 5305   7.248   0.143   2.755 -0.4212 -0.3514 -0.5601
   65SAPC   C32 5306   7.153   0.109   2.975 -0.5153 -0.0989 -0.8051
   65SAPC   H2X 5307   7.245   0.067   3.022 -0.6233  0.9647  0.4219
   65SAPC   H2Y 5308   7.095   0.024   2.935 -2.4180  0.6683  0.2120
   65SAPC   C23 5309   6.708   0.456   2.728 -0.4266  0.2356  0.0175
   65SAPC   H3R 5310   6.699   0.372   2.800  1.8522 -1.7643 -1.8378
   65SAPC   H3S 5311   6.691   0.410   2.628  0.3088 -2.3721  0.9991
   65SAPC   C24 5312   6.584   0.555   2.772 -0.2259 -0.1565 -0.5411
   65SAPC   H4R 5313   6.495   0.488   2.761  0.4521 -1.3653  0.9197
   65SAPC   H4S 5314   6.570   0.642   2.704  0.2473 -0.1202 -0.5923
   65SAPC   C25 5315   6.595   0.606   2.915  1.3171  0.2588  0.2935
   65SAPC   H5R 5316   6.604   0.524   2.988  1.2571 -0.9612 -1.0194
   65SAPC   C26 5317   6.603   0.738   2.960  0.4678  0.6492 -0.1638
   65SAPC   H6R 5318   6.602   0.748   3.070  0.9945 -2.3437  0.1923
   65SAPC   C27 5319   6.597   0.869   2.881 -0.3344  0.3597 -0.1479
   65SAPC   H7R 5320   6.501   0.923   2.900  0.2373  1.0314  0.8745
   65SAPC   H7S 5321   6.592   0.848   2.772 -0.5478  1.7033 -0.4099
   65SAPC   C28 5322   6.719   0.958   2.908 -0.0478 -0.9818 -0.8664
   65SAPC   H8R 5323   6.792   0.957   2.825 -0.5592  0.6151 -1.3691
   65SAPC   C29 5324   6.751   1.032   3.019 -0.1559  0.9014  0.9088
   65SAPC   H9R 5325   6.854   1.072   3.026  0.5901 -0.9733  1.2738
   65SAPC  C210 5326   6.671   1.051   3.142  0.1071 -0.1437 -0.0436
   65SAPC  H10R 5327   6.573   1.003   3.126 -0.0804  0.0792  0.4170
   65SAPC  H10S 5328   6.650   1.157   3.168 -0.5700 -0.7825  2.2872
   65SAPC  C211 5329   6.746   0.991   3.260 -0.4215 -0.4015 -0.3171
   65SAPC  H11R 5330   6.829   0.922   3.239  0.4881  0.3243  0.7357
   65SAPC  C212 5331   6.744   1.050   3.383 -0.4078  0.2421 -0.7156
   65SAPC  H12R 5332   6.799   1.007   3.469 -0.4993  0.1523 -0.7020
   65SAPC  C213 5333   6.667   1.172   3.424  0.5235 -0.3657  0.1863
   65SAPC  H13R 5334   6.558   1.152   3.437  0.1592  0.8480 -0.8323
   65SAPC  H13S 5335   6.651   1.249   3.345  2.3548 -0.6531 -0.5030
   65SAPC  C214 5336   6.711   1.239   3.553 -0.2732 -0.9570  0.3381
   65SAPC  H14R 5337   6.771   1.331   3.540  2.4369 -2.5251  0.9466
   65SAPC  C215 5338   6.695   1.192   3.673  1.0310  0.5259 -0.4509
   65SAPC  H15R 5339   6.726   1.254   3.758  0.0768 -0.8180  0.9336
   65SAPC  C216 5340   6.621   1.064   3.709  0.1066  0.1020  0.0073
   65SAPC  H16R 5341   6.695   0.982   3.714  0.3802  0.0455 -3.0938
   65SAPC  H16S 5342   6.547   1.040   3.630 -0.4363  2.6410 -0.3559
   65SAPC  C217 5343   6.570   1.055   3.858  0.6361  0.4396 -0.3958
   65SAPC  H17R 5344   6.517   0.958   3.855 -2.1067  1.8608 -1.8170
   65SAPC  H17S 5345   6.496   1.137   3.873 -0.1442  0.1260 -2.2092
   65SAPC  C218 5346   6.681   1.053   3.961  0.1380 -0.0485 -0.0391
   65SAPC  H18R 5347   6.733   1.151   3.949 -0.9022  0.7098  1.3611
   65SAPC  H18S 5348   6.742   0.963   3.940 -2.1818 -1.4750 -1.1257
   65SAPC  C219 5349   6.637   1.054   4.110 -0.5200 -0.3397 -0.4890
   65SAPC  H19R 5350   6.549   1.122   4.121 -0.4736 -0.2954 -0.3943
   65SAPC  H19S 5351   6.713   1.111   4.167  0.2765  0.4922 -2.2740
   65SAPC  C220 5352   6.619   0.913   4.176  0.0809 -0.0301 -1.0148
   65SAPC  H20R 5353   6.524   0.875   4.133 -1.6374  2.5734  0.1872
   65SAPC  H20S 5354   6.613   0.923   4.287  2.5113 -3.4790 -0.4116
   65SAPC  H20T 5355   6.703   0.846   4.150  3.1738  2.5755  1.3620
   65SAPC   C33 5356   7.071   0.198   3.074 -0.5959  0.2444  0.6912
   65SAPC   H3X 5357   7.130   0.288   3.099  0.7587 -0.1729 -0.8407
   65SAPC   H3Y 5358   7.046   0.136   3.163 -0.2282  0.5723  1.0241
   65SAPC   C34 5359   6.941   0.242   3.003 -0.1189 -0.3771  0.8784
   65SAPC   H4X 5360   6.892   0.166   2.940  0.6814 -1.1222  1.1242
   65SAPC   H4Y 5361   6.968   0.326   2.936 -2.5617 -0.0416  0.2529
   65SAPC   C35 5362   6.829   0.290   3.108  0.1637 -0.8466 -0.4011
   65SAPC   H5X 5363   6.771   0.201   3.140  0.8536 -0.6361  1.6165
   65SAPC   H5Y 5364   6.750   0.345   3.053 -0.3391 -0.5487  0.5873
   65SAPC   C36 5365   6.873   0.378   3.232  0.9224  0.0451 -0.5095
   65SAPC   H6X 5366   6.949   0.452   3.200  0.9712  0.2422  0.0515
   65SAPC   H6Y 5367   6.916   0.319   3.316 -2.1154  0.1855  1.3047
   65SAPC   C37 5368   6.759   0.460   3.299  0.6464 -0.2092 -0.0751
   65SAPC   H7X 5369   6.703   0.512   3.218  1.9591  0.5343 -0.5390
   65SAPC   H7Y 5370   6.805   0.535   3.366 -0.6360  1.1305 -0.6337
   65SAPC   C38 5371   6.658   0.382   3.390  0.7908 -0.3409  0.1305
   65SAPC   H8X 5372   6.716   0.300   3.437  1.0687 -0.5703 -0.5945
   65SAPC   H8Y 5373   6.594   0.329   3.316  0.3124 -0.0473  0.3256
   65SAPC   C39 5374   6.574   0.468   3.489 -0.1299  0.4110  0.4621
   65SAPC   H9X 5375   6.474   0.422   3.502  0.4356 -0.4232  2.1983
   65SAPC   H9Y 5376   6.554   0.566   3.441 -1.1692 -1.0148 -2.2095
   65SAPC  C310 5377   6.638   0.463   3.628 -0.1389 -0.0627 -0.0227
   65SAPC  H10X 5378   6.737   0.511   3.612 -0.4677  0.4401 -0.5876
   65SAPC  H10Y 5379   6.654   0.355   3.651  0.5537 -0.2575 -1.3449
   65SAPC  C311 5380   6.550   0.521   3.741  0.0257 -0.6455 -0.2093
   65SAPC  H11X 5381   6.442   0.500   3.723 -0.4348  1.2242  0.1543
   65SAPC  H11Y 5382   6.563   0.632   3.745  0.8333 -0.6266 -2.2205
   65SAPC  C312 5383   6.597   0.462   3.886 -0.5887 -0.3832  0.5225
   65SAPC  H12X 5384   6.704   0.482   3.909 -1.0910  0.8189  2.0146
   65SAPC  H12Y 5385   6.565   0.356   3.888  1.0337 -1.0209 -2.5961
   65SAPC  C313 5386   6.531   0.531   4.006 -0.0964 -0.6245 -0.0930
   65SAPC  H13X 5387   6.420   0.539   4.005 -0.0406  0.9726  1.6779
   65SAPC  H13Y 5388   6.566   0.636   4.007 -1.4005 -0.1687  0.0444
   65SAPC  C314 5389   6.582   0.469   4.136  0.2140 -0.3741  0.3542
   65SAPC  H14X 5390   6.692   0.477   4.150  0.4510 -0.4117 -1.2990
   65SAPC  H14Y 5391   6.557   0.361   4.138  0.6677 -0.5183 -0.7817
   65SAPC  C315 5392   6.504   0.521   4.251  0.5816 -0.7198 -0.1845
   65SAPC  H15X 5393   6.394   0.505   4.245  0.2253  1.6233 -0.8689
   65SAPC  H15Y 5394   6.509   0.632   4.260  1.1550 -0.6760 -0.9784
   65SAPC  C316 5395   6.555   0.460   4.382 -0.4712 -0.4775  0.0423
   65SAPC  H16X 5396   6.615   0.535   4.437 -0.9351  0.1944 -0.3516
   65SAPC  H16Y 5397   6.622   0.379   4.344 -1.6598 -1.2584 -0.4565
   65SAPC  C317 5398   6.446   0.406   4.468 -0.3767  0.9131  0.0182
   65SAPC  H17X 5399   6.381   0.493   4.492 -1.3393  0.1564  0.2462
   65SAPC  H17Y 5400   6.487   0.358   4.559 -0.4441 -0.2241 -0.5280
   65SAPC  C318 5401   6.363   0.304   4.396  0.6151  0.2624  0.6446
   65SAPC  H18X 5402   6.298   0.242   4.462 -2.0748  0.2419 -1.8066
   65SAPC  H18Y 5403   6.424   0.231   4.339 -2.1039 -1.0502 -0.7774
   65SAPC  H18Z 5404   6.287   0.339   4.322  0.8020 -2.8209 -1.1611
   66SAPC     N 5405   2.048   3.601   2.102 -0.0290 -0.3381 -0.2289
   66SAPC   C12 5406   1.929   3.629   2.202 -0.3623 -0.3623 -0.4952
   66SAPC  H12A 5407   1.973   3.697   2.274  0.6310 -1.8247  0.3174
   66SAPC  H12B 5408   1.898   3.539   2.252  2.5012 -0.3786  1.5119
   66SAPC   C13 5409   2.154   3.522   2.162 -0.9035  0.5498 -0.2863
   66SAPC  H13A 5410   2.204   3.564   2.248 -0.7684  1.4681 -0.8026
   66SAPC  H13B 5411   2.119   3.425   2.194 -0.1121  0.8959  1.7644
   66SAPC  H13C 5412   2.235   3.517   2.091 -1.2654 -0.3158 -0.6485
   66SAPC   C14 5413   2.008   3.534   1.980  0.3473 -0.2628  0.5194
   66SAPC  H14A 5414   2.095   3.509   1.920 -0.1474 -0.9370  0.0714
   66SAPC  H14B 5415   1.948   3.448   2.006 -1.1574  0.5039 -0.2590
   66SAPC  H14C 5416   1.944   3.600   1.924  2.0970 -0.0021 -1.3053
   66SAPC   C15 5417   2.107   3.731   2.066  0.4169 -0.1428  0.4491
   66SAPC  H15A 5418   2.031   3.803   2.041 -0.2554 -0.5910  1.1765
   66SAPC  H15B 5419   2.157   3.786   2.145 -0.6002 -0.5441  1.3916
   66SAPC  H15C 5420   2.186   3.716   1.993  1.4020  1.0736  1.2041
   66SAPC   C11 5421   1.805   3.705   2.145  0.5977  0.0145  0.0288
   66SAPC  H11A 5422   1.720   3.694   2.216  0.4000 -2.2745 -0.4615
   66SAPC  H11B 5423   1.775   3.646   2.055 -0.6401  0.0930  0.3716
   66SAPC     P 5424   1.822   3.960   2.214 -0.8387 -0.5122 -0.4474
   66SAPC   O13 5425   1.937   4.049   2.211  0.8061 -0.3570  0.4796
   66SAPC   O14 5426   1.686   4.024   2.197  0.1330  0.1360  0.4779
   66SAPC   O12 5427   1.833   3.838   2.110 -0.1733  0.0434  0.4222
   66SAPC   O11 5428   1.820   3.885   2.349  0.2056 -0.0848 -0.0521
   66SAPC    C1 5429   1.753   3.957   2.455 -0.2150  1.0913 -0.1975
   66SAPC    HA 5430   1.823   4.040   2.482 -0.3954  1.4253 -0.7516
   66SAPC    HB 5431   1.661   4.009   2.423 -1.3479 -0.8852 -0.3270
   66SAPC    C2 5432   1.736   3.865   2.577 -0.6584 -0.4532 -0.6130
   66SAPC    HS 5433   1.643   3.890   2.632  0.3609  0.5903  0.6946
   66SAPC   O21 5434   1.843   3.889   2.668 -0.2685 -0.1213  0.1895
   66SAPC   C21 5435   1.822   3.872   2.794 -0.1456 -0.1838 -0.0468
   66SAPC   O22 5436   1.720   3.843   2.849 -0.0924  0.7686  0.1589
   66SAPC   C22 5437   1.955   3.888   2.873 -0.3328  0.1606  0.4220
   66SAPC   H2R 5438   1.982   3.994   2.855  2.7368 -0.7626 -1.1519
   66SAPC   H2S 5439   1.931   3.866   2.980 -0.3916  0.0742  0.3910
   66SAPC    C3 5440   1.720   3.714   2.540 -0.2803  0.4149 -0.0673
   66SAPC    HX 5441   1.793   3.671   2.469 -0.1554  0.9123 -0.2446
   66SAPC    HY 5442   1.632   3.704   2.473 -0.8224  0.9180  0.5574
   66SAPC   O31 5443   1.703   3.630   2.652 -0.1517  0.7849  0.4548
   66SAPC   C31 5444   1.579   3.620   2.696 -0.8821  0.2127 -0.3537
   66SAPC   O32 5445   1.487   3.688   2.667  0.2655  0.0148  0.4260
   66SAPC   C32 5446   1.574   3.514   2.795  0.4360 -0.5020 -0.0235
   66SAPC   H2X 5447   1.645   3.549   2.873  0.0053 -1.5265  0.8573
   66SAPC   H2Y 5448   1.621   3.420   2.761 -1.0194 -2.2503  2.4126
   66SAPC   C23 5449   2.074   3.798   2.813  0.3332 -0.4372  0.0711
   66SAPC   H3R 5450   2.172   3.844   2.837 -0.0369  0.2644  0.2903
   66SAPC   H3S 5451   2.058   3.818   2.705 -1.1246  1.1176  0.5304
   66SAPC   C24 5452   2.082   3.645   2.841 -0.2000 -0.2217 -0.0277
   66SAPC   H4R 5453   2.154   3.606   2.767 -1.8795 -1.1689 -1.2094
   66SAPC   H4S 5454   1.981   3.616   2.805 -0.3734  0.7156 -0.3175
   66SAPC   C25 5455   2.107   3.623   2.986 -1.2965  0.1350 -0.0958
   66SAPC   H5R 5456   2.178   3.698   3.023  0.9262 -0.7449 -2.2762
   66SAPC   C26 5457   2.031   3.551   3.068 -0.7878 -0.0762 -0.0910
   66SAPC   H6R 5458   2.065   3.537   3.171 -1.3980  3.1739  0.6382
   66SAPC   C27 5459   1.923   3.457   3.022  0.0766 -0.2485 -0.2184
   66SAPC   H7R 5460   1.920   3.447   2.912 -0.3204  0.9669 -0.3398
   66SAPC   H7S 5461   1.829   3.508   3.054  1.3145  1.2758  1.2017
   66SAPC   C28 5462   1.944   3.320   3.079 -0.0051 -0.4390 -0.5068
   66SAPC   H8R 5463   1.988   3.255   3.002 -1.6912 -1.7842 -0.4081
   66SAPC   C29 5464   1.903   3.282   3.203  0.2084 -0.5960 -0.1341
   66SAPC   H9R 5465   1.920   3.178   3.236  3.6631 -0.1417 -0.1554
   66SAPC  C210 5466   1.836   3.376   3.308 -0.1022 -0.2853 -0.4552
   66SAPC  H10R 5467   1.736   3.343   3.342  0.0507 -1.1771 -0.8219
   66SAPC  H10S 5468   1.822   3.474   3.258  1.5833 -0.3710 -1.1638
   66SAPC  C211 5469   1.929   3.389   3.423 -0.0124  0.5914 -0.3319
   66SAPC  H11R 5470   2.021   3.447   3.403 -1.0639  2.0567 -1.0847
   66SAPC  C212 5471   1.900   3.371   3.554 -0.1944  0.3292 -0.8795
   66SAPC  H12R 5472   1.965   3.407   3.635 -1.3156 -2.7769  1.5874
   66SAPC  C213 5473   1.768   3.324   3.615  0.3156  0.2384 -0.0036
   66SAPC  H13R 5474   1.769   3.227   3.670 -4.1207  0.5161  0.9288
   66SAPC  H13S 5475   1.687   3.296   3.545 -1.4501 -1.2368  2.4406
   66SAPC  C214 5476   1.705   3.427   3.705  0.2170  0.0391 -0.1952
   66SAPC  H14R 5477   1.662   3.518   3.660 -1.2292  0.9114  2.7461
   66SAPC  C215 5478   1.709   3.435   3.840 -0.7288  0.8553 -0.6072
   66SAPC  H15R 5479   1.669   3.521   3.896  1.2038  0.7601  1.0172
   66SAPC  C216 5480   1.768   3.331   3.933 -0.0459 -0.6113  0.1578
   66SAPC  H16R 5481   1.804   3.376   4.028  0.6603 -0.6346 -0.0954
   66SAPC  H16S 5482   1.859   3.291   3.883 -0.7924 -0.2672 -1.5446
   66SAPC  C217 5483   1.669   3.218   3.967 -0.4860  0.6588 -0.5508
   66SAPC  H17R 5484   1.640   3.155   3.880  1.2669  1.0393 -1.4745
   66SAPC  H17S 5485   1.573   3.247   4.013 -2.8433 -2.8048 -2.8199
   66SAPC  C218 5486   1.723   3.106   4.063  0.3872  0.0500  0.2178
   66SAPC  H18R 5487   1.715   3.156   4.162 -0.9156  0.7364 -0.2139
   66SAPC  H18S 5488   1.830   3.079   4.065 -0.1211 -2.1077  1.1038
   66SAPC  C219 5489   1.634   2.985   4.054  0.9463  0.3418 -0.1874
   66SAPC  H19R 5490   1.632   2.948   3.950  0.4268 -0.8322  0.2201
   66SAPC  H19S 5491   1.525   3.009   4.061  0.8853  0.3950 -1.2522
   66SAPC  C220 5492   1.671   2.868   4.155  0.3773 -0.0125  0.2550
   66SAPC  H20R 5493   1.773   2.835   4.126  0.1110 -0.4601 -0.1820
   66SAPC  H20S 5494   1.591   2.792   4.142 -1.2234  1.7153 -0.4826
   66SAPC  H20T 5495   1.656   2.894   4.262  0.5580  1.9261 -0.1436
   66SAPC   C33 5496   1.437   3.485   2.854  0.3997 -0.0782 -0.1286
   66SAPC   H3X 5497   1.368   3.440   2.780 -0.6028  0.5456  0.4063
   66SAPC   H3Y 5498   1.391   3.584   2.873 -2.7881 -1.4143 -0.3196
   66SAPC   C34 5499   1.449   3.406   2.990 -0.0233 -0.5903  0.2817
   66SAPC   H4X 5500   1.527   3.454   3.053 -0.2002  0.1313 -0.0350
   66SAPC   H4Y 5501   1.453   3.297   2.967 -4.8095 -0.4290 -2.8599
   66SAPC   C35 5502   1.331   3.426   3.082  0.0587 -0.3004 -0.0886
   66SAPC   H5X 5503   1.244   3.368   3.043 -0.6159  0.1983  0.6428
   66SAPC   H5Y 5504   1.315   3.536   3.078  3.1072  0.3497  2.2499
   66SAPC   C36 5505   1.363   3.388   3.225  0.1208  0.2269 -0.2123
   66SAPC   H6X 5506   1.464   3.426   3.254 -1.2722  3.0897  1.3751
   66SAPC   H6Y 5507   1.363   3.278   3.238 -1.8809 -0.2214 -3.0867
   66SAPC   C37 5508   1.258   3.436   3.328 -0.6977  0.7781  0.0930
   66SAPC   H7X 5509   1.168   3.370   3.322  0.8220 -1.2932 -1.2756
   66SAPC   H7Y 5510   1.219   3.537   3.302 -1.1753  0.1599 -1.7747
   66SAPC   C38 5511   1.323   3.426   3.470  0.2793 -0.1608 -0.2927
   66SAPC   H8X 5512   1.421   3.478   3.479  0.3689 -0.5423  1.1414
   66SAPC   H8Y 5513   1.337   3.316   3.478 -0.5887 -0.1615  1.6739
   66SAPC   C39 5514   1.231   3.463   3.589 -0.0944  0.0495  1.0372
   66SAPC   H9X 5515   1.144   3.394   3.594 -0.5473  0.5230 -0.0872
   66SAPC   H9Y 5516   1.193   3.566   3.570  1.7835  0.9203  1.7610
   66SAPC  C310 5517   1.312   3.462   3.722  0.2110 -0.5037  0.6587
   66SAPC  H10X 5518   1.385   3.545   3.710 -0.7287 -0.0410 -3.5879
   66SAPC  H10Y 5519   1.366   3.367   3.741  0.0065 -0.5611  0.9539
   66SAPC  C311 5520   1.222   3.479   3.842  0.3694 -1.2538 -0.0300
   66SAPC  H11X 5521   1.143   3.401   3.839 -1.6102  0.6675 -0.6512
   66SAPC  H11Y 5522   1.170   3.577   3.832  1.0416 -0.7152  1.4637
   66SAPC  C312 5523   1.302   3.471   3.977  0.1739 -0.1310  0.5135
   66SAPC  H12X 5524   1.385   3.545   3.969 -0.2202  0.2594 -0.0162
   66SAPC  H12Y 5525   1.349   3.370   3.974  1.5104  0.4951 -0.7223
   66SAPC  C313 5526   1.229   3.482   4.117  0.2428 -0.3625  1.2769
   66SAPC  H13X 5527   1.319   3.490   4.182  1.3572 -1.5193 -0.0551
   66SAPC  H13Y 5528   1.181   3.385   4.142  0.3742 -1.4293 -2.1106
   66SAPC  C314 5529   1.138   3.610   4.125 -0.2280  0.7825  0.7272
   66SAPC  H14X 5530   1.046   3.583   4.069  0.8714  0.0001 -0.7557
   66SAPC  H14Y 5531   1.193   3.698   4.086 -1.8207  1.2112 -0.6793
   66SAPC  C315 5532   1.090   3.638   4.267  0.6290 -0.2827  0.7756
   66SAPC  H15X 5533   1.105   3.549   4.332 -0.5807  0.1684  1.7270
   66SAPC  H15Y 5534   0.983   3.669   4.269  1.0811  1.3011  1.7580
   66SAPC  C316 5535   1.157   3.751   4.347  0.3027 -0.4790  0.1486
   66SAPC  H16X 5536   1.264   3.729   4.370 -0.0784 -0.0616  2.6005
   66SAPC  H16Y 5537   1.094   3.769   4.436 -2.5878 -1.0882 -1.6573
   66SAPC  C317 5538   1.169   3.892   4.279  0.9155 -0.1237  0.3547
   66SAPC  H17X 5539   1.247   3.890   4.200 -1.1319 -0.3814 -1.7410
   66SAPC  H17Y 5540   1.196   3.966   4.357 -2.5901  0.6983  0.9203
   66SAPC  C318 5541   1.038   3.946   4.215  0.3068 -0.4691 -0.8328
   66SAPC  H18X 5542   0.962   3.976   4.292 -1.0777  0.3072 -2.4353
   66SAPC  H18Y 5543   1.000   3.859   4.157  1.1701 -0.3036 -1.6603
   66SAPC  H18Z 5544   1.058   4.025   4.140  0.9066 -0.1426 -0.3431
   67SAPC     N 5545   5.785   3.290   2.403  0.6558 -0.4126 -0.2342
   67SAPC   C12 5546   5.815   3.238   2.542  0.0547 -0.4409  0.4059
   67SAPC  H12A 5547   5.923   3.242   2.543  0.0800  0.2316 -1.4003
   67SAPC  H12B 5548   5.796   3.132   2.551  2.0281 -0.9609 -0.8529
   67SAPC   C13 5549   5.839   3.196   2.311 -0.2562  0.0949 -0.1541
   67SAPC  H13A 5550   5.778   3.108   2.294 -1.0006  0.6136 -0.1890
   67SAPC  H13B 5551   5.842   3.230   2.208 -0.4967  1.0713  0.1485
   67SAPC  H13C 5552   5.937   3.170   2.347 -0.4034 -0.3807 -0.0820
   67SAPC   C14 5553   5.632   3.286   2.386 -0.4044 -0.4096  0.2282
   67SAPC  H14A 5554   5.616   3.315   2.283 -0.2060 -3.0705 -0.6497
   67SAPC  H14B 5555   5.598   3.184   2.392 -1.5103 -0.1654 -1.3638
   67SAPC  H14C 5556   5.578   3.338   2.464  0.7231  1.1390  0.0257
   67SAPC   C15 5557   5.835   3.429   2.383  0.3071  0.0331  0.0480
   67SAPC  H15A 5558   5.821   3.464   2.282  1.2843 -2.4726 -1.0436
   67SAPC  H15B 5559   5.785   3.493   2.453 -2.9952 -1.3712 -0.8376
   67SAPC  H15C 5560   5.943   3.434   2.396  0.1176  0.4507  1.6154
   67SAPC   C11 5561   5.772   3.315   2.666  0.2631 -0.1261 -0.1950
   67SAPC  H11A 5562   5.825   3.412   2.670  1.3438 -0.7268  0.5951
   67SAPC  H11B 5563   5.812   3.259   2.754 -1.3955 -1.7153 -0.3876
   67SAPC     P 5564   5.536   3.268   2.787  0.4739  0.0215 -0.3642
   67SAPC   O13 5565   5.428   3.364   2.808 -0.5340  0.6917 -0.5586
   67SAPC   O14 5566   5.506   3.132   2.740  0.0030 -0.1961  0.5921
   67SAPC   O12 5567   5.630   3.335   2.674  0.3781  0.8990  0.5300
   67SAPC   O11 5568   5.628   3.277   2.915  0.1412  0.5746  0.1479
   67SAPC    C1 5569   5.693   3.159   2.967  0.0062 -0.0108  0.2296
   67SAPC    HA 5570   5.621   3.075   2.976  0.4553 -0.3196  1.0371
   67SAPC    HB 5571   5.777   3.121   2.904  0.1553  2.1040 -0.9518
   67SAPC    C2 5572   5.741   3.171   3.112 -1.0000  0.3799  0.3573
   67SAPC    HS 5573   5.745   3.070   3.159 -2.9533  0.0736 -0.0684
   67SAPC   O21 5574   5.648   3.256   3.192 -0.6301  0.5014  0.4266
   67SAPC   C21 5575   5.597   3.201   3.297  0.0386 -0.1023 -0.3896
   67SAPC   O22 5576   5.608   3.086   3.335  0.2064 -0.1306  0.0537
   67SAPC   C22 5577   5.521   3.308   3.372 -0.3930  0.1473  0.1365
   67SAPC   H2R 5578   5.430   3.261   3.415 -0.1771  0.1591  0.6133
   67SAPC   H2S 5579   5.577   3.346   3.460  0.8200  2.2033 -1.4102
   67SAPC    C3 5580   5.883   3.236   3.120  0.9927  0.0631 -0.2103
   67SAPC    HX 5581   5.878   3.337   3.074 -0.1153  0.3419  0.4924
   67SAPC    HY 5582   5.953   3.176   3.058 -0.5136  1.8127 -3.8764
   67SAPC   O31 5583   5.937   3.254   3.253  0.2983 -0.6202  0.5024
   67SAPC   C31 5584   5.945   3.150   3.325 -0.0722  0.3529  0.5248
   67SAPC   O32 5585   5.945   3.031   3.286 -0.2476  0.3601  0.1333
   67SAPC   C32 5586   5.957   3.185   3.476 -0.3062  0.6072  0.0675
   67SAPC   H2X 5587   6.060   3.169   3.514 -0.7988 -1.3905  0.6623
   67SAPC   H2Y 5588   5.885   3.115   3.524  1.8217 -0.9422  1.1282
   67SAPC   C23 5589   5.480   3.430   3.282 -0.3862 -0.3635  0.1378
   67SAPC   H3R 5590   5.454   3.383   3.185 -0.7122 -2.0555  1.0076
   67SAPC   H3S 5591   5.569   3.495   3.270  0.1708 -1.1153  0.1430
   67SAPC   C24 5592   5.365   3.521   3.344  0.2812  0.1075 -0.4516
   67SAPC   H4R 5593   5.369   3.619   3.292  0.2651  0.5993  0.4419
   67SAPC   H4S 5594   5.381   3.548   3.451 -0.0882 -0.2314 -0.3091
   67SAPC   C25 5595   5.224   3.455   3.339 -0.2741 -0.3291 -0.3038
   67SAPC   H5R 5596   5.190   3.428   3.238 -0.2004 -1.8363  0.0479
   67SAPC   C26 5597   5.140   3.436   3.443  0.2906 -0.5614 -1.0928
   67SAPC   H6R 5598   5.055   3.369   3.424  0.3805 -0.4287 -2.0231
   67SAPC   C27 5599   5.176   3.487   3.582  0.2796 -0.0376 -0.1701
   67SAPC   H7R 5600   5.220   3.589   3.569 -0.0736  0.2530  0.8384
   67SAPC   H7S 5601   5.254   3.424   3.629  0.1841  0.0294  0.0815
   67SAPC   C28 5602   5.060   3.506   3.678  0.2027  0.2609 -0.2558
   67SAPC   H8R 5603   4.962   3.504   3.628  0.7788  0.6949 -1.4352
   67SAPC   C29 5604   5.062   3.526   3.807  0.4464 -0.1639 -0.4823
   67SAPC   H9R 5605   4.970   3.518   3.867  0.8452  0.3212  0.2083
   67SAPC  C210 5606   5.191   3.530   3.884 -0.3583 -0.0041  0.5436
   67SAPC  H10R 5607   5.220   3.637   3.886  1.8205 -0.5191 -0.0678
   67SAPC  H10S 5608   5.268   3.465   3.838  0.8244  0.7517  1.3841
   67SAPC  C211 5609   5.172   3.488   4.031  0.7714 -0.0134 -0.1059
   67SAPC  H11R 5610   5.149   3.381   4.035 -0.4767  0.0687 -2.8425
   67SAPC  C212 5611   5.193   3.569   4.138  0.5589  1.2266  1.2452
   67SAPC  H12R 5612   5.179   3.520   4.235  0.1895 -1.2194  0.0415
   67SAPC  C213 5613   5.239   3.712   4.151  1.0287 -0.4366 -0.3581
   67SAPC  H13R 5614   5.288   3.737   4.054  1.8875  0.9314  0.4005
   67SAPC  H13S 5615   5.315   3.719   4.232 -0.7464 -0.9690  1.4332
   67SAPC  C214 5616   5.122   3.802   4.174  0.5650  0.0845  0.0742
   67SAPC  H14R 5617   5.093   3.861   4.086 -2.1271 -0.2679  0.6335
   67SAPC  C215 5618   5.047   3.822   4.283 -0.9255  0.1110  0.3014
   67SAPC  H15R 5619   4.945   3.858   4.268 -2.1041 -2.4176  1.7289
   67SAPC  C216 5620   5.059   3.755   4.423  0.1013 -1.0296  0.3821
   67SAPC  H16R 5621   5.035   3.819   4.510  1.7344 -2.1878  1.7626
   67SAPC  H16S 5622   5.166   3.724   4.430  0.1706 -0.5726  1.5061
   67SAPC  C217 5623   4.965   3.631   4.437 -0.2324 -0.3902  0.7085
   67SAPC  H17R 5624   4.957   3.595   4.542 -0.2101 -1.4488  0.3604
   67SAPC  H17S 5625   5.012   3.546   4.382 -0.7723  0.7620 -1.6489
   67SAPC  C218 5626   4.825   3.660   4.394  0.8706 -0.4168  0.4202
   67SAPC  H18R 5627   4.810   3.711   4.296 -0.4904 -1.1128  0.2401
   67SAPC  H18S 5628   4.786   3.721   4.478 -0.7476  0.1900 -0.7326
   67SAPC  C219 5629   4.737   3.536   4.388 -0.2077 -0.2513  0.2141
   67SAPC  H19R 5630   4.632   3.571   4.376 -0.9984 -2.4931  0.1052
   67SAPC  H19S 5631   4.738   3.491   4.489  0.8182 -0.6355  0.0440
   67SAPC  C220 5632   4.782   3.436   4.279  0.0612  0.5407 -0.0641
   67SAPC  H20R 5633   4.815   3.482   4.184 -1.0380 -0.9735 -1.2158
   67SAPC  H20S 5634   4.696   3.372   4.252  0.4170 -1.0688  2.2919
   67SAPC  H20T 5635   4.862   3.369   4.316 -0.0866 -0.0022 -0.7147
   67SAPC   C33 5636   5.914   3.337   3.512  0.4133  0.1434 -0.5177
   67SAPC   H3X 5637   5.812   3.349   3.470  0.5434 -1.7405 -1.4951
   67SAPC   H3Y 5638   5.984   3.413   3.472  1.4484 -0.2152  0.5367
   67SAPC   C34 5639   5.888   3.359   3.665 -0.3993 -0.4066  0.0071
   67SAPC   H4X 5640   5.958   3.301   3.729 -1.1039  1.0802  2.2346
   67SAPC   H4Y 5641   5.786   3.334   3.701  0.1847  0.6389  2.6166
   67SAPC   C35 5642   5.912   3.492   3.739  0.1509  0.1699  0.1245
   67SAPC   H5X 5643   6.006   3.534   3.697 -0.3044 -0.3530 -1.5128
   67SAPC   H5Y 5644   5.909   3.473   3.848 -0.1360 -2.2687 -0.2637
   67SAPC   C36 5645   5.796   3.593   3.715  0.6143 -0.0888  0.0079
   67SAPC   H6X 5646   5.783   3.606   3.605 -4.1706 -2.3578  0.0092
   67SAPC   H6Y 5647   5.824   3.688   3.764 -0.4192  2.0836 -3.2512
   67SAPC   C37 5648   5.662   3.542   3.764  1.4849  1.3013  0.0484
   67SAPC   H7X 5649   5.671   3.496   3.865  1.8637  3.7825  1.2007
   67SAPC   H7Y 5650   5.625   3.476   3.682 -1.0541  1.4829  0.9444
   67SAPC   C38 5651   5.561   3.655   3.786 -0.0819  0.2762  0.1222
   67SAPC   H8X 5652   5.601   3.730   3.858  1.9219  0.5462 -1.2024
   67SAPC   H8Y 5653   5.467   3.614   3.828 -0.2058  0.5556  0.1264
   67SAPC   C39 5654   5.540   3.726   3.645  0.0777  0.1152 -0.1232
   67SAPC   H9X 5655   5.534   3.649   3.566 -1.6763  1.6320 -1.5802
   67SAPC   H9Y 5656   5.626   3.792   3.619  0.9499 -1.1726 -0.5866
   67SAPC  C310 5657   5.409   3.804   3.649 -0.1275 -0.4475  0.1835
   67SAPC  H10X 5658   5.416   3.869   3.738  0.5424  1.2254 -1.0521
   67SAPC  H10Y 5659   5.319   3.738   3.648 -0.5236  0.0327 -2.3224
   67SAPC  C311 5660   5.386   3.894   3.528  0.4808  0.3165  0.8268
   67SAPC  H11X 5661   5.336   3.829   3.454  0.0447  1.4179  0.1210
   67SAPC  H11Y 5662   5.484   3.925   3.486 -0.2350 -1.0318 -2.1001
   67SAPC  C312 5663   5.309   4.021   3.559 -0.1346  0.4651 -0.5659
   67SAPC  H12X 5664   5.318   4.096   3.477 -0.6350  0.4122 -0.6741
   67SAPC  H12Y 5665   5.360   4.058   3.651  0.8883 -3.2651  0.5287
   67SAPC  C313 5666   5.166   3.994   3.581  0.4045 -0.1377  0.0348
   67SAPC  H13X 5667   5.141   3.899   3.633 -0.2088 -1.6846 -2.8761
   67SAPC  H13Y 5668   5.126   3.968   3.481 -0.1616  0.2023  0.1695
   67SAPC  C314 5669   5.084   4.112   3.636  0.2291  0.7159  0.1043
   67SAPC  H14X 5670   4.973   4.115   3.626  0.3139  1.1074 -0.8276
   67SAPC  H14Y 5671   5.129   4.201   3.588  1.0558  0.8399  1.0789
   67SAPC  C315 5672   5.107   4.133   3.785  0.0609 -0.4800 -0.0950
   67SAPC  H15X 5673   5.214   4.161   3.793 -0.3042  1.2204 -0.7142
   67SAPC  H15Y 5674   5.087   4.035   3.834  0.7246 -0.3599  0.4290
   67SAPC  C316 5675   5.005   4.231   3.846  0.3143 -0.1692 -0.0401
   67SAPC  H16X 5676   4.910   4.184   3.878 -0.7317  1.2263 -1.0154
   67SAPC  H16Y 5677   4.988   4.309   3.769  2.1488  0.4498  0.1268
   67SAPC  C317 5678   5.070   4.309   3.973 -0.4493 -0.2521  0.4197
   67SAPC  H17X 5679   5.176   4.332   3.949  0.0641 -0.3463  2.4295
   67SAPC  H17Y 5680   5.077   4.237   4.056  4.6466 -1.4978 -0.7355
   67SAPC  C318 5681   5.000   4.443   4.012  1.1176 -0.0837  0.6367
   67SAPC  H18X 5682   5.018   4.526   3.940  0.1541 -0.1056  0.3538
   67SAPC  H18Y 5683   5.032   4.485   4.110  0.3611  1.1134  0.4023
   67SAPC  H18Z 5684   4.891   4.423   4.006  1.1514 -0.1091 -0.0124
   68SAPC     N 5685   1.641   2.814   2.132 -0.2049  0.0114  0.3127
   68SAPC   C12 5686   1.616   2.941   2.206  0.3222  0.3815  0.3909
   68SAPC  H12A 5687   1.517   2.929   2.247  0.3828  3.7077  1.8443
   68SAPC  H12B 5688   1.589   3.017   2.133 -1.3723 -0.6716 -0.1419
   68SAPC   C13 5689   1.529   2.777   2.039 -0.5982  0.3251  0.1497
   68SAPC  H13A 5690   1.524   2.835   1.948  0.9723  0.4952  0.1426
   68SAPC  H13B 5691   1.539   2.672   2.014 -1.4077  0.6280 -1.6394
   68SAPC  H13C 5692   1.441   2.772   2.101  0.7192 -0.2684  2.0368
   68SAPC   C14 5693   1.768   2.833   2.046 -0.1530  0.0939 -0.5767
   68SAPC  H14A 5694   1.802   2.749   1.988 -0.8187  0.3944 -1.4219
   68SAPC  H14B 5695   1.763   2.909   1.970 -0.2420 -0.7879 -1.4652
   68SAPC  H14C 5696   1.849   2.860   2.113 -0.8758 -2.8310  1.6787
   68SAPC   C15 5697   1.663   2.692   2.220  0.0691 -1.6458 -0.5059
   68SAPC  H15A 5698   1.590   2.678   2.298 -0.2760  0.2633 -0.4347
   68SAPC  H15B 5699   1.676   2.606   2.156  2.1481  0.4380 -3.1210
   68SAPC  H15C 5700   1.759   2.702   2.269 -0.6770  1.1344  0.5870
   68SAPC   C11 5701   1.708   2.996   2.315 -0.2853  0.8200  0.2314
   68SAPC  H11A 5702   1.722   2.921   2.395 -0.3427  2.3765  1.7514
   68SAPC  H11B 5703   1.660   3.077   2.373 -1.6744 -0.5413  1.0612
   68SAPC     P 5704   1.874   3.172   2.212  0.3022  0.4923 -0.2480
   68SAPC   O13 5705   2.018   3.175   2.184  0.0824 -0.0845  0.0652
   68SAPC   O14 5706   1.780   3.195   2.099 -0.5701  0.8348  0.1318
   68SAPC   O12 5707   1.839   3.027   2.268 -0.2535  0.4602  0.4054
   68SAPC   O11 5708   1.835   3.273   2.324 -0.3684  0.2475 -0.5894
   68SAPC    C1 5709   1.949   3.322   2.407 -0.4990 -0.1446  0.6037
   68SAPC    HA 5710   2.037   3.353   2.346 -2.8257  2.6120 -1.6611
   68SAPC    HB 5711   1.923   3.421   2.449  1.1688  1.1823 -1.2942
   68SAPC    C2 5712   1.971   3.224   2.526  0.0336  0.5217  0.1340
   68SAPC    HS 5713   2.023   3.132   2.494 -0.1421  0.3016  0.4743
   68SAPC   O21 5714   1.848   3.203   2.588 -0.0727 -0.3065  0.4607
   68SAPC   C21 5715   1.803   3.087   2.632 -0.8755  0.7826 -0.4639
   68SAPC   O22 5716   1.864   2.982   2.631  0.1265 -0.3511 -0.3951
   68SAPC   C22 5717   1.662   3.099   2.692 -0.2523 -0.3602  0.0840
   68SAPC   H2R 5718   1.654   3.199   2.740  0.1221 -0.0198 -0.5526
   68SAPC   H2S 5719   1.591   3.088   2.607  0.6076 -0.5534 -0.6260
   68SAPC    C3 5720   2.070   3.271   2.633 -0.3341 -0.7843 -0.6217
   68SAPC    HX 5721   2.033   3.370   2.669 -1.6658 -0.9492 -1.4544
   68SAPC    HY 5722   2.168   3.287   2.583 -0.2651  0.1943 -0.1985
   68SAPC   O31 5723   2.082   3.180   2.749 -0.2970  0.1361  0.5138
   68SAPC   C31 5724   2.163   3.073   2.728 -0.7285 -0.6579  0.2748
   68SAPC   O32 5725   2.221   3.050   2.624 -0.5364  0.1639  0.4379
   68SAPC   C32 5726   2.170   2.984   2.859 -0.6367 -0.3266 -0.1305
   68SAPC   H2X 5727   2.230   2.895   2.829  1.3267  0.8461  0.1026
   68SAPC   H2Y 5728   2.063   2.960   2.872 -1.0356  0.5339 -1.5839
   68SAPC   C23 5729   1.622   2.980   2.785 -0.3874 -0.3634  0.1983
   68SAPC   H3R 5730   1.670   2.889   2.743  1.9840  2.0629 -2.7381
   68SAPC   H3S 5731   1.511   2.981   2.782 -0.3813 -1.3063 -2.6922
   68SAPC   C24 5732   1.654   3.005   2.930 -0.2184 -0.1161 -0.5412
   68SAPC   H4R 5733   1.611   3.103   2.958 -0.1570 -0.0019 -0.8455
   68SAPC   H4S 5734   1.763   3.019   2.939  0.4120 -2.0488 -3.5829
   68SAPC   C25 5735   1.622   2.885   3.016  0.0435 -0.0732  0.4168
   68SAPC   H5R 5736   1.633   2.784   2.973 -0.1190 -0.6938  1.7798
   68SAPC   C26 5737   1.581   2.888   3.144  0.0704 -0.1459 -0.3349
   68SAPC   H6R 5738   1.555   2.793   3.192  0.0510  0.3880  0.7464
   68SAPC   C27 5739   1.551   3.010   3.226  0.6239  0.3551  0.5198
   68SAPC   H7R 5740   1.448   2.999   3.267  0.8661  2.8726  1.9871
   68SAPC   H7S 5741   1.553   3.100   3.161 -1.4750 -0.5894 -0.9526
   68SAPC   C28 5742   1.655   3.025   3.335 -0.1595 -0.7421  0.1202
   68SAPC   H8R 5743   1.746   3.080   3.306 -1.8268  2.1090 -0.0839
   68SAPC   C29 5744   1.642   2.987   3.466 -0.3013 -0.4137  0.2180
   68SAPC   H9R 5745   1.719   3.009   3.542 -0.1419 -2.3583  0.6642
   68SAPC  C210 5746   1.530   2.912   3.541 -0.1071 -0.4182  0.2900
   68SAPC  H10R 5747   1.573   2.832   3.605 -0.5116 -0.6273  0.2980
   68SAPC  H10S 5748   1.455   2.861   3.477 -0.5943 -0.9926  1.3011
   68SAPC  C211 5749   1.465   3.019   3.630 -0.0167  0.6465  0.3477
   68SAPC  H11R 5750   1.488   3.126   3.622  0.2798  0.6848  1.4403
   68SAPC  C212 5751   1.393   2.981   3.744 -0.3368  0.1307 -0.2129
   68SAPC  H12R 5752   1.368   3.059   3.817 -1.6509 -0.5754  0.1181
   68SAPC  C213 5753   1.355   2.840   3.777  0.0486 -0.2342  1.3010
   68SAPC  H13R 5754   1.426   2.810   3.857 -0.7220 -3.2370  1.0097
   68SAPC  H13S 5755   1.369   2.766   3.696  1.2756  2.1806 -0.8117
   68SAPC  C214 5756   1.210   2.837   3.812 -0.5306 -0.5937 -0.0475
   68SAPC  H14R 5757   1.142   2.834   3.726  0.4073  1.1979 -0.9157
   68SAPC  C215 5758   1.156   2.835   3.934  0.2432  0.7438  1.0982
   68SAPC  H15R 5759   1.046   2.846   3.939  0.0270 -0.4229 -0.2633
   68SAPC  C216 5760   1.215   2.841   4.071 -0.0082 -0.1141 -1.0463
   68SAPC  H16R 5761   1.325   2.826   4.066 -0.0934 -1.8890  0.8035
   68SAPC  H16S 5762   1.179   2.764   4.144 -1.3930  1.9674  0.5914
   68SAPC  C217 5763   1.213   2.982   4.132 -0.0468 -0.2100  0.6244
   68SAPC  H17R 5764   1.112   3.014   4.166 -0.6166 -0.5941 -0.6351
   68SAPC  H17S 5765   1.251   3.061   4.064  0.5999  0.3929  1.6575
   68SAPC  C218 5766   1.294   2.991   4.265 -0.9931  0.9592 -0.1119
   68SAPC  H18R 5767   1.285   3.094   4.306 -0.6530  0.6990  0.6406
   68SAPC  H18S 5768   1.398   2.972   4.230 -1.2890 -1.2018  0.0558
   68SAPC  C219 5769   1.260   2.881   4.375 -0.1193 -0.4874 -0.2119
   68SAPC  H19R 5770   1.271   2.782   4.325  0.2495 -0.0469 -1.0277
   68SAPC  H19S 5771   1.156   2.899   4.407 -0.2793 -2.2389  0.3477
   68SAPC  C220 5772   1.354   2.888   4.495  0.0728 -0.4292 -0.7702
   68SAPC  H20R 5773   1.451   2.838   4.473  0.5870  0.7268 -1.2166
   68SAPC  H20S 5774   1.296   2.838   4.575 -0.8303  1.1231 -0.4195
   68SAPC  H20T 5775   1.376   2.991   4.530 -0.5290 -0.6091  0.1714
   68SAPC   C33 5776   2.232   3.062   2.977 -0.4644  0.3724  0.3372
   68SAPC   H3X 5777   2.187   3.163   2.975  1.2098  1.1674  0.4954
   68SAPC   H3Y 5778   2.339   3.085   2.956 -0.4756 -0.6798 -0.9900
   68SAPC   C34 5779   2.208   2.996   3.103  0.0226 -0.0565  0.3754
   68SAPC   H4X 5780   2.249   2.893   3.109  0.3912  0.0685  0.0153
   68SAPC   H4Y 5781   2.097   2.989   3.106 -0.0333 -0.9294 -1.6639
   68SAPC   C35 5782   2.230   3.086   3.224 -1.1737 -0.0297  0.6059
   68SAPC   H5X 5783   2.171   3.180   3.218  0.9461  1.4745  1.9610
   68SAPC   H5Y 5784   2.339   3.106   3.233 -0.4885 -1.0362 -3.5656
   68SAPC   C36 5785   2.170   3.027   3.348  0.2516 -0.5518  0.1856
   68SAPC   H6X 5786   2.212   2.924   3.358 -3.6588 -2.2306  1.4642
   68SAPC   H6Y 5787   2.060   3.014   3.335  0.3411 -1.6880  0.4720
   68SAPC   C37 5788   2.208   3.112   3.468  0.5819  0.0417 -0.0410
   68SAPC   H7X 5789   2.159   3.211   3.467 -1.2868 -0.7896  1.9730
   68SAPC   H7Y 5790   2.319   3.125   3.469  0.5623  0.6759  3.1512
   68SAPC   C38 5791   2.174   3.035   3.591  0.6558 -0.2364  0.7115
   68SAPC   H8X 5792   2.208   3.087   3.683 -1.6359 -0.8967  2.0151
   68SAPC   H8Y 5793   2.231   2.939   3.596  0.9122 -0.0754  0.9532
   68SAPC   C39 5794   2.025   3.008   3.602 -0.1794  0.0696  0.4397
   68SAPC   H9X 5795   1.998   2.941   3.517  2.0221  0.3478 -0.5220
   68SAPC   H9Y 5796   1.978   3.106   3.576  0.9658  0.1393 -1.4884
   68SAPC  C310 5797   1.963   2.951   3.733 -1.0428  0.4680  1.5099
   68SAPC  H10X 5798   1.853   2.966   3.727 -1.4136 -1.9509  0.9907
   68SAPC  H10Y 5799   1.999   3.002   3.824  1.9088 -0.1053  0.7586
   68SAPC  C311 5800   1.989   2.803   3.751 -1.0062 -0.6870 -0.0349
   68SAPC  H11X 5801   2.099   2.791   3.764 -0.8407  0.9309  0.1920
   68SAPC  H11Y 5802   1.971   2.757   3.651  1.3693  0.4140 -1.0473
   68SAPC  C312 5803   1.911   2.724   3.858 -0.3464 -0.0925  0.2582
   68SAPC  H12X 5804   1.817   2.685   3.813  0.4276 -1.0230 -0.6220
   68SAPC  H12Y 5805   1.888   2.791   3.944 -2.0546  1.4720 -1.3196
   68SAPC  C313 5806   1.984   2.592   3.899  0.1171 -0.4682 -0.4429
   68SAPC  H13X 5807   2.085   2.618   3.939 -0.7848  0.9595  1.0244
   68SAPC  H13Y 5808   2.005   2.534   3.806  1.3471  0.2388 -0.6368
   68SAPC  C314 5809   1.891   2.516   3.990  0.2340  0.0657  0.4722
   68SAPC  H14X 5810   1.794   2.493   3.939 -0.0659  2.5525 -0.2132
   68SAPC  H14Y 5811   1.861   2.576   4.079 -1.6234 -1.8407  1.2223
   68SAPC  C315 5812   1.941   2.381   4.048  0.1017  0.2422 -0.4579
   68SAPC  H15X 5813   1.879   2.331   4.125 -2.1265  3.1395 -0.1770
   68SAPC  H15Y 5814   2.034   2.400   4.105  0.2979  1.0366 -1.0222
   68SAPC  C316 5815   1.959   2.263   3.944  0.1052 -0.8752  0.2924
   68SAPC  H16X 5816   1.982   2.179   4.012  1.0384  1.3071  2.8381
   68SAPC  H16Y 5817   2.035   2.285   3.866 -0.7094  1.3000  0.0449
   68SAPC  C317 5818   1.827   2.229   3.869 -0.4906  0.1448 -0.4699
   68SAPC  H17X 5819   1.804   2.318   3.807  1.0112 -0.3985 -1.8929
   68SAPC  H17Y 5820   1.747   2.214   3.944  1.1824  0.5111  1.4853
   68SAPC  C318 5821   1.827   2.108   3.771  0.1723  0.8426 -0.6648
   68SAPC  H18X 5822   1.841   2.011   3.824  1.1116  1.3597  0.0777
   68SAPC  H18Y 5823   1.914   2.130   3.706 -0.5337  1.2822 -1.4719
   68SAPC  H18Z 5824   1.729   2.111   3.720 -1.1914 -0.9197  1.6438
   69SAPC     N 5825   1.054   5.664   2.104  0.1661  0.4066 -0.2898
   69SAPC   C12 5826   0.981   5.660   2.243 -1.0236 -0.7926  0.1641
   69SAPC  H12A 5827   1.018   5.736   2.309 -1.5116 -0.8423  0.4983
   69SAPC  H12B 5828   1.014   5.577   2.303 -2.9006  0.7591  3.6335
   69SAPC   C13 5829   1.012   5.789   2.034  0.0909 -0.5072  0.0750
   69SAPC  H13A 5830   1.053   5.880   2.075  0.9157 -1.1706  0.7844
   69SAPC  H13B 5831   1.055   5.793   1.935 -0.0974  0.6048  0.0313
   69SAPC  H13C 5832   0.907   5.814   2.040  0.5033  1.5339 -0.4075
   69SAPC   C14 5833   1.198   5.665   2.115  0.0475 -0.2574  0.0350
   69SAPC  H14A 5834   1.237   5.596   2.188 -0.8705  0.9398  1.7033
   69SAPC  H14B 5835   1.244   5.635   2.022  0.6650 -0.6317  0.4563
   69SAPC  H14C 5836   1.241   5.759   2.144  0.0973 -0.0706 -0.6198
   69SAPC   C15 5837   1.014   5.552   2.020  0.6223  0.0200 -0.0705
   69SAPC  H15A 5838   1.063   5.559   1.924 -0.3588  3.5589 -0.4499
   69SAPC  H15B 5839   1.030   5.455   2.065 -0.8191 -0.0327  0.3751
   69SAPC  H15C 5840   0.908   5.547   2.003  0.9241 -0.3177 -2.0232
   69SAPC   C11 5841   0.829   5.664   2.242  0.3830  0.2021  0.3339
   69SAPC  H11A 5842   0.803   5.623   2.342  1.8275  0.9793  1.0644
   69SAPC  H11B 5843   0.801   5.601   2.155 -0.4872  0.5384  0.3540
   69SAPC     P 5844   0.652   5.851   2.282  0.0383 -0.2233  0.0653
   69SAPC   O13 5845   0.570   5.936   2.190 -0.3675 -0.1605  0.2350
   69SAPC   O14 5846   0.583   5.745   2.345 -0.3123  0.5018  0.0316
   69SAPC   O12 5847   0.778   5.797   2.216 -0.1389 -0.2045 -0.0036
   69SAPC   O11 5848   0.705   5.957   2.393  0.5292  0.4063  0.2369
   69SAPC    C1 5849   0.836   6.007   2.403  0.4202  0.0745  0.5503
   69SAPC    HA 5850   0.893   5.999   2.308  0.2172  0.4354  0.3926
   69SAPC    HB 5851   0.834   6.116   2.426 -1.9715 -0.1968  1.9488
   69SAPC    C2 5852   0.933   5.937   2.512 -0.8365  0.0231 -0.3703
   69SAPC    HS 5853   0.923   5.831   2.482  0.0857 -0.9166  2.3984
   69SAPC   O21 5854   0.874   5.968   2.639  0.3083  0.4359  0.5141
   69SAPC   C21 5855   0.884   5.866   2.734 -0.1751 -0.2477 -0.2732
   69SAPC   O22 5856   0.897   5.753   2.700 -0.2734 -0.2275 -0.5031
   69SAPC   C22 5857   0.874   5.912   2.883 -0.6452 -0.0176  0.3268
   69SAPC   H2R 5858   0.969   5.970   2.894 -0.2658  0.2911 -3.2797
   69SAPC   H2S 5859   0.783   5.976   2.879 -1.9773 -1.8827 -0.4553
   69SAPC    C3 5860   1.085   5.980   2.496 -0.0588  0.0762  0.2550
   69SAPC    HX 5861   1.075   6.090   2.514  1.3728  0.0919  1.1047
   69SAPC    HY 5862   1.114   5.970   2.389  1.0786  2.4523  0.2709
   69SAPC   O31 5863   1.179   5.919   2.585 -0.1063  0.0384  0.1660
   69SAPC   C31 5864   1.215   5.795   2.554 -0.9586 -0.3497  0.1282
   69SAPC   O32 5865   1.185   5.731   2.455  0.2658 -0.1716 -0.6977
   69SAPC   C32 5866   1.308   5.738   2.664  0.0610 -0.1764 -0.4160
   69SAPC   H2X 5867   1.300   5.813   2.746  1.9082  1.0379 -1.2795
   69SAPC   H2Y 5868   1.409   5.752   2.619 -0.8756 -1.3366 -3.0908
   69SAPC   C23 5869   0.857   5.789   2.987  0.5450  0.1396 -0.3290
   69SAPC   H3R 5870   0.953   5.735   2.978  0.7928  0.4997  0.1227
   69SAPC   H3S 5871   0.772   5.725   2.952  0.4132 -0.7410  1.5021
   69SAPC   C24 5872   0.838   5.844   3.135 -0.1849  0.3366  0.2390
   69SAPC   H4R 5873   0.732   5.869   3.154  0.0736  2.1834 -0.5972
   69SAPC   H4S 5874   0.886   5.944   3.135  1.3817 -0.3383 -1.5549
   69SAPC   C25 5875   0.908   5.761   3.239  0.6299 -0.3697  0.4037
   69SAPC   H5R 5876   1.016   5.760   3.220  0.4713 -1.2015 -0.5442
   69SAPC   C26 5877   0.854   5.705   3.349  0.6662 -0.2708  0.4685
   69SAPC   H6R 5878   0.917   5.650   3.420  0.3131 -0.0696  0.9417
   69SAPC   C27 5879   0.714   5.731   3.405  0.3461 -0.7061 -0.7843
   69SAPC   H7R 5880   0.658   5.637   3.384  0.3650 -0.2567 -2.9887
   69SAPC   H7S 5881   0.662   5.806   3.342  0.5305 -0.2860 -0.4415
   69SAPC   C28 5882   0.707   5.786   3.543 -0.3282  0.1231  1.5141
   69SAPC   H8R 5883   0.749   5.885   3.568  2.7616 -1.1202  1.6723
   69SAPC   C29 5884   0.653   5.711   3.644 -0.1893 -0.3186  0.0306
   69SAPC   H9R 5885   0.671   5.756   3.742 -0.0865  1.6955 -0.8605
   69SAPC  C210 5886   0.601   5.569   3.631 -0.4437  0.2600  0.5328
   69SAPC  H10R 5887   0.692   5.505   3.633 -0.8990 -0.4089  2.3638
   69SAPC  H10S 5888   0.552   5.546   3.534 -1.0119  0.4251  0.7749
   69SAPC  C211 5889   0.509   5.557   3.749 -0.2262 -1.0073  0.4825
   69SAPC  H11R 5890   0.408   5.584   3.714  0.4255  0.4094 -0.4155
   69SAPC  C212 5891   0.531   5.530   3.877 -0.5218  0.4383 -0.2821
   69SAPC  H12R 5892   0.454   5.533   3.956 -1.1250  1.0702 -0.8667
   69SAPC  C213 5893   0.671   5.499   3.928  0.3965 -0.3314 -0.1848
   69SAPC  H13R 5894   0.707   5.579   3.997 -0.6878  1.0881 -1.2009
   69SAPC  H13S 5895   0.737   5.484   3.840  0.7040 -0.7240  0.1130
   69SAPC  C214 5896   0.667   5.367   4.001  0.1781  0.8182 -0.3639
   69SAPC  H14R 5897   0.674   5.277   3.938  2.6734  0.2949  0.5110
   69SAPC  C215 5898   0.643   5.347   4.133 -0.2385  0.7582 -0.4936
   69SAPC  H15R 5899   0.654   5.247   4.177 -3.1257  1.1645  1.4614
   69SAPC  C216 5900   0.640   5.448   4.238  0.5216 -0.4592  0.7786
   69SAPC  H16R 5901   0.544   5.435   4.292  0.8122 -3.4168  0.7470
   69SAPC  H16S 5902   0.633   5.549   4.192  1.4017 -0.9208 -0.4295
   69SAPC  C217 5903   0.752   5.442   4.344 -0.1521 -0.1832 -0.4390
   69SAPC  H17R 5904   0.709   5.512   4.419 -0.1657 -1.4037  0.7363
   69SAPC  H17S 5905   0.855   5.475   4.319 -0.5387  1.6365  0.2370
   69SAPC  C218 5906   0.759   5.320   4.427  0.2703 -0.1281 -0.2952
   69SAPC  H18R 5907   0.812   5.243   4.366  0.4370 -1.1773  1.1200
   69SAPC  H18S 5908   0.656   5.280   4.437 -0.0403  0.3943 -1.3163
   69SAPC  C219 5909   0.817   5.322   4.568 -0.1336  0.1985  0.4907
   69SAPC  H19R 5910   0.744   5.367   4.640  0.1821 -1.0180  1.6038
   69SAPC  H19S 5911   0.909   5.383   4.576 -0.2198  0.2308  1.3955
   69SAPC  C220 5912   0.844   5.179   4.608 -0.4999 -0.5430  0.6630
   69SAPC  H20R 5913   0.748   5.124   4.595  0.3339 -1.6636 -1.1164
   69SAPC  H20S 5914   0.875   5.172   4.715 -0.9854  1.3244  0.9592
   69SAPC  H20T 5915   0.917   5.119   4.549 -0.6580 -0.0099 -0.0899
   69SAPC   C33 5916   1.276   5.591   2.697 -0.1699  0.4434 -0.4374
   69SAPC   H3X 5917   1.339   5.542   2.620  1.8899 -0.2292  1.5716
   69SAPC   H3Y 5918   1.169   5.567   2.676  0.1868 -0.9905 -0.7179
   69SAPC   C34 5919   1.329   5.546   2.830 -0.3966  0.3292 -0.7525
   69SAPC   H4X 5920   1.429   5.591   2.844  0.3482 -0.9898 -1.5580
   69SAPC   H4Y 5921   1.351   5.437   2.829 -1.7256  0.0140  0.7349
   69SAPC   C35 5922   1.236   5.584   2.940  0.2192  0.4289 -0.8614
   69SAPC   H5X 5923   1.134   5.546   2.918 -0.0926 -0.2388  1.4832
   69SAPC   H5Y 5924   1.235   5.695   2.948  1.6058  0.3468  1.9693
   69SAPC   C36 5925   1.282   5.521   3.075  0.8006 -1.0372  0.4213
   69SAPC   H6X 5926   1.392   5.525   3.082  1.0138 -2.7045 -1.1993
   69SAPC   H6Y 5927   1.261   5.412   3.071 -1.1610 -0.6601 -0.9023
   69SAPC   C37 5928   1.224   5.575   3.200 -0.2779  0.0062 -0.4541
   69SAPC   H7X 5929   1.121   5.534   3.211  1.1213 -3.3995  1.4338
   69SAPC   H7Y 5930   1.234   5.686   3.199 -0.2336  0.0560  1.6206
   69SAPC   C38 5931   1.303   5.516   3.330  0.6650 -0.3677  0.0137
   69SAPC   H8X 5932   1.412   5.537   3.317  0.2379  1.0336 -1.7371
   69SAPC   H8Y 5933   1.298   5.406   3.316 -0.0860 -0.5971  1.7159
   69SAPC   C39 5934   1.256   5.561   3.468 -0.4431  0.1029  0.8022
   69SAPC   H9X 5935   1.181   5.486   3.500  0.9948 -0.3122  3.5238
   69SAPC   H9Y 5936   1.204   5.659   3.469 -0.7529 -0.0537  2.4696
   69SAPC  C310 5937   1.363   5.555   3.573  0.2532 -0.0466  0.2683
   69SAPC  H10X 5938   1.435   5.639   3.559  0.5179 -0.0469  1.5466
   69SAPC  H10Y 5939   1.420   5.461   3.583  1.8127  0.8039 -0.3782
   69SAPC  C311 5940   1.290   5.564   3.710  0.8879 -0.4818 -0.1565
   69SAPC  H11X 5941   1.211   5.486   3.703 -0.5788  1.0052 -0.9459
   69SAPC  H11Y 5942   1.235   5.658   3.729  1.3028 -0.6136  1.9275
   69SAPC  C312 5943   1.377   5.527   3.833 -0.1573 -0.0497 -0.3509
   69SAPC  H12X 5944   1.466   5.591   3.843 -0.2407  0.1325 -0.7860
   69SAPC  H12Y 5945   1.414   5.427   3.803 -1.3110 -1.1534  1.6440
   69SAPC  C313 5946   1.307   5.534   3.971 -0.5073 -0.2997  0.2436
   69SAPC  H13X 5947   1.213   5.476   3.977 -0.4599 -0.3075  1.0559
   69SAPC  H13Y 5948   1.284   5.642   3.986  1.1992  0.5044 -2.2517
   69SAPC  C314 5949   1.397   5.495   4.102  0.2979 -0.0844  0.5714
   69SAPC  H14X 5950   1.493   5.550   4.107 -1.4293  3.2532  0.0556
   69SAPC  H14Y 5951   1.406   5.387   4.080 -0.4161  0.1328 -0.9206
   69SAPC  C315 5952   1.312   5.513   4.236  0.9121 -0.4366  0.6013
   69SAPC  H15X 5953   1.234   5.434   4.234 -0.9846  1.2828  2.2468
   69SAPC  H15Y 5954   1.266   5.614   4.239  0.7522 -0.5311  1.6310
   69SAPC  C316 5955   1.391   5.463   4.365 -0.7084 -0.7290  0.0140
   69SAPC  H16X 5956   1.473   5.535   4.383 -0.7787 -0.3074 -1.2732
   69SAPC  H16Y 5957   1.427   5.360   4.340 -3.8711 -1.6581 -1.2559
   69SAPC  C317 5958   1.306   5.432   4.486 -0.0028  0.2816 -0.3821
   69SAPC  H17X 5959   1.379   5.370   4.542 -0.5515  0.3976  0.4711
   69SAPC  H17Y 5960   1.211   5.379   4.463 -0.5958  0.7024  1.0013
   69SAPC  C318 5961   1.276   5.553   4.577 -0.0855 -0.0386  0.6919
   69SAPC  H18X 5962   1.204   5.624   4.530  0.8743  0.5777  0.1017
   69SAPC  H18Y 5963   1.365   5.607   4.615 -0.6928  0.9387  0.7633
   69SAPC  H18Z 5964   1.225   5.514   4.668  0.3110  0.1941  1.0160
   70SAPC     N 5965   1.550   2.096   2.418 -0.0280  0.3784 -0.1564
   70SAPC   C12 5966   1.440   2.044   2.512 -0.0495  0.0041  0.3407
   70SAPC  H12A 5967   1.473   1.954   2.562 -0.6901  0.1780  1.0928
   70SAPC  H12B 5968   1.355   2.020   2.450 -1.5126  1.2364  1.7817
   70SAPC   C13 5969   1.671   2.141   2.506 -0.6671 -0.1360 -0.1524
   70SAPC  H13A 5970   1.741   2.200   2.449 -0.4074  2.3114  2.4830
   70SAPC  H13B 5971   1.643   2.190   2.598  1.5607 -1.0672  1.0822
   70SAPC  H13C 5972   1.721   2.054   2.546 -0.2660  0.8216  1.4982
   70SAPC   C14 5973   1.603   1.984   2.325 -0.1715 -0.1086 -0.1757
   70SAPC  H14A 5974   1.672   2.030   2.256 -0.9229  0.6332 -0.4624
   70SAPC  H14B 5975   1.654   1.909   2.382  0.9653  0.3981 -0.5088
   70SAPC  H14C 5976   1.531   1.930   2.264  0.8012  0.1593 -1.6187
   70SAPC   C15 5977   1.489   2.206   2.328  0.3589 -0.6202  0.1274
   70SAPC  H15A 5978   1.423   2.169   2.251  0.1790  2.1833 -1.2251
   70SAPC  H15B 5979   1.431   2.272   2.390  0.6095  0.7619 -1.0450
   70SAPC  H15C 5980   1.561   2.270   2.278 -2.3022 -0.8224 -4.5941
   70SAPC   C11 5981   1.378   2.148   2.607  0.2511  0.0859 -0.4046
   70SAPC  H11A 5982   1.462   2.213   2.640 -0.5475 -0.2981  2.5990
   70SAPC  H11B 5983   1.329   2.101   2.695 -0.2878 -0.5486 -1.0336
   70SAPC     P 5984   1.154   2.167   2.479 -0.1504  0.0143 -0.2798
   70SAPC   O13 5985   1.139   2.220   2.344 -0.6195 -0.2032 -0.9638
   70SAPC   O14 5986   1.159   2.020   2.488  0.2171  0.1643 -0.3926
   70SAPC   O12 5987   1.278   2.235   2.541 -0.0812  0.2839  0.0955
   70SAPC   O11 5988   1.029   2.218   2.565 -0.0735  0.3100 -0.2493
   70SAPC    C1 5989   1.019   2.358   2.602 -0.2519 -0.5966 -0.0816
   70SAPC    HA 5990   1.096   2.424   2.556 -1.5110  1.1495  0.2446
   70SAPC    HB 5991   0.924   2.385   2.553  0.0881  0.4708 -0.1778
   70SAPC    C2 5992   0.991   2.391   2.751  0.1632  0.1083 -0.3587
   70SAPC    HS 5993   0.979   2.501   2.759 -1.1209 -0.0395  0.0332
   70SAPC   O21 5994   1.089   2.335   2.844  0.0122 -0.2922  0.5068
   70SAPC   C21 5995   1.217   2.378   2.829 -0.1236  0.2726 -0.4234
   70SAPC   O22 5996   1.253   2.469   2.759  0.4806 -0.1676  0.2736
   70SAPC   C22 5997   1.310   2.292   2.915 -1.2030  0.8430  0.3404
   70SAPC   H2R 5998   1.274   2.307   3.018  1.2082 -0.3072  1.4338
   70SAPC   H2S 5999   1.286   2.185   2.894  1.3919  0.5855 -1.8320
   70SAPC    C3 6000   0.847   2.342   2.780 -0.0820 -0.4270 -0.2661
   70SAPC    HX 6001   0.861   2.233   2.794  2.3528 -0.2613 -0.8567
   70SAPC    HY 6002   0.782   2.348   2.690  1.4552  1.7126 -1.3474
   70SAPC   O31 6003   0.795   2.397   2.899 -0.0489 -0.0892  0.0699
   70SAPC   C31 6004   0.717   2.505   2.875 -0.3657 -1.3104 -0.2571
   70SAPC   O32 6005   0.677   2.551   2.771 -0.7301  0.5781  0.0342
   70SAPC   C32 6006   0.695   2.578   3.005  0.4547  0.6255  0.2181
   70SAPC   H2X 6007   0.744   2.678   2.998  0.7421  0.4502 -0.3410
   70SAPC   H2Y 6008   0.729   2.520   3.093  1.0924  1.9379  0.8591
   70SAPC   C23 6009   1.459   2.335   2.909  0.4343 -0.8525  0.0903
   70SAPC   H3R 6010   1.480   2.353   2.801  2.4351 -4.5472 -0.3253
   70SAPC   H3S 6011   1.525   2.248   2.931  0.4460 -0.9522 -0.3201
   70SAPC   C24 6012   1.484   2.472   2.984 -0.6484  0.9032  0.1935
   70SAPC   H4R 6013   1.407   2.552   2.971 -0.0386  1.9550  2.4601
   70SAPC   H4S 6014   1.579   2.523   2.957 -0.1003  0.0751  0.5435
   70SAPC   C25 6015   1.492   2.435   3.135 -0.0818 -0.2793 -0.1550
   70SAPC   H5R 6016   1.570   2.364   3.166  1.1935  1.3892  0.5983
   70SAPC   C26 6017   1.410   2.478   3.239 -0.0535  0.4520  0.4351
   70SAPC   H6R 6018   1.411   2.436   3.340 -0.7650 -0.7818 -0.0469
   70SAPC   C27 6019   1.308   2.590   3.213 -0.7472 -0.1207 -0.2285
   70SAPC   H7R 6020   1.367   2.674   3.171 -0.3084  0.3807  1.3423
   70SAPC   H7S 6021   1.262   2.628   3.306  0.2947 -0.8997  0.6261
   70SAPC   C28 6022   1.187   2.591   3.122 -0.6653  0.1862  0.5064
   70SAPC   H8R 6023   1.193   2.655   3.033 -0.6588 -3.7133 -2.5741
   70SAPC   C29 6024   1.075   2.519   3.135 -0.3327 -0.3054  0.3339
   70SAPC   H9R 6025   1.002   2.510   3.054 -1.5795 -1.7109  1.5715
   70SAPC  C210 6026   1.044   2.424   3.246 -0.8264  0.3038  0.2980
   70SAPC  H10R 6027   1.139   2.381   3.284 -0.8298 -2.2610 -2.3352
   70SAPC  H10S 6028   0.996   2.336   3.198 -0.9845  0.9663 -0.7836
   70SAPC  C211 6029   0.965   2.486   3.350 -0.7637 -0.4050 -0.4428
   70SAPC  H11R 6030   0.873   2.532   3.312 -0.6679 -0.4216 -0.7000
   70SAPC  C212 6031   0.994   2.506   3.478  0.0841  0.4566  0.1044
   70SAPC  H12R 6032   0.919   2.564   3.532  0.5726  0.5060  0.7344
   70SAPC  C213 6033   1.116   2.458   3.549 -0.0702 -0.5130  0.7099
   70SAPC  H13R 6034   1.200   2.487   3.482  1.4802 -0.9955  2.3780
   70SAPC  H13S 6035   1.094   2.349   3.553 -0.0395 -0.5907 -0.7336
   70SAPC  C214 6036   1.141   2.524   3.684  0.5397 -0.4717  0.8132
   70SAPC  H14R 6037   1.230   2.587   3.668  0.2374 -0.3232 -0.3762
   70SAPC  C215 6038   1.055   2.520   3.789 -0.3522 -0.7346  0.2200
   70SAPC  H15R 6039   1.080   2.589   3.872  0.7460  0.8329 -1.3137
   70SAPC  C216 6040   0.934   2.443   3.807 -0.3480 -0.7270 -0.5032
   70SAPC  H16R 6041   0.958   2.376   3.892  0.9978  2.0152  1.4278
   70SAPC  H16S 6042   0.923   2.380   3.716  2.0402 -1.1949 -0.5551
   70SAPC  C217 6043   0.809   2.526   3.832  0.5073 -1.0060 -0.2912
   70SAPC  H17R 6044   0.725   2.453   3.839 -0.3783 -0.1662 -1.7070
   70SAPC  H17S 6045   0.794   2.586   3.740  1.9618  0.9032  0.6344
   70SAPC  C218 6046   0.819   2.618   3.960  0.1212 -0.6039 -0.0863
   70SAPC  H18R 6047   0.722   2.671   3.956 -0.5549 -1.8703 -4.1070
   70SAPC  H18S 6048   0.898   2.696   3.948 -0.1576 -0.4588 -1.0688
   70SAPC  C219 6049   0.828   2.551   4.097  0.7975  0.5653 -0.1110
   70SAPC  H19R 6050   0.931   2.513   4.113 -0.6303 -3.1170  1.3529
   70SAPC  H19S 6051   0.760   2.464   4.087  0.4407  1.0516 -2.3301
   70SAPC  C220 6052   0.783   2.632   4.220 -0.0135  0.0586 -0.5556
   70SAPC  H20R 6053   0.797   2.742   4.220 -0.3569  0.1293  1.3600
   70SAPC  H20S 6054   0.838   2.592   4.309 -1.4013 -1.2193 -0.2325
   70SAPC  H20T 6055   0.675   2.610   4.234  0.0728 -0.6961 -1.0354
   70SAPC   C33 6056   0.545   2.604   3.034  0.3415 -0.3190  0.0320
   70SAPC   H3X 6057   0.495   2.505   3.040  0.2020 -0.2336  0.2810
   70SAPC   H3Y 6058   0.506   2.661   2.947  0.3600  0.5696  0.5919
   70SAPC   C34 6059   0.522   2.684   3.165 -0.0089  0.2890 -0.1025
   70SAPC   H4X 6060   0.417   2.717   3.157  0.0057  0.4880  0.5073
   70SAPC   H4Y 6061   0.594   2.768   3.166  1.1447 -0.6425 -0.9818
   70SAPC   C35 6062   0.542   2.604   3.290  0.6113  0.3736  0.4094
   70SAPC   H5X 6063   0.644   2.562   3.279  0.8728  1.4367 -1.6295
   70SAPC   H5Y 6064   0.465   2.524   3.279  1.0444 -0.2840  1.8787
   70SAPC   C36 6065   0.519   2.680   3.418 -0.0390 -0.2807  0.0572
   70SAPC   H6X 6066   0.413   2.712   3.416 -0.0511 -0.3218  0.0278
   70SAPC   H6Y 6067   0.582   2.772   3.415 -1.0445  0.4042 -0.4983
   70SAPC   C37 6068   0.534   2.589   3.542  0.3165  0.2235 -0.3292
   70SAPC   H7X 6069   0.460   2.506   3.530 -0.2563  0.6802 -0.0458
   70SAPC   H7Y 6070   0.636   2.548   3.550  0.5464  0.7668 -0.4192
   70SAPC   C38 6071   0.505   2.654   3.679  0.6785  0.3887  0.3636
   70SAPC   H8X 6072   0.572   2.740   3.703  2.3205 -0.9155  0.6251
   70SAPC   H8Y 6073   0.518   2.579   3.760  1.1404  0.4477  0.3452
   70SAPC   C39 6074   0.360   2.701   3.697 -0.3645 -0.3687 -0.3013
   70SAPC   H9X 6075   0.295   2.613   3.678  1.3132 -1.2735 -2.2639
   70SAPC   H9Y 6076   0.345   2.774   3.615  0.7579  0.5720  0.2901
   70SAPC  C310 6077   0.342   2.761   3.841  0.7111 -0.1096 -0.3432
   70SAPC  H10X 6078   0.244   2.814   3.842  0.4870 -0.4608  2.2367
   70SAPC  H10Y 6079   0.416   2.842   3.861 -0.1831  0.6337  0.0742
   70SAPC  C311 6080   0.339   2.656   3.959  0.0455  0.2204  0.6726
   70SAPC  H11X 6081   0.424   2.584   3.963 -2.4242 -2.8433  2.2076
   70SAPC  H11Y 6082   0.245   2.598   3.943 -0.7445  1.6350 -0.0185
   70SAPC  C312 6083   0.324   2.715   4.098 -0.2160 -0.1732  0.3701
   70SAPC  H12X 6084   0.310   2.634   4.173 -1.0196 -1.3021 -0.9621
   70SAPC  H12Y 6085   0.233   2.778   4.099  0.4338  1.2151 -4.5739
   70SAPC  C313 6086   0.449   2.789   4.134  0.7583  0.2637  0.2880
   70SAPC  H13X 6087   0.460   2.891   4.092 -1.4913 -0.3005 -1.8651
   70SAPC  H13Y 6088   0.533   2.724   4.103  2.0161  2.2443 -0.5749
   70SAPC  C314 6089   0.448   2.805   4.284 -0.5101 -0.7212 -0.7997
   70SAPC  H14X 6090   0.456   2.706   4.334  0.6751  0.3084  1.2036
   70SAPC  H14Y 6091   0.348   2.841   4.317  0.0822  0.0763  0.1995
   70SAPC  C315 6092   0.544   2.914   4.341  0.6336  0.4827  0.3687
   70SAPC  H15X 6093   0.530   3.006   4.280 -0.1506  0.4507  0.4931
   70SAPC  H15Y 6094   0.653   2.896   4.336  1.3236  3.7670  0.9074
   70SAPC  C316 6095   0.519   2.963   4.482 -0.2828  0.1227 -0.1305
   70SAPC  H16X 6096   0.413   2.962   4.515 -0.0524 -2.6350  0.8176
   70SAPC  H16Y 6097   0.549   3.069   4.493 -1.3120  0.3459  0.6792
   70SAPC  C317 6098   0.593   2.877   4.582  1.1314 -0.1367  0.1935
   70SAPC  H17X 6099   0.701   2.883   4.554  0.8763  2.8668 -0.4610
   70SAPC  H17Y 6100   0.565   2.772   4.558 -1.1987  0.4215  0.2520
   70SAPC  C318 6101   0.582   2.927   4.722  0.1882 -0.5110 -0.7093
   70SAPC  H18X 6102   0.606   3.034   4.742 -0.1803 -0.2745 -1.4920
   70SAPC  H18Y 6103   0.668   2.893   4.783  0.6441  0.0767 -1.0024
   70SAPC  H18Z 6104   0.483   2.902   4.763 -0.9646  1.6790 -1.9456
   71SAPC     N 6105   3.099   2.204   2.030 -0.0600 -0.4177  0.0377
   71SAPC   C12 6106   3.134   2.179   2.175 -0.0174 -0.5893 -0.3562
   71SAPC  H12A 6107   3.179   2.081   2.184 -0.1231 -0.7420 -1.3501
   71SAPC  H12B 6108   3.047   2.168   2.237  1.5704 -2.5084  1.6846
   71SAPC   C13 6109   3.212   2.215   1.941 -0.0916 -0.2344 -0.1358
   71SAPC  H13A 6110   3.283   2.285   1.981 -0.4524 -0.0868  0.2547
   71SAPC  H13B 6111   3.275   2.127   1.937 -1.8471 -1.5268 -1.0819
   71SAPC  H13C 6112   3.178   2.247   1.844 -1.8722  1.4537  0.9711
   71SAPC   C14 6113   3.024   2.079   1.976 -0.6438 -0.0809  0.5424
   71SAPC  H14A 6114   2.975   2.096   1.881  0.0576  0.4802  0.2708
   71SAPC  H14B 6115   3.095   1.999   1.959  0.5513  0.3042  3.2295
   71SAPC  H14C 6116   2.945   2.049   2.042  1.1194 -1.5990  2.0633
   71SAPC   C15 6117   3.014   2.330   2.009 -0.6245 -0.1945 -0.0789
   71SAPC  H15A 6118   2.986   2.345   1.906 -1.0750 -2.6119 -0.3825
   71SAPC  H15B 6119   2.913   2.327   2.046 -1.1428  1.7643 -1.1957
   71SAPC  H15C 6120   3.067   2.420   2.037 -0.7583  0.5135 -1.9756
   71SAPC   C11 6121   3.226   2.278   2.245  0.0087 -0.0610  0.4467
   71SAPC  H11A 6122   3.198   2.268   2.352  1.0469  0.7182  0.8090
   71SAPC  H11B 6123   3.195   2.375   2.202 -1.1916 -1.7603 -2.9370
   71SAPC     P 6124   3.469   2.366   2.180 -0.1992 -0.2559 -0.5545
   71SAPC   O13 6125   3.570   2.298   2.099  0.4747 -0.4575  0.3739
   71SAPC   O14 6126   3.410   2.482   2.120  0.2319 -0.9588 -0.1631
   71SAPC   O12 6127   3.366   2.259   2.233  0.5871 -0.4050  0.4345
   71SAPC   O11 6128   3.529   2.418   2.318  0.0171  0.1507  0.0296
   71SAPC    C1 6129   3.603   2.330   2.405  0.7792 -0.7319  0.1577
   71SAPC    HA 6130   3.620   2.230   2.361  1.4916 -1.6296  2.3283
   71SAPC    HB 6131   3.699   2.378   2.434  1.0064 -0.1324 -1.4761
   71SAPC    C2 6132   3.529   2.310   2.540  0.2532  0.6368 -0.4160
   71SAPC    HS 6133   3.430   2.268   2.509  0.8060  0.5723 -2.1985
   71SAPC   O21 6134   3.514   2.434   2.611  0.8599  0.6413  0.2738
   71SAPC   C21 6135   3.407   2.441   2.686  0.3506  0.2884 -0.0207
   71SAPC   O22 6136   3.309   2.367   2.680  0.2077  0.1105  0.0282
   71SAPC   C22 6137   3.421   2.562   2.783  0.4837  0.4421  1.0826
   71SAPC   H2R 6138   3.527   2.583   2.806  0.2416  0.7918  1.9135
   71SAPC   H2S 6139   3.385   2.661   2.748  1.2853  0.5730  0.6169
   71SAPC    C3 6140   3.592   2.191   2.619 -0.0469 -0.0041  0.0771
   71SAPC    HX 6141   3.699   2.220   2.634 -0.7352  2.7543  0.2192
   71SAPC    HY 6142   3.590   2.104   2.551  2.7081  0.3263 -0.5437
   71SAPC   O31 6143   3.546   2.161   2.752 -0.2364  0.5675  0.5210
   71SAPC   C31 6144   3.440   2.082   2.747  0.4878 -0.4412  0.2255
   71SAPC   O32 6145   3.393   2.028   2.644  0.5352 -0.2044  0.6184
   71SAPC   C32 6146   3.395   2.050   2.891 -0.2012  0.4277  0.1475
   71SAPC   H2X 6147   3.480   2.000   2.942 -0.4620 -1.3546 -1.0749
   71SAPC   H2Y 6148   3.311   1.977   2.878 -0.0781  0.7374 -3.6335
   71SAPC   C23 6149   3.348   2.536   2.915 -0.2930 -0.0407  0.2498
   71SAPC   H3R 6150   3.368   2.434   2.954 -1.3360 -0.3888 -0.0862
   71SAPC   H3S 6151   3.240   2.530   2.890  0.2750 -1.0545 -2.2434
   71SAPC   C24 6152   3.379   2.647   3.022  0.2067  0.0413 -0.1408
   71SAPC   H4R 6153   3.295   2.639   3.095  1.7073  0.2510  1.6846
   71SAPC   H4S 6154   3.379   2.751   2.984 -2.7029  1.0011  2.0564
   71SAPC   C25 6155   3.512   2.634   3.091  0.3430  0.3010  0.1824
   71SAPC   H5R 6156   3.595   2.619   3.020 -0.0830  1.5416 -0.6176
   71SAPC   C26 6157   3.540   2.632   3.222  0.0414 -0.3868 -0.1909
   71SAPC   H6R 6158   3.645   2.616   3.253  0.0591 -1.5938 -0.8448
   71SAPC   C27 6159   3.444   2.668   3.327  0.7129 -0.6781  0.5137
   71SAPC   H7R 6160   3.399   2.572   3.361 -1.1981 -0.0947 -0.2664
   71SAPC   H7S 6161   3.361   2.727   3.284 -0.3883 -0.6537  2.5702
   71SAPC   C28 6162   3.508   2.730   3.448  0.2638  0.4440  0.1353
   71SAPC   H8R 6163   3.592   2.796   3.422  0.1593 -0.1291 -1.8258
   71SAPC   C29 6164   3.466   2.726   3.575 -0.0303  0.3761 -0.5156
   71SAPC   H9R 6165   3.521   2.790   3.647  0.0766  0.9332 -1.0888
   71SAPC  C210 6166   3.342   2.669   3.631  0.4328 -0.7039 -0.0125
   71SAPC  H10R 6167   3.279   2.626   3.550  0.3346  0.6860 -0.7134
   71SAPC  H10S 6168   3.288   2.759   3.669  0.7243 -0.1904 -0.7854
   71SAPC  C211 6169   3.373   2.582   3.747  0.4354  0.8460  0.4155
   71SAPC  H11R 6170   3.354   2.477   3.720 -0.0830  0.9997  0.1720
   71SAPC  C212 6171   3.405   2.608   3.875  0.1029  0.9074  0.4096
   71SAPC  H12R 6172   3.420   2.524   3.945 -0.2727  0.1832 -0.3691
   71SAPC  C213 6173   3.416   2.734   3.948  0.3713  0.6690 -0.5571
   71SAPC  H13R 6174   3.325   2.766   4.002  1.1511  2.2165 -0.1042
   71SAPC  H13S 6175   3.428   2.818   3.875  2.6631  0.8367 -0.0561
   71SAPC  C214 6176   3.534   2.723   4.045  0.3747  0.4050  0.0622
   71SAPC  H14R 6177   3.634   2.719   3.999 -0.1081  0.6565 -1.0202
   71SAPC  C215 6178   3.530   2.722   4.181 -0.3537  0.8725  0.3814
   71SAPC  H15R 6179   3.630   2.705   4.224 -0.1137  2.5754  0.5739
   71SAPC  C216 6180   3.421   2.728   4.276 -0.4664  0.6913 -0.8346
   71SAPC  H16R 6181   3.332   2.778   4.231 -2.3954 -0.0316  1.9539
   71SAPC  H16S 6182   3.440   2.802   4.357 -2.0323  1.3386 -1.0218
   71SAPC  C217 6183   3.383   2.587   4.329 -0.5030 -0.2704  0.5958
   71SAPC  H17R 6184   3.467   2.522   4.362 -2.0480 -1.9457  1.4358
   71SAPC  H17S 6185   3.332   2.530   4.249  0.4761 -0.6405  0.2242
   71SAPC  C218 6186   3.296   2.596   4.460 -0.5386 -0.2830  0.0132
   71SAPC  H18R 6187   3.222   2.679   4.451 -0.4424 -0.3042 -1.1448
   71SAPC  H18S 6188   3.371   2.614   4.541  1.8934 -3.1194 -1.4392
   71SAPC  C219 6189   3.229   2.468   4.479 -0.2890 -0.1804  0.3618
   71SAPC  H19R 6190   3.299   2.382   4.488 -0.0082 -0.0891 -0.8749
   71SAPC  H19S 6191   3.171   2.435   4.390  0.2543 -3.1702  0.9873
   71SAPC  C220 6192   3.139   2.467   4.601 -0.6050 -0.2947 -0.3120
   71SAPC  H20R 6193   3.106   2.367   4.637 -1.2907 -0.0106 -0.1388
   71SAPC  H20S 6194   3.054   2.538   4.601 -1.1603 -0.9489 -0.4124
   71SAPC  H20T 6195   3.198   2.496   4.691 -2.2732 -0.6416  0.9580
   71SAPC   C33 6196   3.340   2.173   2.965 -0.7701  0.1868  0.0907
   71SAPC   H3X 6197   3.253   2.222   2.916 -2.7374 -1.2180  2.0020
   71SAPC   H3Y 6198   3.426   2.244   2.962  1.2324 -2.1219 -0.4686
   71SAPC   C34 6199   3.331   2.147   3.111 -0.3760 -0.6085 -0.5387
   71SAPC   H4X 6200   3.435   2.124   3.143 -0.5901 -0.3301  0.3809
   71SAPC   H4Y 6201   3.277   2.053   3.138  0.5931 -1.7749 -2.4151
   71SAPC   C35 6202   3.288   2.271   3.190  0.0879 -0.0634  0.2906
   71SAPC   H5X 6203   3.185   2.308   3.167  0.5087  0.0954 -1.4975
   71SAPC   H5Y 6204   3.356   2.356   3.168 -0.1157  0.4764  1.6539
   71SAPC   C36 6205   3.306   2.249   3.345  0.0763 -0.0446 -0.4047
   71SAPC   H6X 6206   3.330   2.340   3.404 -1.1242  1.0756 -1.5597
   71SAPC   H6Y 6207   3.394   2.183   3.363  2.9895  3.4324 -0.8703
   71SAPC   C37 6208   3.177   2.192   3.414  0.4593  0.0674  0.7424
   71SAPC   H7X 6209   3.157   2.100   3.355  3.8256  0.4803 -1.3089
   71SAPC   H7Y 6210   3.091   2.262   3.413  0.8081  0.5058 -0.4972
   71SAPC   C38 6211   3.206   2.156   3.561 -1.0308 -0.2552  0.6254
   71SAPC   H8X 6212   3.251   2.248   3.605 -0.7544 -0.1951  0.2195
   71SAPC   H8Y 6213   3.285   2.079   3.574  1.4798  2.1369  0.3283
   71SAPC   C39 6214   3.083   2.106   3.634 -0.7688 -0.1195  0.0923
   71SAPC   H9X 6215   3.067   2.013   3.575  0.3881  0.0508 -0.5399
   71SAPC   H9Y 6216   3.004   2.183   3.625 -0.1532  0.6394  0.9467
   71SAPC  C310 6217   3.096   2.072   3.781 -0.3832 -0.7462 -0.4238
   71SAPC  H10X 6218   3.049   2.160   3.829  2.9596  0.0324  1.7001
   71SAPC  H10Y 6219   3.198   2.053   3.819  0.3693  0.1119 -1.9128
   71SAPC  C311 6220   3.006   1.945   3.813 -0.7128  0.0781  0.2753
   71SAPC  H11X 6221   3.061   1.856   3.775  1.3707  1.6757 -0.6354
   71SAPC  H11Y 6222   2.914   1.951   3.752  0.0870 -1.5831 -1.1861
   71SAPC  C312 6223   2.967   1.929   3.958  0.0409 -0.7629  0.9165
   71SAPC  H12X 6224   2.923   2.023   3.998  0.5287 -0.0364 -0.1745
   71SAPC  H12Y 6225   3.056   1.906   4.020  0.4944  2.2722  1.5676
   71SAPC  C313 6226   2.861   1.816   3.975 -0.6410  0.6357  0.6143
   71SAPC  H13X 6227   2.912   1.728   3.932 -0.3730  1.1761 -0.2116
   71SAPC  H13Y 6228   2.774   1.841   3.909  0.5528  1.2332 -0.8059
   71SAPC  C314 6229   2.822   1.792   4.123  0.6918  0.1536  0.7983
   71SAPC  H14X 6230   2.764   1.877   4.164  0.8582  0.6779 -0.0236
   71SAPC  H14Y 6231   2.913   1.769   4.183  2.2696  2.6756 -0.4173
   71SAPC  C315 6232   2.730   1.667   4.126  0.1735  0.0832  0.3425
   71SAPC  H15X 6233   2.788   1.579   4.093  1.1034  0.8845 -0.2124
   71SAPC  H15Y 6234   2.639   1.668   4.063  0.6719  1.0514 -0.3937
   71SAPC  C316 6235   2.688   1.627   4.269  0.2782  0.0354 -0.1926
   71SAPC  H16X 6236   2.633   1.714   4.313 -0.0312  0.6507 -1.7009
   71SAPC  H16Y 6237   2.784   1.606   4.320  0.1891 -2.9107 -1.0746
   71SAPC  C317 6238   2.591   1.508   4.259 -0.5821 -0.1120  0.1757
   71SAPC  H17X 6239   2.509   1.533   4.189  1.1639 -0.3280 -2.0724
   71SAPC  H17Y 6240   2.554   1.481   4.360 -2.1489 -1.4767 -0.7005
   71SAPC  C318 6241   2.660   1.380   4.223 -0.3910 -0.1886  0.3737
   71SAPC  H18X 6242   2.688   1.388   4.116 -1.4394  3.2646  0.2389
   71SAPC  H18Y 6243   2.588   1.295   4.234 -0.4107 -0.2118  0.0629
   71SAPC  H18Z 6244   2.756   1.368   4.277 -0.5477  1.8744  1.1790
   72SAPC     N 6245   2.079   0.125   2.030 -0.3031  0.1352  0.2652
   72SAPC   C12 6246   2.228   0.112   2.071 -0.2999  0.1243 -0.8917
   72SAPC  H12A 6247   2.263   0.212   2.088 -1.6841  0.7911 -1.7135
   72SAPC  H12B 6248   2.280   0.081   1.981  0.3726  2.7128 -1.4865
   72SAPC   C13 6249   2.035  -0.005   1.980  0.5719  0.2319  0.4185
   72SAPC  H13A 6250   2.031  -0.076   2.061  1.9538  0.3294  0.6054
   72SAPC  H13B 6251   1.938  -0.005   1.934 -0.1440 -3.2433  1.6120
   72SAPC  H13C 6252   2.095  -0.041   1.898  2.7809  0.7711  1.7079
   72SAPC   C14 6253   1.986   0.159   2.140 -0.0736 -0.0904 -0.0075
   72SAPC  H14A 6254   1.990   0.080   2.214 -1.2075  0.8503  1.1158
   72SAPC  H14B 6255   2.026   0.237   2.203  1.9870 -0.5110 -0.6940
   72SAPC  H14C 6256   1.890   0.185   2.098  0.2097  1.0286  0.0086
   72SAPC   C15 6257   2.064   0.211   1.911  0.2457  0.5977  0.4203
   72SAPC  H15A 6258   2.129   0.181   1.829 -0.7833 -1.9705  0.4387
   72SAPC  H15B 6259   1.961   0.226   1.885 -0.1420 -1.7519  0.3464
   72SAPC  H15C 6260   2.088   0.314   1.933 -0.8056  1.1857 -1.0384
   72SAPC   C11 6261   2.265   0.027   2.190  0.7192  0.0949 -0.0623
   72SAPC  H11A 6262   2.230   0.076   2.283  1.3891  0.4140  0.0308
   72SAPC  H11B 6263   2.376   0.029   2.194  0.7375 -0.0082 -0.4919
   72SAPC     P 6264   2.165  -0.181   2.302  0.4345  0.1872  0.0099
   72SAPC   O13 6265   2.047  -0.111   2.359  0.2384 -0.2788 -0.0068
   72SAPC   O14 6266   2.162  -0.331   2.276 -0.5044 -0.7621 -0.5551
   72SAPC   O12 6267   2.218  -0.110   2.170  0.1051 -0.5420  0.0563
   72SAPC   O11 6268   2.277  -0.158   2.402 -0.0173  0.8155  0.2587
   72SAPC    C1 6269   2.290  -0.058   2.503  0.1396  0.9487 -0.3175
   72SAPC    HA 6270   2.388  -0.017   2.469 -0.0750  0.4027 -1.6485
   72SAPC    HB 6271   2.221   0.028   2.492  0.1129  1.4797  2.9745
   72SAPC    C2 6272   2.288  -0.104   2.648 -0.1982  0.1274  0.3215
   72SAPC    HS 6273   2.294  -0.012   2.710 -1.5575  1.4959 -1.4549
   72SAPC   O21 6274   2.391  -0.206   2.664 -0.0795  0.0114 -0.5699
   72SAPC   C21 6275   2.437  -0.210   2.797  0.0364  0.3841 -0.0503
   72SAPC   O22 6276   2.404  -0.125   2.881  0.1256  0.4631 -0.3826
   72SAPC   C22 6277   2.545  -0.316   2.817  0.2852  0.3932  0.0053
   72SAPC   H2R 6278   2.592  -0.336   2.719  0.5942  1.3170 -0.0488
   72SAPC   H2S 6279   2.624  -0.267   2.877  0.9049 -0.8956  0.2704
   72SAPC    C3 6280   2.151  -0.179   2.689  0.3510 -0.0452  0.1285
   72SAPC    HX 6281   2.133  -0.270   2.628 -2.2193  0.4757 -0.0051
   72SAPC    HY 6282   2.066  -0.119   2.652  1.0095 -0.1187 -1.6070
   72SAPC   O31 6283   2.141  -0.215   2.827 -0.6136 -0.3671  0.3127
   72SAPC   C31 6284   2.087  -0.123   2.909 -0.5148  0.0204 -0.2254
   72SAPC   O32 6285   2.022  -0.027   2.882  0.0604 -0.3750 -0.5434
   72SAPC   C32 6286   2.118  -0.177   3.050  0.6228 -0.1785  0.2680
   72SAPC   H2X 6287   2.226  -0.164   3.073  0.4444  0.0335  1.0146
   72SAPC   H2Y 6288   2.090  -0.284   3.046  0.3325 -0.1620  1.6295
   72SAPC   C23 6289   2.503  -0.453   2.874  0.4874 -0.2033  0.4204
   72SAPC   H3R 6290   2.580  -0.531   2.854  0.2722  0.2923 -2.8936
   72SAPC   H3S 6291   2.416  -0.480   2.809  1.2708  0.0164 -0.7500
   72SAPC   C24 6292   2.468  -0.443   3.022 -0.3033 -0.8241 -0.4581
   72SAPC   H4R 6293   2.409  -0.350   3.036 -0.5164 -0.7548 -1.6728
   72SAPC   H4S 6294   2.566  -0.428   3.072 -0.4195 -2.1217  0.2054
   72SAPC   C25 6295   2.383  -0.558   3.073 -0.0442  0.7447  0.7791
   72SAPC   H5R 6296   2.342  -0.611   2.985  0.8600  1.9332 -0.3896
   72SAPC   C26 6297   2.358  -0.598   3.202  0.3928  0.2719  0.1201
   72SAPC   H6R 6298   2.281  -0.675   3.222  0.3615 -0.2118 -1.6396
   72SAPC   C27 6299   2.412  -0.532   3.328 -0.2050 -0.3820 -0.6816
   72SAPC   H7R 6300   2.460  -0.437   3.295 -1.2712 -0.2076 -1.8181
   72SAPC   H7S 6301   2.492  -0.604   3.356 -1.3291 -2.2983 -2.0923
   72SAPC   C28 6302   2.322  -0.494   3.448  0.6068  0.3624  0.1749
   72SAPC   H8R 6303   2.229  -0.438   3.430 -1.5273 -2.6661  0.8205
   72SAPC   C29 6304   2.347  -0.524   3.577 -0.0778  1.0790  0.5202
   72SAPC   H9R 6305   2.272  -0.506   3.655  0.7129 -2.5300  2.3569
   72SAPC  C210 6306   2.466  -0.594   3.639 -0.9537 -0.4740 -0.0890
   72SAPC  H10R 6307   2.470  -0.700   3.608 -1.6484 -0.2972 -0.8279
   72SAPC  H10S 6308   2.457  -0.597   3.749  0.8672 -0.9761  0.0691
   72SAPC  C211 6309   2.602  -0.529   3.606 -0.3328  0.1976  0.0493
   72SAPC  H11R 6310   2.595  -0.440   3.540 -1.1403  0.1821  0.1055
   72SAPC  C212 6311   2.714  -0.539   3.683 -0.3826  0.2804  0.7142
   72SAPC  H12R 6312   2.810  -0.487   3.668  1.7196 -2.9912  1.7707
   72SAPC  C213 6313   2.720  -0.644   3.790 -0.6330  0.0303  0.0392
   72SAPC  H13R 6314   2.827  -0.666   3.813 -1.4689 -1.2901  3.4011
   72SAPC  H13S 6315   2.677  -0.741   3.757 -0.6271  0.2082 -0.4991
   72SAPC  C214 6316   2.653  -0.613   3.919 -0.0121 -0.1895  0.7070
   72SAPC  H14R 6317   2.608  -0.513   3.926 -2.7637 -1.2545 -0.5032
   72SAPC  C215 6318   2.656  -0.694   4.021  1.0415  0.2599 -1.1616
   72SAPC  H15R 6319   2.596  -0.666   4.110  2.2209  0.5898 -0.4431
   72SAPC  C216 6320   2.712  -0.841   4.027  0.1927 -0.6329  0.3033
   72SAPC  H16R 6321   2.746  -0.865   3.924 -0.2663 -0.5727  0.1368
   72SAPC  H16S 6322   2.624  -0.907   4.040 -1.4769  1.4077 -0.2144
   72SAPC  C217 6323   2.818  -0.864   4.139  0.3211  0.4133  0.2804
   72SAPC  H17R 6324   2.910  -0.808   4.114  0.2164 -0.2513 -1.7909
   72SAPC  H17S 6325   2.835  -0.974   4.129  0.3653  0.5260 -1.0597
   72SAPC  C218 6326   2.777  -0.843   4.281  0.6964  0.1022  0.3168
   72SAPC  H18R 6327   2.731  -0.937   4.320 -2.9396  1.0771 -1.1489
   72SAPC  H18S 6328   2.705  -0.758   4.290  0.8156  0.8773 -3.9182
   72SAPC  C219 6329   2.899  -0.819   4.371  0.3276 -0.4111  0.5074
   72SAPC  H19R 6330   2.866  -0.779   4.469 -0.4993 -0.1956  0.1483
   72SAPC  H19S 6331   2.972  -0.758   4.313  0.6684 -1.1513  0.1395
   72SAPC  C220 6332   2.972  -0.950   4.409  0.3209  0.0583 -0.0556
   72SAPC  H20R 6333   3.068  -0.932   4.461 -1.0651  0.4373  2.5280
   72SAPC  H20S 6334   2.977  -1.021   4.323  0.6621  0.3220 -0.2571
   72SAPC  H20T 6335   2.914  -0.992   4.493  0.9898  2.3819  1.6790
   72SAPC   C33 6336   2.020  -0.121   3.158 -0.1189  0.4724  0.1343
   72SAPC   H3X 6337   1.916  -0.141   3.122  0.4986  1.7341 -2.6587
   72SAPC   H3Y 6338   2.043  -0.013   3.163 -0.9349  0.5869  1.9487
   72SAPC   C34 6339   2.049  -0.183   3.300  0.3323  0.6370  0.0280
   72SAPC   H4X 6340   2.158  -0.172   3.317  0.5285 -0.9097 -0.0390
   72SAPC   H4Y 6341   2.028  -0.292   3.307 -0.2271  0.7861  0.8479
   72SAPC   C35 6342   1.961  -0.117   3.400  0.1665 -0.2648  0.2246
   72SAPC   H5X 6343   1.858  -0.157   3.387  0.9222 -2.3859  0.2559
   72SAPC   H5Y 6344   1.957  -0.008   3.383 -0.6030 -0.3272 -0.0527
   72SAPC   C36 6345   2.010  -0.140   3.543 -0.1488 -0.4058 -0.4056
   72SAPC   H6X 6346   1.970  -0.065   3.614  1.5304 -0.7626  0.9972
   72SAPC   H6Y 6347   2.121  -0.140   3.538 -0.1138 -2.2688 -0.2493
   72SAPC   C37 6348   1.977  -0.278   3.601 -0.9367  0.1644 -0.4900
   72SAPC   H7X 6349   2.043  -0.350   3.549 -0.0841  1.4147 -1.1951
   72SAPC   H7Y 6350   1.870  -0.306   3.588 -0.4952 -1.6637 -0.4835
   72SAPC   C38 6351   2.017  -0.273   3.748  0.2163  0.0254  0.0944
   72SAPC   H8X 6352   1.951  -0.205   3.807 -1.4252  0.1132 -1.7522
   72SAPC   H8Y 6353   2.118  -0.229   3.762  0.8385 -1.1080 -0.7348
   72SAPC   C39 6354   2.004  -0.409   3.818  0.1702 -0.0592  1.1181
   72SAPC   H9X 6355   2.065  -0.483   3.762 -0.5933  1.2642 -1.6155
   72SAPC   H9Y 6356   1.900  -0.447   3.810 -0.0973  0.9690 -0.7776
   72SAPC  C310 6357   2.049  -0.415   3.968 -0.3411  1.3337  0.2171
   72SAPC  H10X 6358   2.042  -0.520   4.004 -0.0613  1.5833  1.0096
   72SAPC  H10Y 6359   1.981  -0.354   4.031 -2.4278 -0.4162 -0.2326
   72SAPC  C311 6360   2.199  -0.388   3.968  0.5772  0.3804 -0.5468
   72SAPC  H11X 6361   2.215  -0.278   3.960 -0.0112  0.6684  1.5867
   72SAPC  H11Y 6362   2.251  -0.443   3.887 -1.3110  0.4921 -1.9226
   72SAPC  C312 6363   2.257  -0.412   4.111  0.0832  0.5894 -0.2783
   72SAPC  H12X 6364   2.197  -0.355   4.185  1.9891 -1.0734  2.7588
   72SAPC  H12Y 6365   2.363  -0.377   4.104  1.2406 -2.4903  0.4127
   72SAPC  C313 6366   2.267  -0.558   4.158  0.1899  0.0619 -0.6953
   72SAPC  H13X 6367   2.325  -0.607   4.077  1.4956 -0.2074  0.3732
   72SAPC  H13Y 6368   2.167  -0.606   4.166  0.0337  0.5975  0.9963
   72SAPC  C314 6369   2.349  -0.579   4.288  0.0319 -0.5037  0.5201
   72SAPC  H14X 6370   2.298  -0.533   4.375 -1.0936  1.3643 -1.0446
   72SAPC  H14Y 6371   2.448  -0.531   4.278  0.5399 -1.2809  1.5401
   72SAPC  C315 6372   2.376  -0.726   4.294  0.6293 -0.2245 -0.9729
   72SAPC  H15X 6373   2.451  -0.761   4.220 -0.8015 -0.3927 -2.4075
   72SAPC  H15Y 6374   2.281  -0.777   4.269  0.0253 -0.3775  1.3543
   72SAPC  C316 6375   2.419  -0.784   4.431  0.2599  0.4832 -0.3047
   72SAPC  H16X 6376   2.425  -0.894   4.424 -0.5167  0.3019  1.3745
   72SAPC  H16Y 6377   2.334  -0.777   4.502  1.4396  0.3798  1.1749
   72SAPC  C317 6378   2.542  -0.736   4.498 -0.0906  0.6024  0.4475
   72SAPC  H17X 6379   2.583  -0.647   4.445  3.3550 -1.2642 -0.2779
   72SAPC  H17Y 6380   2.620  -0.815   4.499  0.7242  1.3812 -0.0334
   72SAPC  C318 6381   2.520  -0.695   4.642 -0.4630  0.1813 -0.2029
   72SAPC  H18X 6382   2.606  -0.643   4.688 -0.1931 -0.2900 -0.1742
   72SAPC  H18Y 6383   2.496  -0.788   4.698  2.3886 -0.0577  0.7610
   72SAPC  H18Z 6384   2.433  -0.626   4.652 -0.8934 -0.5102  1.0864
   73SLPC     N 6385   4.951   6.217   6.837 -0.0978  0.2372  0.2882
   73SLPC   C13 6386   5.011   6.092   6.905 -0.5917 -0.2097 -0.3567
   73SLPC  H13A 6387   5.033   6.113   7.008  0.7345 -2.0128 -0.2362
   73SLPC  H13B 6388   4.947   6.006   6.888  0.2264 -0.5161 -2.1258
   73SLPC  H13C 6389   5.108   6.076   6.861 -0.2225 -0.8134  0.6454
   73SLPC   C14 6390   4.974   6.198   6.686  1.0058 -0.2728 -0.3996
   73SLPC  H14A 6391   4.926   6.106   6.656  0.1403 -0.2118  0.7407
   73SLPC  H14B 6392   4.921   6.273   6.628  1.5209 -0.1072 -0.6600
   73SLPC  H14C 6393   5.079   6.201   6.660  0.7850  1.7289 -1.2281
   73SLPC   C15 6394   5.049   6.329   6.867  0.6904  0.1087  0.2093
   73SLPC  H15A 6395   5.012   6.418   6.819  1.5005 -0.4660 -1.5538
   73SLPC  H15B 6396   5.072   6.347   6.971 -0.0703 -0.7397  0.5348
   73SLPC  H15C 6397   5.143   6.322   6.816  0.7710 -0.7281  0.4553
   73SLPC   C12 6398   4.809   6.250   6.878  0.9300  0.2165 -0.3911
   73SLPC  H12A 6399   4.799   6.215   6.980  2.3726  1.3170  0.1697
   73SLPC  H12B 6400   4.742   6.182   6.827  2.4970 -1.3928 -0.4060
   73SLPC   C11 6401   4.755   6.399   6.867 -0.8820  0.3405 -0.0931
   73SLPC  H11A 6402   4.798   6.460   6.949  1.6400 -0.0976 -0.9985
   73SLPC  H11B 6403   4.645   6.399   6.883 -0.8983  0.0463 -0.1879
   73SLPC     P 6404   4.736   6.451   6.604  0.1042  0.0499 -0.3148
   73SLPC   O13 6405   4.650   6.333   6.586  0.0397 -1.2003 -0.4958
   73SLPC   O14 6406   4.673   6.581   6.568 -0.2476 -0.0940  0.5089
   73SLPC   O12 6407   4.798   6.468   6.747 -0.6054  0.0471 -0.3164
   73SLPC   O11 6408   4.870   6.432   6.517 -0.3775  0.5815 -0.0810
   73SLPC    C1 6409   4.968   6.536   6.514 -0.9683 -0.4528 -0.0485
   73SLPC    HA 6410   4.938   6.637   6.549  0.5343 -0.4178  1.2304
   73SLPC    HB 6411   5.051   6.501   6.578  0.3425  1.5544 -0.5557
   73SLPC    C2 6412   5.037   6.549   6.373 -0.2801 -0.1589 -0.3697
   73SLPC    HS 6413   5.130   6.610   6.378 -0.5168  0.1333  0.7112
   73SLPC   O21 6414   4.948   6.595   6.271 -0.6226  0.3039 -0.0700
   73SLPC   C21 6415   4.925   6.721   6.278 -0.3782 -0.6297  0.1442
   73SLPC   O22 6416   4.989   6.805   6.340 -0.1891  0.8672 -0.1620
   73SLPC   C22 6417   4.784   6.756   6.218 -0.7295  0.1387 -0.1030
   73SLPC   H2R 6418   4.710   6.687   6.264 -0.5759  1.8995  3.0158
   73SLPC   H2S 6419   4.772   6.865   6.235  0.2810  0.7699 -2.8862
   73SLPC    C3 6420   5.085   6.406   6.333 -0.5886 -0.5881  0.6145
   73SLPC    HX 6421   5.000   6.342   6.368 -1.9103  0.5985 -0.3333
   73SLPC    HY 6422   5.173   6.364   6.387 -0.1705 -3.2929 -1.9324
   73SLPC   O31 6423   5.113   6.392   6.194 -1.1060  0.1461 -0.1318
   73SLPC   C31 6424   5.224   6.442   6.147  0.5466 -0.1501  0.3186
   73SLPC   O32 6425   5.308   6.502   6.207 -0.4286 -0.1812 -0.2269
   73SLPC   C32 6426   5.243   6.409   6.000  0.2740 -0.6814 -0.3856
   73SLPC   H2X 6427   5.183   6.487   5.949 -0.0832  0.1788  1.2824
   73SLPC   H2Y 6428   5.210   6.304   5.981 -1.8959 -0.6021  2.3246
   73SLPC   C23 6429   4.785   6.728   6.062 -0.5583 -0.4951 -0.0736
   73SLPC   H3R 6430   4.693   6.757   6.008 -1.0068 -1.3134  0.2364
   73SLPC   H3S 6431   4.797   6.620   6.038  0.3617 -1.3926  3.6832
   73SLPC   C24 6432   4.899   6.797   5.982  0.1699 -0.1272  0.2788
   73SLPC   H4R 6433   4.990   6.788   6.045 -0.4921  1.4039  1.5274
   73SLPC   H4S 6434   4.884   6.906   5.965 -0.3545 -0.0425  1.2601
   73SLPC   C25 6435   4.927   6.715   5.857 -0.2824  0.5495 -0.2357
   73SLPC   H5R 6436   4.840   6.698   5.790 -0.1619  1.2625 -0.5817
   73SLPC   H5S 6437   4.953   6.610   5.883  0.6809  0.6101 -0.8854
   73SLPC   C26 6438   5.036   6.766   5.759 -0.0903  0.4156 -0.7561
   73SLPC   H6R 6439   5.134   6.754   5.810  0.6180 -1.1192 -2.4021
   73SLPC   H6S 6440   5.012   6.871   5.731  0.9831  0.7921 -0.3212
   73SLPC   C27 6441   5.045   6.696   5.625  0.7235  0.2125 -0.5258
   73SLPC   H7R 6442   5.042   6.587   5.645  1.3830 -0.5475 -3.9552
   73SLPC   H7S 6443   5.143   6.723   5.581  0.9124  1.2536  0.4824
   73SLPC   C28 6444   4.940   6.737   5.515  0.0567 -0.8041 -0.2342
   73SLPC   H8R 6445   4.952   6.840   5.475 -1.6092 -0.8225 -0.8413
   73SLPC   H8S 6446   4.842   6.718   5.563  0.6904 -3.4281  0.1726
   73SLPC   C29 6447   4.951   6.644   5.406  0.2807  0.0529  0.0346
   73SLPC   H9R 6448   4.902   6.551   5.438 -1.2098  0.7884 -0.0013
   73SLPC  C210 6449   4.977   6.668   5.275 -0.6074  0.1245 -0.1057
   73SLPC  H10R 6450   4.970   6.585   5.203 -2.4889  0.4941 -0.4111
   73SLPC  C211 6451   5.027   6.797   5.210  0.5523 -0.8627 -0.0152
   73SLPC  H11R 6452   5.138   6.806   5.220  0.6433 -2.3873  0.6336
   73SLPC  H11S 6453   4.977   6.884   5.258  0.2311 -0.4186 -1.1189
   73SLPC  C212 6454   4.989   6.800   5.060  0.1152 -0.0771 -0.7190
   73SLPC  H12R 6455   4.946   6.707   5.019 -2.3288  1.3798 -1.7074
   73SLPC  C213 6456   4.973   6.913   4.991  0.1197  0.1292 -1.0905
   73SLPC  H13R 6457   4.926   6.900   4.892 -0.3788 -0.8922 -0.7370
   73SLPC  C214 6458   4.996   7.055   5.032  0.3860 -0.2322  0.0043
   73SLPC  H14R 6459   5.081   7.095   4.973 -0.2132 -1.5693 -1.8781
   73SLPC  H14S 6460   5.016   7.062   5.141  1.1422  0.5683 -0.1791
   73SLPC  C215 6461   4.867   7.134   5.013 -0.3577 -0.0732  0.0435
   73SLPC  H15R 6462   4.880   7.239   5.047 -2.0584 -0.3446  1.7427
   73SLPC  H15S 6463   4.785   7.093   5.075 -0.1071 -0.4441  0.1317
   73SLPC  C216 6464   4.812   7.143   4.868  0.3485 -0.1985  0.4153
   73SLPC  H16R 6465   4.784   7.043   4.828 -1.6663  0.4415  0.0784
   73SLPC  H16S 6466   4.895   7.182   4.806 -1.8417  1.7046 -1.4661
   73SLPC  C217 6467   4.691   7.231   4.856  0.0028 -0.1223 -0.0258
   73SLPC  H17R 6468   4.722   7.331   4.894 -2.3036  0.3461  0.7502
   73SLPC  H17S 6469   4.611   7.194   4.924 -0.3650 -1.1715 -1.0145
   73SLPC  C218 6470   4.647   7.261   4.718  0.0271 -0.8397 -0.0400
   73SLPC  H18R 6471   4.560   7.329   4.724  0.3464 -0.5079  1.3061
   73SLPC  H18S 6472   4.622   7.169   4.662 -0.6708 -0.6249 -0.0800
   73SLPC  H18T 6473   4.724   7.308   4.653  0.3954 -1.7124 -0.2490
   73SLPC   C33 6474   5.381   6.423   5.955  0.1811 -0.1936 -0.5279
   73SLPC   H3X 6475   5.436   6.343   6.009 -1.0777 -1.5342 -1.1608
   73SLPC   H3Y 6476   5.419   6.523   5.986 -0.1897 -0.1369 -0.2504
   73SLPC   C34 6477   5.397   6.414   5.802  0.6822  0.4461 -0.2322
   73SLPC   H4X 6478   5.507   6.401   5.795  0.5301 -1.3856  0.2619
   73SLPC   H4Y 6479   5.353   6.508   5.763 -1.6527 -0.3526  0.3118
   73SLPC   C35 6480   5.328   6.287   5.744 -0.1899  0.1530 -0.2044
   73SLPC   H5X 6481   5.218   6.292   5.755 -0.3718  0.8499 -2.1191
   73SLPC   H5Y 6482   5.367   6.210   5.814  0.7535  1.4165  0.7252
   73SLPC   C36 6483   5.369   6.262   5.598 -0.0930 -0.3224 -0.0334
   73SLPC   H6X 6484   5.325   6.163   5.576 -0.4175 -0.9021  2.8428
   73SLPC   H6Y 6485   5.479   6.248   5.594  0.1330  1.3599 -0.5517
   73SLPC   C37 6486   5.337   6.376   5.501  0.2181  0.5202 -0.1208
   73SLPC   H7X 6487   5.396   6.464   5.533 -0.4114  0.3214  1.6735
   73SLPC   H7Y 6488   5.229   6.401   5.510  0.3403  1.2625 -0.6750
   73SLPC   C38 6489   5.354   6.340   5.357  0.1960 -0.4597 -0.0860
   73SLPC   H8X 6490   5.307   6.242   5.331  1.0422 -1.1636  0.9696
   73SLPC   H8Y 6491   5.462   6.332   5.329  0.3164  0.1033  0.2026
   73SLPC   C39 6492   5.279   6.443   5.269  0.2748 -0.0882 -0.3363
   73SLPC   H9X 6493   5.303   6.545   5.307 -0.4700 -0.1617  0.3623
   73SLPC   H9Y 6494   5.170   6.434   5.291  0.8690 -2.4242  2.0869
   73SLPC  C310 6495   5.302   6.434   5.120 -0.6392 -0.1580  0.2715
   73SLPC  H10X 6496   5.298   6.329   5.085  1.0876  0.1782 -1.1037
   73SLPC  H10Y 6497   5.409   6.459   5.100 -0.1290 -0.6192  2.2097
   73SLPC  C311 6498   5.208   6.524   5.032 -0.2531  1.1282  0.1747
   73SLPC  H11X 6499   5.214   6.630   5.065  1.0754  1.0122  0.3440
   73SLPC  H11Y 6500   5.105   6.486   5.048 -0.5580  1.5593 -0.7196
   73SLPC  C312 6501   5.242   6.527   4.885 -0.3602  0.4025 -0.0533
   73SLPC  H12X 6502   5.228   6.433   4.828 -4.7294  0.9642 -0.2644
   73SLPC  H12Y 6503   5.349   6.558   4.878  0.1399 -1.2872 -0.2560
   73SLPC  C313 6504   5.144   6.629   4.812 -0.8247  0.4016  0.4672
   73SLPC  H13X 6505   5.175   6.727   4.854  0.0353  0.0607  0.6466
   73SLPC  H13Y 6506   5.047   6.589   4.849 -0.0398 -0.2644  1.8998
   73SLPC  C314 6507   5.154   6.630   4.663  0.6657  0.8558 -0.1348
   73SLPC  H14X 6508   5.098   6.544   4.621 -0.7623  0.9382  1.4917
   73SLPC  H14Y 6509   5.258   6.628   4.625  0.9372  2.8643  0.3856
   73SLPC  C315 6510   5.076   6.750   4.605 -0.4180 -1.3894  0.0751
   73SLPC  H15X 6511   5.144   6.839   4.611 -3.2890  0.8511  2.3807
   73SLPC  H15Y 6512   4.993   6.764   4.677 -0.0485 -0.6868  0.3789
   73SLPC  C316 6513   5.008   6.732   4.475  0.1942  0.2195 -0.4947
   73SLPC  H16X 6514   4.940   6.645   4.468  0.4327 -0.1185  1.1859
   73SLPC  H16Y 6515   5.083   6.710   4.395  2.6559  0.8375  1.5161
   73SLPC  C317 6516   4.934   6.859   4.416 -0.3797 -0.5413 -0.4349
   73SLPC  H17X 6517   4.894   6.836   4.315  0.2020 -1.5009 -0.4631
   73SLPC  H17Y 6518   5.006   6.941   4.396 -3.4841  2.8359  1.0568
   73SLPC  C318 6519   4.825   6.917   4.505 -0.2489 -0.1614  0.2110
   73SLPC  H18X 6520   4.866   6.913   4.609  1.2978 -3.9947 -0.3825
   73SLPC  H18Y 6521   4.741   6.845   4.511 -1.1438  0.5569 -2.5273
   73SLPC  H18Z 6522   4.788   7.017   4.477  2.3833  0.3926 -1.6598
   74SLPC     N 6523   0.234   6.208   6.675 -0.0433 -0.4096 -0.0673
   74SLPC   C13 6524   0.119   6.298   6.651  0.3489 -0.8697 -0.1721
   74SLPC  H13A 6525   0.033   6.257   6.600  0.1172 -2.7891  1.6718
   74SLPC  H13B 6526   0.072   6.320   6.745 -1.3462 -0.2612 -1.1071
   74SLPC  H13C 6527   0.154   6.392   6.609  1.7302 -1.3865 -0.2197
   74SLPC   C14 6528   0.185   6.097   6.768 -0.2280  0.8684 -0.5005
   74SLPC  H14A 6529   0.264   6.025   6.786 -1.6073 -0.2163  1.5540
   74SLPC  H14B 6530   0.155   6.142   6.862 -0.6339  1.8541 -1.0878
   74SLPC  H14C 6531   0.098   6.049   6.726  0.0521  0.4710 -0.6296
   74SLPC   C15 6532   0.352   6.276   6.741  0.6456 -0.4543  0.3143
   74SLPC  H15A 6533   0.381   6.370   6.697 -0.0288  0.0489  0.9144
   74SLPC  H15B 6534   0.342   6.283   6.849  4.1681 -0.2417  0.7554
   74SLPC  H15C 6535   0.443   6.220   6.727  0.1690 -0.8948 -1.1862
   74SLPC   C12 6536   0.275   6.148   6.538  0.7765  0.5897 -0.1757
   74SLPC  H12A 6537   0.331   6.221   6.481  0.7839 -2.2359 -4.2104
   74SLPC  H12B 6538   0.184   6.121   6.488 -0.0227  0.8809  1.0849
   74SLPC   C11 6539   0.370   6.023   6.541 -0.0694  0.1931  0.0987
   74SLPC  H11A 6540   0.379   5.982   6.438 -2.2619 -3.9631  1.3421
   74SLPC  H11B 6541   0.329   5.943   6.606 -1.1532 -0.6243 -1.5170
   74SLPC     P 6542   0.632   6.100   6.501 -0.0147 -0.2609 -0.0945
   74SLPC   O13 6543   0.690   6.222   6.553 -0.1200 -0.6795  0.4316
   74SLPC   O14 6544   0.722   5.985   6.491  0.0089 -0.2944 -0.3650
   74SLPC   O12 6545   0.504   6.068   6.588  0.1405  0.1635 -0.6658
   74SLPC   O11 6546   0.558   6.121   6.361 -0.3413 -0.5616 -0.2611
   74SLPC    C1 6547   0.640   6.160   6.248  0.1352  0.8910 -0.2764
   74SLPC    HA 6548   0.669   6.267   6.252  1.6913  0.5475 -1.4564
   74SLPC    HB 6549   0.734   6.101   6.242 -1.7542 -2.5235  0.8058
   74SLPC    C2 6550   0.556   6.139   6.117  0.3813  0.3744  0.0171
   74SLPC    HS 6551   0.630   6.130   6.034 -1.4393 -1.8063 -1.4966
   74SLPC   O21 6552   0.451   6.234   6.092 -0.4900 -0.2106 -0.4664
   74SLPC   C21 6553   0.491   6.357   6.052  0.4898  0.5268 -0.2131
   74SLPC   O22 6554   0.607   6.387   6.033  0.1799 -0.3773  0.6873
   74SLPC   C22 6555   0.374   6.457   6.037  0.5860 -0.5661 -0.4393
   74SLPC   H2R 6556   0.304   6.437   6.121  0.7444 -0.2306 -0.2261
   74SLPC   H2S 6557   0.416   6.553   6.072 -0.5939 -0.1708 -0.0771
   74SLPC    C3 6558   0.486   5.994   6.115  0.6717 -1.0947 -0.5229
   74SLPC    HX 6559   0.401   5.989   6.187 -0.3837 -0.0678 -1.6513
   74SLPC    HY 6560   0.569   5.926   6.145  2.2539  1.3040  0.7819
   74SLPC   O31 6561   0.461   5.944   5.988  0.0490  0.3281  0.1434
   74SLPC   C31 6562   0.340   5.962   5.940  0.0614 -0.0774 -0.3961
   74SLPC   O32 6563   0.243   5.994   6.003  0.4396  0.5411 -1.1262
   74SLPC   C32 6564   0.342   5.934   5.793  0.1823 -0.3207 -0.0160
   74SLPC   H2X 6565   0.329   5.825   5.777  1.3387 -0.7703  1.8325
   74SLPC   H2Y 6566   0.444   5.959   5.757  0.6076 -0.6070  0.9876
   74SLPC   C23 6567   0.319   6.473   5.895  0.7265  0.2098 -0.0923
   74SLPC   H3R 6568   0.236   6.546   5.910  0.9236 -0.0516  2.6891
   74SLPC   H3S 6569   0.279   6.378   5.854 -0.3732  0.0450  1.2633
   74SLPC   C24 6570   0.426   6.519   5.802 -0.5634  0.5009  0.2381
   74SLPC   H4R 6571   0.513   6.572   5.846 -1.6426  0.0887  3.0592
   74SLPC   H4S 6572   0.381   6.583   5.724 -2.6532 -0.2599  0.7754
   74SLPC   C25 6573   0.495   6.407   5.708  0.3006 -0.4202  0.7155
   74SLPC   H5R 6574   0.416   6.349   5.656 -0.7960  0.5228  1.2880
   74SLPC   H5S 6575   0.550   6.333   5.770  1.2929 -0.1427  0.1843
   74SLPC   C26 6576   0.601   6.480   5.630 -0.1418  0.6988  0.4544
   74SLPC   H6R 6577   0.679   6.516   5.700  1.5997  1.6338 -1.8227
   74SLPC   H6S 6578   0.561   6.570   5.577  0.0306  1.2858  1.3075
   74SLPC   C27 6579   0.669   6.389   5.529 -0.4763  0.7099  0.6723
   74SLPC   H7R 6580   0.700   6.298   5.583  0.9477  0.2548 -0.8280
   74SLPC   H7S 6581   0.758   6.442   5.487 -2.4149  3.6846 -0.0255
   74SLPC   C28 6582   0.576   6.346   5.408 -0.2618  0.4985 -0.2444
   74SLPC   H8R 6583   0.536   6.442   5.367 -1.1228 -1.1901 -3.7419
   74SLPC   H8S 6584   0.493   6.281   5.441  0.4723 -0.1568  0.3532
   74SLPC   C29 6585   0.660   6.262   5.307  0.1203 -0.5094  0.2845
   74SLPC   H9R 6586   0.662   6.157   5.338 -1.2462 -0.6259  0.0341
   74SLPC  C210 6587   0.716   6.306   5.189  0.0557 -0.7014 -0.1893
   74SLPC  H10R 6588   0.767   6.229   5.129  0.3739  0.5844 -1.6170
   74SLPC  C211 6589   0.714   6.443   5.126  0.1811  0.5327  0.2815
   74SLPC  H11R 6590   0.695   6.523   5.201  1.8001  0.0791  1.2289
   74SLPC  H11S 6591   0.637   6.446   5.046  0.1582  1.2584  0.3257
   74SLPC  C212 6592   0.851   6.460   5.058  0.2912 -0.4991 -0.0342
   74SLPC  H12R 6593   0.919   6.532   5.106  1.6991  0.4027 -3.1685
   74SLPC  C213 6594   0.901   6.411   4.946 -0.0853  0.4186 -0.8571
   74SLPC  H13R 6595   1.002   6.443   4.917  0.6527 -0.3519  0.7280
   74SLPC  C214 6596   0.824   6.319   4.861 -0.3863 -0.6236 -0.4539
   74SLPC  H14R 6597   0.734   6.283   4.916 -0.1439  1.1891  1.2403
   74SLPC  H14S 6598   0.890   6.232   4.840 -1.5007 -1.2896 -1.2825
   74SLPC  C215 6599   0.777   6.384   4.726 -0.3490 -0.3041 -0.1153
   74SLPC  H15R 6600   0.863   6.438   4.682  1.4973 -2.0965  1.0779
   74SLPC  H15S 6601   0.696   6.455   4.752  1.1356  2.3289 -2.1614
   74SLPC  C216 6602   0.713   6.288   4.613  0.5784  0.3365 -0.9309
   74SLPC  H16R 6603   0.627   6.236   4.661  1.5812 -0.2571  0.2878
   74SLPC  H16S 6604   0.781   6.202   4.591  1.3420  1.1306 -1.7575
   74SLPC  C217 6605   0.677   6.376   4.489  0.9902  0.3480 -0.2839
   74SLPC  H17R 6606   0.657   6.317   4.396  1.8090  4.0566 -3.0477
   74SLPC  H17S 6607   0.767   6.438   4.467  1.1641  0.9132  1.8064
   74SLPC  C218 6608   0.553   6.468   4.501 -0.5678 -0.0020  0.6087
   74SLPC  H18R 6609   0.575   6.547   4.576  2.0382  1.2795 -1.3421
   74SLPC  H18S 6610   0.457   6.417   4.525 -0.6665 -0.3389 -0.4649
   74SLPC  H18T 6611   0.544   6.515   4.401 -0.9487  1.1409  1.1591
   74SLPC   C33 6612   0.239   6.009   5.710 -1.0658 -0.0093  0.4339
   74SLPC   H3X 6613   0.249   6.118   5.726  1.5057  0.3096 -2.3452
   74SLPC   H3Y 6614   0.135   5.980   5.733 -1.0514  0.0127  0.5263
   74SLPC   C34 6615   0.259   5.983   5.558  0.3774  0.0279  0.0020
   74SLPC   H4X 6616   0.257   5.874   5.536  0.7783 -0.4085  1.9720
   74SLPC   H4Y 6617   0.359   6.016   5.523 -1.5288  4.6848 -1.9053
   74SLPC   C35 6618   0.146   6.048   5.477  0.0198  0.6181  0.3270
   74SLPC   H5X 6619   0.143   6.157   5.499  0.6264  0.8068 -0.4819
   74SLPC   H5Y 6620   0.051   5.992   5.488 -0.0961  0.6267 -0.5580
   74SLPC   C36 6621   0.184   6.026   5.333 -0.1138 -0.0954  0.3294
   74SLPC   H6X 6622   0.085   6.029   5.283  0.1924  0.0259 -0.2723
   74SLPC   H6Y 6623   0.220   5.922   5.321  1.5836  0.3024  1.5914
   74SLPC   C37 6624   0.282   6.124   5.276  0.7294  0.0437  0.4385
   74SLPC   H7X 6625   0.389   6.093   5.276  0.8272  0.3016 -1.1433
   74SLPC   H7Y 6626   0.264   6.222   5.325  1.3800  0.1114  0.5465
   74SLPC   C38 6627   0.269   6.150   5.122  0.5603  1.0521  0.3066
   74SLPC   H8X 6628   0.164   6.182   5.101  0.4401  0.6005  0.2066
   74SLPC   H8Y 6629   0.280   6.058   5.061 -0.1352  1.1283  0.0548
   74SLPC   C39 6630   0.349   6.264   5.057 -0.3423  0.9018  0.5123
   74SLPC   H9X 6631   0.459   6.244   5.059 -0.8781 -2.6059  2.0930
   74SLPC   H9Y 6632   0.323   6.361   5.103  1.4101  0.9379  1.5032
   74SLPC  C310 6633   0.305   6.294   4.914 -0.9037  0.4636  0.2648
   74SLPC  H10X 6634   0.348   6.393   4.888  0.2284 -0.2303 -0.5802
   74SLPC  H10Y 6635   0.194   6.291   4.910 -0.8945  0.2835  0.1285
   74SLPC  C311 6636   0.366   6.180   4.830 -0.1999  0.2265 -0.4765
   74SLPC  H11X 6637   0.356   6.082   4.881 -0.9575  0.9536  0.8387
   74SLPC  H11Y 6638   0.474   6.203   4.818 -1.1305  3.7048 -4.6260
   74SLPC  C312 6639   0.317   6.184   4.684  0.6235 -0.2269  0.3171
   74SLPC  H12X 6640   0.351   6.272   4.625 -0.4745 -1.5253 -2.4289
   74SLPC  H12Y 6641   0.210   6.212   4.699  0.6992  0.7961 -0.8662
   74SLPC  C313 6642   0.340   6.068   4.588  0.2389 -0.0588  0.4926
   74SLPC  H13X 6643   0.307   5.982   4.649  0.6571 -0.7880 -0.2949
   74SLPC  H13Y 6644   0.449   6.055   4.571  0.0163 -1.6598  0.1269
   74SLPC  C314 6645   0.254   6.077   4.462  0.9199 -0.0954  0.9009
   74SLPC  H14X 6646   0.298   6.151   4.392 -1.4967  0.0903 -0.5281
   74SLPC  H14Y 6647   0.146   6.099   4.480  1.2362  2.6312 -0.0959
   74SLPC  C315 6648   0.254   5.943   4.385 -0.2726  0.4116  0.3328
   74SLPC  H15X 6649   0.197   5.952   4.290 -0.9146 -0.9134  0.5628
   74SLPC  H15Y 6650   0.209   5.865   4.451  0.5845  0.0696  0.5196
   74SLPC  C316 6651   0.396   5.894   4.341  0.1569  0.2672 -0.2638
   74SLPC  H16X 6652   0.455   5.861   4.429 -1.2533 -0.7694  0.3302
   74SLPC  H16Y 6653   0.452   5.983   4.305  1.8861 -1.5390 -2.3547
   74SLPC  C317 6654   0.398   5.781   4.234 -0.2849 -0.6238  0.4647
   74SLPC  H17X 6655   0.503   5.776   4.199 -1.2939  1.4236 -3.4122
   74SLPC  H17Y 6656   0.355   5.824   4.141  2.1903  0.6203 -0.1999
   74SLPC  C318 6657   0.345   5.647   4.286 -0.0587 -0.1100  0.1517
   74SLPC  H18X 6658   0.340   5.564   4.213 -2.3244  0.0485  0.0635
   74SLPC  H18Y 6659   0.247   5.657   4.337 -1.4351 -1.1386 -2.1433
   74SLPC  H18Z 6660   0.416   5.612   4.364  0.1017 -0.7357 -0.2763
   75SLPC     N 6661   3.689   1.980   6.974 -0.1326 -0.7144  0.1988
   75SLPC   C13 6662   3.616   2.101   7.010  0.2834 -0.2000  0.2114
   75SLPC  H13A 6663   3.508   2.090   7.013  0.2063 -0.7377 -2.5769
   75SLPC  H13B 6664   3.647   2.135   7.108  0.1971  4.8947 -1.2523
   75SLPC  H13C 6665   3.639   2.183   6.944  3.2019  0.3252  1.6970
   75SLPC   C14 6666   3.645   1.923   6.844  0.4707 -0.0192  0.0060
   75SLPC  H14A 6667   3.537   1.920   6.839  0.4023  0.2960  1.1086
   75SLPC  H14B 6668   3.671   1.991   6.764 -0.9570  1.5725  0.8482
   75SLPC  H14C 6669   3.704   1.839   6.811  0.2577  0.6122 -2.1248
   75SLPC   C15 6670   3.654   1.878   7.082 -0.1717  0.4994 -0.1303
   75SLPC  H15A 6671   3.734   1.805   7.081  1.5749  2.3114  0.3358
   75SLPC  H15B 6672   3.649   1.913   7.184  0.3519  0.6483 -0.1549
   75SLPC  H15C 6673   3.556   1.833   7.075 -1.1173  2.5597 -0.7598
   75SLPC   C12 6674   3.838   2.009   6.973  0.5107 -0.9821  0.1378
   75SLPC  H12A 6675   3.877   2.041   7.069 -1.3151 -0.4103  0.7367
   75SLPC  H12B 6676   3.848   2.098   6.913 -1.4189 -0.9529 -0.2109
   75SLPC   C11 6677   3.939   1.919   6.907  0.4429 -0.1756  0.5260
   75SLPC  H11A 6678   3.913   1.815   6.936 -0.2789 -0.2508 -0.3520
   75SLPC  H11B 6679   4.043   1.935   6.942 -0.6795  2.0825  3.2211
   75SLPC     P 6680   4.008   2.040   6.691  0.0284 -0.1808 -0.3646
   75SLPC   O13 6681   3.976   2.167   6.753 -0.3845  0.1836 -0.2071
   75SLPC   O14 6682   4.151   2.004   6.674 -0.6546 -0.2902 -0.3683
   75SLPC   O12 6683   3.926   1.924   6.764  0.1757 -0.4287 -0.4632
   75SLPC   O11 6684   3.945   2.023   6.544  0.2326 -0.4240 -0.6270
   75SLPC    C1 6685   3.805   2.009   6.544  0.1735  0.1514 -0.5532
   75SLPC    HA 6686   3.768   1.904   6.556  2.0133 -0.5042 -0.3086
   75SLPC    HB 6687   3.748   2.079   6.609  0.3609 -0.8660  0.7661
   75SLPC    C2 6688   3.756   2.037   6.390  0.6503 -0.2246  0.3034
   75SLPC    HS 6689   3.662   1.978   6.379  0.7501 -0.2100 -0.7076
   75SLPC   O21 6690   3.853   2.000   6.289  0.0365 -0.1981  0.2544
   75SLPC   C21 6691   3.885   1.865   6.289 -0.2811 -0.8863 -0.5370
   75SLPC   O22 6692   3.829   1.787   6.365  0.6965  0.2727  1.0657
   75SLPC   C22 6693   3.992   1.844   6.180 -0.6189  0.6351 -0.0021
   75SLPC   H2R 6694   3.994   1.931   6.112  2.8980  0.3236 -0.5372
   75SLPC   H2S 6695   4.091   1.840   6.232 -1.5116  2.7020  1.9844
   75SLPC    C3 6696   3.721   2.186   6.369  0.4280  0.4776  0.0353
   75SLPC    HX 6697   3.797   2.245   6.423 -0.8086  1.4012  0.8155
   75SLPC    HY 6698   3.624   2.208   6.418  0.4444  1.7677 -0.4779
   75SLPC   O31 6699   3.727   2.238   6.237  0.3743  0.6692 -0.5303
   75SLPC   C31 6700   3.617   2.209   6.165 -0.1768  0.3772 -0.5801
   75SLPC   O32 6701   3.507   2.176   6.204 -0.3202  0.2818 -0.5184
   75SLPC   C32 6702   3.652   2.236   6.017  0.1865 -0.3567  0.1514
   75SLPC   H2X 6703   3.682   2.343   6.006  0.5950 -0.6624 -2.3302
   75SLPC   H2Y 6704   3.558   2.224   5.958 -0.6700  2.7793  0.6695
   75SLPC   C23 6705   3.984   1.710   6.095  0.6641 -0.4495  0.0528
   75SLPC   H3R 6706   3.965   1.619   6.157 -0.6103 -2.5356 -3.1604
   75SLPC   H3S 6707   4.088   1.693   6.058  1.1512  0.9615  0.6944
   75SLPC   C24 6708   3.887   1.715   5.976  1.1589  0.2594 -0.1731
   75SLPC   H4R 6709   3.911   1.632   5.908 -2.7919 -1.8172  0.6486
   75SLPC   H4S 6710   3.897   1.812   5.922  1.2860  0.3641  0.0341
   75SLPC   C25 6711   3.741   1.680   6.012 -0.0543 -0.6368 -0.0853
   75SLPC   H5R 6712   3.707   1.774   6.061  0.7270 -1.3046  1.8389
   75SLPC   H5S 6713   3.738   1.586   6.070  2.7895 -0.5938  0.2708
   75SLPC   C26 6714   3.665   1.671   5.877 -0.2942 -1.2457  0.0178
   75SLPC   H6R 6715   3.669   1.568   5.834 -0.7032 -0.3728 -2.2647
   75SLPC   H6S 6716   3.711   1.732   5.797 -2.6069 -0.6979 -0.9801
   75SLPC   C27 6717   3.513   1.707   5.888 -0.1915  0.1152 -0.7127
   75SLPC   H7R 6718   3.493   1.664   5.989  2.2254 -0.1660 -0.2816
   75SLPC   H7S 6719   3.460   1.651   5.808  1.2464 -3.4938  0.6236
   75SLPC   C28 6720   3.487   1.861   5.876 -0.9846 -0.6777  0.0043
   75SLPC   H8R 6721   3.527   1.880   5.774  0.8097 -1.7102  0.4677
   75SLPC   H8S 6722   3.549   1.924   5.944  0.1815  0.1366 -1.7181
   75SLPC   C29 6723   3.345   1.912   5.891  0.4531  0.1421 -0.3180
   75SLPC   H9R 6724   3.313   1.915   5.997  0.1191  1.7415 -0.4280
   75SLPC  C210 6725   3.264   1.955   5.797  0.3261  0.3885 -0.4374
   75SLPC  H10R 6726   3.165   1.987   5.832  0.1794 -0.8792  0.3862
   75SLPC  C211 6727   3.281   1.939   5.650  0.1895 -0.6320 -0.0030
   75SLPC  H11R 6728   3.374   1.982   5.607  0.3206 -0.4353  0.4642
   75SLPC  H11S 6729   3.202   1.998   5.599  1.0757  1.5248  1.0018
   75SLPC  C212 6730   3.290   1.796   5.595  0.1450 -0.1707 -0.3075
   75SLPC  H12R 6731   3.330   1.723   5.667  0.5774 -0.1523 -0.5244
   75SLPC  C213 6732   3.258   1.755   5.475 -0.1763  0.1643 -0.1905
   75SLPC  H13R 6733   3.266   1.647   5.455 -1.7785 -0.0645  0.2674
   75SLPC  C214 6734   3.190   1.834   5.360 -0.7991  0.0962 -0.4297
   75SLPC  H14R 6735   3.193   1.942   5.386  0.2594  0.2367 -1.0702
   75SLPC  H14S 6736   3.084   1.806   5.346 -0.5526 -0.9071 -0.3543
   75SLPC  C215 6737   3.263   1.823   5.223 -1.2817 -0.3942 -0.0490
   75SLPC  H15R 6738   3.257   1.723   5.175  1.5406 -0.1846 -1.0712
   75SLPC  H15S 6739   3.364   1.868   5.234 -0.6736 -2.1047  2.0857
   75SLPC  C216 6740   3.187   1.913   5.131 -0.3775 -0.4791  0.2358
   75SLPC  H16R 6741   3.168   2.018   5.162  0.3965 -0.4644  0.6809
   75SLPC  H16S 6742   3.085   1.869   5.119 -0.6653 -0.0870  1.1762
   75SLPC  C217 6743   3.251   1.908   4.991  0.0607  0.5192  0.5384
   75SLPC  H17R 6744   3.293   1.807   4.970 -1.8725 -0.3294  0.5670
   75SLPC  H17S 6745   3.342   1.973   4.991  2.5038 -2.5916  2.5603
   75SLPC  C218 6746   3.153   1.953   4.878  0.0391 -0.3734 -1.0868
   75SLPC  H18R 6747   3.119   2.056   4.904 -0.7479 -1.3984  2.4920
   75SLPC  H18S 6748   3.072   1.877   4.885  1.1781 -1.7558 -2.3128
   75SLPC  H18T 6749   3.193   1.956   4.774 -1.2813 -0.2738 -1.6189
   75SLPC   C33 6750   3.763   2.140   5.971 -0.4614  0.6827  0.2009
   75SLPC   H3X 6751   3.736   2.041   6.014 -0.4917  1.1325  1.2402
   75SLPC   H3Y 6752   3.861   2.160   6.019  0.0787 -0.2959 -0.4481
   75SLPC   C34 6753   3.784   2.131   5.814  0.2659  0.6604  0.2179
   75SLPC   H4X 6754   3.781   2.236   5.777 -0.1676  0.6023  0.0856
   75SLPC   H4Y 6755   3.696   2.081   5.768  1.1742  0.2790 -1.1899
   75SLPC   C35 6756   3.919   2.076   5.774  0.2661 -0.1747  0.1674
   75SLPC   H5X 6757   3.921   1.970   5.809 -0.5742 -0.1303  0.3727
   75SLPC   H5Y 6758   4.004   2.121   5.829 -0.1584  0.6151  0.1840
   75SLPC   C36 6759   3.951   2.074   5.621 -0.2064 -0.5962 -0.3065
   75SLPC   H6X 6760   4.046   2.018   5.609  0.1164  0.1859 -1.5664
   75SLPC   H6Y 6761   3.984   2.175   5.589 -2.6087  0.0459 -0.9514
   75SLPC   C37 6762   3.847   2.021   5.525  0.2220  1.0441  0.6765
   75SLPC   H7X 6763   3.852   2.073   5.427 -3.9139 -0.2733 -0.4355
   75SLPC   H7Y 6764   3.741   2.025   5.559  0.3774  0.9827  1.1719
   75SLPC   C38 6765   3.882   1.877   5.485  0.6199 -0.1087  0.0012
   75SLPC   H8X 6766   3.866   1.813   5.575 -1.7013 -0.7290 -0.7800
   75SLPC   H8Y 6767   3.988   1.866   5.453  0.1979 -3.2007 -0.6474
   75SLPC   C39 6768   3.799   1.826   5.360  0.0566 -0.2254  0.3352
   75SLPC   H9X 6769   3.808   1.907   5.285  1.8211 -0.3499  0.3727
   75SLPC   H9Y 6770   3.694   1.794   5.380  0.0928 -1.2108 -0.9263
   75SLPC  C310 6771   3.857   1.698   5.302  0.0075 -0.2063  0.7422
   75SLPC  H10X 6772   3.835   1.609   5.365 -2.1277  0.2912  0.7745
   75SLPC  H10Y 6773   3.967   1.707   5.304  0.2527 -1.7178 -1.4754
   75SLPC  C311 6774   3.807   1.662   5.158 -0.9828  0.3030  0.3202
   75SLPC  H11X 6775   3.834   1.746   5.091  0.5212  0.6520  1.3238
   75SLPC  H11Y 6776   3.698   1.643   5.164 -0.7385 -0.8981  1.2908
   75SLPC  C312 6777   3.883   1.545   5.103 -1.2085 -0.2737  0.2578
   75SLPC  H12X 6778   3.848   1.449   5.145 -2.0983 -0.5408 -1.0417
   75SLPC  H12Y 6779   3.991   1.563   5.121 -1.7366  2.5064  1.1503
   75SLPC  C313 6780   3.865   1.525   4.953  0.0956  0.0159 -0.3845
   75SLPC  H13X 6781   3.903   1.610   4.893 -3.2721  1.5837 -0.4978
   75SLPC  H13Y 6782   3.758   1.533   4.927  0.0913 -0.7626 -0.6444
   75SLPC  C314 6783   3.901   1.389   4.896  0.2218  0.1306  0.1051
   75SLPC  H14X 6784   3.836   1.307   4.935 -1.9048  1.1072 -1.1628
   75SLPC  H14Y 6785   4.010   1.382   4.913  0.2284 -0.0504 -0.0096
   75SLPC  C315 6786   3.881   1.377   4.740  0.2028  0.0830 -0.3815
   75SLPC  H15X 6787   3.941   1.287   4.714 -0.1684 -0.6995  1.3794
   75SLPC  H15Y 6788   3.924   1.474   4.706 -1.6659  1.6437  1.4077
   75SLPC  C316 6789   3.728   1.357   4.711  0.3975  0.1564 -0.0616
   75SLPC  H16X 6790   3.685   1.455   4.741 -1.2330 -0.5102 -0.1031
   75SLPC  H16Y 6791   3.685   1.283   4.782 -1.9145  1.4217 -0.0443
   75SLPC  C317 6792   3.701   1.338   4.559 -0.0278 -0.0183  0.4943
   75SLPC  H17X 6793   3.744   1.425   4.505  0.9106 -0.3930  0.6318
   75SLPC  H17Y 6794   3.592   1.350   4.541 -0.1439  1.4080  1.9474
   75SLPC  C318 6795   3.751   1.202   4.504 -0.3945 -0.3504  0.1421
   75SLPC  H18X 6796   3.706   1.181   4.404 -0.5331  0.1258  0.1025
   75SLPC  H18Y 6797   3.724   1.114   4.567 -0.8236 -1.5187 -1.5896
   75SLPC  H18Z 6798   3.859   1.217   4.482 -0.1129 -1.6086  0.5549
   76SLPC     N 6799   0.304   0.645   6.598  0.7500 -0.2639  0.1683
   76SLPC   C13 6800   0.421   0.701   6.529 -0.6120  1.0806 -0.1081
   76SLPC  H13A 6801   0.518   0.679   6.571 -0.4583 -0.9834 -1.4427
   76SLPC  H13B 6802   0.435   0.654   6.433  4.9827  0.1316  0.8110
   76SLPC  H13C 6803   0.408   0.805   6.502  1.1227  1.1179 -0.9353
   76SLPC   C14 6804   0.297   0.698   6.736 -0.5041 -0.6616 -0.0173
   76SLPC  H14A 6805   0.283   0.805   6.728 -0.5499 -0.7092 -0.5802
   76SLPC  H14B 6806   0.212   0.657   6.788  0.9878 -1.6013  1.7984
   76SLPC  H14C 6807   0.386   0.675   6.793  0.4921  0.4406 -1.0643
   76SLPC   C15 6808   0.305   0.497   6.608 -0.1711  0.2352 -0.0980
   76SLPC  H15A 6809   0.397   0.479   6.661  0.1538 -1.5246 -1.1659
   76SLPC  H15B 6810   0.231   0.452   6.672  1.1699 -2.2186 -0.1404
   76SLPC  H15C 6811   0.316   0.446   6.513  0.1900  1.7084 -0.8717
   76SLPC   C12 6812   0.182   0.683   6.525  0.5639 -0.1294 -0.7077
   76SLPC  H12A 6813   0.096   0.627   6.560  0.6680 -0.3600 -0.8184
   76SLPC  H12B 6814   0.199   0.653   6.423  2.5387 -1.1163 -0.1353
   76SLPC   C11 6815   0.138   0.832   6.521 -0.2232  0.5108  0.4606
   76SLPC  H11A 6816   0.059   0.844   6.444 -0.0317  1.8546  0.4385
   76SLPC  H11B 6817   0.225   0.890   6.483  1.2783 -1.7751  0.2010
   76SLPC     P 6818  -0.050   0.869   6.697  0.1321 -0.6048 -0.0082
   76SLPC   O13 6819  -0.090   0.729   6.674  0.6374 -0.8841 -0.1524
   76SLPC   O14 6820  -0.063   0.922   6.835 -0.7207  0.5575  0.0165
   76SLPC   O12 6821   0.097   0.886   6.644  0.3249 -0.0655 -0.1095
   76SLPC   O11 6822  -0.142   0.962   6.601 -0.3129  0.4453 -0.3803
   76SLPC    C1 6823  -0.104   1.094   6.557 -0.8002  0.4048  0.0811
   76SLPC    HA 6824  -0.114   1.171   6.636 -1.4217  0.7162 -0.2949
   76SLPC    HB 6825   0.004   1.101   6.534 -0.0015 -0.9127  3.0102
   76SLPC    C2 6826  -0.198   1.160   6.449  0.1056  0.8442 -0.0104
   76SLPC    HS 6827  -0.297   1.166   6.499 -0.5151 -2.0494 -0.6588
   76SLPC   O21 6828  -0.205   1.065   6.337  0.3255 -0.1394  0.2357
   76SLPC   C21 6829  -0.318   1.070   6.264 -0.6521 -1.4045  0.1931
   76SLPC   O22 6830  -0.412   1.150   6.283 -0.2179 -0.2062 -0.0965
   76SLPC   C22 6831  -0.313   0.945   6.165 -0.6963  0.0622  0.4651
   76SLPC   H2R 6832  -0.210   0.928   6.126 -0.4483  1.3508  0.5194
   76SLPC   H2S 6833  -0.348   0.858   6.224 -2.0832 -0.7961 -1.5216
   76SLPC    C3 6834  -0.144   1.297   6.394  0.3934  0.0591  0.1266
   76SLPC    HX 6835  -0.052   1.265   6.340  1.6822  1.3099  1.4811
   76SLPC    HY 6836  -0.106   1.356   6.480  0.6200  0.1542 -0.0381
   76SLPC   O31 6837  -0.242   1.374   6.322  0.1105 -0.2794  0.0213
   76SLPC   C31 6838  -0.335   1.431   6.399  0.4568  1.1063  0.4409
   76SLPC   O32 6839  -0.338   1.426   6.524  0.0043  0.1620  0.8974
   76SLPC   C32 6840  -0.442   1.510   6.317  0.1494  0.9619  0.5319
   76SLPC   H2X 6841  -0.518   1.540   6.392  0.7730  0.1989  1.4917
   76SLPC   H2Y 6842  -0.485   1.440   6.242  0.2030  1.9007 -0.3978
   76SLPC   C23 6843  -0.403   0.950   6.037  0.4323  0.1695 -0.5266
   76SLPC   H3R 6844  -0.366   1.017   5.957 -0.3572  0.9327 -0.2758
   76SLPC   H3S 6845  -0.509   0.976   6.059  0.3102  0.1879 -1.1216
   76SLPC   C24 6846  -0.402   0.807   5.982  0.1211 -0.6488  0.1434
   76SLPC   H4R 6847  -0.468   0.759   6.057 -1.5131 -1.3768 -1.6662
   76SLPC   H4S 6848  -0.299   0.768   5.971  0.7582  0.7217  0.9452
   76SLPC   C25 6849  -0.472   0.815   5.849  0.3312 -0.7270 -0.4573
   76SLPC   H5R 6850  -0.418   0.882   5.779  1.2076  0.2307  1.0815
   76SLPC   H5S 6851  -0.575   0.854   5.859  1.0928  0.7781  3.0772
   76SLPC   C26 6852  -0.481   0.674   5.778 -0.5794  0.3945  0.5365
   76SLPC   H6R 6853  -0.548   0.691   5.691  0.0688 -1.0241 -0.2729
   76SLPC   H6S 6854  -0.525   0.604   5.852  1.2311 -3.6303 -1.8637
   76SLPC   C27 6855  -0.356   0.610   5.715 -0.3942  0.4881  0.1528
   76SLPC   H7R 6856  -0.285   0.616   5.800 -1.1261  0.2356  0.7946
   76SLPC   H7S 6857  -0.316   0.661   5.624 -1.1784  0.1781 -0.3765
   76SLPC   C28 6858  -0.375   0.466   5.680  0.5384 -0.7573  0.9502
   76SLPC   H8R 6859  -0.407   0.429   5.780  1.4706  0.9089  1.9224
   76SLPC   H8S 6860  -0.281   0.423   5.640  0.8309  1.3521 -0.8757
   76SLPC   C29 6861  -0.482   0.450   5.571  0.2119  0.3487 -0.6730
   76SLPC   H9R 6862  -0.582   0.426   5.610 -0.4587  2.2267 -1.1604
   76SLPC  C210 6863  -0.470   0.470   5.441 -0.2489  0.0680 -0.4201
   76SLPC  H10R 6864  -0.557   0.445   5.378 -0.1177  0.5653 -0.8144
   76SLPC  C211 6865  -0.346   0.495   5.358  0.1414  0.4370 -0.1455
   76SLPC  H11R 6866  -0.322   0.405   5.298  0.4125  0.0060  0.5937
   76SLPC  H11S 6867  -0.258   0.490   5.426 -0.0939  0.9808  0.2002
   76SLPC  C212 6868  -0.362   0.617   5.279  0.5456 -0.2992 -0.1048
   76SLPC  H12R 6869  -0.340   0.704   5.342 -3.4312  0.2569  0.8154
   76SLPC  C213 6870  -0.380   0.634   5.145  0.7408 -0.0508 -0.0722
   76SLPC  H13R 6871  -0.390   0.732   5.095  1.7289  0.6571  1.0544
   76SLPC  C214 6872  -0.408   0.512   5.058 -0.1486 -0.0325  0.0573
   76SLPC  H14R 6873  -0.496   0.519   4.991 -0.2736  1.0922  0.3233
   76SLPC  H14S 6874  -0.417   0.419   5.118  0.0339 -0.1813 -0.1447
   76SLPC  C215 6875  -0.288   0.487   4.959  0.5654  0.4985 -0.0138
   76SLPC  H15R 6876  -0.300   0.409   4.882  0.5650  1.8152 -1.4059
   76SLPC  H15S 6877  -0.190   0.482   5.012  0.1615 -2.7375  0.6052
   76SLPC  C216 6878  -0.255   0.609   4.872  0.4203 -0.2505  0.3168
   76SLPC  H16R 6879  -0.256   0.693   4.946  0.1245 -1.0283  1.2105
   76SLPC  H16S 6880  -0.337   0.627   4.799 -0.4226  1.3374  1.5630
   76SLPC  C217 6881  -0.129   0.586   4.792 -0.8431  0.7112 -0.5638
   76SLPC  H17R 6882  -0.129   0.658   4.706 -1.3243  2.5078  0.8761
   76SLPC  H17S 6883  -0.127   0.486   4.745 -2.5928  0.4791 -0.2122
   76SLPC  C218 6884   0.001   0.625   4.860  0.2775  0.4179 -0.1172
   76SLPC  H18R 6885   0.089   0.595   4.800  1.1822 -1.6632  2.0915
   76SLPC  H18S 6886   0.008   0.576   4.960  0.3667  0.8673  0.0962
   76SLPC  H18T 6887   0.013   0.735   4.861  2.3995  0.2252 -0.1784
   76SLPC   C33 6888  -0.369   1.632   6.243 -0.9361  0.7550 -0.4415
   76SLPC   H3X 6889  -0.295   1.572   6.187 -0.5685 -0.4629  1.2831
   76SLPC   H3Y 6890  -0.326   1.692   6.326 -0.7063  0.5843 -0.4404
   76SLPC   C34 6891  -0.454   1.726   6.158 -0.2939  0.4330 -0.2486
   76SLPC   H4X 6892  -0.397   1.815   6.123 -0.1864  0.5691  0.2750
   76SLPC   H4Y 6893  -0.540   1.752   6.222  0.3336 -0.9025  1.1858
   76SLPC   C35 6894  -0.505   1.652   6.037  0.4059  0.1913  0.4492
   76SLPC   H5X 6895  -0.577   1.573   6.066 -0.3355  0.9958  0.8217
   76SLPC   H5Y 6896  -0.417   1.605   5.988  1.9864  3.1249  0.2541
   76SLPC   C36 6897  -0.582   1.741   5.939  0.6270 -0.2693 -0.0881
   76SLPC   H6X 6898  -0.506   1.816   5.907  1.0503 -0.1293  1.1960
   76SLPC   H6Y 6899  -0.663   1.804   5.982  0.9854 -0.1333  0.3968
   76SLPC   C37 6900  -0.628   1.661   5.818 -0.0429  0.4058  0.4569
   76SLPC   H7X 6901  -0.731   1.619   5.824 -0.4913  0.5258 -3.8601
   76SLPC   H7Y 6902  -0.561   1.574   5.798 -0.6459 -0.1559  0.8304
   76SLPC   C38 6903  -0.639   1.742   5.686 -0.4514 -0.1914  0.6152
   76SLPC   H8X 6904  -0.550   1.804   5.658 -1.7095  1.6631  0.5227
   76SLPC   H8Y 6905  -0.713   1.824   5.695 -0.8870 -0.5954  0.6922
   76SLPC   C39 6906  -0.689   1.665   5.559 -0.5046  0.1517  0.3638
   76SLPC   H9X 6907  -0.767   1.588   5.574 -0.7954  0.0400 -1.4990
   76SLPC   H9Y 6908  -0.600   1.619   5.511  0.3912  1.5994  0.5798
   76SLPC  C310 6909  -0.745   1.763   5.456 -0.5390 -1.0489 -0.6249
   76SLPC  H10X 6910  -0.662   1.834   5.436  0.3880 -1.6540  0.9259
   76SLPC  H10Y 6911  -0.823   1.823   5.508  2.4775  1.5338  1.3117
   76SLPC  C311 6912  -0.798   1.695   5.328 -0.2429  0.1749 -0.3235
   76SLPC  H11X 6913  -0.866   1.613   5.360 -1.3225  1.3667  0.5439
   76SLPC  H11Y 6914  -0.711   1.656   5.271 -1.9647 -0.7965 -2.4047
   76SLPC  C312 6915  -0.867   1.792   5.235  0.8076 -0.3703  0.6835
   76SLPC  H12X 6916  -0.935   1.850   5.301  1.1580 -0.5058  1.1719
   76SLPC  H12Y 6917  -0.938   1.735   5.172  1.5065  0.9796 -1.4171
   76SLPC  C313 6918  -0.776   1.871   5.146  0.4642 -0.6257  0.6467
   76SLPC  H13X 6919  -0.716   1.800   5.085 -0.4749 -1.3714  0.5650
   76SLPC  H13Y 6920  -0.710   1.942   5.200  0.3052 -0.6453  0.8679
   76SLPC  C314 6921  -0.868   1.940   5.039  0.2855  0.1342  0.5784
   76SLPC  H14X 6922  -0.895   2.034   5.091  0.9786  0.7772 -0.2042
   76SLPC  H14Y 6923  -0.960   1.882   5.016  1.2730 -1.1579 -0.3312
   76SLPC  C315 6924  -0.784   1.992   4.915  0.1919  0.5651 -0.1163
   76SLPC  H15X 6925  -0.745   1.904   4.860  1.1214 -0.8562  2.6367
   76SLPC  H15Y 6926  -0.695   2.042   4.958  0.5058 -0.3989  0.3866
   76SLPC  C316 6927  -0.868   2.085   4.820 -0.1567  0.3290  0.0920
   76SLPC  H16X 6928  -0.881   2.191   4.850  2.1895  1.4921 -2.5367
   76SLPC  H16Y 6929  -0.975   2.052   4.816 -0.1231  0.3038 -0.7428
   76SLPC  C317 6930  -0.816   2.093   4.677  0.6462  0.8108 -0.1331
   76SLPC  H17X 6931  -0.880   2.165   4.623 -0.2459  0.0423 -0.1260
   76SLPC  H17Y 6932  -0.817   1.993   4.629 -1.3871  0.7334 -0.0123
   76SLPC  C318 6933  -0.669   2.133   4.687 -0.5285  0.4501 -0.2195
   76SLPC  H18X 6934  -0.608   2.048   4.725  0.5401  0.9002 -0.8916
   76SLPC  H18Y 6935  -0.655   2.218   4.756 -3.1366  1.8654 -1.3002
   76SLPC  H18Z 6936  -0.636   2.154   4.583 -0.6986 -0.4405 -0.4684
   77SLPC     N 6937   4.675   5.294   6.359 -0.5991  0.2748 -0.0794
   77SLPC   C13 6938   4.627   5.152   6.358  0.1090  0.0888  0.2693
   77SLPC  H13A 6939   4.685   5.084   6.297 -1.8310  0.2411 -1.8436
   77SLPC  H13B 6940   4.616   5.114   6.459 -0.9744  0.7109  0.4000
   77SLPC  H13C 6941   4.527   5.144   6.318  0.8297 -1.9603 -1.3500
   77SLPC   C14 6942   4.576   5.384   6.427 -0.3156  0.2491 -0.0060
   77SLPC  H14A 6943   4.482   5.377   6.374 -1.1973 -1.8145  1.6690
   77SLPC  H14B 6944   4.543   5.361   6.527 -2.7554 -0.5433 -0.9231
   77SLPC  H14C 6945   4.608   5.487   6.427 -2.2432  0.8995  1.1685
   77SLPC   C15 6946   4.698   5.344   6.215 -0.5167 -0.0209 -0.1964
   77SLPC  H15A 6947   4.745   5.440   6.201 -0.6601 -0.0870 -1.2264
   77SLPC  H15B 6948   4.739   5.256   6.166  1.8934  0.1523  1.3391
   77SLPC  H15C 6949   4.600   5.368   6.175  0.1874  0.2279 -1.8477
   77SLPC   C12 6950   4.803   5.304   6.440  0.0843  0.0746 -0.9106
   77SLPC  H12A 6951   4.880   5.243   6.394  0.2517  0.7103 -1.4800
   77SLPC  H12B 6952   4.771   5.280   6.540 -0.4440  2.4489 -0.4458
   77SLPC   C11 6953   4.863   5.450   6.458  0.7385  0.2035  0.8884
   77SLPC  H11A 6954   4.878   5.496   6.358 -0.0596 -2.1095 -0.3664
   77SLPC  H11B 6955   4.964   5.443   6.504  1.3274 -1.0385 -0.5038
   77SLPC     P 6956   4.792   5.683   6.561  0.5389 -0.0897 -0.1799
   77SLPC   O13 6957   4.652   5.732   6.535  0.2086 -0.5588 -0.3921
   77SLPC   O14 6958   4.860   5.726   6.687  0.0619 -0.4588  0.6526
   77SLPC   O12 6959   4.787   5.527   6.548  0.1306  0.1195  0.1905
   77SLPC   O11 6960   4.880   5.719   6.441  0.0531  0.8324 -0.1412
   77SLPC    C1 6961   5.007   5.779   6.464 -0.3503  0.5241 -0.0042
   77SLPC    HA 6962   4.992   5.870   6.526 -1.9433  0.8768 -0.8469
   77SLPC    HB 6963   5.072   5.701   6.509 -0.3805  0.6288  0.2241
   77SLPC    C2 6964   5.088   5.825   6.333 -0.0364  0.2933 -0.2141
   77SLPC    HS 6965   5.177   5.872   6.380 -1.0405  2.3667 -0.2811
   77SLPC   O21 6966   5.015   5.918   6.249 -0.0752 -0.0050  0.1604
   77SLPC   C21 6967   4.986   6.030   6.302 -0.0275  0.4667  0.1683
   77SLPC   O22 6968   5.041   6.073   6.409 -0.2772  0.1552  0.0239
   77SLPC   C22 6969   4.878   6.099   6.229  0.2462 -0.2542  0.1386
   77SLPC   H2R 6970   4.796   6.027   6.211  0.2465 -0.1399 -0.3477
   77SLPC   H2S 6971   4.849   6.188   6.289 -0.2648  0.8689 -1.6828
   77SLPC    C3 6972   5.124   5.701   6.258  0.2278 -0.8630 -0.3155
   77SLPC    HX 6973   5.037   5.632   6.267 -1.7375  1.5204  0.0623
   77SLPC    HY 6974   5.208   5.648   6.308  0.5489 -2.0389 -2.0134
   77SLPC   O31 6975   5.155   5.721   6.118 -0.4443 -0.9101  0.1225
   77SLPC   C31 6976   5.273   5.790   6.096 -0.3751 -0.0244 -0.1618
   77SLPC   O32 6977   5.342   5.838   6.183  0.0532 -0.1775 -0.9631
   77SLPC   C32 6978   5.284   5.796   5.945 -0.1219  0.1561 -0.2996
   77SLPC   H2X 6979   5.208   5.728   5.901  0.1004 -0.6451  0.5283
   77SLPC   H2Y 6980   5.389   5.791   5.909 -0.3743 -0.5055 -0.9524
   77SLPC   C23 6981   4.941   6.134   6.093  0.2495 -0.3426 -0.1933
   77SLPC   H3R 6982   4.950   6.041   6.032 -1.7819 -0.7773  0.0908
   77SLPC   H3S 6983   5.042   6.179   6.104  0.8747 -1.6162 -0.5328
   77SLPC   C24 6984   4.864   6.246   6.021 -0.5398 -0.7057 -0.2165
   77SLPC   H4R 6985   4.880   6.338   6.081  1.6337 -0.7713 -0.6094
   77SLPC   H4S 6986   4.757   6.221   6.012 -0.6353  0.0553 -1.4045
   77SLPC   C25 6987   4.917   6.286   5.880 -0.6330  0.5176 -0.3121
   77SLPC   H5R 6988   5.027   6.300   5.890 -0.8129  0.5768  2.0606
   77SLPC   H5S 6989   4.873   6.381   5.842  0.9822  0.5150 -2.3499
   77SLPC   C26 6990   4.879   6.179   5.770 -0.2615  0.4430 -0.8879
   77SLPC   H6R 6991   4.768   6.175   5.765 -0.3422  1.8530 -0.4351
   77SLPC   H6S 6992   4.912   6.081   5.810  1.7749  1.5576  0.3585
   77SLPC   C27 6993   4.939   6.208   5.640 -0.1493 -0.1873  0.2161
   77SLPC   H7R 6994   5.045   6.235   5.659 -0.3676  0.6794  0.2534
   77SLPC   H7S 6995   4.906   6.301   5.590 -0.6955  0.3745  1.5626
   77SLPC   C28 6996   4.927   6.099   5.537  0.1832 -0.6046  0.3166
   77SLPC   H8R 6997   4.929   5.994   5.573  0.1838 -1.0864 -1.0323
   77SLPC   H8S 6998   5.003   6.115   5.458  1.5766  0.7858  1.8551
   77SLPC   C29 6999   4.797   6.110   5.466 -0.1773  0.1682 -0.4174
   77SLPC   H9R 7000   4.715   6.069   5.527  0.8754 -0.3112  0.7408
   77SLPC  C210 7001   4.766   6.185   5.361  0.4724 -0.1631 -0.5144
   77SLPC  H10R 7002   4.661   6.180   5.330  0.5504 -0.2559 -0.7715
   77SLPC  C211 7003   4.859   6.280   5.279  0.0666  0.1702 -0.7148
   77SLPC  H11R 7004   4.906   6.344   5.357 -1.1962  0.1844  0.0818
   77SLPC  H11S 7005   4.803   6.356   5.221  0.3187  0.4089 -0.6454
   77SLPC  C212 7006   4.968   6.208   5.205 -0.2536  0.5577  0.1156
   77SLPC  H12R 7007   5.052   6.174   5.267 -2.7396 -2.5604  2.0849
   77SLPC  C213 7008   4.956   6.192   5.071 -0.3269  0.1096 -0.0100
   77SLPC  H13R 7009   5.040   6.143   5.018  0.3695 -2.3860  3.1245
   77SLPC  C214 7010   4.847   6.232   4.977  0.7462  0.0383  0.2432
   77SLPC  H14R 7011   4.745   6.225   5.021  0.4152 -1.1909 -0.6673
   77SLPC  H14S 7012   4.850   6.161   4.892 -0.9031 -0.4623  0.5606
   77SLPC  C215 7013   4.870   6.384   4.926 -0.3536  0.6359 -0.5749
   77SLPC  H15R 7014   4.973   6.399   4.886  0.2544  0.9360  1.0374
   77SLPC  H15S 7015   4.868   6.442   5.020 -1.4309  0.7599 -0.6666
   77SLPC  C216 7016   4.762   6.433   4.829  0.2070 -0.0392 -0.4145
   77SLPC  H16R 7017   4.663   6.443   4.879  1.5945  0.9640  2.3636
   77SLPC  H16S 7018   4.749   6.342   4.767 -2.1840 -0.9131  1.2106
   77SLPC  C217 7019   4.787   6.550   4.735 -0.6325  0.0542 -0.1452
   77SLPC  H17R 7020   4.887   6.535   4.690 -0.6884  0.2011 -0.3181
   77SLPC  H17S 7021   4.781   6.641   4.799  0.4454 -0.4409  0.6950
   77SLPC  C218 7022   4.682   6.569   4.621  0.1263 -0.0612 -0.0429
   77SLPC  H18R 7023   4.638   6.475   4.580 -0.6124  0.0146  0.5572
   77SLPC  H18S 7024   4.729   6.608   4.528 -3.6934  0.5645 -1.9112
   77SLPC  H18T 7025   4.596   6.630   4.656  0.0381  0.6186 -1.3910
   77SLPC   C33 7026   5.239   5.932   5.900  0.7364 -0.2886 -0.6959
   77SLPC   H3X 7027   5.298   6.006   5.957  0.5451 -0.7124  0.0615
   77SLPC   H3Y 7028   5.132   5.947   5.926  0.5942 -1.7658 -0.3212
   77SLPC   C34 7029   5.275   5.957   5.756 -0.7033 -0.4803 -0.3459
   77SLPC   H4X 7030   5.384   5.975   5.756 -0.6530  0.1548  4.0573
   77SLPC   H4Y 7031   5.219   6.045   5.718 -1.0792  0.3172  1.9102
   77SLPC   C35 7032   5.235   5.844   5.652 -0.2458  0.0791 -0.2202
   77SLPC   H5X 7033   5.124   5.844   5.648 -0.2233 -0.7492 -1.6623
   77SLPC   H5Y 7034   5.276   5.746   5.686  1.1008  0.3205 -1.0386
   77SLPC   C36 7035   5.267   5.883   5.510  0.3400  0.2468 -0.1437
   77SLPC   H6X 7036   5.372   5.916   5.497  1.2495 -0.6574  3.6484
   77SLPC   H6Y 7037   5.197   5.964   5.480 -1.7081 -1.6952 -1.0099
   77SLPC   C37 7038   5.237   5.770   5.408  0.1069  0.3708  0.1108
   77SLPC   H7X 7039   5.126   5.756   5.407  0.1752 -0.1916 -0.3909
   77SLPC   H7Y 7040   5.285   5.678   5.449  2.5043  1.6824  0.3688
   77SLPC   C38 7041   5.284   5.796   5.263 -0.6613  1.2478 -0.2266
   77SLPC   H8X 7042   5.260   5.705   5.204 -0.9420  1.9700 -1.2446
   77SLPC   H8Y 7043   5.395   5.799   5.273 -0.5639  0.0563 -0.7308
   77SLPC   C39 7044   5.239   5.934   5.201  0.2261 -0.1311 -0.6450
   77SLPC   H9X 7045   5.266   6.019   5.266  0.0771  1.0378 -2.0769
   77SLPC   H9Y 7046   5.129   5.924   5.193  0.3020 -1.3043 -0.4404
   77SLPC  C310 7047   5.283   5.967   5.058  0.4486 -0.0278  0.9835
   77SLPC  H10X 7048   5.394   5.975   5.054  0.7428 -2.8971  1.1200
   77SLPC  H10Y 7049   5.227   6.061   5.041 -2.4164 -1.5019  1.6169
   77SLPC  C311 7050   5.220   5.869   4.956 -0.2762  0.6761  0.2695
   77SLPC  H11X 7051   5.116   5.847   4.989 -0.7190  0.2391 -1.3405
   77SLPC  H11Y 7052   5.286   5.780   4.954  0.7407  1.2895 -4.1671
   77SLPC  C312 7053   5.223   5.910   4.807 -0.6214  0.3642 -0.2181
   77SLPC  H12X 7054   5.155   5.998   4.803 -0.1739  0.7725  0.7441
   77SLPC  H12Y 7055   5.180   5.828   4.747  0.4775  0.8876 -1.7897
   77SLPC  C313 7056   5.348   5.958   4.743 -0.3684  0.1611  0.1786
   77SLPC  H13X 7057   5.403   6.027   4.809  0.7154 -0.1328 -0.3925
   77SLPC  H13Y 7058   5.323   6.006   4.646 -1.6330 -1.7033 -0.4762
   77SLPC  C314 7059   5.451   5.847   4.719  0.4149 -0.2065  0.1687
   77SLPC  H14X 7060   5.476   5.804   4.818  0.3695  0.6206  0.5531
   77SLPC  H14Y 7061   5.543   5.902   4.688  0.7601 -0.3911  0.8569
   77SLPC  C315 7062   5.413   5.734   4.627 -0.7059 -0.2276 -0.0985
   77SLPC  H15X 7063   5.361   5.781   4.540  2.1149  0.7765 -1.3599
   77SLPC  H15Y 7064   5.340   5.667   4.678 -2.3290  0.7532 -1.0440
   77SLPC  C316 7065   5.545   5.654   4.589 -0.1453 -0.8306 -0.7068
   77SLPC  H16X 7066   5.599   5.626   4.682  1.9431 -0.2364 -1.6804
   77SLPC  H16Y 7067   5.612   5.713   4.523 -1.2228  0.2509 -0.8781
   77SLPC  C317 7068   5.509   5.518   4.522  0.4202  0.3388  0.0095
   77SLPC  H17X 7069   5.451   5.544   4.431  1.5989  0.2157 -0.8015
   77SLPC  H17Y 7070   5.452   5.460   4.598 -0.9104 -0.5195 -1.5845
   77SLPC  C318 7071   5.629   5.431   4.477  0.3217 -0.0252  0.3843
   77SLPC  H18X 7072   5.677   5.461   4.382  1.1186  0.6612  0.9884
   77SLPC  H18Y 7073   5.575   5.335   4.461 -0.9073  0.4170  1.6695
   77SLPC  H18Z 7074   5.702   5.425   4.561 -0.7378 -3.6351  1.2560
   78SLPC     N 7075   2.741   3.928   6.826  0.3596  0.2719 -0.1436
   78SLPC   C13 7076   2.673   3.791   6.865  0.8436  0.7716 -0.1775
   78SLPC  H13A 7077   2.572   3.793   6.826  0.5809 -0.7619  0.3692
   78SLPC  H13B 7078   2.719   3.706   6.818 -0.3336  0.0164  0.0029
   78SLPC  H13C 7079   2.677   3.779   6.972  1.4806  2.9481  0.1016
   78SLPC   C14 7080   2.885   3.922   6.865 -0.5320 -0.1816 -0.5699
   78SLPC  H14A 7081   2.936   4.017   6.860  1.6293 -1.3354 -2.5088
   78SLPC  H14B 7082   2.886   3.882   6.966 -1.5314 -0.9803 -0.8527
   78SLPC  H14C 7083   2.937   3.851   6.802  1.1356 -0.8177  1.3845
   78SLPC   C15 7084   2.671   4.028   6.915 -0.0509  0.1432  0.0199
   78SLPC  H15A 7085   2.568   4.039   6.884 -0.1226 -0.0441  0.1861
   78SLPC  H15B 7086   2.691   4.014   7.021 -1.2753  0.9515  0.3834
   78SLPC  H15C 7087   2.713   4.125   6.897 -0.6758  0.0317 -2.3815
   78SLPC   C12 7088   2.715   3.954   6.683  0.6499  0.3466  0.6962
   78SLPC  H12A 7089   2.756   4.051   6.658 -2.1050  1.4934  0.2179
   78SLPC  H12B 7090   2.609   3.957   6.663  0.8273  1.0801 -0.2277
   78SLPC   C11 7091   2.763   3.846   6.584 -0.6184  0.0421 -0.8105
   78SLPC  H11A 7092   2.712   3.873   6.489 -2.7703 -0.1781  0.2255
   78SLPC  H11B 7093   2.702   3.754   6.594  1.5314 -1.3460  0.3565
   78SLPC     P 7094   2.989   3.956   6.511  0.0812  0.5464 -0.0163
   78SLPC   O13 7095   2.893   4.052   6.465  0.6344  0.0698  0.4080
   78SLPC   O14 7096   3.095   4.006   6.602 -0.0685 -0.3758  0.0184
   78SLPC   O12 7097   2.904   3.834   6.580 -0.3536 -0.7033  0.0905
   78SLPC   O11 7098   3.051   3.891   6.384 -0.4357 -0.2235 -0.0223
   78SLPC    C1 7099   3.173   3.823   6.385  0.2743  0.1083  0.0615
   78SLPC    HA 7100   3.254   3.897   6.367  0.1134  0.3094  0.1672
   78SLPC    HB 7101   3.188   3.762   6.477 -0.5369 -1.5994 -0.8852
   78SLPC    C2 7102   3.168   3.722   6.267 -0.5526 -0.2088 -0.2362
   78SLPC    HS 7103   3.248   3.645   6.272  0.1604  0.4997 -0.5146
   78SLPC   O21 7104   3.183   3.785   6.137 -1.0231 -0.3936 -0.1526
   78SLPC   C21 7105   3.309   3.810   6.104  0.4134 -0.6315 -0.3550
   78SLPC   O22 7106   3.407   3.767   6.164  0.0406  0.0146  0.2663
   78SLPC   C22 7107   3.313   3.923   6.001 -0.2283 -0.4180  0.9502
   78SLPC   H2R 7108   3.211   3.948   5.963  0.2167  0.4709  0.2885
   78SLPC   H2S 7109   3.344   4.016   6.054  0.2063  0.5801 -0.9703
   78SLPC    C3 7110   3.034   3.645   6.270  0.0881  0.2022 -0.5801
   78SLPC    HX 7111   2.947   3.713   6.275  0.1959  0.2909  0.2466
   78SLPC    HY 7112   3.020   3.586   6.364  0.2506 -1.2290 -1.4201
   78SLPC   O31 7113   3.034   3.548   6.165  0.4371 -0.7742 -0.5781
   78SLPC   C31 7114   2.924   3.532   6.107  0.3489 -0.0246  0.1509
   78SLPC   O32 7115   2.814   3.557   6.158  0.3564  0.2994  0.1520
   78SLPC   C32 7116   2.948   3.471   5.968  0.1375 -0.3010  0.6409
   78SLPC   H2X 7117   2.985   3.367   5.980 -2.9652 -1.3871  1.8530
   78SLPC   H2Y 7118   3.029   3.526   5.915  0.7602 -2.5961 -0.9249
   78SLPC   C23 7119   3.418   3.889   5.888 -0.1392 -0.7852  0.7074
   78SLPC   H3R 7120   3.515   3.890   5.942  0.0637  0.2213  0.3469
   78SLPC   H3S 7121   3.422   3.979   5.823 -0.6283 -2.1562 -1.3256
   78SLPC   C24 7122   3.388   3.764   5.810 -0.5710  0.3553  0.0554
   78SLPC   H4R 7123   3.397   3.670   5.870 -1.6013  0.8575  1.0308
   78SLPC   H4S 7124   3.469   3.755   5.735  0.4098  2.2103  0.8444
   78SLPC   C25 7125   3.255   3.773   5.738  0.1226 -0.0484 -0.0792
   78SLPC   H5R 7126   3.255   3.860   5.669 -0.7111 -0.4414 -0.5893
   78SLPC   H5S 7127   3.183   3.797   5.819 -1.6694 -0.8260 -1.3803
   78SLPC   C26 7128   3.211   3.653   5.651 -0.0602  0.1218 -0.6828
   78SLPC   H6R 7129   3.106   3.658   5.615  0.5133 -1.6374 -2.7975
   78SLPC   H6S 7130   3.217   3.557   5.707 -0.0817 -0.5214 -1.7670
   78SLPC   C27 7131   3.296   3.645   5.532 -0.0505  0.0860 -0.6108
   78SLPC   H7R 7132   3.403   3.651   5.560  0.1039  1.8711 -1.4370
   78SLPC   H7S 7133   3.287   3.726   5.456 -1.5729 -1.7146 -2.4765
   78SLPC   C28 7134   3.272   3.514   5.453 -0.3569  0.0019  0.0577
   78SLPC   H8R 7135   3.310   3.440   5.528  1.7724 -0.7045 -1.6288
   78SLPC   H8S 7136   3.337   3.511   5.364 -2.0875 -2.6966 -1.2681
   78SLPC   C29 7137   3.130   3.483   5.406  0.7792  0.5200 -0.1885
   78SLPC   H9R 7138   3.061   3.568   5.413  1.2028  0.8270  0.3320
   78SLPC  C210 7139   3.083   3.374   5.335 -1.2708  0.2799 -0.3639
   78SLPC  H10R 7140   2.977   3.363   5.310 -1.0566  0.6729 -1.5179
   78SLPC  C211 7141   3.181   3.265   5.291  0.2088 -0.8728  0.4159
   78SLPC  H11R 7142   3.281   3.299   5.322  0.7887 -0.4368 -1.7309
   78SLPC  H11S 7143   3.177   3.255   5.180 -3.6736 -2.2524  0.5037
   78SLPC  C212 7144   3.168   3.131   5.352 -0.3686  0.0624 -0.4003
   78SLPC  H12R 7145   3.145   3.049   5.282 -0.2816 -0.2516 -0.0627
   78SLPC  C213 7146   3.178   3.097   5.486  0.3786  0.1866 -0.1152
   78SLPC  H13R 7147   3.179   2.992   5.520  0.5124  0.4306  0.6624
   78SLPC  C214 7148   3.205   3.188   5.608  0.0209  0.0682 -0.2265
   78SLPC  H14R 7149   3.129   3.268   5.623  0.1203  0.0001  0.7036
   78SLPC  H14S 7150   3.300   3.241   5.589  0.0464 -0.5489 -1.9974
   78SLPC  C215 7151   3.204   3.116   5.745 -0.5802  0.3620 -0.5129
   78SLPC  H15R 7152   3.286   3.041   5.739  2.3969  3.3204  0.6749
   78SLPC  H15S 7153   3.104   3.069   5.763 -0.1169  0.2216  1.9350
   78SLPC  C216 7154   3.226   3.207   5.866 -0.3235  0.0799  0.4686
   78SLPC  H16R 7155   3.213   3.140   5.955 -0.0344 -0.3009  0.2273
   78SLPC  H16S 7156   3.139   3.277   5.864  0.6799  1.3346 -0.6846
   78SLPC  C217 7157   3.355   3.282   5.882 -0.0413 -0.1108 -0.2040
   78SLPC  H17R 7158   3.368   3.352   5.797  1.2426  0.1279  0.1580
   78SLPC  H17S 7159   3.434   3.204   5.871  0.4902  0.2061  1.1513
   78SLPC  C218 7160   3.379   3.356   6.012  0.4372  0.6072 -0.4866
   78SLPC  H18R 7161   3.314   3.446   6.011  0.9852  1.1222  2.3371
   78SLPC  H18S 7162   3.483   3.395   6.019  0.2025  1.3149 -0.8153
   78SLPC  H18T 7163   3.357   3.293   6.101 -2.2996  1.5708 -0.3901
   78SLPC   C33 7164   2.815   3.449   5.888  0.5858  0.6316  0.3830
   78SLPC   H3X 7165   2.787   3.544   5.837  3.1526  0.8069 -0.8460
   78SLPC   H3Y 7166   2.723   3.434   5.948  1.3562 -0.7499  1.2611
   78SLPC   C34 7167   2.842   3.336   5.784  0.4595 -0.8303 -0.1681
   78SLPC   H4X 7168   2.858   3.235   5.829  0.7118 -0.9164 -0.4498
   78SLPC   H4Y 7169   2.943   3.356   5.744 -0.1882  1.6670 -0.6891
   78SLPC   C35 7170   2.740   3.343   5.668 -0.0715 -0.1506  0.7746
   78SLPC   H5X 7171   2.734   3.452   5.645 -0.5804 -0.0190  1.4994
   78SLPC   H5Y 7172   2.643   3.305   5.706  0.2917 -1.2374  0.6651
   78SLPC   C36 7173   2.793   3.263   5.553  0.2495  0.0136  0.3067
   78SLPC   H6X 7174   2.819   3.165   5.599 -3.3197 -1.1129  0.2637
   78SLPC   H6Y 7175   2.889   3.302   5.515  0.1275 -1.7274 -2.0332
   78SLPC   C37 7176   2.689   3.273   5.438  0.7488  0.5757  0.2236
   78SLPC   H7X 7177   2.667   3.379   5.413  0.8583  0.7928  1.0196
   78SLPC   H7Y 7178   2.607   3.205   5.468 -0.0663  1.7985  0.8561
   78SLPC   C38 7179   2.750   3.210   5.304 -0.8414  0.2839  0.4483
   78SLPC   H8X 7180   2.804   3.120   5.340 -1.9680 -1.1163 -1.1992
   78SLPC   H8Y 7181   2.818   3.282   5.253 -1.4357  0.9557  0.5896
   78SLPC   C39 7182   2.642   3.173   5.196 -0.3356 -0.0949 -0.2555
   78SLPC   H9X 7183   2.577   3.261   5.179 -1.5994 -0.9311  0.0958
   78SLPC   H9Y 7184   2.577   3.102   5.252 -2.5331  1.1355 -1.1135
   78SLPC  C310 7185   2.702   3.115   5.063  0.2579  0.1729 -0.6716
   78SLPC  H10X 7186   2.765   3.029   5.094 -2.1272 -1.6477 -0.5586
   78SLPC  H10Y 7187   2.764   3.199   5.025  2.2866 -0.2019  1.6125
   78SLPC  C311 7188   2.595   3.079   4.957 -0.3453  0.0621 -0.1956
   78SLPC  H11X 7189   2.637   3.120   4.862 -0.4358  1.3019  0.2863
   78SLPC  H11Y 7190   2.504   3.132   4.993  0.2499  1.3784 -0.5479
   78SLPC  C312 7191   2.575   2.932   4.936  0.2717  0.2968 -0.1164
   78SLPC  H12X 7192   2.559   2.878   5.031 -0.3712  2.1144  0.8402
   78SLPC  H12Y 7193   2.675   2.892   4.908  0.4488 -0.0723  1.0077
   78SLPC  C313 7194   2.467   2.896   4.837 -0.0942  0.3362 -0.2812
   78SLPC  H13X 7195   2.492   2.931   4.734 -1.4819 -2.2361 -1.6197
   78SLPC  H13Y 7196   2.372   2.945   4.867 -0.7530 -0.8023 -0.4437
   78SLPC  C314 7197   2.450   2.742   4.828  0.3759  0.3745 -0.3851
   78SLPC  H14X 7198   2.343   2.712   4.822  1.0673 -2.2662 -0.9618
   78SLPC  H14Y 7199   2.505   2.700   4.915  2.6463  0.2386 -1.8168
   78SLPC  C315 7200   2.516   2.694   4.692 -0.2801  0.0662 -0.8402
   78SLPC  H15X 7201   2.469   2.755   4.611  0.8008  1.7984 -0.2165
   78SLPC  H15Y 7202   2.492   2.588   4.670  0.8876 -0.1474 -1.1572
   78SLPC  C316 7203   2.666   2.708   4.678  0.0749 -0.1780 -0.0081
   78SLPC  H16X 7204   2.691   2.816   4.682 -1.4722  0.1951  4.0431
   78SLPC  H16Y 7205   2.689   2.666   4.578  0.4170 -0.9675  0.3922
   78SLPC  C317 7206   2.765   2.640   4.776  0.8974 -0.1559  0.1305
   78SLPC  H17X 7207   2.768   2.678   4.880 -0.2068  1.0977 -0.2753
   78SLPC  H17Y 7208   2.866   2.669   4.738 -0.3292  2.5602 -1.4052
   78SLPC  C318 7209   2.752   2.486   4.769  0.1909  0.3671  0.2978
   78SLPC  H18X 7210   2.650   2.459   4.805  0.3999  0.0431  0.6520
   78SLPC  H18Y 7211   2.826   2.436   4.834 -1.7207 -0.0222  2.2851
   78SLPC  H18Z 7212   2.766   2.431   4.673 -0.5801  0.0159  0.3796
   79SLPC     N 7213   0.925   0.005   7.106  0.4819 -0.2964 -0.2527
   79SLPC   C13 7214   0.888  -0.135   7.141 -0.2545  0.0647 -0.1922
   79SLPC  H13A 7215   0.957  -0.203   7.189 -1.0220 -0.3785  0.3115
   79SLPC  H13B 7216   0.797  -0.135   7.199 -0.3022 -1.6067 -0.2284
   79SLPC  H13C 7217   0.864  -0.186   7.049 -0.1056 -0.0366 -0.1763
   79SLPC   C14 7218   1.070   0.013   7.057 -0.1124 -0.0719 -0.0500
   79SLPC  H14A 7219   1.093  -0.012   6.955  0.4789 -5.0747  1.0252
   79SLPC  H14B 7220   1.107   0.113   7.074  0.0267  0.3412 -2.4406
   79SLPC  H14C 7221   1.141  -0.045   7.114  0.6136  0.4536 -0.4103
   79SLPC   C15 7222   0.918   0.075   7.239 -0.0323 -0.5001  0.2982
   79SLPC  H15A 7223   0.814   0.064   7.267 -0.4724  2.7622  0.2925
   79SLPC  H15B 7224   0.981   0.020   7.308 -0.5750 -1.0316  0.3841
   79SLPC  H15C 7225   0.944   0.179   7.233  0.1948 -0.6068 -0.8275
   79SLPC   C12 7226   0.840   0.065   7.006  0.1280  0.3957  0.6181
   79SLPC  H12A 7227   0.843   0.172   7.011  1.0423  0.4953 -1.0835
   79SLPC  H12B 7228   0.739   0.046   7.040  0.8902 -2.0850  1.7657
   79SLPC   C11 7229   0.863   0.033   6.858 -0.3207 -0.3489 -0.9244
   79SLPC  H11A 7230   0.969   0.050   6.830  0.5277 -4.1375 -0.5930
   79SLPC  H11B 7231   0.797   0.093   6.791  0.3038  1.1732 -0.2151
   79SLPC     P 7232   0.852  -0.196   6.726  0.3316  0.2402 -0.2464
   79SLPC   O13 7233   0.993  -0.238   6.723 -0.2524 -0.2808 -0.3766
   79SLPC   O14 7234   0.750  -0.300   6.740 -0.5275  0.1505  0.5463
   79SLPC   O12 7235   0.834  -0.108   6.847  0.7822 -0.2951 -0.0029
   79SLPC   O11 7236   0.824  -0.100   6.608  0.0679 -0.0618 -0.1733
   79SLPC    C1 7237   0.931  -0.054   6.525  1.0949 -0.2982 -0.0854
   79SLPC    HA 7238   0.983   0.021   6.589 -1.7551  0.6234  1.3325
   79SLPC    HB 7239   1.008  -0.132   6.507  1.0123 -0.5031  0.4309
   79SLPC    C2 7240   0.882   0.015   6.397  0.0923  0.9752  0.5271
   79SLPC    HS 7241   0.799   0.082   6.428 -0.3581  0.8248 -0.3114
   79SLPC   O21 7242   0.823  -0.088   6.314 -0.6297  0.1233  0.3005
   79SLPC   C21 7243   0.711  -0.046   6.256  0.2456 -0.6622  0.1511
   79SLPC   O22 7244   0.649   0.059   6.270 -0.6725  0.5446 -0.1023
   79SLPC   C22 7245   0.670  -0.158   6.157  0.5741 -0.4216 -0.1935
   79SLPC   H2R 7246   0.737  -0.246   6.165 -0.2726 -1.1987 -1.3477
   79SLPC   H2S 7247   0.565  -0.188   6.176  0.8638 -1.0437  0.4998
   79SLPC    C3 7248   0.980   0.113   6.327 -0.0691 -0.0074 -0.3535
   79SLPC    HX 7249   1.068   0.057   6.289  0.1293  0.6618 -0.8937
   79SLPC    HY 7250   1.008   0.200   6.390  1.5545  2.7537 -4.3822
   79SLPC   O31 7251   0.923   0.181   6.210 -0.4324  0.4668 -0.3174
   79SLPC   C31 7252   0.851   0.294   6.232  0.2127 -0.4844  0.1140
   79SLPC   O32 7253   0.827   0.346   6.340  0.2882  0.3057  0.4930
   79SLPC   C32 7254   0.803   0.350   6.098 -0.1160 -0.4172 -0.2838
   79SLPC   H2X 7255   0.709   0.294   6.076 -0.5968  0.7948 -1.5037
   79SLPC   H2Y 7256   0.882   0.346   6.020  2.4269  1.4823  1.9814
   79SLPC   C23 7257   0.689  -0.114   6.010 -0.5386 -0.2808  0.2104
   79SLPC   H3R 7258   0.652  -0.010   6.015 -1.2434 -0.5536  0.7911
   79SLPC   H3S 7259   0.621  -0.168   5.940 -0.7185 -0.3627  0.4463
   79SLPC   C24 7260   0.837  -0.116   5.969  0.0744 -0.2796 -0.6887
   79SLPC   H4R 7261   0.866  -0.223   5.982  0.8269 -0.1579 -1.3064
   79SLPC   H4S 7262   0.900  -0.055   6.037  1.8960  0.7809 -3.1695
   79SLPC   C25 7263   0.864  -0.068   5.825 -0.0858  0.1078  0.4261
   79SLPC   H5R 7264   0.789  -0.127   5.768  0.8239 -1.5422  0.8740
   79SLPC   H5S 7265   0.964  -0.110   5.801 -0.5982 -1.4496  0.9117
   79SLPC   C26 7266   0.860   0.080   5.820  0.2647 -1.4446  0.2469
   79SLPC   H6R 7267   0.939   0.108   5.893 -1.2773 -1.0785  1.8351
   79SLPC   H6S 7268   0.767   0.131   5.852 -0.4786 -1.1538 -2.1593
   79SLPC   C27 7269   0.896   0.140   5.689  0.2073  0.0991  0.7057
   79SLPC   H7R 7270   0.842   0.080   5.613 -0.6910 -0.3034  1.6340
   79SLPC   H7S 7271   1.007   0.136   5.683  0.5465  0.6410  4.1749
   79SLPC   C28 7272   0.841   0.280   5.692  0.3235 -0.7854  0.1004
   79SLPC   H8R 7273   0.860   0.324   5.792 -1.0150 -2.4052  1.1183
   79SLPC   H8S 7274   0.730   0.278   5.689  0.2547 -0.4212  1.5190
   79SLPC   C29 7275   0.891   0.351   5.572 -0.0672  0.6849 -0.4926
   79SLPC   H9R 7276   1.000   0.366   5.572  0.2736 -1.4626 -0.7968
   79SLPC  C210 7277   0.817   0.408   5.475 -0.1326  0.3754 -0.6227
   79SLPC  H10R 7278   0.873   0.472   5.406  1.3008  0.9621  1.0156
   79SLPC  C211 7279   0.661   0.413   5.474 -0.6076  0.5513 -0.1685
   79SLPC  H11R 7280   0.601   0.323   5.501 -0.8524  0.6066 -0.5230
   79SLPC  H11S 7281   0.643   0.413   5.364 -0.1622 -2.0281 -0.3090
   79SLPC  C212 7282   0.592   0.534   5.531 -0.3481 -0.5579  0.2939
   79SLPC  H12R 7283   0.638   0.589   5.613 -1.3055  3.4087 -1.5892
   79SLPC  C213 7284   0.465   0.559   5.500  0.3587  0.7880 -0.1480
   79SLPC  H13R 7285   0.419   0.653   5.533 -0.7086  0.4855 -0.7119
   79SLPC  C214 7286   0.398   0.496   5.382 -0.3496  0.1759 -0.0436
   79SLPC  H14R 7287   0.292   0.524   5.397 -0.3978  0.5469 -1.0088
   79SLPC  H14S 7288   0.412   0.385   5.383 -0.9732  0.0882  1.3169
   79SLPC  C215 7289   0.448   0.558   5.248  0.3780  0.0228 -0.5174
   79SLPC  H15R 7290   0.559   0.563   5.254  0.3623  0.8521 -0.7643
   79SLPC  H15S 7291   0.396   0.656   5.242 -1.7457 -1.1065 -1.5686
   79SLPC  C216 7292   0.404   0.483   5.123  0.3277  0.3317 -0.3665
   79SLPC  H16R 7293   0.301   0.513   5.095  0.3719  0.2810 -0.5873
   79SLPC  H16S 7294   0.403   0.372   5.121  1.1651  0.2759  0.9294
   79SLPC  C217 7295   0.475   0.530   4.988 -0.0001 -0.1169 -0.1775
   79SLPC  H17R 7296   0.585   0.523   5.006 -0.1262  0.4626  0.8637
   79SLPC  H17S 7297   0.454   0.639   4.984 -0.0340 -0.1589 -1.7330
   79SLPC  C218 7298   0.435   0.446   4.869 -0.1676  0.9447  0.1824
   79SLPC  H18R 7299   0.427   0.342   4.906 -0.0404  2.0751  3.7462
   79SLPC  H18S 7300   0.506   0.444   4.783 -1.0709 -1.3721 -0.5896
   79SLPC  H18T 7301   0.337   0.473   4.823 -0.1967  0.8420  0.1835
   79SLPC   C33 7302   0.751   0.501   6.107  0.0855 -0.7607 -0.8393
   79SLPC   H3X 7303   0.803   0.559   6.186 -0.2878 -2.2401  0.5242
   79SLPC   H3Y 7304   0.642   0.506   6.122  0.0224 -2.2946 -0.6904
   79SLPC   C34 7305   0.756   0.570   5.967 -0.7374  0.3264 -0.1221
   79SLPC   H4X 7306   0.692   0.507   5.901 -1.7661  0.1626  0.9803
   79SLPC   H4Y 7307   0.860   0.569   5.928 -0.5141  1.9572  0.3520
   79SLPC   C35 7308   0.702   0.708   5.976  0.2977 -0.7902 -0.0772
   79SLPC   H5X 7309   0.755   0.756   6.061  0.9164 -0.5647 -0.5799
   79SLPC   H5Y 7310   0.594   0.721   5.997  0.1920  0.8735 -1.3765
   79SLPC   C36 7311   0.728   0.793   5.853  0.5257 -0.3251 -1.4537
   79SLPC   H6X 7312   0.699   0.739   5.760  0.1200 -1.0267 -0.9280
   79SLPC   H6Y 7313   0.838   0.809   5.846  0.7361 -0.6976  0.4261
   79SLPC   C37 7314   0.662   0.930   5.864  0.1638  0.2360 -0.2698
   79SLPC   H7X 7315   0.715   0.999   5.933 -0.1911 -0.7808  1.0625
   79SLPC   H7Y 7316   0.559   0.910   5.900 -0.1367  1.1696 -0.5747
   79SLPC   C38 7317   0.660   0.987   5.724 -0.4137 -1.0228 -0.8902
   79SLPC   H8X 7318   0.603   0.927   5.649  3.1330 -3.5815 -1.7748
   79SLPC   H8Y 7319   0.762   1.002   5.683 -0.2968 -1.7356 -0.8628
   79SLPC   C39 7320   0.581   1.122   5.745  0.1442 -0.9010  0.3249
   79SLPC   H9X 7321   0.649   1.188   5.803  2.2229 -0.1390 -2.7373
   79SLPC   H9Y 7322   0.482   1.105   5.792 -1.0769 -1.3167 -2.2192
   79SLPC  C310 7323   0.573   1.200   5.609  0.2476  0.3285 -0.4781
   79SLPC  H10X 7324   0.677   1.200   5.570  0.9574 -2.3997  1.1519
   79SLPC  H10Y 7325   0.536   1.301   5.635  0.3208  0.1553  0.3383
   79SLPC  C311 7326   0.489   1.130   5.505  0.6438  0.1263  0.0711
   79SLPC  H11X 7327   0.408   1.199   5.475  1.6777  3.1250  3.4223
   79SLPC  H11Y 7328   0.439   1.051   5.566  2.3883  0.1480  1.6133
   79SLPC  C312 7329   0.563   1.085   5.380  0.3476 -0.8263 -0.2455
   79SLPC  H12X 7330   0.483   1.037   5.319 -0.9166  2.1053 -1.0433
   79SLPC  H12Y 7331   0.635   1.003   5.400 -0.0556 -1.4032 -1.1131
   79SLPC  C313 7332   0.620   1.202   5.300 -0.0342  0.1342 -0.3979
   79SLPC  H13X 7333   0.671   1.168   5.208 -0.5681 -1.1640 -0.2421
   79SLPC  H13Y 7334   0.694   1.255   5.364  0.7284 -1.0214 -0.2858
   79SLPC  C314 7335   0.518   1.299   5.238  0.0350  0.3877 -0.2131
   79SLPC  H14X 7336   0.504   1.371   5.321  2.7125  2.5109 -1.4595
   79SLPC  H14Y 7337   0.421   1.248   5.217 -0.6049  1.7426 -0.6547
   79SLPC  C315 7338   0.568   1.380   5.123  0.1210  0.3550  0.2966
   79SLPC  H15X 7339   0.576   1.319   5.031 -0.4120  2.9531 -1.5950
   79SLPC  H15Y 7340   0.667   1.420   5.154  1.4636 -2.0519 -0.6832
   79SLPC  C316 7341   0.480   1.494   5.069  0.6827  0.2579 -0.5452
   79SLPC  H16X 7342   0.468   1.564   5.154  1.7040 -0.9042  0.5928
   79SLPC  H16Y 7343   0.379   1.460   5.039 -0.3310  1.8861  0.8061
   79SLPC  C317 7344   0.537   1.563   4.945 -0.1910  0.5736 -0.3302
   79SLPC  H17X 7345   0.558   1.485   4.869  0.1077  0.0804  0.2472
   79SLPC  H17Y 7346   0.638   1.601   4.972  0.4554  0.7944 -2.7984
   79SLPC  C318 7347   0.448   1.669   4.878  0.4329 -0.2088  0.5132
   79SLPC  H18X 7348   0.350   1.623   4.851  0.3756  0.9225 -1.3505
   79SLPC  H18Y 7349   0.490   1.713   4.785  1.1657  0.3536  1.0989
   79SLPC  H18Z 7350   0.429   1.742   4.960 -0.1737 -1.6983  1.7496
   80SLPC     N 7351   6.417   2.518   6.949  0.9120 -0.1163 -0.0743
   80SLPC   C13 7352   6.485   2.413   7.020 -0.1078  0.0465 -1.3824
   80SLPC  H13A 7353   6.469   2.426   7.126 -2.0455 -0.6680 -1.5502
   80SLPC  H13B 7354   6.464   2.311   6.992 -2.2940  0.1888 -0.4957
   80SLPC  H13C 7355   6.592   2.420   7.011  0.2090 -2.5440 -0.5287
   80SLPC   C14 7356   6.472   2.654   6.984  0.0822  0.3097  0.3717
   80SLPC  H14A 7357   6.416   2.736   6.939 -0.8828 -1.0367 -0.9759
   80SLPC  H14B 7358   6.463   2.666   7.091  1.4289  1.9553  0.3408
   80SLPC  H14C 7359   6.574   2.666   6.952  0.1136 -1.0079 -0.0743
   80SLPC   C15 7360   6.269   2.518   6.990 -0.6187  0.1913  0.3747
   80SLPC  H15A 7361   6.227   2.418   6.984 -1.7044  0.6539 -0.1027
   80SLPC  H15B 7362   6.259   2.541   7.095 -1.5750 -0.4243  0.4399
   80SLPC  H15C 7363   6.205   2.576   6.925 -1.3299 -2.8088 -1.8539
   80SLPC   C12 7364   6.438   2.497   6.795  0.5572 -0.5675 -0.3877
   80SLPC  H12A 7365   6.541   2.510   6.767  0.4115  0.2354 -0.5808
   80SLPC  H12B 7366   6.390   2.578   6.743 -0.1373 -1.8227 -1.7711
   80SLPC   C11 7367   6.385   2.362   6.724 -0.7557 -0.7920  0.5441
   80SLPC  H11A 7368   6.436   2.277   6.775 -2.4104 -0.9017  2.1127
   80SLPC  H11B 7369   6.416   2.369   6.617 -0.8701  1.2843  0.6005
   80SLPC     P 7370   6.160   2.381   6.605 -0.0675 -0.1097 -0.3018
   80SLPC   O13 7371   6.017   2.342   6.635 -0.1751  0.1951 -0.4374
   80SLPC   O14 7372   6.190   2.519   6.566 -0.3218  0.2258  0.4518
   80SLPC   O12 7373   6.244   2.357   6.732  0.1577  0.3500 -0.8338
   80SLPC   O11 7374   6.217   2.293   6.489 -0.2960  0.2341 -0.3813
   80SLPC    C1 7375   6.237   2.150   6.488  0.4053 -0.3578 -0.2376
   80SLPC    HA 7376   6.345   2.125   6.477  0.8149  1.4650 -0.7774
   80SLPC    HB 7377   6.212   2.100   6.583  0.8487  1.8426  1.1191
   80SLPC    C2 7378   6.149   2.085   6.381  0.0450  0.8689 -0.5552
   80SLPC    HS 7379   6.161   1.976   6.392 -0.3146  0.9847  1.4621
   80SLPC   O21 7380   6.177   2.124   6.248  0.2672 -0.1581  0.0884
   80SLPC   C21 7381   6.299   2.089   6.198  0.2590  0.5838 -0.2204
   80SLPC   O22 7382   6.385   2.032   6.267  0.8300 -0.7679 -0.4041
   80SLPC   C22 7383   6.319   2.129   6.051  0.0850 -0.5595  0.1320
   80SLPC   H2R 7384   6.389   2.214   6.040 -3.1011  2.1888 -0.4243
   80SLPC   H2S 7385   6.351   2.039   5.994  0.6774 -0.1877 -0.1304
   80SLPC    C3 7386   5.997   2.113   6.401 -0.4849  0.0287 -0.3197
   80SLPC    HX 7387   5.982   2.223   6.400  0.3504  0.2172  1.8854
   80SLPC    HY 7388   5.956   2.098   6.503 -1.7461  1.1715 -0.6331
   80SLPC   O31 7389   5.916   2.053   6.298 -0.1426  0.5838 -0.4138
   80SLPC   C31 7390   5.889   1.922   6.317 -0.6648 -0.6392  0.6044
   80SLPC   O32 7391   5.932   1.855   6.408  0.0574 -0.0613 -0.1676
   80SLPC   C32 7392   5.820   1.875   6.195  0.0394  0.1021 -0.1655
   80SLPC   H2X 7393   5.882   1.913   6.111  3.7278 -2.9785  0.8871
   80SLPC   H2Y 7394   5.720   1.922   6.189 -0.4414 -0.9871 -1.0425
   80SLPC   C23 7395   6.190   2.182   5.983 -0.4587 -0.5944 -0.2798
   80SLPC   H3R 7396   6.220   2.239   5.893  0.7514 -0.0217  0.4628
   80SLPC   H3S 7397   6.146   2.251   6.058  0.1054 -0.0234 -0.4716
   80SLPC   C24 7398   6.094   2.071   5.934  0.1347  0.5524 -0.3588
   80SLPC   H4R 7399   6.076   1.995   6.012  0.0447  1.4604  0.5306
   80SLPC   H4S 7400   6.142   2.030   5.842 -1.6984  0.8932 -1.5271
   80SLPC   C25 7401   5.956   2.129   5.914  0.3492  1.1238  0.1120
   80SLPC   H5R 7402   5.910   2.189   5.995 -2.7557 -0.1744 -0.5146
   80SLPC   H5S 7403   5.887   2.042   5.906 -1.7307  2.4151  2.6581
   80SLPC   C26 7404   5.937   2.208   5.783  1.4918 -0.2072  0.0729
   80SLPC   H6R 7405   5.998   2.301   5.789  0.3112  0.5340  1.0899
   80SLPC   H6S 7406   5.832   2.244   5.787  1.4036 -0.5674  2.6508
   80SLPC   C27 7407   5.978   2.136   5.655  0.3920 -0.3085  0.3112
   80SLPC   H7R 7408   6.087   2.122   5.642  0.2123 -0.6568 -1.0129
   80SLPC   H7S 7409   5.958   2.197   5.564  0.4620  1.7924  1.6346
   80SLPC   C28 7410   5.893   2.003   5.634  0.6417 -0.5321  0.0902
   80SLPC   H8R 7411   5.913   1.928   5.713 -0.4643 -0.7745  0.1471
   80SLPC   H8S 7412   5.942   1.961   5.543  2.1488 -0.3009  0.7598
   80SLPC   C29 7413   5.743   2.011   5.611  0.1715  0.1321 -0.2459
   80SLPC   H9R 7414   5.682   1.974   5.695  0.8776 -1.1280 -0.2573
   80SLPC  C210 7415   5.684   2.046   5.496 -0.3775  0.8182 -0.3886
   80SLPC  H10R 7416   5.574   2.050   5.487 -0.4829 -0.4047  0.2128
   80SLPC  C211 7417   5.756   2.085   5.365  0.0316 -0.4461  0.1287
   80SLPC  H11R 7418   5.730   2.016   5.282 -0.3983 -0.8621  0.6011
   80SLPC  H11S 7419   5.865   2.072   5.385 -0.1864 -0.6451  1.2581
   80SLPC  C212 7420   5.729   2.227   5.329  0.0187  0.0052  0.3953
   80SLPC  H12R 7421   5.747   2.308   5.402 -2.2041 -0.2258  1.2927
   80SLPC  C213 7422   5.690   2.262   5.205 -0.4572  1.1369 -0.3132
   80SLPC  H13R 7423   5.668   2.367   5.182 -0.7837  1.0916 -0.2161
   80SLPC  C214 7424   5.662   2.172   5.091  0.0575 -0.2337  0.0313
   80SLPC  H14R 7425   5.562   2.127   5.109 -0.0139 -0.7729 -1.5140
   80SLPC  H14S 7426   5.740   2.092   5.084  0.0665 -0.0900 -1.9764
   80SLPC  C215 7427   5.648   2.256   4.958 -0.6657  0.1834 -0.3818
   80SLPC  H15R 7428   5.583   2.346   4.965  1.1233  1.4962  0.3185
   80SLPC  H15S 7429   5.611   2.191   4.876  1.8153 -2.5556  0.5168
   80SLPC  C216 7430   5.789   2.305   4.918  0.8382 -0.0846 -0.0022
   80SLPC  H16R 7431   5.850   2.213   4.924 -0.5361 -1.2362 -2.2305
   80SLPC  H16S 7432   5.807   2.381   4.997 -0.1084  0.5691 -0.3880
   80SLPC  C217 7433   5.797   2.375   4.778  0.1484  0.5720 -0.4382
   80SLPC  H17R 7434   5.770   2.305   4.697 -0.2794  1.2923 -0.9293
   80SLPC  H17S 7435   5.901   2.411   4.759  0.5591  0.2648  1.0284
   80SLPC  C218 7436   5.706   2.497   4.777 -0.3337  0.4715  1.0161
   80SLPC  H18R 7437   5.732   2.575   4.851 -1.1625  1.7884 -0.0413
   80SLPC  H18S 7438   5.603   2.460   4.796 -0.3745  0.6370  1.1174
   80SLPC  H18T 7439   5.707   2.540   4.675 -1.4109  1.2818  1.3296
   80SLPC   C33 7440   5.807   1.726   6.201 -0.4642  0.8430  0.0005
   80SLPC   H3X 7441   5.744   1.708   6.290 -1.7408  0.9967 -0.8395
   80SLPC   H3Y 7442   5.908   1.685   6.224 -1.2574 -0.7871  0.6630
   80SLPC   C34 7443   5.740   1.658   6.079 -0.2790 -0.3297  0.3113
   80SLPC   H4X 7444   5.648   1.720   6.068  1.3194  1.8630 -1.6010
   80SLPC   H4Y 7445   5.720   1.551   6.099 -0.2220 -0.2061  1.0759
   80SLPC   C35 7446   5.849   1.660   5.964  0.6253  0.2719 -0.0944
   80SLPC   H5X 7447   5.943   1.608   5.993  0.7973  0.5225 -0.1976
   80SLPC   H5Y 7448   5.865   1.769   5.951  0.1677  0.6607  2.2046
   80SLPC   C36 7449   5.784   1.617   5.834  0.7236 -0.5638  0.0152
   80SLPC   H6X 7450   5.720   1.704   5.805  0.8445 -1.0899 -2.0080
   80SLPC   H6Y 7451   5.723   1.527   5.858 -0.6256  0.1557 -0.5512
   80SLPC   C37 7452   5.886   1.562   5.723  0.2954  0.3221  0.3622
   80SLPC   H7X 7453   5.940   1.476   5.768 -0.7096 -2.1571 -2.8086
   80SLPC   H7Y 7454   5.972   1.631   5.714  0.4650  0.5265  2.7912
   80SLPC   C38 7455   5.815   1.529   5.591 -0.3045  0.3734  0.5620
   80SLPC   H8X 7456   5.747   1.444   5.612 -1.4364  1.2740  0.6398
   80SLPC   H8Y 7457   5.895   1.488   5.526 -2.6125 -1.1717 -1.4997
   80SLPC   C39 7458   5.734   1.649   5.534 -0.3241 -0.4270  0.3729
   80SLPC   H9X 7459   5.805   1.735   5.527  1.5830 -2.0106 -0.9880
   80SLPC   H9Y 7460   5.637   1.678   5.580 -1.1324  1.6253 -2.3425
   80SLPC  C310 7461   5.679   1.614   5.392 -0.4634  0.0848  0.0754
   80SLPC  H10X 7462   5.599   1.540   5.413 -0.6047  0.7625  2.1326
   80SLPC  H10Y 7463   5.758   1.558   5.338 -0.7101  0.0976 -0.3079
   80SLPC  C311 7464   5.635   1.736   5.318 -0.1760  0.5349 -0.5238
   80SLPC  H11X 7465   5.714   1.802   5.278  1.5735 -1.5313 -0.6993
   80SLPC  H11Y 7466   5.588   1.801   5.395  1.3517  1.5750 -0.4364
   80SLPC  C312 7467   5.541   1.706   5.206  0.3701  0.0517 -0.0360
   80SLPC  H12X 7468   5.442   1.677   5.246  1.2627 -2.2445  0.7066
   80SLPC  H12Y 7469   5.575   1.613   5.154 -1.1423 -1.6512  1.8615
   80SLPC  C313 7470   5.522   1.806   5.093  0.5105  0.1960 -0.3953
   80SLPC  H13X 7471   5.616   1.824   5.035 -0.3999  0.2052 -1.9120
   80SLPC  H13Y 7472   5.483   1.906   5.121  0.2347  0.2846 -1.0803
   80SLPC  C314 7473   5.406   1.751   5.000 -0.1709  0.0116 -0.6690
   80SLPC  H14X 7474   5.347   1.686   5.069  1.5692  0.7976  1.6771
   80SLPC  H14Y 7475   5.459   1.680   4.932 -0.0033 -1.0834  0.5649
   80SLPC  C315 7476   5.320   1.857   4.930 -0.0846 -0.4647 -0.1115
   80SLPC  H15X 7477   5.281   1.915   5.016 -1.4904 -0.2395 -0.8689
   80SLPC  H15Y 7478   5.229   1.818   4.880 -0.8744  0.5489  0.5142
   80SLPC  C316 7479   5.399   1.941   4.828  0.1365  0.4058 -0.3466
   80SLPC  H16X 7480   5.418   1.877   4.740  1.1050 -1.7105  1.3005
   80SLPC  H16Y 7481   5.495   1.975   4.872 -0.8584  2.6170  0.2615
   80SLPC  C317 7482   5.327   2.075   4.782  0.4620  0.2120 -0.3708
   80SLPC  H17X 7483   5.236   2.043   4.727  1.0420 -2.9784  0.3773
   80SLPC  H17Y 7484   5.397   2.123   4.710 -1.7317 -1.8482 -4.1966
   80SLPC  C318 7485   5.298   2.167   4.897 -0.8367 -0.0599  0.2707
   80SLPC  H18X 7486   5.256   2.264   4.863 -0.1020 -0.3173 -1.4623
   80SLPC  H18Y 7487   5.389   2.206   4.947  0.2774 -1.1926 -0.8240
   80SLPC  H18Z 7488   5.225   2.125   4.970 -1.0088  0.8053  0.6081
   81SLPC     N 7489   4.642   3.258   2.182  0.2186 -0.2492  0.0379
   81SLPC   C13 7490   4.790   3.241   2.145 -0.4589  0.8848 -0.6561
   81SLPC  H13A 7491   4.831   3.326   2.198 -2.2308  1.3199  0.1198
   81SLPC  H13B 7492   4.835   3.150   2.180 -0.3755  0.5030 -1.7529
   81SLPC  H13C 7493   4.807   3.251   2.039  4.1946 -1.0347 -0.3059
   81SLPC   C14 7494   4.566   3.154   2.096 -0.2708  0.5350  0.7401
   81SLPC  H14A 7495   4.598   3.052   2.107  0.8639  0.9462  1.4504
   81SLPC  H14B 7496   4.460   3.162   2.115 -0.8488 -1.5980 -1.1271
   81SLPC  H14C 7497   4.584   3.180   1.993 -2.7433  0.5971  0.2587
   81SLPC   C15 7498   4.595   3.396   2.139 -0.0957  0.9708 -0.1785
   81SLPC  H15A 7499   4.656   3.473   2.185  0.4890  1.3012 -1.4488
   81SLPC  H15B 7500   4.625   3.411   2.036  0.8485  1.2563  0.1193
   81SLPC  H15C 7501   4.490   3.409   2.158 -0.0575 -1.0963  1.8812
   81SLPC   C12 7502   4.619   3.227   2.325 -1.0394 -0.0098  0.1446
   81SLPC  H12A 7503   4.651   3.126   2.346  0.1603  0.5246  1.0207
   81SLPC  H12B 7504   4.518   3.226   2.364 -0.8130  0.8853  0.8063
   81SLPC   C11 7505   4.707   3.300   2.433  0.1455 -0.1732 -0.1506
   81SLPC  H11A 7506   4.688   3.409   2.420  0.1337 -0.0228  1.0242
   81SLPC  H11B 7507   4.815   3.294   2.411 -0.4094  1.2639 -4.1672
   81SLPC     P 7508   4.711   3.121   2.620  0.0991 -0.3342 -0.4232
   81SLPC   O13 7509   4.600   3.064   2.704  0.0648 -0.1562  0.5058
   81SLPC   O14 7510   4.766   3.034   2.510  0.4188 -0.0490  0.1923
   81SLPC   O12 7511   4.669   3.263   2.564  0.7836 -0.5122 -0.5029
   81SLPC   O11 7512   4.833   3.151   2.718  0.0230 -0.3358 -0.4795
   81SLPC    C1 7513   4.856   3.282   2.778  0.5273 -0.3425  0.3368
   81SLPC    HA 7514   4.964   3.303   2.761  0.5567 -0.6724  0.0958
   81SLPC    HB 7515   4.794   3.365   2.740 -2.1219 -1.2265  2.4168
   81SLPC    C2 7516   4.831   3.261   2.932 -0.1963 -0.4315 -0.2954
   81SLPC    HS 7517   4.844   3.358   2.985 -0.1240  0.1829 -1.4207
   81SLPC   O21 7518   4.910   3.153   2.993  0.6574 -0.4363 -0.7525
   81SLPC   C21 7519   5.036   3.187   3.006  0.2948  0.2250 -0.6072
   81SLPC   O22 7520   5.083   3.293   2.979 -0.2785 -0.3177 -0.1090
   81SLPC   C22 7521   5.115   3.065   3.054  0.6183 -0.3717  0.2266
   81SLPC   H2R 7522   5.069   3.036   3.151 -1.0201  0.6155 -0.2250
   81SLPC   H2S 7523   5.106   2.972   2.994  1.1087  0.2204 -0.7843
   81SLPC    C3 7524   4.679   3.228   2.966 -0.2287  0.3655  0.1218
   81SLPC    HX 7525   4.651   3.130   2.922 -1.2849  0.7575 -0.1028
   81SLPC    HY 7526   4.634   3.308   2.903  0.7323  1.1852  0.4383
   81SLPC   O31 7527   4.638   3.240   3.101 -0.1572  0.5202 -0.0950
   81SLPC   C31 7528   4.633   3.359   3.154  0.1939  0.5210 -0.1586
   81SLPC   O32 7529   4.648   3.464   3.093  0.4391 -0.1710  0.0517
   81SLPC   C32 7530   4.608   3.361   3.299 -0.3289 -0.1630 -0.4250
   81SLPC   H2X 7531   4.702   3.339   3.355 -0.0744 -1.2325 -1.2439
   81SLPC   H2Y 7532   4.529   3.292   3.334 -1.5217  1.0827 -0.6095
   81SLPC   C23 7533   5.255   3.100   3.093 -0.8267 -0.0847 -0.0308
   81SLPC   H3R 7534   5.257   3.189   3.160 -2.2093  0.3603 -0.5357
   81SLPC   H3S 7535   5.304   3.130   2.998 -1.6736 -0.4093 -0.5738
   81SLPC   C24 7536   5.322   2.976   3.162  0.0224 -0.4220 -0.6476
   81SLPC   H4R 7537   5.427   3.006   3.181 -1.4062  2.7544  3.8826
   81SLPC   H4S 7538   5.322   2.890   3.091  1.8133 -0.7198 -0.3340
   81SLPC   C25 7539   5.269   2.918   3.291 -0.3904  1.1308  0.6231
   81SLPC   H5R 7540   5.317   2.818   3.294  0.3055  1.4006 -0.6954
   81SLPC   H5S 7541   5.166   2.882   3.275  0.3660 -2.3697  2.6241
   81SLPC   C26 7542   5.298   2.995   3.423 -0.0265 -0.1067 -0.2256
   81SLPC   H6R 7543   5.282   3.104   3.414  1.7559  0.2609  0.6211
   81SLPC   H6S 7544   5.404   2.981   3.453 -0.2757 -1.2556  0.1739
   81SLPC   C27 7545   5.213   2.942   3.536 -0.2743  0.2480 -0.3251
   81SLPC   H7R 7546   5.219   2.831   3.527 -3.5250  0.0057 -0.9053
   81SLPC   H7S 7547   5.105   2.969   3.534 -0.1146  1.0494  0.7788
   81SLPC   C28 7548   5.285   2.971   3.663 -0.1262 -0.2273  0.1731
   81SLPC   H8R 7549   5.386   2.927   3.674  0.8634  1.8881  0.1862
   81SLPC   H8S 7550   5.224   2.932   3.747 -0.5859  0.2186  0.0486
   81SLPC   C29 7551   5.292   3.120   3.698 -0.4218 -0.1067 -0.5790
   81SLPC   H9R 7552   5.194   3.171   3.691 -0.1782  0.1388 -2.6190
   81SLPC  C210 7553   5.399   3.190   3.733 -0.4767 -0.6870  0.2176
   81SLPC  H10R 7554   5.388   3.292   3.771  0.1522 -1.4253  2.5311
   81SLPC  C211 7555   5.541   3.142   3.753  0.3072 -0.0633  0.1007
   81SLPC  H11R 7556   5.597   3.193   3.672 -2.7904 -0.4950 -2.5413
   81SLPC  H11S 7557   5.553   3.034   3.728  2.1003  0.1462 -0.0439
   81SLPC  C212 7558   5.603   3.153   3.887 -0.1004 -0.6111 -0.1727
   81SLPC  H12R 7559   5.709   3.183   3.880  0.1528 -1.6152 -0.8620
   81SLPC  C213 7560   5.561   3.118   4.010 -0.1000 -0.2769 -0.5390
   81SLPC  H13R 7561   5.619   3.112   4.103 -1.7609 -1.6926  0.4696
   81SLPC  C214 7562   5.428   3.055   4.036 -0.8555  0.3932 -0.4588
   81SLPC  H14R 7563   5.346   3.091   3.971 -1.9259 -1.0066  0.0696
   81SLPC  H14S 7564   5.398   3.083   4.140 -0.9715  0.5807 -0.5424
   81SLPC  C215 7565   5.432   2.900   4.020 -0.9966  0.2080 -0.8511
   81SLPC  H15R 7566   5.508   2.849   4.083  1.6430  2.1621 -2.2593
   81SLPC  H15S 7567   5.468   2.868   3.921  0.4157 -0.2208 -0.2149
   81SLPC  C216 7568   5.301   2.833   4.039  0.5344 -0.0087 -0.7317
   81SLPC  H16R 7569   5.227   2.876   3.968  2.6365  1.2953 -2.2484
   81SLPC  H16S 7570   5.273   2.867   4.141  0.7058 -1.0670 -0.3194
   81SLPC  C217 7571   5.291   2.679   4.045  0.1619 -0.2514  0.5332
   81SLPC  H17R 7572   5.186   2.642   4.051 -0.6679  1.4709 -1.7636
   81SLPC  H17S 7573   5.352   2.631   4.124 -1.7005 -0.3742  1.9441
   81SLPC  C218 7574   5.337   2.622   3.904  0.3577 -0.2637 -0.4716
   81SLPC  H18R 7575   5.326   2.512   3.909  2.1349 -0.4440 -0.1014
   81SLPC  H18S 7576   5.441   2.659   3.894 -0.4494  2.5295  0.4914
   81SLPC  H18T 7577   5.281   2.674   3.823 -0.6427 -1.2699 -0.4537
   81SLPC   C33 7578   4.544   3.500   3.346  0.6348  0.4648  0.2629
   81SLPC   H3X 7579   4.450   3.522   3.290  0.0691 -0.9473  0.6090
   81SLPC   H3Y 7580   4.609   3.585   3.315  1.0337 -0.9994 -3.4422
   81SLPC   C34 7581   4.516   3.508   3.496 -0.2542  0.5905 -0.1233
   81SLPC   H4X 7582   4.472   3.606   3.522 -3.1398 -0.7208  0.3574
   81SLPC   H4Y 7583   4.605   3.482   3.557 -1.1451 -1.2380  0.4900
   81SLPC   C35 7584   4.401   3.404   3.536  0.2507  0.2291  0.4489
   81SLPC   H5X 7585   4.438   3.300   3.529 -2.9610 -0.8960 -1.4624
   81SLPC   H5Y 7586   4.325   3.413   3.456  0.8790  0.7358 -0.1023
   81SLPC   C36 7587   4.348   3.438   3.675 -0.6120  0.7177 -0.2744
   81SLPC   H6X 7588   4.274   3.361   3.705 -0.1048  0.1971 -0.3364
   81SLPC   H6Y 7589   4.306   3.540   3.665  2.1602  2.2244  2.0296
   81SLPC   C37 7590   4.461   3.448   3.780  0.3186  0.0498  0.3970
   81SLPC   H7X 7591   4.419   3.469   3.881 -1.6370 -0.0970 -0.3451
   81SLPC   H7Y 7592   4.526   3.535   3.757 -0.0208  0.4134  0.7815
   81SLPC   C38 7593   4.546   3.318   3.790  0.7072  0.0883  0.1044
   81SLPC   H8X 7594   4.582   3.289   3.689 -0.6747 -1.6854  0.0783
   81SLPC   H8Y 7595   4.483   3.230   3.816 -0.5638  1.3953  1.6624
   81SLPC   C39 7596   4.667   3.338   3.887  0.2189 -0.1255 -0.3668
   81SLPC   H9X 7597   4.628   3.371   3.985 -0.7606 -2.5785  0.1355
   81SLPC   H9Y 7598   4.732   3.417   3.843  0.7927 -0.5893 -0.3607
   81SLPC  C310 7599   4.750   3.210   3.908  0.0870 -1.2442 -0.5359
   81SLPC  H10X 7600   4.764   3.167   3.806 -0.6271 -1.9123 -0.3638
   81SLPC  H10Y 7601   4.690   3.140   3.971 -2.2764  3.0169  2.4253
   81SLPC  C311 7602   4.884   3.229   3.976 -0.3140  0.5905 -0.3138
   81SLPC  H11X 7603   4.869   3.236   4.086 -2.3323  1.5679 -0.6055
   81SLPC  H11Y 7604   4.926   3.324   3.936 -0.8682  0.1113 -2.1440
   81SLPC  C312 7605   4.972   3.106   3.936 -0.3126  0.4296 -0.3094
   81SLPC  H12X 7606   5.071   3.122   3.983  0.1027  0.6748 -1.2609
   81SLPC  H12Y 7607   4.991   3.123   3.828  2.8636  0.4587  0.1675
   81SLPC  C313 7608   4.913   2.967   3.968  0.0331  1.2014 -0.6937
   81SLPC  H13X 7609   4.983   2.891   3.926  1.6392  1.5737  1.1683
   81SLPC  H13Y 7610   4.821   2.965   3.905 -0.5633 -0.9311  0.1638
   81SLPC  C314 7611   4.909   2.936   4.122  0.1487 -0.1968  0.6144
   81SLPC  H14X 7612   4.835   3.003   4.172  1.7545  0.9027  1.6199
   81SLPC  H14Y 7613   5.010   2.963   4.159 -0.2048  1.6745  0.3254
   81SLPC  C315 7614   4.869   2.794   4.161  0.2843  1.1093  0.4740
   81SLPC  H15X 7615   4.919   2.734   4.082  1.3627 -1.3105  2.8335
   81SLPC  H15Y 7616   4.760   2.772   4.156  0.6737 -0.6975 -1.1887
   81SLPC  C316 7617   4.940   2.747   4.283 -0.7014 -0.2312 -0.2111
   81SLPC  H16X 7618   5.047   2.774   4.289 -0.1061 -1.9920 -2.0048
   81SLPC  H16Y 7619   4.938   2.636   4.288  1.8428 -0.2991  0.8425
   81SLPC  C317 7620   4.864   2.799   4.408  0.4609  0.0035  0.1561
   81SLPC  H17X 7621   4.768   2.744   4.414  1.7141 -2.4457 -0.9073
   81SLPC  H17Y 7622   4.837   2.907   4.402 -3.1004 -0.7742 -0.1617
   81SLPC  C318 7623   4.947   2.781   4.524 -0.8994 -0.1109 -0.1301
   81SLPC  H18X 7624   5.044   2.833   4.507 -1.3117  1.1174  1.1184
   81SLPC  H18Y 7625   4.962   2.673   4.546  0.3336 -0.4081 -2.1352
   81SLPC  H18Z 7626   4.905   2.839   4.608  0.2294 -0.5924  0.8077
   82SLPC     N 7627   4.931   2.194   2.512 -0.2828  0.1779  0.4116
   82SLPC   C13 7628   5.001   2.089   2.420 -0.6032 -0.8524 -0.4764
   82SLPC  H13A 7629   4.943   2.054   2.336 -0.9736  0.2898 -0.7236
   82SLPC  H13B 7630   5.096   2.123   2.380 -0.6440 -0.4219 -0.2143
   82SLPC  H13C 7631   5.029   2.002   2.477  0.0742 -0.8736 -0.8304
   82SLPC   C14 7632   5.034   2.244   2.598  0.2078  0.2786 -0.3221
   82SLPC  H14A 7633   4.991   2.317   2.665  0.5688  1.3141 -1.1820
   82SLPC  H14B 7634   5.075   2.159   2.650 -1.8776 -1.0927 -0.8372
   82SLPC  H14C 7635   5.114   2.304   2.557  0.0884 -0.3619 -1.5265
   82SLPC   C15 7636   4.811   2.134   2.582 -0.4772  0.2768  0.3515
   82SLPC  H15A 7637   4.849   2.052   2.641 -2.3479 -0.3576  0.7441
   82SLPC  H15B 7638   4.757   2.199   2.649  0.7067  1.5255  0.1286
   82SLPC  H15C 7639   4.733   2.101   2.515  1.4807 -0.5645 -1.6409
   82SLPC   C12 7640   4.877   2.307   2.419  0.4685  0.1331 -0.2610
   82SLPC  H12A 7641   4.793   2.271   2.362  0.9182 -1.7339  0.1910
   82SLPC  H12B 7642   4.961   2.335   2.357  1.5123  0.8384  1.4141
   82SLPC   C11 7643   4.824   2.434   2.484 -0.3101 -0.6604 -0.8157
   82SLPC  H11A 7644   4.823   2.516   2.409 -0.9492 -0.2524 -0.3650
   82SLPC  H11B 7645   4.878   2.466   2.576  0.1086 -1.2513 -0.8526
   82SLPC     P 7646   4.611   2.502   2.608  0.0653  0.2146  0.0041
   82SLPC   O13 7647   4.585   2.618   2.516 -1.1465 -1.2106 -0.8064
   82SLPC   O14 7648   4.491   2.438   2.664  0.7880  0.3989  0.3408
   82SLPC   O12 7649   4.686   2.404   2.516 -0.9834 -0.1679 -0.1674
   82SLPC   O11 7650   4.714   2.538   2.729 -0.3468 -0.5763 -0.4700
   82SLPC    C1 7651   4.719   2.446   2.843 -0.0061 -0.2243  0.6113
   82SLPC    HA 7652   4.644   2.364   2.849 -1.6354  1.0955 -0.8710
   82SLPC    HB 7653   4.824   2.410   2.849  0.8512  1.8794 -0.6071
   82SLPC    C2 7654   4.691   2.520   2.978 -0.1181  0.2226 -0.3682
   82SLPC    HS 7655   4.582   2.522   2.995 -0.0983 -0.5332 -0.1362
   82SLPC   O21 7656   4.745   2.663   2.978 -0.2287  0.2518  0.6532
   82SLPC   C21 7657   4.701   2.731   3.083  0.4525  0.6810  0.4588
   82SLPC   O22 7658   4.602   2.695   3.148  0.8136  0.2896  0.1220
   82SLPC   C22 7659   4.796   2.840   3.117 -0.2627 -0.3331 -0.0532
   82SLPC   H2R 7660   4.873   2.854   3.037 -0.6435  1.6613 -0.1207
   82SLPC   H2S 7661   4.724   2.924   3.116  0.0031 -0.1029 -0.3289
   82SLPC    C3 7662   4.762   2.449   3.093 -0.1707 -0.3447 -0.6965
   82SLPC    HX 7663   4.721   2.493   3.186 -0.7899  0.3312 -1.2736
   82SLPC    HY 7664   4.870   2.472   3.083 -0.1762 -0.2912 -0.6296
   82SLPC   O31 7665   4.731   2.310   3.091  0.8833 -0.0939 -0.1726
   82SLPC   C31 7666   4.766   2.243   3.202 -0.1265 -0.4664  0.1401
   82SLPC   O32 7667   4.830   2.291   3.296 -0.6785  0.2803 -0.2172
   82SLPC   C32 7668   4.737   2.102   3.179  0.2701  0.6397  0.9514
   82SLPC   H2X 7669   4.827   2.046   3.143 -0.5860 -1.0700  1.3495
   82SLPC   H2Y 7670   4.652   2.096   3.108  0.6348  1.0162  0.4768
   82SLPC   C23 7671   4.868   2.813   3.248 -0.7144 -0.3097  0.1169
   82SLPC   H3R 7672   4.965   2.866   3.252 -0.0107 -1.1925 -2.6988
   82SLPC   H3S 7673   4.887   2.704   3.241 -2.9938 -0.9127  1.9647
   82SLPC   C24 7674   4.781   2.837   3.370  0.2160 -0.1554 -0.2142
   82SLPC   H4R 7675   4.686   2.780   3.362  0.7363 -0.9593 -0.6636
   82SLPC   H4S 7676   4.760   2.946   3.377  2.3116  0.2635  0.2533
   82SLPC   C25 7677   4.847   2.799   3.507  0.3523  0.5263  0.6063
   82SLPC   H5R 7678   4.804   2.867   3.584 -0.0378 -0.7222  1.5327
   82SLPC   H5S 7679   4.956   2.819   3.496 -0.0068  1.0721 -3.4166
   82SLPC   C26 7680   4.827   2.653   3.548  0.2513 -0.0522 -0.2944
   82SLPC   H6R 7681   4.895   2.575   3.507 -0.7195 -2.5559  2.4919
   82SLPC   H6S 7682   4.726   2.616   3.519  0.7710 -2.8528  1.1087
   82SLPC   C27 7683   4.835   2.633   3.702  0.0677  0.2769  0.4002
   82SLPC   H7R 7684   4.753   2.690   3.751 -0.7317 -1.0404  0.6394
   82SLPC   H7S 7685   4.939   2.663   3.727 -0.9922  2.8733  2.0235
   82SLPC   C28 7686   4.824   2.488   3.744  0.1476  1.0304  0.6064
   82SLPC   H8R 7687   4.844   2.463   3.850  0.6255  0.3107  0.3514
   82SLPC   H8S 7688   4.891   2.434   3.674 -0.8006  0.2707  0.2590
   82SLPC   C29 7689   4.689   2.433   3.702 -0.0046  0.8041 -0.2283
   82SLPC   H9R 7690   4.666   2.420   3.595  1.0869 -0.1296 -0.3543
   82SLPC  C210 7691   4.593   2.383   3.792 -1.3647 -0.0718  0.0034
   82SLPC  H10R 7692   4.497   2.363   3.742 -0.8726 -0.6034 -0.7488
   82SLPC  C211 7693   4.599   2.378   3.942 -0.1347  0.0200 -0.8908
   82SLPC  H11R 7694   4.704   2.361   3.971 -0.3053  0.1561 -0.1793
   82SLPC  H11S 7695   4.538   2.289   3.968 -0.0317  0.1825 -0.0549
   82SLPC  C212 7696   4.558   2.502   4.013  0.7484 -0.7958  0.4121
   82SLPC  H12R 7697   4.534   2.583   3.942  0.1053 -1.5230 -0.2066
   82SLPC  C213 7698   4.556   2.522   4.147 -0.6675  0.0411 -0.0855
   82SLPC  H13R 7699   4.526   2.621   4.184 -1.0685  0.3261 -1.1148
   82SLPC  C214 7700   4.583   2.415   4.250  0.5838  0.5637  0.2690
   82SLPC  H14R 7701   4.649   2.469   4.322  0.8281 -1.2644  1.5098
   82SLPC  H14S 7702   4.643   2.330   4.211  0.0225  0.3658 -0.1666
   82SLPC  C215 7703   4.457   2.361   4.324 -0.1468 -0.4552 -0.3784
   82SLPC  H15R 7704   4.487   2.294   4.407 -0.0451  1.2389  1.0065
   82SLPC  H15S 7705   4.392   2.302   4.255 -2.0182  2.0586 -0.9405
   82SLPC  C216 7706   4.382   2.473   4.401  0.0955 -0.7198 -0.4407
   82SLPC  H16R 7707   4.367   2.555   4.328  2.2476  1.6448  1.5723
   82SLPC  H16S 7708   4.443   2.503   4.489  0.7960 -0.2102 -1.0980
   82SLPC  C217 7709   4.238   2.418   4.442  0.7524 -1.3549  0.2807
   82SLPC  H17R 7710   4.180   2.380   4.355 -0.3022  0.9919 -0.1263
   82SLPC  H17S 7711   4.181   2.496   4.497  1.5195 -0.5753  0.0135
   82SLPC  C218 7712   4.239   2.310   4.551 -0.1324 -1.0118 -0.2328
   82SLPC  H18R 7713   4.277   2.355   4.645 -0.4081  2.7190 -1.7312
   82SLPC  H18S 7714   4.303   2.223   4.522 -0.9680 -1.2074 -1.6116
   82SLPC  H18T 7715   4.139   2.266   4.572 -1.0666  1.1253  0.0713
   82SLPC   C33 7716   4.673   2.024   3.298 -0.0532  0.2687 -0.6349
   82SLPC   H3X 7717   4.629   1.929   3.260 -3.4521  1.3949  0.1265
   82SLPC   H3Y 7718   4.591   2.084   3.341  0.1366 -0.0163  0.1417
   82SLPC   C34 7719   4.779   1.995   3.406  0.8238 -0.1825  0.2912
   82SLPC   H4X 7720   4.818   2.090   3.449 -0.7346  1.3315 -1.4342
   82SLPC   H4Y 7721   4.856   1.923   3.371 -0.9806 -2.3613  0.6143
   82SLPC   C35 7722   4.718   1.910   3.522 -0.1651  0.2439 -0.1501
   82SLPC   H5X 7723   4.804   1.877   3.584  1.2090  2.4782 -0.7377
   82SLPC   H5Y 7724   4.662   1.824   3.480 -1.9606  1.9286 -1.3958
   82SLPC   C36 7725   4.623   1.994   3.612 -0.9092  0.7507 -0.5666
   82SLPC   H6X 7726   4.542   2.031   3.545  0.6701  2.0535 -1.8615
   82SLPC   H6Y 7727   4.681   2.078   3.657 -1.5066  0.2734  1.1409
   82SLPC   C37 7728   4.560   1.909   3.724 -0.6843  0.3279 -0.1475
   82SLPC   H7X 7729   4.631   1.842   3.777  1.9762  2.8665 -0.2545
   82SLPC   H7Y 7730   4.486   1.844   3.672 -1.0362  0.9733 -0.4659
   82SLPC   C38 7731   4.496   1.990   3.841 -0.8745 -0.2499 -0.2524
   82SLPC   H8X 7732   4.409   2.048   3.802  0.0043  1.6701  0.4910
   82SLPC   H8Y 7733   4.572   2.066   3.871 -1.1439  0.9350 -2.3373
   82SLPC   C39 7734   4.456   1.893   3.955 -0.0942 -0.1986 -0.9799
   82SLPC   H9X 7735   4.540   1.834   3.998 -1.0849 -0.1370  1.1709
   82SLPC   H9Y 7736   4.392   1.817   3.906 -1.1144 -0.3116  0.4372
   82SLPC  C310 7737   4.373   1.961   4.067  0.5567 -0.1439 -0.1410
   82SLPC  H10X 7738   4.294   2.015   4.011  1.2059  0.6689 -0.2958
   82SLPC  H10Y 7739   4.434   2.044   4.109  1.1333 -1.7906  2.5601
   82SLPC  C311 7740   4.333   1.867   4.173  0.3517 -0.6529 -0.5338
   82SLPC  H11X 7741   4.418   1.815   4.221  0.5587 -0.0313 -0.2044
   82SLPC  H11Y 7742   4.267   1.787   4.134  0.8254 -0.2944 -2.1361
   82SLPC  C312 7743   4.254   1.950   4.280  0.1354  0.0241 -0.1598
   82SLPC  H12X 7744   4.176   2.015   4.235 -0.5595 -1.0567 -0.5476
   82SLPC  H12Y 7745   4.324   2.026   4.322  0.2699 -0.8603  1.2756
   82SLPC  C313 7746   4.197   1.874   4.401 -0.5460  0.1606 -0.3936
   82SLPC  H13X 7747   4.165   1.772   4.370 -1.4346  0.4581 -0.4614
   82SLPC  H13Y 7748   4.112   1.929   4.444  0.3824  0.4195  1.1793
   82SLPC  C314 7749   4.299   1.857   4.517 -0.0597 -0.2401 -0.1970
   82SLPC  H14X 7750   4.338   1.960   4.530 -2.3615  0.7756 -0.8553
   82SLPC  H14Y 7751   4.372   1.791   4.466 -2.0023  0.6891 -4.7125
   82SLPC  C315 7752   4.229   1.809   4.646 -0.3706 -0.9060 -0.2641
   82SLPC  H15X 7753   4.295   1.775   4.729 -0.8144  0.7952  0.8412
   82SLPC  H15Y 7754   4.165   1.721   4.622  1.2782 -2.9001  2.0991
   82SLPC  C316 7755   4.134   1.917   4.722  0.3067  0.2452 -0.1003
   82SLPC  H16X 7756   4.061   1.959   4.649  0.2654 -0.8940 -0.7386
   82SLPC  H16Y 7757   4.188   1.999   4.773  2.1162 -0.9218 -0.0561
   82SLPC  C317 7758   4.055   1.852   4.835  0.4291 -0.8774  0.0738
   82SLPC  H17X 7759   4.016   1.754   4.798 -0.6970 -0.4574  0.1191
   82SLPC  H17Y 7760   3.968   1.917   4.856  0.3850 -1.1496  0.7259
   82SLPC  C318 7761   4.137   1.830   4.961 -0.1824  0.3084 -0.6804
   82SLPC  H18X 7762   4.209   1.746   4.960 -1.3668 -0.8514  1.7107
   82SLPC  H18Y 7763   4.069   1.809   5.046 -0.2220  2.7588 -0.0197
   82SLPC  H18Z 7764   4.180   1.922   5.008 -1.9402  0.7572  0.1658
   83SLPC     N 7765   6.517   3.735   2.145 -0.3291 -0.6483 -0.2547
   83SLPC   C13 7766   6.390   3.803   2.168 -0.3759 -0.4109 -0.6485
   83SLPC  H13A 7767   6.395   3.911   2.172  0.4344 -0.4605 -0.2202
   83SLPC  H13B 7768   6.325   3.787   2.083 -0.0743  0.7497 -1.1201
   83SLPC  H13C 7769   6.339   3.763   2.255 -0.0836  3.4283  1.5514
   83SLPC   C14 7770   6.568   3.752   2.005  0.3299 -0.5326 -0.5418
   83SLPC  H14A 7771   6.573   3.858   1.983  2.5001 -0.2052  1.1441
   83SLPC  H14B 7772   6.667   3.710   1.993  0.4118 -0.1338 -1.3274
   83SLPC  H14C 7773   6.499   3.705   1.936  0.4878 -0.0814 -1.0098
   83SLPC   C15 7774   6.492   3.588   2.167 -0.3737 -0.2860 -0.0411
   83SLPC  H15A 7775   6.585   3.532   2.170  0.7435  1.4624 -0.6453
   83SLPC  H15B 7776   6.442   3.574   2.262  1.3613 -0.8728  0.8281
   83SLPC  H15C 7777   6.417   3.544   2.103  0.4663  0.2075 -1.3922
   83SLPC   C12 7778   6.618   3.785   2.244  0.2020 -0.6755 -0.0954
   83SLPC  H12A 7779   6.644   3.888   2.224 -0.2156 -0.4998  0.2628
   83SLPC  H12B 7780   6.716   3.743   2.224 -0.3504 -1.9453 -0.1899
   83SLPC   C11 7781   6.588   3.782   2.399 -0.3482  0.6386  0.1569
   83SLPC  H11A 7782   6.509   3.859   2.406 -1.1058  0.1329 -1.9882
   83SLPC  H11B 7783   6.682   3.810   2.451 -0.5989  3.9460 -0.9470
   83SLPC     P 7784   6.415   3.648   2.528 -0.2410  0.3177  0.2774
   83SLPC   O13 7785   6.314   3.728   2.459  0.4183 -0.3078 -0.2472
   83SLPC   O14 7786   6.382   3.502   2.542 -0.1912 -0.1940 -0.2538
   83SLPC   O12 7787   6.549   3.652   2.445 -0.1802 -0.8664 -0.0675
   83SLPC   O11 7788   6.452   3.716   2.663 -0.4420  0.5426 -0.6707
   83SLPC    C1 7789   6.422   3.855   2.699 -0.2604  0.0110  0.1876
   83SLPC    HA 7790   6.463   3.926   2.624 -0.8970 -0.1398 -0.3085
   83SLPC    HB 7791   6.313   3.875   2.696 -0.0302  1.2912 -0.3432
   83SLPC    C2 7792   6.488   3.897   2.833 -0.6488  0.6282  1.0545
   83SLPC    HS 7793   6.465   4.006   2.844 -1.0264  1.0031 -2.4463
   83SLPC   O21 7794   6.633   3.874   2.831  0.8006  0.1381  0.3379
   83SLPC   C21 7795   6.704   3.951   2.759 -0.9604  0.0161  0.3776
   83SLPC   O22 7796   6.660   4.045   2.691 -0.1293  0.0878  0.1928
   83SLPC   C22 7797   6.851   3.913   2.773  1.0424 -0.7423 -0.8065
   83SLPC   H2R 7798   6.850   3.807   2.742 -2.4290 -0.8209 -0.8846
   83SLPC   H2S 7799   6.903   3.993   2.715  1.4361  1.6863  2.5918
   83SLPC    C3 7800   6.423   3.811   2.952  0.3492 -0.3951  0.0375
   83SLPC    HX 7801   6.419   3.706   2.915  2.1494  0.2509 -2.2224
   83SLPC    HY 7802   6.318   3.846   2.962 -0.0383 -1.2471 -0.8758
   83SLPC   O31 7803   6.495   3.837   3.078  0.4269  0.2065 -0.9997
   83SLPC   C31 7804   6.563   3.732   3.120 -0.9431  0.3091 -0.3878
   83SLPC   O32 7805   6.567   3.621   3.070 -0.6040 -0.6359  0.0915
   83SLPC   C32 7806   6.644   3.783   3.241  0.4895  0.3017  0.5104
   83SLPC   H2X 7807   6.578   3.849   3.302 -0.4148  0.5279 -0.6707
   83SLPC   H2Y 7808   6.734   3.841   3.212  2.1729 -2.1130  0.6020
   83SLPC   C23 7809   6.884   3.934   2.925 -0.9328  0.3917  0.3548
   83SLPC   H3R 7810   6.856   3.844   2.983  1.2322 -0.1824  0.6098
   83SLPC   H3S 7811   6.820   4.017   2.962  1.7624  2.1258  1.4812
   83SLPC   C24 7812   7.022   3.984   2.964  0.4633 -0.0363  0.3004
   83SLPC   H4R 7813   7.045   4.072   2.899 -1.3828 -0.4558 -1.0020
   83SLPC   H4S 7814   7.098   3.909   2.933  0.3251 -0.8276  1.7973
   83SLPC   C25 7815   7.045   4.014   3.118 -0.1838 -0.2909 -0.3700
   83SLPC   H5R 7816   7.102   3.932   3.166 -0.0803  0.9032  1.6951
   83SLPC   H5S 7817   6.946   4.022   3.169  0.5196  2.2537  0.7631
   83SLPC   C26 7818   7.118   4.151   3.146  0.0026  0.2384  0.1492
   83SLPC   H6R 7819   7.067   4.245   3.117  0.4817  1.1235  2.0757
   83SLPC   H6S 7820   7.203   4.149   3.073 -1.2282  0.4113 -1.3496
   83SLPC   C27 7821   7.195   4.176   3.277 -0.6187  0.6953  0.0910
   83SLPC   H7R 7822   7.285   4.111   3.271  0.9068  2.6110  0.8835
   83SLPC   H7S 7823   7.123   4.139   3.353 -0.6307  0.7184  0.0908
   83SLPC   C28 7824   7.245   4.323   3.282 -0.1327  0.8864  0.1319
   83SLPC   H8R 7825   7.157   4.390   3.268 -1.8864 -1.3061  0.1746
   83SLPC   H8S 7826   7.316   4.336   3.197 -0.7698  0.0605 -0.5401
   83SLPC   C29 7827   7.301   4.340   3.421  0.2029  0.1794 -0.1977
   83SLPC   H9R 7828   7.339   4.246   3.464  0.2928  1.3918  2.6227
   83SLPC  C210 7829   7.302   4.450   3.499 -1.1934 -0.2921  0.7733
   83SLPC  H10R 7830   7.349   4.452   3.599  2.4936 -0.6515 -0.7718
   83SLPC  C211 7831   7.257   4.587   3.457  0.5801 -0.0263  0.0696
   83SLPC  H11R 7832   7.292   4.608   3.354  0.3740  0.6802  0.1403
   83SLPC  H11S 7833   7.306   4.656   3.529 -1.8709  2.5965 -0.6132
   83SLPC  C212 7834   7.107   4.601   3.467  1.1492  0.6765 -0.1702
   83SLPC  H12R 7835   7.063   4.526   3.400  1.1326  2.0207 -1.7531
   83SLPC  C213 7836   7.023   4.661   3.554  0.3924  0.3478  1.1850
   83SLPC  H13R 7837   6.916   4.634   3.550  0.7106 -0.8172 -0.0102
   83SLPC  C214 7838   7.066   4.752   3.669  0.1889 -0.6586  0.3520
   83SLPC  H14R 7839   7.085   4.860   3.651  1.6119 -0.7348  1.2661
   83SLPC  H14S 7840   7.160   4.709   3.710  0.3631 -0.8782 -0.2672
   83SLPC  C215 7841   6.977   4.749   3.797 -0.3349  1.0189 -0.3801
   83SLPC  H15R 7842   7.002   4.845   3.846  0.9711  1.8020 -2.4527
   83SLPC  H15S 7843   7.012   4.672   3.868 -2.0450  0.8376  0.3288
   83SLPC  C216 7844   6.833   4.758   3.778  0.3107 -0.3528 -0.9154
   83SLPC  H16R 7845   6.784   4.665   3.745 -0.6819 -0.0096 -0.4372
   83SLPC  H16S 7846   6.822   4.838   3.702 -2.1368 -0.6548 -0.9455
   83SLPC  C217 7847   6.767   4.800   3.910  0.8773 -0.3621 -0.2819
   83SLPC  H17R 7848   6.812   4.892   3.954  2.1134 -1.2098  0.2580
   83SLPC  H17S 7849   6.781   4.721   3.986 -4.0456 -0.4389  0.9230
   83SLPC  C218 7850   6.612   4.816   3.893  0.4481 -0.1285 -0.5855
   83SLPC  H18R 7851   6.557   4.831   3.988  0.8888 -2.8058  0.1720
   83SLPC  H18S 7852   6.575   4.720   3.850  1.8000 -1.3868  0.9427
   83SLPC  H18T 7853   6.586   4.894   3.818  0.2718 -0.2111 -0.6130
   83SLPC   C33 7854   6.685   3.667   3.338 -0.8441 -0.7229 -0.7288
   83SLPC   H3X 7855   6.751   3.588   3.296  0.1171  0.0485 -0.7077
   83SLPC   H3Y 7856   6.597   3.616   3.381  1.1177 -2.5457  1.3536
   83SLPC   C34 7857   6.761   3.724   3.460 -0.2098 -0.5005 -0.5735
   83SLPC   H4X 7858   6.785   3.636   3.524 -1.7098 -1.2159 -0.9578
   83SLPC   H4Y 7859   6.702   3.803   3.512  0.6485 -0.2621  0.0587
   83SLPC   C35 7860   6.889   3.802   3.443  0.6956  0.4416  0.8992
   83SLPC   H5X 7861   6.879   3.907   3.410 -2.0879  0.5625  1.8867
   83SLPC   H5Y 7862   6.961   3.751   3.374  1.3107  0.8360  1.2377
   83SLPC   C36 7863   6.960   3.826   3.573 -0.4358  0.2767 -0.6721
   83SLPC   H6X 7864   6.997   3.728   3.609 -0.1829  1.2806  2.0347
   83SLPC   H6Y 7865   6.884   3.860   3.647  0.5990 -0.3140  0.7040
   83SLPC   C37 7866   7.084   3.914   3.561  0.2373 -0.8200  0.5705
   83SLPC   H7X 7867   7.056   4.017   3.531 -1.4332 -1.5819 -0.5967
   83SLPC   H7Y 7868   7.140   3.858   3.483 -1.5618 -0.2276 -1.2311
   83SLPC   C38 7869   7.169   3.929   3.685  0.2800 -0.1588 -0.0391
   83SLPC   H8X 7870   7.254   3.999   3.669 -0.3660  0.8808  0.9173
   83SLPC   H8Y 7871   7.201   3.826   3.710 -0.5510 -0.2079  0.8656
   83SLPC   C39 7872   7.084   3.990   3.798  0.0828  0.3563 -0.1886
   83SLPC   H9X 7873   6.996   3.926   3.820  0.1516  0.8565  1.7019
   83SLPC   H9Y 7874   7.052   4.096   3.783 -2.4539 -0.0391  1.7505
   83SLPC  C310 7875   7.153   4.004   3.932 -0.4680  0.5971  0.0751
   83SLPC  H10X 7876   7.242   4.070   3.925 -1.4468  1.8609 -0.8586
   83SLPC  H10Y 7877   7.187   3.903   3.964  0.1473  0.9129  0.4277
   83SLPC  C311 7878   7.054   4.064   4.035 -0.5158  0.6291  0.8672
   83SLPC  H11X 7879   6.971   3.990   4.042 -1.4461  1.3703 -1.3467
   83SLPC  H11Y 7880   7.015   4.158   3.990  0.9837  1.3009  0.9334
   83SLPC  C312 7881   7.104   4.096   4.177 -0.1099  0.2897  0.3492
   83SLPC  H12X 7882   7.029   4.154   4.234 -0.4320 -0.6670  0.9080
   83SLPC  H12Y 7883   7.194   4.160   4.162  1.0937 -0.9754  1.8753
   83SLPC  C313 7884   7.164   3.979   4.264 -0.7062  0.3832 -0.1683
   83SLPC  H13X 7885   7.234   3.918   4.203 -0.9669 -1.6233  1.4263
   83SLPC  H13Y 7886   7.083   3.910   4.296 -1.6106  0.9130 -1.2415
   83SLPC  C314 7887   7.241   4.025   4.390  0.3223 -0.5624  0.0074
   83SLPC  H14X 7888   7.275   3.940   4.453 -1.9298 -2.3769 -1.0653
   83SLPC  H14Y 7889   7.165   4.079   4.450 -0.8668 -2.7893  0.6126
   83SLPC  C315 7890   7.369   4.109   4.358  0.4576 -0.0437 -0.4090
   83SLPC  H15X 7891   7.336   4.205   4.312 -2.7705 -0.2340  1.1904
   83SLPC  H15Y 7892   7.446   4.062   4.293  0.0037  1.5044 -2.1758
   83SLPC  C316 7893   7.449   4.154   4.481  0.3276  0.2526 -0.4747
   83SLPC  H16X 7894   7.466   4.064   4.543 -1.8180  0.8204  1.0309
   83SLPC  H16Y 7895   7.392   4.230   4.539  0.3121 -0.6345  0.6915
   83SLPC  C317 7896   7.586   4.222   4.455 -0.4281 -0.0127 -0.5818
   83SLPC  H17X 7897   7.665   4.150   4.424 -0.7122 -0.4147 -0.3984
   83SLPC  H17Y 7898   7.617   4.255   4.556 -0.5047  1.2481 -0.9607
   83SLPC  C318 7899   7.579   4.339   4.350  0.2902  0.5102 -0.2256
   83SLPC  H18X 7900   7.501   4.414   4.378 -1.1786 -1.2238  0.5707
   83SLPC  H18Y 7901   7.555   4.303   4.248  1.6848 -2.7661  0.4966
   83SLPC  H18Z 7902   7.674   4.396   4.341 -0.1672  0.9738 -3.0393
   84SLPC     N 7903   0.366   2.902   2.492  0.7029  0.1769 -0.1281
   84SLPC   C13 7904   0.421   2.783   2.559 -0.1246 -0.1890 -1.0263
   84SLPC  H13A 7905   0.512   2.816   2.607 -1.4550  2.8282 -0.3663
   84SLPC  H13B 7906   0.354   2.743   2.633  0.4611  1.2107  0.3256
   84SLPC  H13C 7907   0.448   2.707   2.487 -1.9573 -0.5355 -1.3808
   84SLPC   C14 7908   0.465   2.960   2.397 -0.4202 -0.3981  0.0074
   84SLPC  H14A 7909   0.560   2.962   2.450  0.7940  2.8607 -1.9294
   84SLPC  H14B 7910   0.479   2.907   2.305 -0.2603  0.6197 -0.5712
   84SLPC  H14C 7911   0.440   3.061   2.368 -0.7065 -0.3677  0.3478
   84SLPC   C15 7912   0.339   2.999   2.605  0.0109  0.0028 -0.3143
   84SLPC  H15A 7913   0.284   3.087   2.574  0.6770  0.4794 -0.1681
   84SLPC  H15B 7914   0.287   2.947   2.684  0.4566 -1.6114 -1.0324
   84SLPC  H15C 7915   0.432   3.035   2.647 -0.5416  0.1199  0.8490
   84SLPC   C12 7916   0.228   2.869   2.427 -0.2791 -0.9220  0.4686
   84SLPC  H12A 7917   0.157   2.851   2.506  0.9987 -3.6791  1.1324
   84SLPC  H12B 7918   0.240   2.781   2.365 -1.3632 -0.0401 -1.0757
   84SLPC   C11 7919   0.172   2.982   2.335 -0.0577 -0.3782 -0.0739
   84SLPC  H11A 7920   0.099   2.935   2.266  0.4983 -0.0654 -0.8933
   84SLPC  H11B 7921   0.253   3.026   2.273 -1.2568  0.9124 -0.7899
   84SLPC     P 7922  -0.015   3.097   2.483 -0.2879  0.3730  0.3633
   84SLPC   O13 7923  -0.108   3.172   2.400 -0.3718  0.5957  0.1473
   84SLPC   O14 7924  -0.054   2.962   2.516 -0.4419  0.0166 -0.7242
   84SLPC   O12 7925   0.121   3.096   2.404  1.0702 -0.4395  0.3714
   84SLPC   O11 7926   0.031   3.172   2.611  0.1626 -0.3108  0.3164
   84SLPC    C1 7927  -0.063   3.208   2.720 -0.5061  0.0300  0.4271
   84SLPC    HA 7928  -0.101   3.312   2.708  0.4118  0.2500 -0.7668
   84SLPC    HB 7929  -0.149   3.139   2.728 -0.5617  0.0988  0.4249
   84SLPC    C2 7930  -0.006   3.198   2.861 -0.2688 -0.1020 -0.5484
   84SLPC    HS 7931  -0.084   3.237   2.929 -1.5911 -0.4931 -1.7833
   84SLPC   O21 7932   0.118   3.273   2.871  0.6245  0.0908 -0.5493
   84SLPC   C21 7933   0.107   3.378   2.953  0.0584  0.2477 -0.4166
   84SLPC   O22 7934   0.012   3.421   3.010  0.4698 -0.3186  0.0728
   84SLPC   C22 7935   0.251   3.435   2.969 -0.5197  0.2989  0.2230
   84SLPC   H2R 7936   0.327   3.355   2.965  0.0769  0.8969 -0.8146
   84SLPC   H2S 7937   0.274   3.486   2.873  1.9497 -2.0406 -0.5504
   84SLPC    C3 7938   0.021   3.055   2.897  0.1460 -0.0875  0.2109
   84SLPC    HX 7939   0.120   3.027   2.856  0.4304  1.4862 -0.2187
   84SLPC    HY 7940  -0.054   2.988   2.849  0.6282 -0.1569 -0.4583
   84SLPC   O31 7941   0.018   3.025   3.038  0.6218 -0.2286  0.2846
   84SLPC   C31 7942  -0.109   3.020   3.092  0.1347 -0.1507 -1.1824
   84SLPC   O32 7943  -0.212   3.043   3.035  0.0434  0.4467  0.8193
   84SLPC   C32 7944  -0.111   2.985   3.244  0.4151 -0.2712  0.4033
   84SLPC   H2X 7945  -0.148   2.880   3.241  1.3361 -0.5842 -0.6887
   84SLPC   H2Y 7946  -0.190   3.046   3.293 -0.3867 -2.2907  1.7498
   84SLPC   C23 7947   0.251   3.536   3.088  0.5921 -0.1905 -0.3033
   84SLPC   H3R 7948   0.167   3.607   3.076  0.8406  0.1062 -0.3058
   84SLPC   H3S 7949   0.346   3.594   3.084 -0.8240  2.2588 -0.0368
   84SLPC   C24 7950   0.247   3.467   3.219 -0.2134 -0.3377 -0.1335
   84SLPC   H4R 7951   0.323   3.386   3.230 -0.7629 -0.9717 -0.8426
   84SLPC   H4S 7952   0.149   3.421   3.244  1.0079 -1.1879  3.7100
   84SLPC   C25 7953   0.276   3.567   3.338  0.6151  0.3401  0.7676
   84SLPC   H5R 7954   0.215   3.660   3.329  1.0026  0.5258 -0.0558
   84SLPC   H5S 7955   0.377   3.610   3.319  0.1857  1.0452  0.0503
   84SLPC   C26 7956   0.263   3.492   3.468 -0.5613 -0.2840  0.4637
   84SLPC   H6R 7957   0.294   3.561   3.549  1.0607  0.5004 -0.7438
   84SLPC   H6S 7958   0.347   3.419   3.478  1.6755  1.9553 -0.7166
   84SLPC   C27 7959   0.127   3.437   3.495  0.0422  0.4304 -0.4739
   84SLPC   H7R 7960   0.104   3.350   3.431  0.0270 -0.9451  1.3103
   84SLPC   H7S 7961   0.048   3.514   3.488  0.0627  1.0574  3.6738
   84SLPC   C28 7962   0.104   3.380   3.640  0.0881 -0.3376 -0.3742
   84SLPC   H8R 7963   0.175   3.296   3.656  0.2582 -0.2029 -0.4105
   84SLPC   H8S 7964   0.001   3.341   3.641  0.3536 -1.1585  1.8715
   84SLPC   C29 7965   0.114   3.488   3.750 -0.2001  0.1830  0.1580
   84SLPC   H9R 7966   0.198   3.556   3.727 -0.5661  1.0000  1.1394
   84SLPC  C210 7967   0.041   3.504   3.858  0.1166 -0.4820 -0.0868
   84SLPC  H10R 7968   0.064   3.587   3.926  2.5033 -1.6218  0.6185
   84SLPC  C211 7969  -0.076   3.410   3.904 -0.0878  0.2976  0.8216
   84SLPC  H11R 7970  -0.038   3.320   3.956 -1.2514 -0.8927 -0.3138
   84SLPC  H11S 7971  -0.118   3.360   3.814  2.2324  0.4796 -0.4595
   84SLPC  C212 7972  -0.178   3.489   3.983 -0.0618 -0.2372  0.3150
   84SLPC  H12R 7973  -0.185   3.597   3.961 -1.6822 -0.6810 -1.7343
   84SLPC  C213 7974  -0.264   3.431   4.074 -0.6568  0.0619  0.2981
   84SLPC  H13R 7975  -0.343   3.494   4.118 -0.1328  1.4864 -0.7295
   84SLPC  C214 7976  -0.277   3.283   4.112 -0.2760 -0.7673  0.0827
   84SLPC  H14R 7977  -0.175   3.241   4.099  0.9646  2.4690 -1.7641
   84SLPC  H14S 7978  -0.342   3.232   4.038 -1.1364 -1.2440  1.1383
   84SLPC  C215 7979  -0.334   3.261   4.250 -0.5890  0.2537 -0.0199
   84SLPC  H15R 7980  -0.327   3.151   4.269 -2.4808 -0.0135 -0.7052
   84SLPC  H15S 7981  -0.444   3.271   4.256 -0.9142 -2.2652 -0.6283
   84SLPC  C216 7982  -0.279   3.342   4.368 -0.1148  0.3670  0.3881
   84SLPC  H16R 7983  -0.329   3.322   4.465 -2.4201 -0.7557 -0.9534
   84SLPC  H16S 7984  -0.288   3.448   4.335  1.0186 -0.0403 -1.4358
   84SLPC  C217 7985  -0.130   3.307   4.378 -0.2196 -0.3295 -0.2062
   84SLPC  H17R 7986  -0.075   3.319   4.282  1.2588  0.5390  0.7098
   84SLPC  H17S 7987  -0.110   3.203   4.412  2.0910 -1.2705 -3.8351
   84SLPC  C218 7988  -0.051   3.401   4.470  0.5182 -0.1332  1.1436
   84SLPC  H18R 7989   0.046   3.350   4.488  0.4275 -0.3666  0.9783
   84SLPC  H18S 7990  -0.109   3.421   4.562  0.5897  1.3455  0.8899
   84SLPC  H18T 7991  -0.027   3.498   4.421  0.1926 -0.6143  0.0082
   84SLPC   C33 7992   0.033   2.999   3.303  0.3982 -0.4939 -0.1874
   84SLPC   H3X 7993   0.068   3.104   3.306  1.0720 -0.6900 -0.7531
   84SLPC   H3Y 7994   0.104   2.940   3.240 -0.7603 -0.4437 -1.6064
   84SLPC   C34 7995   0.046   2.939   3.442 -0.5957 -0.2235 -1.2256
   84SLPC   H4X 7996   0.147   2.962   3.482 -0.8449 -1.4996  0.2460
   84SLPC   H4Y 7997   0.031   2.829   3.432  1.0799 -0.5263 -0.6303
   84SLPC   C35 7998  -0.054   3.003   3.542 -0.0050 -0.9319 -0.3917
   84SLPC   H5X 7999  -0.153   2.973   3.502 -0.0139 -0.8583 -0.4239
   84SLPC   H5Y 8000  -0.052   3.113   3.533  2.0443 -1.0960 -3.7872
   84SLPC   C36 8001  -0.033   2.962   3.687  0.3471 -0.2974 -0.3649
   84SLPC   H6X 8002   0.072   2.983   3.714 -0.2185 -0.3130  2.0951
   84SLPC   H6Y 8003  -0.053   2.852   3.687  0.4062 -0.3219 -1.6376
   84SLPC   C37 8004  -0.123   3.040   3.785 -0.2589  0.4577  0.4812
   84SLPC   H7X 8005  -0.221   3.023   3.736  0.0900  0.6050 -0.2819
   84SLPC   H7Y 8006  -0.102   3.149   3.776  0.7127  0.3002  0.6775
   84SLPC   C38 8007  -0.115   3.002   3.932 -0.4233 -0.9640 -0.0588
   84SLPC   H8X 8008  -0.217   3.015   3.974 -0.8658 -0.0484 -1.3508
   84SLPC   H8Y 8009  -0.040   3.068   3.981 -0.1556 -1.7286  0.5858
   84SLPC   C39 8010  -0.081   2.855   3.970  0.4671 -0.1620 -0.4940
   84SLPC   H9X 8011   0.025   2.835   3.941  0.1773 -1.6907 -0.6105
   84SLPC   H9Y 8012  -0.146   2.788   3.910 -2.4325  1.6454  0.4224
   84SLPC  C310 8013  -0.088   2.828   4.123 -0.2517  0.0381 -0.3241
   84SLPC  H10X 8014  -0.033   2.736   4.152 -1.8694 -1.8280 -2.7832
   84SLPC  H10Y 8015  -0.194   2.824   4.154 -0.1784  1.7804  0.2675
   84SLPC  C311 8016  -0.035   2.942   4.216 -0.5252  0.3507  0.9108
   84SLPC  H11X 8017  -0.084   3.036   4.182  0.1886  0.9502  1.5262
   84SLPC  H11Y 8018   0.074   2.957   4.202 -0.2272 -1.5176  1.0025
   84SLPC  C312 8019  -0.059   2.936   4.368 -0.2540 -0.4971  0.2996
   84SLPC  H12X 8020  -0.169   2.950   4.378 -0.4654  0.0105 -2.1224
   84SLPC  H12Y 8021  -0.009   3.019   4.422 -1.8391  0.2735  0.6271
   84SLPC  C313 8022  -0.015   2.809   4.429 -0.1303 -0.2746  1.3004
   84SLPC  H13X 8023   0.070   2.775   4.367 -1.2943 -0.9734  0.0317
   84SLPC  H13Y 8024  -0.093   2.732   4.409 -0.2359 -0.7135  3.1766
   84SLPC  C314 8025   0.020   2.801   4.574 -0.5036  0.2999 -0.5657
   84SLPC  H14X 8026  -0.067   2.844   4.628  0.2444 -0.1725  1.0473
   84SLPC  H14Y 8027   0.115   2.856   4.589 -1.2041  0.9021  2.2874
   84SLPC  C315 8028   0.050   2.657   4.620  0.1916 -0.0836 -0.5297
   84SLPC  H15X 8029   0.108   2.597   4.547  0.9458  0.5661 -0.4717
   84SLPC  H15Y 8030  -0.042   2.595   4.629  1.4043 -2.1907 -1.7088
   84SLPC  C316 8031   0.129   2.650   4.752 -0.8407  0.2902  0.2806
   84SLPC  H16X 8032   0.076   2.712   4.828  0.2651  1.4300  0.1545
   84SLPC  H16Y 8033   0.229   2.699   4.751 -0.6552  0.0850  2.6435
   84SLPC  C317 8034   0.134   2.496   4.800 -0.0197  0.2996  0.9968
   84SLPC  H17X 8035   0.185   2.430   4.726 -0.8771  1.8228 -1.0374
   84SLPC  H17Y 8036   0.029   2.460   4.809  0.4657 -1.6153 -0.3976
   84SLPC  C318 8037   0.209   2.478   4.934  0.0415  0.0158 -0.1126
   84SLPC  H18X 8038   0.166   2.537   5.018  1.5734 -1.3222  1.7015
   84SLPC  H18Y 8039   0.310   2.523   4.926 -0.1290  0.6958  1.1952
   84SLPC  H18Z 8040   0.224   2.372   4.964 -2.1348 -0.2090  0.3377
   85SLPC     N 8041   4.680   4.206   2.105 -0.1433 -0.1023  0.1671
   85SLPC   C13 8042   4.683   4.074   2.160 -0.0370 -0.5982 -0.0310
   85SLPC  H13A 8043   4.599   4.067   2.227  0.1049 -0.6280  0.1428
   85SLPC  H13B 8044   4.656   3.997   2.089 -2.5337 -1.7065  1.9298
   85SLPC  H13C 8045   4.777   4.052   2.208  0.3268 -0.8322 -0.8410
   85SLPC   C14 8046   4.786   4.223   1.993  0.0891 -0.2329  0.8708
   85SLPC  H14A 8047   4.880   4.205   2.043 -0.1836  0.2479  1.5758
   85SLPC  H14B 8048   4.766   4.145   1.922 -0.5940 -0.8978  1.7719
   85SLPC  H14C 8049   4.782   4.325   1.957  0.3439 -0.6343 -0.3135
   85SLPC   C15 8050   4.719   4.300   2.212 -0.6897  0.3951  0.6287
   85SLPC  H15A 8051   4.700   4.395   2.164  0.0949 -0.4986 -1.5801
   85SLPC  H15B 8052   4.645   4.286   2.290  0.1567 -0.3108  1.3255
   85SLPC  H15C 8053   4.820   4.288   2.246 -0.0196  2.4379 -0.4867
   85SLPC   C12 8054   4.538   4.250   2.049  0.2476  0.6255  0.0368
   85SLPC  H12A 8055   4.506   4.170   1.985  0.2891  2.6988 -2.7820
   85SLPC  H12B 8056   4.539   4.333   1.980  1.5024 -0.8371 -1.7969
   85SLPC   C11 8057   4.424   4.267   2.149  0.7413  0.5225  0.7374
   85SLPC  H11A 8058   4.334   4.308   2.099  0.8330 -0.2874 -0.1024
   85SLPC  H11B 8059   4.458   4.339   2.227  0.0531  2.0512 -0.3282
   85SLPC     P 8060   4.300   4.031   2.164  0.1687 -0.2058  0.2034
   85SLPC   O13 8061   4.277   4.038   2.015  0.3605  0.7718 -0.2016
   85SLPC   O14 8062   4.360   3.904   2.212  0.6749 -0.1332 -0.0170
   85SLPC   O12 8063   4.388   4.142   2.223 -0.1055  0.1726  0.0437
   85SLPC   O11 8064   4.163   4.061   2.237  0.4828 -0.0896 -0.5951
   85SLPC    C1 8065   4.126   4.182   2.301  0.0103 -0.4443 -0.0240
   85SLPC    HA 8066   4.176   4.270   2.255 -0.0559  1.0473  2.5741
   85SLPC    HB 8067   4.020   4.202   2.278  0.3714  0.0430 -1.3917
   85SLPC    C2 8068   4.149   4.183   2.453  0.0509 -0.3683 -0.3064
   85SLPC    HS 8069   4.259   4.181   2.468  0.0691 -0.2843 -0.4277
   85SLPC   O21 8070   4.082   4.074   2.523 -0.2571 -0.5113  0.0430
   85SLPC   C21 8071   4.152   3.990   2.589 -0.1537  0.1828  0.3405
   85SLPC   O22 8072   4.267   3.999   2.627 -0.0084  0.4314  0.0327
   85SLPC   C22 8073   4.059   3.873   2.627  0.5867  0.3177  0.1296
   85SLPC   H2R 8074   3.983   3.871   2.546  0.6961  3.1623 -0.1378
   85SLPC   H2S 8075   4.117   3.779   2.634 -1.1534 -0.6803  2.9696
   85SLPC    C3 8076   4.104   4.317   2.517  0.1422  0.6479 -0.4680
   85SLPC    HX 8077   3.995   4.324   2.499 -0.1628 -0.2917  0.8559
   85SLPC    HY 8078   4.160   4.402   2.472  0.0733  0.4747 -0.8841
   85SLPC   O31 8079   4.131   4.303   2.660  0.3545 -0.4494 -0.6222
   85SLPC   C31 8080   4.257   4.300   2.718  0.9045  0.0633  1.0048
   85SLPC   O32 8081   4.358   4.314   2.652  0.2315 -0.9377  0.1067
   85SLPC   C32 8082   4.245   4.270   2.862  0.1912  0.5119  0.3805
   85SLPC   H2X 8083   4.341   4.224   2.894 -1.0603 -2.3393  0.3642
   85SLPC   H2Y 8084   4.160   4.201   2.879 -1.3213  1.5793 -2.2553
   85SLPC   C23 8085   3.980   3.893   2.758 -0.0976  0.4353 -0.4350
   85SLPC   H3R 8086   4.060   3.884   2.835 -1.3728 -0.6725  0.7957
   85SLPC   H3S 8087   3.903   3.814   2.764 -0.4381  0.7624 -0.4934
   85SLPC   C24 8088   3.899   4.022   2.780  0.4766 -0.1995 -0.9152
   85SLPC   H4R 8089   3.850   4.037   2.682  0.2798  0.4200 -0.7336
   85SLPC   H4S 8090   3.961   4.110   2.809 -0.0808 -0.4673  1.3251
   85SLPC   C25 8091   3.793   4.004   2.886  0.6093  0.2740  0.8764
   85SLPC   H5R 8092   3.738   4.101   2.881  0.4524  0.1387 -0.2071
   85SLPC   H5S 8093   3.729   3.919   2.855 -0.1209  0.4593  1.8186
   85SLPC   C26 8094   3.858   3.979   3.028 -0.4241  0.2754 -0.2170
   85SLPC   H6R 8095   3.936   4.058   3.033  1.2946 -1.4461  1.9944
   85SLPC   H6S 8096   3.892   3.873   3.029  0.0519  0.4276  1.4878
   85SLPC   C27 8097   3.767   3.995   3.143  0.1496 -0.2509 -0.3262
   85SLPC   H7R 8098   3.685   3.920   3.138  0.6920 -1.0196  1.3874
   85SLPC   H7S 8099   3.722   4.096   3.149  1.9034  0.5251  0.8663
   85SLPC   C28 8100   3.844   3.982   3.278 -0.9379  1.3668  0.6738
   85SLPC   H8R 8101   3.939   4.039   3.269 -0.8017  0.9537 -0.7351
   85SLPC   H8S 8102   3.866   3.873   3.290 -0.0732  1.6374  1.7491
   85SLPC   C29 8103   3.750   4.010   3.388  0.5929 -0.6569 -0.6775
   85SLPC   H9R 8104   3.652   3.962   3.369  0.8301 -0.7274 -1.7647
   85SLPC  C210 8105   3.771   4.098   3.482 -0.0234 -0.0126 -0.2028
   85SLPC  H10R 8106   3.705   4.091   3.569  0.5482 -0.5051  0.2007
   85SLPC  C211 8107   3.900   4.180   3.508  0.2198 -0.6714 -0.0314
   85SLPC  H11R 8108   3.981   4.106   3.490 -0.1678 -1.3795  1.0206
   85SLPC  H11S 8109   3.920   4.206   3.614 -0.3939 -0.3262  0.0055
   85SLPC  C212 8110   3.909   4.294   3.410  0.0664  0.2996 -0.0916
   85SLPC  H12R 8111   3.835   4.294   3.328 -1.2735 -0.7942  1.0668
   85SLPC  C213 8112   3.981   4.408   3.431 -1.0678  0.0917  0.1416
   85SLPC  H13R 8113   3.970   4.495   3.364  1.9281 -0.2336 -0.9633
   85SLPC  C214 8114   4.084   4.430   3.544  0.2791 -0.0644 -0.1328
   85SLPC  H14R 8115   4.189   4.436   3.507  0.6068 -2.0472  0.3597
   85SLPC  H14S 8116   4.084   4.346   3.617 -2.1963  1.0053  1.2250
   85SLPC  C215 8117   4.046   4.552   3.618  0.3608 -0.0545  0.2257
   85SLPC  H15R 8118   3.947   4.533   3.664 -0.8419  1.1647 -1.7165
   85SLPC  H15S 8119   4.038   4.645   3.557 -0.5828 -0.2349  0.0518
   85SLPC  C216 8120   4.152   4.587   3.722  0.4646 -0.7750 -0.5274
   85SLPC  H16R 8121   4.241   4.620   3.664 -0.0167  2.0118  0.1759
   85SLPC  H16S 8122   4.173   4.495   3.781  0.7832 -0.4753 -0.1775
   85SLPC  C217 8123   4.095   4.696   3.820 -0.3772  0.5075 -0.0333
   85SLPC  H17R 8124   3.994   4.667   3.857 -0.3990 -0.1656 -0.5836
   85SLPC  H17S 8125   4.090   4.790   3.761  1.3279  0.5225 -0.1925
   85SLPC  C218 8126   4.190   4.727   3.930  0.1365 -0.8067 -0.3599
   85SLPC  H18R 8127   4.204   4.633   3.987  1.0189 -1.6039 -1.8206
   85SLPC  H18S 8128   4.160   4.815   3.990 -1.8840 -1.5653 -0.1751
   85SLPC  H18T 8129   4.287   4.751   3.883 -0.8610  0.7342 -1.7302
   85SLPC   C33 8130   4.219   4.399   2.939 -0.2144 -0.0836 -0.9311
   85SLPC   H3X 8131   4.147   4.460   2.882  1.3283  0.5045 -2.3361
   85SLPC   H3Y 8132   4.312   4.459   2.949 -0.3552  0.1108 -0.7798
   85SLPC   C34 8133   4.156   4.368   3.082 -0.5512  0.3527  0.2827
   85SLPC   H4X 8134   4.057   4.319   3.070 -0.8871  0.6056  1.8160
   85SLPC   H4Y 8135   4.133   4.466   3.129 -2.2404  0.0800  0.1050
   85SLPC   C35 8136   4.249   4.277   3.177 -0.2748 -0.5450  0.4344
   85SLPC   H5X 8137   4.265   4.177   3.133 -1.7520 -0.7950  0.4183
   85SLPC   H5Y 8138   4.201   4.252   3.274  0.4869  0.8133  1.1911
   85SLPC   C36 8139   4.388   4.334   3.209  0.5985 -0.3829 -0.0684
   85SLPC   H6X 8140   4.371   4.440   3.237 -0.3245 -0.7505  0.7858
   85SLPC   H6Y 8141   4.452   4.355   3.120  0.4263 -0.5267 -0.2246
   85SLPC   C37 8142   4.482   4.270   3.317 -0.0924  0.3655 -0.7659
   85SLPC   H7X 8143   4.487   4.165   3.281 -3.6134  0.2016 -1.1862
   85SLPC   H7Y 8144   4.434   4.288   3.416 -2.2226 -0.7294 -1.5285
   85SLPC   C38 8145   4.630   4.323   3.316  0.1223  0.0474 -0.0100
   85SLPC   H8X 8146   4.622   4.423   3.362  0.3445  0.1224 -0.1332
   85SLPC   H8Y 8147   4.663   4.324   3.209 -0.7342  1.3659 -0.2870
   85SLPC   C39 8148   4.736   4.235   3.397 -0.3056  0.1805 -0.0694
   85SLPC   H9X 8149   4.824   4.302   3.409 -2.6778  3.2782  1.4168
   85SLPC   H9Y 8150   4.754   4.146   3.333  3.1371 -0.4093  1.4766
   85SLPC  C310 8151   4.694   4.187   3.540 -0.2930  0.0403 -0.0485
   85SLPC  H10X 8152   4.770   4.120   3.584 -0.7413 -0.4780 -0.0570
   85SLPC  H10Y 8153   4.594   4.139   3.538 -0.7327  0.9130  0.1553
   85SLPC  C311 8154   4.675   4.297   3.648 -0.0748 -0.0788 -0.1261
   85SLPC  H11X 8155   4.618   4.386   3.614  2.3313  0.8824 -1.9204
   85SLPC  H11Y 8156   4.776   4.331   3.680 -0.6166  0.8364  0.6729
   85SLPC  C312 8157   4.623   4.235   3.777 -0.9997 -0.2691  0.0035
   85SLPC  H12X 8158   4.663   4.304   3.855 -1.6626  1.0867 -0.8309
   85SLPC  H12Y 8159   4.665   4.132   3.786 -1.6872 -0.4877  0.9858
   85SLPC  C313 8160   4.465   4.235   3.799 -0.4110  0.2200 -0.0408
   85SLPC  H13X 8161   4.406   4.179   3.724 -1.4177 -2.2571  2.4373
   85SLPC  H13Y 8162   4.430   4.339   3.815 -1.3637 -0.2175  0.7803
   85SLPC  C314 8163   4.437   4.163   3.941  0.2700 -0.1138 -1.3134
   85SLPC  H14X 8164   4.487   4.223   4.020  0.3519 -0.6018 -0.9850
   85SLPC  H14Y 8165   4.473   4.058   3.931  2.1828  0.3755 -0.1438
   85SLPC  C315 8166   4.292   4.155   3.985  0.3600  0.6652  0.6192
   85SLPC  H15X 8167   4.264   4.257   4.019  1.5110  1.7456 -1.5104
   85SLPC  H15Y 8168   4.279   4.076   4.062 -3.3998  0.0184 -0.4811
   85SLPC  C316 8169   4.195   4.118   3.871 -0.3818 -0.3119 -0.5676
   85SLPC  H16X 8170   4.199   4.185   3.783 -0.1104 -0.9061 -1.0158
   85SLPC  H16Y 8171   4.090   4.140   3.901  0.7710  2.0723  2.2556
   85SLPC  C317 8172   4.204   3.978   3.811 -0.3072 -0.5866 -0.1337
   85SLPC  H17X 8173   4.182   3.900   3.888  0.6954 -0.0332  0.7316
   85SLPC  H17Y 8174   4.310   3.973   3.779 -1.1997  0.3659 -3.6340
   85SLPC  C318 8175   4.126   3.949   3.690 -0.0401 -0.9001 -0.4342
   85SLPC  H18X 8176   4.140   4.042   3.631  0.2392  0.4366  1.6504
   85SLPC  H18Y 8177   4.016   3.942   3.707 -0.2004  0.2931 -0.8783
   85SLPC  H18Z 8178   4.168   3.855   3.648  0.5426 -0.7510 -0.1945
   86SLPC     N 8179   4.341   2.287   2.286  0.1272  0.3618 -0.1895
   86SLPC   C13 8180   4.326   2.398   2.388  0.2562 -0.2161  0.5349
   86SLPC  H13A 8181   4.235   2.455   2.371  1.3603  2.0707  1.8588
   86SLPC  H13B 8182   4.327   2.365   2.491  0.0633 -0.5885  0.4207
   86SLPC  H13C 8183   4.399   2.477   2.387 -0.2244  0.2382  0.8206
   86SLPC   C14 8184   4.341   2.352   2.151 -0.2530 -0.0030 -0.6259
   86SLPC  H14A 8185   4.247   2.405   2.146 -1.0898 -1.4528 -0.7799
   86SLPC  H14B 8186   4.426   2.420   2.154 -0.5023  0.2925  2.1100
   86SLPC  H14C 8187   4.350   2.290   2.063  3.0851  0.2500 -0.5833
   86SLPC   C15 8188   4.224   2.197   2.303  0.1501  0.6362 -0.0079
   86SLPC  H15A 8189   4.126   2.241   2.295  0.9946  3.0565  1.7684
   86SLPC  H15B 8190   4.227   2.116   2.231 -0.4504 -0.3647  1.0491
   86SLPC  H15C 8191   4.236   2.158   2.403  1.6201  1.6424  0.2433
   86SLPC   C12 8192   4.464   2.214   2.316 -0.8041 -0.1231  1.0827
   86SLPC  H12A 8193   4.547   2.283   2.308  0.1061 -0.9648  2.7488
   86SLPC  H12B 8194   4.486   2.140   2.240  1.4126  1.6069 -0.0707
   86SLPC   C11 8195   4.468   2.126   2.449 -0.2165  0.1132  0.0470
   86SLPC  H11A 8196   4.374   2.080   2.488 -0.4043  0.7108  0.3078
   86SLPC  H11B 8197   4.509   2.194   2.527  3.0340 -2.8109  1.1481
   86SLPC     P 8198   4.546   1.878   2.406 -0.3131  0.1067 -0.2209
   86SLPC   O13 8199   4.481   1.881   2.272  0.4120  0.3235  0.7455
   86SLPC   O14 8200   4.677   1.814   2.418  0.0650  0.4013 -0.4411
   86SLPC   O12 8201   4.563   2.022   2.444 -0.1213 -0.3434  0.2293
   86SLPC   O11 8202   4.452   1.824   2.524  0.2445  0.0992 -0.0489
   86SLPC    C1 8203   4.459   1.873   2.657  0.2606  0.0108  0.2011
   86SLPC    HA 8204   4.549   1.934   2.677 -0.4837  0.4063  2.8350
   86SLPC    HB 8205   4.375   1.939   2.687  2.6215  2.1920  2.4791
   86SLPC    C2 8206   4.450   1.760   2.768 -1.4631  0.1375  0.5084
   86SLPC    HS 8207   4.528   1.684   2.746 -2.1933 -0.5620  0.2961
   86SLPC   O21 8208   4.319   1.702   2.779 -0.1579  0.1606  0.3153
   86SLPC   C21 8209   4.306   1.583   2.830  0.2700  0.6078  0.4868
   86SLPC   O22 8210   4.394   1.517   2.881 -0.6752  0.0715 -0.3963
   86SLPC   C22 8211   4.161   1.558   2.841 -0.1808 -0.4762 -0.0017
   86SLPC   H2R 8212   4.110   1.655   2.858 -0.3284 -0.7925  1.4577
   86SLPC   H2S 8213   4.121   1.511   2.749 -2.3003 -0.0306  0.6510
   86SLPC    C3 8214   4.484   1.827   2.905  0.0669 -0.0497 -0.6194
   86SLPC    HX 8215   4.398   1.897   2.915 -1.5150 -2.0183  0.0049
   86SLPC    HY 8216   4.578   1.886   2.893 -0.2839  0.7651  0.4238
   86SLPC   O31 8217   4.493   1.745   3.029  0.4064 -0.3778  0.2978
   86SLPC   C31 8218   4.596   1.661   3.026  0.0948 -0.2984 -0.6854
   86SLPC   O32 8219   4.692   1.668   2.949  0.1935 -0.0265 -0.3333
   86SLPC   C32 8220   4.574   1.555   3.147 -0.0148 -0.3596  0.2562
   86SLPC   H2X 8221   4.673   1.505   3.155  0.7828  0.3174 -3.3593
   86SLPC   H2Y 8222   4.496   1.487   3.108 -0.8105  0.0861  1.0248
   86SLPC   C23 8223   4.136   1.461   2.968 -0.1598 -0.5866  0.3219
   86SLPC   H3R 8224   4.196   1.483   3.059  3.8420 -2.6337 -1.5542
   86SLPC   H3S 8225   4.163   1.357   2.940 -1.1893 -0.1089 -2.8332
   86SLPC   C24 8226   3.989   1.472   3.024  0.3719 -0.1381  1.0924
   86SLPC   H4R 8227   3.927   1.475   2.931  1.6793 -1.3537  0.1319
   86SLPC   H4S 8228   3.974   1.571   3.073  0.8497  0.5213 -0.0208
   86SLPC   C25 8229   3.944   1.358   3.110 -0.0685  0.4949 -0.6349
   86SLPC   H5R 8230   3.947   1.261   3.055  0.9095 -0.7636  1.4990
   86SLPC   H5S 8231   3.841   1.380   3.145  0.0661  0.2356 -0.0619
   86SLPC   C26 8232   4.038   1.331   3.229  1.0431  0.4966 -0.7128
   86SLPC   H6R 8233   4.075   1.426   3.273  1.8190 -0.3849  0.6189
   86SLPC   H6S 8234   4.131   1.287   3.189  0.2896 -0.6077 -1.3179
   86SLPC   C27 8235   3.951   1.255   3.335 -0.9725  0.4560 -0.1688
   86SLPC   H7R 8236   3.941   1.150   3.299 -0.0935 -0.5988  2.4328
   86SLPC   H7S 8237   3.851   1.305   3.332 -1.1473  0.0561 -1.6029
   86SLPC   C28 8238   4.009   1.249   3.480  0.9415  0.3513  0.4749
   86SLPC   H8R 8239   4.117   1.225   3.467  0.4723 -1.8245  0.1761
   86SLPC   H8S 8240   3.974   1.158   3.533  2.7571 -1.0231 -0.5769
   86SLPC   C29 8241   3.988   1.382   3.546  0.3242 -0.6383 -0.2119
   86SLPC   H9R 8242   4.017   1.463   3.478  0.1304 -0.2853  0.1223
   86SLPC  C210 8243   3.932   1.409   3.668  0.3314  0.1435  0.0537
   86SLPC  H10R 8244   3.908   1.513   3.697  1.9202  0.0437  1.9506
   86SLPC  C211 8245   3.886   1.303   3.762 -0.0063  0.3281 -0.2438
   86SLPC  H11R 8246   3.850   1.210   3.713 -0.1683  0.6023 -0.6532
   86SLPC  H11S 8247   3.793   1.351   3.802  1.2581  1.9506  0.8893
   86SLPC  C212 8248   3.997   1.271   3.854  0.5289 -0.2371  0.3237
   86SLPC  H12R 8249   4.092   1.253   3.802  0.6600  2.1383 -0.4209
   86SLPC  C213 8250   3.994   1.259   3.986  0.3179  0.1012 -0.3588
   86SLPC  H13R 8251   4.074   1.206   4.039 -1.8004 -2.5468  0.4182
   86SLPC  C214 8252   3.874   1.282   4.075  0.0209  0.2582  0.5780
   86SLPC  H14R 8253   3.846   1.179   4.106  1.3237  0.3583  2.2345
   86SLPC  H14S 8254   3.792   1.326   4.014  1.5657 -1.1931 -2.8255
   86SLPC  C215 8255   3.897   1.344   4.212  0.0703 -0.7754  0.0937
   86SLPC  H15R 8256   3.983   1.285   4.250 -0.7648 -1.8667  0.3171
   86SLPC  H15S 8257   3.805   1.335   4.274 -0.0837  0.4873  0.0734
   86SLPC  C216 8258   3.930   1.500   4.211  0.1137  0.3431  0.5436
   86SLPC  H16R 8259   3.860   1.548   4.139 -1.8219  0.2346  2.2520
   86SLPC  H16S 8260   4.025   1.534   4.164 -1.7630  4.0409 -1.0300
   86SLPC  C217 8261   3.936   1.571   4.349 -0.0358 -0.1995 -0.1032
   86SLPC  H17R 8262   3.832   1.564   4.386 -0.2226 -0.0491 -0.5956
   86SLPC  H17S 8263   3.958   1.674   4.315 -1.9612  0.5818  0.9085
   86SLPC  C218 8264   4.041   1.518   4.443 -0.0940 -0.2990 -0.5023
   86SLPC  H18R 8265   4.039   1.570   4.541 -1.7750 -0.0697 -0.6287
   86SLPC  H18S 8266   4.146   1.512   4.409 -0.2202 -0.5852 -0.8430
   86SLPC  H18T 8267   4.016   1.412   4.468  1.2110 -0.4834  0.1145
   86SLPC   C33 8268   4.530   1.622   3.277  0.2611 -0.2671  0.1514
   86SLPC   H3X 8269   4.448   1.693   3.255 -0.5765 -1.4066 -0.5583
   86SLPC   H3Y 8270   4.615   1.674   3.328 -0.3958  0.6383  0.3385
   86SLPC   C34 8271   4.464   1.524   3.369 -0.2435  0.4278  0.3578
   86SLPC   H4X 8272   4.529   1.436   3.391  0.6833  0.4313 -2.0826
   86SLPC   H4Y 8273   4.383   1.473   3.313  1.2667 -0.5546 -1.0324
   86SLPC   C35 8274   4.421   1.589   3.501 -1.1739 -0.6115  0.0134
   86SLPC   H5X 8275   4.327   1.646   3.488 -0.5971  0.2309 -0.6176
   86SLPC   H5Y 8276   4.506   1.655   3.530  2.0626 -2.6661 -3.8601
   86SLPC   C36 8277   4.401   1.485   3.621 -0.7588 -0.5551  0.1786
   86SLPC   H6X 8278   4.494   1.427   3.642 -0.3918  1.0569  3.7490
   86SLPC   H6Y 8279   4.320   1.413   3.595 -1.0248 -0.4031  0.5835
   86SLPC   C37 8280   4.370   1.559   3.755 -0.2589  0.4628  0.6506
   86SLPC   H7X 8281   4.262   1.584   3.747 -0.4466 -0.2060  1.0395
   86SLPC   H7Y 8282   4.428   1.654   3.765  2.2356 -0.9533  0.3098
   86SLPC   C38 8283   4.399   1.474   3.880 -0.6684  1.0903  0.4008
   86SLPC   H8X 8284   4.510   1.473   3.887 -0.3411 -1.6919 -2.7756
   86SLPC   H8Y 8285   4.367   1.371   3.853 -0.2613  0.8244  0.9083
   86SLPC   C39 8286   4.325   1.517   3.998  0.4692 -0.0051  0.7494
   86SLPC   H9X 8287   4.219   1.490   3.977  1.0064 -0.9517 -0.8593
   86SLPC   H9Y 8288   4.325   1.627   4.013  1.4016  0.5148 -2.4889
   86SLPC  C310 8289   4.359   1.445   4.132 -0.0702  0.3439 -0.5015
   86SLPC  H10X 8290   4.380   1.336   4.118  3.9264  0.3919  3.0363
   86SLPC  H10Y 8291   4.267   1.452   4.194 -1.5759 -2.5313 -2.1611
   86SLPC  C311 8292   4.485   1.497   4.208  0.2085 -0.2526 -0.1949
   86SLPC  H11X 8293   4.465   1.603   4.236  3.2995  0.1726  0.7581
   86SLPC  H11Y 8294   4.570   1.501   4.136  1.4100  1.0038  1.2212
   86SLPC  C312 8295   4.526   1.424   4.336  0.3812 -0.6830 -0.8073
   86SLPC  H12X 8296   4.628   1.459   4.362  0.9724 -1.8189 -1.4776
   86SLPC  H12Y 8297   4.550   1.316   4.328  2.5623 -0.4746  1.6460
   86SLPC  C313 8298   4.435   1.446   4.460 -0.7899 -0.2996 -0.1208
   86SLPC  H13X 8299   4.333   1.418   4.426 -1.3785  0.7941  0.6327
   86SLPC  H13Y 8300   4.433   1.554   4.489  1.1540 -0.6810  1.7105
   86SLPC  C314 8301   4.476   1.370   4.591  0.2379 -0.0096 -0.2292
   86SLPC  H14X 8302   4.565   1.418   4.636 -0.8702  0.1018  1.9481
   86SLPC  H14Y 8303   4.481   1.263   4.558 -1.8285 -0.8076  1.7716
   86SLPC  C315 8304   4.366   1.390   4.698  0.5224 -1.0264  0.2830
   86SLPC  H15X 8305   4.265   1.381   4.654 -0.1118  0.9205  1.2334
   86SLPC  H15Y 8306   4.370   1.499   4.722 -0.9809 -1.1980  1.4442
   86SLPC  C316 8307   4.370   1.300   4.816  0.3135 -0.3743  0.0168
   86SLPC  H16X 8308   4.337   1.201   4.778 -0.5137 -0.2033  0.2671
   86SLPC  H16Y 8309   4.287   1.326   4.885 -0.2255  0.9982 -1.0994
   86SLPC  C317 8310   4.511   1.279   4.878  0.3278  0.6337 -0.0491
   86SLPC  H17X 8311   4.549   1.380   4.901  2.1666 -0.2024  0.7484
   86SLPC  H17Y 8312   4.581   1.225   4.810  1.0448  0.6828  0.6404
   86SLPC  C318 8313   4.511   1.193   5.004  0.2779  0.4578  0.3050
   86SLPC  H18X 8314   4.460   1.250   5.084 -0.1457 -1.0901  1.1654
   86SLPC  H18Y 8315   4.612   1.160   5.038 -0.6048 -2.0428  0.6501
   86SLPC  H18Z 8316   4.451   1.103   4.981 -0.6423  0.5237  2.2692
   87SLPC     N 8317   1.387   0.829   2.144 -0.0536  0.4164 -0.0382
   87SLPC   C13 8318   1.411   0.828   1.996  0.0291  0.7981  0.1222
   87SLPC  H13A 8319   1.512   0.800   1.970 -0.1509 -2.6685  2.4382
   87SLPC  H13B 8320   1.359   0.745   1.950 -0.0090  1.5790 -1.2926
   87SLPC  H13C 8321   1.369   0.913   1.945  0.2873  0.9804  0.2138
   87SLPC   C14 8322   1.251   0.859   2.186 -0.0072 -0.3229  1.1438
   87SLPC  H14A 8323   1.176   0.787   2.158 -0.9968  0.5304  1.5163
   87SLPC  H14B 8324   1.247   0.872   2.294  0.5233 -3.4772  1.6418
   87SLPC  H14C 8325   1.211   0.948   2.140 -0.1816  0.0826  2.0433
   87SLPC   C15 8326   1.479   0.929   2.203 -0.1790 -0.4976  0.7443
   87SLPC  H15A 8327   1.454   1.030   2.175 -1.5696 -1.2594 -1.0786
   87SLPC  H15B 8328   1.460   0.938   2.309  0.4753  0.8337  0.7631
   87SLPC  H15C 8329   1.581   0.901   2.183 -0.2210  0.2529 -0.6384
   87SLPC   C12 8330   1.422   0.687   2.199  0.2060  0.4905 -0.2673
   87SLPC  H12A 8331   1.522   0.655   2.174  1.2540  0.7884  3.0400
   87SLPC  H12B 8332   1.353   0.615   2.157  1.0940 -1.0818  0.8755
   87SLPC   C11 8333   1.415   0.662   2.348 -0.5718 -0.6210 -0.5821
   87SLPC  H11A 8334   1.427   0.554   2.373 -1.3585 -0.2048  1.8736
   87SLPC  H11B 8335   1.319   0.683   2.400 -0.9689 -1.0378 -1.1386
   87SLPC     P 8336   1.669   0.706   2.418  0.0337  0.1922  0.1654
   87SLPC   O13 8337   1.705   0.620   2.301 -0.4292  0.1084 -0.8317
   87SLPC   O14 8338   1.743   0.831   2.436 -0.3965  0.0292  0.6686
   87SLPC   O12 8339   1.513   0.737   2.425 -0.2618 -0.1599  0.2634
   87SLPC   O11 8340   1.688   0.622   2.543 -0.1354 -0.2062  0.6519
   87SLPC    C1 8341   1.814   0.566   2.579  0.3356 -0.0976  0.2207
   87SLPC    HA 8342   1.796   0.456   2.575 -2.3243  0.3024 -1.9138
   87SLPC    HB 8343   1.895   0.583   2.506 -0.5522  1.3292 -0.4768
   87SLPC    C2 8344   1.850   0.602   2.731  0.0133 -0.3243 -0.0788
   87SLPC    HS 8345   1.950   0.555   2.749  0.2226  0.0449 -0.2672
   87SLPC   O21 8346   1.753   0.549   2.823  0.8869 -0.0213  0.0889
   87SLPC   C21 8347   1.761   0.421   2.864  0.4709  0.2710 -0.1466
   87SLPC   O22 8348   1.851   0.347   2.825  0.2445  0.1315 -0.2471
   87SLPC   C22 8349   1.641   0.386   2.951  0.2082 -0.4538  0.4889
   87SLPC   H2R 8350   1.637   0.456   3.037 -0.1358  0.6689 -0.4178
   87SLPC   H2S 8351   1.564   0.410   2.875  0.8007 -1.0086 -0.2968
   87SLPC    C3 8352   1.863   0.751   2.754  0.6729  0.3489  0.3916
   87SLPC    HX 8353   1.763   0.790   2.727  0.6650 -0.5653 -0.9844
   87SLPC    HY 8354   1.937   0.796   2.684  0.1418  0.5354 -0.0539
   87SLPC   O31 8355   1.912   0.771   2.888  0.5008 -0.0848  0.2059
   87SLPC   C31 8356   1.872   0.883   2.951  0.0609 -0.5520 -0.2867
   87SLPC   O32 8357   1.792   0.962   2.906  0.3271 -0.3261 -0.0029
   87SLPC   C32 8358   1.917   0.881   3.093 -0.7345 -0.0315  0.4883
   87SLPC   H2X 8359   2.028   0.869   3.090 -0.8362 -1.0571 -2.4814
   87SLPC   H2Y 8360   1.871   0.792   3.143  1.7928 -1.9956 -0.4556
   87SLPC   C23 8361   1.639   0.235   2.994  0.2343  0.2781 -0.3062
   87SLPC   H3R 8362   1.733   0.220   3.052 -0.0760  1.4141  0.5431
   87SLPC   H3S 8363   1.626   0.182   2.897  0.3628 -0.6012  0.1486
   87SLPC   C24 8364   1.528   0.206   3.098 -1.1512 -0.2649  0.2281
   87SLPC   H4R 8365   1.438   0.164   3.048 -2.4981 -0.4410  2.6522
   87SLPC   H4S 8366   1.495   0.300   3.146  1.6414  0.6742  0.4432
   87SLPC   C25 8367   1.568   0.124   3.226  0.5738 -0.3766  0.8993
   87SLPC   H5R 8368   1.635   0.041   3.195  0.8405  0.4276 -0.7626
   87SLPC   H5S 8369   1.472   0.084   3.267  1.0471 -1.2342  1.1941
   87SLPC   C26 8370   1.629   0.211   3.335 -0.5940 -0.1426 -0.2257
   87SLPC   H6R 8371   1.564   0.292   3.375 -1.5123  0.0498 -2.0055
   87SLPC   H6S 8372   1.718   0.259   3.288 -2.4335  2.1692 -1.5862
   87SLPC   C27 8373   1.674   0.125   3.451 -0.3271  0.6171 -0.0226
   87SLPC   H7R 8374   1.783   0.108   3.439 -0.2132  1.1398  0.2338
   87SLPC   H7S 8375   1.616   0.030   3.453 -0.4149  0.6134 -1.5315
   87SLPC   C28 8376   1.651   0.188   3.592 -0.8142  0.1405  0.1676
   87SLPC   H8R 8377   1.688   0.293   3.585  1.4009 -0.6830 -2.2103
   87SLPC   H8S 8378   1.726   0.131   3.651 -2.4680 -2.6200 -0.2213
   87SLPC   C29 8379   1.508   0.172   3.638 -0.9075  0.5687  0.4449
   87SLPC   H9R 8380   1.420   0.200   3.577 -1.6567 -1.5803  0.4221
   87SLPC  C210 8381   1.477   0.109   3.748  0.1260 -0.2644 -0.3063
   87SLPC  H10R 8382   1.375   0.128   3.785  0.4736  2.1275 -0.4163
   87SLPC  C211 8383   1.569   0.061   3.848 -0.1051 -1.1534 -1.0145
   87SLPC  H11R 8384   1.522   0.069   3.948  0.5014  0.1849 -0.8267
   87SLPC  H11S 8385   1.651   0.135   3.850 -1.3708  0.2646  0.6084
   87SLPC  C212 8386   1.611  -0.086   3.844 -0.4948 -0.1896  0.0717
   87SLPC  H12R 8387   1.652  -0.099   3.743  0.5413  1.4992  0.2393
   87SLPC  C213 8388   1.624  -0.175   3.939 -0.9435  0.4691  0.8907
   87SLPC  H13R 8389   1.678  -0.266   3.908 -1.4627  0.2454  0.6207
   87SLPC  C214 8390   1.590  -0.165   4.084  0.7557 -0.0641 -0.1046
   87SLPC  H14R 8391   1.516  -0.083   4.095  0.2890 -0.4805 -0.1019
   87SLPC  H14S 8392   1.680  -0.131   4.140 -1.0788  1.5881  1.9971
   87SLPC  C215 8393   1.523  -0.286   4.153 -0.0785 -0.8490 -0.7225
   87SLPC  H15R 8394   1.431  -0.325   4.104 -1.7433 -1.3138  2.4809
   87SLPC  H15S 8395   1.498  -0.244   4.253  0.2887  0.2504 -1.0731
   87SLPC  C216 8396   1.630  -0.394   4.175 -0.1811 -0.0056  0.2589
   87SLPC  H16R 8397   1.707  -0.344   4.237 -0.1571 -0.0487  0.2638
   87SLPC  H16S 8398   1.673  -0.426   4.078  0.7109  2.3584 -0.2054
   87SLPC  C217 8399   1.557  -0.510   4.252 -0.9591  0.6303 -0.3074
   87SLPC  H17R 8400   1.464  -0.538   4.198 -0.4757  1.7852 -1.7769
   87SLPC  H17S 8401   1.530  -0.471   4.353  0.2361  1.1743 -0.1861
   87SLPC  C218 8402   1.637  -0.635   4.272  0.1629 -0.4167 -1.0289
   87SLPC  H18R 8403   1.579  -0.710   4.329 -2.0515  1.9492  0.0270
   87SLPC  H18S 8404   1.738  -0.610   4.311 -0.9033  0.7740  1.1785
   87SLPC  H18T 8405   1.655  -0.693   4.180 -2.5589 -0.4929 -1.5766
   87SLPC   C33 8406   1.879   1.012   3.171 -0.0734 -0.0606  0.0920
   87SLPC   H3X 8407   1.778   1.041   3.135  0.2686  1.8569  0.5982
   87SLPC   H3Y 8408   1.952   1.092   3.145  0.0190 -0.2936 -0.3728
   87SLPC   C34 8409   1.866   0.983   3.322  0.1967  0.6140  0.4500
   87SLPC   H4X 8410   1.805   0.891   3.334  1.4270  0.0282  3.0955
   87SLPC   H4Y 8411   1.809   1.062   3.376  0.2415  0.2008  1.1184
   87SLPC   C35 8412   2.003   0.954   3.380 -0.1044 -0.2028 -1.0974
   87SLPC   H5X 8413   2.072   1.031   3.339  1.3067 -0.0318  1.4137
   87SLPC   H5Y 8414   2.040   0.856   3.343 -2.9954 -0.8304 -2.6396
   87SLPC   C36 8415   2.005   0.970   3.528 -0.2938 -0.6729  0.1443
   87SLPC   H6X 8416   1.932   0.900   3.573 -0.9825  0.1931  0.3977
   87SLPC   H6Y 8417   1.988   1.079   3.540 -0.3217 -0.4489 -1.6061
   87SLPC   C37 8418   2.140   0.951   3.597 -0.0396 -0.5562  0.0931
   87SLPC   H7X 8419   2.216   1.021   3.559 -1.6102  0.8318 -0.6089
   87SLPC   H7Y 8420   2.176   0.847   3.578  0.1684 -0.5844  0.6277
   87SLPC   C38 8421   2.113   0.976   3.746  0.0831  0.4080 -0.7545
   87SLPC   H8X 8422   2.025   1.042   3.758 -0.6439 -0.5916 -0.5198
   87SLPC   H8Y 8423   2.197   1.029   3.796  0.3840 -0.4731 -0.3034
   87SLPC   C39 8424   2.088   0.843   3.820  0.0739  0.2299  0.3733
   87SLPC   H9X 8425   2.180   0.782   3.814  1.5056  2.4142 -1.8470
   87SLPC   H9Y 8426   2.006   0.791   3.768  0.4723 -0.3673  0.3298
   87SLPC  C310 8427   2.049   0.865   3.972 -0.1667  0.6692 -0.7075
   87SLPC  H10X 8428   1.964   0.935   3.989  0.6892  1.5214  0.1614
   87SLPC  H10Y 8429   2.142   0.907   4.015  2.5274 -4.6851 -0.5943
   87SLPC  C311 8430   2.023   0.734   4.035  0.0892  0.4628  0.8973
   87SLPC  H11X 8431   2.090   0.654   3.998 -0.4382  1.1337 -1.6891
   87SLPC  H11Y 8432   1.921   0.698   4.010  0.9202 -0.3927 -1.6356
   87SLPC  C312 8433   2.040   0.746   4.184  0.7690 -0.6939 -0.5512
   87SLPC  H12X 8434   1.955   0.806   4.223 -0.6781 -3.2616  0.5713
   87SLPC  H12Y 8435   2.131   0.806   4.202  0.0392  0.4226 -0.4733
   87SLPC  C313 8436   2.061   0.610   4.257 -0.0973  0.4952 -0.8927
   87SLPC  H13X 8437   1.977   0.540   4.239  0.8230 -0.4401 -1.7143
   87SLPC  H13Y 8438   2.071   0.636   4.365  1.8438 -0.4347 -0.7950
   87SLPC  C314 8439   2.200   0.544   4.228  0.0439  0.1497 -0.0996
   87SLPC  H14X 8440   2.275   0.611   4.181 -0.3265  1.2266  0.7978
   87SLPC  H14Y 8441   2.183   0.472   4.145  0.8346  0.2568 -0.3625
   87SLPC  C315 8442   2.251   0.485   4.364  0.2936  0.1069  0.4035
   87SLPC  H15X 8443   2.265   0.567   4.438  2.0253  1.2746 -1.1066
   87SLPC  H15Y 8444   2.355   0.450   4.345 -0.5054 -1.5822 -1.2502
   87SLPC  C316 8445   2.166   0.368   4.428 -0.1606  0.4833 -0.9693
   87SLPC  H16X 8446   2.070   0.362   4.373 -0.2502  1.3448 -0.9296
   87SLPC  H16Y 8447   2.137   0.399   4.530 -1.8091 -0.7524 -1.0216
   87SLPC  C317 8448   2.229   0.229   4.420 -0.2845  0.4009 -0.4904
   87SLPC  H17X 8449   2.253   0.207   4.313 -1.2313  0.0796 -0.6443
   87SLPC  H17Y 8450   2.149   0.156   4.446  0.2602  0.0027  0.1131
   87SLPC  C318 8451   2.359   0.213   4.512 -0.2343  0.1004 -0.0455
   87SLPC  H18X 8452   2.334   0.220   4.620 -0.6237 -0.8394 -0.0610
   87SLPC  H18Y 8453   2.432   0.288   4.476  0.3023 -0.2637  0.2743
   87SLPC  H18Z 8454   2.406   0.118   4.478 -1.2273 -0.1260 -0.8311
   88SLPC     N 8455   3.277   0.952   2.187  0.2242  0.0150  1.1318
   88SLPC   C13 8456   3.339   1.038   2.295  0.6967  0.1446 -0.3157
   88SLPC  H13A 8457   3.266   1.115   2.318  0.7656  1.3104 -3.5107
   88SLPC  H13B 8458   3.351   0.985   2.388 -2.0290  1.9371  1.2075
   88SLPC  H13C 8459   3.429   1.088   2.264  0.7729  1.4307  1.7969
   88SLPC   C14 8460   3.371   0.855   2.121 -0.3905 -0.1128  0.1097
   88SLPC  H14A 8461   3.429   0.802   2.195 -0.0579 -1.7430 -1.2555
   88SLPC  H14B 8462   3.328   0.809   2.033 -1.5229  2.5479 -0.8482
   88SLPC  H14C 8463   3.455   0.906   2.076 -1.0721  0.9075 -0.0339
   88SLPC   C15 8464   3.217   1.038   2.077 -0.0123  0.4573 -0.4613
   88SLPC  H15A 8465   3.122   1.073   2.115  0.0661  0.9622 -0.7081
   88SLPC  H15B 8466   3.266   1.130   2.046 -1.2649  1.3528  0.1272
   88SLPC  H15C 8467   3.207   0.972   1.992  1.7042 -2.6069  1.5628
   88SLPC   C12 8468   3.164   0.868   2.234 -0.5077 -0.9177 -0.1651
   88SLPC  H12A 8469   3.198   0.782   2.289 -0.7617 -0.2504  1.0669
   88SLPC  H12B 8470   3.113   0.833   2.145  2.1814 -1.2547 -1.6816
   88SLPC   C11 8471   3.071   0.926   2.340 -0.2577  0.1574 -0.3397
   88SLPC  H11A 8472   3.130   0.930   2.433 -2.5683  3.2579  1.1804
   88SLPC  H11B 8473   2.987   0.855   2.359  1.3355 -1.6640  0.1628
   88SLPC     P 8474   3.009   1.171   2.421  0.6369 -0.0076 -0.1430
   88SLPC   O13 8475   3.140   1.220   2.464  0.1897  1.0666  0.3554
   88SLPC   O14 8476   2.909   1.275   2.380  0.0026 -0.2618 -0.6458
   88SLPC   O12 8477   3.027   1.061   2.313 -0.5495  0.6927  0.0901
   88SLPC   O11 8478   2.946   1.090   2.542  0.3179  0.6957 -0.0595
   88SLPC    C1 8479   2.987   1.095   2.681 -0.0626  0.1804  0.1694
   88SLPC    HA 8480   2.945   1.007   2.736  2.1434  1.5697  4.5614
   88SLPC    HB 8481   3.096   1.074   2.686 -0.2170 -0.4537  1.3566
   88SLPC    C2 8482   2.951   1.225   2.741 -0.2144 -0.0993 -0.6619
   88SLPC    HS 8483   2.983   1.311   2.679 -1.3708  0.0041 -1.1449
   88SLPC   O21 8484   3.007   1.236   2.877 -0.2842  0.0827 -0.0948
   88SLPC   C21 8485   3.042   1.363   2.919  0.2020 -0.0468  0.5204
   88SLPC   O22 8486   3.013   1.463   2.863  0.0139 -1.0122  0.5536
   88SLPC   C22 8487   3.111   1.348   3.056 -0.2474 -0.2032  0.0305
   88SLPC   H2R 8488   3.031   1.307   3.122 -0.4534 -1.3706 -0.8972
   88SLPC   H2S 8489   3.189   1.269   3.051  0.3183  0.2893  0.7891
   88SLPC    C3 8490   2.793   1.234   2.751  0.2369  0.2296  0.1031
   88SLPC    HX 8491   2.750   1.216   2.650  0.9515  0.8083 -0.3230
   88SLPC    HY 8492   2.766   1.339   2.775 -0.3348 -0.4044  2.5036
   88SLPC   O31 8493   2.737   1.159   2.862  0.0330  0.0791 -0.0335
   88SLPC   C31 8494   2.684   1.044   2.838 -0.2557  0.2908 -0.8797
   88SLPC   O32 8495   2.681   0.997   2.727 -0.4699 -0.0554  0.7737
   88SLPC   C32 8496   2.621   0.984   2.966 -0.0756 -0.6749 -0.0920
   88SLPC   H2X 8497   2.665   1.032   3.056  0.4673 -0.0455 -0.6856
   88SLPC   H2Y 8498   2.663   0.881   2.966 -0.0835 -0.6790  0.3809
   88SLPC   C23 8499   3.186   1.471   3.115  0.3597 -0.0290 -0.0851
   88SLPC   H3R 8500   3.259   1.509   3.041 -0.0419 -0.7518 -0.8744
   88SLPC   H3S 8501   3.251   1.443   3.200  0.6445 -0.6306 -0.5011
   88SLPC   C24 8502   3.089   1.578   3.180 -0.0987 -0.5039 -0.2605
   88SLPC   H4R 8503   3.019   1.624   3.108 -0.3926 -1.4068 -0.5651
   88SLPC   H4S 8504   3.155   1.661   3.215 -0.0387 -1.7047  2.8519
   88SLPC   C25 8505   3.009   1.535   3.306 -0.0743 -0.5004  0.0855
   88SLPC   H5R 8506   2.924   1.467   3.285  0.6833 -1.0741 -1.2337
   88SLPC   H5S 8507   2.964   1.621   3.360 -1.1796 -0.6936 -0.5069
   88SLPC   C26 8508   3.087   1.465   3.420 -0.6468 -0.2323 -0.3635
   88SLPC   H6R 8509   3.189   1.509   3.419  1.0073 -3.7164  0.5814
   88SLPC   H6S 8510   3.100   1.356   3.409  0.6591 -0.1047 -0.2411
   88SLPC   C27 8511   3.023   1.495   3.560  0.2428 -0.0341  0.1812
   88SLPC   H7R 8512   3.028   1.602   3.592 -0.6572 -0.1244  0.6422
   88SLPC   H7S 8513   3.096   1.443   3.626 -1.2487  0.7947  2.6245
   88SLPC   C28 8514   2.883   1.439   3.570 -0.3919 -0.1606 -0.4302
   88SLPC   H8R 8515   2.888   1.329   3.557 -0.5019 -0.2210  0.0096
   88SLPC   H8S 8516   2.835   1.480   3.479  2.0993  2.2326 -0.8175
   88SLPC   C29 8517   2.785   1.485   3.673 -0.4634  0.3567  0.1427
   88SLPC   H9R 8518   2.717   1.566   3.642  1.0452  0.5102 -3.2451
   88SLPC  C210 8519   2.797   1.456   3.801 -0.2157  0.4017 -0.5803
   88SLPC  H10R 8520   2.716   1.483   3.871 -2.1552 -1.6560 -1.8555
   88SLPC  C211 8521   2.891   1.354   3.854  0.4916 -0.2890 -0.2481
   88SLPC  H11R 8522   2.946   1.290   3.782  2.3519 -1.2319  1.8835
   88SLPC  H11S 8523   2.839   1.270   3.906  2.0555 -1.4455 -0.4668
   88SLPC  C212 8524   2.989   1.425   3.957  0.0045  0.5922  0.2965
   88SLPC  H12R 8525   2.996   1.535   3.961  0.8103  0.5394  0.4043
   88SLPC  C213 8526   3.058   1.366   4.052  0.1688  0.2353  0.4862
   88SLPC  H13R 8527   3.121   1.428   4.117 -0.0604  1.7446 -0.6870
   88SLPC  C214 8528   3.059   1.213   4.063 -0.5050  0.1959  0.3388
   88SLPC  H14R 8529   3.167   1.190   4.080 -0.5261  1.4631  2.5559
   88SLPC  H14S 8530   3.028   1.155   3.974  0.6332 -1.7501  1.1280
   88SLPC  C215 8531   2.976   1.157   4.177 -0.1628 -0.7489  0.1517
   88SLPC  H15R 8532   2.876   1.197   4.149  0.8922  2.5424  0.6657
   88SLPC  H15S 8533   3.007   1.193   4.277 -1.3064  0.4874  0.0984
   88SLPC  C216 8534   2.985   1.002   4.184  0.0205  0.3002 -0.3877
   88SLPC  H16R 8535   3.091   0.968   4.191  0.3455  1.2510 -0.5705
   88SLPC  H16S 8536   2.949   0.956   4.089  2.4479 -0.3533 -1.0529
   88SLPC  C217 8537   2.905   0.952   4.306 -0.6631  0.0085  0.0804
   88SLPC  H17R 8538   2.833   1.029   4.340 -0.1486  0.8509 -0.6919
   88SLPC  H17S 8539   2.972   0.943   4.394  2.2190 -3.4187 -2.1843
   88SLPC  C218 8540   2.846   0.815   4.286  0.0596  0.1140  0.3949
   88SLPC  H18R 8541   2.772   0.817   4.202  0.6640  1.7874 -0.1358
   88SLPC  H18S 8542   2.804   0.763   4.375 -0.1495 -1.2228 -0.4525
   88SLPC  H18T 8543   2.915   0.735   4.254  0.3454 -0.2913  1.9475
   88SLPC   C33 8544   2.464   0.979   2.958 -0.8650 -0.4540  0.0040
   88SLPC   H3X 8545   2.442   0.909   2.874 -1.1873 -1.2454  0.7328
   88SLPC   H3Y 8546   2.423   1.078   2.931 -1.9081 -0.5367  1.2142
   88SLPC   C34 8547   2.399   0.936   3.092 -0.1799  0.0245  0.3289
   88SLPC   H4X 8548   2.293   0.912   3.069 -0.2571 -0.5647  1.2392
   88SLPC   H4Y 8549   2.397   1.026   3.156  0.5380  0.0281  0.3537
   88SLPC   C35 8550   2.469   0.825   3.163 -0.4724  0.1265  0.1047
   88SLPC   H5X 8551   2.570   0.864   3.190 -0.6020 -0.5818  1.7496
   88SLPC   H5Y 8552   2.492   0.739   3.096 -1.2853  0.9763 -1.3071
   88SLPC   C36 8553   2.403   0.772   3.292 -0.2281  0.0720 -0.1854
   88SLPC   H6X 8554   2.308   0.717   3.274  0.9774 -1.9511 -0.7407
   88SLPC   H6Y 8555   2.363   0.856   3.352 -1.2512 -0.6827  0.2103
   88SLPC   C37 8556   2.492   0.674   3.356  0.3343 -0.3106 -0.3316
   88SLPC   H7X 8557   2.580   0.734   3.385  1.2238 -1.5628 -0.3665
   88SLPC   H7Y 8558   2.521   0.594   3.284  1.3498  0.1326 -0.4291
   88SLPC   C38 8559   2.442   0.602   3.485 -0.5677  0.3314  0.2241
   88SLPC   H8X 8560   2.470   0.495   3.475 -1.0034  0.1701  0.6646
   88SLPC   H8Y 8561   2.332   0.608   3.503 -0.7252  0.9229 -0.9027
   88SLPC   C39 8562   2.502   0.649   3.610  0.2318  0.1466 -1.0223
   88SLPC   H9X 8563   2.462   0.749   3.633 -0.6297 -0.0706 -1.5306
   88SLPC   H9Y 8564   2.612   0.664   3.598  0.3536  3.7330  2.5170
   88SLPC  C310 8565   2.491   0.539   3.723  0.5899  0.1999 -0.7421
   88SLPC  H10X 8566   2.542   0.448   3.685 -0.9063 -1.5253  1.1664
   88SLPC  H10Y 8567   2.383   0.525   3.747  0.2591 -0.4035 -2.4465
   88SLPC  C311 8568   2.556   0.595   3.852 -1.0137  0.2288 -0.4776
   88SLPC  H11X 8569   2.505   0.689   3.884 -0.9695 -0.4468  1.7365
   88SLPC  H11Y 8570   2.657   0.622   3.816 -0.7886 -2.2291 -1.8739
   88SLPC  C312 8571   2.553   0.505   3.976  0.0213 -0.3355  0.1172
   88SLPC  H12X 8572   2.596   0.407   3.948  1.1446  0.4171 -0.9001
   88SLPC  H12Y 8573   2.454   0.489   4.024 -0.7334  1.0631 -0.8831
   88SLPC  C313 8574   2.649   0.565   4.092 -0.1448  0.9203  0.7324
   88SLPC  H13X 8575   2.602   0.665   4.100 -1.4028  0.5336 -1.2868
   88SLPC  H13Y 8576   2.745   0.561   4.036 -0.8159 -3.1902 -0.4687
   88SLPC  C314 8577   2.643   0.484   4.226 -0.0855  0.4188  0.6314
   88SLPC  H14X 8578   2.537   0.463   4.250  0.6325 -3.4075  1.0068
   88SLPC  H14Y 8579   2.681   0.549   4.308 -1.2106  0.5022  1.1038
   88SLPC  C315 8580   2.720   0.351   4.221 -0.4196 -0.2465 -0.7739
   88SLPC  H15X 8581   2.692   0.297   4.128  0.5213 -3.4658  0.6583
   88SLPC  H15Y 8582   2.682   0.280   4.299 -3.5693  1.0249 -0.9762
   88SLPC  C316 8583   2.873   0.370   4.242 -0.8504  0.0977 -1.4875
   88SLPC  H16X 8584   2.888   0.448   4.321 -2.7246 -0.3808 -0.6229
   88SLPC  H16Y 8585   2.912   0.412   4.146  0.7863 -1.8857 -1.7433
   88SLPC  C317 8586   2.961   0.248   4.283  0.4411 -0.1695 -0.2736
   88SLPC  H17X 8587   2.932   0.220   4.387 -0.8798  0.6514 -0.3932
   88SLPC  H17Y 8588   3.063   0.286   4.263  0.1051  0.9103  0.0307
   88SLPC  C318 8589   2.942   0.126   4.183  0.2496 -0.6515 -0.3865
   88SLPC  H18X 8590   2.844   0.078   4.204  1.1026 -1.6800  1.4245
   88SLPC  H18Y 8591   3.022   0.051   4.199  0.5138 -0.1368  0.8631
   88SLPC  H18Z 8592   2.940   0.155   4.076  0.0665 -0.9327 -0.4579
   89SAPE     N 8593   2.578   4.897   6.735 -0.4072  0.0938 -0.1218
   89SAPE   HN1 8594   2.563   4.826   6.661  3.7359  0.5537 -1.7047
   89SAPE   HN2 8595   2.641   4.966   6.688 -2.2511 -0.0398 -3.0709
   89SAPE   HN3 8596   2.621   4.854   6.819 -1.7826 -1.0483  0.0279
   89SAPE   C12 8597   2.453   4.962   6.785  0.8122  0.1439 -0.3868
   89SAPE  H12A 8598   2.396   4.996   6.696  1.7359  1.9620 -0.3348
   89SAPE  H12B 8599   2.483   5.053   6.842 -0.5042  0.1531  0.3291
   89SAPE   C11 8600   2.376   4.866   6.869  0.2094 -0.0224 -0.7098
   89SAPE  H11A 8601   2.286   4.911   6.915 -0.4066 -0.7190 -1.2198
   89SAPE  H11B 8602   2.441   4.846   6.957  0.3214  4.3182  0.4358
   89SAPE     P 8603   2.222   4.705   6.717  0.8915 -0.5176 -0.0127
   89SAPE   O13 8604   2.267   4.631   6.597 -0.3884 -0.1603  0.2107
   89SAPE   O14 8605   2.129   4.632   6.806 -0.0672 -0.2613  0.6802
   89SAPE   O12 8606   2.353   4.744   6.799 -0.2417 -0.2392  0.3601
   89SAPE   O11 8607   2.169   4.855   6.675  0.1923  0.4923 -0.9535
   89SAPE    C1 8608   2.184   4.896   6.535 -0.4473  0.0238 -0.1970
   89SAPE    HA 8609   2.227   4.998   6.533 -1.5742  0.5085 -0.6774
   89SAPE    HB 8610   2.264   4.842   6.479  0.5069  2.4247 -1.2619
   89SAPE    C2 8611   2.052   4.902   6.451  0.1694 -0.0687 -0.8921
   89SAPE    HS 8612   1.992   4.983   6.497 -0.2972 -0.8551 -0.0771
   89SAPE   O21 8613   1.987   4.773   6.451 -0.7180  0.4866 -0.3968
   89SAPE   C21 8614   1.855   4.769   6.419 -0.3218 -0.4037 -0.4030
   89SAPE   O22 8615   1.784   4.863   6.426 -0.4855 -0.8869 -0.3065
   89SAPE   C22 8616   1.816   4.622   6.386  0.1586  0.3520 -0.7231
   89SAPE   H2R 8617   1.844   4.566   6.479  0.7382 -0.1557 -1.1948
   89SAPE   H2S 8618   1.705   4.611   6.377 -0.0386  2.2806 -1.0419
   89SAPE    C3 8619   2.092   4.947   6.304 -0.1393 -0.2947 -0.0606
   89SAPE    HX 8620   2.165   4.879   6.255 -0.5513  0.8733 -2.4332
   89SAPE    HY 8621   2.152   5.041   6.310  3.0492 -2.1176 -0.9977
   89SAPE   O31 8622   1.982   4.956   6.216 -0.2986 -0.2091 -0.0124
   89SAPE   C31 8623   1.898   5.054   6.243  0.8201  0.6087 -1.0375
   89SAPE   O32 8624   1.915   5.145   6.317 -0.1006 -0.3562 -0.1361
   89SAPE   C32 8625   1.775   5.025   6.164 -0.1024 -0.6304  0.0866
   89SAPE   H2X 8626   1.730   4.925   6.181 -1.3938  0.0549  0.9101
   89SAPE   H2Y 8627   1.799   5.024   6.056 -0.6052 -1.2009 -0.0276
   89SAPE   C23 8628   1.885   4.563   6.261  0.1851 -0.2738  0.0079
   89SAPE   H3R 8629   1.888   4.452   6.268 -2.6857 -0.4165  0.3746
   89SAPE   H3S 8630   1.989   4.603   6.258 -0.8092  2.7317  1.4555
   89SAPE   C24 8631   1.811   4.600   6.126  0.2051  0.2251 -0.3138
   89SAPE   H4R 8632   1.866   4.579   6.031 -0.7680 -0.5160 -0.7318
   89SAPE   H4S 8633   1.784   4.708   6.123  0.2227  0.3352  2.1171
   89SAPE   C25 8634   1.682   4.533   6.125  0.1867  0.3103 -0.5282
   89SAPE   H5R 8635   1.627   4.534   6.220  2.0198 -0.3068  0.6062
   89SAPE   C26 8636   1.609   4.481   6.019 -0.3486 -0.8591 -0.1359
   89SAPE   H6R 8637   1.513   4.428   6.033 -2.1838  2.0387 -0.7717
   89SAPE   C27 8638   1.674   4.470   5.881  0.6038 -0.3037  0.4022
   89SAPE   H7R 8639   1.633   4.387   5.819  0.2362 -0.3031  0.6435
   89SAPE   H7S 8640   1.780   4.440   5.896  1.4114  1.0434 -2.0833
   89SAPE   C28 8641   1.669   4.592   5.792  0.3463 -0.3531 -0.5290
   89SAPE   H8R 8642   1.741   4.668   5.828  1.1895 -1.7289  0.8242
   89SAPE   C29 8643   1.584   4.630   5.695  0.2090  0.8570  0.1021
   89SAPE   H9R 8644   1.609   4.712   5.625  0.7855  1.3070  0.8179
   89SAPE  C210 8645   1.469   4.541   5.643  0.9378 -1.1157  0.0064
   89SAPE  H10R 8646   1.387   4.610   5.615  2.2953  0.3200 -0.5644
   89SAPE  H10S 8647   1.436   4.480   5.730  0.2575  3.1708  3.0768
   89SAPE  C211 8648   1.512   4.452   5.536 -0.6467 -0.5609 -0.0406
   89SAPE  H11R 8649   1.546   4.362   5.589 -0.3418  1.4089  3.4098
   89SAPE  C212 8650   1.491   4.462   5.400 -0.3184 -0.2269 -0.0040
   89SAPE  H12R 8651   1.537   4.384   5.338  0.4682  0.5737 -0.4476
   89SAPE  C213 8652   1.423   4.581   5.335  0.1748 -0.4929  0.4438
   89SAPE  H13R 8653   1.449   4.687   5.356 -2.3851  1.0518 -3.0142
   89SAPE  H13S 8654   1.315   4.593   5.358  0.0113  0.6457 -0.7521
   89SAPE  C214 8655   1.451   4.550   5.194 -0.1889  0.9362 -0.2598
   89SAPE  H14R 8656   1.558   4.536   5.173 -0.4009 -1.1827 -0.1613
   89SAPE  C215 8657   1.371   4.535   5.085  0.2281 -0.5145 -0.0935
   89SAPE  H15R 8658   1.414   4.516   4.986  0.4674  0.1191 -0.1113
   89SAPE  C216 8659   1.219   4.543   5.089  0.8111 -0.2518  0.4887
   89SAPE  H16R 8660   1.190   4.648   5.110  0.4395  0.1908 -1.8838
   89SAPE  H16S 8661   1.179   4.476   5.168  0.2233 -3.3471 -2.1675
   89SAPE  C217 8662   1.160   4.507   4.948  0.1558 -0.9581 -0.7288
   89SAPE  H17R 8663   1.222   4.569   4.879 -0.5122  2.4755  1.4777
   89SAPE  H17S 8664   1.056   4.544   4.937 -0.0254 -1.8144 -2.0222
   89SAPE  C218 8665   1.164   4.358   4.907  0.2593  0.2563 -0.3317
   89SAPE  H18R 8666   1.118   4.293   4.984 -1.4808  0.9801 -0.7207
   89SAPE  H18S 8667   1.272   4.334   4.896  0.1638  0.2439 -1.3312
   89SAPE  C219 8668   1.084   4.329   4.794  0.3352  0.4941 -0.3034
   89SAPE  H19R 8669   1.132   4.337   4.694 -0.0548 -0.3719 -0.5699
   89SAPE  H19S 8670   0.993   4.390   4.781  0.5101  0.3266 -2.7518
   89SAPE  C220 8671   1.039   4.180   4.795 -0.1293  0.0270 -0.2021
   89SAPE  H20R 8672   1.114   4.098   4.790 -0.3744 -0.1939 -0.3082
   89SAPE  H20S 8673   0.964   4.166   4.714 -1.5446  0.6615  0.9514
   89SAPE  H20T 8674   0.988   4.168   4.894  1.6455 -0.2697  0.7146
   89SAPE   C33 8675   1.663   5.136   6.187  0.1962 -0.0440 -0.7603
   89SAPE   H3X 8676   1.698   5.236   6.156 -0.9418  0.8100  0.5853
   89SAPE   H3Y 8677   1.622   5.138   6.290 -1.1284  2.0258 -1.2721
   89SAPE   C34 8678   1.543   5.101   6.089 -0.6742  0.9792  0.4340
   89SAPE   H4X 8679   1.457   5.157   6.132 -0.6856  0.5675  0.9584
   89SAPE   H4Y 8680   1.534   4.990   6.093  0.2747  0.8086 -1.2661
   89SAPE   C35 8681   1.567   5.139   5.940  0.3238 -0.5902 -0.4440
   89SAPE   H5X 8682   1.654   5.084   5.899  0.2777 -0.8064 -0.2528
   89SAPE   H5Y 8683   1.590   5.246   5.923  0.7175 -0.8165 -1.4129
   89SAPE   C36 8684   1.446   5.096   5.850 -0.3070  0.3198 -0.1514
   89SAPE   H6X 8685   1.353   5.132   5.897 -0.5074  0.7383 -0.8554
   89SAPE   H6Y 8686   1.443   4.984   5.847 -2.4817  0.3306  0.0729
   89SAPE   C37 8687   1.477   5.139   5.708  0.6831  0.6657  0.2711
   89SAPE   H7X 8688   1.588   5.146   5.704  0.6956  3.1892  2.4325
   89SAPE   H7Y 8689   1.433   5.240   5.696 -1.0495  0.0464  1.0429
   89SAPE   C38 8690   1.412   5.048   5.602  0.3054 -0.2326 -0.2104
   89SAPE   H8X 8691   1.302   5.053   5.614  0.5028 -0.7045  2.3137
   89SAPE   H8Y 8692   1.446   4.943   5.613  1.9358  0.2461 -0.3820
   89SAPE   C39 8693   1.448   5.104   5.466 -0.4992  0.0530  0.2577
   89SAPE   H9X 8694   1.556   5.105   5.440 -0.6736 -1.1557 -0.6026
   89SAPE   H9Y 8695   1.415   5.209   5.454 -2.7250 -0.3954  1.7080
   89SAPE  C310 8696   1.365   5.025   5.362 -0.1482  0.2039 -0.5494
   89SAPE  H10X 8697   1.264   5.013   5.406 -0.2794 -0.7769 -1.1032
   89SAPE  H10Y 8698   1.398   4.920   5.350  0.2202  0.3898 -1.2325
   89SAPE  C311 8699   1.370   5.086   5.219  0.3189  0.1738 -0.3459
   89SAPE  H11X 8700   1.473   5.128   5.206  0.4383 -0.5864 -2.0956
   89SAPE  H11Y 8701   1.290   5.163   5.218  0.6082  0.5059  0.4865
   89SAPE  C312 8702   1.364   4.984   5.106  0.3682 -0.4392  0.0026
   89SAPE  H12X 8703   1.263   4.938   5.103 -1.4333  2.9690  1.6965
   89SAPE  H12Y 8704   1.443   4.912   5.136 -0.7465 -0.7593  2.4304
   89SAPE  C313 8705   1.387   5.050   4.967  0.5525  0.0008 -0.1898
   89SAPE  H13X 8706   1.484   5.020   4.922 -0.1620 -0.3505 -1.5390
   89SAPE  H13Y 8707   1.410   5.158   4.982 -0.8910  0.2602  0.2999
   89SAPE  C314 8708   1.265   5.015   4.876 -0.3661  0.8610  0.4011
   89SAPE  H14X 8709   1.173   5.050   4.927  0.0647  0.9243  1.1367
   89SAPE  H14Y 8710   1.262   4.905   4.861  2.0447  0.9812 -1.8209
   89SAPE  C315 8711   1.277   5.085   4.741  0.1451  0.1101  0.3249
   89SAPE  H15X 8712   1.370   5.059   4.686  0.1699  0.7524  0.0524
   89SAPE  H15Y 8713   1.276   5.196   4.745 -0.1523  0.1566 -0.6967
   89SAPE  C316 8714   1.161   5.043   4.649 -0.1422 -0.0935  0.1925
   89SAPE  H16X 8715   1.155   5.121   4.569 -0.8607  2.4138  2.5375
   89SAPE  H16Y 8716   1.069   5.048   4.710  0.7665 -0.2612  1.6293
   89SAPE  C317 8717   1.168   4.894   4.597 -0.3874 -0.3060 -0.5857
   89SAPE  H17X 8718   1.128   4.840   4.686 -0.8390  1.8169  0.5705
   89SAPE  H17Y 8719   1.275   4.881   4.571 -0.8500 -2.1156 -1.7520
   89SAPE  C318 8720   1.088   4.854   4.475  0.2672 -1.1707  0.8552
   89SAPE  H18X 8721   1.121   4.753   4.446  2.6839  0.1414 -1.4137
   89SAPE  H18Y 8722   1.109   4.928   4.394  0.4867 -2.7498 -0.5791
   89SAPE  H18Z 8723   0.977   4.864   4.478  0.2263 -1.7373  1.2950
   90SAPE     N 8724   5.999   4.741   6.564 -0.1171 -0.5375  0.6747
   90SAPE   HN1 8725   5.941   4.694   6.637 -0.7831 -1.4755 -0.4180
   90SAPE   HN2 8726   6.078   4.677   6.544  0.9409  0.9291  0.0401
   90SAPE   HN3 8727   6.042   4.827   6.602  0.1533 -0.5484  0.3912
   90SAPE   C12 8728   5.904   4.756   6.446 -0.8152 -0.6154  0.0200
   90SAPE  H12A 8729   5.963   4.798   6.361 -2.2984 -0.3148 -0.9123
   90SAPE  H12B 8730   5.834   4.834   6.482 -2.9246 -0.9346 -2.9750
   90SAPE   C11 8731   5.841   4.621   6.414  0.0936  0.4806  0.2935
   90SAPE  H11A 8732   5.908   4.554   6.355 -3.5744 -1.5187 -1.9764
   90SAPE  H11B 8733   5.756   4.636   6.344  0.2020  0.7004  0.2095
   90SAPE     P 8734   5.798   4.413   6.566 -0.0336 -0.1531 -0.0244
   90SAPE   O13 8735   5.937   4.370   6.599 -0.6680 -0.0663  0.1447
   90SAPE   O14 8736   5.701   4.381   6.673 -0.4033 -0.2708 -0.3425
   90SAPE   O12 8737   5.782   4.571   6.542  0.3242  0.2739  0.1615
   90SAPE   O11 8738   5.748   4.335   6.435 -0.2108  0.3992  0.1911
   90SAPE    C1 8739   5.612   4.291   6.438 -0.8510  0.3942  0.0490
   90SAPE    HA 8740   5.583   4.244   6.534  1.1607 -0.7245  0.1530
   90SAPE    HB 8741   5.552   4.385   6.428  1.3554  1.6798 -2.0441
   90SAPE    C2 8742   5.575   4.191   6.327 -0.2508 -0.5934  0.1317
   90SAPE    HS 8743   5.633   4.100   6.352 -0.0253  0.0647  2.2347
   90SAPE   O21 8744   5.609   4.248   6.201  0.5124  0.0943  0.3266
   90SAPE   C21 8745   5.731   4.250   6.167  0.0599  0.0187 -0.3320
   90SAPE   O22 8746   5.826   4.196   6.227 -0.0142  0.6696 -0.1411
   90SAPE   C22 8747   5.752   4.335   6.048 -0.1510 -0.3235  0.1155
   90SAPE   H2R 8748   5.766   4.434   6.097 -2.9905 -0.4597  1.3653
   90SAPE   H2S 8749   5.844   4.302   5.994 -0.5523  2.2522 -2.3951
   90SAPE    C3 8750   5.430   4.163   6.315 -0.0762  0.1670 -0.0584
   90SAPE    HX 8751   5.381   4.259   6.286 -1.6109 -1.1158 -1.8905
   90SAPE    HY 8752   5.403   4.137   6.420  0.0572  0.3625  0.0264
   90SAPE   O31 8753   5.427   4.049   6.227 -0.3344 -0.4774  0.2482
   90SAPE   C31 8754   5.371   4.091   6.106  0.7962  0.8374  0.3301
   90SAPE   O32 8755   5.317   4.197   6.089 -0.1093 -0.2237  0.3071
   90SAPE   C32 8756   5.395   3.977   5.998  0.5728  0.8104  0.1835
   90SAPE   H2X 8757   5.357   3.884   6.045 -2.9588  1.3632 -1.2404
   90SAPE   H2Y 8758   5.505   3.971   5.990  0.5390  1.2073 -0.7835
   90SAPE   C23 8759   5.623   4.351   5.962 -0.3400 -0.3473 -0.0275
   90SAPE   H3R 8760   5.537   4.391   6.021 -0.1453 -2.9459  2.2203
   90SAPE   H3S 8761   5.596   4.260   5.903  0.8012  0.6036 -2.1465
   90SAPE   C24 8762   5.653   4.462   5.859 -0.4085  0.0901  0.6912
   90SAPE   H4R 8763   5.749   4.435   5.810 -0.4108  2.1014 -0.5039
   90SAPE   H4S 8764   5.676   4.561   5.904 -0.0441  1.9186 -3.1207
   90SAPE   C25 8765   5.539   4.473   5.759  0.1637  0.3495 -0.5164
   90SAPE   H5R 8766   5.447   4.526   5.788  1.0549  2.6137 -1.6033
   90SAPE   C26 8767   5.543   4.430   5.628  0.6646 -0.3243 -0.2011
   90SAPE   H6R 8768   5.447   4.449   5.579  0.7304  2.3770  0.5611
   90SAPE   C27 8769   5.664   4.364   5.557 -0.2298 -0.1696 -0.1016
   90SAPE   H7R 8770   5.731   4.311   5.628  1.0767  0.2547 -0.9729
   90SAPE   H7S 8771   5.729   4.447   5.522  1.5311 -1.1345  0.7335
   90SAPE   C28 8772   5.616   4.275   5.441 -0.2755 -0.3914 -0.6907
   90SAPE   H8R 8773   5.603   4.168   5.465 -1.0490  0.0668  1.0477
   90SAPE   C29 8774   5.608   4.316   5.314 -0.3049  0.4472 -0.5669
   90SAPE   H9R 8775   5.584   4.246   5.232 -0.7348  0.6634 -0.6288
   90SAPE  C210 8776   5.623   4.459   5.269  0.3766  0.2074 -0.0296
   90SAPE  H10R 8777   5.720   4.476   5.217  0.3110  0.4841 -0.0621
   90SAPE  H10S 8778   5.633   4.522   5.360  1.6755 -2.6660  1.9888
   90SAPE  C211 8779   5.496   4.506   5.203 -1.0335  0.3386 -0.3735
   90SAPE  H11R 8780   5.407   4.525   5.264 -1.1598  2.9102 -1.2125
   90SAPE  C212 8781   5.486   4.519   5.071  0.2760 -0.3270 -0.1854
   90SAPE  H12R 8782   5.396   4.570   5.034  1.6361  2.5126  0.1663
   90SAPE  C213 8783   5.599   4.487   4.969  0.9274 -0.6611  0.3339
   90SAPE  H13R 8784   5.688   4.451   5.026  0.5932  0.1707  1.4092
   90SAPE  H13S 8785   5.626   4.586   4.928 -0.6965  0.0338  0.8591
   90SAPE  C214 8786   5.557   4.380   4.872  0.6286  0.1624  0.8378
   90SAPE  H14R 8787   5.569   4.275   4.903  0.3848 -0.1378 -0.0586
   90SAPE  C215 8788   5.506   4.408   4.751  0.2563 -0.4879 -0.3976
   90SAPE  H15R 8789   5.486   4.322   4.686 -1.5933 -0.1088 -0.3998
   90SAPE  C216 8790   5.488   4.538   4.682  0.4242  0.0051 -0.1365
   90SAPE  H16R 8791   5.473   4.622   4.754  0.6460 -0.9456  1.0661
   90SAPE  H16S 8792   5.407   4.533   4.606  0.5891  1.8150 -0.4664
   90SAPE  C217 8793   5.624   4.563   4.607  0.1320 -0.1592  0.0246
   90SAPE  H17R 8794   5.688   4.607   4.686 -1.5512  1.6133  0.4692
   90SAPE  H17S 8795   5.607   4.637   4.526  1.2110 -0.1908 -0.2537
   90SAPE  C218 8796   5.687   4.450   4.521  0.6412  1.0709  0.1558
   90SAPE  H18R 8797   5.618   4.411   4.444 -0.4900 -0.4918  1.8708
   90SAPE  H18S 8798   5.704   4.361   4.585  1.1974  0.8662 -0.2632
   90SAPE  C219 8799   5.823   4.482   4.456  0.5734 -0.1938  0.0116
   90SAPE  H19R 8800   5.860   4.380   4.433 -1.3073 -0.2294 -3.6051
   90SAPE  H19S 8801   5.890   4.529   4.531 -0.6836 -0.0386  1.0675
   90SAPE  C220 8802   5.826   4.566   4.330 -0.5962  0.3746 -0.1661
   90SAPE  H20R 8803   5.920   4.556   4.271 -0.0813  1.5030  0.4413
   90SAPE  H20S 8804   5.826   4.672   4.361  0.4434 -0.2306  2.0875
   90SAPE  H20T 8805   5.743   4.545   4.258  0.0065 -1.8777 -0.2805
   90SAPE   C33 8806   5.342   4.015   5.854  0.2574 -0.1023  0.0034
   90SAPE   H3X 8807   5.386   4.110   5.818  1.9573 -1.0687 -0.6070
   90SAPE   H3Y 8808   5.232   4.028   5.859  0.0985 -1.2698 -0.0876
   90SAPE   C34 8809   5.375   3.910   5.752 -0.1760 -0.2578  0.0478
   90SAPE   H4X 8810   5.324   3.815   5.778 -0.9138  1.0180  3.9697
   90SAPE   H4Y 8811   5.485   3.889   5.757 -0.3393 -1.3730 -0.6844
   90SAPE   C35 8812   5.356   3.952   5.601  0.3390 -0.4407 -0.3090
   90SAPE   H5X 8813   5.406   4.050   5.588  0.2554 -0.3195  0.2705
   90SAPE   H5Y 8814   5.246   3.970   5.597  0.1111 -1.5074  0.7623
   90SAPE   C36 8815   5.400   3.856   5.497  0.1351 -0.1622  0.4135
   90SAPE   H6X 8816   5.368   3.753   5.525 -0.3686 -0.0668  0.1963
   90SAPE   H6Y 8817   5.509   3.865   5.476  0.1856  1.3093  1.2468
   90SAPE   C37 8818   5.322   3.888   5.365 -0.0317  0.7602  0.6538
   90SAPE   H7X 8819   5.223   3.936   5.382 -0.9157  0.0383 -2.0532
   90SAPE   H7Y 8820   5.310   3.791   5.314 -1.7108  0.3664  1.7217
   90SAPE   C38 8821   5.404   3.988   5.280 -0.3393 -0.7134 -0.5635
   90SAPE   H8X 8822   5.514   3.972   5.284  0.2548  2.7058 -0.2350
   90SAPE   H8Y 8823   5.394   4.095   5.308 -1.4131 -0.3919 -2.0588
   90SAPE   C39 8824   5.356   3.981   5.130 -0.4946  0.4904 -0.0601
   90SAPE   H9X 8825   5.379   4.074   5.074  0.4362  1.0079  1.1418
   90SAPE   H9Y 8826   5.245   3.972   5.127 -0.4376 -0.0970 -0.5296
   90SAPE  C310 8827   5.413   3.860   5.047 -0.6402  0.0048  0.1884
   90SAPE  H10X 8828   5.400   3.759   5.092  0.5053 -1.2784 -2.1825
   90SAPE  H10Y 8829   5.522   3.876   5.037 -0.9147  2.5569  0.5610
   90SAPE  C311 8830   5.355   3.855   4.906  0.3425  0.2115  0.7725
   90SAPE  H11X 8831   5.245   3.844   4.896  0.1199  3.4410 -2.8559
   90SAPE  H11Y 8832   5.387   3.765   4.849 -0.8038 -1.3906  2.5367
   90SAPE  C312 8833   5.391   3.976   4.824 -0.4891  0.2365 -0.3547
   90SAPE  H12X 8834   5.503   3.975   4.823 -0.4609 -2.1724 -1.0983
   90SAPE  H12Y 8835   5.340   4.062   4.872 -0.9228 -1.3213  2.1099
   90SAPE  C313 8836   5.340   3.967   4.677 -0.2471 -0.5145 -0.1078
   90SAPE  H13X 8837   5.230   3.952   4.670 -0.6606  2.3433 -1.2120
   90SAPE  H13Y 8838   5.375   3.872   4.631  0.8821  0.1330 -0.6364
   90SAPE  C314 8839   5.399   4.090   4.606  0.5012  0.2115  0.1227
   90SAPE  H14X 8840   5.508   4.080   4.625  0.0876 -0.8874  2.3070
   90SAPE  H14Y 8841   5.353   4.183   4.648  1.5620  1.3888 -1.2245
   90SAPE  C315 8842   5.377   4.090   4.458  0.3702  0.4233 -1.0033
   90SAPE  H15X 8843   5.385   3.983   4.427  0.1537  0.5688 -1.5676
   90SAPE  H15Y 8844   5.455   4.145   4.403 -0.9454  0.1977 -3.1925
   90SAPE  C316 8845   5.234   4.133   4.415 -0.2214  0.4742  0.1122
   90SAPE  H16X 8846   5.157   4.103   4.489  0.3994  1.6667  1.2868
   90SAPE  H16Y 8847   5.213   4.079   4.320  0.0858 -0.2764  0.4651
   90SAPE  C317 8848   5.215   4.284   4.407 -0.5716 -0.3000 -0.3350
   90SAPE  H17X 8849   5.234   4.340   4.501 -0.4808 -0.2981 -0.3541
   90SAPE  H17Y 8850   5.111   4.292   4.369 -0.2709  3.1184 -0.7584
   90SAPE  C318 8851   5.319   4.347   4.313 -0.5908 -0.7119 -0.1798
   90SAPE  H18X 8852   5.418   4.335   4.362 -0.1019 -0.6398 -1.1342
   90SAPE  H18Y 8853   5.301   4.456   4.315 -0.5666 -0.7144  1.5463
   90SAPE  H18Z 8854   5.321   4.304   4.211  0.9852 -1.1011 -0.0144
   91SAPE     N 8855   2.074   5.564   6.673 -0.4052 -0.6265 -0.9266
   91SAPE   HN1 8856   2.112   5.472   6.642  2.4050 -1.3479  3.7163
   91SAPE   HN2 8857   2.148   5.609   6.731 -0.1407 -2.7282  0.4810
   91SAPE   HN3 8858   1.994   5.553   6.738  1.0478 -0.9514  0.8946
   91SAPE   C12 8859   2.009   5.647   6.563 -0.4993  0.2386 -0.6461
   91SAPE  H12A 8860   2.093   5.670   6.494  0.0167 -1.4685 -0.6378
   91SAPE  H12B 8861   1.965   5.734   6.616  0.9048  0.8010 -0.3451
   91SAPE   C11 8862   1.886   5.575   6.487  0.1573  0.7939 -0.0450
   91SAPE  H11A 8863   1.926   5.483   6.439 -0.5801 -0.3743  1.4934
   91SAPE  H11B 8864   1.855   5.637   6.401 -0.3945  0.4269 -0.1179
   91SAPE     P 8865   1.643   5.629   6.571  0.4243  0.1400 -0.0178
   91SAPE   O13 8866   1.571   5.621   6.699  0.4399  0.1239 -0.0743
   91SAPE   O14 8867   1.677   5.772   6.521 -0.3599  0.8247  0.3035
   91SAPE   O12 8868   1.775   5.546   6.573 -0.5845 -0.1350 -0.1511
   91SAPE   O11 8869   1.549   5.555   6.463 -0.2393  0.0975 -0.1169
   91SAPE    C1 8870   1.603   5.490   6.348  0.1220  0.5658 -1.1200
   91SAPE    HA 8871   1.712   5.471   6.351 -0.4368 -3.1704  0.8815
   91SAPE    HB 8872   1.554   5.393   6.327  0.5819  0.0918 -0.0783
   91SAPE    C2 8873   1.586   5.577   6.224  0.1802  0.3604 -0.1351
   91SAPE    HS 8874   1.617   5.681   6.251 -0.6846  1.2455 -2.2963
   91SAPE   O21 8875   1.449   5.569   6.181 -0.1426  0.4824 -0.1113
   91SAPE   C21 8876   1.370   5.665   6.211 -0.6237  0.3613  0.3480
   91SAPE   O22 8877   1.396   5.764   6.276 -0.0508  0.0183  0.5779
   91SAPE   C22 8878   1.227   5.639   6.153 -0.7751  0.6181 -0.5988
   91SAPE   H2R 8879   1.235   5.529   6.141  4.4071  0.6564  0.1858
   91SAPE   H2S 8880   1.149   5.676   6.223 -0.1866 -0.6134  0.7570
   91SAPE    C3 8881   1.674   5.532   6.111 -0.8448 -0.3237  0.2275
   91SAPE    HX 8882   1.661   5.587   6.015  1.8159  1.5468  0.8049
   91SAPE    HY 8883   1.654   5.423   6.101 -1.4532 -0.3076  1.1625
   91SAPE   O31 8884   1.815   5.543   6.143 -0.4216  0.2694 -0.1420
   91SAPE   C31 8885   1.877   5.659   6.118 -0.2548 -0.4058 -0.0347
   91SAPE   O32 8886   1.818   5.761   6.083  0.5316  0.0673 -0.1470
   91SAPE   C32 8887   2.032   5.646   6.134  0.1275 -0.3918 -0.0671
   91SAPE   H2X 8888   2.075   5.564   6.072  3.1279  0.7650  0.3140
   91SAPE   H2Y 8889   2.050   5.616   6.240  2.2860  0.1530 -0.2180
   91SAPE   C23 8890   1.211   5.711   6.022  0.2904 -0.2654 -0.5663
   91SAPE   H3R 8891   1.220   5.820   6.040 -0.3835 -0.5602  1.8938
   91SAPE   H3S 8892   1.104   5.688   6.001 -0.0177 -2.1786  2.4227
   91SAPE   C24 8893   1.295   5.659   5.898 -0.5346 -0.3962  0.2269
   91SAPE   H4R 8894   1.293   5.548   5.898 -0.2831 -0.4017  0.4248
   91SAPE   H4S 8895   1.395   5.700   5.924 -1.7287  1.2190  2.6345
   91SAPE   C25 8896   1.245   5.729   5.772  0.0731  0.7025  0.3210
   91SAPE   H5R 8897   1.228   5.837   5.780  1.6953  1.0911 -0.8405
   91SAPE   C26 8898   1.258   5.672   5.653 -0.0013 -0.1805  0.2684
   91SAPE   H6R 8899   1.223   5.726   5.564  1.2424  0.1697 -0.0375
   91SAPE   C27 8900   1.305   5.536   5.620 -0.0154 -0.8443  0.0639
   91SAPE   H7R 8901   1.223   5.484   5.566  0.0100  0.5705 -1.4261
   91SAPE   H7S 8902   1.329   5.472   5.708  1.4367  0.2548  0.5061
   91SAPE   C28 8903   1.417   5.543   5.522 -0.4292 -0.1634  0.3748
   91SAPE   H8R 8904   1.516   5.534   5.570  0.6529  1.7676 -1.3562
   91SAPE   C29 8905   1.403   5.519   5.389  0.6576  0.1485 -0.5124
   91SAPE   H9R 8906   1.492   5.520   5.324 -0.1984 -1.0920 -1.7565
   91SAPE  C210 8907   1.270   5.500   5.319  0.0043 -0.1363  0.2417
   91SAPE  H10R 8908   1.206   5.586   5.345 -0.1111  0.5636 -2.0993
   91SAPE  H10S 8909   1.217   5.409   5.355 -1.5391  0.0726 -1.3532
   91SAPE  C211 8910   1.279   5.491   5.166  0.0308 -0.0406  0.6682
   91SAPE  H11R 8911   1.256   5.390   5.128  0.2942 -0.1050  0.6755
   91SAPE  C212 8912   1.325   5.575   5.068  0.8238 -0.0167 -0.2754
   91SAPE  H12R 8913   1.320   5.544   4.963 -1.1777  2.7021 -1.0992
   91SAPE  C213 8914   1.351   5.721   5.101  0.0149  0.1009 -0.6515
   91SAPE  H13R 8915   1.440   5.753   5.042  1.4272 -0.1427  1.2513
   91SAPE  H13S 8916   1.386   5.727   5.206 -0.0708 -1.8273 -0.4658
   91SAPE  C214 8917   1.244   5.813   5.085  0.2454 -0.7124  0.8168
   91SAPE  H14R 8918   1.192   5.830   5.181  0.4131  3.4112  0.3541
   91SAPE  C215 8919   1.202   5.878   4.970 -0.5401  0.2693  0.0686
   91SAPE  H15R 8920   1.115   5.946   4.970 -0.1680  0.7951 -1.4340
   91SAPE  C216 8921   1.267   5.874   4.832 -0.2234  0.6352 -0.6000
   91SAPE  H16R 8922   1.243   5.781   4.776 -1.2562  1.8500 -2.2719
   91SAPE  H16S 8923   1.378   5.882   4.828  0.0302 -2.0121 -1.0272
   91SAPE  C217 8924   1.203   5.987   4.747 -0.0735 -0.2802 -0.2328
   91SAPE  H17R 8925   1.105   6.025   4.783 -0.1106  0.1359 -0.7692
   91SAPE  H17S 8926   1.178   5.944   4.647  2.1722  0.4125 -1.1542
   91SAPE  C218 8927   1.299   6.105   4.722  0.5392 -0.6445 -0.3144
   91SAPE  H18R 8928   1.300   6.159   4.820 -0.1557  0.8767 -1.0985
   91SAPE  H18S 8929   1.239   6.174   4.658 -0.9870 -0.8668  0.8072
   91SAPE  C219 8930   1.444   6.084   4.678 -1.0837 -0.9410 -0.5123
   91SAPE  H19R 8931   1.453   6.075   4.568  0.4684  1.7724 -0.7035
   91SAPE  H19S 8932   1.502   5.999   4.721  2.1938  1.3655  0.0046
   91SAPE  C220 8933   1.520   6.211   4.718  0.7088 -0.4622  0.3844
   91SAPE  H20R 8934   1.497   6.298   4.653  0.4468 -0.6265  0.2557
   91SAPE  H20S 8935   1.629   6.194   4.703  0.2677 -0.6407 -3.6142
   91SAPE  H20T 8936   1.499   6.253   4.819  1.3121  0.5064  0.1187
   91SAPE   C33 8937   2.113   5.774   6.105 -1.0577 -0.4230  0.0412
   91SAPE   H3X 8938   2.211   5.746   6.149 -1.3058 -0.8823  0.3014
   91SAPE   H3Y 8939   2.077   5.862   6.164 -0.0424 -0.2012  0.3521
   91SAPE   C34 8940   2.148   5.795   5.961  0.5103 -0.3531 -0.9115
   91SAPE   H4X 8941   2.059   5.814   5.897  1.7695  0.4277 -2.5197
   91SAPE   H4Y 8942   2.182   5.694   5.930 -1.1354 -0.8224 -1.2708
   91SAPE   C35 8943   2.247   5.904   5.928  0.0573 -0.2865  0.0780
   91SAPE   H5X 8944   2.341   5.890   5.987  1.4164  1.7464 -1.4543
   91SAPE   H5Y 8945   2.202   6.004   5.947 -0.3616 -0.9075  2.8496
   91SAPE   C36 8946   2.295   5.891   5.778 -0.2089 -0.3733 -0.3176
   91SAPE   H6X 8947   2.211   5.897   5.705  0.9438 -0.2117 -1.6574
   91SAPE   H6Y 8948   2.350   5.796   5.768 -0.9061 -0.9477  0.9741
   91SAPE   C37 8949   2.387   6.004   5.738 -0.2892  1.0131  0.5073
   91SAPE   H7X 8950   2.470   5.984   5.810  0.6082  0.4675 -0.6483
   91SAPE   H7Y 8951   2.336   6.100   5.761 -1.0012  0.8349 -0.3152
   91SAPE   C38 8952   2.436   5.998   5.590  0.2340  0.1123 -0.2251
   91SAPE   H8X 8953   2.517   5.922   5.589 -0.1937 -0.5790  3.4117
   91SAPE   H8Y 8954   2.483   6.098   5.576  0.6595  0.1075  1.0843
   91SAPE   C39 8955   2.326   5.964   5.485 -0.0539 -0.1890  0.8634
   91SAPE   H9X 8956   2.248   6.042   5.499 -0.0949 -0.4285  2.0534
   91SAPE   H9Y 8957   2.284   5.867   5.519  0.2645 -1.2466 -1.5969
   91SAPE  C310 8958   2.371   5.958   5.341 -1.5366 -0.1163 -0.6024
   91SAPE  H10X 8959   2.440   5.872   5.334 -1.5942 -0.2164  0.0523
   91SAPE  H10Y 8960   2.423   6.053   5.315 -0.8292  0.4983  2.6157
   91SAPE  C311 8961   2.266   5.908   5.246 -0.0040  0.2475 -0.0264
   91SAPE  H11X 8962   2.175   5.973   5.249 -0.6072 -0.3855 -2.3435
   91SAPE  H11Y 8963   2.243   5.803   5.275  0.7998 -0.1246 -0.7139
   91SAPE  C312 8964   2.298   5.919   5.095 -0.3177  0.2405  0.1054
   91SAPE  H12X 8965   2.394   5.870   5.069  0.1249  1.9635 -1.7659
   91SAPE  H12Y 8966   2.319   6.027   5.080  0.4194 -0.0694 -1.2397
   91SAPE  C313 8967   2.201   5.869   4.986  0.1174 -0.1298 -0.0255
   91SAPE  H13X 8968   2.104   5.916   5.011 -1.0622 -1.8972 -1.0824
   91SAPE  H13Y 8969   2.180   5.761   5.007 -2.7768  0.4774  0.5666
   91SAPE  C314 8970   2.230   5.901   4.842 -1.1562 -0.4356  0.6692
   91SAPE  H14X 8971   2.287   5.997   4.847 -3.5263  1.0161  1.0333
   91SAPE  H14Y 8972   2.133   5.921   4.792 -0.5404  0.1687 -0.3303
   91SAPE  C315 8973   2.313   5.800   4.769 -0.2409 -0.1986 -0.0746
   91SAPE  H15X 8974   2.272   5.698   4.753 -0.1393 -0.2081 -0.2889
   91SAPE  H15Y 8975   2.405   5.795   4.832  0.1982  2.1584 -0.4340
   91SAPE  C316 8976   2.356   5.852   4.627 -0.4612 -0.3851 -0.0935
   91SAPE  H16X 8977   2.432   5.932   4.639  0.4037 -0.5935 -3.3472
   91SAPE  H16Y 8978   2.266   5.896   4.579  1.2655  2.0693 -1.2899
   91SAPE  C317 8979   2.415   5.732   4.553  0.1703 -0.7104 -0.0895
   91SAPE  H17X 8980   2.332   5.658   4.547 -0.9531  0.5472 -0.6989
   91SAPE  H17Y 8981   2.501   5.692   4.610  0.1170 -1.1759 -0.3251
   91SAPE  C318 8982   2.475   5.777   4.419  0.2952 -0.1212  0.4599
   91SAPE  H18X 8983   2.514   5.689   4.364 -1.6577 -2.0743  2.0479
   91SAPE  H18Y 8984   2.559   5.850   4.425 -0.0607  0.1461  3.3809
   91SAPE  H18Z 8985   2.397   5.830   4.359 -0.2038  0.3995  1.5482
   92SAPE     N 8986   4.125   6.364   6.985 -0.0799  0.5474 -0.2874
   92SAPE   HN1 8987   4.094   6.267   7.005  0.5922  0.1295 -1.2220
   92SAPE   HN2 8988   4.182   6.371   6.898 -0.3636 -0.8332 -0.6140
   92SAPE   HN3 8989   4.197   6.388   7.055  0.9161  0.2030 -1.1720
   92SAPE   C12 8990   4.006   6.445   6.987  0.4085 -0.1132  0.6189
   92SAPE  H12A 8991   4.033   6.545   6.945  2.7892  0.2354  2.7950
   92SAPE  H12B 8992   3.983   6.454   7.095  0.9020 -0.4543  0.7548
   92SAPE   C11 8993   3.888   6.384   6.905 -0.4768  0.5463 -0.4724
   92SAPE  H11A 8994   3.801   6.452   6.892 -2.4709 -1.9623 -1.1064
   92SAPE  H11B 8995   3.839   6.308   6.970  0.0550  1.4505  1.0372
   92SAPE     P 8996   3.941   6.380   6.647  0.6005  0.3465  0.1122
   92SAPE   O13 8997   4.043   6.485   6.654 -0.6216 -0.4352 -0.3423
   92SAPE   O14 8998   3.953   6.269   6.550 -0.0957  0.4420  1.3570
   92SAPE   O12 8999   3.926   6.307   6.788 -0.2061  0.2108 -0.0219
   92SAPE   O11 9000   3.807   6.452   6.622  0.4449 -0.1919 -0.0803
   92SAPE    C1 9001   3.674   6.388   6.644 -0.2503  0.1629 -0.4071
   92SAPE    HA 9002   3.688   6.300   6.710  0.0648 -0.2015 -0.9506
   92SAPE    HB 9003   3.631   6.463   6.713 -0.5621 -0.6848  0.3427
   92SAPE    C2 9004   3.600   6.374   6.509  0.6782  0.1530  0.2510
   92SAPE    HS 9005   3.499   6.329   6.522  0.2187  0.9375 -0.4914
   92SAPE   O21 9006   3.678   6.301   6.415 -0.8879  0.5239  0.1890
   92SAPE   C21 9007   3.669   6.172   6.426  0.1504 -0.0003  0.0272
   92SAPE   O22 9008   3.593   6.114   6.506 -0.1172  0.2881  0.2351
   92SAPE   C22 9009   3.739   6.092   6.316  0.7548  0.4018  0.0277
   92SAPE   H2R 9010   3.811   6.022   6.363 -0.6448 -0.8051  0.4570
   92SAPE   H2S 9011   3.663   6.020   6.278  1.1592 -0.3030  0.5186
   92SAPE    C3 9012   3.568   6.518   6.454  0.3655 -0.1797  0.1531
   92SAPE    HX 9013   3.666   6.570   6.463  1.2727 -1.8809  0.4674
   92SAPE    HY 9014   3.494   6.564   6.523  1.2311 -1.4845  2.0537
   92SAPE   O31 9015   3.529   6.524   6.315  0.4941 -0.6211 -0.1377
   92SAPE   C31 9016   3.400   6.479   6.298 -0.7683 -0.1183  0.6744
   92SAPE   O32 9017   3.323   6.453   6.387 -0.6316  0.2643  0.0594
   92SAPE   C32 9018   3.365   6.470   6.152  0.1166 -0.1674  1.2296
   92SAPE   H2X 9019   3.409   6.564   6.113  1.2725 -1.0446  0.3428
   92SAPE   H2Y 9020   3.255   6.476   6.136 -0.0287  0.0691  2.2287
   92SAPE   C23 9021   3.789   6.184   6.211 -0.5141 -0.6926 -0.2596
   92SAPE   H3R 9022   3.859   6.263   6.245 -1.6443  0.5267 -0.6783
   92SAPE   H3S 9023   3.711   6.249   6.165  0.9893 -1.0223 -3.5425
   92SAPE   C24 9024   3.861   6.103   6.096  0.6507  0.0345  0.3522
   92SAPE   H4R 9025   3.795   6.033   6.041  0.4617 -0.2610  0.9520
   92SAPE   H4S 9026   3.934   6.036   6.145 -0.4818  0.5800  2.9212
   92SAPE   C25 9027   3.923   6.200   6.000 -0.1204 -0.2925  0.2863
   92SAPE   H5R 9028   3.970   6.286   6.048 -1.6561  0.6139  0.2351
   92SAPE   C26 9029   3.928   6.181   5.864  0.4531 -0.6311  0.9899
   92SAPE   H6R 9030   3.964   6.265   5.803 -2.0452 -0.7582 -0.7953
   92SAPE   C27 9031   3.861   6.073   5.791 -0.0096 -0.1575 -0.1939
   92SAPE   H7R 9032   3.751   6.087   5.795 -0.0785 -0.8695  0.9992
   92SAPE   H7S 9033   3.875   5.975   5.842 -0.5513 -0.0800  0.1106
   92SAPE   C28 9034   3.898   6.048   5.651  0.3999 -0.2366 -0.3685
   92SAPE   H8R 9035   3.945   5.950   5.636  0.2625 -0.4669  0.6610
   92SAPE   C29 9036   3.874   6.126   5.545  0.2092  0.0034  0.0861
   92SAPE   H9R 9037   3.919   6.098   5.448 -3.1372  2.0211 -2.2977
   92SAPE  C210 9038   3.804   6.258   5.548 -0.5759  0.6396  0.0653
   92SAPE  H10R 9039   3.871   6.345   5.532  2.1230 -1.4387 -0.7441
   92SAPE  H10S 9040   3.752   6.270   5.646 -0.9480 -0.1980 -0.0218
   92SAPE  C211 9041   3.702   6.266   5.438 -0.5729 -0.3086 -0.3437
   92SAPE  H11R 9042   3.600   6.262   5.480 -0.6745  0.8128 -0.4585
   92SAPE  C212 9043   3.712   6.305   5.312 -0.5812 -0.4293 -0.2319
   92SAPE  H12R 9044   3.622   6.298   5.249  0.5654 -2.9523 -1.7746
   92SAPE  C213 9045   3.845   6.309   5.243  0.3175 -0.9698 -0.2664
   92SAPE  H13R 9046   3.891   6.218   5.287  0.1648 -0.2574  1.4383
   92SAPE  H13S 9047   3.911   6.394   5.268  0.0133 -0.9119  0.3621
   92SAPE  C214 9048   3.836   6.294   5.095  0.2854  0.0764  0.3209
   92SAPE  H14R 9049   3.791   6.197   5.068  1.1474 -0.6518  1.3911
   92SAPE  C215 9050   3.900   6.366   5.009  0.3446 -0.5113 -0.2872
   92SAPE  H15R 9051   3.892   6.353   4.901 -0.2539  1.3178 -0.5103
   92SAPE  C216 9052   3.972   6.503   5.024  0.5765 -0.9607  0.3582
   92SAPE  H16R 9053   4.073   6.484   5.065  0.9834 -0.2717 -0.3205
   92SAPE  H16S 9054   3.912   6.556   5.101  0.0702 -1.8482  0.5872
   92SAPE  C217 9055   3.955   6.574   4.892 -0.0130 -0.8481  0.5838
   92SAPE  H17R 9056   3.848   6.572   4.861  0.1046  1.0283 -0.1209
   92SAPE  H17S 9057   4.018   6.525   4.814 -1.1876  0.0217 -0.9894
   92SAPE  C218 9058   3.983   6.726   4.888  0.0780 -0.3220  0.4689
   92SAPE  H18R 9059   4.086   6.750   4.924  0.4864  2.5124 -2.1631
   92SAPE  H18S 9060   3.913   6.777   4.957 -0.0799  0.7239 -0.4446
   92SAPE  C219 9061   3.972   6.790   4.745  0.0012 -0.0823 -0.3231
   92SAPE  H19R 9062   4.064   6.745   4.701  0.5831  0.8498 -0.0805
   92SAPE  H19S 9063   3.980   6.900   4.756 -1.3206 -0.0345  0.3412
   92SAPE  C220 9064   3.860   6.756   4.647 -0.4239 -0.0612 -0.4325
   92SAPE  H20R 9065   3.848   6.645   4.653  0.9405 -0.2187 -0.3380
   92SAPE  H20S 9066   3.894   6.773   4.543  0.2858 -1.3702 -0.4385
   92SAPE  H20T 9067   3.767   6.810   4.675  0.4787  2.3570 -1.8652
   92SAPE   C33 9068   3.435   6.356   6.075 -0.2308 -0.0281  0.4593
   92SAPE   H3X 9069   3.544   6.351   6.097  0.5019 -0.3366 -2.7996
   92SAPE   H3Y 9070   3.443   6.405   5.976 -0.9316  1.4763  1.1064
   92SAPE   C34 9071   3.380   6.221   6.066  0.0556 -0.2365 -0.0529
   92SAPE   H4X 9072   3.290   6.232   6.000 -0.9032  0.1190  1.2741
   92SAPE   H4Y 9073   3.337   6.196   6.165  4.3179  0.8841  2.2955
   92SAPE   C35 9074   3.482   6.121   6.014 -0.2854  0.1923 -0.1199
   92SAPE   H5X 9075   3.558   6.098   6.091  0.0757 -0.2646 -0.6060
   92SAPE   H5Y 9076   3.536   6.165   5.927 -0.8395  0.2260 -0.4565
   92SAPE   C36 9077   3.419   5.985   5.965 -0.1945  0.2808  0.4546
   92SAPE   H6X 9078   3.359   5.940   6.046  0.9476  1.6624  2.1637
   92SAPE   H6Y 9079   3.503   5.916   5.942 -0.2313  0.7025 -1.0595
   92SAPE   C37 9080   3.322   5.999   5.844  0.2198 -0.4130 -0.1711
   92SAPE   H7X 9081   3.232   6.052   5.882  1.3583  1.1568  0.4642
   92SAPE   H7Y 9082   3.297   5.896   5.812 -2.4654  0.6749 -1.8496
   92SAPE   C38 9083   3.373   6.084   5.730 -0.6599 -0.2153  0.1054
   92SAPE   H8X 9084   3.477   6.056   5.703 -0.6732  0.7161 -0.9998
   92SAPE   H8Y 9085   3.359   6.190   5.762 -1.7816 -0.1692 -0.5059
   92SAPE   C39 9086   3.296   6.070   5.597 -0.0947 -0.1784  0.3951
   92SAPE   H9X 9087   3.283   5.967   5.558  0.3970  0.1620 -0.6946
   92SAPE   H9Y 9088   3.359   6.133   5.530 -0.0276 -0.1057  0.5251
   92SAPE  C310 9089   3.159   6.131   5.603  0.4928  0.3465 -0.3259
   92SAPE  H10X 9090   3.166   6.235   5.642 -2.7291  0.5810 -0.0740
   92SAPE  H10Y 9091   3.102   6.075   5.681 -1.0547  1.9847 -0.2142
   92SAPE  C311 9092   3.078   6.135   5.474  0.3234 -0.2356  0.1876
   92SAPE  H11X 9093   2.980   6.181   5.498  0.4317  0.4373 -0.6236
   92SAPE  H11Y 9094   3.054   6.032   5.439 -2.8332 -0.8358  3.5748
   92SAPE  C312 9095   3.149   6.211   5.361  0.0259 -0.3595 -0.2508
   92SAPE  H12X 9096   3.245   6.158   5.342  0.7652  0.5686  0.7669
   92SAPE  H12Y 9097   3.169   6.314   5.398 -1.5564 -0.2991  0.5190
   92SAPE  C313 9098   3.061   6.191   5.234  0.6453 -0.7259  1.1187
   92SAPE  H13X 9099   2.971   6.256   5.238  2.4665  2.0589  0.4134
   92SAPE  H13Y 9100   3.021   6.088   5.234 -1.6429  0.0162 -2.1317
   92SAPE  C314 9101   3.131   6.220   5.100 -0.7599 -0.0977  0.6506
   92SAPE  H14X 9102   3.216   6.153   5.078  0.3096  0.8016  1.9009
   92SAPE  H14Y 9103   3.171   6.323   5.095 -1.6576  0.2186 -0.4411
   92SAPE  C315 9104   3.042   6.190   4.970 -0.2211  0.3472  0.1245
   92SAPE  H15X 9105   2.956   6.259   4.979  2.1445  3.4436  0.6462
   92SAPE  H15Y 9106   2.997   6.088   4.968 -0.7268  0.5682 -1.3221
   92SAPE  C316 9107   3.125   6.219   4.838  0.7206  0.4387  0.2659
   92SAPE  H16X 9108   3.197   6.137   4.819  1.0784  0.7285  0.3669
   92SAPE  H16Y 9109   3.178   6.316   4.850  1.3914 -0.1801  3.2403
   92SAPE  C317 9110   3.036   6.233   4.716  0.2645 -0.0674 -0.2792
   92SAPE  H17X 9111   2.957   6.308   4.735  0.8402  0.5621 -0.3511
   92SAPE  H17Y 9112   3.001   6.129   4.699  0.9947 -0.2612 -0.6300
   92SAPE  C318 9113   3.119   6.284   4.597  0.0171 -0.0403 -0.5408
   92SAPE  H18X 9114   3.205   6.216   4.577  0.3726  0.8344 -2.1420
   92SAPE  H18Y 9115   3.154   6.387   4.623  0.6263 -0.0972 -1.1046
   92SAPE  H18Z 9116   3.061   6.296   4.504 -1.8496  0.3023  0.6091
   93SAPE     N 9117   5.363   1.679   6.808  0.1555  0.4809 -0.0140
   93SAPE   HN1 9118   5.396   1.683   6.710 -0.8732 -2.9862 -0.6222
   93SAPE   HN2 9119   5.260   1.686   6.793 -0.2126  1.0925  2.3347
   93SAPE   HN3 9120   5.400   1.760   6.862 -1.4281  0.4112  1.2519
   93SAPE   C12 9121   5.395   1.542   6.875  0.9911  0.0546  0.0454
   93SAPE  H12A 9122   5.363   1.457   6.812  1.0006 -2.6302  3.3924
   93SAPE  H12B 9123   5.331   1.548   6.966  2.5498  0.9720  1.1174
   93SAPE   C11 9124   5.539   1.534   6.914 -0.0978 -0.5148  0.1564
   93SAPE  H11A 9125   5.566   1.440   6.966  1.3152 -1.5204 -2.2614
   93SAPE  H11B 9126   5.553   1.615   6.989  0.2038 -0.4425  0.0220
   93SAPE     P 9127   5.728   1.465   6.735  0.4911  0.2195  0.0355
   93SAPE   O13 9128   5.780   1.535   6.613 -0.1093 -0.3796  0.0041
   93SAPE   O14 9129   5.822   1.438   6.846  0.5079  0.4704 -0.5806
   93SAPE   O12 9130   5.617   1.555   6.801 -0.4045  0.3736 -0.5680
   93SAPE   O11 9131   5.636   1.336   6.696  0.1255  0.3281  0.6433
   93SAPE    C1 9132   5.571   1.331   6.569 -0.3481 -0.9754 -0.8393
   93SAPE    HA 9133   5.497   1.414   6.561 -0.7387 -1.2166  0.1425
   93SAPE    HB 9134   5.646   1.351   6.489  0.3186  1.0313  0.2214
   93SAPE    C2 9135   5.506   1.192   6.541 -0.8556 -0.7982 -0.1240
   93SAPE    HS 9136   5.447   1.168   6.632 -0.1419  0.1410  0.5994
   93SAPE   O21 9137   5.613   1.097   6.527 -0.7428  0.3266 -0.3449
   93SAPE   C21 9138   5.587   0.973   6.540  0.7448 -0.4756  0.3178
   93SAPE   O22 9139   5.481   0.917   6.570  0.5373  0.0789  0.0604
   93SAPE   C22 9140   5.707   0.896   6.481  0.6613  0.4180  0.1764
   93SAPE   H2R 9141   5.782   0.961   6.430  2.0670 -0.1818  1.3882
   93SAPE   H2S 9142   5.764   0.852   6.566  0.2525 -0.3136  0.0767
   93SAPE    C3 9143   5.425   1.196   6.407  0.0775 -1.0266 -1.0633
   93SAPE    HX 9144   5.329   1.247   6.428  1.0520  0.2767  0.4593
   93SAPE    HY 9145   5.393   1.093   6.379 -0.0523 -1.4053  0.3914
   93SAPE   O31 9146   5.502   1.266   6.300 -0.4361  0.1335 -0.1842
   93SAPE   C31 9147   5.444   1.343   6.213  0.1886 -0.0316 -0.5485
   93SAPE   O32 9148   5.339   1.402   6.232 -0.1027 -0.1391 -0.1611
   93SAPE   C32 9149   5.521   1.356   6.081 -0.1815 -0.3652 -0.1426
   93SAPE   H2X 9150   5.626   1.366   6.115 -1.0908  2.1739  2.3831
   93SAPE   H2Y 9151   5.492   1.456   6.041 -1.0553 -0.3800  0.4148
   93SAPE   C23 9152   5.663   0.785   6.388 -0.0989 -0.2263 -0.3307
   93SAPE   H3R 9153   5.562   0.748   6.417 -0.2992  1.8012  1.8309
   93SAPE   H3S 9154   5.732   0.699   6.373  1.8055  1.2221 -0.2077
   93SAPE   C24 9155   5.632   0.847   6.254 -0.6110  0.1807  0.4808
   93SAPE   H4R 9156   5.718   0.905   6.214 -0.5815 -0.1699  0.0282
   93SAPE   H4S 9157   5.549   0.920   6.258 -1.5709 -0.9487  3.5589
   93SAPE   C25 9158   5.598   0.738   6.154  0.2050 -0.3201 -0.7160
   93SAPE   H5R 9159   5.684   0.692   6.104  1.4723  0.2221  0.8724
   93SAPE   C26 9160   5.480   0.684   6.123 -0.2865 -0.3199  0.0960
   93SAPE   H6R 9161   5.472   0.606   6.046 -0.1991  0.3469 -0.5992
   93SAPE   C27 9162   5.347   0.722   6.176  0.3384 -0.3817 -1.0429
   93SAPE   H7R 9163   5.303   0.799   6.109 -1.2734 -0.3817 -0.0349
   93SAPE   H7S 9164   5.362   0.773   6.274  0.3497 -1.4241 -0.4845
   93SAPE   C28 9165   5.243   0.613   6.192 -0.4458 -0.6944  0.0684
   93SAPE   H8R 9166   5.277   0.530   6.256  0.2291  0.1900  0.8801
   93SAPE   C29 9167   5.116   0.614   6.143  0.3617 -0.0316  0.9146
   93SAPE   H9R 9168   5.056   0.523   6.154  1.1650 -0.6972 -0.0873
   93SAPE  C210 9169   5.049   0.725   6.064 -0.7575 -0.6471 -0.0306
   93SAPE  H10R 9170   5.094   0.729   5.963 -1.6247 -0.6437 -0.4282
   93SAPE  H10S 9171   5.084   0.822   6.104 -0.2359 -1.2334  0.9801
   93SAPE  C211 9172   4.899   0.716   6.053 -0.0399 -0.1653  0.0838
   93SAPE  H11R 9173   4.859   0.752   6.149  0.1523 -2.0912  0.9255
   93SAPE  C212 9174   4.825   0.696   5.944 -0.3936  0.6092  0.1388
   93SAPE  H12R 9175   4.717   0.687   5.957 -0.5393  1.4119 -0.4467
   93SAPE  C213 9176   4.879   0.646   5.809  0.0302 -0.2181 -0.3623
   93SAPE  H13R 9177   4.856   0.538   5.796  0.5669 -0.2729 -0.9233
   93SAPE  H13S 9178   4.989   0.658   5.816  0.0645  1.1862 -2.4098
   93SAPE  C214 9179   4.813   0.713   5.690 -0.0643  0.4211 -0.3539
   93SAPE  H14R 9180   4.843   0.818   5.678 -1.0409  0.7030 -0.4317
   93SAPE  C215 9181   4.729   0.662   5.594 -0.3648  0.5512  0.3096
   93SAPE  H15R 9182   4.686   0.737   5.526 -1.1292  0.6163  0.8615
   93SAPE  C216 9183   4.676   0.520   5.585  0.3066 -0.0431 -0.0633
   93SAPE  H16R 9184   4.566   0.520   5.579  0.2065  1.0195  1.3710
   93SAPE  H16S 9185   4.710   0.454   5.668 -0.1741  0.4542  0.5307
   93SAPE  C217 9186   4.739   0.449   5.464 -0.0262 -0.0302  0.4551
   93SAPE  H17R 9187   4.849   0.445   5.472  0.1762  2.3039 -0.2751
   93SAPE  H17S 9188   4.721   0.496   5.364  1.9035 -1.2590 -0.5196
   93SAPE  C218 9189   4.703   0.299   5.460  0.0266 -0.6960 -0.1208
   93SAPE  H18R 9190   4.592   0.297   5.459 -0.5308  2.6802  5.6425
   93SAPE  H18S 9191   4.732   0.252   5.557  1.8237 -1.0601 -0.7939
   93SAPE  C219 9192   4.773   0.214   5.353  0.2862  0.1598  0.0384
   93SAPE  H19R 9193   4.883   0.208   5.367  0.3152  0.9153  0.1726
   93SAPE  H19S 9194   4.749   0.267   5.258  1.4152  1.9460  0.6923
   93SAPE  C220 9195   4.725   0.075   5.344  0.2095  0.8040 -0.6932
   93SAPE  H20R 9196   4.770   0.024   5.432 -1.1933  2.8681  1.3318
   93SAPE  H20S 9197   4.747   0.031   5.245 -0.4893 -0.8770 -0.1394
   93SAPE  H20T 9198   4.614   0.082   5.348  0.1398  0.1042 -1.2248
   93SAPE   C33 9199   5.510   1.226   5.997  0.5656 -0.4513 -0.4153
   93SAPE   H3X 9200   5.411   1.235   5.947 -0.2950  0.2436  1.3375
   93SAPE   H3Y 9201   5.499   1.135   6.061 -2.7818 -1.4241 -2.1348
   93SAPE   C34 9202   5.614   1.227   5.894 -0.0297 -0.1162  0.7404
   93SAPE   H4X 9203   5.717   1.226   5.935  0.0000  3.3279  0.9740
   93SAPE   H4Y 9204   5.602   1.319   5.833  1.1488 -0.0393  0.6168
   93SAPE   C35 9205   5.605   1.112   5.789  0.6526 -0.0326 -0.3740
   93SAPE   H5X 9206   5.669   1.146   5.705  0.0057 -0.8676 -1.2206
   93SAPE   H5Y 9207   5.506   1.098   5.740  0.9659 -1.4808 -0.6464
   93SAPE   C36 9208   5.652   0.981   5.841  0.3158  0.3486  0.6398
   93SAPE   H6X 9209   5.588   0.957   5.929  0.2035 -1.0362  0.2136
   93SAPE   H6Y 9210   5.755   0.998   5.878 -0.3853  1.5263  2.1774
   93SAPE   C37 9211   5.640   0.859   5.744  0.2609 -0.3794  0.8772
   93SAPE   H7X 9212   5.670   0.765   5.796 -2.5350 -1.9774 -0.1627
   93SAPE   H7Y 9213   5.697   0.891   5.655  0.0587  0.8145  1.1624
   93SAPE   C38 9214   5.490   0.840   5.712 -0.1949 -0.5063  0.3922
   93SAPE   H8X 9215   5.464   0.923   5.643 -0.1552  0.4885  1.5483
   93SAPE   H8Y 9216   5.421   0.866   5.796 -3.0596 -0.1582 -1.9109
   93SAPE   C39 9217   5.449   0.709   5.639  0.1754  0.1688  0.6518
   93SAPE   H9X 9218   5.343   0.706   5.605  0.6690  0.6051 -1.0286
   93SAPE   H9Y 9219   5.466   0.624   5.709 -0.5617 -2.4468 -2.1091
   93SAPE  C310 9220   5.522   0.675   5.513 -0.8918 -0.5607  1.0335
   93SAPE  H10X 9221   5.500   0.578   5.463  1.1550 -0.4056 -0.3102
   93SAPE  H10Y 9222   5.627   0.654   5.540 -0.6030  0.4637  0.7571
   93SAPE  C311 9223   5.529   0.786   5.407 -1.1703  0.0878 -0.1760
   93SAPE  H11X 9224   5.559   0.876   5.465 -1.6714 -0.8339  1.5866
   93SAPE  H11Y 9225   5.423   0.804   5.377 -1.3275 -0.9836 -0.3004
   93SAPE  C312 9226   5.642   0.770   5.299  0.1322  0.8602 -0.6235
   93SAPE  H12X 9227   5.627   0.666   5.263  0.0665  0.7429 -0.2678
   93SAPE  H12Y 9228   5.736   0.779   5.357 -0.5583  1.5252  0.4349
   93SAPE  C313 9229   5.633   0.871   5.190 -0.0730  0.2884 -0.3305
   93SAPE  H13X 9230   5.615   0.973   5.230 -0.0673  0.7769 -1.5278
   93SAPE  H13Y 9231   5.560   0.842   5.113 -0.0186  0.9274 -0.6312
   93SAPE  C314 9232   5.760   0.892   5.112 -0.5218  0.6104  0.4994
   93SAPE  H14X 9233   5.781   0.791   5.072  0.6040  0.0908  2.2786
   93SAPE  H14Y 9234   5.840   0.925   5.181  1.8627 -1.0285 -1.3110
   93SAPE  C315 9235   5.748   0.979   4.994 -0.3787 -0.3555 -0.1442
   93SAPE  H15X 9236   5.648   0.956   4.953 -0.6393  0.0790  0.2370
   93SAPE  H15Y 9237   5.825   0.958   4.917  1.6060 -2.9799  2.3394
   93SAPE  C316 9238   5.757   1.121   5.038  0.1071 -0.4264  0.3937
   93SAPE  H16X 9239   5.857   1.149   5.079  0.5751 -2.7208  0.9822
   93SAPE  H16Y 9240   5.674   1.142   5.108 -2.4905  0.3167 -2.6726
   93SAPE  C317 9241   5.730   1.222   4.924 -0.2519 -0.8083 -0.1217
   93SAPE  H17X 9242   5.629   1.192   4.888 -0.6372 -0.8255  0.9360
   93SAPE  H17Y 9243   5.814   1.224   4.851 -0.3749 -1.1629 -0.2765
   93SAPE  C318 9244   5.716   1.368   4.979  0.3834  0.2840 -0.0144
   93SAPE  H18X 9245   5.691   1.437   4.897 -1.2996 -1.1989 -0.8131
   93SAPE  H18Y 9246   5.801   1.393   5.046 -1.1096  0.5898  1.8535
   93SAPE  H18Z 9247   5.636   1.374   5.056 -0.8654 -0.2382 -1.2471
   94SAPE     N 9248   4.315   3.324   6.226  0.1040 -0.1441 -0.4824
   94SAPE   HN1 9249   4.414   3.354   6.240  0.2838 -1.1515  0.5775
   94SAPE   HN2 9250   4.314   3.232   6.176  0.4799  0.1712 -1.0838
   94SAPE   HN3 9251   4.261   3.401   6.183 -3.1057 -0.3699  2.6657
   94SAPE   C12 9252   4.274   3.292   6.376  0.0974 -0.5640  0.5564
   94SAPE  H12A 9253   4.246   3.394   6.408 -0.1605 -0.2543 -0.6143
   94SAPE  H12B 9254   4.365   3.248   6.422 -1.1989 -1.5505  2.3251
   94SAPE   C11 9255   4.153   3.202   6.398  0.4241  0.3947  0.8951
   94SAPE  H11A 9256   4.059   3.235   6.348  1.0359 -2.3301 -2.4070
   94SAPE  H11B 9257   4.129   3.192   6.506 -0.1469  1.1577  0.8540
   94SAPE     P 9258   4.090   2.951   6.370 -0.4318 -0.1039  0.0051
   94SAPE   O13 9259   4.162   2.868   6.465 -0.0124 -0.1174 -0.2100
   94SAPE   O14 9260   3.955   2.988   6.404 -0.2503  0.0831 -0.2218
   94SAPE   O12 9261   4.179   3.081   6.344 -0.4785  0.6448  0.0965
   94SAPE   O11 9262   4.081   2.871   6.230 -0.0100 -0.4399 -0.3290
   94SAPE    C1 9263   4.194   2.820   6.173 -0.6712  0.3917 -0.0290
   94SAPE    HA 9264   4.252   2.754   6.241  0.5694  3.0835  1.7043
   94SAPE    HB 9265   4.163   2.766   6.081  2.2646  1.8223 -2.0293
   94SAPE    C2 9266   4.274   2.927   6.100 -0.3422 -0.2437 -0.1678
   94SAPE    HS 9267   4.313   3.009   6.165 -1.5870  2.0330 -2.0968
   94SAPE   O21 9268   4.188   2.995   6.008 -0.0987  0.1146 -0.0803
   94SAPE   C21 9269   4.246   3.100   5.953  0.6962 -0.4627 -0.1535
   94SAPE   O22 9270   4.335   3.175   5.997  0.1516  0.7712 -0.2500
   94SAPE   C22 9271   4.172   3.141   5.831 -0.1121  0.4600 -0.2597
   94SAPE   H2R 9272   4.070   3.166   5.865 -0.1489  0.5210 -0.4192
   94SAPE   H2S 9273   4.215   3.234   5.789  2.6677  0.1080  1.5172
   94SAPE    C3 9274   4.398   2.872   6.031 -0.0137  0.1312  0.2283
   94SAPE    HX 9275   4.465   2.836   6.111  1.8311  0.0321 -1.2954
   94SAPE    HY 9276   4.451   2.956   5.982 -0.5835  0.6744  0.5316
   94SAPE   O31 9277   4.349   2.761   5.948  0.1151  0.0833 -0.0119
   94SAPE   C31 9278   4.432   2.749   5.848 -0.1606  0.2549 -0.2384
   94SAPE   O32 9279   4.540   2.797   5.837 -0.2281 -0.1439 -0.6957
   94SAPE   C32 9280   4.360   2.671   5.739 -0.1522  0.2403 -0.5450
   94SAPE   H2X 9281   4.314   2.746   5.672 -0.1345  2.0601  1.3676
   94SAPE   H2Y 9282   4.282   2.604   5.780  3.2249 -4.4776 -0.9231
   94SAPE   C23 9283   4.159   3.033   5.725 -0.0447  0.1253  0.3646
   94SAPE   H3R 9284   4.111   2.944   5.770 -0.1914 -0.1607 -0.3450
   94SAPE   H3S 9285   4.263   3.007   5.696 -0.1954 -1.5048  1.2199
   94SAPE   C24 9286   4.064   3.084   5.619 -0.9187  0.0853 -0.0374
   94SAPE   H4R 9287   3.977   3.132   5.669 -1.5395 -1.2391  0.1927
   94SAPE   H4S 9288   4.030   3.003   5.551  1.4013  0.5590 -1.9014
   94SAPE   C25 9289   4.119   3.196   5.538 -0.3797 -0.2182 -0.2415
   94SAPE   H5R 9290   4.198   3.258   5.582 -0.2927  2.6555 -3.9309
   94SAPE   C26 9291   4.088   3.222   5.413  0.0147  0.8065 -0.1172
   94SAPE   H6R 9292   4.144   3.305   5.367  0.7021 -0.0205 -0.8180
   94SAPE   C27 9293   3.981   3.160   5.325 -0.2320  0.9313 -0.5615
   94SAPE   H7R 9294   3.930   3.241   5.268 -1.7813 -0.9375 -1.9507
   94SAPE   H7S 9295   3.903   3.108   5.385  1.7400  0.0890  1.4020
   94SAPE   C28 9296   4.065   3.067   5.238 -0.4326  0.1172  0.0481
   94SAPE   H8R 9297   4.117   2.979   5.280  1.2316  0.5179 -1.1080
   94SAPE   C29 9298   4.091   3.068   5.105  0.2658 -0.5435  0.1918
   94SAPE   H9R 9299   4.141   2.982   5.058 -0.9367  0.4222 -3.1252
   94SAPE  C210 9300   4.045   3.165   4.999 -0.9774 -0.3732  0.4606
   94SAPE  H10R 9301   3.985   3.247   5.046 -1.0694  0.4285 -1.0035
   94SAPE  H10S 9302   3.987   3.122   4.915  1.3373 -0.5106 -1.1636
   94SAPE  C211 9303   4.163   3.225   4.928  0.0968 -0.1098  0.3650
   94SAPE  H11R 9304   4.257   3.221   4.985  1.9951  2.4116 -2.2881
   94SAPE  C212 9305   4.164   3.286   4.805  0.4324 -0.4304  0.4755
   94SAPE  H12R 9306   4.258   3.315   4.756 -1.3469  1.9895 -1.7619
   94SAPE  C213 9307   4.053   3.310   4.706 -0.4903 -0.1996  0.3857
   94SAPE  H13R 9308   3.956   3.278   4.749 -0.8100  0.0234 -0.1627
   94SAPE  H13S 9309   4.077   3.253   4.614 -0.4113  2.0153 -1.0648
   94SAPE  C214 9310   4.053   3.456   4.670  0.0806 -0.7687 -0.0711
   94SAPE  H14R 9311   4.037   3.527   4.753  1.2548  0.0759 -0.5386
   94SAPE  C215 9312   4.071   3.520   4.559 -0.1661 -0.4973  0.4192
   94SAPE  H15R 9313   4.096   3.627   4.555  0.5357 -0.6602  0.2976
   94SAPE  C216 9314   4.108   3.460   4.423 -0.3953  0.6803 -0.2737
   94SAPE  H16R 9315   4.116   3.549   4.356  0.4257  1.7837  1.2090
   94SAPE  H16S 9316   4.029   3.392   4.386  0.1155 -0.4387  0.6591
   94SAPE  C217 9317   4.253   3.393   4.419 -0.0930 -0.4127 -0.2898
   94SAPE  H17R 9318   4.274   3.330   4.508  0.9191  3.8051  2.7872
   94SAPE  H17S 9319   4.321   3.481   4.425  0.1598 -0.6324  0.1283
   94SAPE  C218 9320   4.269   3.325   4.288  0.6751  0.1289  0.4759
   94SAPE  H18R 9321   4.182   3.257   4.293  0.4121  0.4162 -0.1189
   94SAPE  H18S 9322   4.356   3.256   4.283  0.9492  0.3774  1.5440
   94SAPE  C219 9323   4.256   3.412   4.163  0.2852 -0.0591 -0.7475
   94SAPE  H19R 9324   4.321   3.501   4.170 -0.3469  0.4048 -0.6726
   94SAPE  H19S 9325   4.157   3.461   4.169  0.9243  1.1018  1.5793
   94SAPE  C220 9326   4.270   3.329   4.039  0.2406  0.0161  0.1730
   94SAPE  H20R 9327   4.195   3.247   4.039  0.7282 -0.4434 -0.8933
   94SAPE  H20S 9328   4.371   3.284   4.044 -0.3190 -1.5782 -1.6547
   94SAPE  H20T 9329   4.254   3.381   3.942 -2.6352  3.3427  2.1493
   94SAPE   C33 9330   4.465   2.594   5.658 -0.3032 -0.8865  1.0877
   94SAPE   H3X 9331   4.510   2.505   5.707 -1.1942 -2.1330 -0.2450
   94SAPE   H3Y 9332   4.551   2.662   5.637  0.4350 -1.7074  1.3775
   94SAPE   C34 9333   4.401   2.544   5.526 -0.9422 -0.2371 -0.0336
   94SAPE   H4X 9334   4.484   2.518   5.456  0.7473  2.4855  0.8016
   94SAPE   H4Y 9335   4.340   2.622   5.477 -0.6379  0.1062  0.1308
   94SAPE   C35 9336   4.325   2.412   5.551 -0.2808 -0.7916  0.1442
   94SAPE   H5X 9337   4.241   2.430   5.621 -0.3323  0.6626 -0.2707
   94SAPE   H5Y 9338   4.383   2.337   5.609 -1.2633 -0.8071  1.1222
   94SAPE   C36 9339   4.255   2.354   5.422  0.7864 -0.3452  0.4202
   94SAPE   H6X 9340   4.197   2.427   5.361 -0.6027 -2.4802 -0.9663
   94SAPE   H6Y 9341   4.182   2.276   5.453  1.2254 -0.1744  1.9574
   94SAPE   C37 9342   4.350   2.288   5.317  0.3652  0.0964 -0.2799
   94SAPE   H7X 9343   4.371   2.185   5.353  0.2096  0.4708  0.9229
   94SAPE   H7Y 9344   4.452   2.331   5.323  0.7465 -0.5233 -1.9071
   94SAPE   C38 9345   4.295   2.289   5.175 -0.3595  0.0510 -0.0571
   94SAPE   H8X 9346   4.270   2.395   5.154  3.0704  0.5216 -2.9450
   94SAPE   H8Y 9347   4.198   2.235   5.172  0.1104 -0.9391  1.5432
   94SAPE   C39 9348   4.381   2.225   5.070 -0.4440 -0.0337 -0.6518
   94SAPE   H9X 9349   4.407   2.124   5.109 -0.4315 -0.1485 -0.9505
   94SAPE   H9Y 9350   4.476   2.281   5.066 -0.2033 -0.0750  2.2062
   94SAPE  C310 9351   4.315   2.236   4.932  0.4589  0.2584  0.1308
   94SAPE  H10X 9352   4.302   2.344   4.906 -1.3537  0.3874  1.3671
   94SAPE  H10Y 9353   4.213   2.194   4.928  0.4736  0.2587 -0.2049
   94SAPE  C311 9354   4.410   2.177   4.829  0.0657  0.3705  0.4255
   94SAPE  H11X 9355   4.345   2.146   4.744 -0.7821  1.6585  0.5702
   94SAPE  H11Y 9356   4.454   2.083   4.866  0.1772  0.3358  0.2085
   94SAPE  C312 9357   4.516   2.273   4.782 -0.6433 -0.3861  0.8342
   94SAPE  H12X 9358   4.586   2.299   4.864  0.0803  1.4015 -0.3092
   94SAPE  H12Y 9359   4.463   2.365   4.749 -2.0190 -1.1272  0.8691
   94SAPE  C313 9360   4.603   2.207   4.683 -0.1140  0.4159 -0.5916
   94SAPE  H13X 9361   4.538   2.188   4.595 -1.3358  0.1942  0.3378
   94SAPE  H13Y 9362   4.623   2.100   4.705 -0.0539  0.9194  2.1970
   94SAPE  C314 9363   4.733   2.284   4.649  0.4208  0.2864 -0.4426
   94SAPE  H14X 9364   4.783   2.322   4.740  0.7131 -1.6315  0.2463
   94SAPE  H14Y 9365   4.696   2.372   4.592 -1.5594 -1.0068 -1.2583
   94SAPE  C315 9366   4.833   2.195   4.575  0.1659  0.3736 -0.1621
   94SAPE  H15X 9367   4.782   2.186   4.477  0.3965 -1.1334 -0.1651
   94SAPE  H15Y 9368   4.852   2.095   4.619 -0.0988  0.4102  0.0348
   94SAPE  C316 9369   4.970   2.264   4.557  0.2646 -0.4900 -0.1920
   94SAPE  H16X 9370   5.052   2.198   4.593  0.0142 -0.0122  1.3673
   94SAPE  H16Y 9371   4.978   2.361   4.612  0.7982  0.9452 -2.6348
   94SAPE  C317 9372   5.002   2.301   4.412 -0.0466  0.6522  0.0265
   94SAPE  H17X 9373   4.938   2.390   4.393 -1.3066 -0.4416 -1.0411
   94SAPE  H17Y 9374   4.964   2.223   4.342  0.1812  1.0148 -0.5137
   94SAPE  C318 9375   5.148   2.335   4.413  0.4656 -0.2366  0.2436
   94SAPE  H18X 9376   5.169   2.412   4.490 -0.4713  0.8964 -0.6084
   94SAPE  H18Y 9377   5.186   2.371   4.315 -1.7378  0.1662 -0.5176
   94SAPE  H18Z 9378   5.206   2.250   4.455  1.6304  1.0798  1.3944
   95SAPE     N 9379   6.575   6.791   6.744 -0.1167  0.4154  0.1558
   95SAPE   HN1 9380   6.572   6.695   6.783 -2.8177 -0.6451 -2.2281
   95SAPE   HN2 9381   6.675   6.802   6.720  0.3415 -2.4739  0.4593
   95SAPE   HN3 9382   6.550   6.854   6.823 -0.5023  1.2705 -0.6218
   95SAPE   C12 9383   6.480   6.828   6.634  1.0696  0.0741  0.0866
   95SAPE  H12A 9384   6.384   6.776   6.659  2.1708 -0.9914  2.3293
   95SAPE  H12B 9385   6.527   6.798   6.538  0.5788  2.5481 -1.0045
   95SAPE   C11 9386   6.466   6.980   6.633 -0.2969 -0.2803  0.0198
   95SAPE  H11A 9387   6.401   7.001   6.721  0.2599 -2.2032  0.9527
   95SAPE  H11B 9388   6.413   7.011   6.541 -2.6646  2.7015  2.1938
   95SAPE     P 9389   6.664   7.108   6.528  0.4686  0.0717  0.0280
   95SAPE   O13 9390   6.775   7.190   6.577 -0.2941  0.0949  0.0325
   95SAPE   O14 9391   6.686   6.990   6.442  0.2306 -0.5295 -0.0957
   95SAPE   O12 9392   6.583   7.060   6.652  0.5073  0.5662  0.0856
   95SAPE   O11 9393   6.567   7.217   6.463 -0.2706  0.4658 -0.5308
   95SAPE    C1 9394   6.491   7.183   6.343 -0.1012  0.1894  0.0892
   95SAPE    HA 9395   6.455   7.079   6.331  0.3143 -0.0635  0.9813
   95SAPE    HB 9396   6.397   7.237   6.368  0.5858  1.3358  0.2416
   95SAPE    C2 9397   6.515   7.253   6.205  0.1064  0.1491  0.1653
   95SAPE    HS 9398   6.578   7.188   6.142 -0.3251 -0.5367  0.4335
   95SAPE   O21 9399   6.579   7.379   6.230  0.2011 -0.0656  0.0636
   95SAPE   C21 9400   6.707   7.372   6.256  0.0674 -0.5527  0.1255
   95SAPE   O22 9401   6.780   7.279   6.218  0.0482 -0.5814  0.0804
   95SAPE   C22 9402   6.767   7.497   6.328 -0.3171  0.2518  0.0657
   95SAPE   H2R 9403   6.694   7.555   6.387 -0.8596 -0.3163 -0.0383
   95SAPE   H2S 9404   6.855   7.464   6.388  1.1014 -1.4623 -2.7529
   95SAPE    C3 9405   6.377   7.274   6.126 -0.6441 -0.2547 -0.1280
   95SAPE    HX 9406   6.400   7.347   6.045 -0.7732  1.3063  1.1805
   95SAPE    HY 9407   6.305   7.326   6.193 -1.4421 -1.0523 -0.3358
   95SAPE   O31 9408   6.317   7.156   6.096 -0.4026 -0.4565  0.2542
   95SAPE   C31 9409   6.354   7.106   5.982 -0.1312  0.0497  0.5134
   95SAPE   O32 9410   6.444   7.150   5.910 -0.6291  0.3299  0.8990
   95SAPE   C32 9411   6.283   6.972   5.954  0.6315 -0.3987 -0.0913
   95SAPE   H2X 9412   6.328   6.900   6.024 -1.4907 -1.0417  0.6878
   95SAPE   H2Y 9413   6.324   6.927   5.861 -1.4203 -0.7424 -0.8958
   95SAPE   C23 9414   6.829   7.597   6.228  0.1576  0.0578  0.0727
   95SAPE   H3R 9415   6.854   7.684   6.293 -0.5122 -1.1680  2.0849
   95SAPE   H3S 9416   6.748   7.618   6.155  0.0142  1.3546  0.5821
   95SAPE   C24 9417   6.953   7.545   6.163 -0.4125  0.1935 -0.2511
   95SAPE   H4R 9418   6.993   7.456   6.215  0.6644  2.3736  2.9572
   95SAPE   H4S 9419   7.036   7.619   6.168 -0.9345  0.9412 -1.8101
   95SAPE   C25 9420   6.920   7.498   6.026  0.1531 -0.4870  0.0678
   95SAPE   H5R 9421   6.877   7.397   6.017 -0.2445 -0.3361  0.2325
   95SAPE   C26 9422   6.944   7.557   5.910 -0.4251 -0.3195  0.2138
   95SAPE   H6R 9423   6.905   7.499   5.825 -0.0079 -4.0001  2.3269
   95SAPE   C27 9424   7.008   7.699   5.894  0.0607  0.1160  0.1378
   95SAPE   H7R 9425   7.015   7.749   5.993 -1.1303  0.4857  0.0488
   95SAPE   H7S 9426   6.946   7.759   5.824  1.1045  0.2518 -0.7024
   95SAPE   C28 9427   7.149   7.688   5.843  0.7029  0.1689 -0.3080
   95SAPE   H8R 9428   7.226   7.690   5.921  1.8649  0.9431 -1.4359
   95SAPE   C29 9429   7.191   7.694   5.716 -0.7346 -0.9126 -0.6110
   95SAPE   H9R 9430   7.300   7.695   5.701 -0.7294 -1.5944 -0.6606
   95SAPE  C210 9431   7.107   7.721   5.597  0.4896 -0.0995 -0.3633
   95SAPE  H10R 9432   7.174   7.715   5.509 -0.8379 -1.4548 -1.3481
   95SAPE  H10S 9433   7.073   7.825   5.615  1.8691 -0.0333  2.3497
   95SAPE  C211 9434   6.995   7.622   5.577 -0.6828 -0.4760  0.3341
   95SAPE  H11R 9435   7.002   7.538   5.647 -0.9862 -1.9968 -1.3792
   95SAPE  C212 9436   6.894   7.640   5.487 -0.2093  0.2121  0.0883
   95SAPE  H12R 9437   6.814   7.565   5.476 -0.3188  0.5138 -1.3337
   95SAPE  C213 9438   6.882   7.752   5.392 -0.1657 -0.6976 -0.1417
   95SAPE  H13R 9439   6.969   7.819   5.408 -0.8515 -0.3056  2.4253
   95SAPE  H13S 9440   6.787   7.808   5.406  0.8790  1.0300  0.3445
   95SAPE  C214 9441   6.887   7.710   5.246 -0.0045 -0.6583 -0.0241
   95SAPE  H14R 9442   6.834   7.617   5.221  1.9024 -1.3680 -1.7337
   95SAPE  C215 9443   6.956   7.771   5.144  0.3608 -0.6540  0.0932
   95SAPE  H15R 9444   6.951   7.739   5.039 -0.1693  1.3015 -0.5082
   95SAPE  C216 9445   7.031   7.896   5.159  0.2535  0.0307 -0.0376
   95SAPE  H16R 9446   6.997   7.953   5.248  1.3074  0.0890  0.3323
   95SAPE  H16S 9447   7.008   7.959   5.070  2.1837  0.6456 -0.1413
   95SAPE  C217 9448   7.180   7.865   5.181  0.0044 -0.2031  0.1269
   95SAPE  H17R 9449   7.200   7.804   5.271 -1.2031 -2.0792 -0.7999
   95SAPE  H17S 9450   7.227   7.965   5.191 -2.4260  1.0149  0.1523
   95SAPE  C218 9451   7.256   7.799   5.067  0.1088  0.1818  0.8894
   95SAPE  H18R 9452   7.209   7.702   5.038  2.9023 -1.4638  1.4863
   95SAPE  H18S 9453   7.360   7.766   5.085  0.0052 -0.7471 -0.0963
   95SAPE  C219 9454   7.262   7.886   4.945  0.1058 -0.7176  0.3435
   95SAPE  H19R 9455   7.271   7.995   4.965  2.5357 -0.5936 -1.0704
   95SAPE  H19S 9456   7.166   7.870   4.892  0.7304  1.3304 -1.5249
   95SAPE  C220 9457   7.371   7.835   4.851 -0.4768 -0.0240  0.3797
   95SAPE  H20R 9458   7.356   7.731   4.817  0.8043 -0.2834  0.5216
   95SAPE  H20S 9459   7.471   7.835   4.901  0.1835 -3.1256 -0.7409
   95SAPE  H20T 9460   7.381   7.902   4.763  2.0611  1.4856  1.6845
   95SAPE   C33 9461   6.125   6.975   5.954 -0.4909  1.0180 -0.0225
   95SAPE   H3X 9462   6.087   7.002   6.054  0.4764 -2.3283  1.3802
   95SAPE   H3Y 9463   6.094   6.869   5.944  0.9920  0.3145  2.1180
   95SAPE   C34 9464   6.071   7.068   5.844 -0.2313  0.1592  0.5375
   95SAPE   H4X 9465   6.101   7.173   5.865  0.1506 -0.0162  0.8946
   95SAPE   H4Y 9466   5.961   7.059   5.846 -0.3813  1.8936  1.3328
   95SAPE   C35 9467   6.114   7.019   5.701  0.0830 -0.9991  0.0250
   95SAPE   H5X 9468   6.123   6.909   5.685  3.8077 -1.5091  3.7932
   95SAPE   H5Y 9469   6.215   7.058   5.679  0.8238 -3.1298 -0.6085
   95SAPE   C36 9470   6.016   7.072   5.595 -0.3297 -1.1213 -0.8278
   95SAPE   H6X 9471   6.015   7.183   5.596  1.8429 -1.0428 -1.9464
   95SAPE   H6Y 9472   5.918   7.030   5.626 -0.3353 -1.1816 -0.9255
   95SAPE   C37 9473   6.048   7.017   5.453  0.0590 -0.0804 -0.8209
   95SAPE   H7X 9474   5.962   7.033   5.385  0.5757  3.6288 -0.8172
   95SAPE   H7Y 9475   6.053   6.907   5.469 -1.0077 -0.1510 -0.9079
   95SAPE   C38 9476   6.175   7.071   5.381 -0.1525 -0.1193 -0.3863
   95SAPE   H8X 9477   6.270   7.027   5.418  2.0707  4.1687 -0.3889
   95SAPE   H8Y 9478   6.180   7.182   5.380  0.9335 -0.1457 -1.7995
   95SAPE   C39 9479   6.171   7.032   5.230 -0.0009  0.5265  0.6192
   95SAPE   H9X 9480   6.073   7.068   5.191  1.0651  1.2592 -1.5552
   95SAPE   H9Y 9481   6.175   6.921   5.222  0.2358  0.5060  1.0357
   95SAPE  C310 9482   6.282   7.090   5.144  0.6513 -0.4070  0.4563
   95SAPE  H10X 9483   6.383   7.060   5.182  0.4282 -1.2023  0.4499
   95SAPE  H10Y 9484   6.277   7.200   5.153  0.3403 -0.5165  1.9440
   95SAPE  C311 9485   6.277   7.039   5.004  0.5103  0.2830 -0.5000
   95SAPE  H11X 9486   6.185   7.060   4.945  1.7313  0.1933 -2.5241
   95SAPE  H11Y 9487   6.292   6.929   4.997  2.1121  0.4978 -0.9262
   95SAPE  C312 9488   6.391   7.107   4.929 -0.5119 -0.0562  0.2701
   95SAPE  H12X 9489   6.469   7.120   5.007  0.1523  2.2029 -0.6607
   95SAPE  H12Y 9490   6.363   7.209   4.894 -0.3433 -1.0222 -3.0041
   95SAPE  C313 9491   6.429   7.023   4.803  0.0638 -0.0707 -0.0092
   95SAPE  H13X 9492   6.352   7.045   4.726 -1.2812  1.7080  1.7203
   95SAPE  H13Y 9493   6.424   6.916   4.833  0.7269 -0.4259 -1.1214
   95SAPE  C314 9494   6.571   7.038   4.759 -0.0602  0.9303 -0.8445
   95SAPE  H14X 9495   6.632   7.046   4.852 -1.5528  0.3708  0.2231
   95SAPE  H14Y 9496   6.587   7.126   4.694  0.7928  0.1539 -1.7049
   95SAPE  C315 9497   6.620   6.913   4.681 -0.2488 -0.3326  0.1459
   95SAPE  H15X 9498   6.612   6.809   4.720  0.1977 -0.6696 -0.6306
   95SAPE  H15Y 9499   6.732   6.913   4.680 -0.2225  0.5327  0.9973
   95SAPE  C316 9500   6.570   6.922   4.532  0.0213  0.0465  0.1689
   95SAPE  H16X 9501   6.584   7.028   4.503  2.7092 -0.0983  0.7278
   95SAPE  H16Y 9502   6.465   6.886   4.544 -0.5202  1.4194 -0.1999
   95SAPE  C317 9503   6.636   6.831   4.423 -0.1553  0.1496  0.0820
   95SAPE  H17X 9504   6.574   6.857   4.334 -0.2868  0.3089  0.2186
   95SAPE  H17Y 9505   6.626   6.723   4.445 -1.3499  0.0585 -0.7829
   95SAPE  C318 9506   6.784   6.874   4.389 -0.0527 -0.3685 -0.4453
   95SAPE  H18X 9507   6.856   6.823   4.456  1.7055 -0.7248 -2.4987
   95SAPE  H18Y 9508   6.799   6.984   4.391 -0.0886 -0.3709  0.1193
   95SAPE  H18Z 9509   6.819   6.849   4.287  0.5244  1.1410 -0.6461
   96SAPE     N 9510   6.248   3.426   6.232  0.3034 -0.1013  0.0681
   96SAPE   HN1 9511   6.196   3.338   6.211 -0.8213  0.4208  0.5827
   96SAPE   HN2 9512   6.323   3.447   6.163  1.5048 -0.0205  1.3589
   96SAPE   HN3 9513   6.299   3.420   6.322 -1.2044  1.5041  1.1022
   96SAPE   C12 9514   6.136   3.523   6.265 -0.2965 -0.2089 -0.0807
   96SAPE  H12A 9515   6.076   3.486   6.351  0.0822  1.3789  0.9146
   96SAPE  H12B 9516   6.091   3.545   6.166 -0.0661 -0.8027 -0.3222
   96SAPE   C11 9517   6.201   3.652   6.315  0.2332  0.5411 -0.5839
   96SAPE  H11A 9518   6.279   3.680   6.241 -0.1838  1.2025 -0.7818
   96SAPE  H11B 9519   6.250   3.621   6.410  0.3922 -1.3815 -1.2618
   96SAPE     P 9520   6.005   3.774   6.451  0.0734  0.1302  0.3097
   96SAPE   O13 9521   6.062   3.718   6.570 -0.2594  0.3082 -0.2889
   96SAPE   O14 9522   5.959   3.915   6.478 -0.1851 -0.2560  0.6868
   96SAPE   O12 9523   6.100   3.759   6.328 -0.3836  0.1622  0.0411
   96SAPE   O11 9524   5.873   3.686   6.415 -0.4560  0.3441 -0.6465
   96SAPE    C1 9525   5.767   3.745   6.347 -0.0235  0.2234 -0.4650
   96SAPE    HA 9526   5.676   3.703   6.394 -0.0827  2.1954  1.3181
   96SAPE    HB 9527   5.758   3.854   6.367  1.9064  1.0591 -3.3440
   96SAPE    C2 9528   5.755   3.737   6.193 -0.8966  0.9955 -0.1007
   96SAPE    HS 9529   5.787   3.633   6.169  1.7904  1.7355  0.0121
   96SAPE   O21 9530   5.854   3.821   6.134 -0.0655 -0.2921  0.0397
   96SAPE   C21 9531   5.936   3.774   6.047  0.4541  0.0435  0.1708
   96SAPE   O22 9532   5.940   3.664   5.993 -0.1871 -0.3945  0.4853
   96SAPE   C22 9533   6.029   3.888   6.002  0.4551  0.4731 -0.1975
   96SAPE   H2R 9534   6.107   3.891   6.080  3.4632  1.5638 -2.9872
   96SAPE   H2S 9535   6.078   3.868   5.904 -0.4129  1.1288 -0.7892
   96SAPE    C3 9536   5.619   3.769   6.146  0.1364  0.2425 -0.3825
   96SAPE    HX 9537   5.602   3.875   6.174 -2.7542 -0.4057  0.6373
   96SAPE    HY 9538   5.541   3.713   6.201 -1.2156  2.6805  0.3156
   96SAPE   O31 9539   5.610   3.759   6.007 -0.1272  0.3424  0.5576
   96SAPE   C31 9540   5.587   3.631   5.964 -0.0689  0.4169 -0.3882
   96SAPE   O32 9541   5.571   3.531   6.035  0.2480  0.1322 -0.4428
   96SAPE   C32 9542   5.589   3.625   5.814  0.1031 -0.3314 -0.0240
   96SAPE   H2X 9543   5.661   3.696   5.767 -1.4111  0.6907 -0.9076
   96SAPE   H2Y 9544   5.487   3.666   5.795 -1.1251 -2.7611  0.8861
   96SAPE   C23 9545   5.951   4.016   5.966  0.0540 -0.1377  0.5726
   96SAPE   H3R 9546   6.015   4.103   5.992  1.3649 -0.5061 -1.2320
   96SAPE   H3S 9547   5.858   4.034   6.025  0.0733 -1.2831  0.9823
   96SAPE   C24 9548   5.936   4.036   5.808  0.6366  0.0137  0.4333
   96SAPE   H4R 9549   6.039   4.039   5.767  1.8202  3.0459  3.2109
   96SAPE   H4S 9550   5.883   4.133   5.795 -1.1870 -1.0557 -0.7331
   96SAPE   C25 9551   5.840   3.940   5.744  0.4749  0.2941  0.2811
   96SAPE   H5R 9552   5.768   3.888   5.809  0.9258 -0.0157  0.5380
   96SAPE   C26 9553   5.825   3.923   5.607  0.6355 -1.4828 -0.5665
   96SAPE   H6R 9554   5.750   3.857   5.561 -2.9780  1.3509  0.6724
   96SAPE   C27 9555   5.895   4.006   5.505  0.6066 -0.4355  1.1698
   96SAPE   H7R 9556   5.985   4.052   5.550  0.4313  0.6312  0.4794
   96SAPE   H7S 9557   5.827   4.091   5.481 -0.1649 -1.5274 -0.7490
   96SAPE   C28 9558   5.942   3.925   5.383  0.5300 -0.8924 -0.4726
   96SAPE   H8R 9559   6.023   3.853   5.401  0.9094 -1.1228 -2.7986
   96SAPE   C29 9560   5.893   3.936   5.257 -0.4365  0.1558  1.1515
   96SAPE   H9R 9561   5.936   3.863   5.188 -0.6278  0.7273  0.4142
   96SAPE  C210 9562   5.784   4.022   5.208 -0.2733  0.8802 -0.2746
   96SAPE  H10R 9563   5.748   4.084   5.293 -0.5185  2.2815 -1.3683
   96SAPE  H10S 9564   5.702   3.951   5.183 -0.1222  0.2967  0.8202
   96SAPE  C211 9565   5.833   4.114   5.097  0.0085 -0.0854 -0.2353
   96SAPE  H11R 9566   5.844   4.217   5.132 -2.3045 -0.5520  2.2333
   96SAPE  C212 9567   5.890   4.072   4.979 -0.0423  0.0837 -0.2828
   96SAPE  H12R 9568   5.928   4.150   4.911  1.4297 -0.5135 -0.1956
   96SAPE  C213 9569   5.890   3.932   4.923 -0.3698  0.2071  0.1984
   96SAPE  H13R 9570   5.825   3.870   4.988 -1.8875  1.7497  0.2325
   96SAPE  H13S 9571   5.996   3.900   4.928 -0.0823  0.9144 -0.9350
   96SAPE  C214 9572   5.832   3.915   4.788  0.5836  0.2706  0.0589
   96SAPE  H14R 9573   5.725   3.886   4.791  0.4154  0.8791  0.0633
   96SAPE  C215 9574   5.892   3.931   4.669  0.0478 -0.5001 -1.1137
   96SAPE  H15R 9575   5.828   3.929   4.580 -0.0228 -1.7645 -1.0623
   96SAPE  C216 9576   6.033   3.993   4.653  0.5068  0.1004 -0.0685
   96SAPE  H16R 9577   6.078   3.938   4.567 -1.2783 -1.4507 -0.0871
   96SAPE  H16S 9578   6.097   3.965   4.739 -1.0678 -1.2579  0.7229
   96SAPE  C217 9579   6.021   4.146   4.625 -0.0940 -0.2500  0.5857
   96SAPE  H17R 9580   5.996   4.203   4.717  0.5678  0.2913  0.4358
   96SAPE  H17S 9581   5.939   4.172   4.554 -0.7157  2.8195  2.2399
   96SAPE  C218 9582   6.143   4.204   4.557 -0.6416 -1.1627  0.5027
   96SAPE  H18R 9583   6.231   4.170   4.616  0.1735 -3.4874 -1.8551
   96SAPE  H18S 9584   6.136   4.315   4.557 -2.7602 -1.2589  0.7061
   96SAPE  C219 9585   6.159   4.150   4.405 -0.0673 -0.6918 -0.9561
   96SAPE  H19R 9586   6.185   4.042   4.410 -1.6009 -1.2131 -3.0207
   96SAPE  H19S 9587   6.246   4.198   4.356  0.6950 -0.9682  0.0904
   96SAPE  C220 9588   6.042   4.182   4.316  0.1166  0.1397 -0.6572
   96SAPE  H20R 9589   6.065   4.154   4.211  0.4961 -0.7372 -0.3532
   96SAPE  H20S 9590   6.023   4.291   4.326 -0.6826  0.2274 -2.7294
   96SAPE  H20T 9591   5.954   4.125   4.352 -0.5370  0.9827 -0.9059
   96SAPE   C33 9592   5.593   3.480   5.757  0.2535  0.1408  0.3311
   96SAPE   H3X 9593   5.510   3.423   5.803  2.1731 -3.1388  0.0615
   96SAPE   H3Y 9594   5.691   3.429   5.768 -1.4826 -3.2999  1.2422
   96SAPE   C34 9595   5.569   3.486   5.602 -0.2022  0.3177 -0.5983
   96SAPE   H4X 9596   5.467   3.526   5.583 -0.9111  0.0241  2.1754
   96SAPE   H4Y 9597   5.571   3.387   5.551 -1.9025  0.4842 -1.0535
   96SAPE   C35 9598   5.675   3.558   5.508  0.3371 -1.1003  0.4889
   96SAPE   H5X 9599   5.762   3.489   5.516  0.7660 -0.6176  0.0439
   96SAPE   H5Y 9600   5.711   3.650   5.558  1.2918 -1.7448  1.0256
   96SAPE   C36 9601   5.629   3.589   5.367 -0.0212 -0.6652 -0.4489
   96SAPE   H6X 9602   5.704   3.645   5.307  0.0122 -2.1175 -1.7968
   96SAPE   H6Y 9603   5.535   3.647   5.374  0.8108  0.5484  3.0430
   96SAPE   C37 9604   5.614   3.457   5.290 -0.3714 -0.3687 -0.0830
   96SAPE   H7X 9605   5.522   3.401   5.316 -0.2220 -0.5744 -0.0010
   96SAPE   H7Y 9606   5.700   3.388   5.302  1.2866  1.3413 -1.4408
   96SAPE   C38 9607   5.618   3.486   5.139 -0.2822  0.7529 -0.4600
   96SAPE   H8X 9608   5.716   3.526   5.104  0.5342 -1.7825 -1.2512
   96SAPE   H8Y 9609   5.546   3.564   5.107 -1.1748 -0.3578 -1.2197
   96SAPE   C39 9610   5.573   3.362   5.058  1.1930  0.4621 -0.0088
   96SAPE   H9X 9611   5.462   3.362   5.066  1.1786 -0.1097 -0.1918
   96SAPE   H9Y 9612   5.614   3.268   5.101  1.5410  0.7915  0.3922
   96SAPE  C310 9613   5.629   3.370   4.919 -0.5498  0.3068  0.3787
   96SAPE  H10X 9614   5.610   3.282   4.853  0.3766  1.4197 -1.4690
   96SAPE  H10Y 9615   5.739   3.384   4.914 -0.3243 -1.5536 -2.8663
   96SAPE  C311 9616   5.577   3.493   4.838 -0.1083  0.4819  0.2162
   96SAPE  H11X 9617   5.575   3.585   4.901  0.5913  1.4205 -1.0891
   96SAPE  H11Y 9618   5.470   3.476   4.812  0.0591  0.3590 -0.4063
   96SAPE  C312 9619   5.659   3.521   4.713  0.3057 -0.0381  0.0538
   96SAPE  H12X 9620   5.647   3.436   4.643 -1.4187  0.6429 -0.5393
   96SAPE  H12Y 9621   5.762   3.527   4.753  0.4469 -0.1171 -0.2985
   96SAPE  C313 9622   5.616   3.647   4.632 -0.7961 -0.5145 -0.7600
   96SAPE  H13X 9623   5.618   3.731   4.705 -0.4598  0.1831 -1.5565
   96SAPE  H13Y 9624   5.511   3.636   4.597 -0.8596 -1.1413 -0.3958
   96SAPE  C314 9625   5.713   3.675   4.517 -0.2040 -0.4952 -0.0465
   96SAPE  H14X 9626   5.814   3.667   4.562  0.3954  2.5146 -0.6763
   96SAPE  H14Y 9627   5.700   3.778   4.478 -1.5213 -0.4521  0.4433
   96SAPE  C315 9628   5.705   3.575   4.400 -0.9275  0.0859 -0.2388
   96SAPE  H15X 9629   5.598   3.584   4.374 -0.9638  0.0740 -0.0942
   96SAPE  H15Y 9630   5.729   3.470   4.426  1.4278 -0.2553 -3.2235
   96SAPE  C316 9631   5.791   3.614   4.282 -0.1899 -0.7518 -1.0673
   96SAPE  H16X 9632   5.895   3.621   4.319 -0.1384  0.3839 -1.3828
   96SAPE  H16Y 9633   5.757   3.715   4.247 -0.7850 -1.3156 -2.1750
   96SAPE  C317 9634   5.785   3.533   4.151  0.3545  0.7819 -0.2346
   96SAPE  H17X 9635   5.863   3.454   4.157 -1.3593 -0.8507  2.2526
   96SAPE  H17Y 9636   5.819   3.600   4.069  1.4016 -0.4806 -0.8842
   96SAPE  C318 9637   5.657   3.463   4.127  0.1326 -0.5404 -0.0880
   96SAPE  H18X 9638   5.668   3.407   4.032 -0.0621 -2.9855  1.2504
   96SAPE  H18Y 9639   5.566   3.526   4.127  0.9014  0.6237 -1.0157
   96SAPE  H18Z 9640   5.643   3.381   4.201 -3.3167  1.8642  2.1777
   97SAPE     N 9641   4.510   3.171   6.880  0.2900  0.9663  0.6685
   97SAPE   HN1 9642   4.493   3.161   6.982  1.2503 -1.7628  0.6574
   97SAPE   HN2 9643   4.417   3.163   6.835  0.3943  1.0685  0.4349
   97SAPE   HN3 9644   4.561   3.088   6.844 -1.1137 -0.2241  1.3061
   97SAPE   C12 9645   4.562   3.303   6.843  0.3565 -0.0558  0.3069
   97SAPE  H12A 9646   4.665   3.311   6.883  0.9256 -1.2158 -0.8530
   97SAPE  H12B 9647   4.498   3.371   6.903 -2.2875 -0.7340 -1.5946
   97SAPE   C11 9648   4.551   3.329   6.693 -0.2124  1.1428  0.0231
   97SAPE  H11A 9649   4.479   3.259   6.645  1.0242 -2.3705  2.7918
   97SAPE  H11B 9650   4.649   3.283   6.665 -0.9426 -2.0430  2.1214
   97SAPE     P 9651   4.481   3.545   6.542  0.5814 -0.3341  0.1215
   97SAPE   O13 9652   4.337   3.571   6.566 -0.0879 -0.4239 -0.1138
   97SAPE   O14 9653   4.558   3.665   6.516 -0.8211 -0.9160  0.3769
   97SAPE   O12 9654   4.544   3.470   6.664  0.1192  0.0638  0.1694
   97SAPE   O11 9655   4.499   3.440   6.422 -0.0330  0.1609 -0.4335
   97SAPE    C1 9656   4.632   3.415   6.366  0.3366  0.0124 -0.7923
   97SAPE    HA 9657   4.709   3.405   6.445  0.8261 -3.1295 -1.5226
   97SAPE    HB 9658   4.636   3.317   6.313  0.7734 -0.3864 -0.0280
   97SAPE    C2 9659   4.678   3.504   6.257 -0.0077 -0.6034 -0.4860
   97SAPE    HS 9660   4.689   3.609   6.291 -0.2503 -0.0490 -2.0259
   97SAPE   O21 9661   4.582   3.504   6.152 -0.3229  0.6307  0.6652
   97SAPE   C21 9662   4.571   3.617   6.087 -0.1222 -0.1619 -0.8792
   97SAPE   O22 9663   4.621   3.724   6.118 -0.2705 -0.2020  0.2847
   97SAPE   C22 9664   4.490   3.583   5.967  0.1414  0.3343  0.3163
   97SAPE   H2R 9665   4.550   3.511   5.908 -0.2358 -0.4938  0.9270
   97SAPE   H2S 9666   4.396   3.536   6.002 -0.4902  1.8924  0.8304
   97SAPE    C3 9667   4.826   3.470   6.201  1.1822 -1.0711 -0.7139
   97SAPE    HX 9668   4.909   3.466   6.276  1.5825 -0.1862 -1.1025
   97SAPE    HY 9669   4.856   3.560   6.144 -2.4849 -0.0201 -1.2265
   97SAPE   O31 9670   4.828   3.343   6.135 -0.2050 -0.2351  0.0248
   97SAPE   C31 9671   4.799   3.328   6.005  0.2046 -0.6347 -0.7596
   97SAPE   O32 9672   4.784   3.417   5.922  0.1944  0.4459 -0.1736
   97SAPE   C32 9673   4.803   3.182   5.969  0.2204  0.0355 -0.1455
   97SAPE   H2X 9674   4.732   3.119   6.027 -0.5171  0.3334 -0.7062
   97SAPE   H2Y 9675   4.907   3.156   5.996  0.0996  0.1188  0.4317
   97SAPE   C23 9676   4.462   3.716   5.889 -0.1107 -0.3193 -0.1444
   97SAPE   H3R 9677   4.553   3.776   5.868 -1.2007  1.0767 -1.0230
   97SAPE   H3S 9678   4.410   3.786   5.958  2.5099  0.1930  1.4501
   97SAPE   C24 9679   4.383   3.694   5.762  0.0834 -0.3804  0.3742
   97SAPE   H4R 9680   4.362   3.791   5.712  2.0516  0.6753  1.4551
   97SAPE   H4S 9681   4.285   3.661   5.802  0.1067 -1.7354 -0.6156
   97SAPE   C25 9682   4.440   3.594   5.661  0.4537  0.9656  0.5500
   97SAPE   H5R 9683   4.528   3.536   5.691 -0.7464 -0.5180  1.3263
   97SAPE   C26 9684   4.401   3.575   5.535 -0.9488  0.3977 -0.6566
   97SAPE   H6R 9685   4.455   3.508   5.467 -2.8754 -0.0224 -1.8647
   97SAPE   C27 9686   4.286   3.658   5.482 -0.7791  0.1213  0.3088
   97SAPE   H7R 9687   4.313   3.760   5.448 -2.1140  0.5301  0.4152
   97SAPE   H7S 9688   4.203   3.683   5.551 -1.1598 -1.0690  0.3170
   97SAPE   C28 9689   4.220   3.577   5.373 -0.4098  0.1898 -1.2483
   97SAPE   H8R 9690   4.156   3.495   5.408 -1.1788  0.3554 -2.2012
   97SAPE   C29 9691   4.231   3.596   5.243  0.4553  0.0627 -0.3665
   97SAPE   H9R 9692   4.160   3.547   5.175 -0.2287  3.4742 -2.3485
   97SAPE  C210 9693   4.305   3.715   5.185 -0.0551  0.1087  0.5763
   97SAPE  H10R 9694   4.321   3.692   5.077 -1.3115  1.8216 -0.0309
   97SAPE  H10S 9695   4.406   3.727   5.231  0.2337  2.1623 -0.4294
   97SAPE  C211 9696   4.226   3.842   5.192  0.2777 -0.5866  1.2687
   97SAPE  H11R 9697   4.209   3.895   5.287  0.2405  0.1712  0.8479
   97SAPE  C212 9698   4.192   3.908   5.079 -0.7212  0.2495 -0.3754
   97SAPE  H12R 9699   4.160   4.012   5.093  2.4956  1.1835  0.8340
   97SAPE  C213 9700   4.190   3.865   4.931 -1.0739  0.0195  0.1487
   97SAPE  H13R 9701   4.126   3.932   4.870 -0.3400  0.0090 -0.6529
   97SAPE  H13S 9702   4.148   3.764   4.909 -1.1903  0.4145 -1.5232
   97SAPE  C214 9703   4.335   3.869   4.873  0.3581 -0.3273 -0.0361
   97SAPE  H14R 9704   4.411   3.836   4.945 -0.4821  0.0968  1.0706
   97SAPE  C215 9705   4.381   3.881   4.750  0.3773  0.2483 -0.3592
   97SAPE  H15R 9706   4.486   3.884   4.717  0.3333  0.9534 -0.4554
   97SAPE  C216 9707   4.277   3.904   4.645 -0.3961 -0.4971  0.0007
   97SAPE  H16R 9708   4.247   4.009   4.622  3.0099  0.4086 -0.9130
   97SAPE  H16S 9709   4.177   3.858   4.658 -2.5137  3.1182 -1.6513
   97SAPE  C217 9710   4.335   3.856   4.511  0.3772 -0.5902 -0.3493
   97SAPE  H17R 9711   4.347   3.746   4.525  0.6000 -0.2911  2.3897
   97SAPE  H17S 9712   4.430   3.907   4.482 -0.6998  1.5768 -0.2496
   97SAPE  C218 9713   4.247   3.896   4.389 -0.0571 -0.3910  0.3160
   97SAPE  H18R 9714   4.251   4.007   4.379 -0.1131 -0.2232  1.9067
   97SAPE  H18S 9715   4.142   3.863   4.408  0.6531 -2.3592  1.0834
   97SAPE  C219 9716   4.279   3.823   4.260 -0.2072  0.5660 -0.0125
   97SAPE  H19R 9717   4.235   3.875   4.172 -1.0056  0.4307  0.2990
   97SAPE  H19S 9718   4.243   3.719   4.277  0.4335  0.5286  1.2119
   97SAPE  C220 9719   4.432   3.801   4.247  0.9483 -0.8381 -0.2816
   97SAPE  H20R 9720   4.450   3.752   4.149 -0.6998 -0.8536 -0.6007
   97SAPE  H20S 9721   4.469   3.729   4.323  1.9807 -0.5931 -0.5312
   97SAPE  H20T 9722   4.497   3.891   4.239  2.0420 -1.6914 -1.4553
   97SAPE   C33 9723   4.767   3.157   5.823 -0.1407  0.4891  0.3797
   97SAPE   H3X 9724   4.771   3.046   5.811 -0.8435  0.6344 -1.6481
   97SAPE   H3Y 9725   4.829   3.213   5.749 -1.5731  1.0881 -0.4003
   97SAPE   C34 9726   4.629   3.192   5.792  0.5710  0.2248 -0.6040
   97SAPE   H4X 9727   4.619   3.299   5.764 -0.9799  0.1719 -0.3320
   97SAPE   H4Y 9728   4.567   3.179   5.884  2.4335  2.0734  1.0213
   97SAPE   C35 9729   4.556   3.110   5.680 -0.2270  0.0940  0.1907
   97SAPE   H5X 9730   4.456   3.157   5.666  0.3736  1.6362  0.8783
   97SAPE   H5Y 9731   4.550   3.001   5.699  1.2542  0.1454  1.1222
   97SAPE   C36 9732   4.617   3.128   5.544 -0.0083  0.1855  0.2777
   97SAPE   H6X 9733   4.703   3.059   5.528  1.1126  1.3027  1.2960
   97SAPE   H6Y 9734   4.647   3.235   5.543  0.2593  0.1157 -0.6447
   97SAPE   C37 9735   4.510   3.110   5.435 -0.3068  0.3714  0.4617
   97SAPE   H7X 9736   4.546   3.130   5.332 -1.7535  1.7070  0.1821
   97SAPE   H7Y 9737   4.435   3.192   5.439 -0.1508  0.5139  0.4695
   97SAPE   C38 9738   4.441   2.973   5.427  0.8991 -0.8282  0.1312
   97SAPE   H8X 9739   4.355   2.971   5.355  0.0845  1.1677  0.9721
   97SAPE   H8Y 9740   4.395   2.951   5.525  2.4924 -0.8999  0.8855
   97SAPE   C39 9741   4.537   2.863   5.387 -0.6801 -0.2247  0.6031
   97SAPE   H9X 9742   4.488   2.765   5.406 -1.1672 -0.3672 -1.2093
   97SAPE   H9Y 9743   4.630   2.866   5.447  0.8088 -1.4255 -1.5270
   97SAPE  C310 9744   4.571   2.861   5.235  0.0798  1.3646  0.2491
   97SAPE  H10X 9745   4.625   2.765   5.219 -2.5000 -0.7214  2.8782
   97SAPE  H10Y 9746   4.637   2.950   5.229 -0.1189  1.4810 -0.2548
   97SAPE  C311 9747   4.461   2.865   5.132  0.2272  0.1660  0.1903
   97SAPE  H11X 9748   4.400   2.957   5.145 -0.6900 -0.3723 -0.2224
   97SAPE  H11Y 9749   4.400   2.772   5.130  3.8722 -2.3944 -1.0936
   97SAPE  C312 9750   4.522   2.877   4.987 -0.3754 -0.0018  0.7751
   97SAPE  H12X 9751   4.583   2.967   4.961  1.6558 -1.5078  0.0941
   97SAPE  H12Y 9752   4.434   2.867   4.920  1.2652 -2.5124 -1.1596
   97SAPE  C313 9753   4.609   2.755   4.952 -0.2308  0.0008 -0.0697
   97SAPE  H13X 9754   4.599   2.739   4.842  1.0430 -0.3411 -0.1421
   97SAPE  H13Y 9755   4.584   2.660   5.004  0.9844  0.5886  1.6916
   97SAPE  C314 9756   4.764   2.766   4.968  0.0998 -0.6928 -0.5995
   97SAPE  H14X 9757   4.797   2.780   5.073 -1.2246 -0.5280 -0.1843
   97SAPE  H14Y 9758   4.809   2.856   4.921  1.1363  0.1146  1.8215
   97SAPE  C315 9759   4.836   2.655   4.896  0.0133 -0.4458 -0.5730
   97SAPE  H15X 9760   4.808   2.662   4.788 -3.6237 -2.4273  0.0590
   97SAPE  H15Y 9761   4.790   2.557   4.923 -1.6773 -0.1209 -2.0360
   97SAPE  C316 9762   4.986   2.640   4.925 -0.2712  0.3996 -0.1157
   97SAPE  H16X 9763   4.993   2.627   5.035 -0.3986  2.0701  0.1278
   97SAPE  H16Y 9764   5.044   2.731   4.897  0.8498 -0.2780 -0.0511
   97SAPE  C317 9765   5.044   2.522   4.839  0.6902  0.1133 -0.5151
   97SAPE  H17X 9766   5.018   2.531   4.731 -2.5853 -0.2929  0.1239
   97SAPE  H17Y 9767   4.998   2.429   4.878 -0.6592  0.0918 -2.0679
   97SAPE  C318 9768   5.196   2.528   4.826 -0.0420  0.2045  0.2659
   97SAPE  H18X 9769   5.221   2.445   4.757 -0.3587 -0.8675  1.3987
   97SAPE  H18Y 9770   5.252   2.506   4.920 -0.8153  1.7469  1.1253
   97SAPE  H18Z 9771   5.240   2.624   4.791 -0.4611  0.0136 -0.8120
   98SAPE     N 9772   2.029   4.119   6.852  0.4857  0.7378 -0.4457
   98SAPE   HN1 9773   2.065   4.065   6.934  2.4166  0.9599 -1.1080
   98SAPE   HN2 9774   2.094   4.106   6.772 -0.9012  0.9905 -1.6614
   98SAPE   HN3 9775   2.025   4.219   6.878  0.8604  1.6205 -3.4521
   98SAPE   C12 9776   1.899   4.062   6.798  0.2864  0.1344  0.0901
   98SAPE  H12A 9777   1.823   4.057   6.879 -1.0994 -2.2771 -1.2422
   98SAPE  H12B 9778   1.925   3.963   6.754  1.0023  0.1978  0.3660
   98SAPE   C11 9779   1.850   4.145   6.677 -0.1516 -0.3314 -0.2000
   98SAPE  H11A 9780   1.758   4.098   6.637  0.2701 -0.2141 -1.3370
   98SAPE  H11B 9781   1.925   4.126   6.597  0.6231  2.2991 -0.1762
   98SAPE     P 9782   1.711   4.360   6.736 -0.1171 -0.2665  0.3970
   98SAPE   O13 9783   1.657   4.327   6.871 -0.6689 -0.2140 -0.5548
   98SAPE   O14 9784   1.746   4.501   6.706 -0.2629  0.1943 -0.2950
   98SAPE   O12 9785   1.843   4.283   6.711 -0.0153  0.4465 -0.0439
   98SAPE   O11 9786   1.611   4.290   6.628  0.3525 -0.3724 -0.5416
   98SAPE    C1 9787   1.540   4.371   6.529 -0.1330 -0.1440  0.1119
   98SAPE    HA 9788   1.474   4.443   6.581 -0.0309 -0.3533  0.5426
   98SAPE    HB 9789   1.622   4.416   6.469  1.5690 -3.3736 -0.2207
   98SAPE    C2 9790   1.464   4.271   6.447 -0.2965  0.2716  0.2337
   98SAPE    HS 9791   1.397   4.204   6.505 -1.2115  2.5764  1.9526
   98SAPE   O21 9792   1.561   4.195   6.366  0.0028  0.3762  0.2031
   98SAPE   C21 9793   1.529   4.069   6.355  0.2946  0.2954 -0.2205
   98SAPE   O22 9794   1.429   4.012   6.389 -0.3746  0.6479 -0.3966
   98SAPE   C22 9795   1.642   3.997   6.273  0.2426  0.1050  0.2504
   98SAPE   H2R 9796   1.715   3.968   6.352 -0.6296 -1.2070  0.5988
   98SAPE   H2S 9797   1.607   3.896   6.243  0.1972 -0.6651  2.6318
   98SAPE    C3 9798   1.365   4.346   6.359 -0.4960 -0.5825 -0.4444
   98SAPE    HX 9799   1.420   4.432   6.317 -0.5236  0.6007  1.7906
   98SAPE    HY 9800   1.284   4.404   6.409  1.7559  0.6901  1.9589
   98SAPE   O31 9801   1.311   4.274   6.246 -0.0458 -0.4225 -0.6867
   98SAPE   C31 9802   1.212   4.200   6.276  0.5225 -0.0729 -0.3611
   98SAPE   O32 9803   1.147   4.215   6.376  0.4556  0.4427 -0.2594
   98SAPE   C32 9804   1.185   4.102   6.158  0.1363  0.0448 -0.1050
   98SAPE   H2X 9805   1.090   4.046   6.174  0.5415 -0.3152  1.1856
   98SAPE   H2Y 9806   1.262   4.023   6.155  0.9377  0.8330 -2.5741
   98SAPE   C23 9807   1.706   4.068   6.158 -0.6787  0.7851 -0.0339
   98SAPE   H3R 9808   1.794   4.007   6.128 -1.5065 -0.2066 -0.5094
   98SAPE   H3S 9809   1.759   4.158   6.195 -0.7159  0.3364  1.1521
   98SAPE   C24 9810   1.620   4.104   6.048 -0.2780 -0.5890  0.5329
   98SAPE   H4R 9811   1.659   4.177   5.973  1.6087 -0.9347  1.1144
   98SAPE   H4S 9812   1.527   4.152   6.085  0.1899  0.3952  0.4746
   98SAPE   C25 9813   1.578   3.983   5.975  0.1198 -0.0069 -0.1165
   98SAPE   H5R 9814   1.581   3.891   6.036  0.9361  0.3494  0.3901
   98SAPE   C26 9815   1.528   3.966   5.849 -0.3535  0.1397  0.3235
   98SAPE   H6R 9816   1.508   3.864   5.812 -0.0856  0.0627  0.3883
   98SAPE   C27 9817   1.519   4.075   5.749  0.1534 -0.4319 -0.1516
   98SAPE   H7R 9818   1.604   4.146   5.760 -1.6297  1.5963  1.6244
   98SAPE   H7S 9819   1.434   4.142   5.777 -1.2424 -2.5202  0.8688
   98SAPE   C28 9820   1.486   4.038   5.603 -0.5283  0.1927 -0.3819
   98SAPE   H8R 9821   1.420   4.112   5.554 -1.9186 -0.1384  0.9147
   98SAPE   C29 9822   1.536   3.933   5.526 -0.0280  0.3196 -0.4878
   98SAPE   H9R 9823   1.511   3.931   5.419 -0.1992 -1.8056 -0.4504
   98SAPE  C210 9824   1.633   3.832   5.577  0.0864  0.4909 -0.2609
   98SAPE  H10R 9825   1.572   3.753   5.627  1.5107 -0.1451  0.5659
   98SAPE  H10S 9826   1.691   3.874   5.662  0.0380 -0.4915  0.2759
   98SAPE  C211 9827   1.732   3.781   5.481 -0.0329 -0.1985  0.6688
   98SAPE  H11R 9828   1.832   3.823   5.500 -0.3137 -0.2226  2.3370
   98SAPE  C212 9829   1.713   3.690   5.377 -0.1435 -0.0441  0.1298
   98SAPE  H12R 9830   1.796   3.672   5.307  0.3180  1.8871  0.1155
   98SAPE  C213 9831   1.581   3.629   5.335 -0.2026  0.4563 -0.4632
   98SAPE  H13R 9832   1.500   3.669   5.399  1.0107  2.4904 -0.1235
   98SAPE  H13S 9833   1.592   3.525   5.372 -0.1712  0.4117 -0.5967
   98SAPE  C214 9834   1.521   3.634   5.193 -0.4941 -0.3324 -0.7678
   98SAPE  H14R 9835   1.545   3.725   5.136 -2.2698 -0.0618 -1.1656
   98SAPE  C215 9836   1.435   3.541   5.136  0.3791 -1.1159 -1.0332
   98SAPE  H15R 9837   1.395   3.566   5.037  0.2123  0.4623 -0.5895
   98SAPE  C216 9838   1.391   3.416   5.208 -0.0095 -0.3315  0.4686
   98SAPE  H16R 9839   1.459   3.388   5.291 -0.6815 -0.3346  1.0190
   98SAPE  H16S 9840   1.406   3.336   5.132  4.5903  0.4222  0.3237
   98SAPE  C217 9841   1.255   3.421   5.267 -0.5929 -0.2473  0.0205
   98SAPE  H17R 9842   1.187   3.463   5.190  0.3942  0.1782 -0.6462
   98SAPE  H17S 9843   1.251   3.487   5.357 -0.0180  1.1111 -0.9093
   98SAPE  C218 9844   1.194   3.281   5.288 -0.2299  0.5389 -0.6069
   98SAPE  H18R 9845   1.172   3.241   5.187 -0.6314 -2.7462  0.6579
   98SAPE  H18S 9846   1.089   3.290   5.324  0.0092  1.2455 -0.0453
   98SAPE  C219 9847   1.264   3.184   5.381 -0.4565 -0.2017 -0.2482
   98SAPE  H19R 9848   1.266   3.238   5.478 -0.6155  0.9758 -0.8741
   98SAPE  H19S 9849   1.367   3.162   5.345 -0.5773  0.4641 -1.0464
   98SAPE  C220 9850   1.200   3.047   5.404  0.8820 -0.3827  0.3708
   98SAPE  H20R 9851   1.159   2.996   5.314  0.2806 -0.7341  0.8373
   98SAPE  H20S 9852   1.115   3.073   5.471 -0.8304  0.9923 -2.1712
   98SAPE  H20T 9853   1.262   2.973   5.459 -0.7613 -1.1275  1.3102
   98SAPE   C33 9854   1.172   4.169   6.018 -0.0963  0.3262  0.0483
   98SAPE   H3X 9855   1.272   4.213   5.998 -0.1608  0.2473 -0.4529
   98SAPE   H3Y 9856   1.094   4.247   6.030  2.1843  2.5028  1.9648
   98SAPE   C34 9857   1.132   4.074   5.897  0.3450 -0.1974  0.0649
   98SAPE   H4X 9858   1.033   4.035   5.928 -0.8734  2.7180  0.1131
   98SAPE   H4Y 9859   1.208   3.993   5.907 -0.5919 -1.0289  0.6177
   98SAPE   C35 9860   1.141   4.129   5.752  0.3573 -0.0123  0.0208
   98SAPE   H5X 9861   1.190   4.053   5.688  2.6071 -0.1479  1.7745
   98SAPE   H5Y 9862   1.215   4.210   5.761 -0.2521  0.8629 -2.3485
   98SAPE   C36 9863   1.011   4.187   5.697 -0.3060 -0.5289 -0.7782
   98SAPE   H6X 9864   0.965   4.250   5.776 -2.6040 -0.4429 -2.0858
   98SAPE   H6Y 9865   0.941   4.101   5.683 -0.2452 -0.6624 -0.2903
   98SAPE   C37 9866   1.037   4.270   5.573  0.7053  0.3167  0.9953
   98SAPE   H7X 9867   1.105   4.357   5.581 -0.2623  1.0424  1.5040
   98SAPE   H7Y 9868   0.937   4.304   5.538  1.1910  0.4181 -0.3285
   98SAPE   C38 9869   1.093   4.179   5.455  0.3854 -0.0793  0.4379
   98SAPE   H8X 9870   1.022   4.098   5.427  1.0100 -0.4683 -0.0531
   98SAPE   H8Y 9871   1.185   4.128   5.490  1.6214  2.2676  0.8074
   98SAPE   C39 9872   1.122   4.269   5.338 -0.4183 -0.3927  0.3100
   98SAPE   H9X 9873   1.167   4.365   5.371  0.0073  0.5961 -2.8439
   98SAPE   H9Y 9874   1.028   4.291   5.283  0.3832  1.4187 -0.3984
   98SAPE  C310 9875   1.223   4.193   5.240  0.0187 -0.3250 -0.3145
   98SAPE  H10X 9876   1.315   4.172   5.298 -0.6272  0.6218  1.1170
   98SAPE  H10Y 9877   1.253   4.259   5.156  0.3176  0.0699  0.1002
   98SAPE  C311 9878   1.166   4.067   5.184  0.0014  0.0073 -0.6366
   98SAPE  H11X 9879   1.077   4.088   5.121 -0.8996 -0.8512  0.3286
   98SAPE  H11Y 9880   1.141   4.001   5.269  0.2431  2.2603  1.2838
   98SAPE  C312 9881   1.279   3.997   5.102  0.7477  0.3557  0.4200
   98SAPE  H12X 9882   1.362   3.971   5.172  2.5388 -0.6676 -1.9425
   98SAPE  H12Y 9883   1.333   4.072   5.041  2.4843 -1.0990  0.0623
   98SAPE  C313 9884   1.227   3.880   5.023 -0.6062 -0.5111  0.1676
   98SAPE  H13X 9885   1.117   3.888   5.017 -0.5184  0.3529 -0.4973
   98SAPE  H13Y 9886   1.263   3.792   5.081  1.8449  1.3038  1.5659
   98SAPE  C314 9887   1.292   3.876   4.888  0.4001 -0.0936  0.1884
   98SAPE  H14X 9888   1.400   3.851   4.895  0.3793  0.3011  3.9869
   98SAPE  H14Y 9889   1.286   3.983   4.856  3.6589 -0.2298 -1.1998
   98SAPE  C315 9890   1.236   3.779   4.784 -0.2085  0.4285 -0.4697
   98SAPE  H15X 9891   1.284   3.794   4.685  0.8972 -2.4853 -0.4536
   98SAPE  H15Y 9892   1.127   3.793   4.767  0.0638  1.0036 -1.9090
   98SAPE  C316 9893   1.259   3.634   4.832  0.1789  0.4928 -0.3198
   98SAPE  H16X 9894   1.230   3.625   4.939  2.3937  1.5088  0.4286
   98SAPE  H16Y 9895   1.367   3.611   4.838 -0.2294 -1.7417 -0.7938
   98SAPE  C317 9896   1.184   3.539   4.742 -0.6649 -0.3391 -0.3700
   98SAPE  H17X 9897   1.084   3.584   4.724 -2.2804 -3.1611  0.9156
   98SAPE  H17Y 9898   1.164   3.441   4.789 -0.3638 -0.1667  0.1179
   98SAPE  C318 9899   1.264   3.511   4.614 -0.0879 -0.0832 -0.6101
   98SAPE  H18X 9900   1.350   3.449   4.645 -1.0804 -1.4166 -0.4102
   98SAPE  H18Y 9901   1.307   3.600   4.564  1.3900 -0.5859 -0.2984
   98SAPE  H18Z 9902   1.201   3.460   4.538 -0.2258 -0.3650 -0.3091
   99SAPE     N 9903   0.152   4.108   6.400  0.1544  0.2342 -0.7329
   99SAPE   HN1 9904   0.048   4.103   6.410  0.2747  0.6139  0.8922
   99SAPE   HN2 9905   0.191   4.037   6.464 -2.4566 -0.8512 -0.2347
   99SAPE   HN3 9906   0.171   4.208   6.421  1.1283 -0.2079  0.6247
   99SAPE   C12 9907   0.177   4.077   6.264  0.6110 -0.0773 -0.6649
   99SAPE  H12A 9908   0.267   4.014   6.273 -0.9488 -2.2552  0.7010
   99SAPE  H12B 9909   0.182   4.173   6.207 -0.5376  0.1524 -0.4217
   99SAPE   C11 9910   0.073   3.980   6.214 -0.1630 -0.2561 -0.1170
   99SAPE  H11A 9911   0.061   3.896   6.286 -1.3037  0.5804  0.7028
   99SAPE  H11B 9912   0.108   3.922   6.126  0.9517 -3.0462  1.9828
   99SAPE     P 9913  -0.169   4.051   6.272 -0.1027 -0.6671  0.0162
   99SAPE   O13 9914  -0.128   4.073   6.416  0.0293  0.3543  0.3454
   99SAPE   O14 9915  -0.276   4.137   6.223  0.3046 -0.3052 -0.6809
   99SAPE   O12 9916  -0.040   4.064   6.186 -0.3250  0.3960  0.1640
   99SAPE   O11 9917  -0.214   3.903   6.245 -0.8768  0.4856 -0.0356
   99SAPE    C1 9918  -0.235   3.860   6.110 -0.4648  0.2360 -0.1536
   99SAPE    HA 9919  -0.273   3.943   6.046  2.0358  0.1499 -1.9308
   99SAPE    HB 9920  -0.136   3.837   6.065 -0.8827 -1.7911 -0.1301
   99SAPE    C2 9921  -0.318   3.731   6.096 -0.0703  0.7382 -0.4341
   99SAPE    HS 9922  -0.425   3.748   6.123  0.2571  1.0873  0.7181
   99SAPE   O21 9923  -0.247   3.626   6.173 -0.3520  0.1636 -0.1262
   99SAPE   C21 9924  -0.326   3.517   6.197 -0.1322 -0.5014 -0.2161
   99SAPE   O22 9925  -0.432   3.507   6.140  0.6609  0.6710  0.0571
   99SAPE   C22 9926  -0.243   3.399   6.269 -0.3450 -0.1787  0.9664
   99SAPE   H2R 9927  -0.234   3.427   6.376  3.3262  0.5651  0.6037
   99SAPE   H2S 9928  -0.298   3.304   6.257  0.5996 -0.7187  0.8089
   99SAPE    C3 9929  -0.314   3.695   5.942  0.0414  0.2824 -0.0862
   99SAPE    HX 9930  -0.338   3.587   5.926  1.0092 -0.2844  1.9304
   99SAPE    HY 9931  -0.206   3.713   5.930  0.0244  0.8382  0.5265
   99SAPE   O31 9932  -0.386   3.789   5.860 -0.3442  0.3247  0.0500
   99SAPE   C31 9933  -0.507   3.750   5.821 -0.4326  0.1100  0.2833
   99SAPE   O32 9934  -0.554   3.641   5.849  0.0003 -0.4838 -0.3726
   99SAPE   C32 9935  -0.582   3.859   5.751  0.0165 -0.4458  0.6965
   99SAPE   H2X 9936  -0.588   3.944   5.822 -0.3987  0.0462  0.0858
   99SAPE   H2Y 9937  -0.684   3.823   5.726 -0.0059  0.0025  0.0980
   99SAPE   C23 9938  -0.097   3.388   6.218 -0.1656 -0.9010  0.1239
   99SAPE   H3R 9939  -0.046   3.322   6.292  0.0085 -0.0383  0.8054
   99SAPE   H3S 9940  -0.046   3.484   6.242 -2.5041  0.9134 -1.6726
   99SAPE   C24 9941  -0.086   3.349   6.071 -0.1865 -0.1566 -0.6355
   99SAPE   H4R 9942   0.023   3.339   6.055 -0.6126 -0.7855 -3.5721
   99SAPE   H4S 9943  -0.122   3.433   6.007 -0.2030  0.3223 -0.0118
   99SAPE   C25 9944  -0.143   3.212   6.031 -0.3556 -0.3271 -0.1344
   99SAPE   H5R 9945  -0.166   3.146   6.116 -0.2783 -0.2762 -0.0741
   99SAPE   C26 9946  -0.188   3.178   5.910 -0.5033 -0.2852 -0.2202
   99SAPE   H6R 9947  -0.234   3.079   5.897 -1.0589 -0.3092  1.6987
   99SAPE   C27 9948  -0.173   3.269   5.794 -0.1226 -0.3317 -0.0316
   99SAPE   H7R 9949  -0.068   3.305   5.781 -0.6617  0.6160 -2.3437
   99SAPE   H7S 9950  -0.235   3.361   5.794  1.1054  0.5329 -0.8681
   99SAPE   C28 9951  -0.194   3.186   5.665  0.5412 -0.2435 -0.4867
   99SAPE   H8R 9952  -0.142   3.090   5.657  1.0435  0.0587 -0.9602
   99SAPE   C29 9953  -0.265   3.228   5.561  0.2722 -0.0505 -0.2837
   99SAPE   H9R 9954  -0.286   3.155   5.481 -0.6291 -0.3511  0.2115
   99SAPE  C210 9955  -0.338   3.359   5.547  0.1660  0.4016  0.1772
   99SAPE  H10R 9956  -0.375   3.364   5.443 -1.7489 -1.4031  0.7080
   99SAPE  H10S 9957  -0.261   3.438   5.557  0.2804  0.3457 -0.2611
   99SAPE  C211 9958  -0.456   3.375   5.642 -0.3216 -0.2516 -0.0240
   99SAPE  H11R 9959  -0.430   3.375   5.749  1.1709 -0.2665 -0.3524
   99SAPE  C212 9960  -0.587   3.378   5.613 -0.7475  0.5367 -0.2116
   99SAPE  H12R 9961  -0.649   3.393   5.703  0.9692  2.0630  0.7653
   99SAPE  C213 9962  -0.655   3.381   5.479  0.0072  0.2076 -0.6022
   99SAPE  H13R 9963  -0.629   3.284   5.431 -1.1281 -0.6284  0.3864
   99SAPE  H13S 9964  -0.606   3.457   5.415  1.4289 -0.7197 -0.6582
   99SAPE  C214 9965  -0.802   3.400   5.464 -0.4023 -0.6099  0.4899
   99SAPE  H14R 9966  -0.857   3.386   5.558 -1.4958 -1.3404 -0.2236
   99SAPE  C215 9967  -0.865   3.411   5.343  0.8115  0.4265  0.7429
   99SAPE  H15R 9968  -0.974   3.427   5.337  0.9052  0.8910  0.1625
   99SAPE  C216 9969  -0.791   3.419   5.214 -0.2038  0.5325  0.3666
   99SAPE  H16R 9970  -0.770   3.321   5.165  0.7342  1.0832 -0.3692
   99SAPE  H16S 9971  -0.692   3.466   5.236 -1.2742  3.4551 -0.6504
   99SAPE  C217 9972  -0.874   3.496   5.103 -0.0868  0.2931 -0.8525
   99SAPE  H17R 9973  -0.907   3.597   5.136  0.2395  0.8074 -2.0409
   99SAPE  H17S 9974  -0.971   3.447   5.080  0.4615 -0.4418 -1.6549
   99SAPE  C218 9975  -0.802   3.489   4.970  0.9080 -0.1964 -0.4984
   99SAPE  H18R 9976  -0.798   3.386   4.930  0.9482 -0.2254 -0.4195
   99SAPE  H18S 9977  -0.703   3.529   4.999  0.5318  0.8846 -0.6208
   99SAPE  C219 9978  -0.858   3.582   4.863 -0.3160 -0.1581  0.1532
   99SAPE  H19R 9979  -0.892   3.667   4.925  0.9831  0.2137  0.3917
   99SAPE  H19S 9980  -0.937   3.530   4.805  0.6803  0.4783 -1.8869
   99SAPE  C220 9981  -0.751   3.638   4.766 -0.6242  0.3092  1.0298
   99SAPE  H20R 9982  -0.737   3.562   4.686 -1.3799  0.8263  0.3849
   99SAPE  H20S 9983  -0.659   3.661   4.822 -1.3184  2.9406  1.1999
   99SAPE  H20T 9984  -0.778   3.730   4.709  0.3553  0.0039  0.0373
   99SAPE   C33 9985  -0.505   3.914   5.626 -0.9602  0.0419  0.0115
   99SAPE   H3X 9986  -0.401   3.930   5.661 -0.7978 -1.5550  0.3441
   99SAPE   H3Y 9987  -0.542   4.012   5.589  0.3789 -0.0960 -1.8891
   99SAPE   C34 9988  -0.506   3.825   5.501 -0.3359 -0.3777 -0.0212
   99SAPE   H4X 9989  -0.522   3.718   5.524 -1.2576 -0.1868  0.2685
   99SAPE   H4Y 9990  -0.413   3.825   5.441 -0.5116 -0.7876 -0.3005
   99SAPE   C35 9991  -0.618   3.871   5.401  0.0348  0.5452 -0.1073
   99SAPE   H5X 9992  -0.702   3.908   5.464  1.1967  2.3339  0.4679
   99SAPE   H5Y 9993  -0.655   3.785   5.341 -1.5844  3.0361 -2.9142
   99SAPE   C36 9994  -0.581   3.983   5.304 -0.8357 -0.4922  0.1881
   99SAPE   H6X 9995  -0.486   3.942   5.261 -1.1751 -1.4993  0.3814
   99SAPE   H6Y 9996  -0.576   4.080   5.356 -2.6264  0.4401 -1.2720
   99SAPE   C37 9997  -0.678   3.988   5.190  1.0534  0.0401 -0.8158
   99SAPE   H7X 9998  -0.752   4.066   5.216 -0.6665 -2.0421  0.9122
   99SAPE   H7Y 9999  -0.734   3.892   5.180 -2.3889  1.6950  0.8340
   99SAPE   C3810000  -0.630   4.031   5.049  0.9170 -0.2227  0.2110
   99SAPE   H8X10001  -0.579   4.129   5.055  0.5265 -0.0197  0.2636
   99SAPE   H8Y10002  -0.723   4.044   4.989  0.5152  0.6121  0.9972
   99SAPE   C3910003  -0.532   3.930   4.994 -0.3442 -0.3580 -0.6507
   99SAPE   H9X10004  -0.572   3.827   4.985  0.4589 -0.5260 -2.9655
   99SAPE   H9Y10005  -0.451   3.920   5.070 -1.6746 -0.7602  0.7753
   99SAPE  C31010006  -0.476   3.974   4.858 -0.4919 -0.7922  0.3206
   99SAPE  H10X10007  -0.412   4.064   4.873  0.1891 -1.2412  0.1443
   99SAPE  H10Y10008  -0.559   3.997   4.788  1.7478  1.9518 -1.6939
   99SAPE  C31110009  -0.381   3.881   4.787 -0.3470  0.0351  0.1938
   99SAPE  H11X10010  -0.433   3.800   4.731  0.2330  0.9748 -1.7646
   99SAPE  H11Y10011  -0.307   3.842   4.860 -0.5738 -2.9476 -1.0105
   99SAPE  C31210012  -0.290   3.950   4.688 -0.1519  0.0350  0.3834
   99SAPE  H12X10013  -0.233   3.866   4.642 -0.8990 -0.7736  0.8873
   99SAPE  H12Y10014  -0.227   4.026   4.739 -1.9670  3.0067 -1.4853
   99SAPE  C31310015  -0.360   4.036   4.580 -0.3416  0.3471  0.1061
   99SAPE  H13X10016  -0.418   4.113   4.635  0.1469 -0.0978  1.2712
   99SAPE  H13Y10017  -0.434   3.987   4.513  1.9273 -2.4469 -0.5433
   99SAPE  C31410018  -0.260   4.115   4.488 -0.0124 -0.6401  0.1430
   99SAPE  H14X10019  -0.218   4.041   4.416  0.7453 -0.8425  0.7795
   99SAPE  H14Y10020  -0.174   4.154   4.547 -0.7286 -0.3744  1.0295
   99SAPE  C31510021  -0.332   4.238   4.422 -0.1559 -0.3145 -0.6258
   99SAPE  H15X10022  -0.328   4.331   4.483 -0.4306 -0.6617 -0.0678
   99SAPE  H15Y10023  -0.440   4.212   4.418  0.4081 -2.8408 -1.3132
   99SAPE  C31610024  -0.265   4.250   4.290 -0.7885 -0.8131 -0.7835
   99SAPE  H16X10025  -0.309   4.321   4.217 -0.8214  1.2806  1.1717
   99SAPE  H16Y10026  -0.267   4.149   4.242  0.5045 -2.6665  2.7135
   99SAPE  C31710027  -0.119   4.300   4.301 -0.1402  0.4295 -0.4840
   99SAPE  H17X10028  -0.059   4.219   4.347 -0.5097  0.2984 -0.2278
   99SAPE  H17Y10029  -0.119   4.392   4.363 -2.1283 -0.8616  1.5754
   99SAPE  C31810030  -0.063   4.345   4.168  0.2426  0.4264 -0.6134
   99SAPE  H18X10031  -0.068   4.260   4.097  0.2626 -1.8194  1.9224
   99SAPE  H18Y10032   0.045   4.367   4.183  0.5754 -1.9570  1.0983
   99SAPE  H18Z10033  -0.121   4.433   4.131 -1.5092  1.3801  3.6531
  100SAPE     N10034   0.037   3.260   6.819 -0.1253  0.6404 -0.3977
  100SAPE   HN110035   0.009   3.160   6.810  1.8238  0.1545 -1.7660
  100SAPE   HN210036  -0.053   3.310   6.833 -1.0829 -0.9949 -0.4798
  100SAPE   HN310037   0.091   3.301   6.741  2.6540 -0.7952  0.6460
  100SAPE   C1210038   0.119   3.279   6.947 -0.0216 -0.5078 -0.5619
  100SAPE  H12A10039   0.201   3.205   6.953 -0.5120 -0.9740  0.6339
  100SAPE  H12B10040   0.043   3.258   7.025  1.3128  0.7046  1.1467
  100SAPE   C1110041   0.175   3.426   6.952  0.9201 -0.0193  0.9662
  100SAPE  H11A10042   0.248   3.433   7.036  0.6248 -2.0275  1.4340
  100SAPE  H11B10043   0.095   3.498   6.980  1.3780  1.2354 -0.8095
  100SAPE     P10044   0.371   3.431   6.773  0.1407 -0.4869 -0.3680
  100SAPE   O1310045   0.469   3.515   6.849 -0.5850  0.0386 -0.0893
  100SAPE   O1410046   0.396   3.288   6.772 -0.3948  0.2417  0.3436
  100SAPE   O1210047   0.229   3.476   6.829 -0.0062 -0.3118 -0.1437
  100SAPE   O1110048   0.366   3.490   6.622 -0.3101  0.4383 -0.4501
  100SAPE    C110049   0.244   3.531   6.560 -0.1246  0.0840 -0.0149
  100SAPE    HA10050   0.160   3.532   6.632  1.2095  2.0123  1.6268
  100SAPE    HB10051   0.249   3.642   6.546 -2.4136  0.4197  1.5082
  100SAPE    C210052   0.217   3.479   6.415  0.4219 -0.1520  0.5064
  100SAPE    HS10053   0.108   3.487   6.391  0.8828  1.4111 -1.3082
  100SAPE   O2110054   0.260   3.341   6.396 -0.0488 -0.1173 -0.2847
  100SAPE   C2110055   0.204   3.247   6.468  0.3237 -0.4693  0.1505
  100SAPE   O2210056   0.107   3.255   6.536  0.3187 -0.1473 -0.4619
  100SAPE   C2210057   0.262   3.114   6.421 -1.0555  0.1897 -0.7222
  100SAPE   H2R10058   0.372   3.127   6.436 -1.1575  1.4137 -0.9430
  100SAPE   H2S10059   0.227   3.029   6.483 -1.9744  0.6311 -0.6309
  100SAPE    C310060   0.268   3.584   6.312  1.1067 -0.2485  0.2677
  100SAPE    HX10061   0.375   3.558   6.300  0.3792 -3.3477 -0.3922
  100SAPE    HY10062   0.254   3.687   6.351 -0.3609 -1.0265  2.0237
  100SAPE   O3110063   0.203   3.557   6.185 -0.4446  0.9739  0.2619
  100SAPE   C3110064   0.222   3.648   6.090 -0.9509  0.1820 -0.0125
  100SAPE   O3210065   0.294   3.750   6.105 -0.2769  0.0460  0.1587
  100SAPE   C3210066   0.133   3.629   5.961  0.4830 -0.5731 -0.4164
  100SAPE   H2X10067   0.026   3.625   5.990 -0.0968  1.5520 -1.9549
  100SAPE   H2Y10068   0.155   3.532   5.912 -0.8902 -0.4617 -1.3083
  100SAPE   C2310069   0.230   3.096   6.269  0.0643 -0.2006  1.4507
  100SAPE   H3R10070   0.320   3.058   6.215  0.1254  2.6279 -0.6751
  100SAPE   H3S10071   0.201   3.189   6.215  3.0081 -0.4300 -0.7955
  100SAPE   C2410072   0.119   2.988   6.236 -0.4193 -0.2480 -0.2799
  100SAPE   H4R10073   0.021   3.022   6.277 -0.5137 -1.2637  0.3673
  100SAPE   H4S10074   0.138   2.891   6.287 -1.9824 -0.8908 -0.8418
  100SAPE   C2510075   0.106   2.956   6.091  0.3489  0.0747  0.4340
  100SAPE   H5R10076   0.081   3.040   6.025  3.5604  0.6544 -0.1899
  100SAPE   C2610077   0.116   2.834   6.038  0.0355  0.3404  0.1900
  100SAPE   H6R10078   0.114   2.837   5.929 -0.6889 -0.9398  0.1518
  100SAPE   C2710079   0.146   2.707   6.115 -0.6448  0.2872 -0.0064
  100SAPE   H7R10080   0.210   2.716   6.205  2.2681  0.8864 -1.9936
  100SAPE   H7S10081   0.201   2.638   6.047 -1.7036  0.6749 -1.2910
  100SAPE   C2810082   0.010   2.652   6.164  0.4648  0.5949 -0.4299
  100SAPE   H8R10083  -0.075   2.722   6.161  0.1076  0.1390 -1.1677
  100SAPE   C2910084  -0.024   2.526   6.199  0.5137 -0.3556  0.4029
  100SAPE   H9R10085  -0.122   2.508   6.245 -0.0199  0.9082 -0.1825
  100SAPE  C21010086   0.065   2.400   6.209  0.0817 -0.3650  0.0769
  100SAPE  H10R10087   0.066   2.373   6.316 -0.6090 -0.3142  0.1015
  100SAPE  H10S10088   0.170   2.415   6.177 -0.1284  1.0421 -0.0492
  100SAPE  C21110089   0.007   2.292   6.120  0.0748 -0.4300 -0.2503
  100SAPE  H11R10090  -0.068   2.229   6.170  1.8264 -2.0093  0.5197
  100SAPE  C21210091   0.050   2.252   6.000 -1.0215 -1.2865  0.4915
  100SAPE  H12R10092  -0.008   2.174   5.949 -2.1612 -0.8018  0.9996
  100SAPE  C21310093   0.162   2.316   5.923  0.2295 -0.1768 -0.0247
  100SAPE  H13R10094   0.217   2.244   5.858 -0.1093 -0.7258  0.2794
  100SAPE  H13S10095   0.236   2.347   6.000 -2.3563  3.0832  1.3842
  100SAPE  C21410096   0.126   2.449   5.864 -0.3307  0.6147  0.4639
  100SAPE  H14R10097   0.072   2.513   5.936 -0.1115  0.9372  0.3424
  100SAPE  C21510098   0.174   2.503   5.751 -0.2684 -0.1610  0.4804
  100SAPE  H15R10099   0.156   2.610   5.732  3.2760  0.1165 -2.3874
  100SAPE  C21610100   0.254   2.430   5.649  0.7018 -0.4236  0.0300
  100SAPE  H16R10101   0.305   2.345   5.698  0.7156  0.9906  2.6517
  100SAPE  H16S10102   0.335   2.488   5.600 -0.3464 -1.0237 -2.6251
  100SAPE  C21710103   0.154   2.380   5.543 -0.0623  0.7350 -0.6348
  100SAPE  H17R10104   0.107   2.467   5.493 -2.2510  0.7370  1.2319
  100SAPE  H17S10105   0.067   2.333   5.594  1.4648  1.6222  3.2026
  100SAPE  C21810106   0.226   2.287   5.445  0.9545  0.2844  0.7027
  100SAPE  H18R10107   0.280   2.218   5.513  1.3753 -0.2373 -0.1536
  100SAPE  H18S10108   0.309   2.342   5.395  0.1320  0.1615 -0.8566
  100SAPE  C21910109   0.128   2.217   5.348  0.1554  0.0235 -0.4437
  100SAPE  H19R10110   0.073   2.137   5.401  0.4511 -0.8993 -1.4771
  100SAPE  H19S10111   0.185   2.152   5.276  0.0899 -1.5164  0.8387
  100SAPE  C22010112   0.031   2.302   5.270 -0.2093  0.3897 -0.7025
  100SAPE  H20R10113   0.064   2.408   5.268 -0.6430  0.6563  2.0497
  100SAPE  H20S10114  -0.075   2.300   5.302  0.2659  0.6097  1.0131
  100SAPE  H20T10115   0.016   2.260   5.169  0.3716 -0.4791 -0.4399
  100SAPE   C3310116   0.152   3.742   5.854 -0.5744  0.2856  0.9094
  100SAPE   H3X10117   0.251   3.745   5.805 -2.7946  0.0775 -4.1948
  100SAPE   H3Y10118   0.131   3.843   5.896 -1.3222  0.1424  0.8986
  100SAPE   C3410119   0.047   3.719   5.737  0.3290  0.1047  0.3956
  100SAPE   H4X10120  -0.055   3.732   5.779 -0.0897 -1.9225  0.1239
  100SAPE   H4Y10121   0.040   3.619   5.689  0.4720  1.1631 -1.9847
  100SAPE   C3510122   0.075   3.822   5.618  0.4391 -0.3523 -0.1693
  100SAPE   H5X10123   0.139   3.781   5.536 -1.1500 -1.3547 -0.9661
  100SAPE   H5Y10124   0.130   3.906   5.664  1.2282 -2.1101  2.2916
  100SAPE   C3610125  -0.056   3.859   5.542 -1.0351  0.0087 -1.0584
  100SAPE   H6X10126  -0.125   3.891   5.623  2.2762  2.2775  1.1611
  100SAPE   H6Y10127  -0.091   3.761   5.504 -0.8283  0.1514 -1.6381
  100SAPE   C3710128  -0.046   3.984   5.450 -0.0683  0.5428  1.0950
  100SAPE   H7X10129   0.034   3.999   5.375 -0.7626 -1.8471 -0.2475
  100SAPE   H7Y10130  -0.022   4.069   5.517 -1.6962  0.8130  1.3740
  100SAPE   C3810131  -0.178   4.018   5.382  0.3626  0.1222 -0.1074
  100SAPE   H8X10132  -0.192   4.127   5.364 -0.5251  0.1326  0.5507
  100SAPE   H8Y10133  -0.263   3.996   5.450 -1.8475  0.0092 -2.7592
  100SAPE   C3910134  -0.199   3.936   5.259 -0.5094  0.0986  0.0571
  100SAPE   H9X10135  -0.289   3.974   5.207 -1.8736 -0.1712  2.0962
  100SAPE   H9Y10136  -0.230   3.831   5.278 -1.1157  0.2869  0.1274
  100SAPE  C31010137  -0.085   3.934   5.162 -0.0690  0.0234 -0.7563
  100SAPE  H10X10138  -0.118   3.872   5.077  2.2894  0.1208 -1.8149
  100SAPE  H10Y10139   0.009   3.886   5.197  0.6106  0.9769 -1.2299
  100SAPE  C31110140  -0.063   4.078   5.104  0.1409  0.7664  0.3189
  100SAPE  H11X10141  -0.007   4.136   5.180 -2.5795  3.2044  0.6265
  100SAPE  H11Y10142  -0.154   4.138   5.081  0.3491  0.9143 -0.1334
  100SAPE  C31210143   0.024   4.063   4.977 -1.0450 -0.2360  0.2773
  100SAPE  H12X10144  -0.032   3.990   4.915 -2.9221  1.9101 -0.7096
  100SAPE  H12Y10145   0.121   4.016   5.001 -0.9493  0.7532  1.9912
  100SAPE  C31310146   0.039   4.189   4.889  0.0097  0.3524 -0.4744
  100SAPE  H13X10147   0.098   4.267   4.941  0.5191 -0.4408  0.1556
  100SAPE  H13Y10148  -0.060   4.230   4.860  1.5107  3.7650 -1.2726
  100SAPE  C31410149   0.116   4.148   4.757 -0.4476  0.0202  0.1888
  100SAPE  H14X10150   0.068   4.057   4.714 -0.2652 -0.4327  0.9210
  100SAPE  H14Y10151   0.224   4.124   4.770 -0.3720  0.6341  0.7665
  100SAPE  C31510152   0.103   4.265   4.656 -0.0220 -0.8860  0.0659
  100SAPE  H15X10153  -0.001   4.299   4.671  0.1888  0.8520 -1.9423
  100SAPE  H15Y10154   0.114   4.226   4.552  0.2765  2.1329 -1.1410
  100SAPE  C31610155   0.190   4.382   4.687  0.1604  0.1296 -0.3928
  100SAPE  H16X10156   0.296   4.349   4.682  1.1698  3.2294 -0.9855
  100SAPE  H16Y10157   0.169   4.403   4.794 -2.5596  1.1802 -1.0555
  100SAPE  C31710158   0.168   4.502   4.588 -1.3188  0.6631  0.6556
  100SAPE  H17X10159   0.228   4.589   4.622 -0.2942 -0.3251  1.4750
  100SAPE  H17Y10160   0.060   4.526   4.594 -1.3152  0.8625 -0.0428
  100SAPE  C31810161   0.219   4.465   4.445 -0.7157 -0.3699  0.4283
  100SAPE  H18X10162   0.229   4.548   4.372  1.3712 -0.1385  0.9149
  100SAPE  H18Y10163   0.151   4.391   4.397  0.5457 -0.2812 -1.6010
  100SAPE  H18Z10164   0.320   4.422   4.461  0.6075  1.4626 -2.1870
  101SAPE     N10165   0.289   4.326   6.806  0.6444 -0.1841 -0.2872
  101SAPE   HN110166   0.300   4.348   6.907 -0.3083  0.9969 -0.4213
  101SAPE   HN210167   0.229   4.241   6.799  0.3408  0.1651 -3.0078
  101SAPE   HN310168   0.384   4.327   6.764  0.8021  0.2835  0.0711
  101SAPE   C1210169   0.209   4.426   6.725  0.4218  0.3221  0.3385
  101SAPE  H12A10170   0.280   4.509   6.702  1.2552 -0.6056 -0.5036
  101SAPE  H12B10171   0.131   4.468   6.792  0.8970  0.9134  0.5325
  101SAPE   C1110172   0.154   4.355   6.598 -0.2065 -0.8096 -0.2161
  101SAPE  H11A10173   0.082   4.432   6.563 -1.1336 -2.2900 -1.7357
  101SAPE  H11B10174   0.085   4.270   6.616 -1.0992 -0.6188 -2.4784
  101SAPE     P10175   0.283   4.432   6.387  0.0286 -0.1293  0.4533
  101SAPE   O1310176   0.283   4.571   6.444 -0.2021 -0.2112 -0.0433
  101SAPE   O1410177   0.409   4.400   6.320  0.1088  0.2378 -0.4061
  101SAPE   O1210178   0.254   4.328   6.499  0.4740 -0.1198  0.2672
  101SAPE   O1110179   0.167   4.414   6.290  0.0656  0.3109 -0.1023
  101SAPE    C110180   0.028   4.436   6.308 -0.0656 -0.7273  0.3204
  101SAPE    HA10181  -0.024   4.342   6.336 -0.2733 -0.9659 -0.8425
  101SAPE    HB10182   0.009   4.512   6.387  1.0439  2.0873 -1.9609
  101SAPE    C210183  -0.030   4.481   6.169  1.4985  0.0282 -0.2308
  101SAPE    HS10184  -0.140   4.488   6.185  0.9679  1.6325 -3.5507
  101SAPE   O2110185   0.001   4.388   6.065  1.0596  0.2479  0.3651
  101SAPE   C2110186  -0.099   4.369   5.976 -0.4515  0.7813  0.0557
  101SAPE   O2210187  -0.212   4.416   5.979 -0.5268  0.1150 -0.5094
  101SAPE   C2210188  -0.052   4.274   5.859 -0.3647 -0.6642 -0.5013
  101SAPE   H2R10189   0.014   4.338   5.797 -2.0926 -0.2793 -2.0553
  101SAPE   H2S10190   0.012   4.194   5.901 -1.4412 -0.3784  1.8719
  101SAPE    C310191   0.011   4.620   6.121 -0.0319 -0.2203  0.0650
  101SAPE    HX10192   0.119   4.615   6.099 -0.2852 -1.0719 -1.0862
  101SAPE    HY10193  -0.001   4.689   6.207  1.9702  0.8442 -0.4702
  101SAPE   O3110194  -0.067   4.654   6.005 -0.5598 -0.7717  0.6452
  101SAPE   C3110195  -0.176   4.722   6.034 -0.2235  0.6824 -0.3032
  101SAPE   O3210196  -0.216   4.750   6.146  0.3178  0.0861  0.3081
  101SAPE   C3210197  -0.245   4.760   5.906 -0.6207 -0.2277  0.3455
  101SAPE   H2X10198  -0.220   4.675   5.839 -2.1725  0.6730 -1.4797
  101SAPE   H2Y10199  -0.196   4.854   5.873  2.1569 -2.0102 -0.9853
  101SAPE   C2310200  -0.167   4.216   5.778 -0.8694  0.6176  0.2092
  101SAPE   H3R10201  -0.220   4.146   5.846  1.2993  0.2372  1.6276
  101SAPE   H3S10202  -0.105   4.155   5.710 -3.0754 -3.2274  1.3109
  101SAPE   C2410203  -0.254   4.311   5.699  0.4942 -0.3398  0.7147
  101SAPE   H4R10204  -0.187   4.376   5.638 -1.0571  0.5042 -0.1485
  101SAPE   H4S10205  -0.312   4.375   5.769 -1.9326 -0.2394 -1.2305
  101SAPE   C2510206  -0.355   4.245   5.609 -0.3842  1.1818  1.0816
  101SAPE   H5R10207  -0.393   4.147   5.640 -0.1162  0.8946  0.5100
  101SAPE   C2610208  -0.389   4.286   5.484  0.0659 -0.1062  1.0140
  101SAPE   H6R10209  -0.460   4.225   5.427  2.1186 -2.7060  1.0439
  101SAPE   C2710210  -0.347   4.420   5.432 -0.1014  0.2296  0.3724
  101SAPE   H7R10211  -0.316   4.491   5.512 -0.7368  2.5650 -1.3316
  101SAPE   H7S10212  -0.436   4.476   5.394 -0.6968  0.4717  2.0238
  101SAPE   C2810213  -0.238   4.397   5.334 -0.7600 -0.3493 -0.0402
  101SAPE   H8R10214  -0.144   4.370   5.386  0.2031  2.3991 -0.1868
  101SAPE   C2910215  -0.235   4.418   5.198  1.1360  0.4518  0.9133
  101SAPE   H9R10216  -0.141   4.389   5.147  1.0777 -0.7872  1.4709
  101SAPE  C21010217  -0.341   4.474   5.110 -0.0321 -0.0679  0.1835
  101SAPE  H10R10218  -0.310   4.576   5.080  1.7166 -1.3057 -2.7216
  101SAPE  H10S10219  -0.432   4.474   5.173 -1.0935 -1.4176 -1.2512
  101SAPE  C21110220  -0.354   4.384   4.994  0.0310 -0.4473 -0.1244
  101SAPE  H11R10221  -0.415   4.297   5.023 -0.9002 -0.0216 -0.7431
  101SAPE  C21210222  -0.316   4.395   4.867 -0.2033  0.2292 -0.0423
  101SAPE  H12R10223  -0.341   4.321   4.790 -1.6864 -0.3735  0.9719
  101SAPE  C21310224  -0.256   4.522   4.813  0.2445 -0.6100 -0.5256
  101SAPE  H13R10225  -0.159   4.534   4.865 -0.1940 -0.6856  0.3259
  101SAPE  H13S10226  -0.322   4.606   4.843 -0.0550 -0.3375 -1.8843
  101SAPE  C21410227  -0.236   4.523   4.661 -0.1607  0.2482 -0.6350
  101SAPE  H14R10228  -0.213   4.423   4.623 -3.0540 -1.2957  1.3194
  101SAPE  C21510229  -0.253   4.623   4.575  0.6940  0.1079  0.5396
  101SAPE  H15R10230  -0.238   4.603   4.468 -1.0249 -0.9027  0.4462
  101SAPE  C21610231  -0.298   4.764   4.608  0.0266  0.0894 -0.0098
  101SAPE  H16R10232  -0.221   4.796   4.681  0.7059  1.4148 -1.2558
  101SAPE  H16S10233  -0.395   4.760   4.663  1.7388  0.7397  3.2683
  101SAPE  C21710234  -0.301   4.881   4.502  0.1720  0.1693 -0.2666
  101SAPE  H17R10235  -0.332   4.974   4.555 -0.8458  0.6471 -1.6560
  101SAPE  H17S10236  -0.384   4.850   4.435 -1.0202 -1.7406  1.9528
  101SAPE  C21810237  -0.180   4.901   4.413 -0.3385 -0.2867 -0.0566
  101SAPE  H18R10238  -0.192   4.983   4.339  1.6729 -0.4956 -0.6788
  101SAPE  H18S10239  -0.171   4.806   4.357  0.9455 -0.0845 -0.2377
  101SAPE  C21910240  -0.047   4.921   4.494  0.7050  0.1816 -0.1327
  101SAPE  H19R10241  -0.032   4.832   4.560  1.4355  0.0248 -0.5007
  101SAPE  H19S10242  -0.045   5.018   4.548 -1.7470  0.9598 -1.3139
  101SAPE  C22010243   0.078   4.924   4.405  0.5325  0.2115 -0.4172
  101SAPE  H20R10244   0.073   4.830   4.346 -3.5894 -0.8247  1.2356
  101SAPE  H20S10245   0.162   4.919   4.478 -0.4506 -0.7534  0.6945
  101SAPE  H20T10246   0.088   5.019   4.349  0.8021 -0.0423 -0.8056
  101SAPE   C3310247  -0.397   4.761   5.921 -0.3343 -0.2824 -0.8360
  101SAPE   H3X10248  -0.419   4.814   6.017  2.5929 -2.6025  1.3118
  101SAPE   H3Y10249  -0.437   4.659   5.934  0.9989 -0.5143  2.2554
  101SAPE   C3410250  -0.462   4.841   5.804 -0.7770 -0.2275  0.0445
  101SAPE   H4X10251  -0.426   4.945   5.789  1.0001 -0.9255 -0.8793
  101SAPE   H4Y10252  -0.571   4.847   5.824 -0.7089  0.2550  0.2858
  101SAPE   C3510253  -0.434   4.770   5.671  0.3134  0.3576  0.3460
  101SAPE   H5X10254  -0.484   4.671   5.666  0.0017  0.5039  0.4816
  101SAPE   H5Y10255  -0.326   4.755   5.654  0.1842 -1.7305  1.0868
  101SAPE   C3610256  -0.499   4.854   5.552 -0.3764  0.3020  0.1379
  101SAPE   H6X10257  -0.448   4.953   5.550  0.5249 -0.1378  0.7933
  101SAPE   H6Y10258  -0.604   4.859   5.588 -0.7148  0.4446 -0.8353
  101SAPE   C3710259  -0.491   4.785   5.413 -0.2967 -0.6399 -0.0329
  101SAPE   H7X10260  -0.548   4.691   5.401 -1.6587  0.3924 -2.5113
  101SAPE   H7Y10261  -0.384   4.773   5.384 -0.3541 -0.1033 -0.5102
  101SAPE   C3810262  -0.565   4.883   5.310 -0.5472  0.0376 -0.7029
  101SAPE   H8X10263  -0.496   4.970   5.299  2.3620 -1.9419  0.7002
  101SAPE   H8Y10264  -0.661   4.910   5.361  0.4932  0.7246  0.9890
  101SAPE   C3910265  -0.583   4.810   5.178 -0.1960 -0.6476 -0.0072
  101SAPE   H9X10266  -0.672   4.849   5.124  0.6741  1.5617  0.0204
  101SAPE   H9Y10267  -0.580   4.700   5.192  0.9334 -0.6274 -0.0274
  101SAPE  C31010268  -0.467   4.842   5.075 -0.2194  0.4713 -0.3088
  101SAPE  H10X10269  -0.422   4.744   5.051  2.8720  1.6455  0.2540
  101SAPE  H10Y10270  -0.387   4.895   5.131  0.5073 -1.3049  0.3970
  101SAPE  C31110271  -0.506   4.921   4.950 -0.3396  1.1075 -0.5212
  101SAPE  H11X10272  -0.610   4.889   4.931 -0.2428 -0.6438  1.4663
  101SAPE  H11Y10273  -0.449   4.893   4.859 -1.3434  2.5995 -1.6457
  101SAPE  C31210274  -0.489   5.074   4.972 -0.6565 -0.1842 -0.5120
  101SAPE  H12X10275  -0.381   5.095   4.987  0.0043 -1.7644 -2.5832
  101SAPE  H12Y10276  -0.551   5.114   5.055  1.3944  2.2061 -0.0134
  101SAPE  C31310277  -0.539   5.164   4.860 -0.5381 -0.0814 -0.5729
  101SAPE  H13X10278  -0.509   5.266   4.894 -2.4268 -0.3322  2.1715
  101SAPE  H13Y10279  -0.650   5.161   4.858 -0.7008  1.6443  1.5585
  101SAPE  C31410280  -0.468   5.122   4.729 -0.3864 -1.1304  0.6736
  101SAPE  H14X10281  -0.515   5.033   4.682 -3.0783 -0.4461  1.8283
  101SAPE  H14Y10282  -0.362   5.113   4.759  0.1622  0.1989 -0.7416
  101SAPE  C31510283  -0.473   5.245   4.637 -0.2117 -0.1253  0.6157
  101SAPE  H15X10284  -0.444   5.341   4.685 -1.0135 -0.3837  1.6665
  101SAPE  H15Y10285  -0.582   5.263   4.621  0.0252  1.3342  0.5367
  101SAPE  C31610286  -0.402   5.237   4.505 -0.5509  0.1943  1.2650
  101SAPE  H16X10287  -0.454   5.159   4.446  0.2185  0.5633  0.0715
  101SAPE  H16Y10288  -0.296   5.208   4.519 -0.3768  0.8949  1.4445
  101SAPE  C31710289  -0.397   5.367   4.426 -0.0912 -0.3398 -0.0194
  101SAPE  H17X10290  -0.330   5.440   4.477 -0.3910 -0.5751  0.7314
  101SAPE  H17Y10291  -0.501   5.404   4.423  0.3514  0.9437 -0.5014
  101SAPE  C31810292  -0.353   5.347   4.276  0.3530  0.4865 -0.7227
  101SAPE  H18X10293  -0.392   5.250   4.239  0.0626  0.2035  0.2808
  101SAPE  H18Y10294  -0.242   5.352   4.273  0.4313  0.4630  1.2094
  101SAPE  H18Z10295  -0.390   5.432   4.215 -0.2143 -1.1081 -2.7300
  102SAPE     N10296   0.154   1.768   6.970 -0.0676  0.6449  0.4547
  102SAPE   HN110297   0.147   1.698   7.047 -1.3164  0.3674  0.0987
  102SAPE   HN210298   0.171   1.861   7.014  1.0579  0.3605  0.6557
  102SAPE   HN310299   0.065   1.758   6.917  1.6250 -2.8945 -2.1494
  102SAPE   C1210300   0.266   1.723   6.875 -0.1718 -0.8414 -0.1262
  102SAPE  H12A10301   0.249   1.621   6.833  0.4825 -0.5712 -1.0909
  102SAPE  H12B10302   0.362   1.729   6.931 -0.4877  1.5256  0.2777
  102SAPE   C1110303   0.278   1.826   6.764 -0.0138  0.0192  0.6521
  102SAPE  H11A10304   0.182   1.821   6.708 -0.8790 -2.2888  2.1821
  102SAPE  H11B10305   0.361   1.804   6.694 -1.9500 -1.9877 -1.1708
  102SAPE     P10306   0.374   2.070   6.783 -0.3755  0.0909  0.1549
  102SAPE   O1310307   0.318   2.190   6.840 -0.2413  0.3694  0.4061
  102SAPE   O1410308   0.507   2.036   6.827 -0.2592 -0.1815  0.4199
  102SAPE   O1210309   0.270   1.960   6.815 -0.3476  0.1255  0.2434
  102SAPE   O1110310   0.373   2.077   6.628  0.2229 -0.2618  0.0439
  102SAPE    C110311   0.244   2.129   6.571  0.3344  0.2182 -0.0520
  102SAPE    HA10312   0.154   2.101   6.630  0.4914 -1.5510 -0.5993
  102SAPE    HB10313   0.247   2.240   6.574 -0.5631  0.2253  2.3648
  102SAPE    C210314   0.233   2.087   6.418  0.3738 -1.1865 -0.2399
  102SAPE    HS10315   0.148   2.139   6.369  1.2226  0.5297  0.0323
  102SAPE   O2110316   0.227   1.943   6.414 -0.6861 -0.7664  0.0036
  102SAPE   C2110317   0.113   1.887   6.438  0.5695  0.3851 -0.0010
  102SAPE   O2210318   0.009   1.944   6.476 -0.4210  0.1440  0.2169
  102SAPE   C2210319   0.119   1.735   6.424  0.3692  0.5156 -0.4277
  102SAPE   H2R10320   0.224   1.701   6.412  0.2019 -0.1269 -0.1266
  102SAPE   H2S10321   0.067   1.706   6.517 -0.1875  3.4894  0.2859
  102SAPE    C310322   0.359   2.131   6.340  0.3377 -0.6343 -0.1620
  102SAPE    HX10323   0.449   2.080   6.378 -0.2062  0.0393  2.1804
  102SAPE    HY10324   0.377   2.237   6.369  0.1977 -0.3572 -1.0488
  102SAPE   O3110325   0.345   2.116   6.194 -0.4670 -0.3319  0.3750
  102SAPE   C3110326   0.425   2.028   6.137  0.3228  0.3561  0.5844
  102SAPE   O3210327   0.512   1.961   6.190 -0.0619  0.8810 -0.0435
  102SAPE   C3210328   0.388   2.032   5.991 -0.3047 -0.3468  0.1383
  102SAPE   H2X10329   0.386   2.138   5.959 -1.7226 -0.0957  0.9925
  102SAPE   H2Y10330   0.285   1.992   5.978  0.3948 -1.5541 -2.2302
  102SAPE   C2310331   0.047   1.687   6.295  0.2329 -0.2756 -0.4019
  102SAPE   H3R10332  -0.053   1.735   6.299  0.3123 -0.1612  0.5953
  102SAPE   H3S10333   0.045   1.576   6.302 -0.3713 -0.2325  0.1838
  102SAPE   C2410334   0.120   1.729   6.162  0.4684 -0.1312  0.1517
  102SAPE   H4R10335   0.225   1.691   6.164  0.4119 -0.3072 -0.1075
  102SAPE   H4S10336   0.114   1.838   6.146 -1.1462 -0.0307  1.3010
  102SAPE   C2510337   0.053   1.656   6.048 -0.5324  0.8576 -0.2163
  102SAPE   H5R10338   0.062   1.546   6.046  0.4666  0.9346 -0.6386
  102SAPE   C2610339  -0.017   1.714   5.951  0.0840  0.6054 -0.5659
  102SAPE   H6R10340  -0.050   1.655   5.864  1.3929 -1.4650  0.2742
  102SAPE   C2710341  -0.031   1.860   5.945  0.2853  0.1611 -0.9974
  102SAPE   H7R10342  -0.045   1.891   5.840 -2.1180  1.0102 -0.4769
  102SAPE   H7S10343   0.060   1.914   5.980 -0.9432  0.3702  2.2654
  102SAPE   C2810344  -0.142   1.914   6.032  0.0112 -0.6107  0.2401
  102SAPE   H8R10345  -0.122   1.901   6.139  1.9523 -0.4875 -0.0577
  102SAPE   C2910346  -0.255   1.977   5.989 -0.0212  0.1591 -0.0943
  102SAPE   H9R10347  -0.332   2.008   6.062  1.0259 -1.9304  2.0540
  102SAPE  C21010348  -0.307   2.020   5.848  1.0525  0.0966 -0.3568
  102SAPE  H10R10349  -0.404   1.977   5.816  0.3613  1.2579  0.0834
  102SAPE  H10S10350  -0.235   1.989   5.769  2.4827 -1.7074  1.5444
  102SAPE  C21110351  -0.312   2.173   5.849 -0.8967 -0.2029 -0.1854
  102SAPE  H11R10352  -0.278   2.224   5.940  2.1330  1.3457 -2.0101
  102SAPE  C21210353  -0.344   2.253   5.746 -0.4860  0.2635 -0.0296
  102SAPE  H12R10354  -0.314   2.358   5.758 -0.6881  0.3616 -0.3794
  102SAPE  C21310355  -0.393   2.210   5.612  0.3086  0.4703 -0.2674
  102SAPE  H13R10356  -0.502   2.195   5.624  0.1121  2.5154  0.8768
  102SAPE  H13S10357  -0.343   2.115   5.584 -0.9447 -0.7091  1.3279
  102SAPE  C21410358  -0.379   2.295   5.488 -0.2474 -0.8777  0.1906
  102SAPE  H14R10359  -0.312   2.383   5.494 -2.1119  0.5767  0.5383
  102SAPE  C21510360  -0.453   2.280   5.375  0.0756 -0.7233 -0.6067
  102SAPE  H15R10361  -0.446   2.350   5.291 -1.4623 -2.0244 -1.8964
  102SAPE  C21610362  -0.565   2.174   5.358  0.1336  0.5079 -0.4504
  102SAPE  H16R10363  -0.547   2.090   5.429 -1.0888  1.4831  1.0739
  102SAPE  H16S10364  -0.560   2.141   5.252  1.4328 -1.2813  0.1191
  102SAPE  C21710365  -0.707   2.214   5.403  0.1009  0.5064 -0.2403
  102SAPE  H17R10366  -0.700   2.241   5.511 -0.6683  1.4000 -0.4025
  102SAPE  H17S10367  -0.788   2.138   5.402 -1.6376  2.2571  0.1633
  102SAPE  C21810368  -0.768   2.338   5.334  0.1508 -0.0976  0.6632
  102SAPE  H18R10369  -0.698   2.423   5.346  1.9517 -1.5559  0.8392
  102SAPE  H18S10370  -0.863   2.354   5.390 -0.3750  1.0891 -0.5055
  102SAPE  C21910371  -0.810   2.333   5.182 -0.1658  0.5617 -0.5186
  102SAPE  H19R10372  -0.872   2.243   5.159  1.3194 -1.1709  1.8364
  102SAPE  H19S10373  -0.722   2.306   5.119 -1.0917 -0.1131 -1.5738
  102SAPE  C22010374  -0.882   2.460   5.129 -0.0060 -0.0748  0.5355
  102SAPE  H20R10375  -0.970   2.484   5.193  0.9768  0.9278  1.5494
  102SAPE  H20S10376  -0.922   2.432   5.029 -1.7367 -1.1137  1.4621
  102SAPE  H20T10377  -0.813   2.547   5.133 -1.3100  0.9673  2.8086
  102SAPE   C3310378   0.493   1.955   5.891 -0.3017  0.4482 -0.1821
  102SAPE   H3X10379   0.500   1.852   5.931  0.4352  1.6847  3.1531
  102SAPE   H3Y10380   0.593   2.004   5.890  0.7880 -1.6786 -0.4101
  102SAPE   C3410381   0.458   1.955   5.741  0.0728  0.5636  0.5287
  102SAPE   H4X10382   0.520   1.883   5.683  1.4716  1.4902  0.8234
  102SAPE   H4Y10383   0.451   2.050   5.684 -2.1074 -1.2180 -2.4557
  102SAPE   C3510384   0.324   1.883   5.722 -0.3834 -0.2876  0.8417
  102SAPE   H5X10385   0.237   1.950   5.744 -1.6400 -1.5358 -0.1201
  102SAPE   H5Y10386   0.314   1.797   5.792 -0.8439 -2.4399 -1.7487
  102SAPE   C3610387   0.314   1.815   5.583  0.3880  0.0129 -0.1827
  102SAPE   H6X10388   0.389   1.734   5.591  1.1465  0.6094 -1.0005
  102SAPE   H6Y10389   0.343   1.881   5.498 -2.1137  0.5564 -0.6884
  102SAPE   C3710390   0.167   1.762   5.560  0.2476  0.4028  0.3548
  102SAPE   H7X10391   0.129   1.704   5.646  1.1042 -0.6865  0.0190
  102SAPE   H7Y10392   0.164   1.691   5.475 -1.8538  1.1705 -0.2687
  102SAPE   C3810393   0.056   1.858   5.513  0.4940 -0.0806  0.5359
  102SAPE   H8X10394   0.092   1.894   5.414  1.0266 -2.3187 -0.1497
  102SAPE   H8Y10395   0.042   1.948   5.577  0.7819  0.2761  0.1030
  102SAPE   C3910396  -0.078   1.790   5.510  0.2445  0.2141  0.0836
  102SAPE   H9X10397  -0.108   1.753   5.610 -0.3432 -1.2068 -0.5820
  102SAPE   H9Y10398  -0.056   1.710   5.436  0.6557  1.4305 -1.1513
  102SAPE  C31010399  -0.186   1.881   5.446  0.3676 -0.1351 -0.6176
  102SAPE  H10X10400  -0.174   1.886   5.335 -1.6045 -1.3382 -0.9352
  102SAPE  H10Y10401  -0.178   1.982   5.493  0.9389 -0.5030  0.0921
  102SAPE  C31110402  -0.327   1.820   5.461  0.2684 -0.7024  0.7327
  102SAPE  H11X10403  -0.402   1.881   5.406  1.0390 -0.5648 -0.1941
  102SAPE  H11Y10404  -0.348   1.815   5.570  1.2043 -1.1877  0.9090
  102SAPE  C31210405  -0.337   1.676   5.400  0.5281  0.8504 -0.4993
  102SAPE  H12X10406  -0.430   1.623   5.431  1.8256 -0.8145  0.7237
  102SAPE  H12Y10407  -0.249   1.624   5.444 -0.7290 -2.3305 -1.4289
  102SAPE  C31310408  -0.340   1.684   5.248 -0.4823  0.5149 -0.6418
  102SAPE  H13X10409  -0.238   1.705   5.209  0.0612 -0.2191  0.3440
  102SAPE  H13Y10410  -0.404   1.769   5.216 -0.2931  1.0277  0.3199
  102SAPE  C31410411  -0.398   1.566   5.179  0.5024 -0.1822  0.2565
  102SAPE  H14X10412  -0.504   1.562   5.214  0.3554  0.9070 -0.0484
  102SAPE  H14Y10413  -0.348   1.474   5.216 -0.1681  0.0305  1.7730
  102SAPE  C31510414  -0.383   1.565   5.027  0.3156 -0.2659 -0.1074
  102SAPE  H15X10415  -0.426   1.468   4.995 -0.6840  0.1505 -0.0601
  102SAPE  H15Y10416  -0.273   1.568   5.011  0.4763  1.5445  1.0246
  102SAPE  C31610417  -0.427   1.691   4.959 -0.3034 -0.0652  0.2299
  102SAPE  H16X10418  -0.362   1.770   5.002 -0.5114  0.5610 -0.5729
  102SAPE  H16Y10419  -0.532   1.716   4.984 -0.3127  0.0864  0.0441
  102SAPE  C31710420  -0.390   1.690   4.811 -0.4288  0.2356 -0.1909
  102SAPE  H17X10421  -0.459   1.618   4.762  0.1814 -2.1569  2.2052
  102SAPE  H17Y10422  -0.291   1.641   4.795 -0.9714 -0.4532 -1.5977
  102SAPE  C31810423  -0.389   1.825   4.743  0.3089 -0.1882  0.2951
  102SAPE  H18X10424  -0.335   1.900   4.805  2.3264 -0.2406 -1.2900
  102SAPE  H18Y10425  -0.490   1.869   4.729  0.7097  2.1723  3.6008
  102SAPE  H18Z10426  -0.340   1.823   4.643 -0.8441 -1.4113 -0.2854
  103SAPE     N10427   6.129   6.509   2.155  0.6671 -0.3604 -0.5202
  103SAPE   HN110428   6.038   6.499   2.205 -0.1310 -0.4120 -1.9432
  103SAPE   HN210429   6.133   6.425   2.093  1.2934 -0.6003 -0.1586
  103SAPE   HN310430   6.217   6.507   2.210  0.1390 -0.4581  0.3350
  103SAPE   C1210431   6.125   6.642   2.072  0.6808 -0.0202  0.1328
  103SAPE  H12A10432   6.084   6.624   1.970  0.1274  0.3222  0.2890
  103SAPE  H12B10433   6.228   6.682   2.068  0.4119  0.7786  0.9368
  103SAPE   C1110434   6.038   6.747   2.148  0.1478  0.1946  0.1311
  103SAPE  H11A10435   6.040   6.852   2.114 -1.8560  0.8142  1.6941
  103SAPE  H11B10436   6.091   6.751   2.246  0.6242  2.4104 -0.1732
  103SAPE     P10437   5.780   6.747   2.068  0.0263 -0.0378  0.0727
  103SAPE   O1310438   5.828   6.861   1.981 -0.0530 -0.3089  0.5582
  103SAPE   O1410439   5.729   6.629   1.994  0.8884  0.4943 -0.8395
  103SAPE   O1210440   5.895   6.707   2.165 -0.3934 -0.3250 -0.1739
  103SAPE   O1110441   5.660   6.802   2.153  0.1919  0.2776  0.0224
  103SAPE    C110442   5.685   6.834   2.293  0.6519 -0.1737  0.6096
  103SAPE    HA10443   5.743   6.757   2.349 -1.3148 -2.8493 -0.8040
  103SAPE    HB10444   5.733   6.934   2.295  0.5927 -0.1489  1.8247
  103SAPE    C210445   5.544   6.852   2.359  0.3028  0.2283  0.6620
  103SAPE    HS10446   5.492   6.929   2.297  0.7997  0.1935  0.1951
  103SAPE   O2110447   5.575   6.907   2.487  0.3715  0.1036  0.1789
  103SAPE   C2110448   5.463   6.952   2.555 -0.1449  1.0309  0.6861
  103SAPE   O2210449   5.350   6.949   2.519  0.7030 -0.3249  0.8753
  103SAPE   C2210450   5.511   6.994   2.692 -0.2272 -0.5047  0.6159
  103SAPE   H2R10451   5.561   6.906   2.739  0.6437 -0.3869 -0.0547
  103SAPE   H2S10452   5.594   7.066   2.675 -1.9091  1.4469  0.2773
  103SAPE    C310453   5.481   6.717   2.374 -0.4743  0.2708  0.1034
  103SAPE    HX10454   5.472   6.683   2.269 -0.0080  3.1353 -0.9744
  103SAPE    HY10455   5.388   6.726   2.434  0.1472  0.2901  1.0848
  103SAPE   O3110456   5.572   6.632   2.454  0.0381  0.0997  0.3344
  103SAPE   C3110457   5.512   6.527   2.508  0.2757 -0.4048  0.0811
  103SAPE   O3210458   5.401   6.488   2.490  0.8982 -0.4694 -0.0293
  103SAPE   C3210459   5.612   6.453   2.594 -0.1067 -0.3096  0.1316
  103SAPE   H2X10460   5.702   6.517   2.610 -0.3828 -0.1205  1.0113
  103SAPE   H2Y10461   5.639   6.369   2.527  2.2487  1.0182 -0.7134
  103SAPE   C2310462   5.411   7.057   2.788  0.6561  0.3221 -0.0430
  103SAPE   H3R10463   5.333   6.980   2.805  0.6910  0.4193  0.5806
  103SAPE   H3S10464   5.373   7.153   2.746 -0.7617  0.1122  0.7052
  103SAPE   C2410465   5.468   7.098   2.924 -0.0378 -0.0014 -0.6852
  103SAPE   H4R10466   5.390   7.157   2.976  1.3415  2.1848 -1.0054
  103SAPE   H4S10467   5.543   7.175   2.898 -0.2909  0.3988 -0.2444
  103SAPE   C2510468   5.521   6.996   3.022 -0.7324  0.4374  0.7703
  103SAPE   H5R10469   5.612   6.940   2.996 -1.4398 -0.7747  0.8296
  103SAPE   C2610470   5.478   6.950   3.138  0.1970  0.0664 -0.4320
  103SAPE   H6R10471   5.531   6.863   3.179  1.2416 -0.3204 -2.4804
  103SAPE   C2710472   5.357   6.993   3.220  0.7908  0.4544 -0.2262
  103SAPE   H7R10473   5.329   6.912   3.290 -1.6133  0.7758 -0.7467
  103SAPE   H7S10474   5.274   7.007   3.148 -0.1563  3.0521  1.2510
  103SAPE   C2810475   5.373   7.120   3.298 -0.4126  0.2653  0.1839
  103SAPE   H8R10476   5.344   7.204   3.232  1.1783  0.7289  0.0434
  103SAPE   C2910477   5.438   7.136   3.412 -0.5873  0.1167 -1.1675
  103SAPE   H9R10478   5.425   7.235   3.459  2.1645  0.0948 -0.1659
  103SAPE  C21010479   5.489   7.033   3.511  0.3768  0.2616  0.9746
  103SAPE  H10R10480   5.595   7.060   3.529  0.7480 -0.4494 -0.0687
  103SAPE  H10S10481   5.493   6.936   3.457  1.0423  1.1737 -0.6663
  103SAPE  C21110482   5.410   7.030   3.639  0.4365  0.5585 -0.2588
  103SAPE  H11R10483   5.311   6.987   3.619  0.5894 -0.0102  0.1938
  103SAPE  C21210484   5.443   7.056   3.765  0.6434 -0.3731  0.1210
  103SAPE  H12R10485   5.363   7.059   3.841 -0.7944 -0.1897 -1.3587
  103SAPE  C21310486   5.576   7.121   3.797 -0.3701  0.0192 -0.1828
  103SAPE  H13R10487   5.560   7.209   3.863  1.5671 -0.5896  1.1775
  103SAPE  H13S10488   5.623   7.166   3.707  1.5960 -2.1187 -0.2988
  103SAPE  C21410489   5.670   7.024   3.868 -0.5500 -0.3114 -0.5579
  103SAPE  H14R10490   5.699   6.937   3.806  1.0811 -0.2837  0.1023
  103SAPE  C21510491   5.714   7.041   3.996  0.2619  0.0945 -0.8081
  103SAPE  H15R10492   5.800   6.976   4.021  0.4140  1.0050  1.2536
  103SAPE  C21610493   5.702   7.165   4.085  0.8007  1.2483 -0.1805
  103SAPE  H16R10494   5.619   7.231   4.053 -0.5943 -0.9191 -1.3103
  103SAPE  H16S10495   5.798   7.220   4.094  1.8068  0.0161 -2.6523
  103SAPE  C21710496   5.671   7.120   4.237 -1.1233 -0.1352  0.4177
  103SAPE  H17R10497   5.748   7.047   4.272  1.3794  1.6921 -0.8869
  103SAPE  H17S10498   5.569   7.077   4.241 -1.8093  1.2656 -0.9374
  103SAPE  C21810499   5.679   7.245   4.321 -0.1445 -0.3719 -0.5021
  103SAPE  H18R10500   5.780   7.286   4.299  0.4621 -2.7383 -2.7145
  103SAPE  H18S10501   5.689   7.209   4.426  1.7470  0.2885 -0.4134
  103SAPE  C21910502   5.575   7.348   4.296  0.8317 -0.5326  0.6940
  103SAPE  H19R10503   5.477   7.296   4.302  1.4784 -1.6724  1.9565
  103SAPE  H19S10504   5.596   7.401   4.201  1.2923  1.0353  1.6333
  103SAPE  C22010505   5.578   7.469   4.395 -0.6991  0.3645 -0.2057
  103SAPE  H20R10506   5.685   7.478   4.425 -0.4878 -1.7722 -0.1607
  103SAPE  H20S10507   5.524   7.443   4.489  2.0015 -1.2261  1.0256
  103SAPE  H20T10508   5.534   7.563   4.356  2.4035  1.4104 -1.4373
  103SAPE   C3310509   5.565   6.402   2.733 -0.3159 -0.1866  0.0499
  103SAPE   H3X10510   5.642   6.328   2.764  1.6152  1.7797  0.2380
  103SAPE   H3Y10511   5.472   6.342   2.726 -1.8714  1.9505  1.2503
  103SAPE   C3410512   5.549   6.505   2.844  0.1674 -0.6044  0.1162
  103SAPE   H4X10513   5.479   6.579   2.799 -0.6002 -0.9791  0.6915
  103SAPE   H4Y10514   5.651   6.545   2.865 -0.5862  0.1495  2.5704
  103SAPE   C3510515   5.473   6.449   2.970 -0.1719 -0.2625  0.1538
  103SAPE   H5X10516   5.530   6.360   3.004  0.4356 -1.0212 -2.5778
  103SAPE   H5Y10517   5.372   6.412   2.940 -0.9039 -0.9601  3.1254
  103SAPE   C3610518   5.458   6.554   3.079 -0.1317  0.1790 -0.2629
  103SAPE   H6X10519   5.379   6.630   3.060 -1.0676 -0.8724 -0.7372
  103SAPE   H6Y10520   5.558   6.596   3.101  0.4764 -2.1308  1.8658
  103SAPE   C3710521   5.409   6.483   3.209 -0.2159 -0.2897 -0.2514
  103SAPE   H7X10522   5.484   6.404   3.232 -1.6634 -1.4068  0.8438
  103SAPE   H7Y10523   5.315   6.429   3.182 -1.2468  0.6180  1.3627
  103SAPE   C3810524   5.391   6.566   3.330 -0.1823 -0.9957 -0.2521
  103SAPE   H8X10525   5.334   6.659   3.306  2.2199  1.0406  1.4195
  103SAPE   H8Y10526   5.497   6.593   3.345  0.3441 -2.3721 -1.3022
  103SAPE   C3910527   5.346   6.503   3.460 -0.0274 -0.4859  0.6989
  103SAPE   H9X10528   5.401   6.407   3.466  3.1602  1.1425 -0.6087
  103SAPE   H9Y10529   5.238   6.484   3.442 -0.1444  0.2429  0.5912
  103SAPE  C31010530   5.366   6.593   3.578 -0.3032  0.5611 -0.0290
  103SAPE  H10X10531   5.318   6.691   3.559 -0.4170  0.3093 -1.1075
  103SAPE  H10Y10532   5.475   6.614   3.583  0.2333 -0.7675 -3.2728
  103SAPE  C31110533   5.321   6.539   3.709 -0.4261 -0.2271 -0.4483
  103SAPE  H11X10534   5.351   6.432   3.708  0.1945 -0.0901  0.7680
  103SAPE  H11Y10535   5.212   6.556   3.705 -0.5038 -0.9151 -2.1077
  103SAPE  C31210536   5.387   6.620   3.819 -0.0612  0.1599  0.2619
  103SAPE  H12X10537   5.383   6.729   3.801 -0.6701  0.4664  2.1123
  103SAPE  H12Y10538   5.490   6.582   3.838 -1.1718 -3.2750  0.1059
  103SAPE  C31310539   5.302   6.606   3.947  0.0103 -0.7300 -0.0435
  103SAPE  H13X10540   5.323   6.501   3.974 -2.5932 -1.0593  0.9753
  103SAPE  H13Y10541   5.198   6.616   3.910  0.3213  1.2520 -0.5037
  103SAPE  C31410542   5.335   6.708   4.051 -0.4750  0.1860 -0.5226
  103SAPE  H14X10543   5.309   6.805   4.004 -0.0973  0.1363 -0.8364
  103SAPE  H14Y10544   5.444   6.707   4.068 -0.6010 -1.0227  0.4186
  103SAPE  C31510545   5.266   6.696   4.192 -0.2140  0.2855  0.3737
  103SAPE  H15X10546   5.291   6.596   4.231  0.1786 -0.2757 -1.2393
  103SAPE  H15Y10547   5.157   6.701   4.166  0.2321  0.1057 -1.7763
  103SAPE  C31610548   5.318   6.803   4.286 -0.6288  0.1990 -0.4464
  103SAPE  H16X10549   5.428   6.803   4.298 -0.3823  0.3720 -2.4172
  103SAPE  H16Y10550   5.276   6.787   4.388 -1.7140  0.7218 -0.7963
  103SAPE  C31710551   5.292   6.951   4.248 -0.2164 -0.1667  0.6744
  103SAPE  H17X10552   5.197   6.964   4.193 -0.2894 -1.5786  0.4276
  103SAPE  H17Y10553   5.373   6.976   4.177  0.7508  0.8003  2.0596
  103SAPE  C31810554   5.302   7.060   4.354  0.7080 -0.2168  0.7832
  103SAPE  H18X10555   5.198   7.067   4.393  0.8051  0.2733  0.9602
  103SAPE  H18Y10556   5.326   7.154   4.299 -1.0387 -1.4888 -2.4234
  103SAPE  H18Z10557   5.368   7.029   4.438  0.3787 -1.0176  0.7510
  104SAPE     N10558   5.830   4.529   2.654  0.4267 -0.0172  0.4876
  104SAPE   HN110559   5.827   4.617   2.598 -4.6828 -0.2576 -0.0415
  104SAPE   HN210560   5.732   4.499   2.670  0.4233 -0.0379  0.4264
  104SAPE   HN310561   5.862   4.562   2.747  2.4073 -1.3927  0.3708
  104SAPE   C1210562   5.921   4.419   2.606  0.3881  1.1392 -0.5414
  104SAPE  H12A10563   5.873   4.358   2.526  2.6455 -1.1165 -0.2978
  104SAPE  H12B10564   5.932   4.346   2.689  0.1553  0.1368 -1.3687
  104SAPE   C1110565   6.057   4.484   2.560  0.5724  0.1680 -0.1598
  104SAPE  H11A10566   6.106   4.412   2.490 -0.3935 -2.1755  1.4576
  104SAPE  H11B10567   6.115   4.500   2.653 -0.6177  0.8658  0.4948
  104SAPE     P10568   6.143   4.733   2.511  0.4569  0.0503 -0.1571
  104SAPE   O1310569   6.267   4.670   2.557 -0.5439 -0.3048  0.2598
  104SAPE   O1410570   6.149   4.821   2.390  0.4722  0.6323  0.0850
  104SAPE   O1210571   6.040   4.607   2.486  0.8677 -0.0963 -0.0594
  104SAPE   O1110572   6.090   4.815   2.630 -0.2216 -0.1128  0.6991
  104SAPE    C110573   6.160   4.942   2.649  0.0413 -0.0158  0.0525
  104SAPE    HA10574   6.266   4.945   2.618  0.0946  0.9102  0.3097
  104SAPE    HB10575   6.112   5.016   2.580 -1.0859  0.7977  1.6437
  104SAPE    C210576   6.154   4.994   2.796 -0.3804  0.4794 -0.0602
  104SAPE    HS10577   6.237   5.067   2.811 -0.5117  0.1276  2.9680
  104SAPE   O2110578   6.185   4.885   2.887  0.0310 -0.3776  0.2638
  104SAPE   C2110579   6.314   4.842   2.869 -0.0596  0.6000 -1.0067
  104SAPE   O2210580   6.406   4.909   2.818  0.1393 -0.0264  0.0995
  104SAPE   C2210581   6.326   4.713   2.948 -0.0127 -0.2717  0.1655
  104SAPE   H2R10582   6.398   4.743   3.027 -1.5392  3.7544  0.2410
  104SAPE   H2S10583   6.230   4.689   2.998 -0.5323 -1.9630 -1.4847
  104SAPE    C310584   6.021   5.054   2.839 -0.1160  0.1561 -0.1005
  104SAPE    HX10585   5.935   4.988   2.816 -0.4922 -0.6776  3.2340
  104SAPE    HY10586   6.010   5.146   2.777  0.4016  0.2761 -0.0231
  104SAPE   O3110587   6.022   5.084   2.979  0.2592 -0.9276  0.6117
  104SAPE   C3110588   5.964   4.987   3.060  0.3970 -0.6636 -0.6866
  104SAPE   O3210589   5.943   4.874   3.029 -0.1020  0.3037  0.8408
  104SAPE   C3210590   5.934   5.038   3.195 -0.5286 -0.6928 -0.5730
  104SAPE   H2X10591   5.841   5.097   3.192 -1.2203 -1.6984  0.1866
  104SAPE   H2Y10592   6.014   5.103   3.236  0.4095 -2.6125  0.8442
  104SAPE   C2310593   6.377   4.593   2.861  0.0283  0.5432  0.4313
  104SAPE   H3R10594   6.463   4.629   2.801 -0.2736 -1.1426 -1.0721
  104SAPE   H3S10595   6.299   4.557   2.790  0.7134  2.5565 -1.4398
  104SAPE   C2410596   6.430   4.478   2.944 -0.3086  0.6705  0.1391
  104SAPE   H4R10597   6.354   4.470   3.024  0.7229 -0.8866  1.0250
  104SAPE   H4S10598   6.527   4.511   2.986  0.1306  1.2838 -1.2753
  104SAPE   C2510599   6.448   4.350   2.865  0.5903  0.5394  0.1931
  104SAPE   H5R10600   6.549   4.316   2.838  0.7961  0.1559  1.3989
  104SAPE   C2610601   6.348   4.268   2.818 -0.6201 -0.2408 -0.1465
  104SAPE   H6R10602   6.391   4.172   2.785 -0.7737  0.2668 -1.8835
  104SAPE   C2710603   6.207   4.286   2.857  0.3509 -0.3168  0.8352
  104SAPE   H7R10604   6.154   4.358   2.792  0.1246 -0.8210  0.4502
  104SAPE   H7S10605   6.199   4.333   2.958  1.6431  0.8340  0.4278
  104SAPE   C2810606   6.137   4.152   2.872 -0.1636 -0.0635 -0.0956
  104SAPE   H8R10607   6.149   4.098   2.776  0.5582 -0.7747  0.3821
  104SAPE   C2910608   6.077   4.094   2.979  0.2617 -0.0894  0.8610
  104SAPE   H9R10609   6.022   4.001   2.962 -1.0030  0.8393 -0.4508
  104SAPE  C21010610   6.074   4.136   3.119  0.2269 -0.4601 -0.6335
  104SAPE  H10R10611   6.181   4.154   3.141 -0.3220 -0.6001  2.6650
  104SAPE  H10S10612   6.037   4.052   3.182  1.6094  0.0186  0.9027
  104SAPE  C21110613   5.989   4.259   3.158 -0.5733  0.8081 -0.5335
  104SAPE  H11R10614   5.960   4.330   3.079  0.6006 -0.4868 -2.2161
  104SAPE  C21210615   5.945   4.292   3.281 -0.4125 -0.5296 -0.8872
  104SAPE  H12R10616   5.881   4.379   3.299 -0.9527 -1.5296  2.8038
  104SAPE  C21310617   5.967   4.219   3.406 -0.0475  0.3768 -0.4381
  104SAPE  H13R10618   6.031   4.128   3.404 -2.5928 -1.6189  1.7510
  104SAPE  H13S10619   5.866   4.187   3.440  0.3886  0.5876  1.1220
  104SAPE  C21410620   6.006   4.304   3.529 -0.4565 -0.0758  0.3790
  104SAPE  H14R10621   6.004   4.414   3.518 -1.0569  0.0712  1.6881
  104SAPE  C21510622   6.029   4.242   3.651 -0.2983 -0.5317  0.1909
  104SAPE  H15R10623   6.057   4.299   3.741  0.9942 -1.9993  0.7611
  104SAPE  C21610624   6.028   4.093   3.675  0.1599 -0.1553  0.3321
  104SAPE  H16R10625   6.044   4.030   3.585 -0.4859  0.3093 -0.1131
  104SAPE  H16S10626   5.932   4.064   3.722  1.4424 -1.3959  2.3330
  104SAPE  C21710627   6.127   4.035   3.783 -0.3134  0.9818 -0.3600
  104SAPE  H17R10628   6.104   4.087   3.878 -0.8056 -0.5599  0.3988
  104SAPE  H17S10629   6.227   4.053   3.740 -0.4020  0.0166 -0.9952
  104SAPE  C21810630   6.106   3.886   3.825 -0.4348 -0.0309  0.1358
  104SAPE  H18R10631   6.155   3.827   3.746 -0.1024 -1.9674  1.7095
  104SAPE  H18S10632   5.998   3.860   3.820 -0.7054  1.2117 -0.9890
  104SAPE  C21910633   6.159   3.858   3.968  0.5611 -0.1799  0.3791
  104SAPE  H19R10634   6.246   3.924   3.985  0.8082 -0.2605 -0.5157
  104SAPE  H19S10635   6.187   3.751   3.971 -0.0189 -0.3701 -0.5016
  104SAPE  C22010636   6.043   3.892   4.070  0.1275  0.3936 -0.7663
  104SAPE  H20R10637   6.014   3.997   4.052  0.0934  0.6077  0.4545
  104SAPE  H20S10638   6.083   3.881   4.173  1.2063  0.9108 -1.1126
  104SAPE  H20T10639   5.952   3.830   4.059  0.2273  0.5479 -2.8887
  104SAPE   C3310640   5.932   4.932   3.312  0.8150 -0.1755  0.1677
  104SAPE   H3X10641   6.015   4.858   3.316  1.1567 -0.0390 -2.6326
  104SAPE   H3Y10642   5.844   4.869   3.285 -0.0974  0.9682  0.4116
  104SAPE   C3410643   5.892   4.998   3.447  0.4600 -0.4773  0.3647
  104SAPE   H4X10644   5.813   5.074   3.429  0.9114 -0.2343 -0.7080
  104SAPE   H4Y10645   5.984   5.041   3.491  0.5669 -0.9609  0.6194
  104SAPE   C3510646   5.840   4.891   3.539  0.1569 -0.2264  0.1969
  104SAPE   H5X10647   5.752   4.841   3.495 -0.1215  0.6177 -0.2231
  104SAPE   H5Y10648   5.787   4.936   3.626 -1.2420 -0.4990 -0.4935
  104SAPE   C3610649   5.948   4.798   3.594  0.1267  0.3779  0.1684
  104SAPE   H6X10650   6.001   4.850   3.676  0.6943  2.3800 -1.3717
  104SAPE   H6Y10651   6.016   4.779   3.508 -0.5217  0.6445 -0.4196
  104SAPE   C3710652   5.892   4.657   3.640 -0.8541  0.6943 -0.4469
  104SAPE   H7X10653   5.982   4.591   3.642 -0.4468  1.2511  0.4632
  104SAPE   H7Y10654   5.825   4.618   3.562  0.0569  1.9894 -1.9404
  104SAPE   C3810655   5.817   4.652   3.779 -0.0220  0.3619  0.4567
  104SAPE   H8X10656   5.711   4.628   3.755  0.0232  1.0327 -0.4596
  104SAPE   H8Y10657   5.817   4.757   3.814  3.6561  0.4744  0.5175
  104SAPE   C3910658   5.898   4.577   3.883 -0.0915  0.0083 -0.4424
  104SAPE   H9X10659   5.899   4.474   3.840 -1.4802 -0.4694  0.5659
  104SAPE   H9Y10660   5.844   4.560   3.978 -0.3015  1.9232 -0.1977
  104SAPE  C31010661   6.043   4.627   3.903  0.8072 -0.1130 -0.6413
  104SAPE  H10X10662   6.039   4.733   3.936 -2.6664 -0.2695 -0.2323
  104SAPE  H10Y10663   6.089   4.620   3.802 -0.1336  0.3491 -1.1143
  104SAPE  C31110664   6.120   4.546   4.015  0.4665  0.2327  0.0026
  104SAPE  H11X10665   6.082   4.444   4.040 -0.6899  0.7319  0.3333
  104SAPE  H11Y10666   6.105   4.595   4.113  1.1665  2.1913 -0.8135
  104SAPE  C31210667   6.272   4.519   3.990  0.1722  0.3229 -0.4686
  104SAPE  H12X10668   6.321   4.486   4.084 -1.1497  1.8624  0.8232
  104SAPE  H12Y10669   6.308   4.620   3.960 -2.1471  2.5790  3.5410
  104SAPE  C31310670   6.302   4.404   3.890 -0.2008 -0.5993 -0.1378
  104SAPE  H13X10671   6.237   4.395   3.801  1.6779 -0.7238 -1.5535
  104SAPE  H13Y10672   6.286   4.315   3.954 -1.5055 -0.0707  0.3042
  104SAPE  C31410673   6.451   4.407   3.838  0.7118 -0.0986 -0.2427
  104SAPE  H14X10674   6.508   4.440   3.928 -0.3951  3.7047 -0.7574
  104SAPE  H14Y10675   6.467   4.493   3.769  1.0473 -0.1606 -0.2462
  104SAPE  C31510676   6.484   4.280   3.771 -0.4284  0.3790  0.7353
  104SAPE  H15X10677   6.403   4.261   3.697 -0.9869  1.9301  0.9203
  104SAPE  H15Y10678   6.470   4.201   3.848  1.9996 -0.5029  0.3802
  104SAPE  C31610679   6.626   4.275   3.705  0.3926  0.3842  0.6351
  104SAPE  H16X10680   6.633   4.359   3.633  3.7692 -1.0893 -0.9883
  104SAPE  H16Y10681   6.638   4.184   3.641  0.3549 -0.1719  1.4079
  104SAPE  C31710682   6.748   4.287   3.799  0.5110  0.3310 -0.2796
  104SAPE  H17X10683   6.769   4.197   3.860 -0.5601  0.4733  0.3435
  104SAPE  H17Y10684   6.714   4.362   3.874 -2.1868 -0.2407 -0.8229
  104SAPE  C31810685   6.879   4.320   3.730 -0.3755  0.2118 -0.1061
  104SAPE  H18X10686   6.953   4.355   3.805 -0.5539  0.6302 -0.1199
  104SAPE  H18Y10687   6.856   4.401   3.658 -0.6762  0.1333 -0.1006
  104SAPE  H18Z10688   6.906   4.228   3.674 -0.4711 -0.7720  1.3853
  105SAPE     N10689   2.691   1.350   2.257  0.8668  0.0668 -0.1110
  105SAPE   HN110690   2.762   1.334   2.331  0.0824  1.1986  0.9490
  105SAPE   HN210691   2.611   1.351   2.324  2.2165 -2.3927  1.6865
  105SAPE   HN310692   2.667   1.259   2.213  1.0394 -0.4731  0.8648
  105SAPE   C1210693   2.715   1.474   2.183  0.3029 -0.8612  0.7082
  105SAPE  H12A10694   2.630   1.478   2.111  1.7299 -0.6831 -1.0575
  105SAPE  H12B10695   2.809   1.456   2.126 -0.6492 -2.4644 -0.4522
  105SAPE   C1110696   2.711   1.590   2.282 -0.1019  0.3015  0.5972
  105SAPE  H11A10697   2.729   1.683   2.223 -0.1054  0.0273  0.1617
  105SAPE  H11B10698   2.795   1.595   2.355  0.7426  0.9613 -0.3867
  105SAPE     P10699   2.450   1.662   2.312 -0.1066  0.0682  0.2522
  105SAPE   O1310700   2.486   1.796   2.271 -0.0662  0.1541  0.3349
  105SAPE   O1410701   2.380   1.567   2.220  0.0196  0.1693 -0.1375
  105SAPE   O1210702   2.588   1.592   2.354  0.8418  0.2916 -0.2350
  105SAPE   O1110703   2.369   1.668   2.440 -0.4405 -0.0078 -0.0292
  105SAPE    C110704   2.427   1.722   2.556 -0.6398 -0.4557 -0.1755
  105SAPE    HA10705   2.500   1.654   2.606  0.6587  1.3460  0.4944
  105SAPE    HB10706   2.493   1.811   2.547 -0.7036  0.1145  3.5743
  105SAPE    C210707   2.313   1.758   2.655  0.8237  0.2214 -0.3408
  105SAPE    HS10708   2.228   1.776   2.586  1.6303 -1.6254 -1.9237
  105SAPE   O2110709   2.351   1.862   2.736 -0.2201  0.5232 -0.2548
  105SAPE   C2110710   2.245   1.928   2.791  0.0513 -0.6741 -1.1052
  105SAPE   O2210711   2.128   1.902   2.777 -0.4984  0.3090  0.1646
  105SAPE   C2210712   2.306   2.030   2.887  0.1791  0.0048  0.2394
  105SAPE   H2R10713   2.395   1.979   2.928 -1.3641 -0.6751  2.9849
  105SAPE   H2S10714   2.329   2.119   2.825  1.9083  0.9198  2.0875
  105SAPE    C310715   2.279   1.634   2.746 -0.1555  0.2125 -0.1481
  105SAPE    HX10716   2.289   1.547   2.678 -0.5450  0.0457  0.0053
  105SAPE    HY10717   2.175   1.646   2.781 -0.0048 -0.1040  0.4299
  105SAPE   O3110718   2.366   1.626   2.865 -0.2009 -0.3848 -0.0955
  105SAPE   C3110719   2.444   1.526   2.860 -0.9617  1.0276  0.7278
  105SAPE   O3210720   2.420   1.412   2.813 -0.3756  0.1340  0.3579
  105SAPE   C3210721   2.578   1.557   2.920  0.2774 -0.8557 -0.5850
  105SAPE   H2X10722   2.580   1.659   2.962  1.4273 -0.5368 -1.3775
  105SAPE   H2Y10723   2.655   1.553   2.840  2.5085 -0.2908  1.4234
  105SAPE   C2310724   2.200   2.069   2.998 -0.1700  0.3807  0.0828
  105SAPE   H3R10725   2.098   2.036   2.969  0.7134 -0.0060 -2.8654
  105SAPE   H3S10726   2.195   2.179   2.983 -0.9935  0.2373 -0.7268
  105SAPE   C2410727   2.256   2.055   3.147  0.1209 -0.1060 -1.2220
  105SAPE   H4R10728   2.175   2.079   3.219  0.5625  1.1450 -1.1222
  105SAPE   H4S10729   2.344   2.123   3.152  0.9615 -1.1368 -1.5570
  105SAPE   C2510730   2.301   1.914   3.164  0.2926  0.7754 -0.0674
  105SAPE   H5R10731   2.397   1.883   3.119  0.7164  1.3565  0.4190
  105SAPE   C2610732   2.229   1.820   3.232 -0.2269  0.1974 -0.1647
  105SAPE   H6R10733   2.269   1.720   3.212 -0.4857  0.2532 -0.9703
  105SAPE   C2710734   2.100   1.832   3.303 -0.1037  0.2259  1.1469
  105SAPE   H7R10735   2.038   1.743   3.275  0.4016  1.1180 -3.8333
  105SAPE   H7S10736   2.045   1.911   3.248  1.1075  0.7333  0.6310
  105SAPE   C2810737   2.118   1.868   3.445  0.4403 -0.4728  0.6662
  105SAPE   H8R10738   2.207   1.925   3.475  0.8981 -0.8770  0.0844
  105SAPE   C2910739   2.045   1.822   3.555  0.3814  0.2279  1.0097
  105SAPE   H9R10740   2.080   1.851   3.655 -0.2269  0.5279  1.1389
  105SAPE  C21010741   1.921   1.733   3.550 -0.1035 -0.3584 -0.2935
  105SAPE  H10R10742   1.871   1.729   3.451  0.8739  0.8155 -0.8574
  105SAPE  H10S10743   1.849   1.787   3.614  1.0996 -0.3743  1.1470
  105SAPE  C21110744   1.945   1.589   3.593 -0.0179 -0.3039 -0.3354
  105SAPE  H11R10745   1.963   1.517   3.512  4.3366 -2.8745  2.5245
  105SAPE  C21210746   1.947   1.540   3.715  0.0316  0.1413 -0.0135
  105SAPE  H12R10747   1.959   1.434   3.739  2.0905  0.2024 -0.5948
  105SAPE  C21310748   1.947   1.621   3.841 -0.5278 -0.0764  0.0374
  105SAPE  H13R10749   1.949   1.729   3.815  1.1992 -0.3394 -1.0761
  105SAPE  H13S10750   2.032   1.588   3.905 -0.2943 -0.0462 -0.2595
  105SAPE  C21410751   1.828   1.615   3.931 -0.0376  0.6427  0.7969
  105SAPE  H14R10752   1.744   1.561   3.884 -1.1682 -0.0797  3.4465
  105SAPE  C21510753   1.797   1.659   4.053 -0.3555  0.1004 -0.0807
  105SAPE  H15R10754   1.694   1.636   4.086 -0.5993 -1.5383 -1.8049
  105SAPE  C21610755   1.883   1.723   4.154  0.0963 -0.4190 -0.2368
  105SAPE  H16R10756   1.991   1.726   4.128 -0.0243 -1.9256 -1.0123
  105SAPE  H16S10757   1.867   1.686   4.257  0.4499  0.9671  0.3303
  105SAPE  C21710758   1.823   1.866   4.181 -0.2097  0.3720  0.2633
  105SAPE  H17R10759   1.712   1.860   4.176 -0.1022 -1.8553 -0.6416
  105SAPE  H17S10760   1.854   1.929   4.094 -0.4444 -0.5297 -0.4974
  105SAPE  C21810761   1.876   1.941   4.309  0.1710  0.2301  0.1421
  105SAPE  H18R10762   1.979   1.983   4.299  0.1730 -0.0045 -0.8995
  105SAPE  H18S10763   1.882   1.875   4.398  0.4870 -2.3519 -1.7129
  105SAPE  C21910764   1.771   2.044   4.337  0.2192 -0.0795 -0.6078
  105SAPE  H19R10765   1.682   1.978   4.350  0.7312 -0.9485 -1.3931
  105SAPE  H19S10766   1.748   2.110   4.251  1.6810  0.5044 -0.5828
  105SAPE  C22010767   1.800   2.137   4.463  0.2208  0.5530 -0.2313
  105SAPE  H20R10768   1.762   2.069   4.542  1.6724 -1.2755 -1.0332
  105SAPE  H20S10769   1.733   2.226   4.459  0.9367  1.0600 -1.4958
  105SAPE  H20T10770   1.906   2.170   4.465  0.0450  1.4600 -2.6679
  105SAPE   C3310771   2.618   1.460   3.031  0.2486 -0.7114 -0.0800
  105SAPE   H3X10772   2.720   1.471   3.074  0.5490 -2.5124 -0.2744
  105SAPE   H3Y10773   2.618   1.359   2.984  2.5507 -1.2907  1.0081
  105SAPE   C3410774   2.530   1.459   3.155  0.6193  0.1743  0.5873
  105SAPE   H4X10775   2.428   1.425   3.127  0.7427  0.0548  0.2797
  105SAPE   H4Y10776   2.518   1.565   3.186  1.9602 -0.2749  2.7933
  105SAPE   C3510777   2.590   1.383   3.276 -0.0429  0.5124 -0.5143
  105SAPE   H5X10778   2.510   1.385   3.353  0.2771  0.2329 -0.1732
  105SAPE   H5Y10779   2.670   1.454   3.305 -1.8237  2.0709  0.8800
  105SAPE   C3610780   2.643   1.241   3.251 -0.3266 -0.5249 -0.5661
  105SAPE   H6X10781   2.725   1.230   3.176 -1.1859 -2.0744 -1.3268
  105SAPE   H6Y10782   2.557   1.189   3.204 -1.2984  0.6908 -0.1931
  105SAPE   C3710783   2.684   1.155   3.372  0.7685  1.1899 -0.1780
  105SAPE   H7X10784   2.767   1.216   3.414  1.7551  0.0872 -0.4582
  105SAPE   H7Y10785   2.727   1.064   3.324  0.3933 -1.2146  3.6271
  105SAPE   C3810786   2.571   1.134   3.479 -0.3751 -0.1266  0.8293
  105SAPE   H8X10787   2.484   1.078   3.438 -1.9106 -0.2094  3.9434
  105SAPE   H8Y10788   2.536   1.234   3.511 -0.2462 -0.3126  1.5604
  105SAPE   C3910789   2.640   1.053   3.591  0.1922 -0.1042 -0.0870
  105SAPE   H9X10790   2.740   1.094   3.617  1.0902 -1.9382 -0.4345
  105SAPE   H9Y10791   2.653   0.947   3.560 -0.2166 -0.4366  0.8556
  105SAPE  C31010792   2.547   1.061   3.715  0.3808  0.5083  0.1174
  105SAPE  H10X10793   2.461   0.995   3.687 -0.0395  1.5810 -1.2698
  105SAPE  H10Y10794   2.502   1.162   3.721  0.6732  0.5622  1.8260
  105SAPE  C31110795   2.596   1.011   3.850 -0.3868 -0.1613  0.1889
  105SAPE  H11X10796   2.654   1.093   3.897  1.3938 -0.5504 -1.2046
  105SAPE  H11Y10797   2.649   0.913   3.850  1.0502  0.5914  0.4476
  105SAPE  C31210798   2.475   0.986   3.947  0.2082 -0.2950  0.1059
  105SAPE  H12X10799   2.410   0.908   3.901  0.1968 -0.4547  0.3893
  105SAPE  H12Y10800   2.420   1.081   3.940 -2.0787 -1.5568  0.0688
  105SAPE  C31310801   2.518   0.950   4.091  0.1775 -0.0938  0.4561
  105SAPE  H13X10802   2.615   1.000   4.112  0.5868 -0.5637 -0.2639
  105SAPE  H13Y10803   2.533   0.841   4.077  2.2425  0.1070  0.8908
  105SAPE  C31410804   2.410   0.994   4.188  0.3158 -0.1248 -0.1661
  105SAPE  H14X10805   2.325   0.925   4.172  1.3281 -1.9704  1.8352
  105SAPE  H14Y10806   2.368   1.097   4.179 -1.9672 -0.8888  0.9719
  105SAPE  C31510807   2.444   0.978   4.334  0.5785  0.0986  0.0107
  105SAPE  H15X10808   2.389   1.053   4.395 -1.0361 -1.6073  0.7516
  105SAPE  H15Y10809   2.554   0.994   4.337  0.1132  4.4980 -0.4539
  105SAPE  C31610810   2.417   0.836   4.394 -0.7861 -0.2892  0.2500
  105SAPE  H16X10811   2.446   0.760   4.318  0.9417  1.5895 -1.0744
  105SAPE  H16Y10812   2.314   0.813   4.429  0.1241 -1.0215  2.5884
  105SAPE  C31710813   2.504   0.819   4.522  0.3340  0.2870 -0.4371
  105SAPE  H17X10814   2.471   0.890   4.601  1.6226  1.2610 -0.7275
  105SAPE  H17Y10815   2.609   0.845   4.499  1.3981 -1.8713  1.5515
  105SAPE  C31810816   2.504   0.681   4.579 -0.4938  0.8477 -0.4206
  105SAPE  H18X10817   2.571   0.671   4.667 -0.0778  2.0212 -0.5857
  105SAPE  H18Y10818   2.541   0.604   4.508  3.4270  0.9099  1.2683
  105SAPE  H18Z10819   2.403   0.652   4.614  0.5102 -2.4485  0.0575
  106SAPE     N10820   1.554   4.671   2.205 -0.0412 -0.4863  0.2140
  106SAPE   HN110821   1.577   4.676   2.307 -0.6206 -0.9936  0.3755
  106SAPE   HN210822   1.451   4.686   2.203  0.0324  0.2014  0.9349
  106SAPE   HN310823   1.578   4.575   2.176 -1.5009 -0.0143 -2.9649
  106SAPE   C1210824   1.642   4.760   2.128  0.5553 -1.0532 -0.7700
  106SAPE  H12A10825   1.610   4.866   2.142  0.7463 -1.1429  0.4518
  106SAPE  H12B10826   1.637   4.744   2.018  0.3953 -2.1204 -0.6115
  106SAPE   C1110827   1.793   4.750   2.172  0.6840  0.1708 -0.1002
  106SAPE  H11A10828   1.789   4.738   2.282 -1.0310  0.0958 -0.1335
  106SAPE  H11B10829   1.839   4.849   2.153 -0.5107  0.4855 -1.6589
  106SAPE     P10830   1.881   4.499   2.162  0.0517  0.0079 -0.0781
  106SAPE   O1310831   1.748   4.453   2.206 -0.0930  0.3525 -0.1651
  106SAPE   O1410832   1.952   4.423   2.056 -0.1440  0.4794  0.0544
  106SAPE   O1210833   1.861   4.644   2.102  0.1691 -0.4533 -0.1974
  106SAPE   O1110834   1.984   4.519   2.280  0.5230  0.7486 -0.1584
  106SAPE    C110835   2.114   4.571   2.264  0.4504  0.2860  0.5840
  106SAPE    HA10836   2.174   4.503   2.199  0.1558  1.5012 -1.0254
  106SAPE    HB10837   2.105   4.670   2.213 -0.2905  0.0550  0.2550
  106SAPE    C210838   2.195   4.577   2.401 -0.7026  0.0847 -0.2390
  106SAPE    HS10839   2.305   4.574   2.388 -0.6843 -0.3205  0.0027
  106SAPE   O2110840   2.159   4.470   2.482  0.3449  0.3268  0.1567
  106SAPE   C2110841   2.178   4.349   2.447  0.5893 -0.5341  0.2608
  106SAPE   O2210842   2.210   4.302   2.341 -0.4286 -0.0182  0.8331
  106SAPE   C2210843   2.138   4.255   2.565  0.0232  0.8562 -0.3513
  106SAPE   H2R10844   2.052   4.305   2.614  1.5662  0.9273  2.5207
  106SAPE   H2S10845   2.124   4.151   2.528 -1.2569  0.4530  1.1865
  106SAPE    C310846   2.162   4.709   2.485 -0.3063 -0.1739  0.0987
  106SAPE    HX10847   2.053   4.730   2.484 -0.1212  0.9440  0.9907
  106SAPE    HY10848   2.190   4.793   2.418 -1.2252 -0.7245 -1.0105
  106SAPE   O3110849   2.229   4.710   2.612 -0.5022  0.4626 -0.4478
  106SAPE   C3110850   2.152   4.669   2.711  0.9886  0.0848 -0.3065
  106SAPE   O3210851   2.045   4.624   2.699  0.2285 -0.0418 -0.6900
  106SAPE   C3210852   2.224   4.698   2.839 -0.8890  0.5740 -0.2466
  106SAPE   H2X10853   2.317   4.750   2.809 -0.5782 -0.2855 -0.8113
  106SAPE   H2Y10854   2.249   4.606   2.897  2.2630  3.9216  4.3760
  106SAPE   C2310855   2.252   4.233   2.673  0.9454 -0.2206 -0.0138
  106SAPE   H3R10856   2.349   4.231   2.619  0.4231 -2.7636 -1.0119
  106SAPE   H3S10857   2.247   4.128   2.708 -0.6585 -1.0282 -2.4510
  106SAPE   C2410858   2.249   4.316   2.801  0.0580 -0.3189 -0.2232
  106SAPE   H4R10859   2.239   4.423   2.775 -1.2959 -0.4168 -0.1496
  106SAPE   H4S10860   2.346   4.316   2.856 -0.0735 -0.4171  0.0103
  106SAPE   C2510861   2.129   4.297   2.889 -0.3223 -0.4399 -0.6122
  106SAPE   H5R10862   2.039   4.248   2.849  0.0540 -1.0870 -0.6743
  106SAPE   C2610863   2.132   4.330   3.014 -0.0520  0.0212 -0.3548
  106SAPE   H6R10864   2.036   4.311   3.066  1.1421 -2.0262  1.2855
  106SAPE   C2710865   2.248   4.391   3.087  0.1989 -0.0428  0.2957
  106SAPE   H7R10866   2.207   4.460   3.164 -2.0337 -0.4006 -0.4829
  106SAPE   H7S10867   2.304   4.467   3.029 -1.1115  1.6369  1.1273
  106SAPE   C2810868   2.344   4.297   3.154  0.0855 -0.4601  0.1106
  106SAPE   H8R10869   2.382   4.211   3.097 -1.7686 -1.5361  0.4207
  106SAPE   C2910870   2.390   4.306   3.277 -0.5153 -0.0459 -0.1387
  106SAPE   H9R10871   2.473   4.235   3.294 -0.2137 -0.1538 -1.8459
  106SAPE  C21010872   2.353   4.404   3.380  0.0503 -0.1856  0.0980
  106SAPE  H10R10873   2.279   4.480   3.347  0.6459 -0.0868 -1.0623
  106SAPE  H10S10874   2.446   4.460   3.407 -0.1723  0.8738 -1.2206
  106SAPE  C21110875   2.310   4.315   3.491 -0.1890 -0.0547  0.2296
  106SAPE  H11R10876   2.275   4.216   3.457 -0.5227 -0.0108  0.4389
  106SAPE  C21210877   2.306   4.338   3.626 -0.0159 -0.1913 -0.6189
  106SAPE  H12R10878   2.264   4.255   3.685 -0.0857 -0.3066 -0.8314
  106SAPE  C21310879   2.336   4.470   3.700 -0.1281  0.2248 -0.0629
  106SAPE  H13R10880   2.374   4.546   3.628 -2.0772 -0.2797 -1.6880
  106SAPE  H13S10881   2.420   4.446   3.770  0.1518  3.4588  0.8899
  106SAPE  C21410882   2.222   4.512   3.788 -0.2746 -0.2808  0.5602
  106SAPE  H14R10883   2.173   4.606   3.756  1.0716  0.9606  1.9607
  106SAPE  C21510884   2.188   4.458   3.905  0.4518 -0.1816 -0.0043
  106SAPE  H15R10885   2.102   4.503   3.957  0.8697  2.1489 -1.2087
  106SAPE  C21610886   2.241   4.332   3.968  0.2092 -0.3702 -0.5463
  106SAPE  H16R10887   2.345   4.315   3.935  0.7631  1.1464  0.3037
  106SAPE  H16S10888   2.161   4.257   3.949 -1.4986  0.8786  1.3444
  106SAPE  C21710889   2.244   4.336   4.123  0.0983 -0.2899  0.8432
  106SAPE  H17R10890   2.260   4.233   4.163 -1.4835 -1.2346 -0.7880
  106SAPE  H17S10891   2.155   4.371   4.179 -0.7934  1.0520 -1.3008
  106SAPE  C21810892   2.346   4.433   4.172 -0.3349 -0.1404  0.4138
  106SAPE  H18R10893   2.321   4.537   4.141  2.2595  0.6431  0.6991
  106SAPE  H18S10894   2.439   4.399   4.122 -1.2428  0.6996 -2.0000
  106SAPE  C21910895   2.359   4.422   4.318  0.3754 -1.2119 -0.2350
  106SAPE  H19R10896   2.266   4.442   4.374 -2.3824 -1.5293 -4.2840
  106SAPE  H19S10897   2.427   4.507   4.343 -2.0945  1.2748 -1.3679
  106SAPE  C22010898   2.423   4.292   4.373 -0.4337  0.3043  0.5317
  106SAPE  H20R10899   2.360   4.203   4.351  1.9186 -1.5609  0.8613
  106SAPE  H20S10900   2.423   4.299   4.484  0.9791  1.0148  0.5067
  106SAPE  H20T10901   2.528   4.279   4.340 -0.2209 -0.5722  1.5122
  106SAPE   C3310902   2.142   4.792   2.928 -0.5924  0.1019  0.3755
  106SAPE   H3X10903   2.048   4.740   2.956 -0.0617 -0.5165  1.0465
  106SAPE   H3Y10904   2.102   4.883   2.878  0.2863  1.0171  1.2721
  106SAPE   C3410905   2.221   4.822   3.055 -0.0593  0.7333 -0.5891
  106SAPE   H4X10906   2.282   4.914   3.039  0.9545  0.0567 -0.7302
  106SAPE   H4Y10907   2.298   4.745   3.081 -1.6375 -0.4243  0.8268
  106SAPE   C3510908   2.148   4.847   3.186  0.1198 -1.1318  0.0301
  106SAPE   H5X10909   2.094   4.753   3.209  0.2730 -1.2170  0.0389
  106SAPE   H5Y10910   2.077   4.931   3.168 -2.1568 -2.7857  0.8943
  106SAPE   C3610911   2.247   4.879   3.300 -0.0353  0.1125 -0.1682
  106SAPE   H6X10912   2.286   4.983   3.293  3.0656 -0.8197  1.0952
  106SAPE   H6Y10913   2.336   4.814   3.284  0.1977  0.9173 -2.5760
  106SAPE   C3710914   2.185   4.854   3.442  0.3091  0.5868  0.8138
  106SAPE   H7X10915   2.157   4.747   3.453 -0.1670  0.6290  0.0998
  106SAPE   H7Y10916   2.092   4.914   3.429 -0.9942 -0.9121  2.7337
  106SAPE   C3810917   2.282   4.907   3.548  0.3355  0.4466 -0.4248
  106SAPE   H8X10918   2.325   5.007   3.523  1.3676 -0.8760 -4.8650
  106SAPE   H8Y10919   2.371   4.844   3.565  0.1808  0.2254 -0.4354
  106SAPE   C3910920   2.212   4.926   3.684  0.8918 -0.1345 -0.2290
  106SAPE   H9X10921   2.163   4.834   3.722 -2.4234  1.8012  0.6981
  106SAPE   H9Y10922   2.133   5.002   3.665  3.2806  2.7659  0.5755
  106SAPE  C31010923   2.306   4.985   3.786  0.1897 -0.3229 -0.7795
  106SAPE  H10X10924   2.355   5.081   3.760  2.3387 -1.5979 -1.7827
  106SAPE  H10Y10925   2.385   4.908   3.796 -0.8231 -1.6197 -2.2188
  106SAPE  C31110926   2.239   5.007   3.926  0.4053 -0.6812  0.4893
  106SAPE  H11X10927   2.179   4.914   3.943 -0.3162 -0.6201 -1.4170
  106SAPE  H11Y10928   2.172   5.095   3.927  0.6665 -0.4606  2.6657
  106SAPE  C31210929   2.339   5.015   4.038  0.4665  0.2098 -0.1136
  106SAPE  H12X10930   2.403   4.925   4.038  0.2477  0.0545 -0.1364
  106SAPE  H12Y10931   2.299   5.012   4.141  0.3546 -2.5443 -0.1809
  106SAPE  C31310932   2.446   5.131   4.034 -0.3475  0.7143  0.0467
  106SAPE  H13X10933   2.479   5.150   3.930 -0.5912  2.2659  0.2250
  106SAPE  H13Y10934   2.537   5.098   4.087  0.4845 -0.3596 -1.9258
  106SAPE  C31410935   2.389   5.266   4.092  0.2508  1.0606 -0.5923
  106SAPE  H14X10936   2.315   5.298   4.015 -0.5035 -0.2620 -0.4418
  106SAPE  H14Y10937   2.478   5.333   4.088  0.5633  0.5929 -2.9982
  106SAPE  C31510938   2.335   5.272   4.234  1.1513  0.0508 -0.0184
  106SAPE  H15X10939   2.413   5.226   4.299 -0.0809 -1.9734  0.1149
  106SAPE  H15Y10940   2.242   5.213   4.246  1.4696 -1.0002 -2.2553
  106SAPE  C31610941   2.296   5.411   4.276 -0.2761  0.2261  0.6199
  106SAPE  H16X10942   2.381   5.482   4.273  0.2802 -0.3798  1.4678
  106SAPE  H16Y10943   2.271   5.403   4.384  1.7045 -1.5866  1.0018
  106SAPE  C31710944   2.174   5.459   4.205 -0.1400  0.5783 -0.2724
  106SAPE  H17X10945   2.092   5.384   4.216  0.3138  0.1196  0.0162
  106SAPE  H17Y10946   2.206   5.462   4.099 -3.4022 -0.7173 -1.4377
  106SAPE  C31810947   2.130   5.593   4.238  0.2349 -0.1863  0.6987
  106SAPE  H18X10948   2.051   5.629   4.168 -1.1253 -0.5352  2.0118
  106SAPE  H18Y10949   2.211   5.668   4.222  0.2111  0.0813  1.7535
  106SAPE  H18Z10950   2.089   5.610   4.339 -3.8330  2.2627 -1.0850
  107SAPE     N10951   5.283   0.849   2.227  0.7032 -0.2160 -0.2801
  107SAPE   HN110952   5.339   0.860   2.140  0.8217  0.5862 -0.1101
  107SAPE   HN210953   5.250   0.750   2.224  0.2413 -0.0471 -0.8281
  107SAPE   HN310954   5.192   0.899   2.224 -2.0775 -4.7302 -0.5573
  107SAPE   C1210955   5.344   0.866   2.363  0.6254  0.3442 -0.0854
  107SAPE  H12A10956   5.274   0.822   2.438 -1.1830  3.5527  0.2607
  107SAPE  H12B10957   5.351   0.975   2.383  0.2135  0.4971 -0.7432
  107SAPE   C1110958   5.484   0.795   2.351 -0.7705 -0.3102 -0.3614
  107SAPE  H11A10959   5.480   0.687   2.325  1.1058 -0.5155  0.0332
  107SAPE  H11B10960   5.526   0.793   2.454 -1.9105  0.4803  0.1441
  107SAPE     P10961   5.645   0.993   2.307 -0.3249 -0.1764 -0.3202
  107SAPE   O1310962   5.738   1.025   2.198 -0.4678  0.8764 -0.1460
  107SAPE   O1410963   5.546   1.097   2.342  0.8425 -0.0652 -0.0617
  107SAPE   O1210964   5.577   0.858   2.266  0.6487  0.1042 -0.1775
  107SAPE   O1110965   5.726   0.960   2.437  0.4213 -0.8703  0.0583
  107SAPE    C110966   5.856   0.905   2.441 -0.7081 -0.2034 -0.1086
  107SAPE    HA10967   5.862   0.806   2.392  1.0353 -0.4535  0.5445
  107SAPE    HB10968   5.935   0.971   2.399 -0.5816 -0.2188  0.1047
  107SAPE    C210969   5.893   0.870   2.583  0.8150 -0.3435 -0.0718
  107SAPE    HS10970   5.827   0.788   2.619  1.1233 -0.5476  0.0317
  107SAPE   O2110971   5.893   0.980   2.675  0.0568  0.4974  0.3480
  107SAPE   C2110972   5.785   1.028   2.716  0.3484  0.1480 -0.5163
  107SAPE   O2210973   5.675   0.974   2.721 -0.0859  0.0307 -0.2104
  107SAPE   C2210974   5.824   1.159   2.777  0.0803  0.8746  0.2765
  107SAPE   H2R10975   5.917   1.144   2.836 -0.1845 -1.6009  0.1518
  107SAPE   H2S10976   5.853   1.226   2.693  0.3870  2.0026  1.2559
  107SAPE    C310977   6.037   0.807   2.596  0.1120 -0.3992  0.3761
  107SAPE    HX10978   6.112   0.863   2.536 -0.4981 -0.5709 -0.5708
  107SAPE    HY10979   6.026   0.711   2.540  0.5719 -0.0552 -0.3159
  107SAPE   O3110980   6.085   0.775   2.727 -0.3643 -0.4081  0.2466
  107SAPE   C3110981   6.194   0.695   2.736  0.0906  0.0456 -0.1761
  107SAPE   O3210982   6.270   0.666   2.645  0.6632 -0.2938 -0.4732
  107SAPE   C3210983   6.184   0.633   2.878  0.2160 -0.2910  0.5606
  107SAPE   H2X10984   6.272   0.566   2.892  0.7136 -0.0236 -1.0492
  107SAPE   H2Y10985   6.093   0.571   2.878 -1.0590  1.5001  1.2906
  107SAPE   C2310986   5.709   1.234   2.850 -0.6344  0.2586 -1.2670
  107SAPE   H3R10987   5.688   1.181   2.946 -0.1552 -1.9034 -2.2978
  107SAPE   H3S10988   5.616   1.238   2.789 -0.3215  2.5121 -1.7080
  107SAPE   C2410989   5.734   1.389   2.861 -0.1262 -0.1194 -0.6849
  107SAPE   H4R10990   5.643   1.436   2.904  1.8067 -1.0781  5.4035
  107SAPE   H4S10991   5.736   1.429   2.758 -0.5433 -0.2295 -0.7366
  107SAPE   C2510992   5.847   1.411   2.956 -0.5563 -0.4140  0.0490
  107SAPE   H5R10993   5.946   1.398   2.910 -0.6796 -2.8113  0.3211
  107SAPE   C2610994   5.842   1.468   3.082  0.2677  0.2737 -0.5819
  107SAPE   H6R10995   5.934   1.478   3.142 -0.0714 -0.4549  0.0905
  107SAPE   C2710996   5.729   1.506   3.172 -0.2664 -0.0724  0.3271
  107SAPE   H7R10997   5.660   1.572   3.115  0.5747  0.2042 -0.3926
  107SAPE   H7S10998   5.765   1.580   3.247 -0.3017 -1.3176  1.6086
  107SAPE   C2810999   5.644   1.390   3.219  0.1339 -0.1291 -0.1521
  107SAPE   H8R11000   5.622   1.306   3.151  2.6676  0.2490 -1.5544
  107SAPE   C2911001   5.603   1.361   3.348  0.2009 -1.0015 -0.3619
  107SAPE   H9R11002   5.556   1.264   3.371  1.4456 -1.7164 -0.7256
  107SAPE  C21011003   5.629   1.446   3.472  0.0994 -0.3494  0.5812
  107SAPE  H10R11004   5.536   1.498   3.504  0.4886 -0.5304  2.0757
  107SAPE  H10S11005   5.684   1.538   3.442 -2.4195  1.5066  1.2518
  107SAPE  C21111006   5.703   1.383   3.589 -0.3497 -0.0507  0.2775
  107SAPE  H11R11007   5.782   1.313   3.560 -0.1536 -0.9542  2.7727
  107SAPE  C21211008   5.682   1.399   3.723 -0.0721 -0.2708 -0.0925
  107SAPE  H12R11009   5.740   1.338   3.794 -2.3344 -0.4610  1.7196
  107SAPE  C21311010   5.567   1.482   3.776  0.0174 -0.1216 -0.2430
  107SAPE  H13R11011   5.481   1.412   3.773  0.8121 -1.1544  0.2910
  107SAPE  H13S11012   5.544   1.570   3.711  1.2291 -0.8113 -1.6545
  107SAPE  C21411013   5.600   1.521   3.916  0.2346  0.0893  0.2890
  107SAPE  H14R11014   5.649   1.441   3.973  1.1296  2.1771  2.6380
  107SAPE  C21511015   5.570   1.635   3.984  0.2743  0.0439  0.0458
  107SAPE  H15R11016   5.601   1.650   4.088 -0.3038 -2.5312  0.6381
  107SAPE  C21611017   5.495   1.754   3.933  0.2563 -0.0986  0.4040
  107SAPE  H16R11018   5.409   1.727   3.868  0.4301  0.4774 -0.0706
  107SAPE  H16S11019   5.558   1.826   3.877  0.8240  0.1792  1.3753
  107SAPE  C21711020   5.428   1.852   4.040  0.0141 -0.7724  0.4775
  107SAPE  H17R11021   5.394   1.941   3.983  2.4314  1.7149  2.6181
  107SAPE  H17S11022   5.505   1.882   4.114 -0.1023  1.3830 -0.1882
  107SAPE  C21811023   5.310   1.796   4.117 -0.2355  0.5535 -0.8523
  107SAPE  H18R11024   5.353   1.707   4.167 -1.3327  0.1424 -0.5909
  107SAPE  H18S11025   5.238   1.750   4.045  0.1049 -0.4969 -0.5397
  107SAPE  C21911026   5.242   1.896   4.216  0.7318  0.3557 -0.2662
  107SAPE  H19R11027   5.136   1.870   4.235  0.9310 -1.1270 -1.0273
  107SAPE  H19S11028   5.241   1.992   4.160 -2.6330 -0.8011 -2.4852
  107SAPE  C22011029   5.316   1.911   4.351 -0.2086 -0.8591 -0.1659
  107SAPE  H20R11030   5.266   1.993   4.407  2.3889  1.2368 -0.7115
  107SAPE  H20S11031   5.423   1.937   4.335 -0.0590 -1.4920 -0.2102
  107SAPE  H20T11032   5.300   1.817   4.408  2.5397 -1.1333  0.3020
  107SAPE   C3311033   6.182   0.737   2.989 -0.1828 -0.4108 -0.4095
  107SAPE   H3X11034   6.090   0.799   2.988  1.3960  2.0904 -1.0092
  107SAPE   H3Y11035   6.264   0.808   2.963 -0.4388 -0.1214 -0.4231
  107SAPE   C3411036   6.210   0.668   3.119  0.6235  0.5272  0.1090
  107SAPE   H4X11037   6.304   0.610   3.105 -0.2692 -0.4934 -1.9445
  107SAPE   H4Y11038   6.128   0.596   3.134  0.9630  0.4584  1.8355
  107SAPE   C3511039   6.224   0.771   3.227 -0.2949 -0.4241  0.3421
  107SAPE   H5X11040   6.146   0.850   3.214  0.5005  0.2783 -0.2334
  107SAPE   H5Y11041   6.319   0.825   3.209 -0.9932  0.0831 -2.2376
  107SAPE   C3611042   6.227   0.723   3.368  0.5015  0.7181  0.1462
  107SAPE   H6X11043   6.298   0.639   3.383  1.3591  0.8165 -2.7556
  107SAPE   H6Y11044   6.122   0.690   3.381 -0.2080  2.1407 -1.6232
  107SAPE   C3711045   6.267   0.820   3.476 -0.2089  0.2523 -0.0437
  107SAPE   H7X11046   6.203   0.911   3.468  0.4853  0.7624  0.0556
  107SAPE   H7Y11047   6.370   0.852   3.450 -0.9148  0.8798 -2.3047
  107SAPE   C3811048   6.256   0.763   3.616 -0.2686 -0.8379  0.7149
  107SAPE   H8X11049   6.324   0.676   3.633 -0.4854 -0.9972  0.7769
  107SAPE   H8Y11050   6.159   0.709   3.620 -1.0396  0.5527  1.1151
  107SAPE   C3911051   6.261   0.870   3.727 -0.2628  0.4479 -0.4747
  107SAPE   H9X11052   6.184   0.946   3.705 -0.5853 -0.5102 -3.0376
  107SAPE   H9Y11053   6.355   0.930   3.732 -0.8433  1.2763  0.7811
  107SAPE  C31011054   6.242   0.796   3.860 -0.5998  0.5421 -0.9073
  107SAPE  H10X11055   6.316   0.714   3.875 -1.2186  0.4475  2.4175
  107SAPE  H10Y11056   6.142   0.748   3.865 -0.4197  0.2556  2.3921
  107SAPE  C31111057   6.256   0.882   3.985 -0.1150  0.1202 -0.3523
  107SAPE  H11X11058   6.350   0.940   3.977 -0.3991  0.7300  0.5665
  107SAPE  H11Y11059   6.266   0.819   4.076 -0.0584  2.5180  1.3904
  107SAPE  C31211060   6.143   0.983   4.007  0.3429  0.1997 -0.2002
  107SAPE  H12X11061   6.046   0.932   4.022 -0.7560  2.0393 -0.7367
  107SAPE  H12Y11062   6.127   1.043   3.915 -3.0641  1.0243  0.7853
  107SAPE  C31311063   6.160   1.089   4.116 -0.5680  0.3555  0.1891
  107SAPE  H13X11064   6.068   1.152   4.111  0.8111  2.4579  0.2256
  107SAPE  H13Y11065   6.246   1.151   4.082  1.9462 -1.2458  3.1595
  107SAPE  C31411066   6.155   1.040   4.259  0.5687  0.0530 -0.0095
  107SAPE  H14X11067   6.242   0.973   4.276 -0.4969 -1.4381 -0.2403
  107SAPE  H14Y11068   6.058   0.988   4.278  0.6524  0.4665  1.7033
  107SAPE  C31511069   6.176   1.153   4.354 -1.0449 -0.9380  0.1971
  107SAPE  H15X11070   6.091   1.224   4.352  1.9876  2.9905 -1.2696
  107SAPE  H15Y11071   6.254   1.218   4.310 -1.4868 -0.1534  0.5526
  107SAPE  C31611072   6.218   1.104   4.493 -0.3888  0.9726 -0.1636
  107SAPE  H16X11073   6.324   1.071   4.495 -0.0624  1.9365 -0.6496
  107SAPE  H16Y11074   6.152   1.016   4.507 -0.1358  0.6026 -1.2189
  107SAPE  C31711075   6.181   1.197   4.611  0.5524 -0.5482 -0.5923
  107SAPE  H17X11076   6.071   1.213   4.610 -0.0186 -2.9840  3.1031
  107SAPE  H17Y11077   6.231   1.296   4.604 -1.1248  0.4119  0.5431
  107SAPE  C31811078   6.212   1.142   4.748  0.2964  0.3877 -0.1779
  107SAPE  H18X11079   6.207   1.229   4.816  0.3562  0.3562 -0.1341
  107SAPE  H18Y11080   6.312   1.094   4.747 -0.0810 -0.4196 -0.7719
  107SAPE  H18Z11081   6.138   1.064   4.779 -0.0252  0.6903 -0.1854
  108SAPE     N11082   6.553   1.447   1.895 -0.0435 -0.3369 -0.3901
  108SAPE   HN111083   6.622   1.506   1.945 -0.0753  0.6912 -1.5051
  108SAPE   HN211084   6.538   1.495   1.803  1.6780  1.8808  0.3939
  108SAPE   HN311085   6.459   1.427   1.935 -1.2733  1.3974 -2.1784
  108SAPE   C1211086   6.611   1.313   1.871  0.8889  0.0291 -0.1787
  108SAPE  H12A11087   6.716   1.321   1.839  1.3709  1.9972  1.6562
  108SAPE  H12B11088   6.542   1.269   1.796  1.5365 -0.6924 -0.3681
  108SAPE   C1111089   6.606   1.238   2.006 -0.1205  0.3854  0.6588
  108SAPE  H11A11090   6.616   1.300   2.098  1.6630  2.2424 -0.6898
  108SAPE  H11B11091   6.700   1.178   1.999 -0.3662  0.1106 -0.4501
  108SAPE     P11092   6.361   1.206   2.089  0.2826 -0.2605  0.1745
  108SAPE   O1311093   6.321   1.336   2.022 -0.0304 -0.2995 -0.3503
  108SAPE   O1411094   6.262   1.097   2.111 -0.6062  0.0594  0.1603
  108SAPE   O1211095   6.493   1.146   2.017  0.2554 -0.5835  0.0001
  108SAPE   O1111096   6.414   1.245   2.239 -0.2267  0.1307  0.6391
  108SAPE    C111097   6.492   1.163   2.325 -0.1046  0.5345  0.6112
  108SAPE    HA11098   6.441   1.065   2.331 -2.0787  1.2753 -1.9425
  108SAPE    HB11099   6.594   1.148   2.283 -0.7139 -0.8655 -0.4498
  108SAPE    C211100   6.511   1.220   2.465  0.0908 -0.0551 -0.2893
  108SAPE    HS11101   6.583   1.151   2.514 -0.2882 -1.0945 -1.1510
  108SAPE   O2111102   6.386   1.218   2.532 -0.1010  0.3551  0.1054
  108SAPE   C2111103   6.368   1.102   2.605  0.6216 -0.2072  0.2485
  108SAPE   O2211104   6.446   1.009   2.602  0.0206  0.1736 -0.0952
  108SAPE   C2211105   6.242   1.105   2.684  0.2281 -0.0168 -0.6578
  108SAPE   H2R11106   6.212   1.209   2.709  0.8399 -0.1408  0.7083
  108SAPE   H2S11107   6.162   1.046   2.634 -0.2431 -0.9242  1.0861
  108SAPE    C311108   6.573   1.361   2.456 -0.0687  0.6483  0.5014
  108SAPE    HX11109   6.511   1.412   2.380 -2.3657 -2.3896  0.1453
  108SAPE    HY11110   6.670   1.334   2.408 -2.1447 -0.6815 -3.3562
  108SAPE   O3111111   6.568   1.423   2.588  0.1318  0.5350  0.3373
  108SAPE   C3111112   6.668   1.511   2.601  0.2165 -0.3813 -0.8185
  108SAPE   O3211113   6.750   1.536   2.508 -0.1676 -0.1589  1.2449
  108SAPE   C3211114   6.662   1.588   2.735  0.7625  0.8119 -0.1050
  108SAPE   H2X11115   6.581   1.663   2.726 -1.1530 -1.2554 -1.4049
  108SAPE   H2Y11116   6.753   1.645   2.762 -0.2249  1.9528  0.9325
  108SAPE   C2311117   6.264   1.036   2.823 -0.1185  0.7497 -0.3828
  108SAPE   H3R11118   6.320   0.944   2.796  5.4031  4.1074 -2.1344
  108SAPE   H3S11119   6.165   1.016   2.869  0.8967  1.2168  2.1638
  108SAPE   C2411120   6.350   1.116   2.927 -0.0143 -0.8879 -0.4303
  108SAPE   H4R11121   6.455   1.122   2.892  0.0351 -1.3041 -0.3567
  108SAPE   H4S11122   6.346   1.052   3.018  0.8586 -0.3714 -0.0133
  108SAPE   C2511123   6.300   1.256   2.952 -0.1154 -0.5799 -0.6616
  108SAPE   H5R11124   6.316   1.314   2.859  3.0193 -1.6171 -0.8890
  108SAPE   C2611125   6.255   1.311   3.070 -0.1870 -0.2774 -0.1286
  108SAPE   H6R11126   6.230   1.419   3.071  0.1428 -0.1346 -2.0715
  108SAPE   C2711127   6.235   1.237   3.200 -0.8519  0.1351 -0.6427
  108SAPE   H7R11128   6.280   1.295   3.284 -0.2355 -0.0191 -0.8600
  108SAPE   H7S11129   6.281   1.136   3.215  0.4293  0.8998  1.0175
  108SAPE   C2811130   6.088   1.226   3.219  0.0808  0.4686 -0.6831
  108SAPE   H8R11131   6.032   1.178   3.138 -0.9616  0.4242  0.0435
  108SAPE   C2911132   6.022   1.265   3.329  0.4073 -0.1973 -0.1747
  108SAPE   H9R11133   5.914   1.253   3.342  0.4693  0.8991  1.7380
  108SAPE  C21011134   6.077   1.337   3.447 -0.2268  0.2544  0.3108
  108SAPE  H10R11135   5.992   1.402   3.478 -1.8672 -0.9507 -1.4272
  108SAPE  H10S11136   6.162   1.402   3.416 -1.3133  1.3252 -0.5875
  108SAPE  C21111137   6.112   1.239   3.555 -0.9661 -0.2535  0.3544
  108SAPE  H11R11138   6.119   1.134   3.522 -1.0514  0.7235 -3.1340
  108SAPE  C21211139   6.155   1.261   3.678 -0.1406 -0.2641 -0.1170
  108SAPE  H12R11140   6.157   1.178   3.751  0.4090 -0.4020 -0.2808
  108SAPE  C21311141   6.169   1.393   3.740  0.1516 -0.1754 -0.8193
  108SAPE  H13R11142   6.084   1.461   3.721 -1.2289 -1.6766 -0.1975
  108SAPE  H13S11143   6.245   1.450   3.681  0.7550 -0.3619 -0.2387
  108SAPE  C21411144   6.216   1.385   3.879  0.2265  0.8357  0.3025
  108SAPE  H14R11145   6.310   1.334   3.903 -0.1380  0.2459  0.5080
  108SAPE  C21511146   6.146   1.442   3.983 -0.1685  0.3145  0.3112
  108SAPE  H15R11147   6.186   1.415   4.082  0.8398 -0.8440 -0.3793
  108SAPE  C21611148   6.013   1.510   3.966  0.2185 -0.4548  0.1700
  108SAPE  H16R11149   5.937   1.458   3.905  0.7534 -1.1244  0.0537
  108SAPE  H16S11150   6.037   1.614   3.935 -1.3231 -0.4005 -0.9145
  108SAPE  C21711151   5.932   1.515   4.098 -0.6155 -0.0177 -0.4240
  108SAPE  H17R11152   5.833   1.562   4.082 -0.2683 -0.1278 -3.6403
  108SAPE  H17S11153   5.985   1.579   4.173 -1.3483  0.6208 -0.4387
  108SAPE  C21811154   5.901   1.378   4.165  0.3195 -0.3417 -0.0641
  108SAPE  H18R11155   5.998   1.355   4.213  0.1413  0.2687  0.5986
  108SAPE  H18S11156   5.889   1.299   4.088  1.5463 -2.9457  2.2542
  108SAPE  C21911157   5.795   1.382   4.277  0.2887  0.5019  0.1629
  108SAPE  H19R11158   5.781   1.280   4.319  0.4843  0.5486  0.3420
  108SAPE  H19S11159   5.698   1.397   4.225 -0.1497  0.0282  0.8339
  108SAPE  C22011160   5.809   1.483   4.389  0.0293 -0.1191  1.0683
  108SAPE  H20R11161   5.754   1.454   4.481  1.5338 -0.7974  1.7933
  108SAPE  H20S11162   5.773   1.581   4.352  2.8898  0.0946 -1.5077
  108SAPE  H20T11163   5.914   1.492   4.426 -0.6939  3.4266  2.6972
  108SAPE   C3311164   6.619   1.490   2.842  0.0165  0.2350  0.0057
  108SAPE   H3X11165   6.692   1.406   2.849  3.0278  2.3216 -3.0191
  108SAPE   H3Y11166   6.520   1.453   2.810 -0.1592  0.9681 -0.3277
  108SAPE   C3411167   6.604   1.549   2.982 -0.0053  0.2107  0.0686
  108SAPE   H4X11168   6.518   1.618   2.974  1.4357  2.2923  1.4903
  108SAPE   H4Y11169   6.694   1.614   2.994 -0.8360  1.4798 -0.3709
  108SAPE   C3511170   6.598   1.447   3.095  0.1094  0.9672  0.2322
  108SAPE   H5X11171   6.524   1.370   3.064  0.4520  0.2098  1.2321
  108SAPE   H5Y11172   6.696   1.397   3.104 -1.0043 -1.8565 -1.9898
  108SAPE   C3611173   6.552   1.500   3.234  0.0590  0.5478 -0.4828
  108SAPE   H6X11174   6.534   1.412   3.300  1.1172 -0.3699 -1.3592
  108SAPE   H6Y11175   6.466   1.570   3.227  0.9393  1.7604  0.4142
  108SAPE   C3711176   6.669   1.583   3.300 -0.1447 -0.0166 -1.2552
  108SAPE   H7X11177   6.739   1.625   3.225  3.6859 -1.7672  1.0147
  108SAPE   H7Y11178   6.737   1.530   3.371  0.5446  2.5352  0.1406
  108SAPE   C3811179   6.615   1.695   3.383 -0.3280  0.2085  0.0529
  108SAPE   H8X11180   6.556   1.757   3.313  0.1758  0.2508 -0.3342
  108SAPE   H8Y11181   6.691   1.764   3.426  0.1058  0.3001 -0.8439
  108SAPE   C3911182   6.536   1.653   3.517  0.4878  0.0891  0.5956
  108SAPE   H9X11183   6.471   1.567   3.491  0.3745  0.4501 -0.3524
  108SAPE   H9Y11184   6.471   1.735   3.556  1.6865  1.7247 -0.6675
  108SAPE  C31011185   6.632   1.614   3.631 -0.1672 -0.0696  0.5500
  108SAPE  H10X11186   6.682   1.708   3.659  3.3872 -1.0684 -1.7723
  108SAPE  H10Y11187   6.714   1.547   3.598 -1.8776 -0.9383 -2.3162
  108SAPE  C31111188   6.562   1.547   3.751 -0.1308 -0.0655  0.0877
  108SAPE  H11X11189   6.548   1.440   3.726 -3.1842  0.1208  0.6636
  108SAPE  H11Y11190   6.465   1.598   3.768  0.6273  1.4609  0.0961
  108SAPE  C31211191   6.650   1.542   3.883 -0.8305  0.3560 -0.7923
  108SAPE  H12X11192   6.664   1.645   3.922  1.9459  1.3213 -3.8672
  108SAPE  H12Y11193   6.747   1.493   3.860 -0.7879 -0.9626  1.8613
  108SAPE  C31311194   6.590   1.461   3.998  0.5560  0.5000 -0.2923
  108SAPE  H13X11195   6.589   1.351   3.985 -4.3359  0.1483  1.2078
  108SAPE  H13Y11196   6.482   1.486   4.004  0.2384 -0.9556  0.5554
  108SAPE  C31411197   6.653   1.494   4.132  0.0544 -0.5748 -0.4639
  108SAPE  H14X11198   6.640   1.603   4.148  2.1358 -0.2299 -0.7449
  108SAPE  H14Y11199   6.761   1.467   4.129  0.3529 -0.1765  2.9197
  108SAPE  C31511200   6.580   1.411   4.243 -0.0253  0.2908 -0.1661
  108SAPE  H15X11201   6.606   1.305   4.228  2.2040  0.4563  1.8050
  108SAPE  H15Y11202   6.471   1.423   4.226  0.0912  0.4876 -0.8028
  108SAPE  C31611203   6.612   1.439   4.389 -0.7708  0.0526 -0.0350
  108SAPE  H16X11204   6.569   1.536   4.423 -1.1973  0.1926 -0.9411
  108SAPE  H16Y11205   6.719   1.459   4.412 -1.5201  2.0326  2.2417
  108SAPE  C31711206   6.577   1.331   4.494  0.3205  0.0561  0.6114
  108SAPE  H17X11207   6.623   1.236   4.459 -0.0044  0.5399 -1.2248
  108SAPE  H17Y11208   6.468   1.311   4.503  0.5146 -2.6134 -1.6398
  108SAPE  C31811209   6.634   1.370   4.630  0.1950  0.5124 -0.0429
  108SAPE  H18X11210   6.744   1.356   4.623  0.0513 -0.1969 -1.0948
  108SAPE  H18Y11211   6.596   1.309   4.714 -1.3182  3.1435  1.3252
  108SAPE  H18Z11212   6.595   1.473   4.647 -2.6265 -0.4673  0.0276
  109SAPE     N11213   0.842   2.529   1.838  0.0888  0.0957 -0.1234
  109SAPE   HN111214   0.786   2.474   1.770  1.4341  0.5316 -1.6394
  109SAPE   HN211215   0.903   2.602   1.794  0.6457  0.3154  0.9695
  109SAPE   HN311216   0.902   2.460   1.887 -1.3082 -2.4931 -1.8395
  109SAPE   C1211217   0.734   2.585   1.918 -0.1045 -0.0835  0.8410
  109SAPE  H12A11218   0.674   2.649   1.850 -0.3819 -0.5838  0.6136
  109SAPE  H12B11219   0.782   2.641   2.002  0.4097 -0.9284  1.1138
  109SAPE   C1111220   0.656   2.482   1.992 -0.1734  0.0936 -0.5704
  109SAPE  H11A11221   0.595   2.430   1.915  0.5711  1.3152 -2.0243
  109SAPE  H11B11222   0.578   2.542   2.044 -0.9070  0.9545 -2.5511
  109SAPE     P11223   0.662   2.252   2.108 -0.4286  0.0168 -0.3931
  109SAPE   O1311224   0.599   2.201   1.981 -1.1511 -0.4210 -0.1880
  109SAPE   O1411225   0.764   2.172   2.178  1.0826  0.3767  0.3780
  109SAPE   O1211226   0.725   2.392   2.080 -0.3071  0.2539 -0.1800
  109SAPE   O1111227   0.542   2.289   2.206 -0.5158 -0.2445 -0.3943
  109SAPE    C111228   0.412   2.220   2.202  0.2086 -0.3721 -0.4465
  109SAPE    HA11229   0.352   2.264   2.119  1.1305  2.3915  0.2234
  109SAPE    HB11230   0.426   2.110   2.197  0.7352 -0.3967  1.0727
  109SAPE    C211231   0.321   2.263   2.325 -0.7308 -0.8651 -0.7466
  109SAPE    HS11232   0.291   2.367   2.300 -2.5396 -0.5001  2.3691
  109SAPE   O2111233   0.391   2.253   2.457 -0.0135  0.0666  0.1035
  109SAPE   C2111234   0.332   2.307   2.562 -0.2236  0.3593  0.2528
  109SAPE   O2211235   0.229   2.372   2.560  0.2055 -0.2507 -0.5109
  109SAPE   C2211236   0.432   2.287   2.672 -0.7112  0.1789  0.4335
  109SAPE   H2R11237   0.461   2.180   2.670  0.5481  0.5031 -1.7118
  109SAPE   H2S11238   0.521   2.351   2.651  0.8828 -1.6913  1.1927
  109SAPE    C311239   0.189   2.181   2.315 -0.0559 -0.5386  0.7189
  109SAPE    HX11240   0.162   2.193   2.208 -1.9922 -0.6719  1.1507
  109SAPE    HY11241   0.115   2.239   2.373  0.8732  2.1281 -0.5634
  109SAPE   O3111242   0.204   2.040   2.355 -0.1362 -0.1086  0.2644
  109SAPE   C3111243   0.176   2.012   2.475 -0.6472 -0.1586 -0.3789
  109SAPE   O3211244   0.141   2.091   2.561 -0.4700  0.1651 -0.0910
  109SAPE   C3211245   0.201   1.867   2.501  1.1741  0.0087 -0.1088
  109SAPE   H2X11246   0.295   1.828   2.455  1.7277 -0.2998  1.2373
  109SAPE   H2Y11247   0.122   1.821   2.438  0.6954  0.2866  0.2866
  109SAPE   C2311248   0.372   2.325   2.809 -0.6039 -0.2925  0.2005
  109SAPE   H3R11249   0.273   2.375   2.796  0.1479  0.9545 -1.1842
  109SAPE   H3S11250   0.435   2.396   2.866  0.5318 -0.5941 -0.6562
  109SAPE   C2411251   0.364   2.207   2.906  0.0702 -0.2619 -0.7637
  109SAPE   H4R11252   0.310   2.122   2.858 -1.4848 -0.5430  1.3688
  109SAPE   H4S11253   0.306   2.227   2.998 -1.5473 -1.5810 -1.4275
  109SAPE   C2511254   0.503   2.155   2.944  1.5038  0.2205 -0.2740
  109SAPE   H5R11255   0.548   2.111   2.854 -0.6441 -0.4317 -1.1141
  109SAPE   C2611256   0.566   2.139   3.063 -0.4335 -0.3081  0.8870
  109SAPE   H6R11257   0.666   2.094   3.064 -0.2196  0.0154 -1.1418
  109SAPE   C2711258   0.511   2.188   3.193 -0.0705 -0.0690 -0.1739
  109SAPE   H7R11259   0.476   2.096   3.245  2.3266 -1.2381 -0.5045
  109SAPE   H7S11260   0.425   2.258   3.187  2.1082  2.7481 -0.5881
  109SAPE   C2811261   0.614   2.253   3.276  0.3753 -0.3820  0.0361
  109SAPE   H8R11262   0.675   2.324   3.218  1.0813  0.4475  1.7236
  109SAPE   C2911263   0.635   2.240   3.409  0.6867  0.2562 -0.7287
  109SAPE   H9R11264   0.710   2.298   3.466 -0.1691 -0.9196  1.7726
  109SAPE  C21011265   0.552   2.159   3.508  0.1418  0.3122  0.1125
  109SAPE  H10R11266   0.617   2.152   3.599 -2.0089 -0.0227  1.6914
  109SAPE  H10S11267   0.548   2.055   3.469 -0.2912 -0.5753  2.3502
  109SAPE  C21111268   0.402   2.203   3.520 -0.2726  0.6308 -0.4558
  109SAPE  H11R11269   0.372   2.246   3.424  1.0165  0.6326 -0.8765
  109SAPE  C21211270   0.335   2.210   3.633 -0.5110  0.1258  0.4657
  109SAPE  H12R11271   0.236   2.256   3.633 -1.0407 -0.8925  2.4319
  109SAPE  C21311272   0.372   2.160   3.765 -0.4057  0.0274 -0.6956
  109SAPE  H13R11273   0.460   2.092   3.763 -0.6229 -0.2596 -0.4286
  109SAPE  H13S11274   0.283   2.099   3.791 -1.1718  0.4837 -2.1153
  109SAPE  C21411275   0.411   2.265   3.868  0.4906  0.1416  0.7762
  109SAPE  H14R11276   0.474   2.349   3.836 -1.1841  1.4124  0.6992
  109SAPE  C21511277   0.377   2.260   4.001 -0.4630  0.3071  0.6814
  109SAPE  H15R11278   0.419   2.336   4.067  0.4173  1.7684 -1.4295
  109SAPE  C21611279   0.294   2.152   4.063  0.0253 -0.3883  0.4497
  109SAPE  H16R11280   0.359   2.089   4.129  0.4376 -1.8847 -1.3006
  109SAPE  H16S11281   0.224   2.096   3.998 -1.6347  1.2152  0.7767
  109SAPE  C21711282   0.182   2.217   4.149 -0.5992  0.4228 -0.1135
  109SAPE  H17R11283   0.130   2.137   4.205  0.4278  0.7373  1.3556
  109SAPE  H17S11284   0.104   2.256   4.081 -1.3227  2.5626  1.8347
  109SAPE  C21811285   0.211   2.323   4.248  0.2370  0.1172  0.2713
  109SAPE  H18R11286   0.133   2.334   4.325  0.3644  0.5980  0.3378
  109SAPE  H18S11287   0.226   2.422   4.199 -0.2708 -0.1663 -0.4778
  109SAPE  C21911288   0.337   2.295   4.340  0.4017  0.2786  0.2482
  109SAPE  H19R11289   0.424   2.315   4.274 -0.3461  4.3801  0.2129
  109SAPE  H19S11290   0.344   2.189   4.370  1.0346  0.5785  1.2131
  109SAPE  C22011291   0.359   2.383   4.467  0.1196 -0.2316 -0.1424
  109SAPE  H20R11292   0.427   2.337   4.543  0.5003  0.7092  0.0958
  109SAPE  H20S11293   0.263   2.392   4.521  0.8772  2.7238  0.8883
  109SAPE  H20T11294   0.395   2.486   4.447  0.3453  0.1253  1.9208
  109SAPE   C3311295   0.194   1.823   2.650  0.1714  0.3415 -0.5020
  109SAPE   H3X11296   0.167   1.715   2.652  0.2559  0.3170  1.2762
  109SAPE   H3Y11297   0.119   1.882   2.708 -1.3036 -3.7406  2.2168
  109SAPE   C3411298   0.333   1.824   2.717 -1.2558 -0.2168 -0.0679
  109SAPE   H4X11299   0.360   1.927   2.747  0.6529 -0.8246  0.4031
  109SAPE   H4Y11300   0.415   1.787   2.653 -1.0734 -1.8453  1.0526
  109SAPE   C3511301   0.339   1.735   2.843 -0.0743 -0.0537 -0.2447
  109SAPE   H5X11302   0.388   1.639   2.813  1.8173  0.8893 -0.3162
  109SAPE   H5Y11303   0.239   1.710   2.885 -0.1279  0.3011 -0.1628
  109SAPE   C3611304   0.428   1.792   2.962  0.3531  0.2568  0.2813
  109SAPE   H6X11305   0.384   1.891   2.987 -1.3595 -0.3886 -0.0346
  109SAPE   H6Y11306   0.534   1.811   2.935  0.3008  0.6886  0.3756
  109SAPE   C3711307   0.419   1.706   3.087  0.0555  0.6468 -0.2931
  109SAPE   H7X11308   0.463   1.604   3.077 -0.6377  0.3816 -0.7751
  109SAPE   H7Y11309   0.310   1.702   3.109 -0.2267  2.9392 -1.0406
  109SAPE   C3811310   0.478   1.788   3.204 -0.3986 -0.4537 -0.0585
  109SAPE   H8X11311   0.421   1.882   3.214 -0.1523 -0.4402  1.4340
  109SAPE   H8Y11312   0.585   1.814   3.194 -0.1096 -0.4829  2.3202
  109SAPE   C3911313   0.463   1.703   3.333  0.4055 -0.2945 -0.2646
  109SAPE   H9X11314   0.548   1.632   3.337  0.3275 -0.3392  0.7952
  109SAPE   H9Y11315   0.370   1.644   3.326  0.2009 -0.3461  2.1138
  109SAPE  C31011316   0.485   1.791   3.462  0.3491 -0.4338  0.4655
  109SAPE  H10X11317   0.409   1.872   3.458 -0.2646 -1.0251 -0.0498
  109SAPE  H10Y11318   0.581   1.846   3.450  1.2321 -2.2198 -1.3524
  109SAPE  C31111319   0.469   1.710   3.586  0.0738 -0.1940  0.3508
  109SAPE  H11X11320   0.533   1.618   3.593 -0.6224 -0.5783  2.1741
  109SAPE  H11Y11321   0.367   1.668   3.578  0.3631 -0.7473 -0.5669
  109SAPE  C31211322   0.475   1.787   3.715 -0.0325 -0.1163 -0.0016
  109SAPE  H12X11323   0.400   1.869   3.724 -0.4525 -0.5954  1.0419
  109SAPE  H12Y11324   0.572   1.842   3.714 -0.2313  0.2465  0.4026
  109SAPE  C31311325   0.451   1.699   3.832 -0.7527  0.0328 -0.3336
  109SAPE  H13X11326   0.516   1.609   3.821 -3.2222 -1.9588  0.2132
  109SAPE  H13Y11327   0.345   1.665   3.835  0.0877 -2.7968  1.1822
  109SAPE  C31411328   0.476   1.772   3.960 -0.0538 -0.9696 -0.0069
  109SAPE  H14X11329   0.404   1.856   3.958 -0.4481 -1.2719 -2.7774
  109SAPE  H14Y11330   0.573   1.823   3.976  0.4372 -1.2043 -2.0260
  109SAPE  C31511331   0.480   1.683   4.085 -0.2095  1.1767 -0.9575
  109SAPE  H15X11332   0.562   1.610   4.071 -0.1143  1.1070 -0.0603
  109SAPE  H15Y11333   0.385   1.628   4.103  1.0937 -1.7275 -2.3016
  109SAPE  C31611334   0.513   1.771   4.214  0.1568  0.9569  0.2713
  109SAPE  H16X11335   0.576   1.861   4.196  1.2597  0.1743  0.1808
  109SAPE  H16Y11336   0.577   1.699   4.268  1.6332  0.7449 -1.6670
  109SAPE  C31711337   0.381   1.814   4.282  0.0134 -0.1622  0.3564
  109SAPE  H17X11338   0.329   1.720   4.312  0.3583 -0.3984  0.2172
  109SAPE  H17Y11339   0.314   1.868   4.212  1.9821  1.4908 -0.3411
  109SAPE  C31811340   0.413   1.900   4.408 -0.2990  0.0676 -0.5631
  109SAPE  H18X11341   0.480   1.854   4.484 -0.9992 -0.4804 -0.2711
  109SAPE  H18Y11342   0.315   1.916   4.457 -0.8767 -0.8225 -1.4005
  109SAPE  H18Z11343   0.453   1.998   4.373  0.6681  0.3403  1.1900
  110SAPE     N11344   0.917   4.382   1.724 -0.1052  0.7410 -0.2306
  110SAPE   HN111345   0.880   4.363   1.628  0.4787 -0.8557 -0.1716
  110SAPE   HN211346   0.984   4.307   1.751 -1.3101  0.1979  1.3971
  110SAPE   HN311347   0.839   4.383   1.793  0.3364  0.7499  0.2752
  110SAPE   C1211348   1.007   4.498   1.721  0.0682 -0.8869 -0.5980
  110SAPE  H12A11349   0.947   4.568   1.658  1.1193 -1.6276 -2.5261
  110SAPE  H12B11350   1.096   4.472   1.659  1.1840  0.8448  0.1825
  110SAPE   C1111351   1.045   4.546   1.866 -0.5542 -0.2801 -0.3887
  110SAPE  H11A11352   0.958   4.605   1.899  0.3782  0.4733  0.7876
  110SAPE  H11B11353   1.137   4.608   1.872 -0.0024 -1.1042 -0.0594
  110SAPE     P11354   1.036   4.406   2.094 -0.1621 -0.0472 -0.2989
  110SAPE   O1311355   1.003   4.263   2.120 -0.7229 -0.0212 -0.4907
  110SAPE   O1411356   1.139   4.453   2.189  0.5608  0.1935  0.1407
  110SAPE   O1211357   1.078   4.431   1.943  0.3462  0.2209 -0.6273
  110SAPE   O1111358   0.906   4.491   2.113 -0.0868  0.2255  0.8160
  110SAPE    C111359   0.808   4.464   2.213 -0.3426  0.6579 -0.1347
  110SAPE    HA11360   0.719   4.525   2.185 -0.6790  0.5836  0.7270
  110SAPE    HB11361   0.775   4.358   2.218 -1.1283  0.8456 -1.0683
  110SAPE    C211362   0.841   4.503   2.364 -0.1816  0.1111  0.1193
  110SAPE    HS11363   0.927   4.438   2.391  0.2438 -0.0318 -1.4934
  110SAPE   O2111364   0.729   4.497   2.454 -0.2105  0.4795 -0.4469
  110SAPE   C2111365   0.717   4.382   2.502 -0.2408  0.7994 -0.7778
  110SAPE   O2211366   0.769   4.277   2.463 -0.4686  0.0904 -0.3894
  110SAPE   C2211367   0.603   4.386   2.605  0.2697  0.1259 -0.2864
  110SAPE   H2R11368   0.627   4.471   2.673  0.1116 -0.5913  0.6995
  110SAPE   H2S11369   0.518   4.424   2.545 -1.8762  1.3774  3.1967
  110SAPE    C311370   0.906   4.647   2.367  0.1979 -0.0260 -0.1258
  110SAPE    HX11371   0.972   4.660   2.278  0.3265  0.1676 -0.0031
  110SAPE    HY11372   0.822   4.720   2.362  0.4502  0.2472 -0.3780
  110SAPE   O3111373   0.978   4.660   2.494 -0.1401  0.0872  0.4708
  110SAPE   C3111374   1.079   4.739   2.500 -0.4511  0.3920  0.1191
  110SAPE   O3211375   1.131   4.803   2.410  0.0412  0.2487  0.9134
  110SAPE   C3211376   1.144   4.733   2.639  0.2010 -0.5888 -0.6256
  110SAPE   H2X11377   1.158   4.624   2.654 -1.2750 -0.8150 -0.7891
  110SAPE   H2Y11378   1.066   4.771   2.709 -0.4827  1.7433 -2.5134
  110SAPE   C2311379   0.568   4.252   2.675 -0.0922 -0.3696 -0.7501
  110SAPE   H3R11380   0.663   4.194   2.685 -0.1298 -0.3409 -0.2232
  110SAPE   H3S11381   0.497   4.194   2.612 -1.8994  0.1737  0.7084
  110SAPE   C2411382   0.499   4.271   2.813 -0.6675  0.1615  0.7661
  110SAPE   H4R11383   0.404   4.329   2.806 -0.0866  1.2341  1.5095
  110SAPE   H4S11384   0.564   4.318   2.889  2.5804 -1.5344 -0.7764
  110SAPE   C2511385   0.449   4.136   2.854  0.1542  1.2725 -0.5117
  110SAPE   H5R11386   0.368   4.098   2.791 -0.4174  1.2961  0.1871
  110SAPE   C2611387   0.514   4.049   2.936 -0.7336 -0.4404  0.8427
  110SAPE   H6R11388   0.474   3.946   2.946  0.1278 -1.0031 -1.1838
  110SAPE   C2711389   0.638   4.077   3.027  0.6012 -0.1601 -0.1534
  110SAPE   H7R11390   0.631   4.179   3.070  1.0780 -0.0988 -0.2108
  110SAPE   H7S11391   0.727   4.082   2.959 -0.2602  1.4192 -1.2457
  110SAPE   C2811392   0.657   3.976   3.137  0.2482  0.3135 -0.5884
  110SAPE   H8R11393   0.625   3.873   3.115 -1.3476  0.5225  0.6253
  110SAPE   C2911394   0.698   4.000   3.263 -0.2719 -0.2152  0.1929
  110SAPE   H9R11395   0.700   3.915   3.333 -0.2816 -1.3094 -1.0970
  110SAPE  C21011396   0.731   4.136   3.319 -0.1590  0.4602  0.1500
  110SAPE  H10R11397   0.637   4.192   3.337 -0.3661  0.0477  0.3836
  110SAPE  H10S11398   0.786   4.192   3.241 -2.2182  2.6616  0.1555
  110SAPE  C21111399   0.833   4.153   3.433  0.7703 -0.2731  0.0685
  110SAPE  H11R11400   0.938   4.134   3.406  1.0892  2.3136 -0.8540
  110SAPE  C21211401   0.806   4.197   3.556 -0.3255  0.7435 -0.1027
  110SAPE  H12R11402   0.888   4.180   3.627  0.0932 -0.7951 -0.9101
  110SAPE  C21311403   0.674   4.222   3.626 -0.4060 -0.5866 -0.1517
  110SAPE  H13R11404   0.589   4.214   3.555 -2.4148  1.1165  1.9074
  110SAPE  H13S11405   0.667   4.329   3.655  0.9284  0.1917 -2.4400
  110SAPE  C21411406   0.644   4.128   3.734 -1.3564  0.8867 -0.1079
  110SAPE  H14R11407   0.629   4.030   3.686 -1.2116  1.8031 -2.0995
  110SAPE  C21511408   0.654   4.140   3.866  0.7032 -0.3281 -0.4172
  110SAPE  H15R11409   0.620   4.058   3.931  1.0720  0.7450  1.2047
  110SAPE  C21611410   0.679   4.271   3.944 -0.4609  0.2686  0.2219
  110SAPE  H16R11411   0.736   4.334   3.873  1.2700 -1.9497 -0.4668
  110SAPE  H16S11412   0.740   4.263   4.036 -2.6569  0.4053  1.7777
  110SAPE  C21711413   0.550   4.350   3.992  0.2327 -0.1078 -0.5105
  110SAPE  H17R11414   0.577   4.455   4.016 -0.1373  0.6153 -3.0503
  110SAPE  H17S11415   0.504   4.312   4.086  3.1925 -2.1732  0.2710
  110SAPE  C21811416   0.436   4.364   3.892  0.0155  0.1698  0.2294
  110SAPE  H18R11417   0.367   4.277   3.892  0.4328 -0.1708  0.7805
  110SAPE  H18S11418   0.487   4.371   3.793  0.1108  0.5889  0.3087
  110SAPE  C21911419   0.347   4.494   3.927 -0.0604 -0.3176  0.0654
  110SAPE  H19R11420   0.267   4.470   3.853 -0.3381  0.1341  0.2201
  110SAPE  H19S11421   0.398   4.590   3.904 -1.2003  0.3741  0.4014
  110SAPE  C22011422   0.275   4.490   4.061  0.1645  0.2825  0.3360
  110SAPE  H20R11423   0.238   4.386   4.065  0.1217  0.2096 -1.1439
  110SAPE  H20S11424   0.204   4.576   4.068 -0.8806 -0.4028 -1.2481
  110SAPE  H20T11425   0.344   4.488   4.147  0.9359  0.3201 -0.2697
  110SAPE   C3311426   1.279   4.802   2.648  0.2453 -0.2212 -0.3860
  110SAPE   H3X11427   1.266   4.909   2.620  1.3777 -0.0370 -0.2554
  110SAPE   H3Y11428   1.338   4.756   2.565  0.3440  0.5959 -0.7772
  110SAPE   C3411429   1.361   4.790   2.774 -0.9744 -0.4101 -0.4862
  110SAPE   H4X11430   1.309   4.851   2.851 -1.5168 -0.0254 -1.1482
  110SAPE   H4Y11431   1.455   4.849   2.761 -2.7603  3.1250  1.1197
  110SAPE   C3511432   1.408   4.647   2.814  0.0944  0.0774 -0.6121
  110SAPE   H5X11433   1.452   4.587   2.732  0.3726  1.3947 -1.4639
  110SAPE   H5Y11434   1.320   4.592   2.854 -1.4865  2.3728 -0.7053
  110SAPE   C3611435   1.508   4.655   2.931 -0.1516  0.0032  0.3262
  110SAPE   H6X11436   1.597   4.713   2.898  0.0677 -0.0898  0.7517
  110SAPE   H6Y11437   1.544   4.551   2.948  0.4447 -0.3656 -2.6778
  110SAPE   C3711438   1.446   4.724   3.060 -0.4820 -0.1495  0.5972
  110SAPE   H7X11439   1.410   4.827   3.041  1.3480  0.3518 -0.4052
  110SAPE   H7Y11440   1.532   4.738   3.128  0.4193 -1.6134 -0.1860
  110SAPE   C3811441   1.344   4.643   3.140  1.0257  0.2787 -0.4540
  110SAPE   H8X11442   1.385   4.543   3.164  0.7361  0.3964  0.5471
  110SAPE   H8Y11443   1.248   4.633   3.084  0.1635  2.0669  0.5825
  110SAPE   C3911444   1.301   4.697   3.275  0.5011 -0.7460  0.4668
  110SAPE   H9X11445   1.245   4.613   3.323 -0.4102 -1.3388 -1.5242
  110SAPE   H9Y11446   1.229   4.781   3.270  0.3003 -0.9692 -0.9372
  110SAPE  C31011447   1.416   4.733   3.375 -0.2411 -0.4825  0.4610
  110SAPE  H10X11448   1.470   4.827   3.352  0.0255 -0.5492  0.8121
  110SAPE  H10Y11449   1.481   4.645   3.355 -1.2437 -0.7705 -1.9776
  110SAPE  C31111450   1.372   4.736   3.523 -0.3088 -0.1136  0.9166
  110SAPE  H11X11451   1.406   4.642   3.572  1.5081  0.5200  0.9622
  110SAPE  H11Y11452   1.262   4.732   3.515 -0.2690  0.2751  0.1209
  110SAPE  C31211453   1.429   4.857   3.591 -0.3329  0.5400 -0.1696
  110SAPE  H12X11454   1.418   4.944   3.524  0.1047 -1.4003 -2.9252
  110SAPE  H12Y11455   1.538   4.845   3.608 -0.5154 -2.0432 -0.3749
  110SAPE  C31311456   1.373   4.890   3.730 -0.4107  0.3572 -1.1266
  110SAPE  H13X11457   1.263   4.906   3.731 -0.6236 -0.8152  0.9541
  110SAPE  H13Y11458   1.424   4.982   3.764 -1.7889  0.0637  2.0693
  110SAPE  C31411459   1.408   4.786   3.840 -0.7318 -0.0827 -0.0383
  110SAPE  H14X11460   1.519   4.783   3.844 -0.7675 -0.2322  1.8284
  110SAPE  H14Y11461   1.359   4.697   3.796  0.2565  0.0600 -1.5223
  110SAPE  C31511462   1.358   4.837   3.982 -0.0135  0.1854 -0.9596
  110SAPE  H15X11463   1.247   4.836   3.985 -0.1262  1.7059  4.0886
  110SAPE  H15Y11464   1.387   4.943   3.994 -1.4257  0.5974 -0.9641
  110SAPE  C31611465   1.408   4.738   4.089  0.0292  0.1473  0.3551
  110SAPE  H16X11466   1.519   4.735   4.081  0.0059 -0.0690  0.0620
  110SAPE  H16Y11467   1.366   4.639   4.060 -2.8430  1.9984 -2.5743
  110SAPE  C31711468   1.363   4.784   4.227 -0.3207 -0.4273 -0.6917
  110SAPE  H17X11469   1.254   4.767   4.243  0.0267 -1.4118  0.8483
  110SAPE  H17Y11470   1.382   4.893   4.227  0.4613 -0.5307  1.3522
  110SAPE  C31811471   1.442   4.727   4.347  0.3372 -0.3435 -0.0079
  110SAPE  H18X11472   1.436   4.616   4.341 -1.1065 -0.4948  2.6624
  110SAPE  H18Y11473   1.386   4.746   4.441  1.1508 -1.2046  0.6642
  110SAPE  H18Z11474   1.546   4.764   4.341 -0.0656  0.6145 -2.0656
  111SAPE     N11475   6.772   6.322   2.512 -0.0251 -0.2765 -0.2689
  111SAPE   HN111476   6.850   6.390   2.510  0.9210 -1.3408 -1.1493
  111SAPE   HN211477   6.787   6.290   2.610 -1.4907 -1.7068 -0.4694
  111SAPE   HN311478   6.798   6.247   2.444  2.6686  1.7774 -1.6801
  111SAPE   C1211479   6.642   6.395   2.485 -1.2153  0.7582  0.9120
  111SAPE  H12A11480   6.566   6.355   2.555 -0.4187 -1.4513  0.5887
  111SAPE  H12B11481   6.600   6.366   2.386  0.3566  1.9269 -0.1339
  111SAPE   C1111482   6.659   6.548   2.492  0.1834  0.2531  0.0900
  111SAPE  H11A11483   6.667   6.587   2.595  1.4683  1.0261 -0.2794
  111SAPE  H11B11484   6.564   6.586   2.448  0.3805 -1.6975 -2.2315
  111SAPE     P11485   6.768   6.656   2.273  0.0201 -0.1578 -0.2552
  111SAPE   O1311486   6.872   6.605   2.182  0.3813  0.2215 -0.9378
  111SAPE   O1411487   6.633   6.663   2.222  0.0220  0.0189  0.2115
  111SAPE   O1211488   6.776   6.587   2.417  0.6028 -0.3206 -0.0843
  111SAPE   O1111489   6.825   6.804   2.299 -0.3923 -0.3427  0.4407
  111SAPE    C111490   6.921   6.832   2.394 -0.1528 -0.4687  0.0272
  111SAPE    HA11491   6.989   6.745   2.406  0.5188 -0.2311 -1.7174
  111SAPE    HB11492   6.980   6.918   2.355 -1.6546  2.5597  3.8695
  111SAPE    C211493   6.859   6.878   2.533  0.5219 -0.1293  0.6134
  111SAPE    HS11494   6.939   6.947   2.568  0.0927  0.6856  0.0173
  111SAPE   O2111495   6.836   6.766   2.618 -0.7529  0.5503 -0.7687
  111SAPE   C2111496   6.945   6.703   2.680  0.2288 -0.4503  0.0094
  111SAPE   O2211497   7.064   6.736   2.660  0.6737 -0.6875  0.6119
  111SAPE   C2211498   6.895   6.590   2.773 -0.5430  0.4125 -0.4788
  111SAPE   H2R11499   6.785   6.595   2.790 -0.4493 -0.1585  0.3478
  111SAPE   H2S11500   6.910   6.498   2.713 -1.3775 -1.3007  1.8079
  111SAPE    C311501   6.722   6.958   2.521 -0.5403  0.4934 -0.8735
  111SAPE    HX11502   6.660   6.877   2.478  0.4500 -0.5300 -0.4049
  111SAPE    HY11503   6.746   7.040   2.449 -0.9183  2.7622  1.4213
  111SAPE   O3111504   6.665   7.018   2.636  0.4352 -0.1845  0.6089
  111SAPE   C3111505   6.562   6.955   2.690  0.5911  0.1733  0.4574
  111SAPE   O3211506   6.514   6.850   2.652  0.6902 -0.3683  0.7308
  111SAPE   C3211507   6.532   7.026   2.831  0.1752  0.6035  0.7323
  111SAPE   H2X11508   6.476   7.116   2.798 -0.5871 -0.1127  0.0087
  111SAPE   H2Y11509   6.632   7.054   2.870  0.6297  0.1828 -0.1167
  111SAPE   C2311510   6.975   6.587   2.908 -0.5819  0.0752  0.5278
  111SAPE   H3R11511   7.083   6.597   2.885 -0.6394 -2.0451 -1.0084
  111SAPE   H3S11512   6.946   6.491   2.955 -0.0846 -1.4601 -2.0683
  111SAPE   C2411513   6.921   6.697   2.998  0.2440  0.3350 -0.2252
  111SAPE   H4R11514   6.811   6.682   3.001 -0.0978  2.4081 -0.4506
  111SAPE   H4S11515   6.934   6.795   2.946 -0.5276  0.4215 -0.2594
  111SAPE   C2511516   6.991   6.721   3.130 -0.1492  0.4817 -0.0502
  111SAPE   H5R11517   7.099   6.701   3.135 -0.2577  0.2397  2.5607
  111SAPE   C2611518   6.929   6.764   3.242  0.4393  0.0246  0.3363
  111SAPE   H6R11519   7.001   6.810   3.310  1.2928 -1.5081  0.4999
  111SAPE   C2711520   6.783   6.790   3.268  0.2889  0.6536 -0.3991
  111SAPE   H7R11521   6.752   6.702   3.329  2.8253 -0.7747 -0.9816
  111SAPE   H7S11522   6.719   6.784   3.177  0.6026 -2.2680 -0.5486
  111SAPE   C2811523   6.761   6.916   3.350 -0.0451  0.5193  0.6662
  111SAPE   H8R11524   6.797   7.010   3.306 -0.7919  0.5496  0.1036
  111SAPE   C2911525   6.725   6.925   3.481 -0.4408 -0.3724 -0.3106
  111SAPE   H9R11526   6.719   7.024   3.528  0.3601 -0.8933  0.9355
  111SAPE  C21011527   6.693   6.806   3.568 -0.4144  0.2617  0.0988
  111SAPE  H10R11528   6.663   6.712   3.517  1.1541  0.0258 -0.4382
  111SAPE  H10S11529   6.612   6.829   3.641 -0.0587  2.7414 -0.1949
  111SAPE  C21111530   6.821   6.770   3.644 -0.5053 -0.2944 -0.1696
  111SAPE  H11R11531   6.911   6.749   3.585  0.2764  1.2259  0.4471
  111SAPE  C21211532   6.837   6.743   3.775 -0.8383  0.2648  0.1561
  111SAPE  H12R11533   6.940   6.724   3.807 -0.6510  0.1305 -0.5118
  111SAPE  C21311534   6.744   6.755   3.895 -0.1518  0.9790 -0.2050
  111SAPE  H13R11535   6.779   6.717   3.993 -2.6926 -0.8789  0.1077
  111SAPE  H13S11536   6.645   6.715   3.863  0.7627  1.1731 -3.6764
  111SAPE  C21411537   6.703   6.901   3.913  0.6142  0.5969  0.2918
  111SAPE  H14R11538   6.607   6.933   3.869 -0.0004  1.0770  1.9128
  111SAPE  C21511539   6.794   6.992   3.952 -0.4851 -0.2321 -0.5940
  111SAPE  H15R11540   6.767   7.097   3.971 -0.1903 -0.7346  3.3775
  111SAPE  C21611541   6.941   6.968   3.985 -0.7595 -0.1632  0.1130
  111SAPE  H16R11542   6.975   6.867   3.954 -0.8587  0.3092 -1.6241
  111SAPE  H16S11543   6.940   6.945   4.094 -0.1892 -1.8883 -0.2060
  111SAPE  C21711544   7.040   7.073   3.937 -0.1642 -0.2867  1.1171
  111SAPE  H17R11545   7.138   7.032   3.968  0.4492  0.8601  0.7664
  111SAPE  H17S11546   7.032   7.176   3.976 -0.4663  0.7175 -1.3714
  111SAPE  C21811547   7.063   7.111   3.785 -0.0251  0.4945  0.5125
  111SAPE  H18R11548   7.100   7.022   3.730  2.3132  2.1983 -0.8532
  111SAPE  H18S11549   7.148   7.183   3.780 -0.1920  0.6825  0.3557
  111SAPE  C21911550   6.944   7.180   3.714 -0.4499 -0.3457  0.0366
  111SAPE  H19R11551   6.887   7.247   3.783 -1.4099  0.7321 -1.7032
  111SAPE  H19S11552   6.873   7.100   3.687 -2.6859  1.4897  0.1568
  111SAPE  C22011553   6.980   7.246   3.577  0.1345  0.2393 -0.3809
  111SAPE  H20R11554   7.023   7.174   3.503  0.8174 -0.3287  0.5483
  111SAPE  H20S11555   7.052   7.329   3.595 -1.2368  1.5147 -0.5908
  111SAPE  H20T11556   6.886   7.291   3.540  0.0503  0.0310 -0.4235
  111SAPE   C3311557   6.444   6.941   2.921 -0.0339  0.6924 -0.9177
  111SAPE   H3X11558   6.487   6.838   2.916 -0.1636  0.6184 -0.5577
  111SAPE   H3Y11559   6.340   6.945   2.882 -0.3996  0.7540  0.0248
  111SAPE   C3411560   6.442   6.991   3.069 -0.3652 -0.0122 -0.0389
  111SAPE   H4X11561   6.416   7.098   3.077  1.4620  0.4299  0.5687
  111SAPE   H4Y11562   6.547   6.984   3.104  0.6193 -0.8281 -2.8194
  111SAPE   C3511563   6.356   6.893   3.158 -0.3296 -0.2932  0.2596
  111SAPE   H5X11564   6.400   6.792   3.143 -2.6120 -1.2665 -0.2377
  111SAPE   H5Y11565   6.246   6.885   3.146 -0.3236 -1.1530  0.7263
  111SAPE   C3611566   6.379   6.921   3.300 -0.4907 -0.2996 -0.4280
  111SAPE   H6X11567   6.486   6.927   3.328 -0.4306 -0.0500 -0.7030
  111SAPE   H6Y11568   6.337   6.834   3.355 -0.6736 -0.1720 -0.3643
  111SAPE   C3711569   6.315   7.057   3.343  0.5219 -0.0696 -0.5112
  111SAPE   H7X11570   6.205   7.052   3.327  0.2395 -0.4767  1.3460
  111SAPE   H7Y11571   6.349   7.143   3.281  1.2504 -0.3018 -0.4425
  111SAPE   C3811572   6.348   7.089   3.485  0.5060 -0.2231  0.4775
  111SAPE   H8X11573   6.303   7.188   3.507 -1.8913 -0.6289 -1.9896
  111SAPE   H8Y11574   6.458   7.098   3.493  0.9791 -1.5355 -2.8382
  111SAPE   C3911575   6.307   6.984   3.582  0.1816 -0.0460  0.0981
  111SAPE   H9X11576   6.376   6.900   3.561 -1.0056 -0.7104 -1.3430
  111SAPE   H9Y11577   6.203   6.944   3.576  0.4702 -0.8411  0.3048
  111SAPE  C31011578   6.333   7.024   3.727  0.0029 -0.2327 -0.0744
  111SAPE  H10X11579   6.322   7.132   3.747 -1.4913 -0.9044  3.4283
  111SAPE  H10Y11580   6.432   6.982   3.755  0.4453  0.7829 -0.0801
  111SAPE  C31111581   6.220   6.969   3.820 -0.0758  0.4696  0.1139
  111SAPE  H11X11582   6.203   6.863   3.793  0.9083 -0.0011  1.2703
  111SAPE  H11Y11583   6.123   7.015   3.792 -1.3148 -1.1018  1.6347
  111SAPE  C31211584   6.257   7.001   3.965 -0.6531 -0.6904 -0.4181
  111SAPE  H12X11585   6.271   7.109   3.985 -0.7049 -0.6245 -0.7392
  111SAPE  H12Y11586   6.350   6.951   4.001 -0.4362  0.7174  1.1122
  111SAPE  C31311587   6.137   6.968   4.055 -0.0634  0.0188 -0.1402
  111SAPE  H13X11588   6.126   6.858   4.058 -0.8788  0.0656 -1.1394
  111SAPE  H13Y11589   6.039   7.008   4.021 -1.3710 -1.5143  1.6065
  111SAPE  C31411590   6.156   7.001   4.203 -0.4060  0.6803  0.2752
  111SAPE  H14X11591   6.174   7.109   4.216 -1.2025  0.7629  0.7475
  111SAPE  H14Y11592   6.239   6.935   4.237  0.2962 -0.1339 -2.6997
  111SAPE  C31511593   6.034   6.953   4.284  0.3479  0.5138 -0.5586
  111SAPE  H15X11594   6.017   6.843   4.274 -1.0481  0.6332  0.2174
  111SAPE  H15Y11595   5.944   6.994   4.234 -1.6279 -1.3928  1.1956
  111SAPE  C31611596   6.038   6.998   4.430  0.4903 -0.8105 -0.6264
  111SAPE  H16X11597   6.035   7.109   4.435 -1.0250 -0.8872  0.8818
  111SAPE  H16Y11598   6.120   6.959   4.494  0.5968  1.5187  0.7511
  111SAPE  C31711599   5.910   6.957   4.514 -0.1967  0.2091  0.2033
  111SAPE  H17X11600   5.829   7.025   4.482  0.6726  0.2705 -2.0921
  111SAPE  H17Y11601   5.931   7.001   4.614  2.1166  1.5848 -0.7990
  111SAPE  C31811602   5.871   6.807   4.519  0.4200  0.7924 -0.0413
  111SAPE  H18X11603   5.949   6.740   4.561  1.0132  0.4700 -1.5643
  111SAPE  H18Y11604   5.835   6.767   4.422  0.2838 -1.9670  1.0724
  111SAPE  H18Z11605   5.785   6.789   4.586 -0.5392  1.2444 -1.1066
  112SAPE     N11606   3.714   5.278   1.965 -0.3790  0.4115  0.1266
  112SAPE   HN111607   3.677   5.375   1.962  0.0816  0.5793 -0.3272
  112SAPE   HN211608   3.635   5.211   1.969 -0.4470  0.5624  2.1614
  112SAPE   HN311609   3.779   5.264   2.045 -1.3255  2.4595  1.3396
  112SAPE   C1211610   3.793   5.256   1.839 -0.5499 -0.3868 -0.2182
  112SAPE  H12A11611   3.752   5.337   1.774  0.9377  1.7400  1.3486
  112SAPE  H12B11612   3.769   5.167   1.777 -3.0574  1.4563 -2.1243
  112SAPE   C1111613   3.942   5.291   1.871  0.3633  0.5032  0.0239
  112SAPE  H11A11614   3.927   5.394   1.909 -0.3910  0.0738  0.9558
  112SAPE  H11B11615   3.996   5.305   1.775  3.3757 -1.3774  1.2849
  112SAPE     P11616   4.087   5.079   1.907  0.2225  0.0048  0.0844
  112SAPE   O1311617   4.001   4.963   1.870 -0.2107  0.3404  0.0981
  112SAPE   O1411618   4.175   5.139   1.797 -0.1414 -0.4728  0.4072
  112SAPE   O1211619   3.999   5.197   1.968  0.0791 -0.6014 -0.3531
  112SAPE   O1111620   4.178   5.030   2.028  0.2355 -0.1149  0.3304
  112SAPE    C111621   4.136   4.934   2.129  0.2634  0.5266 -0.4389
  112SAPE    HA11622   4.028   4.932   2.151  0.6198 -0.0691  1.4791
  112SAPE    HB11623   4.168   4.832   2.099  0.0114  0.3647 -0.1620
  112SAPE    C211624   4.175   4.978   2.278  0.3542  0.4426 -0.1919
  112SAPE    HS11625   4.282   4.956   2.296  0.1846 -0.9197 -0.6781
  112SAPE   O2111626   4.097   4.897   2.374  0.1941  0.5680 -0.0138
  112SAPE   C2111627   4.115   4.767   2.376 -0.5397  0.0007  0.7775
  112SAPE   O2211628   4.189   4.705   2.304 -0.1350  0.7522 -0.3494
  112SAPE   C2211629   4.032   4.692   2.486 -0.5627  0.5504  0.0895
  112SAPE   H2R11630   3.928   4.727   2.471 -2.1731 -3.2715  1.1621
  112SAPE   H2S11631   4.036   4.583   2.464  1.7240  0.1373  2.0757
  112SAPE    C311632   4.127   5.124   2.304  0.2825 -0.4872 -0.0217
  112SAPE    HX11633   4.018   5.114   2.319  0.1341 -1.2817 -1.4318
  112SAPE    HY11634   4.142   5.190   2.216  0.5076 -1.7390 -0.9550
  112SAPE   O3111635   4.167   5.180   2.427 -0.1468  0.3027  0.1625
  112SAPE   C3111636   4.299   5.205   2.423 -0.4433  0.0275 -0.0713
  112SAPE   O3211637   4.373   5.186   2.323  0.0995  0.0181 -0.0521
  112SAPE   C3211638   4.345   5.241   2.560 -0.9836 -0.5963  0.2278
  112SAPE   H2X11639   4.291   5.177   2.633  0.7610 -0.0002  2.1234
  112SAPE   H2Y11640   4.315   5.348   2.568 -2.3632 -0.7229 -2.1510
  112SAPE   C2311641   4.094   4.707   2.630  0.1029 -0.6222  0.2749
  112SAPE   H3R11642   4.205   4.701   2.627  0.3971  2.8014  0.7472
  112SAPE   H3S11643   4.064   4.621   2.694  0.5685 -0.4585  0.7222
  112SAPE   C2411644   4.062   4.842   2.702 -0.7265 -0.4156 -0.3411
  112SAPE   H4R11645   3.952   4.850   2.715 -0.3753 -0.2616  3.8653
  112SAPE   H4S11646   4.088   4.929   2.638 -0.8107 -0.6637 -0.7162
  112SAPE   C2511647   4.136   4.844   2.837 -0.0398  0.3929  0.3620
  112SAPE   H5R11648   4.242   4.874   2.825 -0.3544  1.1412 -0.7124
  112SAPE   C2611649   4.098   4.825   2.961  0.0333  0.0108  0.2935
  112SAPE   H6R11650   4.174   4.841   3.038  1.1121  1.2385 -0.9852
  112SAPE   C2711651   3.961   4.794   3.004 -0.1395 -0.2883  0.1594
  112SAPE   H7R11652   3.897   4.740   2.931 -1.3160 -0.7551  1.4648
  112SAPE   H7S11653   3.909   4.891   3.013 -0.7408 -0.6525  0.7531
  112SAPE   C2811654   3.963   4.711   3.125  0.0705  0.4186  0.3674
  112SAPE   H8R11655   3.961   4.602   3.106 -0.2620  0.5697 -0.5079
  112SAPE   C2911656   3.952   4.766   3.254 -0.0446 -0.5629  0.3304
  112SAPE   H9R11657   3.944   4.708   3.347  0.0813  1.8140  1.8998
  112SAPE  C21011658   3.947   4.912   3.296 -0.1970  0.6021  0.1657
  112SAPE  H10R11659   3.843   4.949   3.289 -0.3318  0.7120  2.0995
  112SAPE  H10S11660   4.014   4.969   3.227  0.5778 -1.8114 -1.1803
  112SAPE  C21111661   3.995   4.929   3.444  0.0956  1.1801 -0.4406
  112SAPE  H11R11662   3.921   4.911   3.523  1.7439 -0.3639  0.8271
  112SAPE  C21211663   4.122   4.910   3.487  0.3792 -0.0749 -0.3005
  112SAPE  H12R11664   4.149   4.926   3.593 -1.4208  0.6239  0.0995
  112SAPE  C21311665   4.241   4.892   3.401  0.3741  0.5819 -0.5568
  112SAPE  H13R11666   4.309   4.966   3.447  0.6825  0.4203 -0.7500
  112SAPE  H13S11667   4.218   4.941   3.304  0.3081  1.6787 -0.0070
  112SAPE  C21411668   4.300   4.752   3.397 -0.1905 -0.5028 -0.2939
  112SAPE  H14R11669   4.254   4.692   3.318  2.8080 -1.6694 -1.2863
  112SAPE  C21511670   4.400   4.703   3.472  0.7659 -0.2188  0.3873
  112SAPE  H15R11671   4.426   4.598   3.450  3.1021  0.3339  0.3180
  112SAPE  C21611672   4.482   4.770   3.579 -0.1245 -0.3126  0.5607
  112SAPE  H16R11673   4.434   4.840   3.650 -0.8842 -0.8041  0.5449
  112SAPE  H16S11674   4.555   4.828   3.520 -1.7270  0.2777 -0.9415
  112SAPE  C21711675   4.540   4.664   3.664 -0.0006  0.4936  0.3159
  112SAPE  H17R11676   4.595   4.587   3.605  0.6765 -0.0283  1.5741
  112SAPE  H17S11677   4.454   4.625   3.722  0.1330 -0.3577 -0.0417
  112SAPE  C21811678   4.628   4.717   3.767 -0.0252  0.4038 -0.6885
  112SAPE  H18R11679   4.593   4.819   3.794 -0.9186 -0.0793 -0.0033
  112SAPE  H18S11680   4.731   4.721   3.725 -0.0972  3.3183 -0.8219
  112SAPE  C21911681   4.631   4.652   3.907  0.3958  0.0164  0.6231
  112SAPE  H19R11682   4.663   4.548   3.885  1.9991  0.3373  1.2895
  112SAPE  H19S11683   4.526   4.656   3.943  0.0976 -0.4299 -0.1667
  112SAPE  C22011684   4.717   4.723   4.005  0.1420 -0.0944 -0.2013
  112SAPE  H20R11685   4.700   4.833   4.010 -0.4523 -0.2104  0.4935
  112SAPE  H20S11686   4.826   4.707   3.991  0.1483  0.9106 -1.4726
  112SAPE  H20T11687   4.693   4.692   4.109 -0.1178 -0.6908 -0.4347
  112SAPE   C3311688   4.494   5.220   2.574  0.2223  0.4557  0.0072
  112SAPE   H3X11689   4.547   5.271   2.490 -1.4738  0.2736 -1.2219
  112SAPE   H3Y11690   4.527   5.114   2.567  1.1908  0.7892 -0.8077
  112SAPE   C3411691   4.554   5.269   2.704  0.7053 -0.1455 -0.4633
  112SAPE   H4X11692   4.524   5.375   2.720 -0.4377 -0.3527 -1.1627
  112SAPE   H4Y11693   4.665   5.271   2.691  0.4791  2.1051 -3.1553
  112SAPE   C3511694   4.520   5.172   2.823 -0.3659 -0.7831 -0.0601
  112SAPE   H5X11695   4.542   5.065   2.801  0.3755 -0.5673 -0.4059
  112SAPE   H5Y11696   4.412   5.165   2.849 -0.5297 -0.9939 -0.7566
  112SAPE   C3611697   4.587   5.214   2.958  0.2239 -0.4781  0.1971
  112SAPE   H6X11698   4.570   5.322   2.976 -0.9753 -0.8167  1.2241
  112SAPE   H6Y11699   4.698   5.206   2.947  0.3077  0.8876 -0.0692
  112SAPE   C3711700   4.520   5.137   3.078 -0.4384 -0.7608 -0.2540
  112SAPE   H7X11701   4.544   5.029   3.072  0.3828 -0.6392  0.5957
  112SAPE   H7Y11702   4.409   5.140   3.072 -0.5568 -1.8436  0.9411
  112SAPE   C3811703   4.576   5.181   3.216 -0.7557 -0.2447 -0.9763
  112SAPE   H8X11704   4.552   5.289   3.223 -1.5926 -0.4062 -1.2415
  112SAPE   H8Y11705   4.686   5.170   3.218 -0.4335  2.2323  2.1423
  112SAPE   C3911706   4.505   5.119   3.340  0.2074  0.2870 -0.7220
  112SAPE   H9X11707   4.508   5.008   3.342  2.1378  0.2867 -1.7134
  112SAPE   H9Y11708   4.398   5.147   3.344 -0.8095 -3.1125 -0.5211
  112SAPE  C31011709   4.567   5.167   3.470  0.3439 -0.2661  0.0450
  112SAPE  H10X11710   4.509   5.122   3.554  0.3587 -0.4553 -0.0441
  112SAPE  H10Y11711   4.583   5.277   3.472  1.7927 -0.3849 -1.9924
  112SAPE  C31111712   4.717   5.120   3.481  0.0341 -0.3696 -0.2736
  112SAPE  H11X11713   4.784   5.185   3.422  1.4450  1.6605  3.2675
  112SAPE  H11Y11714   4.725   5.021   3.431 -0.0452  0.4375 -1.9682
  112SAPE  C31211715   4.765   5.118   3.627 -0.1660 -0.5757  0.0370
  112SAPE  H12X11716   4.687   5.082   3.698  1.4873 -0.4768  1.9935
  112SAPE  H12Y11717   4.778   5.224   3.656  0.6122 -0.9978  1.2765
  112SAPE  C31311718   4.895   5.035   3.648 -1.0003  0.5596 -0.3315
  112SAPE  H13X11719   4.965   5.093   3.584 -0.9667  0.2716 -0.5598
  112SAPE  H13Y11720   4.877   4.937   3.599  0.4543 -0.7610  1.6365
  112SAPE  C31411721   4.937   5.009   3.790  0.1959 -0.9445 -0.1801
  112SAPE  H14X11722   5.041   4.970   3.790  0.5938 -0.1133  2.2914
  112SAPE  H14Y11723   4.881   4.928   3.841 -0.8681  0.6428  1.3147
  112SAPE  C31511724   4.940   5.143   3.861 -0.3400 -0.7037  0.9170
  112SAPE  H15X11725   4.838   5.186   3.867  0.5584  2.2341 -1.8548
  112SAPE  H15Y11726   4.992   5.218   3.798 -0.2992 -1.7815 -0.3683
  112SAPE  C31611727   5.014   5.146   3.992 -0.3852  0.3033  0.8988
  112SAPE  H16X11728   5.122   5.124   3.976  0.1353  2.6614  0.9064
  112SAPE  H16Y11729   4.972   5.071   4.062 -0.6571 -0.6489 -0.2447
  112SAPE  C31711730   5.012   5.279   4.065 -0.0523  0.2254 -0.5687
  112SAPE  H17X11731   4.909   5.298   4.103  0.1560 -0.5026  0.4150
  112SAPE  H17Y11732   5.034   5.359   3.992 -2.6382  1.6009  0.0422
  112SAPE  C31811733   5.115   5.272   4.175 -0.6685 -0.0208 -0.1296
  112SAPE  H18X11734   5.107   5.186   4.246  4.5661 -1.9390 -1.3450
  112SAPE  H18Y11735   5.115   5.363   4.239  2.0265 -0.1233  0.1682
  112SAPE  H18Z11736   5.220   5.272   4.138  0.6569  1.5563  3.2003
  113SAPE     N11737   2.118   4.200   2.094  0.4631  0.1413 -0.4532
  113SAPE   HN111738   2.042   4.268   2.077 -0.2931 -0.9285 -1.5230
  113SAPE   HN211739   2.062   4.117   2.125  0.0864  0.5716  0.0387
  113SAPE   HN311740   2.168   4.223   2.182 -1.0124 -1.2543  0.8325
  113SAPE   C1211741   2.216   4.196   1.987 -0.2686 -0.5420  0.0248
  113SAPE  H12A11742   2.170   4.207   1.887  1.3601  1.7995 -0.5529
  113SAPE  H12B11743   2.274   4.101   1.998  0.7135 -0.2673 -2.1948
  113SAPE   C1111744   2.327   4.304   1.999  0.2155 -0.3157  0.6573
  113SAPE  H11A11745   2.405   4.272   1.927  0.1198 -1.3180  0.9795
  113SAPE  H11B11746   2.368   4.308   2.102  1.3739 -0.8182  0.2339
  113SAPE     P11747   2.352   4.562   1.991  0.0872  0.0015  0.3331
  113SAPE   O1311748   2.455   4.565   1.887  0.5720  0.7062  0.0416
  113SAPE   O1411749   2.248   4.669   1.992  0.3092  0.7562 -0.7505
  113SAPE   O1211750   2.274   4.429   1.967  0.1773  0.1562  0.5456
  113SAPE   O1111751   2.426   4.537   2.124 -0.3107  0.7272  0.0867
  113SAPE    C111752   2.553   4.597   2.149  0.0913  0.5917  0.0117
  113SAPE    HA11753   2.617   4.616   2.060  1.0426  0.4791  0.6534
  113SAPE    HB11754   2.524   4.694   2.196  0.8033  1.3140 -1.0026
  113SAPE    C211755   2.633   4.523   2.253 -0.5949  0.2577  0.4348
  113SAPE    HS11756   2.631   4.415   2.224 -0.0753  0.3253  0.1281
  113SAPE   O2111757   2.578   4.549   2.387  0.2596 -0.5661 -0.5345
  113SAPE   C2111758   2.556   4.444   2.466 -0.8798  0.3953  0.0334
  113SAPE   O2211759   2.550   4.330   2.427  0.1918  0.4473 -0.2659
  113SAPE   C2211760   2.534   4.485   2.616  0.9755 -0.1226  0.3078
  113SAPE   H2R11761   2.486   4.586   2.613  0.8611 -0.0687  2.3784
  113SAPE   H2S11762   2.471   4.406   2.662 -1.3791  0.7133 -1.3026
  113SAPE    C311763   2.782   4.578   2.255 -0.1034  0.5026 -0.1063
  113SAPE    HX11764   2.777   4.685   2.284  0.8587 -0.0522  2.3465
  113SAPE    HY11765   2.811   4.562   2.149  0.1370 -1.6460  0.2301
  113SAPE   O3111766   2.883   4.501   2.331 -0.2322  0.0262  0.0637
  113SAPE   C3111767   2.914   4.378   2.290  0.5251  0.1047  0.3264
  113SAPE   O3211768   2.866   4.324   2.190 -0.4874  0.1659  0.2771
  113SAPE   C3211769   3.012   4.312   2.394  0.2396 -0.1210 -0.0168
  113SAPE   H2X11770   3.110   4.362   2.376 -0.0682  0.1927 -0.9052
  113SAPE   H2Y11771   3.017   4.208   2.355 -0.4853 -0.1298 -0.0953
  113SAPE   C2311772   2.664   4.501   2.698  0.5761  0.0993 -0.0337
  113SAPE   H3R11773   2.725   4.577   2.645  0.4251  1.0147  1.0587
  113SAPE   H3S11774   2.724   4.408   2.711  0.4137  0.1848  1.5336
  113SAPE   C2411775   2.646   4.551   2.842 -0.4800 -0.4438  0.8024
  113SAPE   H4R11776   2.571   4.479   2.882  1.0911 -1.2906  2.3584
  113SAPE   H4S11777   2.593   4.648   2.841  1.6145  0.7585 -0.3517
  113SAPE   C2511778   2.762   4.553   2.930  0.3842 -0.1921  0.1040
  113SAPE   H5R11779   2.844   4.619   2.899  1.0077  0.0096  2.0496
  113SAPE   C2611780   2.781   4.489   3.047  0.1255  0.4879  0.2517
  113SAPE   H6R11781   2.884   4.487   3.085  0.5841  0.2686 -0.9535
  113SAPE   C2711782   2.683   4.395   3.124  0.3065 -0.1368  0.3218
  113SAPE   H7R11783   2.588   4.367   3.074  0.2938  1.5259 -0.6379
  113SAPE   H7S11784   2.648   4.455   3.210  0.9608  1.2788 -0.3674
  113SAPE   C2811785   2.756   4.275   3.169 -0.1427  0.3904 -0.4118
  113SAPE   H8R11786   2.777   4.203   3.088 -1.0956 -0.6806  0.2693
  113SAPE   C2911787   2.815   4.260   3.288  0.3241 -0.2424 -0.2695
  113SAPE   H9R11788   2.889   4.180   3.306 -1.6191 -1.7573  1.5622
  113SAPE  C21011789   2.806   4.351   3.407 -0.8207 -0.7229  0.3597
  113SAPE  H10R11790   2.826   4.457   3.379  0.3557 -0.9505  0.2944
  113SAPE  H10S11791   2.898   4.330   3.467 -0.1778 -2.4869 -1.1691
  113SAPE  C21111792   2.689   4.318   3.493  0.2571 -0.0677 -0.4717
  113SAPE  H11R11793   2.602   4.275   3.441  0.3951  0.6047 -1.2942
  113SAPE  C21211794   2.683   4.326   3.629 -0.1300 -0.0890  0.7506
  113SAPE  H12R11795   2.587   4.310   3.680  0.0621 -0.9509  0.8503
  113SAPE  C21311796   2.797   4.374   3.717  0.2686  0.2361  0.2225
  113SAPE  H13R11797   2.854   4.454   3.665 -0.6466  0.3568 -0.6341
  113SAPE  H13S11798   2.865   4.288   3.736 -1.5019 -1.2731 -0.0234
  113SAPE  C21411799   2.755   4.431   3.851 -0.1009 -0.3254 -0.2076
  113SAPE  H14R11800   2.690   4.519   3.840 -0.5251 -0.8992 -3.1334
  113SAPE  C21511801   2.811   4.412   3.976 -0.5390 -0.4178  0.6169
  113SAPE  H15R11802   2.762   4.453   4.065  1.8482  0.9645  1.3877
  113SAPE  C21611803   2.923   4.323   4.012  0.3362  0.6758 -0.9670
  113SAPE  H16R11804   2.988   4.382   4.080 -0.3499 -0.1129  0.3987
  113SAPE  H16S11805   2.996   4.306   3.929 -0.1459 -0.5120 -1.1696
  113SAPE  C21711806   2.879   4.198   4.088 -0.4475  1.0238  0.0498
  113SAPE  H17R11807   2.973   4.141   4.103 -1.5552 -0.9105 -0.0364
  113SAPE  H17S11808   2.814   4.127   4.033  0.1077 -1.3951  2.3072
  113SAPE  C21811809   2.822   4.234   4.223 -0.0416  0.2954 -0.6566
  113SAPE  H18R11810   2.718   4.273   4.213 -0.0030  0.7645  0.5729
  113SAPE  H18S11811   2.874   4.320   4.271  0.1197  1.1660 -2.3254
  113SAPE  C21911812   2.815   4.119   4.323 -0.1175 -0.0423  0.1689
  113SAPE  H19R11813   2.906   4.055   4.329  0.3184  0.5477 -0.0310
  113SAPE  H19S11814   2.733   4.052   4.289  0.4556  0.7450 -3.0860
  113SAPE  C22011815   2.789   4.160   4.473  0.4840 -0.1934 -0.0528
  113SAPE  H20R11816   2.767   4.077   4.543  0.0806 -0.6097 -0.6621
  113SAPE  H20S11817   2.699   4.226   4.474  1.6538  1.4969 -0.7826
  113SAPE  H20T11818   2.871   4.224   4.512 -0.4883 -1.0867  3.8960
  113SAPE   C3311819   2.962   4.323   2.544  0.1152  0.2508  0.2555
  113SAPE   H3X11820   2.862   4.276   2.551  0.7151 -1.1203 -0.1511
  113SAPE   H3Y11821   2.940   4.430   2.569  0.3881  0.2390  0.5461
  113SAPE   C3411822   3.065   4.273   2.642  0.0459  1.4327 -0.3505
  113SAPE   H4X11823   3.155   4.338   2.632  0.8689  0.5334  0.8956
  113SAPE   H4Y11824   3.098   4.171   2.611  0.7391  2.4035 -3.0326
  113SAPE   C3511825   3.027   4.285   2.791 -0.0098  0.3568 -0.0112
  113SAPE   H5X11826   2.945   4.212   2.811 -0.4281  0.4592 -1.2161
  113SAPE   H5Y11827   2.981   4.386   2.798  0.3437  0.5336 -0.2032
  113SAPE   C3611828   3.148   4.270   2.882 -0.5089 -0.1062 -1.0203
  113SAPE   H6X11829   3.224   4.349   2.863  1.8871 -1.6660  1.3300
  113SAPE   H6Y11830   3.202   4.174   2.870  0.5477  0.4733 -1.0295
  113SAPE   C3711831   3.102   4.274   3.032  0.1777 -0.7397 -0.1607
  113SAPE   H7X11832   3.026   4.194   3.046 -0.8858  0.2587 -0.0181
  113SAPE   H7Y11833   3.046   4.367   3.056 -0.0317  0.0653 -3.3189
  113SAPE   C3811834   3.217   4.258   3.133  0.1387 -0.1606 -0.5237
  113SAPE   H8X11835   3.268   4.161   3.113  1.3952  0.4570 -0.4490
  113SAPE   H8Y11836   3.289   4.336   3.099  3.1014 -2.6162 -0.3136
  113SAPE   C3911837   3.168   4.278   3.271 -0.4048 -0.3622 -0.2363
  113SAPE   H9X11838   3.087   4.206   3.292  0.1916 -0.9012  0.2591
  113SAPE   H9Y11839   3.117   4.377   3.278  0.5419  0.0477  4.8598
  113SAPE  C31011840   3.277   4.266   3.380  0.1855 -0.1459  0.0819
  113SAPE  H10X11841   3.377   4.310   3.358  0.6160 -0.8276  0.6047
  113SAPE  H10Y11842   3.299   4.159   3.402  1.1694  0.1640  0.6757
  113SAPE  C31111843   3.235   4.321   3.515 -0.5499 -0.2961 -0.1362
  113SAPE  H11X11844   3.132   4.283   3.534 -0.3053 -0.0679  1.8669
  113SAPE  H11Y11845   3.228   4.432   3.520  1.2612 -0.1128 -0.8513
  113SAPE  C31211846   3.326   4.287   3.629 -0.3533  0.5941  0.1703
  113SAPE  H12X11847   3.376   4.380   3.664 -2.6089  1.5377  1.0449
  113SAPE  H12Y11848   3.400   4.209   3.599  0.6667  1.8663 -0.7215
  113SAPE  C31311849   3.261   4.233   3.751 -0.9755  0.2682 -1.1046
  113SAPE  H13X11850   3.218   4.132   3.735  0.2304 -0.6856  1.1594
  113SAPE  H13Y11851   3.181   4.291   3.803 -0.5934 -0.1855  0.0301
  113SAPE  C31411852   3.372   4.201   3.858 -0.3727 -0.0385  0.4013
  113SAPE  H14X11853   3.427   4.295   3.879 -1.0416  1.0174 -2.0796
  113SAPE  H14Y11854   3.438   4.121   3.818  0.5096  1.4544 -1.2415
  113SAPE  C31511855   3.319   4.157   3.997 -0.0836  0.0487 -0.6840
  113SAPE  H15X11856   3.254   4.070   3.973 -0.3498 -0.0988  0.4846
  113SAPE  H15Y11857   3.259   4.239   4.042 -0.6124 -0.4840 -0.4103
  113SAPE  C31611858   3.432   4.124   4.098  0.1867 -0.1455  0.1871
  113SAPE  H16X11859   3.495   4.213   4.122  0.8054 -0.2430 -1.0389
  113SAPE  H16Y11860   3.497   4.052   4.045 -0.4853  1.6991 -3.4668
  113SAPE  C31711861   3.379   4.068   4.234 -0.3655 -0.1398  0.4624
  113SAPE  H17X11862   3.318   3.977   4.218 -2.2856  1.2183 -0.4110
  113SAPE  H17Y11863   3.324   4.156   4.275  2.3116  1.9492 -0.1375
  113SAPE  C31811864   3.490   4.037   4.333 -0.2464  0.3179  0.6392
  113SAPE  H18X11865   3.574   3.973   4.298  1.9338  2.4586  1.6270
  113SAPE  H18Y11866   3.450   3.984   4.422  0.1872  0.5578  0.9841
  113SAPE  H18Z11867   3.532   4.136   4.362 -1.1561  1.4048 -1.5142
  114SAPE     N11868   0.314   5.719   2.336 -0.2208 -0.8563  0.1616
  114SAPE   HN111869   0.413   5.737   2.361  0.0754 -0.8942 -0.9254
  114SAPE   HN211870   0.309   5.676   2.241 -0.2882 -1.3535  0.3873
  114SAPE   HN311871   0.269   5.812   2.324  2.8133  0.4543 -2.8193
  114SAPE   C1211872   0.253   5.636   2.445  0.4480  0.4058 -0.8867
  114SAPE  H12A11873   0.319   5.633   2.535 -0.0622 -2.9701 -0.4960
  114SAPE  H12B11874   0.252   5.534   2.400  0.7941 -0.8760  1.8358
  114SAPE   C1111875   0.113   5.687   2.466 -0.3567 -0.0772 -0.0985
  114SAPE  H11A11876   0.115   5.798   2.468  0.0075 -0.0560 -0.9376
  114SAPE  H11B11877   0.082   5.661   2.569  0.3779  2.8838  0.9713
  114SAPE     P11878  -0.133   5.626   2.403  0.5449 -0.2422 -0.4169
  114SAPE   O1311879  -0.182   5.759   2.439 -0.3675  0.0380 -0.5105
  114SAPE   O1411880  -0.194   5.554   2.291  0.5981 -0.0155  0.2933
  114SAPE   O1211881   0.022   5.642   2.369  0.2076 -0.0865 -0.5636
  114SAPE   O1111882  -0.127   5.534   2.532  0.2251  0.2869  0.2768
  114SAPE    C111883  -0.146   5.392   2.531 -0.3189 -0.7437  0.0700
  114SAPE    HA11884  -0.106   5.342   2.441 -1.9051 -1.5918 -0.1805
  114SAPE    HB11885  -0.077   5.359   2.612  1.4617 -2.1720 -1.9072
  114SAPE    C211886  -0.284   5.339   2.558  0.5316  0.3012 -0.3666
  114SAPE    HS11887  -0.347   5.366   2.470 -0.9383  1.4176  0.9624
  114SAPE   O2111888  -0.326   5.420   2.670 -0.0688 -0.3675  0.4257
  114SAPE   C2111889  -0.440   5.395   2.722 -0.3691 -0.1883  0.0673
  114SAPE   O2211890  -0.525   5.326   2.670  0.2876 -0.7668  0.2784
  114SAPE   C2211891  -0.454   5.458   2.862 -0.3447  0.0896 -0.6226
  114SAPE   H2R11892  -0.419   5.563   2.852  1.5821 -0.6095 -1.6831
  114SAPE   H2S11893  -0.561   5.446   2.891  0.1792  0.3637  1.5573
  114SAPE    C311894  -0.274   5.181   2.591 -0.1172 -0.1672  0.1223
  114SAPE    HX11895  -0.252   5.131   2.495 -1.4131  1.2914 -0.9772
  114SAPE    HY11896  -0.379   5.148   2.605 -1.1354  1.8134 -2.1562
  114SAPE   O3111897  -0.194   5.144   2.704  0.1251 -0.5388 -0.7668
  114SAPE   C3111898  -0.076   5.082   2.688  0.3751 -0.5629  0.2183
  114SAPE   O3211899  -0.026   5.049   2.580 -0.2299  0.0142  0.4052
  114SAPE   C3211900  -0.010   5.089   2.823 -0.3464  0.5891 -0.6295
  114SAPE   H2X11901  -0.059   5.018   2.894  1.9291 -0.7641 -0.3232
  114SAPE   H2Y11902  -0.033   5.182   2.878 -1.2388  0.6476 -1.0795
  114SAPE   C2311903  -0.362   5.384   2.966 -0.0596  0.1881  0.0842
  114SAPE   H3R11904  -0.347   5.456   3.049 -2.5037 -0.0317  0.7970
  114SAPE   H3S11905  -0.260   5.366   2.928  1.1249 -0.7223  3.3543
  114SAPE   C2411906  -0.429   5.259   3.039 -0.5278 -1.1797 -0.1118
  114SAPE   H4R11907  -0.353   5.207   3.101 -0.4178  0.9032  1.6490
  114SAPE   H4S11908  -0.464   5.184   2.965  0.7214 -0.9109 -1.0021
  114SAPE   C2511909  -0.556   5.300   3.117 -0.5381 -0.1356 -0.5713
  114SAPE   H5R11910  -0.603   5.391   3.077  1.0257 -0.3712 -3.1800
  114SAPE   C2611911  -0.611   5.227   3.221  0.2234 -0.3572  0.5996
  114SAPE   H6R11912  -0.707   5.271   3.254  0.7980  2.8017 -1.5169
  114SAPE   C2711913  -0.562   5.095   3.276 -0.1451 -0.2245 -0.5324
  114SAPE   H7R11914  -0.473   5.060   3.219  0.8706  0.2346  0.7321
  114SAPE   H7S11915  -0.629   5.008   3.255  2.5845 -2.3458 -1.0880
  114SAPE   C2811916  -0.532   5.110   3.422  0.4283 -0.0385 -0.2509
  114SAPE   H8R11917  -0.490   5.207   3.450 -0.4211  0.2880 -0.0954
  114SAPE   C2911918  -0.547   5.021   3.519 -0.0369  0.2505 -0.1534
  114SAPE   H9R11919  -0.532   5.054   3.623 -2.2814  1.1294 -0.0391
  114SAPE  C21011920  -0.584   4.873   3.499 -0.3154 -0.0355 -0.6457
  114SAPE  H10R11921  -0.623   4.867   3.395  1.3544  3.6588 -1.6273
  114SAPE  H10S11922  -0.668   4.853   3.569  0.5393 -0.4097  0.2875
  114SAPE  C21111923  -0.462   4.778   3.514  0.2892  0.2270  0.3060
  114SAPE  H11R11924  -0.365   4.828   3.524  0.3599  0.0321  0.5940
  114SAPE  C21211925  -0.468   4.648   3.522 -0.2007  0.3665  0.0545
  114SAPE  H12R11926  -0.373   4.593   3.522 -1.3898 -1.7611 -0.2341
  114SAPE  C21311927  -0.598   4.574   3.521 -0.0251  0.7650  0.5521
  114SAPE  H13R11928  -0.672   4.609   3.596 -0.2297 -0.7266  1.0868
  114SAPE  H13S11929  -0.572   4.477   3.568 -1.1117  0.7449  1.1415
  114SAPE  C21411930  -0.657   4.548   3.385  0.3796 -0.1385  0.6862
  114SAPE  H14R11931  -0.696   4.641   3.341  1.5814 -0.0779 -0.3056
  114SAPE  C21511932  -0.641   4.436   3.314  0.5233 -0.0442  0.0370
  114SAPE  H15R11933  -0.670   4.430   3.209  0.6140 -3.3317  0.0961
  114SAPE  C21611934  -0.567   4.313   3.360 -0.1606  0.2505  0.0403
  114SAPE  H16R11935  -0.623   4.219   3.339 -0.8560  0.5046  0.7229
  114SAPE  H16S11936  -0.556   4.295   3.469 -1.4844 -1.1000 -0.0112
  114SAPE  C21711937  -0.424   4.294   3.291 -0.0131  0.3527 -0.3714
  114SAPE  H17R11938  -0.351   4.368   3.329  0.2145 -0.3320  0.5576
  114SAPE  H17S11939  -0.437   4.317   3.183 -2.0939 -0.2536 -0.2979
  114SAPE  C21811940  -0.371   4.156   3.326  0.5380 -0.1221 -0.3763
  114SAPE  H18R11941  -0.425   4.072   3.278  2.2150 -1.0713 -0.6498
  114SAPE  H18S11942  -0.374   4.150   3.437  0.7883  2.5160 -0.1609
  114SAPE  C21911943  -0.220   4.126   3.307  0.2053  0.8048 -0.0919
  114SAPE  H19R11944  -0.212   4.097   3.201 -0.4075  0.6371 -0.0941
  114SAPE  H19S11945  -0.200   4.040   3.374  0.0351  0.7549 -0.1047
  114SAPE  C22011946  -0.117   4.234   3.347  0.3082 -1.2747 -0.7932
  114SAPE  H20R11947  -0.127   4.319   3.276 -1.1851 -1.4357 -0.8272
  114SAPE  H20S11948  -0.020   4.181   3.340 -1.3170 -4.3355 -2.2066
  114SAPE  H20T11949  -0.122   4.280   3.448  2.0279 -5.0757  1.2443
  114SAPE   C3311950   0.141   5.051   2.832  0.0724 -0.3981 -0.1815
  114SAPE   H3X11951   0.196   5.147   2.831 -0.5412 -0.0237  0.6844
  114SAPE   H3Y11952   0.181   4.997   2.744 -0.8351 -0.2581 -0.6970
  114SAPE   C3411953   0.184   4.992   2.970  0.1578  0.7903  0.4540
  114SAPE   H4X11954   0.186   4.882   2.954  0.6043  1.0823 -1.9676
  114SAPE   H4Y11955   0.122   5.018   3.058 -1.4046 -0.5229 -0.2047
  114SAPE   C3511956   0.331   5.041   3.008 -0.4777 -0.5756 -0.4452
  114SAPE   H5X11957   0.323   5.152   3.013 -0.3119 -0.6186  2.5650
  114SAPE   H5Y11958   0.396   4.993   2.932 -1.4967 -3.3854  0.3591
  114SAPE   C3611959   0.376   4.997   3.149 -0.4429  0.2624  0.2764
  114SAPE   H6X11960   0.478   4.954   3.136  0.1195  2.1883 -2.5462
  114SAPE   H6Y11961   0.302   4.922   3.183 -2.6093  1.4457 -1.5241
  114SAPE   C3711962   0.398   5.109   3.244  0.0624 -0.0734 -0.6301
  114SAPE   H7X11963   0.306   5.171   3.242 -0.1658 -0.4020 -0.3723
  114SAPE   H7Y11964   0.483   5.165   3.199 -0.8412 -0.2560 -2.6739
  114SAPE   C3811965   0.425   5.074   3.389  0.0386 -0.1566 -0.3968
  114SAPE   H8X11966   0.521   5.018   3.388  0.9128  1.2854 -0.7500
  114SAPE   H8Y11967   0.347   5.004   3.426  1.9544 -1.9264  0.5059
  114SAPE   C3911968   0.445   5.196   3.478  0.7090  0.1560 -0.0589
  114SAPE   H9X11969   0.348   5.251   3.477  0.2322 -0.6531  0.2660
  114SAPE   H9Y11970   0.509   5.270   3.427 -0.9976  0.3468 -2.0477
  114SAPE  C31011971   0.498   5.168   3.622  0.2513 -0.2338 -0.0738
  114SAPE  H10X11972   0.510   5.265   3.674  0.3761  0.4591 -1.3525
  114SAPE  H10Y11973   0.600   5.124   3.614 -0.3382 -2.2382  2.1065
  114SAPE  C31111974   0.412   5.073   3.708  0.6955  0.4108 -0.1709
  114SAPE  H11X11975   0.397   4.979   3.652  2.0652 -0.1043  0.2711
  114SAPE  H11Y11976   0.312   5.109   3.740  0.5044  0.3260 -0.6669
  114SAPE  C31211977   0.482   5.055   3.847  0.3736 -0.0197 -0.9550
  114SAPE  H12X11978   0.483   5.155   3.897 -0.4075  0.3703 -1.6937
  114SAPE  H12Y11979   0.585   5.026   3.817  1.8857  2.1562  1.6012
  114SAPE  C31311980   0.413   4.956   3.943  0.6874  0.2687 -0.1869
  114SAPE  H13X11981   0.389   4.864   3.885 -1.9203 -0.4253  1.7582
  114SAPE  H13Y11982   0.318   5.007   3.971  0.4786 -0.1386 -0.1408
  114SAPE  C31411983   0.497   4.930   4.064 -0.5258 -0.5041  0.1659
  114SAPE  H14X11984   0.524   5.027   4.110  1.2348 -0.7250 -0.3606
  114SAPE  H14Y11985   0.592   4.886   4.027  0.0243  0.9545 -0.1892
  114SAPE  C31511986   0.421   4.838   4.153 -0.2240 -0.2075  0.6007
  114SAPE  H15X11987   0.437   4.730   4.130 -1.6902 -0.2614 -0.3263
  114SAPE  H15Y11988   0.311   4.851   4.147 -0.0333  1.6623  0.6909
  114SAPE  C31611989   0.461   4.849   4.297  0.2328 -0.3073  0.2035
  114SAPE  H16X11990   0.438   4.953   4.330  2.0050 -0.0056  0.5889
  114SAPE  H16Y11991   0.569   4.829   4.307  0.1288 -0.2281  1.6628
  114SAPE  C31711992   0.402   4.740   4.389  0.3938 -0.0960 -1.1311
  114SAPE  H17X11993   0.401   4.633   4.359  1.6357 -0.6631  0.7108
  114SAPE  H17Y11994   0.291   4.751   4.386  0.1355 -1.9216  0.2146
  114SAPE  C31811995   0.472   4.739   4.527  0.1963  0.0875  0.3981
  114SAPE  H18X11996   0.429   4.670   4.603 -2.9299  1.4113 -0.0085
  114SAPE  H18Y11997   0.470   4.843   4.566  0.1084  0.7643 -1.3130
  114SAPE  H18Z11998   0.581   4.727   4.507 -0.1849 -1.5027 -0.9712
  115SAPE     N11999   3.165   0.109   1.724 -0.2521 -0.1087  0.1019
  115SAPE   HN112000   3.168   0.193   1.785  1.7682 -0.2241  0.2066
  115SAPE   HN212001   3.245   0.103   1.658  0.7824 -0.4249  1.3335
  115SAPE   HN312002   3.074   0.102   1.675 -0.9849 -0.3842  1.4409
  115SAPE   C1212003   3.173  -0.005   1.820  0.2062 -0.1784 -0.4756
  115SAPE  H12A12004   3.211  -0.094   1.766 -3.4999 -3.3827  1.6504
  115SAPE  H12B12005   3.069  -0.026   1.855  0.0194  2.5383  0.8349
  115SAPE   C1112006   3.267   0.029   1.937 -0.2162 -0.0660 -0.1139
  115SAPE  H11A12007   3.373   0.027   1.904  0.2851  2.4982  1.1034
  115SAPE  H11B12008   3.266  -0.048   2.017 -1.1028 -1.0475 -1.0358
  115SAPE     P12009   3.130   0.191   2.085  0.1041  0.0411 -0.3663
  115SAPE   O1312010   3.130   0.328   2.133  0.3978 -0.6988  0.1086
  115SAPE   O1412011   3.004   0.134   2.021 -0.1866 -0.0437 -0.4107
  115SAPE   O1212012   3.242   0.162   1.986  0.0110 -0.1675  0.0194
  115SAPE   O1112013   3.173   0.099   2.205  0.8231 -0.5630  0.3472
  115SAPE    C112014   3.278   0.147   2.291  0.3457  0.1728 -0.2628
  115SAPE    HA12015   3.291   0.256   2.302  1.7962  0.0345 -0.4540
  115SAPE    HB12016   3.262   0.105   2.393 -0.0306  1.6842  0.3290
  115SAPE    C212017   3.410   0.080   2.257  0.1054 -0.3268 -0.2035
  115SAPE    HS12018   3.415   0.084   2.147  1.2093 -0.5495 -0.1730
  115SAPE   O2112019   3.410  -0.064   2.302  0.1770 -0.2517 -0.4377
  115SAPE   C2112020   3.517  -0.130   2.265 -0.1726  0.1224  1.2502
  115SAPE   O2212021   3.597  -0.091   2.181  0.2062  0.5221 -0.2969
  115SAPE   C2212022   3.527  -0.257   2.342 -0.5772 -0.1933  0.3163
  115SAPE   H2R12023   3.524  -0.234   2.450  2.9298  1.1163  0.2680
  115SAPE   H2S12024   3.441  -0.324   2.322  0.1909 -0.6558 -1.7997
  115SAPE    C312025   3.523   0.174   2.314  0.4941 -0.0193  0.0681
  115SAPE    HX12026   3.511   0.265   2.252  0.2278  0.1123  0.3064
  115SAPE    HY12027   3.624   0.136   2.288  0.8622  1.2244 -0.3847
  115SAPE   O3112028   3.530   0.187   2.461 -0.5380  0.0572  0.9647
  115SAPE   C3112029   3.486   0.286   2.527 -0.4188 -0.4695 -0.4421
  115SAPE   O3212030   3.451   0.396   2.489 -0.1192  0.0976  0.2978
  115SAPE   C3212031   3.483   0.234   2.670  0.0833 -0.2986  0.7604
  115SAPE   H2X12032   3.587   0.200   2.687  0.3729 -0.7735 -1.5916
  115SAPE   H2Y12033   3.431   0.137   2.660  1.6652 -1.0256 -0.9564
  115SAPE   C2312034   3.655  -0.338   2.301 -0.1195 -0.1388  0.5126
  115SAPE   H3R12035   3.743  -0.273   2.320 -0.7619  1.1882 -0.8420
  115SAPE   H3S12036   3.658  -0.350   2.191 -2.9016  0.6400  0.2840
  115SAPE   C2412037   3.674  -0.476   2.369 -0.0966  0.1690  0.4470
  115SAPE   H4R12038   3.673  -0.481   2.480  2.2755  0.4429  0.5399
  115SAPE   H4S12039   3.782  -0.492   2.348  0.0407  3.0026 -1.6136
  115SAPE   C2512040   3.589  -0.579   2.295  0.3487  0.1637 -0.2409
  115SAPE   H5R12041   3.637  -0.625   2.208  0.0961  0.1200 -0.3577
  115SAPE   C2612042   3.488  -0.651   2.346 -0.4758 -0.0800 -0.2659
  115SAPE   H6R12043   3.445  -0.736   2.292 -1.4117 -1.0070  1.8434
  115SAPE   C2712044   3.434  -0.625   2.484  0.6113 -0.4639  0.8637
  115SAPE   H7R12045   3.519  -0.604   2.552  1.7088  2.0677 -1.1139
  115SAPE   H7S12046   3.388  -0.720   2.521 -0.7899 -0.4706 -0.7773
  115SAPE   C2812047   3.325  -0.517   2.493 -0.0058  0.2986 -0.0505
  115SAPE   H8R12048   3.271  -0.500   2.398 -2.2001 -0.0509  1.0852
  115SAPE   C2912049   3.308  -0.428   2.594  0.4871  0.9268 -0.0394
  115SAPE   H9R12050   3.221  -0.362   2.581  0.1622  1.2516  2.9842
  115SAPE  C21012051   3.375  -0.411   2.728 -0.6468  0.2303 -0.2205
  115SAPE  H10R12052   3.414  -0.509   2.763 -1.0408 -0.3547 -1.3800
  115SAPE  H10S12053   3.306  -0.400   2.814  2.5315 -2.7715  3.0462
  115SAPE  C21112054   3.482  -0.303   2.727 -0.4078 -0.4543  0.3244
  115SAPE  H11R12055   3.578  -0.328   2.681 -0.6984  0.9630 -1.1472
  115SAPE  C21212056   3.464  -0.177   2.775  0.7945 -0.1130 -0.4741
  115SAPE  H12R12057   3.539  -0.097   2.765  1.1475 -0.5746 -1.8449
  115SAPE  C21312058   3.341  -0.134   2.843 -0.0624 -0.0246  0.1508
  115SAPE  H13R12059   3.370  -0.068   2.928  0.2273  0.6948 -0.4893
  115SAPE  H13S12060   3.286  -0.220   2.885 -0.0886  0.0283  0.2248
  115SAPE  C21412061   3.233  -0.071   2.759  0.1961  0.4768 -0.2645
  115SAPE  H14R12062   3.250  -0.068   2.650  1.4716 -0.7377 -0.1391
  115SAPE  C21512063   3.114  -0.035   2.812 -0.8018 -0.0891  0.7653
  115SAPE  H15R12064   3.044   0.013   2.742 -0.5333  0.7700  1.0652
  115SAPE  C21612065   3.073  -0.030   2.964  0.3319  0.5137  0.0807
  115SAPE  H16R12066   3.147  -0.074   3.035  0.1434  2.0870  1.3151
  115SAPE  H16S12067   2.982  -0.091   2.980  1.7429 -1.7956 -0.2686
  115SAPE  C21712068   3.049   0.122   3.013  0.0242  0.3460  0.1105
  115SAPE  H17R12069   2.939   0.138   3.010  0.2546  2.3596  0.8520
  115SAPE  H17S12070   3.101   0.182   2.935  2.5004 -1.6797  0.0574
  115SAPE  C21812071   3.122   0.147   3.141 -0.8880 -0.2022 -0.2993
  115SAPE  H18R12072   3.071   0.091   3.223 -0.0182  2.9823  2.6610
  115SAPE  H18S12073   3.085   0.246   3.177 -1.9832 -0.3116 -1.0793
  115SAPE  C21912074   3.279   0.143   3.143  0.4328 -0.5329  0.3012
  115SAPE  H19R12075   3.311   0.209   3.060 -0.1085 -3.3076 -2.2517
  115SAPE  H19S12076   3.322   0.047   3.108 -1.8339 -1.0601 -1.2361
  115SAPE  C22012077   3.331   0.206   3.278  0.1881  0.0831  0.2730
  115SAPE  H20R12078   3.438   0.238   3.276  0.2212  0.0452  1.0414
  115SAPE  H20S12079   3.323   0.132   3.360  0.1017 -0.3679 -0.1386
  115SAPE  H20T12080   3.276   0.296   3.312  0.0011 -0.0844  0.4110
  115SAPE   C3312081   3.424   0.336   2.758 -0.1391  0.1513 -1.1048
  115SAPE   H3X12082   3.473   0.436   2.749 -0.7622  0.7570  1.3606
  115SAPE   H3Y12083   3.450   0.304   2.862 -2.0917  0.5938 -0.4299
  115SAPE   C3412084   3.274   0.334   2.753  0.5317 -0.4972 -0.7344
  115SAPE   H4X12085   3.249   0.232   2.788 -2.4453  1.5005  3.9363
  115SAPE   H4Y12086   3.243   0.359   2.650 -0.3426  1.7564 -0.0061
  115SAPE   C3512087   3.209   0.443   2.842  0.1634  0.9003 -0.1539
  115SAPE   H5X12088   3.235   0.413   2.946  0.6925  2.6560  0.2537
  115SAPE   H5Y12089   3.099   0.426   2.837  0.0899  0.2389  2.3784
  115SAPE   C3612090   3.249   0.590   2.820  0.8467 -0.2541  1.0258
  115SAPE   H6X12091   3.204   0.611   2.721  1.3775  0.1059  0.8592
  115SAPE   H6Y12092   3.358   0.606   2.805  0.5616 -0.5039 -1.9657
  115SAPE   C3712093   3.179   0.690   2.922  0.4471  1.0631  0.4590
  115SAPE   H7X12094   3.198   0.660   3.027  0.2411 -1.6265 -0.2183
  115SAPE   H7Y12095   3.068   0.688   2.908 -0.0398  1.5443  3.5697
  115SAPE   C3812096   3.216   0.835   2.900  0.2433  0.6112  0.2471
  115SAPE   H8X12097   3.223   0.857   2.792 -0.3896  1.6756  0.4127
  115SAPE   H8Y12098   3.317   0.841   2.946  0.3705 -1.4949  0.3438
  115SAPE   C3912099   3.126   0.928   2.986  0.1989  0.0058 -0.2454
  115SAPE   H9X12100   3.019   0.907   2.963 -0.2308  2.1712 -0.4218
  115SAPE   H9Y12101   3.146   1.030   2.946  0.1587 -1.0527 -3.2858
  115SAPE  C31012102   3.151   0.898   3.135  0.2788 -0.3411  0.6131
  115SAPE  H10X12103   3.261   0.893   3.148  0.3394 -1.1427 -0.1479
  115SAPE  H10Y12104   3.098   0.807   3.169 -1.1054  1.3021  3.2279
  115SAPE  C31112105   3.103   1.014   3.227  0.5341  0.3946 -0.1879
  115SAPE  H11X12106   2.996   1.038   3.210  0.5387  1.4619  1.1751
  115SAPE  H11Y12107   3.174   1.095   3.202  1.8711  0.3124  2.9075
  115SAPE  C31212108   3.123   0.977   3.375 -0.2783  0.2013 -0.4184
  115SAPE  H12X12109   3.230   0.965   3.404 -0.5827  0.7871  1.0681
  115SAPE  H12Y12110   3.074   0.879   3.396 -0.2040  0.2618  0.0557
  115SAPE  C31312111   3.070   1.076   3.483 -0.5044 -0.5713  0.1230
  115SAPE  H13X12112   2.968   1.111   3.457 -1.4216 -0.7139  3.1631
  115SAPE  H13Y12113   3.140   1.161   3.471 -1.8993  0.4320 -1.3728
  115SAPE  C31412114   3.079   1.031   3.624  0.3518 -0.0116  0.0255
  115SAPE  H14X12115   3.024   1.105   3.686  2.7884  1.6120  0.4095
  115SAPE  H14Y12116   3.185   1.034   3.657  0.0513  0.5524  0.9751
  115SAPE  C31512117   3.025   0.890   3.659  0.0857  0.2482 -0.3049
  115SAPE  H15X12118   3.072   0.823   3.583  2.9469  0.5522  1.0628
  115SAPE  H15Y12119   2.916   0.899   3.641 -0.4145 -2.3693  0.9579
  115SAPE  C31612120   3.042   0.859   3.809 -0.3506  0.4227  1.0329
  115SAPE  H16X12121   3.021   0.954   3.863  0.8612 -0.1320  2.5436
  115SAPE  H16Y12122   3.148   0.836   3.833 -0.7787 -0.5151  2.1230
  115SAPE  C31712123   2.955   0.739   3.864 -0.3263 -0.3122  0.9666
  115SAPE  H17X12124   2.934   0.663   3.786  1.4652 -0.3907  0.5253
  115SAPE  H17Y12125   2.857   0.782   3.893  0.0151  0.7062  0.6912
  115SAPE  C31812126   3.028   0.668   3.985 -0.3924  0.8273 -0.2695
  115SAPE  H18X12127   3.063   0.744   4.057 -1.1188  0.1168  0.8566
  115SAPE  H18Y12128   3.120   0.612   3.958 -0.2303  1.9464 -2.3205
  115SAPE  H18Z12129   2.954   0.605   4.039  0.0259  0.0124 -0.6308
  116SAPE     N12130   3.192   1.677   2.476  0.0296  0.2893  0.2029
  116SAPE   HN112131   3.132   1.681   2.561  0.5539 -1.3943  0.6859
  116SAPE   HN212132   3.265   1.604   2.491  0.3797  1.0291  2.4483
  116SAPE   HN312133   3.238   1.769   2.459 -0.4671  1.2686  3.5143
  116SAPE   C1212134   3.106   1.640   2.358 -0.7039 -0.0293  0.9539
  116SAPE  H12A12135   3.036   1.556   2.374  0.3532 -0.8951  1.2163
  116SAPE  H12B12136   3.169   1.600   2.275 -1.3407 -0.4561  0.6712
  116SAPE   C1112137   3.046   1.770   2.300  0.1234 -0.5133  0.3574
  116SAPE  H11A12138   2.989   1.736   2.211  0.3841 -2.0473  0.7469
  116SAPE  H11B12139   3.116   1.851   2.269 -1.1756  0.2233 -0.7902
  116SAPE     P12140   2.863   1.950   2.368 -0.1005 -0.0734  0.4755
  116SAPE   O1312141   2.827   1.968   2.228 -0.2256 -0.4292 -0.2743
  116SAPE   O1412142   2.750   1.937   2.461 -0.0455  0.4324  0.0349
  116SAPE   O1212143   2.956   1.824   2.396 -0.0023  0.0483 -0.0111
  116SAPE   O1112144   2.950   2.067   2.415 -0.3657 -0.4450  0.0883
  116SAPE    C112145   3.031   2.070   2.533  0.3071  0.0523 -0.5101
  116SAPE    HA12146   3.103   1.986   2.536  1.4377  1.0167  0.1635
  116SAPE    HB12147   3.084   2.167   2.535 -1.3287  1.0269  2.0667
  116SAPE    C212148   2.958   2.055   2.669 -0.2543 -0.3209  0.0374
  116SAPE    HS12149   2.936   1.946   2.672 -0.3205 -0.3640 -1.3691
  116SAPE   O2112150   2.846   2.141   2.667  0.5870 -0.3988  0.1812
  116SAPE   C2112151   2.741   2.093   2.727 -0.1253 -0.2488  0.4803
  116SAPE   O2212152   2.723   1.991   2.787 -0.8764  0.2161 -0.0513
  116SAPE   C2212153   2.632   2.201   2.718  1.0364  0.1024 -0.4778
  116SAPE   H2R12154   2.624   2.235   2.612  2.5198  0.7335 -0.4190
  116SAPE   H2S12155   2.540   2.147   2.747  1.0041  0.1136 -0.5592
  116SAPE    C312156   3.044   2.092   2.790 -0.4414 -0.2306 -0.3810
  116SAPE    HX12157   3.071   2.200   2.787 -1.9403  0.1459 -1.6385
  116SAPE    HY12158   3.146   2.047   2.788  0.0751  0.9075 -1.0975
  116SAPE   O3112159   2.969   2.068   2.911  0.0505 -0.4823  0.0399
  116SAPE   C3112160   2.997   1.949   2.964 -0.0239  0.5246  0.0013
  116SAPE   O3212161   3.079   1.874   2.909  0.4948 -0.3528 -0.7091
  116SAPE   C3212162   2.914   1.918   3.094  0.7011  0.2530 -0.1877
  116SAPE   H2X12163   2.873   2.012   3.137  1.1363  1.0568 -1.4883
  116SAPE   H2Y12164   2.992   1.868   3.157  0.9810 -0.8911 -1.3998
  116SAPE   C2312165   2.655   2.334   2.796 -0.0418 -0.3700 -0.0015
  116SAPE   H3R12166   2.579   2.408   2.763  0.3345  0.1727  0.3471
  116SAPE   H3S12167   2.756   2.372   2.770  0.8659 -1.9033  1.1216
  116SAPE   C2412168   2.635   2.337   2.949 -0.7166  0.1634  0.3601
  116SAPE   H4R12169   2.533   2.298   2.970  0.1749 -1.8007  1.2883
  116SAPE   H4S12170   2.632   2.444   2.979  0.8351  0.6963 -1.2246
  116SAPE   C2512171   2.734   2.260   3.023 -0.0585  0.7089  0.8882
  116SAPE   H5R12172   2.736   2.150   3.015 -0.8159  0.6784  1.0474
  116SAPE   C2612173   2.829   2.313   3.105 -0.2904  0.0498  0.6395
  116SAPE   H6R12174   2.900   2.251   3.162  0.8978  1.5304  0.8239
  116SAPE   C2712175   2.855   2.460   3.134  0.8425  0.3067 -0.0035
  116SAPE   H7R12176   2.785   2.486   3.215  0.4951 -1.7273  0.4054
  116SAPE   H7S12177   2.814   2.520   3.050  2.0553 -0.2721 -1.0635
  116SAPE   C2812178   3.001   2.509   3.151  0.8613 -0.0551 -0.7166
  116SAPE   H8R12179   3.065   2.497   3.063  1.4423  1.0821 -0.4700
  116SAPE   C2912180   3.058   2.561   3.265  0.0776  0.0226 -0.2364
  116SAPE   H9R12181   3.164   2.591   3.259  0.2002 -0.5917 -1.7580
  116SAPE  C21012182   2.987   2.582   3.400 -0.4089  0.2715  0.3888
  116SAPE  H10R12183   2.877   2.566   3.390 -0.1961 -1.0284 -0.0371
  116SAPE  H10S12184   2.995   2.689   3.428 -2.9042  0.0650  2.2357
  116SAPE  C21112185   3.042   2.503   3.517  0.2338  0.2201 -0.1564
  116SAPE  H11R12186   3.143   2.460   3.504 -0.1059 -0.0807 -2.0616
  116SAPE  C21212187   2.971   2.481   3.624 -0.2274 -0.2701 -0.5591
  116SAPE  H12R12188   3.013   2.412   3.698  1.3353  2.8679  1.7137
  116SAPE  C21312189   2.827   2.521   3.656 -0.4986  0.2298 -0.2319
  116SAPE  H13R12190   2.783   2.582   3.575 -0.3030  0.6129 -0.0529
  116SAPE  H13S12191   2.842   2.596   3.736  3.4031 -0.8796  0.2867
  116SAPE  C21412192   2.736   2.403   3.687  0.4782 -0.1975  0.2266
  116SAPE  H14R12193   2.705   2.345   3.599  0.1633  0.4489 -0.0972
  116SAPE  C21512194   2.729   2.349   3.807  0.9487 -0.0678 -0.0088
  116SAPE  H15R12195   2.675   2.254   3.816  2.2998 -0.8171  0.3992
  116SAPE  C21612196   2.786   2.404   3.937  0.1877 -0.4402  0.3057
  116SAPE  H16R12197   2.744   2.505   3.955  1.0169 -0.0471  0.1155
  116SAPE  H16S12198   2.897   2.418   3.930 -0.0552  1.3298 -0.7933
  116SAPE  C21712199   2.744   2.314   4.050  0.1059  0.1853 -0.5467
  116SAPE  H17R12200   2.785   2.212   4.031 -1.1151 -0.4041 -0.1711
  116SAPE  H17S12201   2.635   2.298   4.064  0.3830 -2.3240 -0.7840
  116SAPE  C21812202   2.797   2.377   4.181  0.7826  0.2283  0.8470
  116SAPE  H18R12203   2.764   2.483   4.181  0.1173  0.0359 -0.1418
  116SAPE  H18S12204   2.908   2.374   4.182  0.8182  1.4165  1.3866
  116SAPE  C21912205   2.744   2.319   4.310 -0.4732 -0.0887  0.1470
  116SAPE  H19R12206   2.812   2.351   4.392  1.0213 -0.6439 -0.8267
  116SAPE  H19S12207   2.761   2.209   4.320 -0.2669 -0.0873 -0.1900
  116SAPE  C22012208   2.601   2.359   4.342 -0.3913  0.3169 -0.5582
  116SAPE  H20R12209   2.597   2.469   4.359 -2.0802  0.3521 -0.9658
  116SAPE  H20S12210   2.563   2.306   4.432  2.1471  0.7175  0.8446
  116SAPE  H20T12211   2.542   2.332   4.252  0.0692  0.8258 -1.0232
  116SAPE   C3312212   2.792   1.829   3.057  0.8887  0.5184  0.2667
  116SAPE   H3X12213   2.822   1.736   3.004  0.8899  0.4530  0.3812
  116SAPE   H3Y12214   2.722   1.882   2.989 -0.5655 -1.0321  0.4925
  116SAPE   C3412215   2.712   1.783   3.186  0.7011  0.1766  0.3368
  116SAPE   H4X12216   2.776   1.710   3.240 -0.6304  0.7193  2.7778
  116SAPE   H4Y12217   2.623   1.734   3.142 -1.2063  3.7179 -0.1056
  116SAPE   C3512218   2.671   1.891   3.281 -0.1692 -0.0304 -0.0975
  116SAPE   H5X12219   2.616   1.969   3.224  0.2120 -0.7066 -1.4331
  116SAPE   H5Y12220   2.767   1.930   3.320  0.0403 -1.3459  0.7898
  116SAPE   C3612221   2.589   1.849   3.409 -0.1593  0.9303  0.6861
  116SAPE   H6X12222   2.643   1.755   3.433  1.0708  1.0196 -1.4586
  116SAPE   H6Y12223   2.486   1.827   3.372 -0.1467  0.4570  0.9281
  116SAPE   C3712224   2.592   1.954   3.513 -0.1716  0.1777 -0.4772
  116SAPE   H7X12225   2.576   2.052   3.462 -1.5933 -0.6201 -1.6647
  116SAPE   H7Y12226   2.697   1.937   3.545 -0.2182 -4.8161 -2.1350
  116SAPE   C3812227   2.478   1.930   3.624 -0.2692 -0.0081 -0.4142
  116SAPE   H8X12228   2.461   1.821   3.640 -1.1935  0.0756 -0.7515
  116SAPE   H8Y12229   2.372   1.951   3.595 -0.5219  0.9404  1.0657
  116SAPE   C3912230   2.510   2.000   3.753 -0.3318 -0.1348  0.3164
  116SAPE   H9X12231   2.520   2.111   3.744  3.6757 -0.5292 -2.6208
  116SAPE   H9Y12232   2.612   1.966   3.779 -0.1911 -1.3924 -1.7124
  116SAPE  C31012233   2.423   1.960   3.878  0.2601 -0.3208 -0.3620
  116SAPE  H10X12234   2.432   1.852   3.899  1.3717 -0.0869  0.4573
  116SAPE  H10Y12235   2.319   1.992   3.854  0.5905  0.8242 -0.3341
  116SAPE  C31112236   2.449   2.050   3.995 -0.4208  0.3172 -0.0437
  116SAPE  H11X12237   2.433   2.160   3.984 -2.7096 -0.0004 -0.4524
  116SAPE  H11Y12238   2.552   2.041   4.034 -0.3085 -1.4725 -0.7009
  116SAPE  C31212239   2.352   2.012   4.108 -0.6980  0.8719 -0.7964
  116SAPE  H12X12240   2.254   1.987   4.063 -0.3849  1.7781 -2.0502
  116SAPE  H12Y12241   2.333   2.095   4.179 -3.7127  0.4403 -0.9555
  116SAPE  C31312242   2.406   1.893   4.194  0.5261  0.4775 -0.3325
  116SAPE  H13X12243   2.492   1.927   4.255  1.2232  0.8760 -1.4978
  116SAPE  H13Y12244   2.446   1.810   4.132  0.4922 -1.7479  2.4293
  116SAPE  C31412245   2.297   1.819   4.271  0.1156 -0.9006 -0.4147
  116SAPE  H14X12246   2.324   1.713   4.289 -0.9614 -1.5308 -2.2340
  116SAPE  H14Y12247   2.209   1.817   4.203 -0.9302  1.7708  0.7254
  116SAPE  C31512248   2.261   1.885   4.411 -0.2793  0.5515  0.0520
  116SAPE  H15X12249   2.207   1.979   4.386  0.1014  1.2045  1.5774
  116SAPE  H15Y12250   2.352   1.918   4.465 -0.5295  0.1133  0.7600
  116SAPE  C31612251   2.187   1.793   4.511 -0.3042 -0.3586 -0.0788
  116SAPE  H16X12252   2.241   1.696   4.511  0.5409  0.0487 -2.6098
  116SAPE  H16Y12253   2.082   1.775   4.481 -0.9646  1.4356  0.9811
  116SAPE  C31712254   2.201   1.860   4.650 -0.4260  0.2184  0.5053
  116SAPE  H17X12255   2.308   1.862   4.682  0.2121  1.4831 -1.4954
  116SAPE  H17Y12256   2.149   1.799   4.727 -0.4663  1.3396  1.3960
  116SAPE  C31812257   2.145   1.999   4.655  0.1581  0.9454  0.0816
  116SAPE  H18X12258   2.036   1.985   4.643  0.5299 -1.8095 -0.7982
  116SAPE  H18Y12259   2.183   2.062   4.571 -0.6657  0.8255 -0.3908
  116SAPE  H18Z12260   2.175   2.048   4.750  0.1115 -0.0177  0.6039
  117SOPE     N12261   2.581   4.426   6.773 -0.1891  0.2243 -0.2291
  117SOPE   HN112262   2.630   4.346   6.727 -0.2473  0.5950 -0.9401
  117SOPE   HN212263   2.607   4.508   6.715 -3.1173  1.0253 -0.5535
  117SOPE   HN312264   2.628   4.432   6.866  1.7446  0.7253 -1.1860
  117SOPE   C1212265   2.434   4.397   6.778 -0.1374 -0.3178  0.1730
  117SOPE  H12A12266   2.373   4.490   6.775 -1.8898 -1.4177  0.0297
  117SOPE  H12B12267   2.412   4.344   6.873 -1.7475 -2.0260 -1.0804
  117SOPE   C1112268   2.382   4.318   6.646 -0.0296  0.1470 -0.5209
  117SOPE  H11A12269   2.409   4.375   6.554  0.7363  2.6430  1.1428
  117SOPE  H11B12270   2.271   4.313   6.653  0.0503 -1.1342  0.0192
  117SOPE     P12271   2.353   4.066   6.595 -0.2007 -0.1428  0.2362
  117SOPE   O1312272   2.228   4.054   6.677  0.3120  0.2765  0.1646
  117SOPE   O1412273   2.445   3.949   6.588  0.3903  0.4751  0.3349
  117SOPE   O1212274   2.442   4.187   6.645  0.4270 -0.0795 -0.0299
  117SOPE   O1112275   2.311   4.115   6.445  0.0180  0.1393  0.0971
  117SOPE    C112276   2.414   4.089   6.345 -0.3287 -0.0030  0.3432
  117SOPE    HA12277   2.427   3.981   6.323 -0.3559  0.3863 -1.8069
  117SOPE    HB12278   2.510   4.139   6.371 -0.5981  2.0525 -2.2576
  117SOPE    C212279   2.368   4.147   6.210  0.0725 -0.0940 -0.0887
  117SOPE    HS12280   2.372   4.254   6.238 -2.3469  0.7134 -2.4729
  117SOPE   O2112281   2.229   4.114   6.179 -0.5490  0.1456 -0.1578
  117SOPE   C2112282   2.179   4.208   6.106  1.3112 -0.7630  0.9239
  117SOPE   O2212283   2.234   4.313   6.081 -0.2575  0.4168  0.9220
  117SOPE   C2212284   2.035   4.174   6.061  0.4740 -0.1581 -0.2501
  117SOPE   H2R12285   1.983   4.225   6.145  0.0335 -0.9847 -0.0162
  117SOPE   H2S12286   2.019   4.065   6.057 -1.3639  0.0979 -0.7372
  117SOPE    C312287   2.459   4.117   6.083 -0.4281  0.0235  0.0631
  117SOPE    HX12288   2.468   4.007   6.074  0.1679  0.0175  0.7168
  117SOPE    HY12289   2.563   4.144   6.110 -0.0832 -0.0958 -1.0912
  117SOPE   O3112290   2.409   4.173   5.958 -0.5285 -0.1204 -0.0733
  117SOPE   C3112291   2.497   4.233   5.878  0.0740  0.1571  0.3190
  117SOPE   O3212292   2.618   4.234   5.890 -0.0016  0.3556  0.0870
  117SOPE   C3212293   2.411   4.285   5.764  0.3005  0.1375 -0.2305
  117SOPE   H2X12294   2.335   4.349   5.813  1.7298  1.5598  0.2369
  117SOPE   H2Y12295   2.345   4.205   5.725 -2.2945  2.1634 -0.2508
  117SOPE   C2312296   1.984   4.232   5.930  0.1020  0.4813  0.0571
  117SOPE   H3R12297   2.038   4.328   5.914 -0.5898  0.6526 -1.4249
  117SOPE   H3S12298   1.877   4.258   5.941  0.2107  0.0870  2.4986
  117SOPE   C2412299   1.991   4.140   5.808 -0.4332 -0.6829  0.4326
  117SOPE   H4R12300   2.100   4.125   5.795  0.2263  1.3786  2.7771
  117SOPE   H4S12301   1.937   4.047   5.837 -0.2134 -0.5467  1.3121
  117SOPE   C2512302   1.930   4.222   5.696 -0.0750  0.0945 -0.4081
  117SOPE   H5R12303   1.823   4.246   5.712  0.9226  2.6244  4.1465
  117SOPE   H5S12304   1.978   4.322   5.688  0.8639 -0.3511 -0.5982
  117SOPE   C2612305   1.949   4.154   5.570  0.1741  1.8433  0.5591
  117SOPE   H6R12306   2.050   4.111   5.551 -1.3028 -1.2544 -1.1115
  117SOPE   H6S12307   1.885   4.064   5.578  0.0968  1.7562 -0.7948
  117SOPE   C2712308   1.916   4.240   5.452 -0.2048  0.3511  0.8148
  117SOPE   H7R12309   1.817   4.289   5.462 -0.5968  0.2030 -1.7435
  117SOPE   H7S12310   1.989   4.323   5.438  1.5253 -1.5329 -2.5451
  117SOPE   C2812311   1.919   4.159   5.317 -0.8881  1.2744  0.0122
  117SOPE   H8R12312   1.927   4.230   5.232  1.6095 -1.5711 -2.3935
  117SOPE   H8S12313   2.012   4.100   5.300 -0.0049  2.8284 -0.7184
  117SOPE   C2912314   1.787   4.088   5.298  0.3239 -0.0959  0.0644
  117SOPE   H9112315   1.764   4.005   5.366  1.9394 -0.8725 -0.2916
  117SOPE  C21012316   1.680   4.123   5.214  0.3620 -0.2717 -0.0750
  117SOPE  H10112317   1.594   4.055   5.211  1.3671 -1.5451 -1.5988
  117SOPE  C21112318   1.666   4.232   5.108  0.2395  0.8145 -0.0336
  117SOPE  H11R12319   1.768   4.274   5.102  0.1138  1.4396  1.7989
  117SOPE  H11S12320   1.600   4.312   5.149 -1.0649  1.2094 -2.6501
  117SOPE  C21212321   1.615   4.195   4.968 -0.3653  0.6189 -0.0765
  117SOPE  H12R12322   1.638   4.273   4.892 -1.8438  1.2089  0.0486
  117SOPE  H12S12323   1.505   4.178   4.969 -0.3088 -0.1071 -1.9173
  117SOPE  C21312324   1.675   4.066   4.901  0.3785  0.0050 -0.1086
  117SOPE  H13R12325   1.649   3.979   4.965  3.4807 -1.0380 -0.1235
  117SOPE  H13S12326   1.785   4.069   4.893  0.8386 -0.5582  4.0128
  117SOPE  C21412327   1.609   4.036   4.765 -0.2981 -0.9581  0.1582
  117SOPE  H14R12328   1.645   4.103   4.685  1.4298 -1.6737  0.2906
  117SOPE  H14S12329   1.500   4.053   4.779  0.0902  2.0087  0.0521
  117SOPE  C21512330   1.635   3.894   4.710 -0.0153  0.0334 -0.2802
  117SOPE  H15R12331   1.586   3.818   4.775 -0.7713  0.7850  0.0468
  117SOPE  H15S12332   1.740   3.859   4.709  0.8683  2.4175 -2.6768
  117SOPE  C21612333   1.595   3.885   4.559  0.1232 -0.1309 -0.5835
  117SOPE  H16R12334   1.647   3.952   4.488  0.5895 -0.6144 -0.7025
  117SOPE  H16S12335   1.487   3.910   4.568 -0.5976 -2.6302 -1.5945
  117SOPE  C21712336   1.597   3.740   4.509 -0.5118  0.0609  0.0424
  117SOPE  H17R12337   1.500   3.704   4.547 -1.3985  1.9385 -0.3002
  117SOPE  H17S12338   1.682   3.680   4.549  0.8586  1.6377 -0.3631
  117SOPE  C21812339   1.587   3.735   4.357 -0.5840  0.5732 -0.5884
  117SOPE  H18R12340   1.671   3.802   4.328  0.5425 -0.0937  0.9690
  117SOPE  H18S12341   1.485   3.755   4.319 -1.5706 -0.2200  1.4986
  117SOPE  H18T12342   1.623   3.638   4.318  1.3688  0.5944  0.9912
  117SOPE   C3312343   2.482   4.360   5.652  0.1254 -0.0472 -0.8367
  117SOPE   H3X12344   2.564   4.288   5.634  0.1670 -0.2871  0.2040
  117SOPE   H3Y12345   2.528   4.450   5.700 -1.2421  0.3833 -0.2620
  117SOPE   C3412346   2.415   4.388   5.517  0.6243  0.0191 -0.3588
  117SOPE   H4X12347   2.344   4.473   5.528 -0.2658 -0.9414  2.2646
  117SOPE   H4Y12348   2.359   4.297   5.487 -1.7406  1.3705 -0.2325
  117SOPE   C3512349   2.506   4.418   5.403 -0.0487 -0.2064  0.7880
  117SOPE   H5X12350   2.592   4.353   5.377 -0.6161 -0.1218 -1.5387
  117SOPE   H5Y12351   2.542   4.522   5.413  0.4138 -0.0254 -1.9556
  117SOPE   C3612352   2.432   4.414   5.263 -0.3771  0.1425  0.0629
  117SOPE   H6X12353   2.349   4.488   5.255 -0.9112 -0.3332  1.0156
  117SOPE   H6Y12354   2.398   4.311   5.240  2.1166 -1.0030  1.1066
  117SOPE   C3712355   2.530   4.448   5.151  0.0416 -0.3993 -0.2342
  117SOPE   H7X12356   2.484   4.402   5.060 -0.6835  0.9381 -0.5618
  117SOPE   H7Y12357   2.623   4.394   5.181  0.7367  0.1904 -1.2511
  117SOPE   C3812358   2.573   4.596   5.123  0.5723  0.3305  0.5338
  117SOPE   H8X12359   2.621   4.629   5.218 -0.5693 -0.5187  1.4330
  117SOPE   H8Y12360   2.490   4.668   5.105 -1.1861 -1.6676  0.3241
  117SOPE   C3912361   2.682   4.613   5.016 -0.0385 -0.4715  0.2478
  117SOPE   H9X12362   2.760   4.534   5.023 -0.6396 -1.4015 -2.4461
  117SOPE   H9Y12363   2.725   4.715   5.029  0.4143 -0.7089  0.6540
  117SOPE  C31012364   2.620   4.612   4.873 -0.0995 -0.3576 -0.0753
  117SOPE  H10X12365   2.529   4.674   4.888 -0.9234 -1.7871  1.1081
  117SOPE  H10Y12366   2.587   4.510   4.843  0.0625  0.1341 -2.0534
  117SOPE  C31112367   2.712   4.654   4.755  0.2368  0.6474  0.4224
  117SOPE  H11X12368   2.754   4.754   4.779 -2.1413  1.8520 -0.1262
  117SOPE  H11Y12369   2.654   4.680   4.663  0.0416 -1.7569 -0.1896
  117SOPE  C31212370   2.838   4.563   4.740 -0.1533 -0.2705  0.9781
  117SOPE  H12X12371   2.823   4.459   4.703  0.8760  0.0514 -0.4499
  117SOPE  H12Y12372   2.888   4.549   4.838  1.4514 -1.0600  0.0883
  117SOPE  C31312373   2.936   4.621   4.638 -0.7545  1.5575  0.3341
  117SOPE  H13X12374   2.982   4.716   4.674 -1.2314  1.5394  1.0106
  117SOPE  H13Y12375   2.897   4.643   4.536 -0.8764  1.1641  0.2964
  117SOPE  C31412376   3.058   4.526   4.615  0.5078 -0.2991  0.0351
  117SOPE  H14X12377   3.119   4.556   4.527 -0.8255 -0.6238 -1.0318
  117SOPE  H14Y12378   3.018   4.426   4.591 -0.1832  0.1701 -0.8440
  117SOPE  C31512379   3.141   4.504   4.740 -0.3359 -0.0131 -0.4199
  117SOPE  H15X12380   3.088   4.459   4.827 -0.6230 -1.2043 -1.2006
  117SOPE  H15Y12381   3.180   4.599   4.783  1.2491 -1.3113  1.1684
  117SOPE  C31612382   3.269   4.431   4.714 -0.4252  0.9306 -0.2776
  117SOPE  H16X12383   3.330   4.495   4.646 -1.4979  1.2239 -0.9763
  117SOPE  H16Y12384   3.244   4.338   4.659  0.4723 -0.6909  1.9250
  117SOPE  C31712385   3.345   4.387   4.840  0.2926 -0.0510  0.2011
  117SOPE  H17X12386   3.295   4.296   4.879  1.4500 -0.4729  0.7477
  117SOPE  H17Y12387   3.324   4.464   4.916  0.3514 -0.4978  0.6723
  117SOPE  C31812388   3.487   4.368   4.819 -0.1161 -0.6787 -0.3263
  117SOPE  H18X12389   3.516   4.278   4.761 -0.4349 -0.8604 -0.2013
  117SOPE  H18Y12390   3.528   4.357   4.922 -2.4576 -0.4917  0.6827
  117SOPE  H18Z12391   3.532   4.457   4.769 -0.9157 -0.5979 -0.9190
  118SOPE     N12392   2.411   0.519   6.796 -0.2655 -0.1974 -0.5632
  118SOPE   HN112393   2.438   0.586   6.721 -1.5105  0.6744 -0.2664
  118SOPE   HN212394   2.369   0.439   6.746 -0.2670 -0.8876  0.5139
  118SOPE   HN312395   2.337   0.561   6.856 -0.0718 -1.0130  0.2637
  118SOPE   C1212396   2.538   0.484   6.872  0.0461  0.4156 -0.1196
  118SOPE  H12A12397   2.613   0.442   6.801 -0.6821 -1.5012  0.1802
  118SOPE  H12B12398   2.513   0.416   6.957  0.0092  3.0975  2.1477
  118SOPE   C1112399   2.598   0.608   6.941  0.1774  0.4552 -0.5951
  118SOPE  H11A12400   2.685   0.572   7.000  0.5239 -0.0992 -1.4254
  118SOPE  H11B12401   2.530   0.653   7.017  2.7493  1.5831  1.2028
  118SOPE     P12402   2.780   0.706   6.781 -0.4272 -0.1301  0.1956
  118SOPE   O1312403   2.812   0.576   6.724  0.0382  0.2214  0.2999
  118SOPE   O1412404   2.859   0.761   6.895 -0.3979  0.0049 -0.2227
  118SOPE   O1212405   2.630   0.708   6.845  0.2247 -0.0517 -0.3983
  118SOPE   O1112406   2.768   0.814   6.664 -0.1487 -0.0058 -0.1069
  118SOPE    C112407   2.801   0.954   6.688  0.7547 -0.0551  0.1472
  118SOPE    HA12408   2.911   0.962   6.696  0.6725  0.6550  0.7087
  118SOPE    HB12409   2.746   0.990   6.777 -0.5520  2.1231 -1.4295
  118SOPE    C212410   2.761   1.037   6.570  1.1642  0.1796  0.3666
  118SOPE    HS12411   2.650   1.048   6.565  1.1427  0.8275  1.7939
  118SOPE   O2112412   2.816   0.981   6.444  0.0980 -0.2591 -1.1509
  118SOPE   C2112413   2.734   0.897   6.380  0.1736  0.3824  0.3189
  118SOPE   O2212414   2.625   0.859   6.425 -0.3880 -0.0081 -0.0916
  118SOPE   C2212415   2.782   0.867   6.233  0.0694  0.4263  0.1847
  118SOPE   H2R12416   2.839   0.771   6.231  2.1423  1.5732  1.0604
  118SOPE   H2S12417   2.846   0.948   6.191  0.5838 -1.0184 -1.9936
  118SOPE    C312418   2.808   1.178   6.592  0.2174 -0.9596 -0.1385
  118SOPE    HX12419   2.918   1.189   6.595  0.0002  1.8645  2.5347
  118SOPE    HY12420   2.788   1.203   6.698  0.7728 -0.3536 -0.1709
  118SOPE   O3112421   2.765   1.269   6.485 -0.1072 -0.4821  0.0208
  118SOPE   C3112422   2.653   1.330   6.515  0.0201  0.3410 -0.5561
  118SOPE   O3212423   2.587   1.297   6.619 -0.1610 -0.1852  0.5472
  118SOPE   C3212424   2.631   1.444   6.411 -0.3295 -0.0768 -0.2172
  118SOPE   H2X12425   2.719   1.434   6.343 -1.0279 -0.2770 -1.1153
  118SOPE   H2Y12426   2.627   1.538   6.469 -0.1697 -0.2040 -0.0004
  118SOPE   C2312427   2.660   0.850   6.138 -0.5089 -0.0483 -0.0540
  118SOPE   H3R12428   2.602   0.944   6.150  1.5544  1.5530 -1.7298
  118SOPE   H3S12429   2.594   0.771   6.180  0.5501 -0.8234  0.2047
  118SOPE   C2412430   2.705   0.813   6.000  0.9529 -0.6609 -0.1874
  118SOPE   H4R12431   2.793   0.872   5.967 -0.2594  1.9795  1.0121
  118SOPE   H4S12432   2.730   0.705   6.014 -0.2060 -0.7707  1.3274
  118SOPE   C2512433   2.594   0.811   5.891  0.7369 -0.2297 -0.5996
  118SOPE   H5R12434   2.499   0.758   5.912 -0.3074  2.2206  1.3541
  118SOPE   H5S12435   2.562   0.915   5.868  3.1683  0.3641 -1.5478
  118SOPE   C2612436   2.649   0.758   5.750 -0.1253 -0.3806  0.3397
  118SOPE   H6R12437   2.738   0.821   5.734  1.1166 -1.8402  1.2159
  118SOPE   H6S12438   2.696   0.658   5.757  0.1630 -0.6132 -3.2440
  118SOPE   C2712439   2.546   0.762   5.639  0.1070 -0.3474 -0.6071
  118SOPE   H7R12440   2.461   0.706   5.684  0.5178 -0.4648  0.0261
  118SOPE   H7S12441   2.507   0.866   5.636 -1.7705 -0.9809  0.4547
  118SOPE   C2812442   2.582   0.709   5.502  0.3403  0.1852 -0.2406
  118SOPE   H8R12443   2.619   0.610   5.537  0.8374  1.0325  1.7656
  118SOPE   H8S12444   2.490   0.690   5.443 -0.3354 -2.2316  1.4494
  118SOPE   C2912445   2.690   0.793   5.439  0.2450 -0.2692  0.5992
  118SOPE   H9112446   2.676   0.900   5.418 -1.7206 -0.9250 -1.8493
  118SOPE  C21012447   2.821   0.756   5.408  0.4266 -0.5429 -0.2205
  118SOPE  H10112448   2.884   0.835   5.365 -2.5999  2.0185 -0.3678
  118SOPE  C21112449   2.880   0.615   5.416 -0.2405 -0.0989  0.6782
  118SOPE  H11R12450   2.825   0.554   5.491 -0.3006  0.3905  1.0376
  118SOPE  H11S12451   2.988   0.612   5.442 -0.2028 -0.8958  0.4505
  118SOPE  C21212452   2.861   0.545   5.283  0.2292  0.3890 -0.9186
  118SOPE  H12R12453   2.755   0.543   5.251 -0.0243 -0.1146 -0.0725
  118SOPE  H12S12454   2.893   0.439   5.280  2.1343  0.8667  0.4801
  118SOPE  C21312455   2.941   0.610   5.165  0.6520  0.0198  0.8288
  118SOPE  H13R12456   3.051   0.592   5.163  0.6443 -0.0206 -0.7903
  118SOPE  H13S12457   2.927   0.720   5.154 -0.2166 -0.3014 -2.3614
  118SOPE  C21412458   2.875   0.550   5.035  0.5421 -0.5328 -0.2268
  118SOPE  H14R12459   2.764   0.552   5.034  0.5262  0.7570 -2.1744
  118SOPE  H14S12460   2.895   0.441   5.039  1.2474 -0.4225 -0.5453
  118SOPE  C21512461   2.932   0.622   4.910 -0.2112  0.2480 -0.5672
  118SOPE  H15R12462   3.041   0.641   4.921 -0.4901  1.5531  0.1454
  118SOPE  H15S12463   2.882   0.720   4.914 -0.4082  0.1124  0.4603
  118SOPE  C21612464   2.907   0.547   4.783 -0.4833  0.0317  0.1399
  118SOPE  H16R12465   2.918   0.625   4.704  0.2900  0.5197  0.7218
  118SOPE  H16S12466   2.799   0.519   4.778 -0.4686 -0.0294  0.1666
  118SOPE  C21712467   3.006   0.434   4.752  0.1881  0.2039 -0.0776
  118SOPE  H17R12468   2.995   0.359   4.834 -2.3995 -0.3662 -0.8213
  118SOPE  H17S12469   3.114   0.457   4.764  0.1959 -0.3950  1.1688
  118SOPE  C21812470   2.984   0.364   4.614 -0.0455  0.1468 -0.7462
  118SOPE  H18R12471   3.048   0.273   4.610  1.6610  1.2991 -0.7215
  118SOPE  H18S12472   3.007   0.434   4.531 -1.4480  0.2944 -1.0399
  118SOPE  H18T12473   2.877   0.338   4.602 -0.5699  2.2979 -1.1039
  118SOPE   C3312474   2.495   1.428   6.335 -0.7482 -0.6146  0.3753
  118SOPE   H3X12475   2.416   1.419   6.413 -0.3032 -2.0319  0.6758
  118SOPE   H3Y12476   2.496   1.339   6.269  0.7762 -2.0665  2.2305
  118SOPE   C3412477   2.468   1.556   6.248  0.0765  0.0882 -0.0845
  118SOPE   H4X12478   2.473   1.652   6.304  0.2845  2.5109 -3.8668
  118SOPE   H4Y12479   2.359   1.555   6.223 -0.6489  0.5935  2.7157
  118SOPE   C3512480   2.550   1.562   6.108  0.7731 -0.1737 -0.7395
  118SOPE   H5X12481   2.545   1.473   6.043  0.1625 -0.2057 -0.6531
  118SOPE   H5Y12482   2.656   1.574   6.139  1.4016  0.5252 -3.0004
  118SOPE   C3612483   2.510   1.692   6.032 -0.7519 -0.1809 -0.3205
  118SOPE   H6X12484   2.567   1.778   6.072 -2.6091 -0.6327  3.6932
  118SOPE   H6Y12485   2.401   1.710   6.037 -0.8334 -0.4084 -1.1253
  118SOPE   C3712486   2.534   1.667   5.886  0.0568  0.0416  0.2372
  118SOPE   H7X12487   2.477   1.576   5.857 -0.8467  0.5712  0.3012
  118SOPE   H7Y12488   2.640   1.637   5.872  0.5289  1.5237  0.4593
  118SOPE   C3812489   2.490   1.782   5.795  0.4617  0.3826  0.1337
  118SOPE   H8X12490   2.551   1.873   5.811 -1.1518  1.7125 -0.9057
  118SOPE   H8Y12491   2.388   1.818   5.822 -0.4776 -0.9530 -1.4584
  118SOPE   C3912492   2.487   1.748   5.642 -0.5061 -0.2410  0.3480
  118SOPE   H9X12493   2.438   1.648   5.634  0.1938 -0.7486  1.9637
  118SOPE   H9Y12494   2.588   1.731   5.600 -1.5727 -0.9273 -2.1187
  118SOPE  C31012495   2.403   1.854   5.567  0.6295  0.6243 -0.2379
  118SOPE  H10X12496   2.456   1.951   5.578 -0.2447  0.9644  1.2732
  118SOPE  H10Y12497   2.306   1.860   5.622  1.4119  2.8113  1.0430
  118SOPE  C31112498   2.386   1.832   5.413 -0.0607 -0.4744 -0.0851
  118SOPE  H11X12499   2.351   1.926   5.366  0.9472  0.0334  0.1682
  118SOPE  H11Y12500   2.318   1.744   5.416  0.0905 -0.6301  3.6532
  118SOPE  C31212501   2.526   1.802   5.341 -0.0967  0.1049 -0.7463
  118SOPE  H12X12502   2.580   1.715   5.383  0.6229  0.9356  0.0872
  118SOPE  H12Y12503   2.589   1.894   5.341  2.2631 -1.4285  0.8208
  118SOPE  C31312504   2.513   1.760   5.195 -0.3107  0.7256  0.2205
  118SOPE  H13X12505   2.491   1.852   5.137 -0.2091  1.8681  1.9488
  118SOPE  H13Y12506   2.424   1.696   5.177  0.6855 -0.8354  0.6392
  118SOPE  C31412507   2.628   1.692   5.131 -0.4245  0.4887 -0.3896
  118SOPE  H14X12508   2.670   1.604   5.183  1.4438  1.5319 -0.0416
  118SOPE  H14Y12509   2.709   1.766   5.115  0.1928 -0.3568 -1.3344
  118SOPE  C31512510   2.584   1.634   4.994 -0.1535 -0.3374 -0.6040
  118SOPE  H15X12511   2.571   1.720   4.926  0.4956  0.7602  0.6161
  118SOPE  H15Y12512   2.489   1.578   5.009 -0.5260  0.9381  2.6181
  118SOPE  C31612513   2.695   1.542   4.932  0.3810 -0.3903 -0.7969
  118SOPE  H16X12514   2.665   1.499   4.835  1.7325  1.1293 -1.9495
  118SOPE  H16Y12515   2.714   1.460   5.005 -0.0506  0.7289  0.6333
  118SOPE  C31712516   2.828   1.609   4.908  0.2017  0.5952  0.2791
  118SOPE  H17X12517   2.858   1.652   5.006 -1.0617  0.4571  0.7397
  118SOPE  H17Y12518   2.809   1.696   4.841  0.1961  1.5475  1.4877
  118SOPE  C31812519   2.942   1.516   4.863 -0.8083  0.2498 -0.2873
  118SOPE  H18X12520   3.036   1.574   4.854 -1.1779  0.7393 -1.0926
  118SOPE  H18Y12521   2.920   1.472   4.763 -1.3668 -0.2781  0.0615
  118SOPE  H18Z12522   2.964   1.434   4.935  1.1416 -1.3847 -2.5737
  119SOPE     N12523   3.305   1.236   7.072 -0.4544  0.1789  0.0905
  119SOPE   HN112524   3.285   1.141   7.033  1.6254  0.0504 -0.8219
  119SOPE   HN212525   3.273   1.239   7.170  0.7184  3.8757  0.4970
  119SOPE   HN312526   3.243   1.310   7.036  0.8716  1.5318  0.4927
  119SOPE   C1212527   3.451   1.268   7.062  0.9820  0.3129  0.0463
  119SOPE  H12A12528   3.478   1.261   6.955  0.0087 -0.7751 -0.1490
  119SOPE  H12B12529   3.507   1.189   7.117 -1.1034 -0.4204  1.2233
  119SOPE   C1112530   3.464   1.400   7.126  0.3258 -0.7225 -1.0493
  119SOPE  H11A12531   3.572   1.428   7.130  0.0100  1.0741 -3.3032
  119SOPE  H11B12532   3.414   1.402   7.225 -1.1845  2.0429 -1.7479
  119SOPE     P12533   3.426   1.548   6.915 -0.4741 -0.0603  0.0758
  119SOPE   O1312534   3.574   1.546   6.918 -0.8096 -0.6581  0.1330
  119SOPE   O1412535   3.360   1.676   6.887 -0.4744  0.5924  0.0113
  119SOPE   O1212536   3.382   1.501   7.058  0.0782 -0.1475  0.0869
  119SOPE   O1112537   3.357   1.434   6.829 -0.0676 -0.2349 -0.1736
  119SOPE    C112538   3.344   1.430   6.688 -0.3150  0.3553  0.3808
  119SOPE    HA12539   3.422   1.491   6.638 -1.0254  1.3932  0.5226
  119SOPE    HB12540   3.247   1.474   6.658 -0.4714  0.1444  0.5720
  119SOPE    C212541   3.347   1.278   6.636 -0.9051  0.2428 -0.4559
  119SOPE    HS12542   3.440   1.233   6.674  1.2020  3.8236 -0.9391
  119SOPE   O2112543   3.344   1.271   6.489 -0.2818  0.9491  0.6902
  119SOPE   C2112544   3.397   1.152   6.445  0.2730  0.2381  0.1375
  119SOPE   O2212545   3.480   1.083   6.502 -0.1755  0.1236 -0.0789
  119SOPE   C2212546   3.338   1.124   6.306  0.1994 -0.7317 -0.0979
  119SOPE   H2R12547   3.431   1.116   6.245  1.7600 -0.1214  2.0993
  119SOPE   H2S12548   3.283   1.210   6.262  0.1172 -0.8191 -0.1699
  119SOPE    C312549   3.229   1.204   6.697 -0.7210  0.4250 -0.0349
  119SOPE    HX12550   3.136   1.249   6.656 -0.2680  1.5435  0.1254
  119SOPE    HY12551   3.228   1.224   6.806  2.0636  0.6708  0.0187
  119SOPE   O3112552   3.238   1.059   6.672 -0.3936 -0.0619 -0.2158
  119SOPE   C3112553   3.326   0.984   6.737 -0.2544  0.0791 -0.0935
  119SOPE   O3212554   3.408   1.022   6.824  0.1990  0.6631 -0.1236
  119SOPE   C3212555   3.328   0.846   6.673  0.0443  0.0810  0.0601
  119SOPE   H2X12556   3.398   0.778   6.726  0.4632 -0.7283 -1.4666
  119SOPE   H2Y12557   3.377   0.861   6.574 -1.3919  1.0252 -0.5325
  119SOPE   C2312558   3.250   1.008   6.326  0.3098 -0.0468  0.4980
  119SOPE   H3R12559   3.177   1.035   6.405  0.9083  3.0504  0.1415
  119SOPE   H3S12560   3.312   0.920   6.351 -1.2730 -1.4777 -0.4100
  119SOPE   C2412561   3.161   0.973   6.204 -0.3792  0.1283  0.4893
  119SOPE   H4R12562   3.101   0.882   6.226 -1.2123  0.2953 -0.9426
  119SOPE   H4S12563   3.082   1.049   6.182  0.5465  0.2420 -3.1129
  119SOPE   C2512564   3.238   0.943   6.077  1.0294  0.2946 -0.3778
  119SOPE   H5R12565   3.280   1.033   6.027 -0.0864  1.9953  1.6132
  119SOPE   H5S12566   3.317   0.866   6.091  0.1963 -0.6647 -0.8432
  119SOPE   C2612567   3.142   0.889   5.961 -0.4668 -1.1387 -0.0954
  119SOPE   H6R12568   3.075   0.808   5.997  0.1764 -1.3705  0.6161
  119SOPE   H6S12569   3.074   0.975   5.939  1.0425 -0.1838 -1.3015
  119SOPE   C2712570   3.219   0.841   5.833 -0.1515 -0.1411  0.1962
  119SOPE   H7R12571   3.287   0.922   5.801 -0.4008  0.7250  1.7715
  119SOPE   H7S12572   3.280   0.751   5.856  0.9865  0.6556  0.3318
  119SOPE   C2812573   3.113   0.805   5.730  0.4090 -0.8408  0.5147
  119SOPE   H8R12574   3.038   0.735   5.773 -2.5379  1.2947 -0.8095
  119SOPE   H8S12575   3.047   0.890   5.701 -1.1132 -1.8638  0.8022
  119SOPE   C2912576   3.178   0.744   5.608  0.4924  0.0067 -0.4751
  119SOPE   H9112577   3.171   0.634   5.619 -0.9903  0.2146  1.3887
  119SOPE  C21012578   3.233   0.811   5.502  0.6420 -0.7061  0.1411
  119SOPE  H10112579   3.270   0.740   5.427  0.2257 -2.2012  1.3101
  119SOPE  C21112580   3.243   0.962   5.480  0.0414 -0.2868  1.0185
  119SOPE  H11R12581   3.347   0.996   5.497 -0.2298  1.6375 -0.8075
  119SOPE  H11S12582   3.186   1.015   5.560  2.5289  2.7866  0.9577
  119SOPE  C21212583   3.198   0.998   5.340  0.4083 -0.1155  0.0530
  119SOPE  H12R12584   3.219   1.105   5.321  3.7676 -0.5332  0.7925
  119SOPE  H12S12585   3.090   0.979   5.323  0.3654 -1.4826  1.6365
  119SOPE  C21312586   3.277   0.925   5.235  0.1571  0.0755  0.8860
  119SOPE  H13R12587   3.259   0.815   5.232 -0.7267  0.2253  0.3250
  119SOPE  H13S12588   3.384   0.933   5.262  0.2017 -0.6800  0.9729
  119SOPE  C21412589   3.249   0.978   5.089 -0.3694 -0.0919  0.0485
  119SOPE  H14R12590   3.259   1.088   5.077  3.1890 -0.5660 -3.2324
  119SOPE  H14S12591   3.141   0.961   5.066 -0.6716  0.5184  0.9772
  119SOPE  C21512592   3.343   0.913   4.992  0.3229 -0.4486  0.6476
  119SOPE  H15R12593   3.326   0.804   4.982  1.0736 -0.6124  1.0996
  119SOPE  H15S12594   3.449   0.929   5.020  0.5482 -0.0362 -0.3859
  119SOPE  C21612595   3.318   0.981   4.854  0.4467 -0.3304 -0.5466
  119SOPE  H16R12596   3.350   1.086   4.870 -0.0520 -0.0611 -1.2842
  119SOPE  H16S12597   3.209   0.989   4.830 -0.3172  1.3571  2.8003
  119SOPE  C21712598   3.381   0.910   4.740 -0.0381 -0.0383  0.3449
  119SOPE  H17R12599   3.332   0.934   4.643 -2.3311 -2.1574  0.9029
  119SOPE  H17S12600   3.391   0.800   4.743 -4.2813 -0.5946 -0.6061
  119SOPE  C21812601   3.521   0.963   4.718 -0.3434 -0.1467 -0.0212
  119SOPE  H18R12602   3.590   0.932   4.799 -1.2576  0.7124  1.1059
  119SOPE  H18S12603   3.511   1.073   4.725 -2.1274 -0.3644  1.2699
  119SOPE  H18T12604   3.565   0.942   4.617  1.2165  1.6040  0.2356
  119SOPE   C3312605   3.179   0.790   6.680 -0.4414 -0.2539  0.1929
  119SOPE   H3X12606   3.112   0.868   6.637 -1.4103  0.3285  2.5666
  119SOPE   H3Y12607   3.139   0.778   6.783 -1.4054  1.1753  0.0250
  119SOPE   C3412608   3.161   0.659   6.597 -0.0090 -0.6545  0.1954
  119SOPE   H4X12609   3.058   0.632   6.630 -0.5734  1.2581  0.1688
  119SOPE   H4Y12610   3.228   0.580   6.637  1.0287 -1.5827 -3.0861
  119SOPE   C3512611   3.191   0.670   6.451 -0.7605 -0.2093 -0.1421
  119SOPE   H5X12612   3.299   0.692   6.436 -0.3902 -1.2152  0.8512
  119SOPE   H5Y12613   3.138   0.753   6.400 -1.9040 -1.3995 -0.9683
  119SOPE   C3612614   3.152   0.545   6.376 -0.4982 -0.0957  0.3621
  119SOPE   H6X12615   3.056   0.511   6.421 -0.8010  0.0741 -0.1485
  119SOPE   H6Y12616   3.234   0.476   6.403 -1.4696 -0.9349  1.2560
  119SOPE   C3712617   3.140   0.566   6.226 -0.2288  0.0830  0.4524
  119SOPE   H7X12618   3.238   0.603   6.190  0.1763 -1.1567  0.2569
  119SOPE   H7Y12619   3.058   0.640   6.209  1.3053  2.1703  1.7301
  119SOPE   C3812620   3.122   0.431   6.154  0.3123  0.1703 -0.5268
  119SOPE   H8X12621   3.033   0.387   6.204 -0.7801  1.6969 -1.0404
  119SOPE   H8Y12622   3.213   0.370   6.169  0.3165  0.3958  0.4167
  119SOPE   C3912623   3.107   0.453   6.001  0.9174  0.1458 -0.6663
  119SOPE   H9X12624   3.192   0.512   5.961 -0.2427  1.7797 -0.8444
  119SOPE   H9Y12625   3.020   0.520   5.983  2.0341  1.8700  0.1024
  119SOPE  C31012626   3.079   0.330   5.917  0.5399  0.1264  0.0416
  119SOPE  H10X12627   2.989   0.273   5.949 -0.7512  2.1655  0.2347
  119SOPE  H10Y12628   3.154   0.256   5.952  0.1471 -0.7278 -0.8678
  119SOPE  C31112629   3.062   0.362   5.768 -0.0714  0.1637  0.1744
  119SOPE  H11X12630   3.104   0.456   5.726 -2.0046  1.5352  1.1431
  119SOPE  H11Y12631   2.953   0.370   5.751  0.0913 -0.6153 -1.4863
  119SOPE  C31212632   3.101   0.236   5.682  0.2254  0.3282  0.3953
  119SOPE  H12X12633   3.046   0.149   5.723 -2.5021  0.7927 -1.9221
  119SOPE  H12Y12634   3.208   0.209   5.695  0.5732  1.1549 -0.6191
  119SOPE  C31312635   3.064   0.271   5.539 -0.3375 -0.0595 -0.1951
  119SOPE  H13X12636   3.118   0.360   5.502 -1.4500 -0.1405 -2.1555
  119SOPE  H13Y12637   2.956   0.298   5.535 -0.2873  0.5458  1.6479
  119SOPE  C31412638   3.109   0.148   5.453  0.5296 -0.3380 -0.3029
  119SOPE  H14X12639   3.034   0.068   5.471  0.9829 -1.2113 -2.0497
  119SOPE  H14Y12640   3.214   0.112   5.463  0.2497 -1.5657 -1.4603
  119SOPE  C31512641   3.094   0.170   5.295 -0.0521 -0.4053 -0.2143
  119SOPE  H15X12642   3.002   0.232   5.289  0.4597  0.3320 -0.5763
  119SOPE  H15Y12643   3.062   0.072   5.253 -0.6203  0.1786 -1.1674
  119SOPE  C31612644   3.219   0.231   5.232  0.4269  1.3140 -0.3688
  119SOPE  H16X12645   3.308   0.171   5.260  0.6354  2.1166  0.8077
  119SOPE  H16Y12646   3.244   0.332   5.271  3.5539  0.6217 -0.3545
  119SOPE  C31712647   3.193   0.225   5.083  0.6727 -0.0324  0.5598
  119SOPE  H17X12648   3.110   0.297   5.066  0.9422  0.1469 -0.0313
  119SOPE  H17Y12649   3.170   0.121   5.051  0.4903 -0.2254  1.3095
  119SOPE  C31812650   3.316   0.271   5.005 -0.6801 -0.2243  0.0300
  119SOPE  H18X12651   3.379   0.180   5.016 -2.0753 -1.1300  0.8404
  119SOPE  H18Y12652   3.360   0.358   5.059  0.4380  1.2990 -3.0729
  119SOPE  H18Z12653   3.298   0.296   4.898 -1.2139 -0.1089  0.1448
  120SOPE     N12654   5.999   4.158   6.433 -0.1630 -0.4719 -0.4133
  120SOPE   HN112655   5.938   4.166   6.349  1.2476 -1.0056 -1.5358
  120SOPE   HN212656   5.978   4.067   6.477 -1.8387 -0.7188 -1.6360
  120SOPE   HN312657   5.987   4.234   6.503  1.2275 -2.5141  2.2373
  120SOPE   C1212658   6.136   4.147   6.380 -0.2429  0.7564 -0.0315
  120SOPE  H12A12659   6.139   4.050   6.326 -0.7471  0.1414  1.0262
  120SOPE  H12B12660   6.209   4.138   6.463 -1.6138 -2.6892  0.9757
  120SOPE   C1112661   6.178   4.262   6.288 -0.3090 -0.6577  0.0454
  120SOPE  H11A12662   6.134   4.260   6.186 -0.0259  2.8032 -0.2800
  120SOPE  H11B12663   6.288   4.250   6.274  0.0159 -0.5839  2.1939
  120SOPE     P12664   6.270   4.470   6.438 -0.0308 -0.2083  0.1281
  120SOPE   O1312665   6.364   4.381   6.512 -0.0793 -0.0273  0.4360
  120SOPE   O1412666   6.202   4.583   6.510  0.2047 -0.9435  0.0506
  120SOPE   O1212667   6.162   4.388   6.364 -0.6463  0.4892 -0.0454
  120SOPE   O1112668   6.347   4.512   6.310  0.8022  0.3254 -0.1134
  120SOPE    C112669   6.322   4.636   6.243 -0.9750  0.0131 -0.3075
  120SOPE    HA12670   6.416   4.677   6.201 -1.0642  0.3402 -0.1894
  120SOPE    HB12671   6.285   4.713   6.314  0.2758 -0.9968  1.5410
  120SOPE    C212672   6.224   4.621   6.126 -0.2881  0.4897 -0.2552
  120SOPE    HS12673   6.133   4.563   6.152 -0.4678 -0.7105 -3.1787
  120SOPE   O2112674   6.291   4.554   6.013 -0.3381 -0.3862 -0.2258
  120SOPE   C2112675   6.222   4.476   5.933  0.4639  0.3985  0.1867
  120SOPE   O2212676   6.104   4.444   5.950 -0.5772 -0.0784  0.3060
  120SOPE   C2212677   6.292   4.445   5.799  0.2359  0.0101 -0.3248
  120SOPE   H2R12678   6.401   4.430   5.815  0.7696  0.5213 -3.0733
  120SOPE   H2S12679   6.296   4.538   5.738  0.6199  1.1524  1.3474
  120SOPE    C312680   6.180   4.754   6.075  0.3410 -0.5252  0.5298
  120SOPE    HX12681   6.273   4.814   6.057 -1.0873  1.7456  0.2688
  120SOPE    HY12682   6.127   4.816   6.151  0.4389  0.0784  0.1192
  120SOPE   O3112683   6.101   4.744   5.953  0.0437 -0.1616  0.3561
  120SOPE   C3112684   5.965   4.730   5.972 -0.5078  0.6279 -0.1088
  120SOPE   O3212685   5.914   4.728   6.082 -0.1425 -0.2315 -0.0488
  120SOPE   C3212686   5.894   4.725   5.837 -0.3694  0.7371 -0.1435
  120SOPE   H2X12687   5.800   4.782   5.852 -0.3589  0.2614  2.0996
  120SOPE   H2Y12688   5.879   4.616   5.826  4.4055 -0.0287 -1.4227
  120SOPE   C2312689   6.227   4.317   5.730 -0.1748 -0.3782  0.7319
  120SOPE   H3R12690   6.196   4.250   5.813  0.1390  1.2855  2.2702
  120SOPE   H3S12691   6.306   4.257   5.680  0.9606 -0.0610  2.0841
  120SOPE   C2412692   6.112   4.350   5.628 -0.3957 -0.7011  0.8107
  120SOPE   H4R12693   6.088   4.254   5.577  0.6122  1.2301 -3.9007
  120SOPE   H4S12694   6.021   4.395   5.672 -1.1883 -0.6086 -0.8228
  120SOPE   C2512695   6.168   4.439   5.506 -0.1252  0.2885 -0.2853
  120SOPE   H5R12696   6.130   4.542   5.524 -2.2829 -0.1652 -1.8583
  120SOPE   H5S12697   6.277   4.426   5.492 -0.4828 -1.2928 -1.9720
  120SOPE   C2612698   6.100   4.395   5.371  0.1992  0.7348  0.2503
  120SOPE   H6R12699   6.141   4.299   5.334 -1.2354  0.6239 -1.1470
  120SOPE   H6S12700   5.993   4.373   5.387 -0.2799  3.1456  0.7665
  120SOPE   C2712701   6.117   4.500   5.267  0.1619 -0.4726  0.3885
  120SOPE   H7R12702   6.077   4.590   5.319 -0.0733 -1.6961  2.4455
  120SOPE   H7S12703   6.223   4.527   5.249 -0.5301  3.2302  1.0184
  120SOPE   C2812704   6.037   4.480   5.137  0.5996  0.5763  0.3030
  120SOPE   H8R12705   5.935   4.442   5.155  0.1434  1.2352 -0.7898
  120SOPE   H8S12706   6.029   4.575   5.080  1.1852 -1.5085 -3.6571
  120SOPE   C2912707   6.108   4.392   5.044  0.2535  0.1591 -0.9039
  120SOPE   H9112708   6.094   4.285   5.066  0.0483  0.0202 -1.6824
  120SOPE  C21012709   6.171   4.424   4.930 -0.5398  0.2451 -0.0297
  120SOPE  H10112710   6.216   4.344   4.869 -1.2730 -0.2815  0.1151
  120SOPE  C21112711   6.188   4.555   4.867  0.0270  0.1581  0.0029
  120SOPE  H11R12712   6.291   4.555   4.823  0.9201 -1.2281  1.9504
  120SOPE  H11S12713   6.192   4.649   4.926  1.3953  0.1198  0.0010
  120SOPE  C21212714   6.082   4.595   4.764  0.4865  0.8760 -0.1806
  120SOPE  H12R12715   5.983   4.597   4.815  0.6334 -0.9432  0.2552
  120SOPE  H12S12716   6.078   4.517   4.685  1.2220 -0.4424  1.0370
  120SOPE  C21312717   6.112   4.725   4.695  0.2244 -0.7502 -0.0462
  120SOPE  H13R12718   6.134   4.806   4.768 -0.7044 -0.1175 -0.4595
  120SOPE  H13S12719   6.020   4.755   4.641  0.6728  1.6424  0.3975
  120SOPE  C21412720   6.228   4.708   4.591  0.1691 -0.1197  0.8022
  120SOPE  H14R12721   6.220   4.617   4.528  0.1443  0.7315 -0.4507
  120SOPE  H14S12722   6.323   4.714   4.649 -0.0796  1.4314  1.0899
  120SOPE  C21512723   6.229   4.831   4.497  1.0363 -0.1494 -0.5179
  120SOPE  H15R12724   6.321   4.815   4.437  1.1107 -1.3500 -0.1126
  120SOPE  H15S12725   6.228   4.930   4.547  0.3247 -0.4163  0.0227
  120SOPE  C21612726   6.112   4.820   4.393 -1.0230 -0.2232  0.0333
  120SOPE  H16R12727   6.021   4.859   4.443  0.6626  0.3059  2.8716
  120SOPE  H16S12728   6.081   4.714   4.384 -1.0226 -0.1691 -0.7119
  120SOPE  C21712729   6.146   4.886   4.256 -0.5638 -0.2287 -0.3143
  120SOPE  H17R12730   6.169   4.802   4.187 -0.0631  0.4705 -1.0258
  120SOPE  H17S12731   6.234   4.952   4.272 -0.6198 -0.5245  1.4038
  120SOPE  C21812732   6.027   4.959   4.198 -0.2345 -0.1260 -0.2718
  120SOPE  H18R12733   6.035   4.977   4.089 -1.4523  3.1291  0.0948
  120SOPE  H18S12734   6.022   5.056   4.252 -1.0296 -0.3044 -0.0217
  120SOPE  H18T12735   5.939   4.895   4.222 -0.4383 -1.1389 -3.2564
  120SOPE   C3312736   5.961   4.774   5.708 -0.4002  0.2552 -0.1227
  120SOPE   H3X12737   6.049   4.706   5.704 -1.4333 -1.0641 -1.7270
  120SOPE   H3Y12738   5.982   4.883   5.708  1.1450  0.1289  3.5623
  120SOPE   C3412739   5.867   4.755   5.587 -0.1116  0.2773 -0.0765
  120SOPE   H4X12740   5.775   4.815   5.603  1.7915  3.6094 -0.6253
  120SOPE   H4Y12741   5.841   4.648   5.571 -2.3951  0.7084  0.4123
  120SOPE   C3512742   5.939   4.805   5.464  0.0824 -0.5981 -0.3015
  120SOPE   H5X12743   6.026   4.738   5.448  0.2463 -0.0770 -1.7279
  120SOPE   H5Y12744   5.970   4.912   5.472 -1.9931  0.1061 -0.8865
  120SOPE   C3612745   5.846   4.775   5.347 -0.1295  0.4153  0.5204
  120SOPE   H6X12746   5.746   4.823   5.352 -0.6072 -0.0020 -2.8660
  120SOPE   H6Y12747   5.832   4.667   5.324  0.2464  0.3497  0.5912
  120SOPE   C3712748   5.892   4.832   5.212  0.4708  0.4962  0.2080
  120SOPE   H7X12749   5.995   4.793   5.196 -0.5913 -1.6432 -2.0565
  120SOPE   H7Y12750   5.886   4.942   5.225  0.6372  0.6332 -0.8195
  120SOPE   C3812751   5.788   4.798   5.096 -0.4181 -0.1618 -0.6952
  120SOPE   H8X12752   5.691   4.824   5.144  0.1379  0.8952 -0.1044
  120SOPE   H8Y12753   5.788   4.692   5.061  0.9099  0.1957 -1.8724
  120SOPE   C3912754   5.804   4.893   4.983 -0.2574  0.0276  0.0938
  120SOPE   H9X12755   5.910   4.906   4.953 -0.6287  1.1477 -0.8049
  120SOPE   H9Y12756   5.769   4.996   5.004  0.5631  0.7414 -1.8019
  120SOPE  C31012757   5.741   4.831   4.854 -0.2113 -0.3202  0.8883
  120SOPE  H10X12758   5.637   4.797   4.872 -0.7944  0.6590 -0.5124
  120SOPE  H10Y12759   5.804   4.741   4.833 -1.8312 -1.2049 -0.4357
  120SOPE  C31112760   5.747   4.926   4.738 -0.0871  0.0277  0.5651
  120SOPE  H11X12761   5.852   4.956   4.718 -0.3082  0.0782 -0.6399
  120SOPE  H11Y12762   5.691   5.013   4.777  1.6014  0.2258  2.6915
  120SOPE  C31212763   5.678   4.873   4.602 -0.1311  0.2208  0.0154
  120SOPE  H12X12764   5.578   4.851   4.646  0.6065 -0.5070  1.4183
  120SOPE  H12Y12765   5.730   4.781   4.568 -1.8571 -0.7261 -0.1713
  120SOPE  C31312766   5.669   4.968   4.485 -0.4491  0.0007  0.3881
  120SOPE  H13X12767   5.769   5.011   4.463 -0.5070  0.4292  0.9362
  120SOPE  H13Y12768   5.592   5.045   4.507 -2.2963 -1.9275  0.9112
  120SOPE  C31412769   5.629   4.893   4.352  0.1033 -0.4607 -0.0752
  120SOPE  H14X12770   5.551   4.822   4.390 -2.0191  2.4692  1.4629
  120SOPE  H14Y12771   5.716   4.835   4.316  0.0220 -0.2040 -0.7054
  120SOPE  C31512772   5.580   4.982   4.239  0.5921  0.6701  0.3072
  120SOPE  H15X12773   5.492   5.043   4.269  1.2346  1.2779  0.9798
  120SOPE  H15Y12774   5.543   4.910   4.163  2.2925 -1.2019  1.1546
  120SOPE  C31612775   5.692   5.064   4.177  0.3770 -0.6156  0.3012
  120SOPE  H16X12776   5.755   4.995   4.117  2.0093  1.3677 -0.3851
  120SOPE  H16Y12777   5.746   5.107   4.263  0.6184  1.4643 -0.8247
  120SOPE  C31712778   5.639   5.183   4.093  0.2378  0.3373  1.0214
  120SOPE  H17X12779   5.702   5.271   4.116 -0.0881  1.2007 -1.1577
  120SOPE  H17Y12780   5.535   5.209   4.122  0.3225  0.2566  1.4039
  120SOPE  C31812781   5.627   5.169   3.940  0.7092  0.4203  0.2451
  120SOPE  H18X12782   5.703   5.113   3.883  1.8429  2.7151 -0.6417
  120SOPE  H18Y12783   5.619   5.267   3.889 -0.1588  0.1951 -0.0749
  120SOPE  H18Z12784   5.536   5.108   3.920  0.2817  1.0091  0.3510
  121SOPE     N12785   5.888   2.201   6.817  0.0795 -0.1318 -0.3352
  121SOPE   HN112786   5.945   2.271   6.765 -1.5736  1.3687 -0.2130
  121SOPE   HN212787   5.939   2.126   6.867 -0.2779 -1.7545 -2.2595
  121SOPE   HN312788   5.826   2.153   6.748  1.4712 -0.7731 -1.1851
  121SOPE   C1212789   5.794   2.291   6.900 -0.1638  0.5257  0.2442
  121SOPE  H12A12790   5.860   2.351   6.966  0.7927  1.3092 -1.3786
  121SOPE  H12B12791   5.729   2.225   6.962  1.4796  0.0863  1.5542
  121SOPE   C1112792   5.701   2.372   6.803 -0.0819  0.3980  0.7675
  121SOPE  H11A12793   5.624   2.304   6.760 -0.7094  2.2100 -1.1266
  121SOPE  H11B12794   5.768   2.414   6.726 -1.1795  1.0787  0.1537
  121SOPE     P12795   5.533   2.579   6.828  0.1493  0.2213  0.0154
  121SOPE   O1312796   5.575   2.716   6.821 -0.3407 -0.5317  0.8385
  121SOPE   O1412797   5.417   2.548   6.921  0.5126  0.0362 -0.3088
  121SOPE   O1212798   5.654   2.489   6.869 -0.4840 -0.3249 -0.1855
  121SOPE   O1112799   5.488   2.533   6.690  0.1874  0.3020 -0.0133
  121SOPE    C112800   5.500   2.610   6.566  0.3148  0.1973 -0.0188
  121SOPE    HA12801   5.533   2.541   6.486  2.6232 -1.4198  2.1652
  121SOPE    HB12802   5.571   2.693   6.584 -0.6097  0.8114  0.9401
  121SOPE    C212803   5.358   2.665   6.524  0.4719  0.2764  0.0112
  121SOPE    HS12804   5.298   2.691   6.614 -1.7070 -0.7927 -1.0625
  121SOPE   O2112805   5.291   2.564   6.454 -0.5777 -0.3930 -0.8377
  121SOPE   C2112806   5.158   2.580   6.416  0.3926  0.2232 -0.5264
  121SOPE   O2212807   5.084   2.672   6.453  0.4343  0.0738 -0.1125
  121SOPE   C2212808   5.118   2.466   6.334 -0.4659  0.0546  0.3030
  121SOPE   H2R12809   5.008   2.477   6.321 -0.1732  3.2958 -0.3113
  121SOPE   H2S12810   5.145   2.366   6.375  3.5003  0.4094 -1.0243
  121SOPE    C312811   5.368   2.795   6.444 -0.0935 -0.1653 -0.1064
  121SOPE    HX12812   5.424   2.866   6.509 -0.2063 -0.1976  0.0285
  121SOPE    HY12813   5.266   2.839   6.439  0.0223  0.2621  0.9898
  121SOPE   O3112814   5.426   2.782   6.313 -0.3924  0.4469 -0.0975
  121SOPE   C3112815   5.351   2.807   6.205 -0.4704  0.3444  0.3478
  121SOPE   O3212816   5.231   2.798   6.204  0.0710 -0.1976 -0.5324
  121SOPE   C3212817   5.438   2.840   6.084  0.1045 -0.0009 -0.7868
  121SOPE   H2X12818   5.505   2.752   6.068  0.7157  0.6755 -2.1135
  121SOPE   H2Y12819   5.485   2.938   6.105 -2.0585  1.0322 -0.5524
  121SOPE   C2312820   5.174   2.463   6.191  0.4218 -1.2482  0.3659
  121SOPE   H3R12821   5.283   2.485   6.189  0.3785 -1.0941 -0.8142
  121SOPE   H3S12822   5.118   2.544   6.140  2.1217 -0.2372  0.0314
  121SOPE   C2412823   5.149   2.336   6.112  0.1300 -0.0894  0.7341
  121SOPE   H4R12824   5.191   2.250   6.169 -0.1973 -0.4605  0.4181
  121SOPE   H4S12825   5.040   2.318   6.099 -0.0884 -0.3868  2.6766
  121SOPE   C2512826   5.209   2.328   5.967  0.7103 -1.0306  0.6085
  121SOPE   H5R12827   5.157   2.236   5.932 -0.9033 -0.2347  0.7937
  121SOPE   H5S12828   5.169   2.412   5.907  0.2012 -0.8198  1.2279
  121SOPE   C2612829   5.362   2.328   5.959  0.2506 -0.1412  0.6543
  121SOPE   H6R12830   5.408   2.399   6.031  2.5407 -0.4038 -0.4726
  121SOPE   H6S12831   5.389   2.230   6.003 -3.5687 -0.0660  3.7770
  121SOPE   C2712832   5.402   2.345   5.814 -0.5233 -0.6817  0.2867
  121SOPE   H7R12833   5.362   2.257   5.759  1.4141 -0.8373 -0.9748
  121SOPE   H7S12834   5.357   2.435   5.767  1.0772 -0.0154 -0.0356
  121SOPE   C2812835   5.555   2.340   5.787 -0.1573  1.0476 -0.0689
  121SOPE   H8R12836   5.599   2.254   5.841 -1.9878 -0.4325 -0.8324
  121SOPE   H8S12837   5.585   2.319   5.682 -1.4524 -4.1970  0.3364
  121SOPE   C2912838   5.630   2.460   5.839 -0.3170 -0.0469 -0.3882
  121SOPE   H9112839   5.624   2.467   5.949 -1.3132 -3.3869 -0.1294
  121SOPE  C21012840   5.720   2.535   5.768  0.3457  0.0213 -0.0151
  121SOPE  H10112841   5.767   2.625   5.810 -2.1434  2.1953 -1.5145
  121SOPE  C21112842   5.747   2.532   5.616 -0.3314  0.1451  0.2536
  121SOPE  H11R12843   5.665   2.481   5.560  1.2812 -1.8912 -0.4097
  121SOPE  H11S12844   5.829   2.458   5.615  0.7140  1.1992  2.5596
  121SOPE  C21212845   5.796   2.660   5.542  0.4979 -0.2056 -0.2757
  121SOPE  H12R12846   5.906   2.669   5.556  0.7418 -1.5968 -1.0935
  121SOPE  H12S12847   5.745   2.747   5.588 -1.3663 -1.1982 -0.3762
  121SOPE  C21312848   5.763   2.663   5.393 -0.2701 -0.4664  0.1934
  121SOPE  H13R12849   5.652   2.666   5.382 -0.1489  1.0676 -1.0041
  121SOPE  H13S12850   5.787   2.568   5.340  0.4484  0.4957 -1.2769
  121SOPE  C21412851   5.823   2.779   5.309 -0.7430  0.0495 -0.6652
  121SOPE  H14R12852   5.932   2.757   5.297 -0.8175 -0.0968 -1.0899
  121SOPE  H14S12853   5.825   2.877   5.362  0.1362  0.4630 -1.4275
  121SOPE  C21512854   5.764   2.793   5.169 -0.3418 -0.4186  0.7952
  121SOPE  H15R12855   5.654   2.810   5.172 -0.3584  0.8095 -2.2507
  121SOPE  H15S12856   5.773   2.693   5.121  0.5216  1.1558 -2.6855
  121SOPE  C21612857   5.812   2.898   5.072  0.0287  0.0162 -0.0384
  121SOPE  H16R12858   5.923   2.896   5.063 -0.0385  1.7434 -1.9991
  121SOPE  H16S12859   5.791   2.999   5.110 -0.6878  0.1097 -0.6594
  121SOPE  C21712860   5.760   2.880   4.934 -0.1109  0.4761  0.3732
  121SOPE  H17R12861   5.650   2.891   4.937 -0.4223 -1.2571 -1.7592
  121SOPE  H17S12862   5.792   2.779   4.901  1.3011  0.1752  2.4708
  121SOPE  C21812863   5.801   2.994   4.837  0.7264 -0.0201 -0.2150
  121SOPE  H18R12864   5.892   2.957   4.785  3.2268  0.8330  3.2530
  121SOPE  H18S12865   5.828   3.085   4.894 -2.7220  0.9535  0.0776
  121SOPE  H18T12866   5.719   3.012   4.764  0.4556  1.3913  0.4187
  121SOPE   C3312867   5.360   2.845   5.961  0.3987 -0.5410  0.5345
  121SOPE   H3X12868   5.415   2.888   5.875 -2.4730  0.8631 -0.7311
  121SOPE   H3Y12869   5.265   2.901   5.971 -0.2896 -1.4673 -0.5705
  121SOPE   C3412870   5.317   2.697   5.919 -0.1196  0.3205 -0.0887
  121SOPE   H4X12871   5.273   2.652   6.010  0.7989 -2.5017 -0.9196
  121SOPE   H4Y12872   5.405   2.637   5.885  1.3565  1.8325  0.9460
  121SOPE   C3512873   5.205   2.698   5.819  0.3248 -0.2783  0.2674
  121SOPE   H5X12874   5.114   2.727   5.875 -0.0775 -2.3070  0.7574
  121SOPE   H5Y12875   5.177   2.592   5.802  0.0342 -0.7639  3.1674
  121SOPE   C3612876   5.225   2.785   5.693  0.6965  0.3589 -0.1895
  121SOPE   H6X12877   5.316   2.736   5.653 -0.0208 -1.7777  0.6610
  121SOPE   H6Y12878   5.259   2.889   5.711 -0.2352  0.6445 -0.0289
  121SOPE   C3712879   5.111   2.783   5.587 -0.8777  0.4420 -0.0677
  121SOPE   H7X12880   5.015   2.797   5.642 -2.4032 -1.8934 -1.9553
  121SOPE   H7Y12881   5.100   2.686   5.535 -0.6903  0.8436 -0.8722
  121SOPE   C3812882   5.119   2.894   5.490  0.4819  0.0065  0.1998
  121SOPE   H8X12883   5.227   2.902   5.466  0.2661  0.9145 -0.5347
  121SOPE   H8Y12884   5.094   2.991   5.539 -0.7432 -0.2649  0.1651
  121SOPE   C3912885   5.031   2.874   5.362 -0.7218  0.3938 -0.0320
  121SOPE   H9X12886   4.925   2.856   5.391 -1.6222  0.1612 -3.0425
  121SOPE   H9Y12887   5.070   2.782   5.313 -1.1849 -1.1061  2.2886
  121SOPE  C31012888   5.018   3.006   5.291 -0.7629  0.5014  0.4154
  121SOPE  H10X12889   5.117   3.048   5.262 -1.3320  0.1157 -2.4031
  121SOPE  H10Y12890   4.970   3.073   5.364  0.1238 -0.3164  1.7962
  121SOPE  C31112891   4.942   3.000   5.160 -0.1803  0.4490  0.0891
  121SOPE  H11X12892   4.839   2.965   5.182 -0.7413  2.1156  0.2369
  121SOPE  H11Y12893   4.995   2.932   5.088  1.1220  1.3619  0.1440
  121SOPE  C31212894   4.920   3.137   5.093 -0.2987 -0.5590 -0.6282
  121SOPE  H12X12895   4.899   3.129   4.984 -0.7975 -2.2336 -0.4367
  121SOPE  H12Y12896   5.017   3.192   5.098  0.2724 -1.3825 -1.8892
  121SOPE  C31312897   4.799   3.215   5.162 -0.1899 -0.5198  0.3114
  121SOPE  H13X12898   4.837   3.244   5.263  1.2426  0.5494 -0.4983
  121SOPE  H13Y12899   4.717   3.141   5.172  0.7038 -1.6338 -0.3001
  121SOPE  C31412900   4.753   3.334   5.083 -0.2664 -0.1169 -0.3310
  121SOPE  H14X12901   4.847   3.381   5.046 -0.3328 -2.2111 -3.5452
  121SOPE  H14Y12902   4.693   3.407   5.140  0.6168  0.4637 -0.1262
  121SOPE  C31512903   4.673   3.289   4.960  0.2745  0.0573 -0.1945
  121SOPE  H15X12904   4.594   3.223   5.001  1.0130 -1.3979 -1.0294
  121SOPE  H15Y12905   4.732   3.220   4.895 -1.0310 -1.9902  0.6937
  121SOPE  C31612906   4.623   3.413   4.878 -0.1189 -0.0249 -0.1500
  121SOPE  H16X12907   4.719   3.465   4.856 -0.0974 -0.0007  0.0044
  121SOPE  H16Y12908   4.546   3.474   4.929 -1.2625 -2.7018  1.5407
  121SOPE  C31712909   4.560   3.381   4.739 -0.2615 -0.5627  0.2766
  121SOPE  H17X12910   4.481   3.303   4.747  2.5526 -3.6875 -0.4001
  121SOPE  H17Y12911   4.640   3.335   4.677 -1.9822 -1.3181 -1.4952
  121SOPE  C31812912   4.524   3.515   4.673  0.3252 -0.4221  0.4734
  121SOPE  H18X12913   4.437   3.551   4.732 -0.8009  3.0097 -2.8840
  121SOPE  H18Y12914   4.486   3.527   4.569  1.4983  1.8327  0.2595
  121SOPE  H18Z12915   4.609   3.587   4.680 -0.5733  0.6506  0.5066
  122SOPE     N12916   0.738   1.673   6.952  0.6077 -0.1601 -0.2913
  122SOPE   HN112917   0.732   1.716   6.858 -1.3018 -1.6413 -0.9032
  122SOPE   HN212918   0.729   1.570   6.943 -2.5003 -0.3908  2.7894
  122SOPE   HN312919   0.652   1.706   7.002 -0.4577 -0.3206 -1.9409
  122SOPE   C1212920   0.874   1.713   7.006 -0.3623  0.0159  0.0939
  122SOPE  H12A12921   0.904   1.655   7.095  2.8935  1.3731  0.0009
  122SOPE  H12B12922   0.856   1.818   7.038 -1.0799  0.0563 -0.3952
  122SOPE   C1112923   0.978   1.701   6.902 -0.6860  0.2524 -0.0491
  122SOPE  H11A12924   1.081   1.715   6.942  0.2731  0.4861 -2.4401
  122SOPE  H11B12925   0.972   1.790   6.837 -0.5184  1.4031  1.4533
  122SOPE     P12926   1.077   1.455   6.843 -0.2340  0.1423 -0.1570
  122SOPE   O1312927   1.061   1.378   6.970  0.3138 -0.0695  0.4310
  122SOPE   O1412928   1.221   1.506   6.826  0.4992  0.0640  0.1870
  122SOPE   O1212929   0.968   1.580   6.839 -0.3009  1.5079 -0.6526
  122SOPE   O1112930   1.048   1.362   6.724 -0.2473  0.3648  0.4975
  122SOPE    C112931   1.059   1.408   6.593 -0.5306 -0.1436 -0.8365
  122SOPE    HA12932   1.142   1.351   6.544  0.5253  0.8241 -0.2258
  122SOPE    HB12933   1.100   1.510   6.578 -2.0817  0.4071 -1.4919
  122SOPE    C212934   0.937   1.406   6.510 -0.3503  0.2280 -0.5678
  122SOPE    HS12935   0.892   1.305   6.516 -2.0305  0.9873  0.3339
  122SOPE   O2112936   0.960   1.446   6.375  1.0606 -0.0765  0.2084
  122SOPE   C2112937   0.988   1.346   6.280  0.3670 -0.6662 -0.4106
  122SOPE   O2212938   1.017   1.233   6.300  0.3561 -0.1186  0.1108
  122SOPE   C2212939   0.955   1.403   6.141  0.2506  0.1867  0.2284
  122SOPE   H2R12940   1.055   1.420   6.097  0.5937  2.0686  1.6335
  122SOPE   H2S12941   0.891   1.494   6.140 -0.5532 -0.3262  2.0141
  122SOPE    C312942   0.826   1.506   6.563 -0.7636  0.3840  0.0130
  122SOPE    HX12943   0.871   1.607   6.553 -1.6594  0.6601 -1.6101
  122SOPE    HY12944   0.809   1.482   6.670 -0.8482  0.0484 -0.0773
  122SOPE   O3112945   0.704   1.494   6.491  0.3879 -0.5751  0.1249
  122SOPE   C3112946   0.695   1.557   6.378 -0.2608  0.0201 -0.0506
  122SOPE   O3212947   0.773   1.635   6.326  0.5637  0.3788 -0.2841
  122SOPE   C3212948   0.570   1.501   6.304  0.1587 -0.4510 -0.2037
  122SOPE   H2X12949   0.487   1.500   6.377  0.8379 -2.0018  0.6049
  122SOPE   H2Y12950   0.588   1.392   6.294  0.5346 -0.5915  1.6729
  122SOPE   C2312951   0.876   1.297   6.054 -0.3966 -0.3093  0.0042
  122SOPE   H3R12952   0.773   1.280   6.090 -0.3593 -0.7691 -0.1028
  122SOPE   H3S12953   0.933   1.202   6.061 -0.4833 -0.3487  0.1668
  122SOPE   C2412954   0.883   1.338   5.906 -1.5063  0.0624 -0.4884
  122SOPE   H4R12955   0.979   1.382   5.872 -1.3333 -0.5881 -0.8463
  122SOPE   H4S12956   0.866   1.252   5.838  2.0551  0.4963 -2.1716
  122SOPE   C2512957   0.776   1.437   5.880 -0.1756  0.1967  0.5955
  122SOPE   H5R12958   0.673   1.394   5.887 -0.6351  0.5883 -2.3709
  122SOPE   H5S12959   0.801   1.528   5.939  1.6127 -0.6340  1.1971
  122SOPE   C2612960   0.783   1.492   5.734  0.3955  0.2428 -0.3493
  122SOPE   H6R12961   0.853   1.578   5.729 -2.8185  3.0770 -1.0830
  122SOPE   H6S12962   0.807   1.408   5.666  0.8415  0.9233 -1.0587
  122SOPE   C2712963   0.647   1.557   5.682 -0.0628  0.3481 -0.2467
  122SOPE   H7R12964   0.566   1.500   5.733 -0.5900 -0.2455 -1.7117
  122SOPE   H7S12965   0.647   1.661   5.721 -2.0294 -1.1504  4.5648
  122SOPE   C2812966   0.630   1.552   5.532 -0.5238 -0.5303  0.5186
  122SOPE   H8R12967   0.604   1.452   5.492 -0.5220  0.5429 -2.4232
  122SOPE   H8S12968   0.539   1.614   5.515  1.5520  2.6917  0.1425
  122SOPE   C2912969   0.753   1.595   5.460  0.2349 -0.2805  0.0111
  122SOPE   H9112970   0.836   1.524   5.469  0.3954 -0.3013 -1.3425
  122SOPE  C21012971   0.773   1.697   5.380  0.6456  0.0625 -0.1813
  122SOPE  H10112972   0.871   1.712   5.332  0.2408 -0.2625 -1.1381
  122SOPE  C21112973   0.668   1.797   5.355 -0.0876 -0.1501  0.5304
  122SOPE  H11R12974   0.671   1.889   5.418 -1.7558 -0.5847  1.2850
  122SOPE  H11S12975   0.566   1.753   5.362  0.0553 -0.9711 -1.6439
  122SOPE  C21212976   0.662   1.852   5.213  0.6151 -0.3295 -0.4630
  122SOPE  H12R12977   0.651   1.782   5.128 -0.0940  0.9455 -1.4461
  122SOPE  H12S12978   0.752   1.913   5.192  0.5353 -0.4265 -1.1150
  122SOPE  C21312979   0.535   1.935   5.184 -0.4872 -0.3673 -1.0864
  122SOPE  H13R12980   0.511   2.013   5.260 -0.1105 -0.9160 -0.3981
  122SOPE  H13S12981   0.449   1.866   5.197  0.5674 -1.2479  1.9341
  122SOPE  C21412982   0.537   2.015   5.059 -0.5149 -0.4189  0.3945
  122SOPE  H14R12983   0.577   1.949   4.979  1.8736 -2.0303  2.7671
  122SOPE  H14S12984   0.608   2.099   5.076 -2.7696  1.1128  2.9229
  122SOPE  C21512985   0.409   2.088   5.030 -0.2175  0.6428  0.0737
  122SOPE  H15R12986   0.426   2.196   5.015  1.0757  0.9532  3.0212
  122SOPE  H15S12987   0.342   2.077   5.118  1.7982 -1.0979  1.4981
  122SOPE  C21612988   0.344   2.035   4.899  0.4345 -0.8565 -0.1276
  122SOPE  H16R12989   0.339   1.924   4.899  1.0756 -0.9251  1.9519
  122SOPE  H16S12990   0.411   2.064   4.815 -0.6049 -0.0182 -0.6909
  122SOPE  C21712991   0.223   2.106   4.844  0.9799  0.5683  0.3957
  122SOPE  H17R12992   0.250   2.213   4.839 -1.6098  1.2422 -1.7543
  122SOPE  H17S12993   0.133   2.098   4.909 -1.3113 -0.8261 -2.6963
  122SOPE  C21812994   0.194   2.065   4.699 -0.0000  0.3480 -0.3127
  122SOPE  H18R12995   0.158   1.961   4.691  1.3297 -0.0419 -2.0224
  122SOPE  H18S12996   0.276   2.085   4.626 -2.1059  0.0910 -2.8924
  122SOPE  H18T12997   0.117   2.137   4.664 -0.7238 -0.3756 -0.2236
  122SOPE   C3312998   0.546   1.557   6.161 -0.0949  0.2240 -0.6298
  122SOPE   H3X12999   0.639   1.560   6.102  1.7427  0.3575  2.0988
  122SOPE   H3Y13000   0.498   1.657   6.170  0.1382  0.1657  2.6829
  122SOPE   C3413001   0.456   1.463   6.083  0.2859  0.2493  0.1394
  122SOPE   H4X13002   0.376   1.423   6.149  0.1717  1.6779  0.9104
  122SOPE   H4Y13003   0.511   1.373   6.048 -2.1349 -0.5929 -1.8416
  122SOPE   C3513004   0.401   1.524   5.953  0.4994  0.7865  0.4963
  122SOPE   H5X13005   0.476   1.578   5.890  0.1106  1.6928  0.7984
  122SOPE   H5Y13006   0.314   1.592   5.964 -0.3559 -0.2458  0.3193
  122SOPE   C3613007   0.340   1.415   5.854 -0.5291 -0.2294 -0.1390
  122SOPE   H6X13008   0.257   1.365   5.910  2.5023 -1.4940  3.6443
  122SOPE   H6Y13009   0.420   1.339   5.844  0.9093  1.1194  0.6866
  122SOPE   C3713010   0.296   1.471   5.722  0.2547  0.6926  0.3614
  122SOPE   H7X13011   0.377   1.520   5.663  0.5501  0.2675  0.4091
  122SOPE   H7Y13012   0.223   1.549   5.752 -0.1256 -0.3073  2.1863
  122SOPE   C3813013   0.213   1.362   5.646 -0.6704 -0.4473  0.0966
  122SOPE   H8X13014   0.122   1.351   5.709 -0.8928  1.5156  0.1806
  122SOPE   H8Y13015   0.265   1.264   5.645  0.6201  0.1766  1.2905
  122SOPE   C3913016   0.166   1.396   5.503 -0.3177 -0.3197  0.0063
  122SOPE   H9X13017   0.256   1.423   5.443 -0.3901  0.4249  0.2213
  122SOPE   H9Y13018   0.106   1.488   5.514  0.7367  0.7996 -2.7965
  122SOPE  C31013019   0.081   1.293   5.440 -0.1312 -0.2116  0.4832
  122SOPE  H10X13020   0.012   1.261   5.521  0.0700  0.7964  1.0622
  122SOPE  H10Y13021   0.134   1.203   5.403 -0.4735 -0.1710 -0.1233
  122SOPE  C31113022  -0.008   1.352   5.321  0.7217  0.2968 -0.2759
  122SOPE  H11X13023  -0.051   1.448   5.357 -0.6870 -0.8344  1.2280
  122SOPE  H11Y13024  -0.097   1.290   5.297  0.4530  0.5259  0.1241
  122SOPE  C31213025   0.076   1.372   5.194 -0.3000  0.0807  0.0260
  122SOPE  H12X13026   0.118   1.274   5.165  0.4256  0.0834  1.0166
  122SOPE  H12Y13027   0.162   1.439   5.216  0.8527 -1.3778  0.0885
  122SOPE  C31313028  -0.015   1.432   5.082  0.5777 -0.1909 -0.7233
  122SOPE  H13X13029  -0.066   1.525   5.114  1.2763  1.5553 -4.1144
  122SOPE  H13Y13030  -0.091   1.353   5.067 -1.4124  1.4918  0.0664
  122SOPE  C31413031   0.054   1.473   4.954 -0.2373 -0.4570 -0.2523
  122SOPE  H14X13032   0.122   1.557   4.980 -0.0493  0.2243 -2.6689
  122SOPE  H14Y13033  -0.027   1.513   4.889  0.9673 -0.2599 -1.6805
  122SOPE  C31513034   0.132   1.367   4.869 -0.3450  0.6350 -0.1422
  122SOPE  H15X13035   0.217   1.336   4.935 -0.2249  3.0713  0.9325
  122SOPE  H15Y13036   0.176   1.417   4.780  1.9038  1.3055  1.2581
  122SOPE  C31613037   0.037   1.248   4.845  0.1787  0.2385 -0.0067
  122SOPE  H16X13038  -0.059   1.285   4.801 -0.1597 -0.2049  0.3482
  122SOPE  H16Y13039   0.027   1.196   4.943  2.3381 -3.0872 -1.3784
  122SOPE  C31713040   0.086   1.156   4.731 -0.7334  0.1850 -0.8723
  122SOPE  H17X13041   0.186   1.124   4.768 -0.0069  0.0964 -2.7807
  122SOPE  H17Y13042   0.099   1.203   4.630 -1.4206  0.0006 -1.0490
  122SOPE  C31813043   0.012   1.023   4.713 -0.0817 -0.5072  0.2079
  122SOPE  H18X13044   0.065   0.963   4.636  0.2738  0.0620 -0.0068
  122SOPE  H18Y13045  -0.089   1.049   4.674  1.0460  1.9521 -1.3514
  122SOPE  H18Z13046  -0.004   0.978   4.813  1.1212  0.0598  0.6859
  123SOPE     N13047   2.077   2.033   2.405 -0.1002 -0.3083 -0.1207
  123SOPE   HN113048   2.012   1.978   2.464  0.1111 -1.7941 -1.1826
  123SOPE   HN213049   2.140   2.086   2.468 -1.8293  3.0166 -0.9992
  123SOPE   HN313050   2.032   2.098   2.337  1.4158 -1.1196 -2.0246
  123SOPE   C1213051   2.147   1.916   2.336  0.2838 -0.2426 -0.7252
  123SOPE  H12A13052   2.208   1.863   2.412 -1.5960  1.2013  1.9226
  123SOPE  H12B13053   2.222   1.952   2.263  0.1705  2.5469  0.4134
  123SOPE   C1113054   2.045   1.814   2.290 -0.3247 -0.7256 -0.4846
  123SOPE  H11A13055   2.097   1.731   2.238  0.2631  0.3821 -1.7300
  123SOPE  H11B13056   1.985   1.866   2.213  0.5022 -0.5417 -1.0200
  123SOPE     P13057   1.859   1.654   2.394 -0.0926  0.2837 -0.0826
  123SOPE   O1313058   1.935   1.535   2.369 -0.0020  0.2013 -0.1718
  123SOPE   O1413059   1.741   1.690   2.313 -0.4339 -0.9547  0.3662
  123SOPE   O1213060   1.960   1.776   2.395  0.1210  0.1967  0.0239
  123SOPE   O1113061   1.817   1.647   2.547 -1.0598 -0.0097  0.3446
  123SOPE    C113062   1.888   1.578   2.654  0.1872 -0.3158 -0.4132
  123SOPE    HA13063   1.868   1.638   2.745 -0.5017 -1.2533  0.0719
  123SOPE    HB13064   1.998   1.570   2.641  0.1969 -0.4209 -0.2664
  123SOPE    C213065   1.846   1.434   2.680  0.3352 -0.2490  0.6688
  123SOPE    HS13066   1.823   1.383   2.583  2.3182  1.7594 -0.9642
  123SOPE   O2113067   1.719   1.435   2.759  0.0272 -0.2385 -0.6300
  123SOPE   C2113068   1.608   1.432   2.685 -0.3190 -0.0662  1.1478
  123SOPE   O2213069   1.600   1.432   2.565 -0.2726 -0.7956 -0.3278
  123SOPE   C2213070   1.487   1.430   2.774  0.2619 -0.0107  0.0155
  123SOPE   H2R13071   1.404   1.368   2.736  0.3366 -1.0272  1.4478
  123SOPE   H2S13072   1.463   1.539   2.770 -0.0472 -0.1168 -1.1902
  123SOPE    C313073   1.949   1.347   2.743 -0.7596  0.1539  0.9633
  123SOPE    HX13074   2.030   1.318   2.673 -0.7278 -1.2959  1.5559
  123SOPE    HY13075   1.901   1.248   2.762 -0.3167 -0.4842 -1.0536
  123SOPE   O3113076   2.018   1.404   2.858  0.4585  0.0888 -0.4927
  123SOPE   C3113077   2.051   1.315   2.954 -0.2629 -0.6102 -0.8760
  123SOPE   O3213078   2.050   1.195   2.954 -0.3198 -0.1351  0.5467
  123SOPE   C3213079   2.111   1.400   3.063 -0.5213  0.3760  0.0588
  123SOPE   H2X13080   2.037   1.480   3.083  0.4610  1.0144  1.2977
  123SOPE   H2Y13081   2.209   1.430   3.020 -1.0927  2.4643  0.1422
  123SOPE   C2313082   1.526   1.382   2.914  0.5794  0.3305  0.1887
  123SOPE   H3R13083   1.603   1.443   2.966 -0.0119  1.2810 -0.0270
  123SOPE   H3S13084   1.561   1.277   2.905  0.5584  0.2167  1.3494
  123SOPE   C2413085   1.392   1.363   2.994  0.2114  0.1229  0.3988
  123SOPE   H4R13086   1.377   1.460   3.047  0.0445  0.4362 -0.2097
  123SOPE   H4S13087   1.312   1.344   2.919  2.2129  0.2575 -1.8998
  123SOPE   C2513088   1.387   1.248   3.093  0.4254  0.0116 -0.2604
  123SOPE   H5R13089   1.280   1.240   3.122  0.4411  1.6064  0.2972
  123SOPE   H5S13090   1.402   1.147   3.048 -0.9019 -0.6938  0.7819
  123SOPE   C2613091   1.481   1.265   3.214 -0.0620  0.2830  0.1660
  123SOPE   H6R13092   1.578   1.228   3.175 -0.9887 -2.0413 -0.1282
  123SOPE   H6S13093   1.479   1.369   3.253  0.7250  0.9821 -1.5771
  123SOPE   C2713094   1.443   1.166   3.332 -0.0767 -0.5521 -0.0232
  123SOPE   H7R13095   1.336   1.170   3.361 -0.9494 -3.5698 -2.2788
  123SOPE   H7S13096   1.448   1.060   3.298 -1.3392 -0.3545 -0.8935
  123SOPE   C2813097   1.540   1.183   3.451 -0.7538 -0.1641 -0.1509
  123SOPE   H8R13098   1.532   1.089   3.510  0.7865 -0.5837 -0.5647
  123SOPE   H8S13099   1.645   1.177   3.416 -0.8710 -1.4794 -0.3486
  123SOPE   C2913100   1.495   1.298   3.529 -0.8525 -0.7374 -0.8267
  123SOPE   H9113101   1.480   1.386   3.465  0.4546 -0.6948 -1.1110
  123SOPE  C21013102   1.436   1.308   3.655 -0.2286 -0.5023 -0.4803
  123SOPE  H10113103   1.392   1.408   3.668  1.7939  0.3535  0.2743
  123SOPE  C21113104   1.409   1.191   3.744 -0.1510 -0.0996  0.0447
  123SOPE  H11R13105   1.419   1.094   3.690  0.0104 -0.1720  0.2028
  123SOPE  H11S13106   1.309   1.193   3.793 -0.9470 -1.1609 -1.4143
  123SOPE  C21213107   1.511   1.183   3.858  0.6524  0.4098  0.2541
  123SOPE  H12R13108   1.521   1.278   3.915 -1.0873  0.1192  1.1172
  123SOPE  H12S13109   1.607   1.158   3.808 -0.4371 -2.1333 -0.7444
  123SOPE  C21313110   1.480   1.081   3.961 -0.6102  0.2136 -0.3432
  123SOPE  H13R13111   1.463   0.984   3.910 -1.3079  0.1897 -0.0793
  123SOPE  H13S13112   1.390   1.101   4.023 -0.3344 -0.1236  0.1700
  123SOPE  C21413113   1.602   1.071   4.063  0.0520  0.8981  1.1661
  123SOPE  H14R13114   1.622   1.171   4.107  2.3130  0.3581  1.4977
  123SOPE  H14S13115   1.689   1.042   4.000 -1.2629  0.3851 -0.4818
  123SOPE  C21513116   1.565   0.969   4.168  0.6084 -0.0425  0.3598
  123SOPE  H15R13117   1.538   0.875   4.116  0.8370 -0.4152  0.9007
  123SOPE  H15S13118   1.473   1.002   4.220  0.1752 -0.4567 -0.1327
  123SOPE  C21613119   1.661   0.936   4.281 -0.1416  0.3704 -0.0256
  123SOPE  H16R13120   1.668   1.019   4.354 -0.7908 -0.2666  0.7806
  123SOPE  H16S13121   1.756   0.915   4.229 -0.3493 -0.2901 -0.1517
  123SOPE  C21713122   1.633   0.806   4.366  0.0767 -0.1854 -0.0937
  123SOPE  H17R13123   1.613   0.725   4.292 -0.1774  1.4427 -1.8783
  123SOPE  H17S13124   1.530   0.817   4.407  0.2586  0.8874  0.1152
  123SOPE  C21813125   1.737   0.768   4.478 -0.7856 -0.0775  0.2693
  123SOPE  H18R13126   1.707   0.675   4.531 -2.3794  0.8433  1.0570
  123SOPE  H18S13127   1.738   0.848   4.555  1.1278 -1.6905  2.0221
  123SOPE  H18T13128   1.839   0.757   4.435 -0.0949  2.1885  1.1886
  123SOPE   C3313129   2.132   1.324   3.193 -0.4249  0.6788 -0.1725
  123SOPE   H3X13130   2.203   1.240   3.185 -0.3442  0.5474  1.5583
  123SOPE   H3Y13131   2.033   1.279   3.217  0.7575 -2.1849 -0.3224
  123SOPE   C3413132   2.181   1.426   3.302  0.2489  0.8556 -0.1880
  123SOPE   H4X13133   2.093   1.492   3.320 -1.5890 -1.5494  0.2833
  123SOPE   H4Y13134   2.270   1.487   3.277  0.1829  0.3868 -1.6976
  123SOPE   C3513135   2.226   1.362   3.434  0.6465 -0.2057  0.2120
  123SOPE   H5X13136   2.307   1.297   3.393  0.9361  0.4280 -0.2414
  123SOPE   H5Y13137   2.138   1.320   3.486  1.8712 -1.4480  1.3788
  123SOPE   C3613138   2.291   1.459   3.532 -0.2170  0.1288 -0.0900
  123SOPE   H6X13139   2.226   1.548   3.543  1.0914  1.3695 -1.7624
  123SOPE   H6Y13140   2.387   1.503   3.498 -0.0588  1.2658  1.7231
  123SOPE   C3713141   2.320   1.399   3.672  0.6481  0.1779 -0.6692
  123SOPE   H7X13142   2.409   1.335   3.659  1.5192  1.4638 -1.2751
  123SOPE   H7Y13143   2.222   1.355   3.703  0.5349  0.2247 -0.9561
  123SOPE   C3813144   2.365   1.508   3.771  0.3332  0.0735  0.2722
  123SOPE   H8X13145   2.273   1.550   3.818 -0.2035 -1.7538  0.9753
  123SOPE   H8Y13146   2.425   1.584   3.717  2.5526 -0.1167  2.3033
  123SOPE   C3913147   2.449   1.452   3.891 -0.0460 -0.2827  0.0317
  123SOPE   H9X13148   2.480   1.539   3.952 -2.0681  2.6635 -2.7643
  123SOPE   H9Y13149   2.541   1.402   3.851 -0.6774  0.4501 -2.5589
  123SOPE  C31013150   2.379   1.345   3.972 -0.4569  1.0081  0.5026
  123SOPE  H10X13151   2.461   1.290   4.023  0.8692  1.4254 -1.0923
  123SOPE  H10Y13152   2.334   1.270   3.904  1.2783  1.2395 -0.9650
  123SOPE  C31113153   2.279   1.393   4.073 -0.6723  0.5783 -0.2944
  123SOPE  H11X13154   2.266   1.502   4.056 -0.4346  1.1137  2.3918
  123SOPE  H11Y13155   2.301   1.387   4.182  0.2058 -0.7837 -0.5318
  123SOPE  C31213156   2.141   1.314   4.059 -0.0346  0.9635 -0.3190
  123SOPE  H12X13157   2.150   1.204   4.066 -0.0705  1.0525  1.9193
  123SOPE  H12Y13158   2.102   1.339   3.958 -1.2213 -1.6652 -0.5872
  123SOPE  C31313159   2.042   1.329   4.185  0.0736 -0.4372 -0.5524
  123SOPE  H13X13160   1.936   1.318   4.157 -0.3483  2.0257 -0.1725
  123SOPE  H13Y13161   2.050   1.436   4.215 -1.8199 -0.5849  0.6432
  123SOPE  C31413162   2.076   1.247   4.305 -0.5380  0.4308  0.0689
  123SOPE  H14X13163   2.074   1.315   4.392  0.3990  0.6159 -0.0495
  123SOPE  H14Y13164   2.178   1.209   4.285 -1.7496 -3.3934  0.2619
  123SOPE  C31513165   1.984   1.123   4.327  0.4290  0.2080  0.4177
  123SOPE  H15X13166   1.970   1.072   4.230  0.6250  1.3101 -0.2082
  123SOPE  H15Y13167   1.890   1.163   4.370  1.2015  2.4732  0.1509
  123SOPE  C31613168   2.047   1.018   4.428  0.0949 -0.2841 -0.3473
  123SOPE  H16X13169   2.149   1.000   4.387  0.7626 -0.6969  1.4032
  123SOPE  H16Y13170   1.994   0.921   4.437 -0.1420 -0.1682 -0.4820
  123SOPE  C31713171   2.061   1.062   4.571  0.4976 -0.1651  0.1729
  123SOPE  H17X13172   1.956   1.075   4.604  0.2983 -0.0713 -0.4861
  123SOPE  H17Y13173   2.115   1.159   4.586  1.6119 -0.5547 -1.1136
  123SOPE  C31813174   2.136   0.958   4.653  0.4810  0.3402 -0.4504
  123SOPE  H18X13175   2.060   0.881   4.676  0.0415  0.8933  0.0065
  123SOPE  H18Y13176   2.165   0.989   4.755 -2.0165 -2.3723  1.2266
  123SOPE  H18Z13177   2.228   0.915   4.607  0.9732 -1.7255  2.2647
  124SOPE     N13178   3.124   4.180   1.897  0.1495 -0.2773 -0.1079
  124SOPE   HN113179   3.078   4.092   1.869 -1.0792  0.5968 -0.9590
  124SOPE   HN213180   3.189   4.213   1.822 -0.5216 -1.1428 -1.0963
  124SOPE   HN313181   3.182   4.174   1.983  1.0992  1.8896 -0.5227
  124SOPE   C1213182   3.031   4.293   1.926 -0.5153  0.2899  0.4538
  124SOPE  H12A13183   2.964   4.256   2.007  1.0957  0.4215  1.9075
  124SOPE  H12B13184   2.969   4.319   1.837 -1.6382 -0.7276  0.9065
  124SOPE   C1113185   3.097   4.424   1.980 -0.2596 -0.1351 -0.1482
  124SOPE  H11A13186   3.160   4.398   2.068 -0.4447  1.9156  0.6485
  124SOPE  H11B13187   3.020   4.498   2.009  0.3135  0.2556  0.4112
  124SOPE     P13188   3.216   4.636   1.895 -0.2551 -0.1125  0.3311
  124SOPE   O1313189   3.102   4.713   1.948  0.7744 -0.0968 -0.5598
  124SOPE   O1413190   3.263   4.686   1.762  0.6426 -0.6079 -0.3760
  124SOPE   O1213191   3.183   4.481   1.887 -0.2533 -0.2866 -0.3246
  124SOPE   O1113192   3.339   4.637   1.998  0.3382 -0.4443 -0.3767
  124SOPE    C113193   3.346   4.743   2.099  0.3134  0.3074  0.4006
  124SOPE    HA13194   3.269   4.820   2.072 -0.0959 -0.2342 -0.0064
  124SOPE    HB13195   3.445   4.793   2.102 -0.3154  1.6940 -0.4838
  124SOPE    C213196   3.315   4.695   2.255 -0.3286  0.4382  0.7434
  124SOPE    HS13197   3.366   4.772   2.316 -2.1549  1.0727  1.5274
  124SOPE   O2113198   3.362   4.560   2.281 -0.2757 -0.4312 -0.1358
  124SOPE   C2113199   3.499   4.559   2.282 -0.1404  0.0690  0.0559
  124SOPE   O2213200   3.570   4.656   2.281  0.0999  0.1002 -0.1697
  124SOPE   C2213201   3.547   4.414   2.278  0.2759  0.4742  0.2496
  124SOPE   H2R13202   3.657   4.399   2.272  0.5863  2.3068  0.5980
  124SOPE   H2S13203   3.494   4.368   2.192 -0.2829 -0.6605  1.1782
  124SOPE    C313204   3.170   4.703   2.291  0.6094 -0.3021 -0.5205
  124SOPE    HX13205   3.133   4.634   2.213 -1.8624  0.2745  0.0536
  124SOPE    HY13206   3.124   4.800   2.261 -1.5976 -1.2140 -0.2998
  124SOPE   O3113207   3.136   4.662   2.425  0.0650  0.1860  0.1374
  124SOPE   C3113208   3.151   4.754   2.521  0.7525 -0.5175  0.4402
  124SOPE   O3213209   3.156   4.872   2.505  0.1097 -0.0639  0.3497
  124SOPE   C3213210   3.147   4.683   2.651 -0.2223 -0.6132 -0.5667
  124SOPE   H2X13211   3.232   4.611   2.656  0.0350 -0.3055 -0.4341
  124SOPE   H2Y13212   3.049   4.630   2.654 -1.1665  1.0232 -1.4658
  124SOPE   C2313213   3.498   4.338   2.409 -1.0083  0.8703  0.3962
  124SOPE   H3R13214   3.559   4.244   2.405  0.8730  2.0778 -1.7519
  124SOPE   H3S13215   3.392   4.310   2.393 -0.7865  1.2348 -2.1181
  124SOPE   C2413216   3.535   4.411   2.539 -0.3414 -0.6023  0.4684
  124SOPE   H4R13217   3.642   4.438   2.530 -0.3188  0.5798  3.1245
  124SOPE   H4S13218   3.473   4.504   2.536 -0.1135 -0.4630  0.0208
  124SOPE   C2513219   3.509   4.340   2.668 -0.3347  0.6973  0.5508
  124SOPE   H5R13220   3.406   4.300   2.676  0.2943 -0.5588  4.2089
  124SOPE   H5S13221   3.569   4.247   2.674  0.1251  1.0559  2.0499
  124SOPE   C2613222   3.539   4.419   2.797 -0.3353 -0.2549 -0.5447
  124SOPE   H6R13223   3.483   4.515   2.804 -0.5305 -0.4696  1.3308
  124SOPE   H6S13224   3.487   4.361   2.877 -1.9577 -1.1421 -2.1705
  124SOPE   C2713225   3.692   4.433   2.821 -0.3177  0.2595  0.7252
  124SOPE   H7R13226   3.737   4.332   2.808 -0.2655  0.4438 -0.6363
  124SOPE   H7S13227   3.735   4.496   2.741  1.8639 -0.2157  1.4243
  124SOPE   C2813228   3.722   4.487   2.961  0.0211  0.7356 -0.6504
  124SOPE   H8R13229   3.831   4.494   2.979  0.2497 -0.9891 -1.1339
  124SOPE   H8S13230   3.687   4.592   2.967 -0.6405  0.4536  0.7003
  124SOPE   C2913231   3.697   4.392   3.080  0.1508  1.1111  0.1720
  124SOPE   H9113232   3.753   4.298   3.070 -0.1341  0.7629  1.6765
  124SOPE  C21013233   3.608   4.407   3.181 -0.0855  0.0936  0.6298
  124SOPE  H10113234   3.597   4.332   3.261 -1.7744  0.2009  0.5250
  124SOPE  C21113235   3.516   4.524   3.193 -0.0899 -0.1024 -0.0309
  124SOPE  H11R13236   3.411   4.504   3.220 -0.6040 -0.8791 -2.3581
  124SOPE  H11S13237   3.502   4.575   3.095 -2.2992 -1.2884 -0.3955
  124SOPE  C21213238   3.567   4.626   3.299 -0.0377 -0.1859  0.7758
  124SOPE  H12R13239   3.490   4.706   3.291  1.6665  1.6440  1.7468
  124SOPE  H12S13240   3.665   4.672   3.273  0.0597 -1.5880 -1.6982
  124SOPE  C21313241   3.575   4.578   3.447 -0.2134  0.9250  0.2672
  124SOPE  H13R13242   3.670   4.521   3.459 -0.7737 -0.0311  0.2355
  124SOPE  H13S13243   3.487   4.514   3.467 -0.9927  0.5373 -3.6032
  124SOPE  C21413244   3.579   4.693   3.543 -0.0197  0.1448 -0.0318
  124SOPE  H14R13245   3.487   4.754   3.532  0.5943  0.6904 -2.6382
  124SOPE  H14S13246   3.661   4.757   3.507 -0.3411  0.7478  0.2855
  124SOPE  C21513247   3.611   4.654   3.684 -0.0064 -0.2552  0.2121
  124SOPE  H15R13248   3.719   4.631   3.698 -0.2424 -0.6151  1.6453
  124SOPE  H15S13249   3.553   4.564   3.716 -1.1646 -0.2737 -1.7644
  124SOPE  C21613250   3.576   4.771   3.782  0.0360  0.6069 -0.6096
  124SOPE  H16R13251   3.622   4.729   3.874  3.3331 -2.0166 -3.1919
  124SOPE  H16S13252   3.466   4.777   3.788 -0.0322 -1.2804  1.7429
  124SOPE  C21713253   3.644   4.905   3.753 -0.2721 -0.1999 -0.2731
  124SOPE  H17R13254   3.611   4.947   3.655  0.8982  0.9851 -0.1880
  124SOPE  H17S13255   3.754   4.900   3.740 -0.0698  1.2929  0.6990
  124SOPE  C21813256   3.612   5.008   3.863 -0.0252  0.1140  0.7063
  124SOPE  H18R13257   3.505   5.019   3.891  0.9176  0.5620  4.8003
  124SOPE  H18S13258   3.658   5.103   3.828 -1.9680  1.2973  1.1914
  124SOPE  H18T13259   3.666   4.984   3.957  0.9787  0.4942  0.2401
  124SOPE   C3313260   3.137   4.780   2.770  0.2520 -0.0526  0.5263
  124SOPE   H3X13261   3.040   4.834   2.760 -0.0026 -0.6151 -0.1306
  124SOPE   H3Y13262   3.216   4.856   2.758 -0.1499  0.0571 -1.8543
  124SOPE   C3413263   3.132   4.693   2.901  0.0919 -0.2342  0.8051
  124SOPE   H4X13264   3.233   4.649   2.908  0.5480  0.1102 -2.3195
  124SOPE   H4Y13265   3.062   4.606   2.899 -0.7868  0.4707 -0.0036
  124SOPE   C3513266   3.110   4.770   3.035  0.0795  0.5805  0.1926
  124SOPE   H5X13267   3.002   4.775   3.060  0.2380 -0.4397  1.1567
  124SOPE   H5Y13268   3.157   4.869   3.049  1.0679  0.0116  1.0204
  124SOPE   C3613269   3.162   4.683   3.151 -0.3613 -0.2935 -0.3402
  124SOPE   H6X13270   3.271   4.663   3.140 -0.1404 -0.7462  2.0826
  124SOPE   H6Y13271   3.116   4.585   3.175  0.7279 -0.7303  0.0380
  124SOPE   C3713272   3.150   4.769   3.282  0.0337  0.5843 -0.5187
  124SOPE   H7X13273   3.041   4.791   3.287 -0.7698 -2.9927  2.2754
  124SOPE   H7Y13274   3.199   4.868   3.268 -0.4530  1.0011  0.5907
  124SOPE   C3813275   3.190   4.693   3.408  0.0578 -0.3710 -0.4210
  124SOPE   H8X13276   3.297   4.664   3.405  0.7205  1.8050  0.2363
  124SOPE   H8Y13277   3.126   4.602   3.409  0.6360 -0.7862  0.4171
  124SOPE   C3913278   3.164   4.781   3.533 -0.8257 -0.5947  0.3891
  124SOPE   H9X13279   3.059   4.816   3.539 -0.3765  1.2063 -1.1176
  124SOPE   H9Y13280   3.231   4.870   3.535 -1.2217 -0.3058  1.6622
  124SOPE  C31013281   3.183   4.690   3.659 -0.0597  0.6589  0.2367
  124SOPE  H10X13282   3.286   4.649   3.666 -0.7070 -0.9752  0.6933
  124SOPE  H10Y13283   3.116   4.602   3.644 -0.3101  0.9789 -0.5715
  124SOPE  C31113284   3.138   4.758   3.782  0.7174 -0.4403 -0.4853
  124SOPE  H11X13285   3.033   4.790   3.766  0.4909  0.6280  2.4578
  124SOPE  H11Y13286   3.193   4.854   3.791  0.4386 -0.1761 -1.4761
  124SOPE  C31213287   3.142   4.672   3.912  0.3585 -0.2457  0.4791
  124SOPE  H12X13288   3.123   4.566   3.884 -1.0997 -0.1596  1.0733
  124SOPE  H12Y13289   3.066   4.707   3.985  2.0445 -0.6269  2.5117
  124SOPE  C31313290   3.284   4.669   3.980 -0.0906  0.3806  0.6185
  124SOPE  H13X13291   3.298   4.779   3.980  0.1317  0.3575 -0.4517
  124SOPE  H13Y13292   3.361   4.625   3.914 -0.6108  2.2646 -1.3640
  124SOPE  C31413293   3.291   4.597   4.117  0.0079  0.0690 -0.4921
  124SOPE  H14X13294   3.252   4.494   4.107  0.1431  0.0194 -0.5109
  124SOPE  H14Y13295   3.234   4.658   4.191 -0.3363 -0.4465 -0.3280
  124SOPE  C31513296   3.432   4.599   4.166  0.0248  0.3262 -0.0279
  124SOPE  H15X13297   3.472   4.701   4.188 -0.0069 -0.1414  2.4164
  124SOPE  H15Y13298   3.485   4.550   4.082 -1.0156 -0.2071 -0.3811
  124SOPE  C31613299   3.451   4.510   4.290  0.2527 -0.0937 -0.3109
  124SOPE  H16X13300   3.391   4.417   4.282 -2.4755  1.5965 -0.8897
  124SOPE  H16Y13301   3.408   4.574   4.370 -1.1866 -0.8901 -0.4084
  124SOPE  C31713302   3.598   4.474   4.327 -0.5194  0.0929  0.2151
  124SOPE  H17X13303   3.667   4.559   4.309 -0.1647 -0.4602 -1.2006
  124SOPE  H17Y13304   3.631   4.400   4.251 -1.4343  0.3137 -0.4233
  124SOPE  C31813305   3.621   4.420   4.470  0.5959 -0.3434 -0.5869
  124SOPE  H18X13306   3.545   4.343   4.493 -0.1519  0.0066 -1.7801
  124SOPE  H18Y13307   3.606   4.502   4.543 -0.7943 -1.5162  0.5069
  124SOPE  H18Z13308   3.721   4.372   4.479  0.5922 -0.9212 -2.9379
  125SOPE     N13309   5.489   6.541   1.923  0.0056  0.2030  0.2752
  125SOPE   HN113310   5.490   6.480   1.838 -0.3113 -1.3206  1.3177
  125SOPE   HN213311   5.427   6.624   1.923 -3.7357 -2.2472  3.2567
  125SOPE   HN313312   5.587   6.573   1.935 -0.2267  2.0057 -2.0734
  125SOPE   C1213313   5.469   6.458   2.043  0.6388 -0.4321 -0.8628
  125SOPE  H12A13314   5.494   6.529   2.125 -0.2563  1.5691 -2.2401
  125SOPE  H12B13315   5.552   6.384   2.050  0.9479  0.0745  1.8094
  125SOPE   C1113316   5.325   6.396   2.060  0.8399 -0.1651  0.5345
  125SOPE  H11A13317   5.251   6.474   2.032  0.8643 -0.4376 -0.3358
  125SOPE  H11B13318   5.309   6.375   2.168 -1.0552 -0.4029  0.2437
  125SOPE     P13319   5.188   6.204   1.967 -0.2085  0.0448  0.3407
  125SOPE   O1313320   5.219   6.088   1.879  0.1349 -0.1277  0.2956
  125SOPE   O1413321   5.080   6.293   1.919 -0.1055 -0.3812 -0.1265
  125SOPE   O1213322   5.322   6.284   1.974 -0.2882  0.0626 -0.5107
  125SOPE   O1113323   5.162   6.161   2.117  0.7352  0.5832 -0.4590
  125SOPE    C113324   5.031   6.164   2.177 -0.1682 -0.0304 -0.1738
  125SOPE    HA13325   4.998   6.058   2.167  0.3101 -0.0902 -1.3844
  125SOPE    HB13326   4.956   6.230   2.128 -0.2453  1.7082  2.1459
  125SOPE    C213327   5.035   6.219   2.325 -0.1751  0.5523 -0.0698
  125SOPE    HS13328   4.927   6.217   2.352 -0.2177 -0.5902 -0.2898
  125SOPE   O2113329   5.088   6.353   2.334 -0.0901  0.8193 -0.3939
  125SOPE   C2113330   5.014   6.437   2.392 -0.7690  0.3334  0.6341
  125SOPE   O2213331   4.900   6.423   2.429 -0.2285  0.0557  0.7693
  125SOPE   C2213332   5.097   6.568   2.406 -0.1485 -0.1435 -0.6368
  125SOPE   H2R13333   5.154   6.579   2.311  0.2599 -2.5103 -0.7240
  125SOPE   H2S13334   5.169   6.553   2.489 -0.3499  3.0556  0.2596
  125SOPE    C313335   5.127   6.122   2.422  0.9438 -0.5569 -0.5149
  125SOPE    HX13336   5.232   6.132   2.385  1.3935 -0.2968  0.8010
  125SOPE    HY13337   5.095   6.016   2.412  1.0902 -0.7293  0.7727
  125SOPE   O3113338   5.142   6.168   2.560  0.0230  0.0722 -0.7434
  125SOPE   C3113339   5.047   6.163   2.653 -0.6784 -0.3397  0.6668
  125SOPE   O3213340   4.939   6.103   2.640  0.2398 -0.1823 -0.1641
  125SOPE   C3213341   5.099   6.232   2.779 -0.7888 -0.1891 -0.8416
  125SOPE   H2X13342   5.041   6.322   2.807  0.3940 -0.3977  2.6904
  125SOPE   H2Y13343   5.205   6.262   2.766 -0.2277 -1.4490  0.4982
  125SOPE   C2313344   5.014   6.688   2.432  0.1047 -0.4908 -1.1431
  125SOPE   H3R13345   4.929   6.691   2.360 -0.8355 -1.4731 -0.1041
  125SOPE   H3S13346   5.077   6.778   2.414 -0.5882  0.0552 -0.8646
  125SOPE   C2413347   4.950   6.701   2.569  0.2251  0.7463 -0.0685
  125SOPE   H4R13348   4.874   6.782   2.570 -1.2778 -0.5998 -0.1510
  125SOPE   H4S13349   4.896   6.607   2.595  0.5595  1.2064  2.5286
  125SOPE   C2513350   5.049   6.724   2.684 -0.4271  0.2893 -0.0911
  125SOPE   H5R13351   5.134   6.652   2.680  1.4151  2.3041  0.8254
  125SOPE   H5S13352   5.085   6.829   2.676  1.4140 -0.4016 -1.8302
  125SOPE   C2613353   5.003   6.676   2.817  0.2619  0.4169 -0.2163
  125SOPE   H6R13354   4.910   6.734   2.838  2.0163  2.5443  2.3535
  125SOPE   H6S13355   4.980   6.567   2.806  0.8080  0.5011 -2.8565
  125SOPE   C2713356   5.105   6.703   2.933 -0.4295 -0.4294  0.4325
  125SOPE   H7R13357   5.201   6.662   2.895  0.0815  1.4449 -0.4021
  125SOPE   H7S13358   5.130   6.811   2.943  2.1217 -0.9346  0.3676
  125SOPE   C2813359   5.081   6.644   3.071 -0.4069  0.9953 -0.0353
  125SOPE   H8R13360   5.075   6.533   3.066  2.1506  0.7714  0.4262
  125SOPE   H8S13361   5.169   6.662   3.138 -1.0250 -2.2942  1.8446
  125SOPE   C2913362   4.949   6.696   3.132 -0.2654  1.4648  0.3387
  125SOPE   H9113363   4.872   6.712   3.055  0.2382 -0.5608 -0.6656
  125SOPE  C21013364   4.926   6.749   3.253 -0.1800  0.4266 -0.6365
  125SOPE  H10113365   4.826   6.786   3.280  0.8869  2.8038  0.3546
  125SOPE  C21113366   5.030   6.777   3.363 -0.2088 -0.0142  0.1110
  125SOPE  H11R13367   5.050   6.886   3.368 -0.7062  0.0144  2.4081
  125SOPE  H11S13368   5.129   6.733   3.339  0.0377  1.5277 -2.0339
  125SOPE  C21213369   4.979   6.732   3.500  0.2508 -0.6242 -0.1278
  125SOPE  H12R13370   4.876   6.770   3.515 -0.1109 -1.3770 -0.6098
  125SOPE  H12S13371   5.033   6.782   3.583  1.3568 -1.7488 -0.1410
  125SOPE  C21313372   4.984   6.585   3.525  0.0481  0.3619 -0.0403
  125SOPE  H13R13373   5.089   6.556   3.550  0.8562  1.7971 -1.5839
  125SOPE  H13S13374   4.935   6.539   3.436 -1.4850  0.1997  0.8506
  125SOPE  C21413375   4.876   6.543   3.622  0.2916  0.7531 -0.0894
  125SOPE  H14R13376   4.871   6.434   3.643  0.9358 -0.0542 -3.5706
  125SOPE  H14S13377   4.779   6.576   3.579  1.5371  2.6718 -1.6153
  125SOPE  C21513378   4.904   6.608   3.756 -0.5551  0.1933 -0.7723
  125SOPE  H15R13379   4.875   6.715   3.747 -0.1434  0.2848 -1.0516
  125SOPE  H15S13380   5.015   6.607   3.770 -0.4964  0.5416 -1.1687
  125SOPE  C21613381   4.834   6.541   3.884  0.2263  0.0914  0.6897
  125SOPE  H16R13382   4.874   6.438   3.889 -1.9781 -0.9155 -0.6467
  125SOPE  H16S13383   4.728   6.534   3.850  0.4829 -0.5714 -0.0080
  125SOPE  C21713384   4.846   6.614   4.014  0.0141  0.2032  0.2013
  125SOPE  H17R13385   4.816   6.721   4.017  0.3271  0.2663  1.9754
  125SOPE  H17S13386   4.953   6.615   4.042 -0.6694 -0.9005  3.1361
  125SOPE  C21813387   4.755   6.557   4.124  0.4032 -0.2706  0.2398
  125SOPE  H18R13388   4.789   6.454   4.148 -2.7184 -1.2039  1.2447
  125SOPE  H18S13389   4.650   6.547   4.086  0.3011 -0.1599  0.4918
  125SOPE  H18T13390   4.767   6.613   4.219  0.0320 -0.2691  0.2889
  125SOPE   C3313391   5.086   6.148   2.907 -0.1217  0.2381  0.2489
  125SOPE   H3X13392   5.160   6.065   2.905  0.3514  0.6445 -2.7085
  125SOPE   H3Y13393   4.984   6.105   2.914 -0.7993  1.7342  0.0019
  125SOPE   C3413394   5.123   6.231   3.037 -0.0334  0.3223  0.2692
  125SOPE   H4X13395   5.046   6.310   3.049 -0.2170 -0.0800  2.1657
  125SOPE   H4Y13396   5.217   6.289   3.027  0.7871 -1.2772 -2.2806
  125SOPE   C3513397   5.115   6.143   3.164  0.4601 -0.1576  0.0351
  125SOPE   H5X13398   5.202   6.074   3.165  1.1901  0.6057  3.1356
  125SOPE   H5Y13399   5.017   6.096   3.146  1.7958 -2.4766 -1.7562
  125SOPE   C3613400   5.114   6.217   3.292  0.4248 -0.0099 -0.3472
  125SOPE   H6X13401   5.029   6.288   3.297 -0.5655 -1.2517  2.1900
  125SOPE   H6Y13402   5.202   6.285   3.297  0.8461 -0.5579 -0.2586
  125SOPE   C3713403   5.097   6.122   3.414 -0.0089 -0.6499 -0.0710
  125SOPE   H7X13404   5.187   6.057   3.408  0.5005  0.0845 -0.7100
  125SOPE   H7Y13405   5.007   6.058   3.405 -2.0750  1.9007  1.0902
  125SOPE   C3813406   5.099   6.201   3.539 -0.6881  0.3642 -0.0016
  125SOPE   H8X13407   5.015   6.274   3.537 -1.8086 -0.9100 -1.2211
  125SOPE   H8Y13408   5.196   6.256   3.532 -0.3127 -0.4359 -1.5313
  125SOPE   C3913409   5.088   6.126   3.675  0.4622  0.8858  0.4356
  125SOPE   H9X13410   5.155   6.037   3.680 -0.1074  0.5098  2.5884
  125SOPE   H9Y13411   4.992   6.070   3.666  0.9624  0.2750 -1.7782
  125SOPE  C31013412   5.106   6.209   3.804  0.1866 -0.3063 -0.2145
  125SOPE  H10X13413   5.032   6.292   3.804  1.4056  0.8170 -0.5604
  125SOPE  H10Y13414   5.202   6.264   3.812 -1.1644  1.9304  2.2989
  125SOPE  C31113415   5.068   6.146   3.938  0.0050 -0.4867  0.2953
  125SOPE  H11X13416   5.153   6.081   3.967  1.7203  0.3293 -2.4612
  125SOPE  H11Y13417   4.975   6.087   3.926 -3.5073  4.3462  0.5037
  125SOPE  C31213418   5.044   6.241   4.055  0.1269  0.4619  0.1768
  125SOPE  H12X13419   4.959   6.308   4.031  0.2962  1.6141  2.5366
  125SOPE  H12Y13420   5.128   6.314   4.060  0.9020  0.0491 -3.8738
  125SOPE  C31313421   5.018   6.179   4.191  0.4060 -0.3420  0.5998
  125SOPE  H13X13422   5.096   6.101   4.204  0.6638 -0.1175  0.4101
  125SOPE  H13Y13423   4.923   6.122   4.197  0.5310 -0.6566 -0.2793
  125SOPE  C31413424   5.028   6.278   4.308  0.1065 -0.5843 -0.3868
  125SOPE  H14X13425   4.945   6.350   4.294  0.5940 -0.3079 -2.0155
  125SOPE  H14Y13426   5.129   6.324   4.295  0.5854 -1.0362  1.4219
  125SOPE  C31513427   5.023   6.217   4.449  0.1015  0.2657 -0.6010
  125SOPE  H15X13428   5.023   6.303   4.519 -0.0412  0.2998 -0.6413
  125SOPE  H15Y13429   5.112   6.151   4.463 -0.6445 -0.5849  0.3343
  125SOPE  C31613430   4.892   6.143   4.474  1.0021  0.1847  0.4511
  125SOPE  H16X13431   4.896   6.053   4.409  3.3584  1.4467 -1.2912
  125SOPE  H16Y13432   4.803   6.202   4.442  1.0616 -0.2292 -0.5261
  125SOPE  C31713433   4.870   6.087   4.619 -0.6363 -0.2894 -0.4895
  125SOPE  H17X13434   4.876   6.169   4.693 -0.6363 -0.9024  0.1937
  125SOPE  H17Y13435   4.958   6.020   4.627  1.0699  1.7459 -1.1258
  125SOPE  C31813436   4.739   6.019   4.636 -0.1689 -0.2417 -0.1430
  125SOPE  H18X13437   4.654   6.090   4.628  0.1743  0.1918  0.0764
  125SOPE  H18Y13438   4.736   5.966   4.734  3.5591  2.3247  1.5785
  125SOPE  H18Z13439   4.718   5.952   4.550  1.0960  0.2359 -0.8391
  126SOPE     N13440   5.956   2.512   2.601 -0.0487  0.3129  0.3088
  126SOPE   HN113441   5.903   2.512   2.690  1.7358  0.8642  1.4276
  126SOPE   HN213442   6.053   2.545   2.620  0.2801  0.5184 -1.5228
  126SOPE   HN313443   5.916   2.576   2.529  1.2098  1.2036  0.3783
  126SOPE   C1213444   5.953   2.374   2.541  0.2250 -0.0950  0.3004
  126SOPE  H12A13445   6.045   2.324   2.579  1.6037  1.9601 -0.1956
  126SOPE  H12B13446   5.961   2.384   2.431  0.2618 -2.7719 -0.0150
  126SOPE   C1113447   5.824   2.297   2.574 -0.0843  0.1840 -0.1680
  126SOPE  H11A13448   5.814   2.269   2.681  3.0735 -0.3581  0.0862
  126SOPE  H11B13449   5.835   2.203   2.516 -0.0643 -0.3835  0.7453
  126SOPE     P13450   5.571   2.310   2.508 -0.1314 -0.3439  0.1656
  126SOPE   O1313451   5.548   2.268   2.366 -0.3131  0.5138  0.3005
  126SOPE   O1413452   5.476   2.404   2.565 -0.2525 -0.5181 -0.2853
  126SOPE   O1213453   5.712   2.374   2.530 -0.1223 -0.2030  0.2943
  126SOPE   O1113454   5.579   2.175   2.594 -0.1253  0.7079 -0.1369
  126SOPE    C113455   5.468   2.146   2.683 -0.3614 -0.1437  0.6888
  126SOPE    HA13456   5.466   2.035   2.695 -0.9198 -0.2287 -0.1303
  126SOPE    HB13457   5.371   2.165   2.631 -0.5146 -1.5506  0.4266
  126SOPE    C213458   5.481   2.197   2.828 -0.2050  0.3428 -0.1025
  126SOPE    HS13459   5.507   2.304   2.834 -0.6205  0.3717  1.4325
  126SOPE   O2113460   5.567   2.110   2.901  0.4076  0.3656  0.1357
  126SOPE   C2113461   5.670   2.165   2.951 -0.2531  0.3049 -0.4548
  126SOPE   O2213462   5.717   2.272   2.915  0.1823  0.1492 -0.0876
  126SOPE   C2213463   5.737   2.078   3.054 -0.5398 -0.3137  0.1578
  126SOPE   H2R13464   5.819   2.136   3.101  0.2598  0.0943 -1.6581
  126SOPE   H2S13465   5.775   1.991   2.995 -0.8259  0.1715 -0.7587
  126SOPE    C313466   5.347   2.201   2.904  0.3133  0.1507  0.1255
  126SOPE    HX13467   5.304   2.101   2.928 -0.1859  0.3662  0.1501
  126SOPE    HY13468   5.268   2.249   2.842 -0.9016  0.2122  1.6429
  126SOPE   O3113469   5.369   2.277   3.027  0.4267  0.4333 -0.3097
  126SOPE   C3113470   5.277   2.256   3.122  0.2403  0.7079  0.1060
  126SOPE   O3213471   5.179   2.181   3.116  0.2193  0.0371 -0.4223
  126SOPE   C3213472   5.305   2.353   3.235 -0.6028  0.8338 -0.3017
  126SOPE   H2X13473   5.390   2.414   3.201  0.5230  0.1901  1.2310
  126SOPE   H2Y13474   5.337   2.303   3.329  0.6753  3.2400  0.6288
  126SOPE   C2313475   5.651   2.020   3.172 -0.2027  0.4764 -0.3410
  126SOPE   H3R13476   5.719   1.941   3.211  0.1900  0.0776 -1.7750
  126SOPE   H3S13477   5.566   1.970   3.121  0.9537  0.3295 -2.2254
  126SOPE   C2413478   5.619   2.127   3.275 -0.6661 -0.2680  0.6362
  126SOPE   H4R13479   5.708   2.187   3.302 -1.7009  2.1287 -0.9994
  126SOPE   H4S13480   5.541   2.195   3.236 -0.2637 -0.2926 -0.2251
  126SOPE   C2513481   5.564   2.067   3.405  0.1330 -0.1709  0.0947
  126SOPE   H5R13482   5.461   2.026   3.396 -0.2236  0.6700  0.2488
  126SOPE   H5S13483   5.633   1.990   3.445  0.6359  0.9019  1.3587
  126SOPE   C2613484   5.584   2.180   3.513  0.4211 -0.9142 -0.2916
  126SOPE   H6R13485   5.693   2.195   3.532  0.1607  0.4479  0.2314
  126SOPE   H6S13486   5.551   2.277   3.471  1.7564  0.0222  0.7221
  126SOPE   C2713487   5.524   2.152   3.651  0.2540  1.1066  0.0148
  126SOPE   H7R13488   5.421   2.115   3.632  0.2379 -1.0460  3.4179
  126SOPE   H7S13489   5.579   2.082   3.717 -1.6195 -0.9407 -0.4870
  126SOPE   C2813490   5.507   2.274   3.739 -0.4313 -0.2757  0.0723
  126SOPE   H8R13491   5.454   2.360   3.692  2.2482 -0.4563 -3.7181
  126SOPE   H8S13492   5.446   2.242   3.826 -0.4371  0.3156  0.2896
  126SOPE   C2913493   5.643   2.328   3.786  0.2729  0.3423  0.2500
  126SOPE   H9113494   5.701   2.354   3.696  0.4621  0.7002  0.4675
  126SOPE  C21013495   5.696   2.334   3.912 -0.1338 -0.3346 -0.1140
  126SOPE  H10113496   5.793   2.383   3.922 -1.3719  1.8744  2.2209
  126SOPE  C21113497   5.638   2.285   4.044 -0.1068  0.1771  0.7327
  126SOPE  H11R13498   5.693   2.195   4.078 -0.1682 -0.2120 -0.1633
  126SOPE  H11S13499   5.529   2.265   4.035  0.1730 -2.3665  2.0899
  126SOPE  C21213500   5.659   2.405   4.138 -0.8726  0.3007 -0.3018
  126SOPE  H12R13501   5.611   2.500   4.105 -0.0439  0.3267 -1.4915
  126SOPE  H12S13502   5.769   2.421   4.148 -0.8713  0.3628 -0.4117
  126SOPE  C21313503   5.602   2.385   4.286  0.2278 -1.0331 -0.2103
  126SOPE  H13R13504   5.605   2.278   4.315 -3.2668 -0.8686  1.2970
  126SOPE  H13S13505   5.494   2.414   4.287 -0.5228 -3.5903 -0.6012
  126SOPE  C21413506   5.676   2.457   4.407  0.1605 -0.1632  0.1594
  126SOPE  H14R13507   5.784   2.433   4.397 -0.0228 -1.4549  0.9291
  126SOPE  H14S13508   5.641   2.406   4.500 -0.5402  2.3018  1.3239
  126SOPE  C21513509   5.668   2.612   4.408  0.0017 -0.1444  0.0360
  126SOPE  H15R13510   5.731   2.657   4.328  1.0725  0.3858  1.1323
  126SOPE  H15S13511   5.720   2.647   4.499  1.3807  2.3139 -1.5654
  126SOPE  C21613512   5.525   2.671   4.396  0.0095 -0.1302  0.9091
  126SOPE  H16R13513   5.475   2.634   4.305  0.0752  2.7354 -0.4150
  126SOPE  H16S13514   5.531   2.782   4.391  0.0685 -0.1485  0.5863
  126SOPE  C21713515   5.437   2.631   4.515  0.0056 -0.0583  0.7981
  126SOPE  H17R13516   5.483   2.667   4.609  1.4827 -1.5341  0.6732
  126SOPE  H17S13517   5.446   2.521   4.517  0.7369  0.0081  1.3257
  126SOPE  C21813518   5.290   2.685   4.495  0.1236  0.0386 -0.2812
  126SOPE  H18R13519   5.240   2.673   4.397  0.7633  2.6570 -0.9993
  126SOPE  H18S13520   5.283   2.794   4.516  1.2429 -0.0439  0.6210
  126SOPE  H18T13521   5.217   2.641   4.568  1.1979 -1.1828  0.0956
  126SOPE   C3313522   5.175   2.433   3.253 -0.0533 -0.2958 -0.2366
  126SOPE   H3X13523   5.075   2.383   3.255 -0.5034  0.5933 -0.1092
  126SOPE   H3Y13524   5.167   2.501   3.165  1.7474 -0.4344 -0.5447
  126SOPE   C3413525   5.194   2.523   3.378  0.2165 -0.4092  0.4366
  126SOPE   H4X13526   5.106   2.591   3.383  1.4357  1.3005 -0.3864
  126SOPE   H4Y13527   5.289   2.581   3.373 -0.3536  0.5028 -0.2201
  126SOPE   C3513528   5.205   2.451   3.520  0.3444  0.3942 -0.2021
  126SOPE   H5X13529   5.189   2.531   3.596  2.6418  0.9347 -0.2185
  126SOPE   H5Y13530   5.310   2.416   3.530  0.2730  0.7995  2.7308
  126SOPE   C3613531   5.121   2.324   3.548  0.1046 -0.1482 -0.0377
  126SOPE   H6X13532   5.131   2.250   3.466  1.6884  0.2368 -0.2261
  126SOPE   H6Y13533   5.016   2.362   3.554  0.1943 -0.0303  4.1049
  126SOPE   C3713534   5.147   2.264   3.689 -0.0938  0.4306  0.3892
  126SOPE   H7X13535   5.154   2.344   3.765  0.6767  0.7928 -0.0567
  126SOPE   H7Y13536   5.245   2.211   3.686  0.2800  1.1490 -1.8444
  126SOPE   C3813537   5.030   2.168   3.736 -0.4947 -0.1520  0.3868
  126SOPE   H8X13538   4.996   2.111   3.647 -1.1878  1.1059 -0.1918
  126SOPE   H8Y13539   4.944   2.222   3.780 -0.1720  0.3097  0.4619
  126SOPE   C3913540   5.078   2.080   3.856  0.7094  0.7117  0.1122
  126SOPE   H9X13541   5.135   2.141   3.929  0.7188 -0.4319  1.0854
  126SOPE   H9Y13542   5.142   2.000   3.813  1.3618  0.5254  1.3790
  126SOPE  C31013543   4.959   2.020   3.939 -0.5909 -0.5021  0.5146
  126SOPE  H10X13544   4.986   1.921   3.981 -1.0532 -0.5724  0.6539
  126SOPE  H10Y13545   4.877   2.002   3.865 -0.6934 -1.9752  0.9591
  126SOPE  C31113546   4.905   2.113   4.048 -0.1740 -0.0987 -0.8498
  126SOPE  H11X13547   4.857   2.202   4.003 -0.2289  1.5528  2.2626
  126SOPE  H11Y13548   4.987   2.148   4.114 -0.3285 -1.1033 -0.1072
  126SOPE  C31213549   4.782   2.072   4.130 -0.3450 -0.4671 -0.5107
  126SOPE  H12X13550   4.698   2.059   4.059 -0.3524  1.2250 -0.8748
  126SOPE  H12Y13551   4.759   2.161   4.193  1.0416 -0.8185  0.5481
  126SOPE  C31313552   4.801   1.945   4.215 -0.0280 -0.3722  0.1202
  126SOPE  H13X13553   4.896   1.973   4.266  0.3554  0.7863 -1.1735
  126SOPE  H13Y13554   4.817   1.871   4.133 -0.1013  1.0633 -1.2357
  126SOPE  C31413555   4.689   1.906   4.315 -0.0029 -0.3663  0.9572
  126SOPE  H14X13556   4.594   1.903   4.258 -0.6896  0.7811  1.9735
  126SOPE  H14Y13557   4.688   1.985   4.394  1.8219  0.2874  0.3759
  126SOPE  C31513558   4.709   1.767   4.369 -0.4280 -0.2077  0.4201
  126SOPE  H15X13559   4.702   1.691   4.288  2.0614 -1.1673  0.9849
  126SOPE  H15Y13560   4.634   1.741   4.447 -1.1316  1.9612  0.5197
  126SOPE  C31613561   4.844   1.734   4.442  0.0186 -0.0153 -0.8683
  126SOPE  H16X13562   4.820   1.728   4.550  0.2705 -0.9165 -0.8556
  126SOPE  H16Y13563   4.921   1.813   4.432  0.6109 -0.3954  0.4335
  126SOPE  C31713564   4.912   1.600   4.391  0.1345  0.0727 -0.0212
  126SOPE  H17X13565   4.916   1.600   4.280 -0.0136  0.9400 -0.0322
  126SOPE  H17Y13566   4.844   1.521   4.428  0.6570  0.3134  1.5395
  126SOPE  C31813567   5.056   1.561   4.423  0.0445 -0.0438  0.2408
  126SOPE  H18X13568   5.123   1.640   4.381 -0.9054  0.6874  0.0618
  126SOPE  H18Y13569   5.086   1.473   4.362 -2.8019 -1.5385  0.8722
  126SOPE  H18Z13570   5.076   1.557   4.532 -2.1233 -0.1610  0.6632
  127SOPE     N13571   0.926   4.094   2.318 -0.0281  0.2115  0.0649
  127SOPE   HN113572   1.020   4.087   2.362 -0.4785 -1.2567  0.8835
  127SOPE   HN213573   0.939   4.155   2.235  1.8066  0.8145  0.7438
  127SOPE   HN313574   0.866   4.140   2.389  1.0331  0.2256  0.9873
  127SOPE   C1213575   0.876   3.958   2.275  0.0256  0.5898  0.0196
  127SOPE  H12A13576   0.901   3.885   2.354 -0.5073  0.9444  0.5260
  127SOPE  H12B13577   0.930   3.937   2.180  0.2955 -0.4237  0.3857
  127SOPE   C1113578   0.724   3.960   2.240  0.5773 -0.3081 -0.1529
  127SOPE  H11A13579   0.670   3.989   2.333  2.3821  0.5597  0.6898
  127SOPE  H11B13580   0.692   3.859   2.208  1.5934 -0.8746  0.5391
  127SOPE     P13581   0.543   4.072   2.093  0.2885 -0.2141 -0.0690
  127SOPE   O1313582   0.478   3.942   2.066 -0.0034 -0.1461  0.0195
  127SOPE   O1413583   0.546   4.169   1.975 -0.0115 -0.0254  0.2830
  127SOPE   O1213584   0.691   4.051   2.137 -0.2206  0.4109 -0.1846
  127SOPE   O1113585   0.469   4.134   2.217 -0.0406  0.0190 -0.3674
  127SOPE    C113586   0.477   4.270   2.259  0.0233 -0.1988  0.6971
  127SOPE    HA13587   0.573   4.313   2.224 -0.2004  0.2580  0.6447
  127SOPE    HB13588   0.467   4.268   2.369  0.4226  0.8486  0.7630
  127SOPE    C213589   0.361   4.356   2.207  0.1982  0.2348  0.4390
  127SOPE    HS13590   0.390   4.380   2.102 -0.1084 -0.1819  0.2573
  127SOPE   O2113591   0.372   4.477   2.281  0.2357  0.0488  0.1234
  127SOPE   C2113592   0.321   4.586   2.219 -0.2355 -0.0508 -0.3758
  127SOPE   O2213593   0.280   4.591   2.106 -0.0364 -0.2831 -0.1392
  127SOPE   C2213594   0.292   4.687   2.329 -0.4393 -0.1571 -0.1556
  127SOPE   H2R13595   0.204   4.646   2.383 -0.2783 -2.3107 -1.3922
  127SOPE   H2S13596   0.248   4.777   2.280 -1.6972 -0.1248  0.9807
  127SOPE    C313597   0.219   4.284   2.203 -0.2668 -0.2478  0.5644
  127SOPE    HX13598   0.223   4.200   2.130 -0.1925 -0.1883  0.4986
  127SOPE    HY13599   0.140   4.348   2.159  0.0983  0.0568  0.3406
  127SOPE   O3113600   0.192   4.229   2.333 -0.3826  0.2780  0.2803
  127SOPE   C3113601   0.125   4.298   2.424 -0.3539  0.2196 -0.8701
  127SOPE   O3213602   0.060   4.402   2.403 -0.4918 -0.1308 -0.6201
  127SOPE   C3213603   0.141   4.236   2.563  0.0642  0.4298  0.1090
  127SOPE   H2X13604   0.251   4.222   2.565  0.1293  0.6222 -1.1658
  127SOPE   H2Y13605   0.091   4.137   2.573 -2.3584  1.3321 -1.8498
  127SOPE   C2313606   0.422   4.719   2.406  0.2826 -0.5084 -0.6153
  127SOPE   H3R13607   0.507   4.736   2.337  0.1657 -0.5799 -0.7759
  127SOPE   H3S13608   0.432   4.637   2.480 -3.1551 -0.4902  0.0514
  127SOPE   C2413609   0.397   4.843   2.493 -0.1036 -0.5614 -0.0032
  127SOPE   H4R13610   0.377   4.929   2.425  0.3248  1.0042  1.7494
  127SOPE   H4S13611   0.299   4.828   2.542 -0.9494 -1.9202 -1.9942
  127SOPE   C2513612   0.512   4.883   2.590  0.2472  0.1664  0.2539
  127SOPE   H5R13613   0.601   4.920   2.533  0.0742  0.4467  0.1613
  127SOPE   H5S13614   0.474   4.970   2.647 -0.9611 -0.0702 -0.1742
  127SOPE   C2613615   0.545   4.768   2.690  0.2035  0.5215  0.2987
  127SOPE   H6R13616   0.455   4.715   2.728  1.4539  0.0428  2.7888
  127SOPE   H6S13617   0.592   4.691   2.626 -3.0211 -1.2477 -0.1608
  127SOPE   C2713618   0.635   4.807   2.818 -0.2606  0.6588 -0.2078
  127SOPE   H7R13619   0.731   4.844   2.776  0.9374  0.7090  2.4123
  127SOPE   H7S13620   0.584   4.886   2.877  0.0918 -0.6301  1.9323
  127SOPE   C2813621   0.679   4.683   2.906  0.3243  0.1498 -0.1732
  127SOPE   H8R13622   0.726   4.604   2.844 -1.2983  0.4162 -1.8459
  127SOPE   H8S13623   0.749   4.708   2.988 -0.0027 -1.4770  0.6320
  127SOPE   C2913624   0.557   4.628   2.972 -0.7143  0.5403 -0.1316
  127SOPE   H9113625   0.465   4.654   2.917 -1.4544 -1.4864  0.0839
  127SOPE  C21013626   0.547   4.551   3.086 -0.0389  0.0004 -0.0176
  127SOPE  H10113627   0.450   4.515   3.122  1.4749 -2.6335  1.6801
  127SOPE  C21113628   0.662   4.521   3.172  0.1550  0.2512 -0.0421
  127SOPE  H11R13629   0.755   4.503   3.114 -1.8399 -2.7846 -2.5737
  127SOPE  H11S13630   0.642   4.426   3.226  0.5719  0.0530 -0.2373
  127SOPE  C21213631   0.706   4.629   3.280 -0.2836  0.1170 -0.1354
  127SOPE  H12R13632   0.636   4.623   3.367 -0.5929  1.9623 -0.2128
  127SOPE  H12S13633   0.707   4.729   3.232 -1.2487  0.2893  0.1751
  127SOPE  C21313634   0.847   4.601   3.325 -1.1128 -0.1099  0.2690
  127SOPE  H13R13635   0.929   4.605   3.251 -1.3021  1.5070  0.1125
  127SOPE  H13S13636   0.841   4.497   3.365  1.2876 -0.6704 -0.6943
  127SOPE  C21413637   0.891   4.691   3.440  0.4263  0.1575  0.6630
  127SOPE  H14R13638   0.907   4.793   3.399  0.8765 -0.1736 -0.0109
  127SOPE  H14S13639   0.991   4.650   3.468  0.6122  0.8742  1.0756
  127SOPE  C21513640   0.803   4.696   3.560  0.1464  0.2711  0.5418
  127SOPE  H15R13641   0.775   4.590   3.579  0.3976  0.1340  0.1463
  127SOPE  H15S13642   0.705   4.740   3.533 -1.0140 -1.7831  1.1738
  127SOPE  C21613643   0.875   4.748   3.685  0.0948 -0.3026 -0.0730
  127SOPE  H16R13644   0.886   4.859   3.679  3.8509 -0.4511  1.5899
  127SOPE  H16S13645   0.974   4.699   3.693  0.0844 -0.3802 -0.4032
  127SOPE  C21713646   0.807   4.714   3.824 -0.1062  0.1320  0.1431
  127SOPE  H17R13647   0.818   4.605   3.838  0.3326 -0.1488 -2.0978
  127SOPE  H17S13648   0.696   4.725   3.830 -0.0330  1.5482 -0.6372
  127SOPE  C21813649   0.867   4.790   3.941  0.6896  0.3798 -0.6562
  127SOPE  H18R13650   0.978   4.781   3.941  0.6288 -0.4866  0.3307
  127SOPE  H18S13651   0.843   4.719   4.023 -0.7796  0.1775 -1.2314
  127SOPE  H18T13652   0.826   4.891   3.960 -1.6913 -0.5802 -0.3552
  127SOPE   C3313653   0.076   4.317   2.674  0.2934 -0.2948 -0.2542
  127SOPE   H3X13654   0.088   4.253   2.764 -1.1196  0.1808  0.2950
  127SOPE   H3Y13655  -0.031   4.339   2.657  0.7269  0.8599 -1.6689
  127SOPE   C3413656   0.142   4.451   2.713  0.6604  0.0915 -0.4520
  127SOPE   H4X13657   0.146   4.521   2.626  1.8323 -0.1838 -0.6413
  127SOPE   H4Y13658   0.248   4.443   2.746  0.3198  1.0403  0.9332
  127SOPE   C3513659   0.059   4.526   2.831  0.2771 -0.0731  0.3872
  127SOPE   H5X13660  -0.045   4.519   2.793  0.4272  2.4013 -0.7300
  127SOPE   H5Y13661   0.084   4.635   2.832  0.0281 -0.0137  0.3250
  127SOPE   C3613662   0.086   4.463   2.966 -0.2989  0.1775 -0.4386
  127SOPE   H6X13663   0.193   4.443   2.987  0.1739  2.3367 -0.6097
  127SOPE   H6Y13664   0.029   4.367   2.971 -0.7843  0.4385 -0.8585
  127SOPE   C3713665   0.048   4.548   3.090 -0.2549 -0.7480 -0.6669
  127SOPE   H7X13666   0.114   4.638   3.087 -0.5681 -0.3712  1.7611
  127SOPE   H7Y13667   0.064   4.495   3.187  0.0513  0.4945 -0.0093
  127SOPE   C3813668  -0.092   4.596   3.099  0.6065 -0.1455 -0.0592
  127SOPE   H8X13669  -0.157   4.507   3.090 -2.6522  1.9325  1.1567
  127SOPE   H8Y13670  -0.119   4.672   3.022  1.5164  0.8513  0.5710
  127SOPE   C3913671  -0.123   4.668   3.230  0.3650 -0.6208  0.4716
  127SOPE   H9X13672  -0.091   4.605   3.315  0.6900 -1.9165 -0.5761
  127SOPE   H9Y13673  -0.233   4.684   3.229  0.3861 -0.2073  2.0057
  127SOPE  C31013674  -0.063   4.813   3.232 -0.0124  1.1086 -0.3744
  127SOPE  H10X13675  -0.070   4.861   3.132 -2.1768 -0.6204 -1.1348
  127SOPE  H10Y13676   0.043   4.794   3.258 -0.6141 -1.3266  0.6021
  127SOPE  C31113677  -0.142   4.894   3.338 -0.0235 -0.4353  1.1654
  127SOPE  H11X13678  -0.145   4.822   3.422  0.0100 -0.5958  1.0302
  127SOPE  H11Y13679  -0.239   4.912   3.286  1.3849 -1.1905 -1.9927
  127SOPE  C31213680  -0.079   5.025   3.368  0.3601 -1.0663  0.1829
  127SOPE  H12X13681  -0.087   5.083   3.274 -0.8068 -0.8850  0.3848
  127SOPE  H12Y13682   0.028   5.021   3.399  0.2204 -0.4330  0.7730
  127SOPE  C31313683  -0.148   5.104   3.479  0.5294 -0.4623  0.3183
  127SOPE  H13X13684  -0.135   5.046   3.573 -0.7051 -1.7521 -0.2688
  127SOPE  H13Y13685  -0.257   5.112   3.463  0.6691  0.4171 -0.2771
  127SOPE  C31413686  -0.115   5.255   3.498 -0.2725  0.4908  0.6146
  127SOPE  H14X13687  -0.121   5.314   3.404 -1.0952  0.0013  0.3550
  127SOPE  H14Y13688  -0.005   5.263   3.513 -0.2922  2.2623  0.0298
  127SOPE  C31513689  -0.196   5.318   3.611 -0.2197 -0.7045  0.3288
  127SOPE  H15X13690  -0.303   5.316   3.582  0.1515  1.2148 -1.3608
  127SOPE  H15Y13691  -0.168   5.425   3.618  0.6511 -0.9896  1.4484
  127SOPE  C31613692  -0.170   5.268   3.754 -0.1176 -0.5753  0.5538
  127SOPE  H16X13693  -0.065   5.291   3.781 -0.4444  0.6545  0.8300
  127SOPE  H16Y13694  -0.182   5.158   3.761  0.2577 -0.6277  0.4387
  127SOPE  C31713695  -0.268   5.327   3.854 -0.3609 -0.4168  0.3253
  127SOPE  H17X13696  -0.302   5.428   3.824  2.5178  0.8242  0.9255
  127SOPE  H17Y13697  -0.225   5.330   3.956 -0.3757 -0.3648  0.3297
  127SOPE  C31813698  -0.388   5.223   3.863  0.3433 -0.1355  0.0017
  127SOPE  H18X13699  -0.466   5.264   3.931  0.2244  4.1760 -2.3452
  127SOPE  H18Y13700  -0.352   5.128   3.908  1.8862 -0.3434 -1.5550
  127SOPE  H18Z13701  -0.431   5.203   3.762 -0.6014 -0.1784  0.4009
  128SOPE     N13702   4.280   0.842   2.197  0.5306 -0.1040 -0.1346
  128SOPE   HN113703   4.346   0.819   2.274  0.8652  2.9871  0.6270
  128SOPE   HN213704   4.330   0.803   2.115  1.6576  0.0917  0.4267
  128SOPE   HN313705   4.272   0.946   2.196  0.6314 -0.0824 -2.1827
  128SOPE   C1213706   4.142   0.781   2.215  0.0533 -0.1617 -0.3311
  128SOPE  H12A13707   4.150   0.677   2.253 -2.1523 -0.8052 -1.4553
  128SOPE  H12B13708   4.112   0.775   2.108 -0.0264  0.2046 -0.3336
  128SOPE   C1113709   4.042   0.857   2.307 -0.1192  0.1346  1.4827
  128SOPE  H11A13710   4.102   0.878   2.398 -0.2965  0.9031  1.4292
  128SOPE  H11B13711   3.960   0.785   2.331  0.8358 -1.2299  0.8111
  128SOPE     P13712   4.050   1.120   2.273  0.3438 -0.2319  0.6364
  128SOPE   O1313713   3.958   1.223   2.219 -0.2856 -0.6132 -0.1036
  128SOPE   O1413714   4.193   1.130   2.236 -0.0895  0.4703  0.3147
  128SOPE   O1213715   3.995   0.971   2.241 -0.6321  0.2642 -0.0617
  128SOPE   O1113716   4.038   1.123   2.426  0.1408 -0.0593 -0.1909
  128SOPE    C113717   4.107   1.215   2.513  0.2035  0.5346  0.4554
  128SOPE    HA13718   4.101   1.320   2.477 -2.5942  0.1947 -0.2865
  128SOPE    HB13719   4.211   1.180   2.533 -0.5885 -1.7489  0.8265
  128SOPE    C213720   4.029   1.228   2.646 -0.4156 -0.7727 -0.8164
  128SOPE    HS13721   4.093   1.278   2.721 -0.3248  1.4864 -2.3075
  128SOPE   O2113722   3.993   1.099   2.696 -0.0540  0.2685 -0.6269
  128SOPE   C2113723   4.091   1.031   2.755  0.4657 -0.7299 -0.9825
  128SOPE   O2213724   4.199   1.080   2.786 -0.3390  0.2806 -0.3375
  128SOPE   C2213725   4.054   0.884   2.771 -0.1244  0.9489 -0.0403
  128SOPE   H2R13726   4.136   0.817   2.739 -1.3096  0.5397 -2.4674
  128SOPE   H2S13727   3.962   0.862   2.712  0.4443  0.5362 -0.7893
  128SOPE    C313728   3.903   1.317   2.615 -0.3301  0.8109  0.1944
  128SOPE    HX13729   3.850   1.271   2.529 -1.5018  2.0325  0.2290
  128SOPE    HY13730   3.928   1.421   2.585  0.5318  0.4392 -0.4281
  128SOPE   O3113731   3.812   1.335   2.730 -0.5628  0.3115 -0.4632
  128SOPE   C3113732   3.738   1.231   2.758  0.3816  0.0034  0.7096
  128SOPE   O3213733   3.721   1.130   2.686  0.3397  0.0626 -0.7596
  128SOPE   C3213734   3.666   1.253   2.891  0.0736 -0.4201 -0.5822
  128SOPE   H2X13735   3.641   1.360   2.908  1.0990 -0.1254 -0.8554
  128SOPE   H2Y13736   3.736   1.221   2.971  0.0989 -2.4733 -1.3778
  128SOPE   C2313737   4.030   0.840   2.918  1.1430 -0.0297  0.2068
  128SOPE   H3R13738   3.980   0.741   2.925  1.1942  0.0073  1.3305
  128SOPE   H3S13739   3.965   0.918   2.964 -0.3523 -1.4697  0.6194
  128SOPE   C2413740   4.160   0.819   3.000  0.4432 -0.8601 -0.2029
  128SOPE   H4R13741   4.232   0.770   2.930  0.3983 -1.3123  0.0702
  128SOPE   H4S13742   4.192   0.924   3.020 -0.1542 -0.2436 -2.1692
  128SOPE   C2513743   4.147   0.736   3.124 -0.5655  0.2396 -0.0999
  128SOPE   H5R13744   4.095   0.643   3.092  0.6091 -0.6212  0.4026
  128SOPE   H5S13745   4.245   0.699   3.160 -0.4668 -0.1056 -0.7018
  128SOPE   C2613746   4.054   0.799   3.233  0.2016 -0.0822 -0.3723
  128SOPE   H6R13747   4.086   0.904   3.252  1.1032  0.0676 -2.4936
  128SOPE   H6S13748   3.944   0.801   3.221 -0.1017  0.7685  2.0457
  128SOPE   C2713749   4.064   0.735   3.374  0.1115  0.3538  0.5574
  128SOPE   H7R13750   4.048   0.625   3.363  1.3265  0.1850  0.2719
  128SOPE   H7S13751   4.168   0.746   3.413  0.6856 -0.2363 -0.7252
  128SOPE   C2813752   3.963   0.798   3.467 -0.2097  0.1694 -0.2001
  128SOPE   H8R13753   4.017   0.886   3.508 -1.6474  0.1767  1.7789
  128SOPE   H8S13754   3.874   0.833   3.411 -1.6079 -3.2323 -0.3300
  128SOPE   C2913755   3.913   0.706   3.573 -0.3528 -0.2605 -0.6472
  128SOPE   H9113756   3.890   0.604   3.537  0.5318 -0.1414 -1.6222
  128SOPE  C21013757   3.889   0.735   3.703 -0.3390  0.2434 -0.0142
  128SOPE  H10113758   3.853   0.650   3.762 -2.0144 -1.0857 -2.7251
  128SOPE  C21113759   3.883   0.864   3.775 -0.1158 -0.0554  0.2434
  128SOPE  H11R13760   3.782   0.909   3.762 -1.1229 -2.0900  0.5930
  128SOPE  H11S13761   3.950   0.942   3.733 -1.3764  0.1399 -1.5466
  128SOPE  C21213762   3.905   0.873   3.930  0.3391  0.5965 -0.6722
  128SOPE  H12R13763   3.905   0.977   3.969  0.0260  0.9065 -1.4826
  128SOPE  H12S13764   4.010   0.839   3.947  0.3436 -0.4337 -2.5384
  128SOPE  C21313765   3.812   0.789   4.026  0.6678  0.4889  0.9521
  128SOPE  H13R13766   3.831   0.685   3.991  2.9524  0.9645  0.6239
  128SOPE  H13S13767   3.704   0.811   4.012  0.9812  0.2293 -2.7932
  128SOPE  C21413768   3.840   0.814   4.169 -0.0015  0.1308  0.0701
  128SOPE  H14R13769   3.862   0.922   4.188 -2.8355  0.3893  2.8800
  128SOPE  H14S13770   3.931   0.763   4.205  0.2858  1.7756  1.9073
  128SOPE  C21513771   3.724   0.763   4.264  0.1026  0.0576  0.2102
  128SOPE  H15R13772   3.728   0.654   4.283 -1.3482 -0.0563  0.0068
  128SOPE  H15S13773   3.625   0.798   4.228 -0.2977 -0.4398  0.7969
  128SOPE  C21613774   3.751   0.814   4.405 -0.6395 -0.4538 -0.5535
  128SOPE  H16R13775   3.659   0.787   4.461 -2.0857  0.9616 -2.1528
  128SOPE  H16S13776   3.751   0.925   4.404 -1.6652 -0.4365 -0.2732
  128SOPE  C21713777   3.883   0.760   4.474  0.1832  0.5719 -0.4675
  128SOPE  H17R13778   3.965   0.775   4.401  1.2696  2.2519  1.0195
  128SOPE  H17S13779   3.868   0.654   4.506 -1.4524  0.6033 -1.0712
  128SOPE  C21813780   3.919   0.832   4.601 -0.7529 -0.5169  0.5607
  128SOPE  H18R13781   3.943   0.939   4.581 -0.9338  0.0216  2.9388
  128SOPE  H18S13782   4.007   0.783   4.648 -1.2133  1.5760  3.9719
  128SOPE  H18T13783   3.834   0.841   4.672 -0.6508  0.5610  0.5685
  128SOPE   C3313784   3.548   1.150   2.914 -0.0555 -0.3900  0.3992
  128SOPE   H3X13785   3.584   1.045   2.925 -0.5208 -0.3806  2.3665
  128SOPE   H3Y13786   3.489   1.154   2.820  0.5140 -1.1775 -0.0035
  128SOPE   C3413787   3.453   1.185   3.025  0.4703  0.2192  0.1024
  128SOPE   H4X13788   3.371   1.111   3.034  0.3788  0.3629  0.4668
  128SOPE   H4Y13789   3.406   1.280   2.991  1.8808  1.4274  1.3125
  128SOPE   C3513790   3.530   1.197   3.161 -0.1997  0.3434  0.3590
  128SOPE   H5X13791   3.596   1.286   3.152  1.9073 -0.8078  3.0863
  128SOPE   H5Y13792   3.587   1.102   3.162  0.9463  1.0253  1.0622
  128SOPE   C3613793   3.437   1.193   3.282  0.7206  0.0307 -0.0298
  128SOPE   H6X13794   3.385   1.095   3.277  1.6944 -0.5541  0.9187
  128SOPE   H6Y13795   3.356   1.269   3.284  3.3480  3.0727  0.9839
  128SOPE   C3713796   3.527   1.186   3.402  0.3283  0.1401  0.7254
  128SOPE   H7X13797   3.575   1.285   3.415  2.6493 -0.9882  1.1715
  128SOPE   H7Y13798   3.610   1.112   3.402  0.8061  0.4290 -3.3024
  128SOPE   C3813799   3.448   1.163   3.535  0.5564  0.3638 -0.4057
  128SOPE   H8X13800   3.401   1.063   3.522  1.3706  0.2292 -3.1018
  128SOPE   H8Y13801   3.374   1.244   3.554  1.1327  0.6126  0.8551
  128SOPE   C3913802   3.539   1.169   3.656  0.2818 -0.4093  0.4373
  128SOPE   H9X13803   3.577   1.274   3.659 -2.4620  0.6517  3.9389
  128SOPE   H9Y13804   3.627   1.105   3.634  1.4995  0.0731  3.4337
  128SOPE  C31013805   3.475   1.114   3.779  0.5374 -0.0763 -0.4819
  128SOPE  H10X13806   3.450   1.008   3.756 -2.8547  0.8429 -1.6417
  128SOPE  H10Y13807   3.372   1.157   3.782  0.7793  0.4801  0.0776
  128SOPE  C31113808   3.560   1.130   3.910 -0.0905  0.1875  0.1635
  128SOPE  H11X13809   3.591   1.234   3.931  0.0730  0.0172  0.7972
  128SOPE  H11Y13810   3.656   1.077   3.898 -0.0337  0.1972  0.5649
  128SOPE  C31213811   3.472   1.077   4.032 -0.0493 -1.0265 -0.1663
  128SOPE  H12X13812   3.431   0.976   4.013 -1.0480 -0.6683  0.0187
  128SOPE  H12Y13813   3.384   1.145   4.025  0.7968  0.0740 -0.5358
  128SOPE  C31313814   3.544   1.085   4.171  0.1325  0.2383 -0.1271
  128SOPE  H13X13815   3.595   1.180   4.200 -1.5926  1.3560 -0.6033
  128SOPE  H13Y13816   3.622   1.006   4.163 -1.2221 -1.2098  0.5189
  128SOPE  C31413817   3.446   1.030   4.279 -0.1462  0.0610  0.1229
  128SOPE  H14X13818   3.502   1.008   4.372  0.6678 -1.1038 -0.6166
  128SOPE  H14Y13819   3.398   0.936   4.245  2.0698 -0.1505 -2.8283
  128SOPE  C31513820   3.329   1.136   4.306 -0.2441  0.2149 -0.7220
  128SOPE  H15X13821   3.235   1.079   4.317 -0.1433  0.0584 -0.6623
  128SOPE  H15Y13822   3.317   1.215   4.229 -0.8008  0.0180 -0.8433
  128SOPE  C31613823   3.350   1.207   4.442  0.3352  0.1614 -0.1305
  128SOPE  H16X13824   3.443   1.267   4.438  0.8203 -0.6300 -2.7780
  128SOPE  H16Y13825   3.355   1.127   4.519 -0.0640 -0.7090 -0.9834
  128SOPE  C31713826   3.227   1.301   4.469 -0.6442 -0.8675 -0.3003
  128SOPE  H17X13827   3.191   1.349   4.376  1.6604  1.3134 -0.1905
  128SOPE  H17Y13828   3.276   1.387   4.520 -2.4531  0.3946 -0.6260
  128SOPE  C31813829   3.115   1.243   4.568  0.3144  0.0342  0.2316
  128SOPE  H18X13830   3.055   1.160   4.526 -2.6514  0.7204  2.7276
  128SOPE  H18Y13831   3.055   1.331   4.598  0.0594  0.5090 -1.5425
  128SOPE  H18Z13832   3.166   1.217   4.663  1.4859  2.5708  0.4134
  129OSM      N13833   3.067   5.533   6.812 -0.2529  0.1544 -0.0495
  129OSM    C1513834   3.081   5.678   6.768  0.1052 -0.2920  0.0368
  129OSM   H15A13835   3.047   5.733   6.855 -0.2041  0.1463 -0.3551
  129OSM   H15B13836   3.023   5.709   6.683  0.6110  0.6921  0.0304
  129OSM   H15C13837   3.180   5.719   6.755 -0.7798  1.7833 -0.6497
  129OSM    C1413838   3.140   5.454   6.716  0.0097 -0.5088  0.3667
  129OSM   H14A13839   3.151   5.350   6.741  1.2610 -0.3699  0.4346
  129OSM   H14B13840   3.240   5.495   6.711  0.3890 -1.1507  2.0256
  129OSM   H14C13841   3.108   5.452   6.613  0.7687 -0.6719  0.1307
  129OSM    C1313842   3.130   5.514   6.944 -0.5438 -0.2940  0.1720
  129OSM   H13A13843   3.237   5.521   6.937 -0.4659 -1.5887 -0.2569
  129OSM   H13B13844   3.116   5.416   6.988  0.0780  0.5994  2.5344
  129OSM   H13C13845   3.091   5.579   7.022  0.8002  0.5181  0.1960
  129OSM    C1213846   2.918   5.499   6.808 -0.7136 -0.3172 -0.0045
  129OSM   H12A13847   2.876   5.526   6.712  0.0220  1.2964  0.0929
  129OSM   H12B13848   2.863   5.562   6.877  0.2181  0.6665 -0.1359
  129OSM    C1113849   2.884   5.354   6.833  0.1738  0.1809 -0.6727
  129OSM   H11A13850   2.918   5.340   6.938  0.3336  2.6048 -0.3360
  129OSM   H11B13851   2.956   5.296   6.771 -0.4597 -0.4502 -0.8158
  129OSM      P13852   2.708   5.240   6.687 -0.4063  0.4021 -0.0958
  129OSM    O1313853   2.763   5.103   6.721 -0.0627 -0.1490  0.0911
  129OSM    O1413854   2.563   5.256   6.661  0.1043  0.2181 -0.1076
  129OSM    O1113855   2.786   5.299   6.568  0.3665 -0.2576 -0.0037
  129OSM    O1213856   2.746   5.329   6.808  0.3227  0.2048  0.0006
  129OSM    C1S13857   2.796   5.218   6.456 -0.5436 -0.2412  0.0308
  129OSM    H1S13858   2.708   5.152   6.440 -0.2230 -0.5163 -0.6348
  129OSM    H1T13859   2.879   5.145   6.466 -2.0346 -1.8742  1.1376
  129OSM     NF13860   2.790   5.213   6.208 -0.0305 -0.1138  1.2968
  129OSM    HNF13861   2.863   5.181   6.149 -3.4222 -3.1973 -1.6252
  129OSM    C2S13862   2.819   5.295   6.328  0.1646 -0.1667  0.1054
  129OSM    H2S13863   2.743   5.375   6.336  1.3518  0.8822  1.4021
  129OSM    C3S13864   2.952   5.374   6.328 -0.5410  0.1140  0.1912
  129OSM    H3S13865   3.033   5.298   6.324 -0.2759  0.4391 -0.8391
  129OSM     O313866   2.985   5.444   6.450  0.3590 -0.2198  0.1256
  129OSM    HO313867   2.917   5.424   6.514  0.1416  0.6273  0.1725
  129OSM    C4S13868   2.973   5.462   6.202 -0.5832 -0.2980 -0.2979
  129OSM    H4S13869   2.999   5.413   6.107  1.6973  0.9153 -0.3673
  129OSM    C5S13870   2.960   5.601   6.201 -0.2821  0.7348  0.0521
  129OSM    H5S13871   2.939   5.658   6.293 -1.2026  1.1204 -0.3797
  129OSM    C6S13872   2.978   5.678   6.074  0.4954  0.6837  0.2628
  129OSM    H6S13873   3.022   5.630   5.984 -2.9640  0.0086 -1.2394
  129OSM    H6T13874   3.046   5.762   6.095  0.7601  0.1929  1.5175
  129OSM    C7S13875   2.837   5.730   6.042 -0.5681  0.0256 -0.8465
  129OSM    H7S13876   2.793   5.776   6.133  1.5321 -0.9777  0.7720
  129OSM    H7T13877   2.776   5.640   6.019 -0.8990 -0.0009  0.1000
  129OSM    C8S13878   2.830   5.827   5.922 -0.5596  0.2963 -0.4044
  129OSM    H8S13879   2.890   5.920   5.937 -2.3446  1.3428  0.5531
  129OSM    H8T13880   2.728   5.870   5.912 -1.6288 -1.5757  1.6574
  129OSM    C9S13881   2.876   5.751   5.792  0.1570 -0.1023  0.3827
  129OSM    H9S13882   2.824   5.653   5.788 -0.6688  0.3284  0.3355
  129OSM    H9T13883   2.984   5.725   5.788 -0.3124 -2.0874 -0.3607
  129OSM   C10S13884   2.837   5.827   5.666 -0.6769 -0.5550  0.1384
  129OSM   H10S13885   2.892   5.924   5.662  1.5513 -1.8063 -0.8927
  129OSM   H10T13886   2.728   5.845   5.679 -0.3677  0.6705  1.1794
  129OSM   C11S13887   2.856   5.750   5.535 -0.1271 -0.0821  0.5901
  129OSM   H11S13888   2.819   5.646   5.543 -0.8183 -0.1411 -2.2029
  129OSM   H11T13889   2.959   5.749   5.493 -0.8214 -1.1792 -1.2010
  129OSM   C12S13890   2.778   5.828   5.429  0.1807  0.3193  0.3215
  129OSM   H12S13891   2.817   5.931   5.415  1.1261 -0.1771 -0.7773
  129OSM   H12T13892   2.671   5.837   5.458 -0.0325 -1.6675  0.2692
  129OSM   C13S13893   2.786   5.767   5.284 -1.4494 -0.5973 -0.2902
  129OSM   H13S13894   2.753   5.661   5.297  0.0855 -0.8942  1.6621
  129OSM   H13T13895   2.894   5.786   5.262 -2.1642  0.9437 -2.7860
  129OSM   C14S13896   2.703   5.845   5.179 -0.2690 -0.2507 -0.1337
  129OSM   H14S13897   2.673   5.942   5.224 -0.9902  0.0011 -1.1041
  129OSM   H14T13898   2.606   5.793   5.162 -0.0944 -0.7816  0.4644
  129OSM   C15S13899   2.772   5.874   5.043  0.3814  0.1848 -0.2094
  129OSM   H15S13900   2.802   5.780   4.991  0.0920  0.9101 -1.7574
  129OSM   H15T13901   2.861   5.936   5.065  0.4340  0.4416 -1.1096
  129OSM   C16S13902   2.686   5.961   4.946 -0.1033  0.6599  0.0605
  129OSM   H16S13903   2.687   6.064   4.988  0.1088  1.2062 -1.2136
  129OSM   H16T13904   2.581   5.925   4.937  0.3960 -0.2755 -5.6828
  129OSM   C17S13905   2.742   5.963   4.804  0.0268  0.5521  0.5361
  129OSM   H17S13906   2.845   6.003   4.816 -0.7210  2.8929 -0.2420
  129OSM   H17T13907   2.694   6.038   4.737 -3.6953 -2.6008 -0.7280
  129OSM   C18S13908   2.731   5.829   4.737 -0.2267  0.5728  0.5289
  129OSM   H18S13909   2.822   5.772   4.767 -0.5853  0.2152  0.9673
  129OSM   H18T13910   2.739   5.840   4.627  1.3318  1.8272  0.7367
  129OSM   H18U13911   2.645   5.772   4.780  0.3408  0.1269  1.1096
  129OSM    C1F13912   2.671   5.161   6.185 -0.7851 -0.4025 -0.0697
  129OSM     OF13913   2.575   5.191   6.255 -1.0079 -0.5006 -0.2246
  129OSM    C2F13914   2.670   5.064   6.073  0.1828  0.1239  0.0977
  129OSM    H2F13915   2.586   4.995   6.098 -0.5118  0.8518 -0.1840
  129OSM    H2G13916   2.769   5.017   6.058 -0.6742 -1.5541 -0.7025
  129OSM    C3F13917   2.628   5.127   5.929 -0.8070  0.5056  0.2638
  129OSM    H3F13918   2.714   5.193   5.903  0.1154 -0.7164  0.0710
  129OSM    H3G13919   2.531   5.181   5.931 -1.7826 -1.1733 -0.0284
  129OSM    C4F13920   2.642   5.030   5.813 -0.8622 -0.7840  0.0994
  129OSM    H4F13921   2.539   4.999   5.787 -3.2696  3.7645  3.0162
  129OSM    H4G13922   2.716   4.952   5.843  2.6003  2.2634  0.2308
  129OSM    C5F13923   2.704   5.090   5.685 -0.3545 -0.0933  0.7837
  129OSM    H5F13924   2.794   5.153   5.702 -0.5462  0.2559  0.5111
  129OSM    H5G13925   2.633   5.160   5.636  0.7266  0.1953 -0.4193
  129OSM    C6F13926   2.747   4.984   5.582  0.1255  0.1542 -0.0970
  129OSM    H6F13927   2.825   4.913   5.618  1.9396  0.3890 -3.2519
  129OSM    H6G13928   2.806   5.036   5.504 -0.9287 -0.9609 -1.7108
  129OSM    C7F13929   2.631   4.910   5.514  0.4743 -0.1523 -0.2315
  129OSM    H7F13930   2.574   4.854   5.591 -1.3647 -0.1912 -1.5706
  129OSM    H7G13931   2.671   4.847   5.432  0.9895  0.0098 -0.1137
  129OSM    C8F13932   2.529   5.004   5.449 -1.0481  0.2631  0.1470
  129OSM    H8F13933   2.479   5.051   5.537 -3.8255 -2.3110  0.1237
  129OSM    H8G13934   2.451   4.947   5.394 -1.9943  2.0960 -0.5089
  129OSM    C9F13935   2.600   5.100   5.350 -0.1022  0.3092 -0.4815
  129OSM    H9F13936   2.648   5.180   5.408 -0.4481 -2.2172  3.7653
  129OSM   C10F13937   2.604   5.089   5.217  0.0057  0.0183 -0.8062
  129OSM   H10F13938   2.669   5.162   5.166  0.8603 -1.1390 -1.4251
  129OSM   C11F13939   2.543   4.995   5.125  0.5926  0.5132 -0.0063
  129OSM   H11F13940   2.498   4.918   5.192 -0.5917  0.4716 -0.8339
  129OSM   H11G13941   2.620   4.941   5.065  0.4151 -0.3030  0.4753
  129OSM   C12F13942   2.427   5.047   5.038  0.7114  0.3169  0.2153
  129OSM   H12F13943   2.476   5.118   4.969 -0.9612  1.6256  0.3136
  129OSM   H12G13944   2.353   5.094   5.106 -0.1919 -1.1141  0.2766
  129OSM   C13F13945   2.354   4.941   4.953  0.7364  0.2993  0.5974
  129OSM   H13F13946   2.288   4.889   5.025  0.4135 -0.3047 -0.1240
  129OSM   H13G13947   2.422   4.868   4.906 -0.7935  0.9961 -3.0144
  129OSM   C14F13948   2.284   5.019   4.831  0.0406  0.8590 -0.5744
  129OSM   H14F13949   2.365   5.077   4.781  3.0111 -1.9018  0.6689
  129OSM   H14G13950   2.206   5.088   4.870  0.1453  0.7295 -0.1369
  129OSM   C15F13951   2.211   4.931   4.725 -0.8071 -0.1634 -0.5175
  129OSM   H15F13952   2.164   4.852   4.787 -0.5033  1.6119  2.1452
  129OSM   H15G13953   2.293   4.887   4.665  1.5322  3.7442 -0.5151
  129OSM   C16F13954   2.102   5.011   4.645  0.3750  0.2169 -0.6190
  129OSM   H16F13955   2.049   5.078   4.717  1.2657  1.3584 -1.0069
  129OSM   H16G13956   2.031   4.936   4.603 -0.2470  1.1833 -1.3289
  129OSM   C17F13957   2.158   5.109   4.535 -0.1028 -0.4865 -0.2542
  129OSM   H17F13958   2.200   5.050   4.451  0.4565  0.9166 -0.9917
  129OSM   H17G13959   2.248   5.161   4.575 -0.1092 -1.9192  1.7803
  129OSM   C18F13960   2.040   5.194   4.478 -1.2426  0.6343  0.6847
  129OSM   H18F13961   1.972   5.131   4.417 -0.0315 -1.1807  1.1586
  129OSM   H18G13962   2.079   5.267   4.403 -1.7425 -1.2661 -1.5489
  129OSM   H18H13963   1.986   5.235   4.566 -0.5107  0.6219  1.1475
  130OSM      N13964   2.395   2.565   6.883 -0.3695  0.1920  0.0279
  130OSM    C1513965   2.257   2.605   6.915 -0.4655  0.5345 -0.3507
  130OSM   H15A13966   2.226   2.532   6.988  0.9250 -0.6896 -0.9162
  130OSM   H15B13967   2.187   2.591   6.833 -0.8932 -1.3078  0.2852
  130OSM   H15C13968   2.240   2.701   6.962 -0.0877 -0.0320  0.9862
  130OSM    C1413969   2.396   2.417   6.879 -0.1081 -0.6691  0.2139
  130OSM   H14A13970   2.307   2.380   6.829 -0.4572 -1.2098  1.2153
  130OSM   H14B13971   2.388   2.375   6.978 -1.6231 -1.0513 -0.0402
  130OSM   H14C13972   2.481   2.373   6.829 -0.8796 -2.8101  0.6674
  130OSM    C1313973   2.416   2.620   6.747  0.0446 -0.5081  0.8201
  130OSM   H13A13974   2.522   2.619   6.726 -0.1754  0.3149 -0.4258
  130OSM   H13B13975   2.384   2.722   6.728  0.1898 -0.8759 -1.7695
  130OSM   H13C13976   2.356   2.558   6.683  1.0860 -0.9273  0.2260
  130OSM    C1213977   2.501   2.616   6.976  0.2193  0.0233 -0.3512
  130OSM   H12A13978   2.596   2.566   6.966 -0.1855 -1.2529  1.5624
  130OSM   H12B13979   2.466   2.596   7.077 -1.2503  2.4704 -0.3028
  130OSM    C1113980   2.527   2.771   6.968 -0.0153  0.7460 -0.0276
  130OSM   H11A13981   2.550   2.800   7.072 -0.8696  0.4132  0.2562
  130OSM   H11B13982   2.429   2.819   6.946 -0.7623 -0.3507  0.8654
  130OSM      P13983   2.776   2.776   6.893 -0.2233  0.5663  0.2288
  130OSM    O1313984   2.824   2.893   6.961 -0.0564 -0.3356  0.0178
  130OSM    O1413985   2.785   2.643   6.964 -0.6694  0.5957  0.0570
  130OSM    O1113986   2.840   2.764   6.747 -0.1399 -0.9284  0.3631
  130OSM    O1213987   2.625   2.799   6.866 -0.2081 -0.0171  0.1900
  130OSM    C1S13988   2.789   2.663   6.658  0.3906  0.2492  0.1518
  130OSM    H1S13989   2.698   2.684   6.599  0.3520 -3.7312 -1.4504
  130OSM    H1T13990   2.769   2.570   6.714  1.6033  0.9228  1.8137
  130OSM     NF13991   2.844   2.569   6.430  0.4706  0.1166 -0.0937
  130OSM    HNF13992   2.855   2.470   6.424 -2.0587 -0.5366  3.3130
  130OSM    C2S13993   2.898   2.626   6.550  0.2829  0.1099  0.5646
  130OSM    H2S13994   2.943   2.724   6.521  0.3676  0.2819  1.2627
  130OSM    C3S13995   3.014   2.551   6.613  0.5101 -0.5888  0.2874
  130OSM    H3S13996   2.973   2.448   6.623 -1.2228 -0.3447 -2.9681
  130OSM     O313997   3.057   2.608   6.739  0.5139 -0.1496  0.2897
  130OSM    HO313998   2.990   2.671   6.765  0.4176  0.1441 -0.6226
  130OSM    C4S13999   3.129   2.537   6.522  0.2857 -0.7230  0.4362
  130OSM    H4S14000   3.107   2.457   6.450  0.5674 -1.2385  0.9220
  130OSM    C5S14001   3.234   2.623   6.494 -0.6409 -0.2223  0.2665
  130OSM    H5S14002   3.248   2.710   6.560  0.0530  0.9557 -1.3495
  130OSM    C6S14003   3.339   2.606   6.388  0.0690 -0.2817 -0.1696
  130OSM    H6S14004   3.317   2.670   6.299  0.4882  1.1795  0.7465
  130OSM    H6T14005   3.330   2.503   6.348 -1.0047  0.1128 -0.9980
  130OSM    C7S14006   3.483   2.629   6.440  0.4245  0.4110 -0.4215
  130OSM    H7S14007   3.509   2.569   6.529 -0.5346 -1.5876 -1.4072
  130OSM    H7T14008   3.482   2.734   6.476  0.3501 -0.2545  1.6409
  130OSM    C8S14009   3.583   2.607   6.328 -0.2418  0.3327 -0.0592
  130OSM    H8S14010   3.526   2.624   6.234 -0.2399 -0.9433 -0.3071
  130OSM    H8T14011   3.617   2.501   6.331 -1.6440 -0.1246 -0.0539
  130OSM    C9S14012   3.709   2.689   6.337 -0.4723 -0.5289  0.1998
  130OSM    H9S14013   3.735   2.708   6.443 -2.0424 -0.5748  0.6198
  130OSM    H9T14014   3.697   2.786   6.284  0.1957  1.2552  3.0693
  130OSM   C10S14015   3.835   2.612   6.287  0.0597 -0.4024 -0.9205
  130OSM   H10S14016   3.855   2.532   6.362 -0.6481 -0.1755 -0.4731
  130OSM   H10T14017   3.922   2.677   6.307 -0.4915 -0.4348  2.0950
  130OSM   C11S14018   3.828   2.581   6.137 -0.4244  0.0365 -0.5114
  130OSM   H11S14019   3.818   2.669   6.070  1.9068  1.2318  0.5540
  130OSM   H11T14020   3.736   2.520   6.127  0.2342 -0.9782 -0.4983
  130OSM   C12S14021   3.958   2.520   6.086  0.2423 -0.1711  0.8392
  130OSM   H12S14022   3.987   2.446   6.164  2.0579 -0.2192  0.1610
  130OSM   H12T14023   4.032   2.603   6.086  0.7250 -0.5715 -0.5269
  130OSM   C13S14024   3.957   2.463   5.949 -0.4287 -0.5922 -0.4492
  130OSM   H13S14025   3.866   2.398   5.943 -1.3833  0.7217 -0.5947
  130OSM   H13T14026   4.045   2.399   5.925 -0.8048 -1.1726 -0.3172
  130OSM   C14S14027   3.937   2.571   5.843 -0.2724 -0.0811 -0.1080
  130OSM   H14S14028   4.029   2.635   5.838 -0.8739  1.0444  1.9441
  130OSM   H14T14029   3.845   2.633   5.841  0.9010  1.7332 -0.8843
  130OSM   C15S14030   3.945   2.498   5.706  0.0691  0.3115  0.1582
  130OSM   H15S14031   3.854   2.434   5.710  0.9581 -1.0042  0.3218
  130OSM   H15T14032   4.035   2.432   5.705 -0.4514 -0.4109  0.1177
  130OSM   C16S14033   3.928   2.598   5.586 -0.2837  0.4960 -0.4123
  130OSM   H16S14034   3.847   2.669   5.613  0.8326  1.2689  1.0914
  130OSM   H16T14035   3.879   2.539   5.505 -2.8743 -1.2287  2.1823
  130OSM   C17S14036   4.057   2.669   5.538  0.0998 -0.6231  0.0428
  130OSM   H17S14037   4.138   2.594   5.543  0.7941  0.1206  0.1930
  130OSM   H17T14038   4.078   2.746   5.616  0.8791  1.2017 -1.8730
  130OSM   C18S14039   4.041   2.731   5.399  0.3620  0.3522  0.8500
  130OSM   H18S14040   3.983   2.671   5.327 -0.9686  1.7110  0.7382
  130OSM   H18T14041   4.140   2.745   5.349 -0.7289 -1.7672 -2.1819
  130OSM   H18U14042   3.997   2.833   5.407 -0.1527  0.4482 -2.1587
  130OSM    C1F14043   2.753   2.637   6.361 -0.5497 -0.5933 -0.2140
  130OSM     OF14044   2.732   2.756   6.381 -0.8607 -0.5886  0.2626
  130OSM    C2F14045   2.694   2.564   6.246  0.2809 -0.3791 -0.2438
  130OSM    H2F14046   2.684   2.458   6.275 -0.5136  0.5628  3.4880
  130OSM    H2G14047   2.768   2.561   6.163  1.6629 -2.1459  0.9711
  130OSM    C3F14048   2.560   2.624   6.198  0.3008  0.8074  0.8879
  130OSM    H3F14049   2.581   2.731   6.177  2.3751  0.4544  0.9341
  130OSM    H3G14050   2.481   2.619   6.276  0.8221 -3.2137  1.3552
  130OSM    C4F14051   2.518   2.549   6.072 -0.0612  0.3005 -0.7557
  130OSM    H4F14052   2.477   2.447   6.086 -0.7130  0.6650  0.0845
  130OSM    H4G14053   2.612   2.552   6.013  1.6857  2.0499  1.8750
  130OSM    C5F14054   2.413   2.629   5.988  1.1050 -0.0829 -0.2565
  130OSM    H5F14055   2.439   2.736   5.998  1.2764 -0.0811 -0.6874
  130OSM    H5G14056   2.316   2.605   6.038  0.3091  0.3121 -1.5633
  130OSM    C6F14057   2.399   2.589   5.844 -0.3454 -0.1719 -0.6845
  130OSM    H6F14058   2.354   2.488   5.844 -0.8583  0.0270  1.0333
  130OSM    H6G14059   2.490   2.575   5.781 -0.6031 -4.2801 -0.3956
  130OSM    C7F14060   2.302   2.682   5.764  0.6008  0.5221 -0.8947
  130OSM    H7F14061   2.341   2.786   5.772  1.1905  0.2045  0.7209
  130OSM    H7G14062   2.205   2.679   5.818  0.7087 -0.3627 -0.7310
  130OSM    C8F14063   2.293   2.659   5.617 -0.0367  0.0740 -0.0466
  130OSM    H8F14064   2.222   2.729   5.570 -1.7047 -1.6564 -0.2101
  130OSM    H8G14065   2.239   2.563   5.602  1.9495 -0.8687 -1.8343
  130OSM    C9F14066   2.420   2.649   5.535 -0.7458 -0.8845  0.2630
  130OSM    H9F14067   2.486   2.566   5.561 -0.8141 -0.9060  0.3683
  130OSM   C10F14068   2.458   2.713   5.425  0.5822  0.0280 -0.0837
  130OSM   H10F14069   2.554   2.682   5.381  0.0413 -0.0811 -1.2081
  130OSM   C11F14070   2.371   2.804   5.343  0.5594  0.3135 -0.7418
  130OSM   H11F14071   2.417   2.905   5.342  0.4493  0.3688 -0.4832
  130OSM   H11G14072   2.277   2.831   5.397  0.3394  0.3842 -1.1531
  130OSM   C12F14073   2.343   2.741   5.202 -0.7258 -0.4461  0.6824
  130OSM   H12F14074   2.296   2.642   5.214 -0.6110 -0.4725  0.9250
  130OSM   H12G14075   2.443   2.719   5.159 -0.2361 -0.0311  1.5604
  130OSM   C13F14076   2.264   2.839   5.116  0.7575 -0.1413  0.7141
  130OSM   H13F14077   2.276   2.807   5.011 -1.6012  0.8612  0.0836
  130OSM   H13G14078   2.279   2.949   5.122 -2.3081  0.4433 -0.5348
  130OSM   C14F14079   2.111   2.828   5.124  0.2511  0.3545 -0.5442
  130OSM   H14F14080   2.083   2.874   5.222 -0.2043  1.1964 -1.0592
  130OSM   H14G14081   2.079   2.722   5.122 -1.0249  0.7377 -2.0465
  130OSM   C15F14082   2.031   2.892   5.007 -0.0422  0.2614 -0.1405
  130OSM   H15F14083   2.071   2.992   4.980 -0.5512  0.4082 -0.3520
  130OSM   H15G14084   1.931   2.922   5.044  0.4853  0.7361  0.9603
  130OSM   C16F14085   2.022   2.801   4.891  0.2606  0.7300  0.6044
  130OSM   H16F14086   1.997   2.700   4.929  0.3444  1.1292  1.7480
  130OSM   H16G14087   2.124   2.802   4.846  0.0392  1.7219  0.1144
  130OSM   C17F14088   1.926   2.844   4.776 -0.1351  0.7978 -0.1784
  130OSM   H17F14089   1.938   2.948   4.740  1.1723  1.0833  1.0226
  130OSM   H17G14090   1.822   2.846   4.814 -0.5055 -1.7865 -0.8470
  130OSM   C18F14091   1.932   2.745   4.661 -0.0274 -0.2305 -0.0592
  130OSM   H18F14092   1.892   2.796   4.571 -1.1222 -1.8183 -0.5131
  130OSM   H18G14093   1.881   2.647   4.671  0.9885 -0.7846 -0.1035
  130OSM   H18H14094   2.038   2.715   4.642  0.4064 -0.4580  2.4006
  131OSM      N14095   3.728   4.355   6.650  0.2090 -0.2719  0.4784
  131OSM    C1514096   3.832   4.288   6.733 -0.2151  0.9294 -0.5361
  131OSM   H15A14097   3.800   4.261   6.832  0.4470  0.8361 -0.3442
  131OSM   H15B14098   3.919   4.350   6.749  0.5322 -0.2483  0.1204
  131OSM   H15C14099   3.859   4.195   6.685 -0.2412  0.7567 -0.2173
  131OSM    C1414100   3.615   4.250   6.637  0.5180 -0.3637 -0.2538
  131OSM   H14A14101   3.532   4.300   6.590 -1.5025 -1.3441  2.0749
  131OSM   H14B14102   3.585   4.208   6.732 -0.6822  0.1274 -0.4028
  131OSM   H14C14103   3.648   4.172   6.570 -0.6746 -3.0820  2.1337
  131OSM    C1314104   3.676   4.475   6.724 -1.1103 -0.6652  1.3338
  131OSM   H13A14105   3.598   4.532   6.675  0.7877  0.1144 -0.9572
  131OSM   H13B14106   3.756   4.546   6.741 -1.3732  0.1064 -0.4219
  131OSM   H13C14107   3.640   4.456   6.824 -1.3455 -3.8623  0.7385
  131OSM    C1214108   3.777   4.381   6.513 -0.6523  0.7731 -0.3864
  131OSM   H12A14109   3.820   4.287   6.480 -2.3320 -0.3886  0.5910
  131OSM   H12B14110   3.855   4.455   6.522  0.1477 -0.2676  2.5638
  131OSM    C1114111   3.674   4.429   6.415  0.0952 -0.5685 -0.3416
  131OSM   H11A14112   3.583   4.366   6.407 -0.2837  0.1786 -2.8216
  131OSM   H11B14113   3.714   4.440   6.312  0.0666  1.0099 -0.2050
  131OSM      P14114   3.739   4.687   6.433  0.3234 -0.3045 -0.1378
  131OSM    O1314115   3.689   4.821   6.469 -0.4331  0.2021 -0.6326
  131OSM    O1414116   3.866   4.639   6.496 -0.1940  0.8731 -0.5588
  131OSM    O1114117   3.764   4.710   6.280  0.1770 -0.1003  0.3073
  131OSM    O1214118   3.634   4.567   6.451 -0.3051 -0.0454 -0.1226
  131OSM    C1S14119   3.668   4.711   6.181 -0.3398  0.4892  0.0511
  131OSM    H1S14120   3.620   4.811   6.190 -0.8734  0.2890 -0.4436
  131OSM    H1T14121   3.585   4.639   6.200 -0.4017  0.7394  0.7603
  131OSM     NF14122   3.609   4.702   5.938  0.3189 -0.1149 -0.8782
  131OSM    HNF14123   3.580   4.612   5.908 -1.9299 -1.1514  3.4811
  131OSM    C2S14124   3.716   4.686   6.033 -0.4522  0.1881  0.1949
  131OSM    H2S14125   3.803   4.751   6.009  1.2362 -2.4687 -1.4754
  131OSM    C3S14126   3.792   4.552   6.020  0.6884  0.3637  0.2365
  131OSM    H3S14127   3.721   4.467   6.024 -0.0743  0.9757  0.0594
  131OSM     O314128   3.879   4.530   6.131 -0.0298  0.1241 -0.3764
  131OSM    HO314129   3.858   4.599   6.194  0.8927  1.2339 -1.2378
  131OSM    C4S14130   3.855   4.514   5.888  0.9639 -0.2155 -0.4139
  131OSM    H4S14131   3.779   4.476   5.819 -0.4678  0.9890  0.4408
  131OSM    C5S14132   3.985   4.535   5.855  0.2475  0.3426 -0.6021
  131OSM    H5S14133   4.049   4.577   5.934  0.7306 -1.0044 -0.2546
  131OSM    C6S14134   4.061   4.490   5.730  0.0275  0.4127 -0.0763
  131OSM    H6S14135   4.168   4.468   5.744  0.2714 -0.2946 -2.4980
  131OSM    H6T14136   4.055   4.586   5.674 -0.0381 -0.3834 -1.4983
  131OSM    C7S14137   4.004   4.374   5.646  0.4201  0.0682 -0.1903
  131OSM    H7S14138   3.917   4.322   5.691  0.7629 -0.6767 -0.3756
  131OSM    H7T14139   4.081   4.300   5.616  0.6217  0.2710 -0.1843
  131OSM    C8S14140   3.956   4.437   5.513 -0.3382  0.5249  0.4098
  131OSM    H8S14141   4.035   4.514   5.493  0.8527 -0.5044  0.9896
  131OSM    H8T14142   3.862   4.494   5.501 -0.6066 -0.0197 -0.0482
  131OSM    C9S14143   3.954   4.330   5.400 -0.0403  0.2644 -0.7700
  131OSM    H9S14144   3.867   4.267   5.427 -0.5355 -0.1734 -3.1588
  131OSM    H9T14145   4.051   4.276   5.409  0.7957  1.6157 -1.2906
  131OSM   C10S14146   3.926   4.385   5.262 -0.3254  0.3089  0.7557
  131OSM   H10S14147   4.010   4.450   5.228  1.1958 -0.1728  3.3395
  131OSM   H10T14148   3.837   4.452   5.263 -0.5827  0.1870 -2.6987
  131OSM   C11S14149   3.908   4.268   5.162 -0.0215  0.0709 -0.0988
  131OSM   H11S14150   3.812   4.218   5.189  1.2863 -2.6081 -0.0763
  131OSM   H11T14151   3.973   4.181   5.186 -0.3408  0.0442  0.7162
  131OSM   C12S14152   3.927   4.308   5.001 -0.0190 -0.4399 -1.0852
  131OSM   H12S14153   4.028   4.353   4.995 -1.1045  2.9757  2.1782
  131OSM   H12T14154   3.874   4.405   4.991 -0.7571 -0.7334 -0.2025
  131OSM   C13S14155   3.888   4.199   4.901 -0.0260 -0.0886 -0.5940
  131OSM   H13S14156   3.787   4.171   4.940 -0.5256  0.5351 -1.4054
  131OSM   H13T14157   3.951   4.108   4.897 -0.3083 -0.2898 -0.5494
  131OSM   C14S14158   3.876   4.260   4.764  0.3449 -0.0786 -0.3638
  131OSM   H14S14159   3.947   4.345   4.751 -0.0286  0.3099  0.1221
  131OSM   H14T14160   3.776   4.308   4.756  0.4745  0.3390  0.4199
  131OSM   C15S14161   3.893   4.157   4.653 -0.3278  0.5760  0.0670
  131OSM   H15S14162   3.971   4.083   4.680 -0.5104  0.4013  0.1229
  131OSM   H15T14163   3.929   4.207   4.560  2.4440 -1.3066 -0.0117
  131OSM   C16S14164   3.765   4.064   4.650  0.9948 -0.1660  0.9684
  131OSM   H16S14165   3.676   4.125   4.621 -0.5245 -2.0134  1.6027
  131OSM   H16T14166   3.764   4.038   4.757  0.8472  2.8116  1.7915
  131OSM   C17S14167   3.776   3.943   4.562  0.2343 -0.3424  0.0517
  131OSM   H17S14168   3.813   3.967   4.460  0.7978 -0.6078  0.1882
  131OSM   H17T14169   3.675   3.900   4.547 -0.0505  0.9969 -2.3079
  131OSM   C18S14170   3.864   3.832   4.626 -0.6024 -0.1935 -0.3537
  131OSM   H18S14171   3.873   3.754   4.548 -1.2147  1.0178 -1.6895
  131OSM   H18T14172   3.811   3.773   4.704 -2.8570  1.9177 -0.1738
  131OSM   H18U14173   3.963   3.860   4.668 -1.5376  1.9662  0.5463
  131OSM    C1F14174   3.548   4.817   5.924  0.2346  0.1002  0.6533
  131OSM     OF14175   3.587   4.913   5.986 -0.2673  0.3427  1.2000
  131OSM    C2F14176   3.434   4.818   5.839  0.0357  0.0224  0.4911
  131OSM    H2F14177   3.365   4.738   5.874 -2.0291  1.4237 -0.1774
  131OSM    H2G14178   3.463   4.801   5.733  1.9664  0.8735  0.8429
  131OSM    C3F14179   3.353   4.950   5.857  0.0971  0.2009 -0.1372
  131OSM    H3F14180   3.424   5.030   5.828 -0.8472  0.2589 -2.5492
  131OSM    H3G14181   3.322   4.956   5.963  0.0094  0.2790 -0.1674
  131OSM    C4F14182   3.226   4.950   5.776  0.1692  0.1823 -0.0148
  131OSM    H4F14183   3.152   5.023   5.814 -0.7849 -1.4620  1.4494
  131OSM    H4G14184   3.171   4.853   5.774 -0.9573  0.8146 -0.5963
  131OSM    C5F14185   3.245   4.975   5.629 -0.3283  0.0418  0.0873
  131OSM    H5F14186   3.328   4.915   5.588 -0.6295 -0.0865 -0.3425
  131OSM    H5G14187   3.278   5.081   5.621  0.9751 -0.3262  0.3616
  131OSM    C6F14188   3.119   4.958   5.545 -0.2152 -0.8191 -0.1511
  131OSM    H6F14189   3.038   5.031   5.564 -2.3082 -3.0209 -0.2312
  131OSM    H6G14190   3.076   4.861   5.576  0.4575 -1.1449 -0.2090
  131OSM    C7F14191   3.152   4.960   5.399 -0.6675  1.1698  0.2718
  131OSM    H7F14192   3.240   4.895   5.384 -1.9081  0.0169 -2.9539
  131OSM    H7G14193   3.192   5.059   5.367  1.5652  0.5140  0.8551
  131OSM    C8F14194   3.042   4.900   5.304 -0.5631  1.2859 -0.2103
  131OSM    H8F14195   2.972   4.977   5.263 -0.0682  1.1840 -1.2676
  131OSM    H8G14196   2.979   4.834   5.367  0.7109  0.2068 -0.0292
  131OSM    C9F14197   3.072   4.811   5.186  0.3581 -0.1881 -0.0942
  131OSM    H9F14198   3.097   4.706   5.208  0.6584 -0.2710 -0.7894
  131OSM   C10F14199   3.061   4.840   5.057 -0.3260 -0.0256  0.2976
  131OSM   H10F14200   3.083   4.754   4.992  0.9194  0.6095 -0.1582
  131OSM   C11F14201   3.014   4.965   4.996 -0.0846  0.1156 -0.0234
  131OSM   H11F14202   3.103   5.017   4.955 -1.2772  1.1966 -1.3870
  131OSM   H11G14203   2.969   5.032   5.072 -2.4164 -1.5816  0.1984
  131OSM   C12F14204   2.907   4.945   4.878  0.1561  0.6283  0.4730
  131OSM   H12F14205   2.836   4.871   4.920  2.4884 -2.3161 -0.3809
  131OSM   H12G14206   2.946   4.895   4.787  0.0969 -0.2307  0.9066
  131OSM   C13F14207   2.830   5.068   4.844  0.4072 -0.0226 -0.0338
  131OSM   H13F14208   2.892   5.141   4.788  0.4651  2.3262  2.8511
  131OSM   H13G14209   2.820   5.131   4.934  0.3055 -0.1520  0.0468
  131OSM   C14F14210   2.694   5.040   4.779  0.3747  0.0549 -0.2670
  131OSM   H14F14211   2.638   5.136   4.775 -1.4445 -0.9495  0.0125
  131OSM   H14G14212   2.629   4.972   4.837  0.1848 -0.5944 -1.2298
  131OSM   C15F14213   2.716   4.990   4.635 -0.2007  0.4725  0.0331
  131OSM   H15F14214   2.788   4.907   4.624 -0.8669 -0.0426 -0.5436
  131OSM   H15G14215   2.757   5.082   4.588 -2.8432  1.6505 -0.1857
  131OSM   C16F14216   2.582   4.945   4.579 -0.1198  0.2180 -0.7683
  131OSM   H16F14217   2.506   5.026   4.587 -1.5056 -1.0092 -1.0465
  131OSM   H16G14218   2.543   4.858   4.636 -0.4890  0.0861 -1.2166
  131OSM   C17F14219   2.593   4.878   4.446  0.0757 -0.0330 -0.0311
  131OSM   H17F14220   2.663   4.792   4.438 -0.4850 -0.4404 -0.6986
  131OSM   H17G14221   2.627   4.943   4.362 -0.2650 -0.2841 -0.3662
  131OSM   C18F14222   2.453   4.832   4.405 -0.2590 -0.5861 -0.2610
  131OSM   H18F14223   2.456   4.782   4.306 -0.1589 -3.0525  0.9160
  131OSM   H18G14224   2.390   4.923   4.412 -0.8182 -1.0374  0.6706
  131OSM   H18H14225   2.400   4.759   4.469 -2.0453 -0.2620 -1.3163
  132OSM      N14226   4.056   1.000   6.891  0.5933  1.0165 -0.1919
  132OSM    C1514227   3.938   1.088   6.902 -1.0397 -0.0029 -0.1727
  132OSM   H15A14228   3.882   1.091   6.810  0.8721 -0.5243 -1.4100
  132OSM   H15B14229   3.954   1.181   6.955 -1.3893 -0.5374  0.9026
  132OSM   H15C14230   3.866   1.040   6.967  2.0545 -1.6166  2.3359
  132OSM    C1414231   4.118   0.980   7.029 -0.2835 -0.2479  0.1622
  132OSM   H14A14232   4.203   0.914   7.025  0.9272  1.3363 -0.9681
  132OSM   H14B14233   4.050   0.946   7.106  1.4306  0.5148  2.1007
  132OSM   H14C14234   4.156   1.080   7.046  0.5150 -0.4361 -0.4523
  132OSM    C1314235   4.019   0.862   6.837 -0.0509  0.2079 -0.7542
  132OSM   H13A14236   3.953   0.861   6.751 -0.2147 -0.6876 -0.6253
  132OSM   H13B14237   3.958   0.811   6.910  0.6189 -1.2828 -1.1982
  132OSM   H13C14238   4.114   0.814   6.820  0.2576  0.4035  0.3834
  132OSM    C1214239   4.152   1.073   6.799 -0.1668 -0.7038 -0.0259
  132OSM   H12A14240   4.096   1.123   6.721 -0.6360 -0.0982  0.6803
  132OSM   H12B14241   4.227   1.012   6.750 -0.4903 -0.5309 -0.7616
  132OSM    C1114242   4.215   1.211   6.858  0.5881  0.4928 -0.0372
  132OSM   H11A14243   4.300   1.237   6.791  1.0126 -2.9496 -1.0427
  132OSM   H11B14244   4.270   1.180   6.950  1.1307 -0.7155 -0.7347
  132OSM      P14245   4.097   1.414   6.779 -0.0767  0.2236  0.3712
  132OSM    O1314246   3.969   1.488   6.779 -0.2922  0.0518 -0.3943
  132OSM    O1414247   4.220   1.496   6.782 -0.1117  0.0029  0.0803
  132OSM    O1114248   4.098   1.325   6.643  0.2059  0.0583  0.3477
  132OSM    O1214249   4.115   1.303   6.888  0.1064 -0.0338  0.5449
  132OSM    C1S14250   3.979   1.294   6.575 -0.3295 -0.5017  0.6394
  132OSM    H1S14251   3.916   1.385   6.579  0.6006  0.1449  1.0310
  132OSM    H1T14252   3.923   1.210   6.623 -0.8587 -0.9862 -0.7814
  132OSM     NF14253   3.872   1.240   6.358  0.2779 -0.2161  0.2793
  132OSM    HNF14254   3.845   1.147   6.337  0.3297  0.1706 -1.7404
  132OSM    C2S14255   4.001   1.256   6.422 -0.3314 -0.2940 -0.2871
  132OSM    H2S14256   4.049   1.347   6.380 -0.9650  1.4612  2.4606
  132OSM    C3S14257   4.096   1.130   6.409 -0.5937 -0.0664 -0.0160
  132OSM    H3S14258   4.055   1.037   6.453  1.3582 -1.5218 -1.1446
  132OSM     O314259   4.220   1.132   6.479  0.1963 -0.0834  0.8952
  132OSM    HO314260   4.220   1.220   6.518 -0.7037 -0.0622  0.8839
  132OSM    C4S14261   4.122   1.099   6.267 -0.2369  0.3149  0.0589
  132OSM    H4S14262   4.151   1.189   6.210 -1.6089  0.8316  0.1310
  132OSM    C5S14263   4.125   0.982   6.205 -0.2592  0.3408 -0.4143
  132OSM    H5S14264   4.102   0.893   6.266  0.1509  0.0811 -0.6395
  132OSM    C6S14265   4.151   0.964   6.055  1.1016 -0.7569 -0.4986
  132OSM    H6S14266   4.221   0.880   6.040  1.3953 -1.1584  2.6089
  132OSM    H6T14267   4.193   1.058   6.012  0.7720 -0.0560  0.6463
  132OSM    C7S14268   4.024   0.934   5.984  0.0431 -1.0404 -0.4827
  132OSM    H7S14269   3.946   1.012   5.994  0.3113 -0.6069 -1.5762
  132OSM    H7T14270   3.982   0.842   6.029  0.0725 -1.0149 -0.4040
  132OSM    C8S14271   4.038   0.925   5.832 -0.2458 -0.4090 -0.3882
  132OSM    H8S14272   4.106   0.839   5.815 -0.6514 -1.0971  1.2590
  132OSM    H8T14273   4.084   1.011   5.778  0.9930 -1.1570 -0.5645
  132OSM    C9S14274   3.906   0.878   5.764  0.2357  0.4909  0.1455
  132OSM    H9S14275   3.826   0.950   5.793 -0.7899 -0.2903 -0.6683
  132OSM    H9T14276   3.890   0.778   5.810  0.1404  1.3027  1.9790
  132OSM   C10S14277   3.912   0.865   5.617 -0.1994  0.3992  0.2171
  132OSM   H10S14278   4.002   0.806   5.590 -1.3633 -1.2974 -0.1401
  132OSM   H10T14279   3.912   0.963   5.564 -0.2212  0.6359  0.6478
  132OSM   C11S14280   3.779   0.804   5.551 -0.9021  0.0773  0.6423
  132OSM   H11S14281   3.699   0.874   5.584 -0.5172  1.0202 -0.3669
  132OSM   H11T14282   3.768   0.698   5.580 -0.5193 -0.2522 -0.3758
  132OSM   C12S14283   3.801   0.787   5.398  0.2070 -0.3565  1.1472
  132OSM   H12S14284   3.904   0.757   5.369 -0.0771  1.2060 -1.9704
  132OSM   H12T14285   3.794   0.889   5.354  0.8953 -1.3407 -1.4677
  132OSM   C13S14286   3.691   0.697   5.335 -0.3081  0.7280 -0.1389
  132OSM   H13S14287   3.608   0.767   5.311  0.9709  2.1619 -0.5628
  132OSM   H13T14288   3.659   0.625   5.414  2.3560 -0.6629 -0.1985
  132OSM   C14S14289   3.734   0.628   5.209  1.0639  0.4834 -0.0779
  132OSM   H14S14290   3.826   0.569   5.230  0.9602  0.7354  1.1559
  132OSM   H14T14291   3.746   0.700   5.125 -0.5085  0.3099 -0.4773
  132OSM   C15S14292   3.621   0.528   5.163 -0.1165  0.5257  1.1295
  132OSM   H15S14293   3.531   0.592   5.148 -0.1903 -0.0705 -1.3898
  132OSM   H15T14294   3.596   0.463   5.250  0.9269 -0.3742  0.7718
  132OSM   C16S14295   3.660   0.437   5.040 -0.2366 -0.0874 -0.2486
  132OSM   H16S14296   3.593   0.349   5.036  2.0642 -1.8884 -1.3983
  132OSM   H16T14297   3.759   0.391   5.061 -0.4167 -0.7822 -0.8767
  132OSM   C17S14298   3.660   0.515   4.909  0.6145 -0.0141 -0.3396
  132OSM   H17S14299   3.728   0.602   4.926  2.6343 -1.6950  0.5612
  132OSM   H17T14300   3.557   0.553   4.892  0.1730 -0.4458  1.1831
  132OSM   C18S14301   3.701   0.430   4.795 -0.0338  0.2248  0.6250
  132OSM   H18S14302   3.635   0.341   4.790 -1.0130  0.9557  0.1857
  132OSM   H18T14303   3.803   0.390   4.812  0.2251  0.2401 -0.8136
  132OSM   H18U14304   3.694   0.482   4.698 -1.1545 -2.7310 -1.0096
  132OSM    C1F14305   3.779   1.335   6.351 -0.9649 -0.5638 -0.4993
  132OSM     OF14306   3.817   1.449   6.376 -0.0960 -0.3164  0.3157
  132OSM    C2F14307   3.639   1.300   6.322  0.4091 -0.2928  0.1716
  132OSM    H2F14308   3.587   1.339   6.412  0.9374 -0.3851  0.5204
  132OSM    H2G14309   3.619   1.190   6.324  2.7482 -0.7741 -0.2298
  132OSM    C3F14310   3.566   1.352   6.198 -0.2741  0.1531  0.0718
  132OSM    H3F14311   3.600   1.455   6.174 -0.7852 -0.0800 -1.7964
  132OSM    H3G14312   3.455   1.349   6.203 -0.2702 -1.5005 -0.3274
  132OSM    C4F14313   3.607   1.281   6.065 -0.5750 -0.0594 -0.5494
  132OSM    H4F14314   3.583   1.174   6.085  2.0809 -0.4404  1.0911
  132OSM    H4G14315   3.717   1.289   6.053 -0.7292  0.0311 -2.0046
  132OSM    C5F14316   3.529   1.311   5.930 -0.5519 -0.4758 -0.2177
  132OSM    H5F14317   3.541   1.419   5.906  0.7817 -1.1417 -2.9672
  132OSM    H5G14318   3.420   1.296   5.941 -0.6952  1.1188  1.0258
  132OSM    C6F14319   3.584   1.248   5.801  0.0151  0.6208  1.1017
  132OSM    H6F14320   3.618   1.143   5.814  1.2753  0.5382 -2.1682
  132OSM    H6G14321   3.682   1.296   5.781  2.0733 -3.5483  0.0993
  132OSM    C7F14322   3.486   1.253   5.680 -0.3859  0.8018 -0.7443
  132OSM    H7F14323   3.474   1.360   5.653 -0.0290  1.3552  1.1308
  132OSM    H7G14324   3.394   1.205   5.719 -0.3643  1.0746 -0.3560
  132OSM    C8F14325   3.531   1.178   5.553  0.3003  0.6824 -0.2433
  132OSM    H8F14326   3.447   1.177   5.481 -0.9994  1.0398  1.2188
  132OSM    H8G14327   3.548   1.072   5.582  1.7434  0.9500  0.0012
  132OSM    C9F14328   3.658   1.229   5.488  0.4004 -0.1301  0.3428
  132OSM    H9F14329   3.750   1.176   5.515  1.0162 -0.5796 -2.3347
  132OSM   C10F14330   3.662   1.316   5.382  1.0128 -0.2956  0.2634
  132OSM   H10F14331   3.760   1.334   5.336  0.8305  1.2501  0.4464
  132OSM   C11F14332   3.539   1.382   5.320 -0.0623  0.3688  0.3689
  132OSM   H11F14333   3.555   1.492   5.318 -0.8679  0.4876 -1.0026
  132OSM   H11G14334   3.454   1.364   5.389  0.8690 -2.7247  0.8589
  132OSM   C12F14335   3.490   1.337   5.176 -0.4702  0.0616 -0.7988
  132OSM   H12F14336   3.487   1.227   5.164 -0.7714 -0.2200  1.4142
  132OSM   H12G14337   3.557   1.381   5.099  0.7885  1.7359  1.1601
  132OSM   C13F14338   3.345   1.397   5.149  0.9417 -0.5177  0.3235
  132OSM   H13F14339   3.350   1.507   5.163  1.2228  0.1242 -3.7607
  132OSM   H13G14340   3.269   1.361   5.222  1.5403 -0.0139  1.2108
  132OSM   C14F14341   3.310   1.382   4.997 -0.6487 -0.5086  0.0335
  132OSM   H14F14342   3.202   1.375   4.975 -0.7434 -0.7254  0.5645
  132OSM   H14G14343   3.357   1.298   4.941 -1.4256  0.9949 -3.0609
  132OSM   C15F14344   3.343   1.510   4.927 -0.5327 -0.5110 -0.3264
  132OSM   H15F14345   3.447   1.547   4.939 -1.6855  2.7041  1.0920
  132OSM   H15G14346   3.283   1.587   4.981 -0.7487 -0.4719 -0.6168
  132OSM   C16F14347   3.315   1.497   4.772 -0.2607 -0.7794  0.0413
  132OSM   H16F14348   3.213   1.458   4.754 -1.1401  1.6109 -0.6260
  132OSM   H16G14349   3.393   1.431   4.729 -0.2346 -0.6922 -0.0461
  132OSM   C17F14350   3.311   1.631   4.691 -0.4626  0.1525 -0.6021
  132OSM   H17F14351   3.223   1.690   4.724 -1.4150 -0.9577 -1.0922
  132OSM   H17G14352   3.293   1.597   4.587  0.5676  0.7211 -0.9877
  132OSM   C18F14353   3.440   1.709   4.708 -0.0732  0.0840  0.1638
  132OSM   H18F14354   3.527   1.648   4.677  1.8832  2.6264  0.3373
  132OSM   H18G14355   3.449   1.741   4.814 -2.8904  2.2678 -0.1169
  132OSM   H18H14356   3.432   1.800   4.644  3.3885  1.0823  0.9622
  133OSM      N14357   2.384   5.866   7.090 -0.3420 -0.7675 -0.2904
  133OSM    C1514358   2.498   5.889   7.182  0.6156  0.0543 -0.2238
  133OSM   H15A14359   2.546   5.796   7.209  1.0398 -0.4211 -2.3665
  133OSM   H15B14360   2.464   5.938   7.272  1.2396 -2.1255  1.2688
  133OSM   H15C14361   2.577   5.935   7.125  1.4387  0.7241  1.3927
  133OSM    C1414362   2.302   5.763   7.149 -0.6141 -0.2083 -0.2246
  133OSM   H14A14363   2.366   5.680   7.177 -1.2408 -0.5025  0.3746
  133OSM   H14B14364   2.224   5.736   7.079  1.4751  0.6975 -3.0419
  133OSM   H14C14365   2.253   5.792   7.241  1.0301 -4.6781  2.4438
  133OSM    C1314366   2.301   5.989   7.084 -0.0001 -0.0111  0.1636
  133OSM   H13A14367   2.229   5.986   7.003 -1.5896 -1.1974  1.5540
  133OSM   H13B14368   2.356   6.075   7.049 -0.4574  0.3583  0.3578
  133OSM   H13C14369   2.257   6.011   7.179 -1.4935 -2.2275  0.0714
  133OSM    C1214370   2.436   5.831   6.954 -0.0830  0.8681  0.4072
  133OSM   H12A14371   2.347   5.816   6.893  0.9264  2.1847 -1.4826
  133OSM   H12B14372   2.478   5.731   6.954 -0.9420  0.4598 -1.0616
  133OSM    C1114373   2.534   5.927   6.889 -0.0524  0.0857  0.5404
  133OSM   H11A14374   2.492   6.029   6.900  0.5952  0.2860  1.2350
  133OSM   H11B14375   2.528   5.913   6.779 -2.7675  2.2039  0.3181
  133OSM      P14376   2.773   5.819   6.911  0.5970  0.2039  0.0906
  133OSM    O1314377   2.903   5.883   6.933  0.4670 -0.6642 -0.0381
  133OSM    O1414378   2.753   5.694   6.990  0.0777  0.7407  0.1049
  133OSM    O1114379   2.749   5.782   6.758  0.1800  1.2875 -0.0848
  133OSM    O1214380   2.667   5.930   6.945 -0.2925 -0.1824 -0.0764
  133OSM    C1S14381   2.776   5.876   6.654 -0.3280 -0.1232  0.5099
  133OSM    H1S14382   2.885   5.883   6.633  0.1334 -0.8399  2.4376
  133OSM    H1T14383   2.728   5.976   6.658 -1.5976 -0.5873 -1.4946
  133OSM     NF14384   2.765   5.906   6.414  0.1652 -0.3086 -0.3734
  133OSM    HNF14385   2.692   5.964   6.380  0.6632  0.6003  0.0724
  133OSM    C2S14386   2.728   5.813   6.520 -0.0851 -0.0602  0.4336
  133OSM    H2S14387   2.793   5.723   6.508  2.1099  1.4318  0.5617
  133OSM    C3S14388   2.585   5.751   6.511 -0.1046  0.2236 -0.4236
  133OSM    H3S14389   2.508   5.829   6.527 -0.2497  0.1629 -0.8153
  133OSM     O314390   2.576   5.650   6.609 -0.4871 -0.5959 -1.0908
  133OSM    HO314391   2.634   5.664   6.684 -0.3936  2.4312 -1.6004
  133OSM    C4S14392   2.550   5.681   6.379  0.8022 -0.1414  0.2686
  133OSM    H4S14393   2.565   5.750   6.295  0.6478  0.6492  0.8802
  133OSM    C5S14394   2.478   5.566   6.359 -0.2148  0.6156 -0.1710
  133OSM    H5S14395   2.438   5.517   6.449 -1.1083  1.9448  0.1989
  133OSM    C6S14396   2.431   5.517   6.228  0.2983 -0.3813 -0.3405
  133OSM    H6S14397   2.320   5.519   6.234  0.3767  1.3546  3.1314
  133OSM    H6T14398   2.460   5.410   6.232  1.5895 -0.0646 -0.7795
  133OSM    C7S14399   2.492   5.577   6.101 -0.2864  0.2984 -0.0373
  133OSM    H7S14400   2.602   5.581   6.108 -0.4106  0.8125  4.6113
  133OSM    H7T14401   2.448   5.678   6.087 -0.2801  0.5003  1.2505
  133OSM    C8S14402   2.446   5.493   5.981  0.3337  0.1717  0.0038
  133OSM    H8S14403   2.335   5.497   5.975  0.2911 -0.1410  0.4956
  133OSM    H8T14404   2.459   5.384   5.996 -2.0196 -0.5825 -2.5517
  133OSM    C9S14405   2.511   5.530   5.846  0.2429  0.7704  0.1056
  133OSM    H9S14406   2.607   5.474   5.842 -0.6478 -0.8370  0.2783
  133OSM    H9T14407   2.542   5.637   5.850 -0.3807  0.9176  2.0152
  133OSM   C10S14408   2.429   5.497   5.720  0.5077 -0.0251 -0.5206
  133OSM   H10S14409   2.329   5.545   5.726  1.1003  1.0624  1.4497
  133OSM   H10T14410   2.410   5.387   5.720  0.4476 -0.0401 -2.4460
  133OSM   C11S14411   2.512   5.526   5.595  0.0449  0.2701  0.4688
  133OSM   H11S14412   2.614   5.483   5.598 -0.5545 -1.2513  0.3635
  133OSM   H11T14413   2.535   5.634   5.582 -0.0043  0.4428  1.6774
  133OSM   C12S14414   2.453   5.461   5.472 -0.0977  0.2415 -0.5506
  133OSM   H12S14415   2.342   5.469   5.477 -0.1054 -0.2875  0.5690
  133OSM   H12T14416   2.477   5.353   5.477 -1.6743 -0.1072  0.2853
  133OSM   C13S14417   2.495   5.529   5.343 -0.2275  0.4076  0.1531
  133OSM   H13S14418   2.602   5.508   5.325 -0.6145 -1.8992  0.2441
  133OSM   H13T14419   2.478   5.638   5.352 -0.0846  0.3538  1.0963
  133OSM   C14S14420   2.407   5.464   5.238  0.1075  0.0918  0.1494
  133OSM   H14S14421   2.305   5.507   5.251  0.8121  1.7939  0.1924
  133OSM   H14T14422   2.402   5.353   5.250  0.2565 -0.0760 -1.2089
  133OSM   C15S14423   2.463   5.497   5.101 -0.1047  0.2875  0.2265
  133OSM   H15S14424   2.567   5.460   5.097 -0.2538 -0.0248 -1.0268
  133OSM   H15T14425   2.467   5.607   5.083  2.1884  0.1073 -0.6180
  133OSM   C16S14426   2.403   5.438   4.973 -0.7438  0.7068  0.1702
  133OSM   H16S14427   2.329   5.514   4.939 -0.8180  2.3343  3.5473
  133OSM   H16T14428   2.351   5.342   4.992  0.8699 -0.4028 -0.7079
  133OSM   C17S14429   2.495   5.414   4.852 -0.1975  0.4195 -0.2748
  133OSM   H17S14430   2.558   5.325   4.875  0.5000  0.7213 -0.9389
  133OSM   H17T14431   2.556   5.508   4.848 -0.2376  0.4335 -0.5969
  133OSM   C18S14432   2.431   5.387   4.710  0.3526 -0.3982  0.6565
  133OSM   H18S14433   2.376   5.291   4.722  0.5966 -0.5538  0.5646
  133OSM   H18T14434   2.501   5.366   4.626 -0.6072 -0.8167 -0.0586
  133OSM   H18U14435   2.355   5.464   4.685 -0.9825 -1.8338  0.1352
  133OSM    C1F14436   2.892   5.937   6.380  1.1323  0.2708 -0.5215
  133OSM     OF14437   2.982   5.862   6.403 -0.2625 -0.2620  0.4666
  133OSM    C2F14438   2.905   6.076   6.321  0.8040  0.4468 -0.2512
  133OSM    H2F14439   3.009   6.108   6.340  1.1287  0.2818 -1.6448
  133OSM    H2G14440   2.828   6.143   6.366  1.7088  1.1879  0.2212
  133OSM    C3F14441   2.878   6.052   6.166 -1.2752 -0.9883 -0.0898
  133OSM    H3F14442   2.777   6.011   6.148 -0.7856 -1.9952 -0.6444
  133OSM    H3G14443   2.959   5.984   6.132  0.8278  1.1336  0.4163
  133OSM    C4F14444   2.884   6.181   6.071 -0.8824  0.1252  0.1188
  133OSM    H4F14445   2.791   6.238   6.090 -0.5547  0.1064  1.9692
  133OSM    H4G14446   2.881   6.139   5.968  0.3178  0.2325  0.0155
  133OSM    C5F14447   3.003   6.274   6.085 -0.3694 -0.1463  0.0467
  133OSM    H5F14448   3.101   6.224   6.095 -0.2550  0.1205  0.2756
  133OSM    H5G14449   3.000   6.341   6.173  1.4607 -1.1976  0.9473
  133OSM    C6F14450   3.009   6.367   5.959  0.6473 -0.3386  0.0042
  133OSM    H6F14451   2.972   6.318   5.866 -0.4644  0.6068 -0.0696
  133OSM    H6G14452   3.116   6.394   5.942  0.2353  0.5475 -1.2927
  133OSM    C7F14453   2.923   6.496   5.980 -0.5146 -0.4602 -0.2871
  133OSM    H7F14454   2.976   6.576   6.037 -0.8494  0.6454 -1.4827
  133OSM    H7G14455   2.827   6.468   6.028 -0.3429 -3.1398 -1.3511
  133OSM    C8F14456   2.891   6.561   5.843  0.3076 -0.0897  0.4023
  133OSM    H8F14457   2.796   6.523   5.799 -0.6439  0.9447  1.4727
  133OSM    H8G14458   2.972   6.526   5.776 -0.3145  1.4224 -1.2328
  133OSM    C9F14459   2.883   6.705   5.841 -0.1504 -0.3684  0.3236
  133OSM    H9F14460   2.956   6.752   5.908  0.1719 -0.5853  0.1252
  133OSM   C10F14461   2.810   6.790   5.767 -0.7445 -0.0395 -0.3367
  133OSM   H10F14462   2.809   6.898   5.785 -0.3329 -0.0520 -0.2113
  133OSM   C11F14463   2.713   6.755   5.657 -0.2399  0.1309 -0.0476
  133OSM   H11F14464   2.622   6.817   5.640 -2.1188 -2.8028 -1.5970
  133OSM   H11G14465   2.679   6.649   5.660 -0.9704  0.2287 -2.5703
  133OSM   C12F14466   2.794   6.772   5.522 -0.3472 -0.7591  0.4693
  133OSM   H12F14467   2.870   6.692   5.519  0.7286  0.1953  1.4019
  133OSM   H12G14468   2.849   6.869   5.527  0.6772 -1.1734 -1.6072
  133OSM   C13F14469   2.703   6.776   5.397  0.3515 -0.2394  0.0910
  133OSM   H13F14470   2.649   6.873   5.399  0.7362 -0.0317  0.6615
  133OSM   H13G14471   2.634   6.689   5.404 -1.5357  1.1174 -0.7284
  133OSM   C14F14472   2.781   6.775   5.263  0.3167 -0.0801  0.5595
  133OSM   H14F14473   2.825   6.673   5.268 -0.8418 -0.7823 -1.9635
  133OSM   H14G14474   2.865   6.848   5.265  0.2764 -0.0516  1.9126
  133OSM   C15F14475   2.695   6.789   5.138  0.7393  0.2083 -0.1171
  133OSM   H15F14476   2.640   6.886   5.131  0.1651 -0.2012 -1.6368
  133OSM   H15G14477   2.620   6.708   5.133  0.9037  0.1384 -1.8085
  133OSM   C16F14478   2.752   6.752   5.002 -0.1615  0.4409  0.5135
  133OSM   H16F14479   2.665   6.742   4.934 -0.5624  1.8003  0.7988
  133OSM   H16G14480   2.803   6.653   5.006 -0.5666  0.0445 -2.1904
  133OSM   C17F14481   2.856   6.859   4.945 -0.0430  0.3083 -0.1159
  133OSM   H17F14482   2.887   6.816   4.847  3.1270 -1.5757  1.5613
  133OSM   H17G14483   2.948   6.860   5.006  0.4182  1.5937 -0.7958
  133OSM   C18F14484   2.802   7.003   4.935  0.1442  0.5344  0.3772
  133OSM   H18F14485   2.777   7.042   5.036 -0.9947  0.3148  0.1882
  133OSM   H18G14486   2.720   7.012   4.861  2.9778  0.2987 -3.1160
  133OSM   H18H14487   2.884   7.058   4.883  3.4242 -2.2810  2.1328
  134OSM      N14488   0.427   6.824   6.609 -0.3988  0.1435 -0.4442
  134OSM    C1514489   0.319   6.936   6.590 -0.4715  0.4253 -0.5081
  134OSM   H15A14490   0.375   7.028   6.595  2.1387 -1.0113 -1.4510
  134OSM   H15B14491   0.266   6.929   6.684  0.4393  0.1098 -0.0060
  134OSM   H15C14492   0.247   6.935   6.510 -1.0683 -0.0155  0.0167
  134OSM    C1414493   0.514   6.841   6.487  0.5058  0.1477 -0.2353
  134OSM   H14A14494   0.535   6.946   6.470 -1.3622  0.8582  1.4860
  134OSM   H14B14495   0.465   6.803   6.398  0.1504 -2.3563  0.9426
  134OSM   H14C14496   0.612   6.800   6.506  1.2433  1.4750 -1.0183
  134OSM    C1314497   0.509   6.852   6.724 -0.2328 -0.3363  0.1507
  134OSM   H13A14498   0.592   6.787   6.746  1.1394  0.9827 -0.8773
  134OSM   H13B14499   0.449   6.859   6.814  1.1915 -1.9799  1.3135
  134OSM   H13C14500   0.555   6.950   6.722 -0.1721 -0.3657  0.0925
  134OSM    C1214501   0.368   6.684   6.613 -1.3589 -0.4197  0.0898
  134OSM   H12A14502   0.455   6.623   6.596 -0.3799  0.9421  0.0700
  134OSM   H12B14503   0.307   6.682   6.523 -0.1611  0.8141 -0.7882
  134OSM    C1114504   0.282   6.653   6.730 -0.7893  0.2996 -0.2152
  134OSM   H11A14505   0.341   6.682   6.819 -0.6957 -3.9788  1.3498
  134OSM   H11B14506   0.270   6.543   6.726 -1.4276  0.3944 -2.0034
  134OSM      P14507   0.024   6.660   6.710 -0.2340  0.3386 -0.0616
  134OSM    O1314508   0.017   6.536   6.790 -0.4061  0.1016  0.2667
  134OSM    O1414509  -0.087   6.754   6.733  0.2170 -0.0253 -0.2136
  134OSM    O1114510   0.015   6.613   6.559 -0.3067  0.3687 -0.2666
  134OSM    O1214511   0.165   6.733   6.726  0.3929  0.7000  0.3707
  134OSM    C1S14512   0.038   6.717   6.465 -0.1580 -0.0467 -0.4759
  134OSM    H1S14513   0.135   6.770   6.480 -0.6667  1.3114 -1.7382
  134OSM    H1T14514  -0.052   6.781   6.454 -1.1336 -1.3680 -0.3732
  134OSM     NF14515   0.092   6.760   6.233 -0.2253 -0.1692  0.2717
  134OSM    HNF14516   0.035   6.833   6.196  2.3194  0.6997 -2.2659
  134OSM    C2S14517   0.048   6.655   6.320  0.5154 -0.6048 -0.3172
  134OSM    H2S14518   0.125   6.575   6.322 -0.0151 -1.1250 -0.4212
  134OSM    C3S14519  -0.088   6.592   6.278 -0.1357 -0.0774  0.2363
  134OSM    H3S14520  -0.161   6.675   6.265 -0.7552 -0.8274 -1.5135
  134OSM     O314521  -0.162   6.516   6.374  1.1621  0.1192  0.0903
  134OSM    HO314522  -0.114   6.540   6.454 -1.4000 -0.3562  1.8981
  134OSM    C4S14523  -0.088   6.510   6.146  0.0747  0.1733  0.0049
  134OSM    H4S14524  -0.120   6.580   6.067  1.4571  0.7651 -0.0565
  134OSM    C5S14525  -0.056   6.379   6.125 -0.2847 -0.0727 -0.1459
  134OSM    H5S14526  -0.021   6.332   6.218  0.1307  1.9474  0.7774
  134OSM    C6S14527  -0.043   6.302   5.997  0.2433 -0.4097 -0.3687
  134OSM    H6S14528  -0.112   6.216   6.004  0.7648 -0.7082  2.4713
  134OSM    H6T14529   0.056   6.252   5.997  0.1697 -0.6947 -2.8796
  134OSM    C7S14530  -0.055   6.381   5.871  0.2002 -0.4039  0.3677
  134OSM    H7S14531   0.034   6.442   5.846 -2.0057  2.2561 -1.5830
  134OSM    H7T14532  -0.131   6.462   5.869  0.0379 -0.5379  0.8847
  134OSM    C8S14533  -0.093   6.287   5.759  0.5462  0.0063 -0.5811
  134OSM    H8S14534  -0.191   6.247   5.793  1.2655  0.0963  1.7063
  134OSM    H8T14535  -0.023   6.201   5.763  1.0590  0.3638 -1.5284
  134OSM    C9S14536  -0.089   6.364   5.624  0.5330  0.3899  0.6195
  134OSM    H9S14537   0.016   6.394   5.605 -0.1278  1.3977 -1.9100
  134OSM    H9T14538  -0.155   6.452   5.637 -2.0025 -0.9826 -1.9393
  134OSM   C10S14539  -0.136   6.287   5.501  0.3168  0.5718  0.3721
  134OSM   H10S14540  -0.244   6.272   5.522  0.5112 -3.0192 -0.5865
  134OSM   H10T14541  -0.090   6.186   5.504 -0.4110  0.2180  0.0290
  134OSM   C11S14542  -0.103   6.344   5.358 -0.1462  0.0484 -0.6282
  134OSM   H11S14543  -0.144   6.269   5.287 -0.4129  0.6901 -1.1635
  134OSM   H11T14544   0.005   6.362   5.344  0.5519 -2.3497  1.0575
  134OSM   C12S14545  -0.169   6.484   5.337 -0.0684 -0.1132  0.0001
  134OSM   H12S14546  -0.138   6.551   5.420 -0.1717 -1.7753  1.4326
  134OSM   H12T14547  -0.278   6.464   5.328  0.0938 -0.7324 -0.8317
  134OSM   C13S14548  -0.118   6.540   5.202 -0.2586 -1.0424  0.6527
  134OSM   H13S14549  -0.012   6.569   5.216  0.8497 -3.2203 -2.1664
  134OSM   H13T14550  -0.181   6.628   5.177 -0.9568 -1.8142 -0.3849
  134OSM   C14S14551  -0.114   6.436   5.086 -0.0737  0.2308  0.1815
  134OSM   H14S14552  -0.203   6.370   5.091  0.9089 -1.0487  2.3626
  134OSM   H14T14553  -0.030   6.365   5.100 -0.4768 -0.2125  0.3745
  134OSM   C15S14554  -0.102   6.506   4.949 -0.1491  0.1238  0.3155
  134OSM   H15S14555   0.003   6.539   4.935 -0.4320  0.4508 -1.1928
  134OSM   H15T14556  -0.168   6.595   4.948  0.7973  0.9125  2.5214
  134OSM   C16S14557  -0.144   6.412   4.834 -0.7280  0.3700  0.9319
  134OSM   H16S14558  -0.223   6.335   4.850  2.4498 -2.8673  2.5633
  134OSM   H16T14559  -0.052   6.350   4.826 -0.1783  1.0303  1.9024
  134OSM   C17S14560  -0.175   6.483   4.696 -0.3093  0.3293  0.0949
  134OSM   H17S14561  -0.095   6.557   4.676  0.0557 -0.5399 -1.8896
  134OSM   H17T14562  -0.271   6.538   4.711 -0.4251  0.0127  0.5311
  134OSM   C18S14563  -0.190   6.395   4.572  0.9295  0.5268 -0.6153
  134OSM   H18S14564  -0.094   6.358   4.530  0.1069 -0.8264 -1.3731
  134OSM   H18T14565  -0.241   6.451   4.491  1.1760  1.2366 -0.2914
  134OSM   H18U14566  -0.246   6.305   4.605  0.1246  0.9404 -0.8436
  134OSM    C1F14567   0.220   6.805   6.245 -0.1307 -0.3153  0.4172
  134OSM     OF14568   0.307   6.735   6.300  0.4658  0.0698  0.2281
  134OSM    C2F14569   0.242   6.941   6.189 -0.6753 -0.7245 -0.0831
  134OSM    H2F14570   0.287   7.018   6.255 -2.6056  0.5171 -0.1432
  134OSM    H2G14571   0.143   6.987   6.167 -0.3746  0.2332  0.4957
  134OSM    C3F14572   0.325   6.945   6.057 -0.0740 -0.1022  0.2936
  134OSM    H3F14573   0.271   6.884   5.982  0.6381 -1.7254  1.0455
  134OSM    H3G14574   0.429   6.906   6.069  0.4700  1.8314  2.4709
  134OSM    C4F14575   0.338   7.086   5.998  0.0404 -0.3945  0.0470
  134OSM    H4F14576   0.396   7.161   6.056 -0.0315  0.5212 -1.0321
  134OSM    H4G14577   0.243   7.134   5.966  0.5255 -0.2392 -1.2181
  134OSM    C5F14578   0.415   7.091   5.865  0.3248 -1.0639 -0.5338
  134OSM    H5F14579   0.523   7.106   5.883  0.0068  1.9818 -0.6625
  134OSM    H5G14580   0.381   7.186   5.818 -2.8065  0.6396  4.3571
  134OSM    C6F14581   0.379   6.983   5.768 -0.2777  0.1341  0.3614
  134OSM    H6F14582   0.270   6.961   5.774 -0.6569  1.6520 -0.5234
  134OSM    H6G14583   0.437   6.895   5.803 -0.4426 -0.8638 -1.7371
  134OSM    C7F14584   0.428   7.010   5.622 -0.5510  0.9078  0.1446
  134OSM    H7F14585   0.528   7.056   5.633  1.2024 -1.7296 -3.0968
  134OSM    H7G14586   0.361   7.075   5.562 -0.9295  0.0033 -0.4236
  134OSM    C8F14587   0.462   6.878   5.543  0.2864 -0.3341  0.6660
  134OSM    H8F14588   0.533   6.818   5.605  2.1842 -0.0792 -1.1491
  134OSM    H8G14589   0.514   6.908   5.450  1.2558 -0.6400  1.0934
  134OSM    C9F14590   0.335   6.796   5.519  0.5523  0.5801 -0.0510
  134OSM    H9F14591   0.277   6.812   5.611  0.8835  0.4999  0.1774
  134OSM   C10F14592   0.305   6.714   5.420 -0.0456 -0.7636 -0.8399
  134OSM   H10F14593   0.207   6.665   5.422 -1.0670  1.1809  0.5869
  134OSM   C11F14594   0.382   6.699   5.288  0.1973  0.3294  0.1362
  134OSM   H11F14595   0.451   6.613   5.278  1.6152  1.3790  0.6303
  134OSM   H11G14596   0.445   6.790   5.282  0.5085  0.1013 -0.0955
  134OSM   C12F14597   0.285   6.680   5.157 -1.1410 -0.3540  0.1306
  134OSM   H12F14598   0.230   6.776   5.146  2.5274  2.0038  0.5348
  134OSM   H12G14599   0.220   6.591   5.172  1.0375 -2.2408 -1.0432
  134OSM   C13F14600   0.354   6.652   5.023  0.4238 -0.4238  0.2663
  134OSM   H13F14601   0.277   6.628   4.947  1.6123  1.1667 -1.5415
  134OSM   H13G14602   0.416   6.562   5.043  0.3921 -0.0839  2.0225
  134OSM   C14F14603   0.423   6.778   4.960  0.1856  0.0676 -0.6447
  134OSM   H14F14604   0.489   6.814   5.041 -1.4612 -0.1352  0.8604
  134OSM   H14G14605   0.354   6.864   4.944  3.5777  3.2449  0.5063
  134OSM   C15F14606   0.514   6.757   4.837 -0.7027  0.7749 -0.2183
  134OSM   H15F14607   0.452   6.724   4.751 -0.2764 -0.0027 -0.2327
  134OSM   H15G14608   0.581   6.671   4.858  0.9935  1.6671 -1.6473
  134OSM   C16F14609   0.595   6.887   4.792 -0.2238  0.4984 -0.6874
  134OSM   H16F14610   0.664   6.851   4.713 -1.2211 -0.2509 -1.2561
  134OSM   H16G14611   0.633   6.921   4.890 -0.5909 -1.2329  0.0966
  134OSM   C17F14612   0.498   6.995   4.735  0.1499  0.9444 -0.7411
  134OSM   H17F14613   0.428   7.023   4.816 -0.7690 -0.6110 -0.9608
  134OSM   H17G14614   0.433   6.948   4.658 -2.9219  3.8889 -0.1470
  134OSM   C18F14615   0.570   7.112   4.668  0.3989 -0.2935 -0.3775
  134OSM   H18F14616   0.647   7.159   4.734  0.4610  1.1665 -1.4453
  134OSM   H18G14617   0.486   7.177   4.637 -2.5245 -3.1626  0.9850
  134OSM   H18H14618   0.622   7.084   4.574  1.0243 -1.0349  0.1722
  135OSM      N14619   6.914   5.538   7.039  0.5606 -0.2256 -0.2628
  135OSM    C1514620   6.998   5.610   7.140 -0.2634 -0.0073 -0.3583
  135OSM   H15A14621   7.071   5.668   7.085  0.2071  1.4590  1.6976
  135OSM   H15B14622   7.058   5.533   7.186  0.7221 -0.9342 -3.0081
  135OSM   H15C14623   6.949   5.673   7.213  1.2703  1.2995 -0.4056
  135OSM    C1414624   6.805   5.465   7.119 -0.7959 -0.5392  0.1076
  135OSM   H14A14625   6.858   5.402   7.190 -0.7622  1.5221  1.9963
  135OSM   H14B14626   6.735   5.408   7.059 -0.3358 -0.1819 -0.7901
  135OSM   H14C14627   6.748   5.534   7.178 -0.7360  0.8779 -1.4247
  135OSM    C1314628   6.839   5.638   6.946 -0.4268  0.2703  0.5285
  135OSM   H13A14629   6.912   5.686   6.883 -0.7915 -1.1364 -1.0387
  135OSM   H13B14630   6.790   5.713   7.006  2.3100  0.2737  3.0087
  135OSM   H13C14631   6.764   5.587   6.887  0.1373  1.2395 -1.0920
  135OSM    C1214632   6.991   5.433   6.969 -0.3360 -0.1726  0.6876
  135OSM   H12A14633   6.923   5.363   6.924 -0.0510 -0.7827  1.1906
  135OSM   H12B14634   7.059   5.378   7.033 -0.6417  2.0987  3.1491
  135OSM    C1114635   7.081   5.482   6.851  0.1176  0.3099 -0.1343
  135OSM   H11A14636   7.016   5.539   6.782  1.3039  1.3596 -0.4271
  135OSM   H11B14637   7.126   5.393   6.801 -3.5341 -1.6160 -0.2843
  135OSM      P14638   7.220   5.712   6.843 -0.1608 -0.0799 -0.1483
  135OSM    O1314639   7.095   5.783   6.823  0.1663 -0.1149  0.3039
  135OSM    O1414640   7.323   5.784   6.923 -0.7381  0.4833  0.5383
  135OSM    O1114641   7.286   5.685   6.705 -0.2264  0.1932  0.0390
  135OSM    O1214642   7.191   5.562   6.901  0.5003  0.2018  0.1910
  135OSM    C1S14643   7.225   5.616   6.596  0.5787 -0.0592 -0.1067
  135OSM    H1S14644   7.117   5.639   6.598  0.7353  0.7138  1.6769
  135OSM    H1T14645   7.222   5.507   6.614 -1.1594  0.2205  1.6882
  135OSM     NF14646   7.215   5.620   6.350  0.6170  1.0119  0.1068
  135OSM    HNF14647   7.232   5.542   6.290 -1.9263 -0.9645  1.7312
  135OSM    C2S14648   7.297   5.658   6.464  0.7875  0.4750 -0.2430
  135OSM    H2S14649   7.296   5.769   6.468 -1.3038  0.4508  1.5010
  135OSM    C3S14650   7.441   5.603   6.461 -0.5096 -0.3730 -0.1359
  135OSM    H3S14651   7.441   5.494   6.440 -2.7630 -0.4933  0.2376
  135OSM     O314652   7.515   5.618   6.585 -0.7071 -0.4414  0.7144
  135OSM    HO314653   7.448   5.644   6.649 -0.3789 -3.9669  2.7091
  135OSM    C4S14654   7.528   5.675   6.355  0.8434  0.1308 -0.3995
  135OSM    H4S14655   7.508   5.783   6.354  0.0344  0.1831  3.8014
  135OSM    C5S14656   7.604   5.616   6.259 -0.2091 -0.6373 -0.5038
  135OSM    H5S14657   7.622   5.507   6.264 -0.0626 -0.5509  1.6802
  135OSM    C6S14658   7.679   5.685   6.146 -0.4692  0.3029 -0.4903
  135OSM    H6S14659   7.780   5.638   6.137 -0.3755  0.5312 -0.6414
  135OSM    H6T14660   7.694   5.788   6.185  2.1187 -0.0694 -0.3165
  135OSM    C7S14661   7.616   5.687   6.005 -0.4403 -0.0620  0.7101
  135OSM    H7S14662   7.507   5.708   6.005 -0.5049 -0.3444 -0.6770
  135OSM    H7T14663   7.619   5.580   5.978 -1.1591 -0.3033  1.5334
  135OSM    C8S14664   7.700   5.777   5.912  0.6033  0.3597 -0.0444
  135OSM    H8S14665   7.802   5.736   5.906  0.5773  0.1801  0.6934
  135OSM    H8T14666   7.713   5.880   5.953 -0.9688  0.1498  1.0715
  135OSM    C9S14667   7.643   5.794   5.772 -0.1175 -0.2368 -0.0195
  135OSM    H9S14668   7.555   5.862   5.770  0.2234  0.1962 -1.9800
  135OSM    H9T14669   7.624   5.689   5.740  0.7434 -0.7019  0.9355
  135OSM   C10S14670   7.744   5.861   5.671  0.2591  0.3836 -0.0624
  135OSM   H10S14671   7.713   5.826   5.570 -0.5247  0.5817  0.1033
  135OSM   H10T14672   7.842   5.808   5.680 -0.4388 -1.3692 -2.0005
  135OSM   C11S14673   7.752   6.018   5.678 -0.0744 -0.1372  0.2357
  135OSM   H11S14674   7.809   6.050   5.768  3.6595  1.5487 -2.4960
  135OSM   H11T14675   7.650   6.062   5.686 -0.7329 -1.6730  0.7309
  135OSM   C12S14676   7.805   6.063   5.541  0.0944 -0.2043 -0.2694
  135OSM   H12S14677   7.807   6.174   5.539  0.7834 -0.2084 -0.1703
  135OSM   H12T14678   7.732   6.028   5.465 -0.9816 -0.5181  0.8712
  135OSM   C13S14679   7.947   6.009   5.497  0.2153 -0.0034  0.3405
  135OSM   H13S14680   7.952   5.903   5.527 -0.8568 -1.2371 -3.3621
  135OSM   H13T14681   8.021   6.069   5.554  0.4693  1.8376 -1.7645
  135OSM   C14S14682   7.988   6.027   5.349  0.4975 -0.0608  0.5036
  135OSM   H14S14683   7.905   5.996   5.282 -0.1965  0.5585  1.0612
  135OSM   H14T14684   8.080   5.967   5.331  0.7793  0.3327  0.5963
  135OSM   C15S14685   8.019   6.173   5.326  0.2578  0.5349  0.4954
  135OSM   H15S14686   8.098   6.199   5.400 -0.2091  0.2280  1.1084
  135OSM   H15T14687   7.931   6.230   5.363 -1.2237 -0.3100 -1.5633
  135OSM   C16S14688   8.066   6.211   5.184 -0.3155  0.2839 -0.3405
  135OSM   H16S14689   7.988   6.212   5.105  0.2144  0.5198 -0.8667
  135OSM   H16T14690   8.149   6.141   5.164 -0.6068  0.5419 -2.7852
  135OSM   C17S14691   8.136   6.345   5.195  0.2908  0.6262  0.6714
  135OSM   H17S14692   8.215   6.346   5.274 -1.4216  0.6283  2.4507
  135OSM   H17T14693   8.059   6.413   5.238 -1.4237 -0.9716  0.2457
  135OSM   C18S14694   8.194   6.391   5.060  0.3862 -0.1546 -0.4241
  135OSM   H18S14695   8.131   6.369   4.971  1.3137  0.4206 -1.2446
  135OSM   H18T14696   8.298   6.355   5.054  0.6857  0.3807  0.9628
  135OSM   H18U14697   8.202   6.501   5.076 -0.6638 -0.2778  1.2974
  135OSM    C1F14698   7.101   5.685   6.335 -0.3008  0.5046  0.6404
  135OSM     OF14699   7.080   5.790   6.385  0.7264 -0.0386 -0.5571
  135OSM    C2F14700   7.007   5.616   6.243  0.8669 -0.2242  0.5103
  135OSM    H2F14701   6.911   5.616   6.300  1.8959 -0.3436  2.3068
  135OSM    H2G14702   7.028   5.508   6.234  0.6898 -0.1890 -0.3482
  135OSM    C3F14703   7.005   5.687   6.104 -0.4140  0.0322 -0.3168
  135OSM    H3F14704   7.100   5.669   6.050 -0.2416  1.3259 -0.4936
  135OSM    H3G14705   6.993   5.798   6.100  0.5708  0.1623  0.0489
  135OSM    C4F14706   6.895   5.622   6.017 -0.4305 -0.2637 -0.1740
  135OSM    H4F14707   6.918   5.515   5.996 -0.8440 -0.6367  1.1594
  135OSM    H4G14708   6.794   5.625   6.063 -0.1455 -0.8621  0.5023
  135OSM    C5F14709   6.883   5.696   5.883 -0.4965 -0.5075 -0.4577
  135OSM    H5F14710   6.969   5.657   5.825  2.4254  0.6346  2.7620
  135OSM    H5G14711   6.900   5.804   5.902 -0.2257 -0.8052  1.0882
  135OSM    C6F14712   6.760   5.658   5.803  0.0092  0.2247 -0.2160
  135OSM    H6F14713   6.730   5.746   5.743  0.7174  1.6736  1.4481
  135OSM    H6G14714   6.683   5.616   5.872  1.2903 -1.2878  0.3624
  135OSM    C7F14715   6.805   5.539   5.711 -0.1861 -0.8448 -0.4803
  135OSM    H7F14716   6.713   5.482   5.687 -0.7268 -1.0290  1.8517
  135OSM    H7G14717   6.875   5.481   5.775 -1.1010  0.4869  1.8326
  135OSM    C8F14718   6.886   5.586   5.591  0.2153  0.0130  0.6926
  135OSM    H8F14719   6.982   5.628   5.629 -0.3249  1.5727  0.4234
  135OSM    H8G14720   6.832   5.674   5.550  1.8127  0.9319  0.4751
  135OSM    C9F14721   6.906   5.472   5.499  0.1613  0.6793  0.3594
  135OSM    H9F14722   6.943   5.376   5.538 -0.3714  0.6188  0.7359
  135OSM   C10F14723   6.896   5.470   5.366 -0.0917 -0.1909  0.0711
  135OSM   H10F14724   6.905   5.378   5.307 -2.7119 -0.5399  0.0761
  135OSM   C11F14725   6.835   5.582   5.286 -0.8311  1.0462 -0.1748
  135OSM   H11F14726   6.740   5.622   5.326 -0.5130  2.1906 -0.5263
  135OSM   H11G14727   6.799   5.543   5.189 -0.6920 -0.9560  0.5289
  135OSM   C12F14728   6.938   5.695   5.250  0.1156 -0.4631 -0.1614
  135OSM   H12F14729   6.998   5.734   5.335 -1.2421  2.9199 -0.5726
  135OSM   H12G14730   6.866   5.777   5.227  1.0911  0.3541 -0.3701
  135OSM   C13F14731   7.021   5.662   5.128 -0.7686  1.0795  0.1371
  135OSM   H13F14732   7.075   5.571   5.161 -2.2522 -0.0248 -0.3497
  135OSM   H13G14733   7.094   5.744   5.111 -1.3586  1.9475  1.6608
  135OSM   C14F14734   6.946   5.631   5.002 -0.1901  0.3869  1.0331
  135OSM   H14F14735   6.880   5.543   5.017 -1.7709  1.3512 -0.0426
  135OSM   H14G14736   7.023   5.590   4.933  0.2034  0.7815  1.2310
  135OSM   C15F14737   6.870   5.750   4.935  0.4192  0.2340 -0.1434
  135OSM   H15F14738   6.775   5.768   4.991  0.5439  0.9582 -0.1644
  135OSM   H15G14739   6.840   5.716   4.834  1.3503  0.2257 -0.4183
  135OSM   C16F14740   6.952   5.882   4.934 -0.6125  0.3462 -0.7713
  135OSM   H16F14741   7.054   5.852   4.902 -0.2291  0.8579 -0.0868
  135OSM   H16G14742   6.962   5.919   5.039 -2.2170 -3.5934  0.9544
  135OSM   C17F14743   6.898   5.995   4.846 -0.4627  0.4177  0.0793
  135OSM   H17F14744   6.930   5.979   4.741 -2.1218 -4.2726  0.0437
  135OSM   H17G14745   6.956   6.081   4.885  1.2979 -0.5359 -0.3709
  135OSM   C18F14746   6.754   6.027   4.851  0.7993  0.2165  0.3956
  135OSM   H18F14747   6.730   6.061   4.954 -1.9929  1.6092 -0.5844
  135OSM   H18G14748   6.693   5.937   4.828  0.5582  0.0386  1.6768
  135OSM   H18H14749   6.721   6.110   4.784 -1.6847 -0.4002  0.7374
  136OSM      N14750   5.308   0.591   6.630 -0.3318  0.0196  0.0560
  136OSM    C1514751   5.247   0.660   6.752  1.0248 -0.3987  0.0037
  136OSM   H15A14752   5.250   0.587   6.833 -0.8438 -3.9324 -2.8113
  136OSM   H15B14753   5.147   0.697   6.735  1.3811 -0.4096 -2.4920
  136OSM   H15C14754   5.313   0.741   6.779  0.8664  0.1610 -1.2526
  136OSM    C1414755   5.298   0.689   6.517 -0.4871 -0.5819  0.5175
  136OSM   H14A14756   5.333   0.648   6.424 -0.3190 -0.8341  0.6928
  136OSM   H14B14757   5.352   0.780   6.539  0.8355 -0.4971 -2.5520
  136OSM   H14C14758   5.195   0.716   6.497  0.3497  1.1300 -2.0329
  136OSM    C1314759   5.449   0.577   6.667  0.5279  0.7544  0.7486
  136OSM   H13A14760   5.505   0.667   6.688  1.9816  0.0093  0.2096
  136OSM   H13B14761   5.509   0.531   6.590  1.2575  0.4888  1.4516
  136OSM   H13C14762   5.457   0.503   6.746  3.0897  0.4000  0.2631
  136OSM    C1214763   5.236   0.467   6.594  0.2660  0.1033 -0.2462
  136OSM   H12A14764   5.232   0.406   6.683 -0.6535  2.2235  1.2288
  136OSM   H12B14765   5.298   0.402   6.534  0.7132 -2.8555  3.0903
  136OSM    C1114766   5.087   0.476   6.532  0.8276  0.0361  0.1275
  136OSM   H11A14767   5.050   0.375   6.504 -1.5017  1.1233 -1.0180
  136OSM   H11B14768   5.097   0.531   6.436 -3.5948 -0.8516 -1.0597
  136OSM      P14769   4.916   0.484   6.735  0.4431  0.5555  0.0282
  136OSM    O1314770   4.995   0.375   6.795 -0.4572 -0.0870  0.4101
  136OSM    O1414771   4.868   0.586   6.823 -0.2251  0.2359 -0.2530
  136OSM    O1114772   4.791   0.425   6.643  0.1122  0.3513 -0.4816
  136OSM    O1214773   5.006   0.552   6.624 -0.4090 -0.2143  0.1575
  136OSM    C1S14774   4.715   0.524   6.570  0.0665  0.4197  0.5071
  136OSM    H1S14775   4.737   0.631   6.591  0.3209  0.1855  1.5075
  136OSM    H1T14776   4.607   0.509   6.589 -0.3260  2.3872  0.0178
  136OSM     NF14777   4.654   0.595   6.338  0.0738  0.2747  0.1282
  136OSM    HNF14778   4.580   0.546   6.292  0.6828 -1.3546  0.8073
  136OSM    C2S14779   4.740   0.507   6.413  0.0199  0.3725  0.5468
  136OSM    H2S14780   4.845   0.533   6.388 -0.4960  0.1215 -2.2391
  136OSM    C3S14781   4.728   0.353   6.374 -1.0489  0.2801 -0.4062
  136OSM    H3S14782   4.623   0.320   6.389 -0.8501  0.9869  3.9245
  136OSM     O314783   4.811   0.252   6.444  0.9520 -0.1422  0.4478
  136OSM    HO314784   4.845   0.309   6.513 -0.8142  3.0677 -1.0937
  136OSM    C4S14785   4.756   0.336   6.226  0.1921  1.3290  0.1122
  136OSM    H4S14786   4.663   0.330   6.167  0.6295 -0.4542 -0.4500
  136OSM    C5S14787   4.870   0.300   6.164 -0.1822 -0.0397  0.4497
  136OSM    H5S14788   4.965   0.283   6.217 -0.7501 -1.6544  1.0109
  136OSM    C6S14789   4.892   0.303   6.017 -0.1397 -0.0523 -0.5766
  136OSM    H6S14790   4.937   0.206   5.985  0.4864  0.2858 -0.7279
  136OSM    H6T14791   4.950   0.393   5.988  1.0186 -0.0324  1.6371
  136OSM    C7S14792   4.760   0.314   5.932 -0.0222 -0.3391  0.0009
  136OSM    H7S14793   4.775   0.347   5.827 -3.6810  3.9318  0.5196
  136OSM    H7T14794   4.696   0.398   5.967  1.6172  0.4350  1.2772
  136OSM    C8S14795   4.672   0.189   5.932 -0.4168 -0.1836  0.5217
  136OSM    H8S14796   4.668   0.136   6.029 -0.0015  2.8149  2.2832
  136OSM    H8T14797   4.704   0.118   5.853  1.2080 -0.6296  1.5522
  136OSM    C9S14798   4.530   0.230   5.893  0.3653  0.5196  0.8603
  136OSM    H9S14799   4.537   0.285   5.796 -1.7127 -1.0028 -0.2445
  136OSM    H9T14800   4.490   0.300   5.969  1.2779  1.2163  0.7162
  136OSM   C10S14801   4.422   0.123   5.874  0.1670  0.0288  0.8998
  136OSM   H10S14802   4.393   0.065   5.965 -1.0534 -1.3917 -0.3552
  136OSM   H10T14803   4.468   0.044   5.811 -0.1424  1.0218 -0.6015
  136OSM   C11S14804   4.291   0.179   5.823  0.6095 -0.4584  0.0047
  136OSM   H11S14805   4.288   0.290   5.828 -1.2498 -0.4616 -0.4831
  136OSM   H11T14806   4.205   0.136   5.879  1.9105 -2.8749  0.2981
  136OSM   C12S14807   4.276   0.142   5.676  0.5272  0.7540 -0.5386
  136OSM   H12S14808   4.269   0.031   5.671  1.0288  0.7064 -0.2331
  136OSM   H12T14809   4.372   0.177   5.631  0.5793  0.9056 -0.3109
  136OSM   C13S14810   4.159   0.221   5.608  0.3844  0.7805 -0.0566
  136OSM   H13S14811   4.073   0.196   5.674 -0.2818  0.4455 -1.0417
  136OSM   H13T14812   4.132   0.186   5.506  0.3885  1.1485 -0.1869
  136OSM   C14S14813   4.188   0.367   5.603  0.1001  0.0665 -0.4157
  136OSM   H14S14814   4.299   0.380   5.608  0.5027 -3.0173  0.9304
  136OSM   H14T14815   4.141   0.399   5.699  1.9724  0.6325  0.3768
  136OSM   C15S14816   4.144   0.447   5.475 -0.7094  0.9221  0.0374
  136OSM   H15S14817   4.155   0.557   5.485 -0.6251  1.1709 -2.2818
  136OSM   H15T14818   4.036   0.427   5.460 -0.5003 -0.9021  0.7179
  136OSM   C16S14819   4.201   0.401   5.343 -0.0568 -0.1881 -0.2124
  136OSM   H16S14820   4.157   0.462   5.261  0.2572  1.0976  0.5512
  136OSM   H16T14821   4.173   0.294   5.329  0.4586 -0.4160  0.4517
  136OSM   C17S14822   4.350   0.427   5.326 -0.4225  0.4043 -0.1870
  136OSM   H17S14823   4.401   0.366   5.404 -1.7699 -0.5074  0.0190
  136OSM   H17T14824   4.374   0.533   5.348 -1.0096  0.7148 -0.9645
  136OSM   C18S14825   4.426   0.376   5.190  0.1802  0.7662  0.5747
  136OSM   H18S14826   4.404   0.458   5.119 -0.0354  0.6650  0.5243
  136OSM   H18T14827   4.381   0.280   5.156 -1.2477  1.9865 -1.1148
  136OSM   H18U14828   4.535   0.355   5.202 -0.2077 -2.3369 -0.3769
  136OSM    C1F14829   4.669   0.728   6.336 -0.1798  0.1341 -0.1967
  136OSM     OF14830   4.758   0.783   6.397  0.1961  0.5371 -0.9279
  136OSM    C2F14831   4.564   0.805   6.263 -0.4818  0.4375  0.3227
  136OSM    H2F14832   4.462   0.782   6.299 -1.3250  0.5182 -1.8531
  136OSM    H2G14833   4.571   0.769   6.158  3.0014  2.2246 -0.1986
  136OSM    C3F14834   4.598   0.958   6.275  0.3382 -0.0579  0.2118
  136OSM    H3F14835   4.690   0.980   6.218  0.2693 -1.1808 -0.3608
  136OSM    H3G14836   4.622   0.984   6.381 -0.3614  1.0176  0.1241
  136OSM    C4F14837   4.497   1.062   6.221  0.3356  0.2489  0.9016
  136OSM    H4F14838   4.545   1.158   6.250  1.1575 -0.0495  0.5688
  136OSM    H4G14839   4.402   1.052   6.277  0.1253  2.1285  0.9559
  136OSM    C5F14840   4.476   1.045   6.069  0.5747  0.0536  0.2674
  136OSM    H5F14841   4.394   1.114   6.039  0.5343  0.2906  0.9097
  136OSM    H5G14842   4.442   0.944   6.036 -1.1147  0.4288  0.7195
  136OSM    C6F14843   4.590   1.086   5.981 -0.5959 -0.1416 -0.0217
  136OSM    H6F14844   4.680   1.048   6.033 -0.2317  3.3814  2.2709
  136OSM    H6G14845   4.614   1.194   5.992  0.9853 -0.4285 -0.4908
  136OSM    C7F14846   4.578   1.052   5.831 -0.7916 -0.1528  0.7616
  136OSM    H7F14847   4.482   1.094   5.793 -1.0910 -3.0706 -2.1675
  136OSM    H7G14848   4.564   0.941   5.828  2.6700 -0.7809  2.5567
  136OSM    C8F14849   4.704   1.091   5.754  0.3522 -0.0236  0.1819
  136OSM    H8F14850   4.702   1.027   5.663 -3.2857 -1.2526  0.9687
  136OSM    H8G14851   4.786   1.056   5.819  0.2097 -4.0623 -1.5477
  136OSM    C9F14852   4.704   1.239   5.729  0.6352  0.0782 -0.3814
  136OSM    H9F14853   4.691   1.308   5.814 -0.5501  1.1557 -1.3883
  136OSM   C10F14854   4.706   1.301   5.608  0.4105  0.1856 -0.0996
  136OSM   H10F14855   4.699   1.411   5.607 -1.6074  0.1076  0.0516
  136OSM   C11F14856   4.703   1.232   5.474  0.3271  0.1611  0.5592
  136OSM   H11F14857   4.614   1.266   5.417  0.1951 -0.8436  0.1326
  136OSM   H11G14858   4.698   1.121   5.478 -1.3907  0.1593 -0.5680
  136OSM   C12F14859   4.834   1.256   5.401  0.6808  0.0360  0.5729
  136OSM   H12F14860   4.914   1.194   5.447  1.9414  1.6276  0.5877
  136OSM   H12G14861   4.861   1.363   5.403 -2.0889  0.8038  1.4403
  136OSM   C13F14862   4.810   1.215   5.250  0.2964 -0.4367  0.6024
  136OSM   H13F14863   4.888   1.259   5.185 -2.2144  1.2781 -1.4273
  136OSM   H13G14864   4.714   1.259   5.216  1.2862  1.2598 -0.0905
  136OSM   C14F14865   4.808   1.066   5.216 -0.4303  0.4909 -0.3462
  136OSM   H14F14866   4.703   1.036   5.239  0.1550 -1.1262  0.4172
  136OSM   H14G14867   4.867   1.015   5.295  0.6867 -1.6894 -2.4926
  136OSM   C15F14868   4.863   1.015   5.080  0.7479 -0.4361 -0.1003
  136OSM   H15F14869   4.969   1.044   5.067  0.2598  0.4990 -2.3713
  136OSM   H15G14870   4.806   1.095   5.027  0.6680 -0.2199  0.3018
  136OSM   C16F14871   4.832   0.875   5.032  0.0162  0.2326 -0.0142
  136OSM   H16F14872   4.906   0.846   4.954  0.7163  0.7171  0.4561
  136OSM   H16G14873   4.731   0.874   4.986  0.3394 -1.4570 -0.7579
  136OSM   C17F14874   4.827   0.767   5.144  0.4397 -0.3214 -0.1214
  136OSM   H17F14875   4.758   0.797   5.226  0.0011 -3.5108  0.8218
  136OSM   H17G14876   4.931   0.761   5.183  0.4194 -2.7092 -0.3300
  136OSM   C18F14877   4.786   0.633   5.098 -0.1903  0.5398 -0.7429
  136OSM   H18F14878   4.679   0.634   5.069 -0.4677  1.8920  0.2231
  136OSM   H18G14879   4.785   0.555   5.177 -1.9567  1.1368 -0.1252
  136OSM   H18H14880   4.838   0.603   5.004  1.9041  0.1853  0.4793
  137OSM      N14881   5.445   4.949   7.232  0.3934  0.2342  0.2409
  137OSM    C1514882   5.506   4.879   7.351 -0.4012  0.3294  1.2396
  137OSM   H15A14883   5.612   4.877   7.330 -0.3797 -2.5846  1.3343
  137OSM   H15B14884   5.474   4.779   7.375 -0.3004  0.1078  0.4787
  137OSM   H15C14885   5.485   4.929   7.445  0.3166 -1.1802  2.2276
  137OSM    C1414886   5.297   4.940   7.249  0.6972  0.1814  0.1862
  137OSM   H14A14887   5.265   4.837   7.250  0.0573  0.2817 -2.5113
  137OSM   H14B14888   5.250   4.992   7.167 -1.4260 -2.0924 -0.1632
  137OSM   H14C14889   5.269   4.992   7.339  0.2675 -1.6478  1.1496
  137OSM    C1314890   5.486   5.094   7.221  0.2716  0.1773 -1.0169
  137OSM   H13A14891   5.462   5.152   7.309  2.7665  0.9489 -0.7794
  137OSM   H13B14892   5.447   5.138   7.131  2.0397  0.3483 -1.7503
  137OSM   H13C14893   5.593   5.087   7.207  0.2712 -0.7284 -0.6463
  137OSM    C1214894   5.488   4.870   7.110 -0.1900  0.1701  0.1111
  137OSM   H12A14895   5.475   4.765   7.132 -2.6877  0.6152  1.0638
  137OSM   H12B14896   5.595   4.881   7.101 -0.0940 -0.9890 -0.4349
  137OSM    C1114897   5.429   4.922   6.974  0.2912  0.0787 -0.3892
  137OSM   H11A14898   5.325   4.951   7.002  0.9238  1.3233  0.7540
  137OSM   H11B14899   5.420   4.835   6.906 -0.9438 -0.4292  0.3784
  137OSM      P14900   5.652   5.022   6.882  0.0454 -0.0792  0.1600
  137OSM    O1314901   5.730   5.096   6.989 -0.1692  0.4854 -0.0947
  137OSM    O1414902   5.688   4.882   6.854  0.0942  0.3631 -0.0471
  137OSM    O1114903   5.663   5.110   6.751  0.0606  0.2525 -0.1122
  137OSM    O1214904   5.501   5.038   6.925 -0.1970  0.4918  0.0400
  137OSM    C1S14905   5.715   5.063   6.629  0.0237  0.2167 -0.7875
  137OSM    H1S14906   5.664   4.975   6.584 -0.4851 -0.5796  1.2795
  137OSM    H1T14907   5.826   5.055   6.638 -0.2064 -0.3425  2.4191
  137OSM     NF14908   5.724   5.124   6.391 -0.7016  0.1680  0.5007
  137OSM    HNF14909   5.820   5.136   6.368 -0.8863 -0.0319 -0.3999
  137OSM    C2S14910   5.680   5.170   6.521 -0.2790  0.3604 -0.0168
  137OSM    H2S14911   5.569   5.167   6.520 -0.2657 -0.5504  0.2872
  137OSM    C3S14912   5.718   5.313   6.568  0.0175 -0.4872 -0.3888
  137OSM    H3S14913   5.828   5.319   6.566  0.0540 -1.1947 -0.7415
  137OSM     O314914   5.664   5.361   6.692 -0.2396 -0.3492  0.6103
  137OSM    HO314915   5.632   5.280   6.734  0.3397 -0.2479  1.2731
  137OSM    C4S14916   5.682   5.408   6.454  0.0358  0.0962  0.7610
  137OSM    H4S14917   5.761   5.422   6.379 -1.6147  1.0520 -0.8921
  137OSM    C5S14918   5.568   5.477   6.425 -1.1329 -0.5235  0.2228
  137OSM    H5S14919   5.500   5.485   6.512  0.8477 -0.0735  1.8051
  137OSM    C6S14920   5.549   5.566   6.300  0.0157 -0.5907 -0.2754
  137OSM    H6S14921   5.603   5.662   6.315 -0.3526 -0.3826 -0.2570
  137OSM    H6T14922   5.442   5.597   6.298  0.3429  0.5998 -0.3880
  137OSM    C7S14923   5.601   5.520   6.166  0.1071  0.2213 -0.0856
  137OSM    H7S14924   5.552   5.423   6.139  1.5447 -0.5112 -0.1473
  137OSM    H7T14925   5.711   5.514   6.173  0.0773 -1.1892 -0.5075
  137OSM    C8S14926   5.585   5.606   6.044 -0.8142 -0.5996  0.2474
  137OSM    H8S14927   5.616   5.711   6.062  2.0194 -1.1056 -1.1963
  137OSM    H8T14928   5.476   5.609   6.024 -0.9402  2.5903  0.7654
  137OSM    C9S14929   5.661   5.555   5.917 -1.2971 -0.3002 -0.5258
  137OSM    H9S14930   5.616   5.455   5.895 -0.7954 -0.2200 -2.0244
  137OSM    H9T14931   5.769   5.533   5.922 -1.2542 -0.0012 -0.0954
  137OSM   C10S14932   5.626   5.639   5.799  0.0267 -0.1542  0.4098
  137OSM   H10S14933   5.662   5.742   5.821  1.0003 -0.8577  2.3380
  137OSM   H10T14934   5.515   5.645   5.796  0.0360  1.8531  2.0348
  137OSM   C11S14935   5.683   5.577   5.677 -0.0449 -0.3612 -0.4327
  137OSM   H11S14936   5.654   5.470   5.667 -0.8007 -0.0395 -2.0490
  137OSM   H11T14937   5.794   5.573   5.683 -0.1072  0.3189  2.3058
  137OSM   C12S14938   5.636   5.647   5.551 -0.1858 -0.3380 -1.1089
  137OSM   H12S14939   5.689   5.745   5.546  2.1318 -1.4806 -0.4282
  137OSM   H12T14940   5.530   5.682   5.554 -0.5682 -1.5008 -0.5522
  137OSM   C13S14941   5.664   5.566   5.427 -0.0843  0.5269  0.5000
  137OSM   H13S14942   5.617   5.466   5.443  0.9041  0.0941  0.7314
  137OSM   H13T14943   5.774   5.560   5.412 -0.1038 -0.5501  0.7053
  137OSM   C14S14944   5.598   5.617   5.299  0.6768  0.2925 -0.0210
  137OSM   H14S14945   5.635   5.722   5.297  1.2982  0.0722 -0.4206
  137OSM   H14T14946   5.488   5.612   5.307  0.4207  0.9663 -2.3167
  137OSM   C15S14947   5.641   5.537   5.180 -0.0769 -0.8069 -0.5476
  137OSM   H15S14948   5.659   5.433   5.215 -1.0408 -2.4568 -4.4272
  137OSM   H15T14949   5.732   5.589   5.146 -0.1782 -0.0628  0.2865
  137OSM   C16S14950   5.533   5.534   5.067 -0.4042  0.1982  0.7010
  137OSM   H16S14951   5.511   5.638   5.035  0.1155  1.0839  3.0092
  137OSM   H16T14952   5.441   5.490   5.110 -0.4481 -0.3706  0.0406
  137OSM   C17S14953   5.579   5.454   4.942  0.3695  0.4998 -0.4133
  137OSM   H17S14954   5.677   5.492   4.907 -0.2426  3.0723  0.4221
  137OSM   H17T14955   5.501   5.460   4.863 -1.1991  1.8838  1.1375
  137OSM   C18S14956   5.601   5.311   4.983 -0.3676 -0.0817 -0.8082
  137OSM   H18S14957   5.591   5.250   4.891 -1.2353 -3.9363  1.6049
  137OSM   H18T14958   5.515   5.287   5.049  0.6311 -0.8965  0.2400
  137OSM   H18U14959   5.692   5.290   5.044 -0.4988  0.6573 -0.3429
  137OSM    C1F14960   5.653   5.040   6.320 -0.2048 -0.0047  0.1846
  137OSM     OF14961   5.547   4.993   6.365 -0.1342  0.6061 -0.3829
  137OSM    C2F14962   5.702   5.009   6.185  0.5327  0.7084  0.0885
  137OSM    H2F14963   5.686   4.899   6.173 -0.0455  0.7742  0.2346
  137OSM    H2G14964   5.810   5.032   6.167 -0.0447  1.6126 -2.7810
  137OSM    C3F14965   5.614   5.084   6.086  0.3762 -0.2349  0.2493
  137OSM    H3F14966   5.613   5.195   6.092 -1.7688 -0.0729 -1.7141
  137OSM    H3G14967   5.508   5.067   6.115 -0.2591  0.8540 -1.2964
  137OSM    C4F14968   5.643   5.047   5.941 -0.6613  0.6797 -0.5683
  137OSM    H4F14969   5.565   5.081   5.869 -0.6258 -1.0053 -1.4610
  137OSM    H4G14970   5.650   4.937   5.927 -0.0085  0.6318  0.0799
  137OSM    C5F14971   5.765   5.122   5.892 -0.4094 -0.0614 -0.1627
  137OSM    H5F14972   5.850   5.067   5.937 -1.2318  0.7948  2.6669
  137OSM    H5G14973   5.773   5.225   5.933 -3.4760  0.0121  0.5137
  137OSM    C6F14974   5.773   5.140   5.734  0.2183  0.1499  0.3618
  137OSM    H6F14975   5.671   5.168   5.703  0.2527 -1.1282 -1.0529
  137OSM    H6G14976   5.783   5.040   5.685 -3.0928  0.0121 -0.2330
  137OSM    C7F14977   5.879   5.240   5.677  0.1703  0.4621  0.0456
  137OSM    H7F14978   5.973   5.194   5.713  1.6253  2.9404 -0.3271
  137OSM    H7G14979   5.853   5.337   5.726 -0.3179  0.3444  0.0263
  137OSM    C8F14980   5.891   5.244   5.523 -0.5483 -0.1741 -0.0439
  137OSM    H8F14981   5.794   5.274   5.478 -0.6501 -0.8509 -0.2898
  137OSM    H8G14982   5.913   5.141   5.488 -2.0487 -1.1357  1.6538
  137OSM    C9F14983   6.002   5.342   5.480 -0.2790  0.2279 -0.4905
  137OSM    H9F14984   6.017   5.426   5.549 -0.9812 -0.2002  0.2090
  137OSM   C10F14985   6.066   5.352   5.366 -0.1373 -0.2558  0.3749
  137OSM   H10F14986   6.144   5.429   5.368  1.2000 -1.5733  0.9035
  137OSM   C11F14987   6.051   5.259   5.247 -0.1347  0.3067 -0.7019
  137OSM   H11F14988   5.959   5.197   5.241  1.2605 -2.0977  0.9360
  137OSM   H11G14989   6.142   5.195   5.240  0.4684  1.2432 -1.9483
  137OSM   C12F14990   6.037   5.335   5.112 -0.6465 -0.4822  0.2856
  137OSM   H12F14991   6.128   5.397   5.101 -0.6464 -0.1598  1.9110
  137OSM   H12G14992   5.949   5.403   5.108 -0.6522 -0.4633  0.6665
  137OSM   C13F14993   6.018   5.242   4.988 -0.0767 -0.1038 -0.5273
  137OSM   H13F14994   5.922   5.189   5.007  0.4823 -0.1800  2.7259
  137OSM   H13G14995   6.095   5.161   4.994  2.4281  2.1802  0.1305
  137OSM   C14F14996   6.025   5.309   4.845 -0.2006  0.1328 -0.1175
  137OSM   H14F14997   6.122   5.361   4.828  0.1349 -0.3532  0.3033
  137OSM   H14G14998   5.947   5.388   4.838  0.9449  1.2265 -1.3190
  137OSM   C15F14999   5.989   5.213   4.733  1.2016  0.9619 -0.0961
  137OSM   H15F15000   5.887   5.172   4.745  1.6650 -0.4092 -0.5987
  137OSM   H15G15001   6.060   5.129   4.718  0.9538  0.3332  1.9155
  137OSM   C16F15002   6.000   5.302   4.599  0.0528 -0.1104  0.5301
  137OSM   H16F15003   6.103   5.343   4.601  0.3893 -0.9209  0.5670
  137OSM   H16G15004   5.929   5.386   4.611  0.7992  0.4388  1.2425
  137OSM   C17F15005   6.011   5.225   4.468 -0.9358  0.6695  0.1821
  137OSM   H17F15006   5.939   5.256   4.390  1.0651  0.1685 -1.9632
  137OSM   H17G15007   5.992   5.116   4.482  4.3776 -0.3265  2.1377
  137OSM   C18F15008   6.152   5.236   4.400  0.4948  0.5776  0.7873
  137OSM   H18F15009   6.202   5.335   4.395  0.9964  0.3025 -3.1313
  137OSM   H18G15010   6.153   5.211   4.292 -1.6401  1.5420  0.4865
  137OSM   H18H15011   6.225   5.166   4.447  2.9972  1.9882 -0.7835
  138OSM      N15012   4.419   3.987   6.386  0.3373 -0.0542 -0.1857
  138OSM    C1515013   4.356   3.950   6.518 -0.0566  0.0517 -0.1695
  138OSM   H15A15014   4.249   3.945   6.506 -0.2620  0.9671  1.0860
  138OSM   H15B15015   4.380   4.027   6.590 -0.2442  0.9473 -1.0286
  138OSM   H15C15016   4.397   3.856   6.550 -0.4777 -0.4281 -0.9978
  138OSM    C1415017   4.430   3.865   6.300 -0.1110 -0.4671  0.3825
  138OSM   H14A15018   4.338   3.810   6.309  0.4418 -1.1558  2.7784
  138OSM   H14B15019   4.501   3.795   6.341 -0.4973 -1.1348 -0.0779
  138OSM   H14C15020   4.450   3.890   6.197  1.7013 -1.6551  0.3869
  138OSM    C1315021   4.328   4.083   6.307  0.0715  0.4931  0.0457
  138OSM   H13A15022   4.318   4.173   6.365 -0.4180 -0.6902  1.9037
  138OSM   H13B15023   4.232   4.033   6.295  1.4848 -2.4342  0.0009
  138OSM   H13C15024   4.385   4.109   6.219  1.7191 -0.4719  0.7748
  138OSM    C1215025   4.551   4.049   6.400 -0.2216 -0.2916 -0.6373
  138OSM   H12A15026   4.588   4.086   6.305  3.8818  0.1758  0.9488
  138OSM   H12B15027   4.621   3.973   6.429 -0.4218 -0.1712  0.2043
  138OSM    C1115028   4.573   4.167   6.504  0.5567  0.5724  0.7727
  138OSM   H11A15029   4.682   4.187   6.502  0.8284 -0.5743 -2.5380
  138OSM   H11B15030   4.540   4.137   6.605 -0.4983  1.9264  0.8652
  138OSM      P15031   4.543   4.427   6.439 -0.1416  0.0654  0.2812
  138OSM    O1315032   4.444   4.483   6.351 -0.3586 -0.3386  0.8302
  138OSM    O1415033   4.576   4.498   6.562  0.0619 -0.4763 -0.0899
  138OSM    O1115034   4.677   4.412   6.360  0.1864  0.6484 -0.1490
  138OSM    O1215035   4.493   4.282   6.476 -0.5646 -0.1460  0.1336
  138OSM    C1S15036   4.693   4.335   6.235 -0.5906  0.2703 -0.8367
  138OSM    H1S15037   4.644   4.236   6.243 -0.3083  0.1860 -0.0845
  138OSM    H1T15038   4.797   4.309   6.207 -0.4335 -0.1335  0.1065
  138OSM     NF15039   4.659   4.323   5.990 -0.3060 -0.0259 -0.5835
  138OSM    HNF15040   4.740   4.333   5.932 -1.0315  2.0161 -1.3135
  138OSM    C2S15041   4.647   4.412   6.104 -0.4123 -0.2059  0.2313
  138OSM    H2S15042   4.544   4.449   6.123  0.6542  2.4444  1.2885
  138OSM    C3S15043   4.715   4.549   6.080  0.1977 -0.6818 -0.1941
  138OSM    H3S15044   4.817   4.527   6.041  0.5211  0.3906  0.0380
  138OSM     O315045   4.723   4.625   6.199  0.2884 -0.3307  0.0997
  138OSM    HO315046   4.713   4.561   6.270 -1.5062  1.5457  1.6771
  138OSM    C4S15047   4.629   4.626   5.971 -0.1655  0.1559  0.1944
  138OSM    H4S15048   4.674   4.623   5.870  1.5479 -0.6690  0.9313
  138OSM    C5S15049   4.524   4.709   5.990 -0.0443 -0.5915  0.4592
  138OSM    H5S15050   4.491   4.725   6.094  0.5043 -0.3001  0.5937
  138OSM    C6S15051   4.452   4.789   5.881 -0.2562 -0.7976 -0.9013
  138OSM    H6S15052   4.518   4.872   5.848 -2.5754  1.7356  0.4662
  138OSM    H6T15053   4.359   4.834   5.921  0.7619  0.7966 -0.2188
  138OSM    C7S15054   4.400   4.709   5.761 -0.6580  0.8932  0.4193
  138OSM    H7S15055   4.318   4.642   5.791 -0.3394  1.0907  1.7843
  138OSM    H7T15056   4.476   4.641   5.718  0.2974  1.6117  0.9237
  138OSM    C8S15057   4.349   4.792   5.636 -0.4282  0.0097 -1.1139
  138OSM    H8S15058   4.444   4.846   5.614  0.6504 -0.6446  1.5076
  138OSM    H8T15059   4.285   4.878   5.665  0.2423  0.1575  0.0099
  138OSM    C9S15060   4.297   4.710   5.515 -0.1295 -0.5545  0.0304
  138OSM    H9S15061   4.192   4.698   5.547  0.1172  0.2393  1.2298
  138OSM    H9T15062   4.359   4.618   5.502 -0.4359 -0.8729  0.7707
  138OSM   C10S15063   4.313   4.793   5.387  0.1560 -0.0090 -0.4982
  138OSM   H10S15064   4.421   4.798   5.361 -0.1874 -0.1208 -2.0331
  138OSM   H10T15065   4.290   4.898   5.415  1.1009  0.0003  0.2640
  138OSM   C11S15066   4.217   4.753   5.269 -0.7027 -0.1882  0.3458
  138OSM   H11S15067   4.119   4.793   5.301  0.4338  2.0382  1.3088
  138OSM   H11T15068   4.226   4.646   5.242  3.5712  0.3508 -1.1979
  138OSM   C12S15069   4.253   4.837   5.144 -0.6309 -0.3570  0.1059
  138OSM   H12S15070   4.363   4.854   5.155 -0.9294  1.2086  1.0341
  138OSM   H12T15071   4.211   4.940   5.147 -1.9643 -0.8669 -0.5898
  138OSM   C13S15072   4.224   4.761   5.013 -0.1367  0.0316 -0.1036
  138OSM   H13S15073   4.119   4.737   4.985 -0.1070  0.0184 -0.2035
  138OSM   H13T15074   4.278   4.666   5.035  1.2322  1.0113  0.9308
  138OSM   C14S15075   4.288   4.821   4.884 -0.6139  1.1102  0.2390
  138OSM   H14S15076   4.272   4.750   4.800 -0.1616  0.0000  1.0683
  138OSM   H14T15077   4.396   4.830   4.905 -0.5214  1.0790 -0.2162
  138OSM   C15S15078   4.249   4.964   4.850  0.1064 -0.4797 -0.6026
  138OSM   H15S15079   4.281   5.031   4.932  0.6949 -1.5518  0.0774
  138OSM   H15T15080   4.139   4.961   4.834  0.0859  0.0156 -0.5490
  138OSM   C16S15081   4.305   5.022   4.713  0.0336 -0.5009  0.0814
  138OSM   H16S15082   4.299   4.946   4.632  2.3475 -1.0876  0.4108
  138OSM   H16T15083   4.415   5.035   4.725  0.1612 -0.0205 -1.3981
  138OSM   C17S15084   4.242   5.157   4.691  0.0710  0.2808  0.3490
  138OSM   H17S15085   4.256   5.217   4.784  3.5498 -1.2549  0.9844
  138OSM   H17T15086   4.133   5.143   4.679 -0.0896  3.1945 -3.6919
  138OSM   C18S15087   4.289   5.227   4.567 -0.3336  0.3876  0.1146
  138OSM   H18S15088   4.289   5.144   4.493 -0.6293  2.1575 -1.9821
  138OSM   H18T15089   4.386   5.277   4.590 -0.9568  1.9199 -0.5186
  138OSM   H18U15090   4.215   5.295   4.521 -0.8234  0.5626  1.1439
  138OSM    C1F15091   4.576   4.212   5.986  0.6815 -0.4012 -0.4645
  138OSM     OF15092   4.498   4.194   6.072  0.5919 -0.0397 -0.1363
  138OSM    C2F15093   4.589   4.117   5.873  0.1681 -0.1897 -0.1715
  138OSM    H2F15094   4.613   4.020   5.921  1.8790 -0.4523 -1.4599
  138OSM    H2G15095   4.680   4.143   5.814  1.0486  0.1140  1.2628
  138OSM    C3F15096   4.459   4.092   5.794  0.2080  0.3357  0.4861
  138OSM    H3F15097   4.372   4.085   5.863 -0.4708  0.9097 -0.2884
  138OSM    H3G15098   4.469   4.007   5.724  0.0830  0.2974  0.5152
  138OSM    C4F15099   4.433   4.213   5.707  0.0740 -0.7376 -0.0168
  138OSM    H4F15100   4.416   4.303   5.770 -0.8606  0.1889 -1.5286
  138OSM    H4G15101   4.338   4.187   5.655 -0.7651 -2.2432  2.1600
  138OSM    C5F15102   4.537   4.255   5.606 -0.3042 -0.1175 -0.2652
  138OSM    H5F15103   4.582   4.172   5.548  0.4212 -0.0154  0.1322
  138OSM    H5G15104   4.617   4.307   5.664 -1.1240 -0.3759  1.1554
  138OSM    C6F15105   4.469   4.341   5.494  0.2360  0.0257 -0.1331
  138OSM    H6F15106   4.549   4.410   5.460 -0.2104  1.1127  0.9846
  138OSM    H6G15107   4.389   4.397   5.546 -0.1345 -3.0290  2.9324
  138OSM    C7F15108   4.397   4.259   5.385  0.8649  0.5387  0.3708
  138OSM    H7F15109   4.322   4.197   5.438  1.2833 -1.0742 -0.8586
  138OSM    H7G15110   4.465   4.180   5.346 -1.1750 -1.5915  0.9054
  138OSM    C8F15111   4.337   4.343   5.279 -0.5305  0.0319  0.0431
  138OSM    H8F15112   4.256   4.403   5.326 -1.2450 -0.6248 -0.3384
  138OSM    H8G15113   4.284   4.275   5.209  0.0936 -0.7975  0.3605
  138OSM    C9F15114   4.434   4.434   5.208 -0.2389 -0.1418  0.2119
  138OSM    H9F15115   4.488   4.511   5.265  3.1601  0.7549 -3.7227
  138OSM   C10F15116   4.462   4.426   5.079  0.0013  0.0833  0.0129
  138OSM   H10F15117   4.512   4.516   5.040 -0.4235  0.0075 -0.7171
  138OSM   C11F15118   4.397   4.330   4.976  0.1349  0.6018 -0.1515
  138OSM   H11F15119   4.287   4.343   4.978  0.0400  0.2370 -1.7307
  138OSM   H11G15120   4.422   4.228   5.012  1.8758  1.2855  0.6841
  138OSM   C12F15121   4.449   4.345   4.831 -0.0315  0.6120  0.1818
  138OSM   H12F15122   4.406   4.257   4.779 -0.8471 -0.3708  2.3943
  138OSM   H12G15123   4.559   4.357   4.822 -0.1505  2.6291  0.8693
  138OSM   C13F15124   4.392   4.465   4.762  0.1429  0.0414  0.0300
  138OSM   H13F15125   4.391   4.554   4.828  1.3412  0.5012 -0.5432
  138OSM   H13G15126   4.284   4.448   4.741  0.1183 -1.4646  1.2365
  138OSM   C14F15127   4.475   4.518   4.641  0.0303  0.4792 -0.5729
  138OSM   H14F15128   4.476   4.427   4.579  0.6757  1.3558 -1.8870
  138OSM   H14G15129   4.580   4.537   4.672 -0.2849  0.7299  0.3759
  138OSM   C15F15130   4.423   4.630   4.568 -0.0717 -0.1861 -0.6669
  138OSM   H15F15131   4.432   4.722   4.630 -0.0866 -1.0300  0.6311
  138OSM   H15G15132   4.315   4.608   4.556  0.5658 -2.6936 -2.6357
  138OSM   C16F15133   4.487   4.648   4.436  0.2355 -0.1042 -1.1503
  138OSM   H16F15134   4.507   4.551   4.386 -0.3287 -0.6023 -0.4242
  138OSM   H16G15135   4.585   4.694   4.461  0.2377 -1.2965  1.3388
  138OSM   C17F15136   4.419   4.747   4.337  0.4586  0.6315 -0.3058
  138OSM   H17F15137   4.504   4.777   4.272  2.3381  2.0820  2.5652
  138OSM   H17G15138   4.379   4.831   4.398  0.0620 -0.7586  1.4259
  138OSM   C18F15139   4.314   4.687   4.246 -0.6300  0.7042  0.4263
  138OSM   H18F15140   4.258   4.766   4.191  0.6103  1.1363 -0.2686
  138OSM   H18G15141   4.237   4.633   4.304  0.9973 -1.9243  0.2949
  138OSM   H18H15142   4.360   4.625   4.166 -0.2902  1.6664 -0.1428
  139OSM      N15143   5.869   1.178   7.097  0.1522  0.1593  0.0938
  139OSM    C1515144   5.730   1.115   7.086 -0.4327  0.3248  0.7658
  139OSM   H15A15145   5.663   1.137   7.168  0.0391  1.6681  0.8104
  139OSM   H15B15146   5.740   1.009   7.069 -1.3804  0.3694 -0.1791
  139OSM   H15C15147   5.673   1.161   7.007 -0.1353 -0.8384 -0.1623
  139OSM    C1415148   5.845   1.330   7.111  0.3369 -0.2705 -0.5552
  139OSM   H14A15149   5.791   1.346   7.203  0.1169 -0.8640 -0.5710
  139OSM   H14B15150   5.789   1.357   7.023  0.7774  0.8459 -0.5058
  139OSM   H14C15151   5.936   1.387   7.126 -0.5172  0.8691  0.4959
  139OSM    C1315152   5.934   1.122   7.224 -0.5975  0.9965 -0.1515
  139OSM   H13A15153   5.934   1.014   7.234  0.0661  0.8890 -1.2066
  139OSM   H13B15154   5.888   1.159   7.315 -0.6306 -0.1880  0.3373
  139OSM   H13C15155   6.040   1.143   7.224 -0.2739 -0.4770  0.0211
  139OSM    C1215156   5.954   1.149   6.977 -0.0346 -0.0295  0.5642
  139OSM   H12A15157   5.913   1.203   6.893  0.9955 -1.5554 -0.9956
  139OSM   H12B15158   5.949   1.045   6.949  1.3860 -0.4505  1.7226
  139OSM    C1115159   6.099   1.190   6.995 -0.2567 -0.4599 -0.5065
  139OSM   H11A15160   6.098   1.295   7.031 -0.8735 -0.5049 -0.3905
  139OSM   H11B15161   6.142   1.195   6.893  1.2666  0.2982  0.1297
  139OSM      P15162   6.236   0.969   7.030  0.4254  0.2350  0.0019
  139OSM    O1315163   6.357   0.928   7.110  0.2062 -0.5599 -0.3575
  139OSM    O1415164   6.122   0.875   7.007 -0.4509 -0.0890 -0.3057
  139OSM    O1115165   6.283   1.019   6.892  0.0468  0.4708  0.2936
  139OSM    O1215166   6.175   1.107   7.083 -0.4003 -0.2061  0.1285
  139OSM    C1S15167   6.293   0.928   6.775 -0.2229 -0.4487 -0.1918
  139OSM    H1S15168   6.245   0.831   6.796 -1.1718  0.2957  1.2335
  139OSM    H1T15169   6.398   0.912   6.741 -0.5851 -0.1429 -1.5247
  139OSM     NF15170   6.245   0.903   6.534  0.4576 -0.3611  0.1663
  139OSM    HNF15171   6.323   0.899   6.473 -0.0187 -2.0279 -0.3945
  139OSM    C2S15172   6.241   0.994   6.648  0.1567 -0.1890 -0.8539
  139OSM    H2S15173   6.138   1.030   6.668  0.9654  0.9320  1.7857
  139OSM    C3S15174   6.326   1.124   6.619  0.5851  0.2374 -0.1591
  139OSM    H3S15175   6.426   1.095   6.581  0.5466  1.3711 -1.1739
  139OSM     O315176   6.356   1.209   6.731  0.3703 -0.0716  0.1635
  139OSM    HO315177   6.305   1.170   6.803  1.4160  0.8475  1.4454
  139OSM    C4S15178   6.243   1.199   6.515  0.1775 -0.5700 -0.0369
  139OSM    H4S15179   6.272   1.180   6.411  1.6585  2.2929 -0.2357
  139OSM    C5S15180   6.145   1.289   6.537  0.4591  0.3918  0.0576
  139OSM    H5S15181   6.115   1.317   6.639 -0.4725  0.9256 -0.3481
  139OSM    C6S15182   6.069   1.346   6.423  0.9049 -1.0748  0.6002
  139OSM    H6S15183   6.145   1.368   6.346  1.5729  1.7364  1.9012
  139OSM    H6T15184   6.015   1.438   6.455 -0.8730 -2.1414  0.8158
  139OSM    C7S15185   5.984   1.245   6.341  0.1186  0.1426  0.2951
  139OSM    H7S15186   5.904   1.218   6.414 -0.9847  0.5824 -0.7225
  139OSM    H7T15187   6.039   1.150   6.324 -1.9812 -0.8750 -1.1718
  139OSM    C8S15188   5.917   1.292   6.211 -0.3371 -0.1522 -0.3079
  139OSM    H8S15189   5.845   1.377   6.224  1.9173  1.6883  0.9365
  139OSM    H8T15190   5.855   1.208   6.172 -1.7925  0.2417  1.0556
  139OSM    C9S15191   6.010   1.336   6.094 -0.5661 -0.2397  0.3614
  139OSM    H9S15192   6.079   1.418   6.123 -1.3404  0.4525  0.2681
  139OSM    H9T15193   5.946   1.384   6.016 -1.1591  0.5213  1.2973
  139OSM   C10S15194   6.091   1.219   6.036  0.4302 -0.7967  0.2468
  139OSM   H10S15195   6.037   1.124   6.054  0.6150 -1.0772 -0.6081
  139OSM   H10T15196   6.187   1.215   6.092  0.2601  1.6920  0.8628
  139OSM   C11S15197   6.116   1.240   5.885  0.2606 -0.3345 -0.1814
  139OSM   H11S15198   6.164   1.337   5.860 -0.0829 -0.3705 -1.0082
  139OSM   H11T15199   6.020   1.243   5.830  0.7444  0.3624 -1.0095
  139OSM   C12S15200   6.203   1.125   5.828  0.4128  0.2336  0.1814
  139OSM   H12S15201   6.165   1.021   5.844  0.7342  0.0492 -0.2376
  139OSM   H12T15202   6.305   1.133   5.871  0.8386  2.2706 -1.0678
  139OSM   C13S15203   6.223   1.141   5.674  0.4584 -0.5136 -0.1732
  139OSM   H13S15204   6.323   1.111   5.635  1.1271  0.1968  0.9473
  139OSM   H13T15205   6.202   1.247   5.648 -0.7079 -1.4065 -3.3649
  139OSM   C14S15206   6.129   1.053   5.587  0.3058 -0.1298 -0.4862
  139OSM   H14S15207   6.033   1.049   5.643 -0.5147 -0.1536 -1.8641
  139OSM   H14T15208   6.184   0.956   5.583  0.1850 -0.3125  1.2782
  139OSM   C15S15209   6.115   1.103   5.439  0.3683  0.3404 -0.0841
  139OSM   H15S15210   6.210   1.093   5.383 -0.3970 -0.8071 -1.2212
  139OSM   H15T15211   6.089   1.211   5.437  0.1146  0.2840  0.1246
  139OSM   C16S15212   5.998   1.035   5.363  0.6591 -0.0446  0.1699
  139OSM   H16S15213   6.004   0.924   5.368  0.6932 -0.1157 -1.0958
  139OSM   H16T15214   5.995   1.074   5.258 -0.7274  2.5091  1.0674
  139OSM   C17S15215   5.862   1.080   5.424 -0.1977  0.9113  0.3611
  139OSM   H17S15216   5.855   1.071   5.535 -1.4979  0.4807  0.2553
  139OSM   H17T15217   5.778   1.015   5.393 -0.1887  1.0391  0.0682
  139OSM   C18S15218   5.824   1.225   5.389 -0.2569 -0.1037 -0.2423
  139OSM   H18S15219   5.719   1.243   5.420 -0.4162  1.1134 -1.3691
  139OSM   H18T15220   5.830   1.258   5.283  0.6005 -0.4781 -0.3145
  139OSM   H18U15221   5.901   1.288   5.439  0.1292 -0.7168 -0.0586
  139OSM    C1F15222   6.157   0.805   6.530 -0.2735  0.1377 -0.6768
  139OSM     OF15223   6.065   0.814   6.614  0.7745 -0.9460  0.4448
  139OSM    C2F15224   6.189   0.684   6.445 -0.0280  0.7965  0.3430
  139OSM    H2F15225   6.185   0.593   6.509 -0.5263 -0.0159 -0.7979
  139OSM    H2G15226   6.294   0.690   6.410 -0.7131 -0.3512 -2.0959
  139OSM    C3F15227   6.080   0.679   6.333  0.1663  0.2452 -0.2521
  139OSM    H3F15228   5.981   0.653   6.377  1.7754 -1.3121  2.7594
  139OSM    H3G15229   6.096   0.602   6.255  1.5064 -0.8041  1.0167
  139OSM    C4F15230   6.077   0.814   6.258 -0.6783 -0.2651 -0.2104
  139OSM    H4F15231   6.178   0.856   6.242 -1.9276  2.6723 -1.0931
  139OSM    H4G15232   6.021   0.895   6.311 -0.4004  0.5813 -1.1776
  139OSM    C5F15233   5.991   0.798   6.128  0.1305  0.1558 -0.3370
  139OSM    H5F15234   5.954   0.898   6.097  1.2019 -0.0256 -2.4312
  139OSM    H5G15235   5.899   0.747   6.163  0.2450  1.0917  1.4445
  139OSM    C6F15236   6.074   0.738   6.009 -0.5142 -0.2183 -0.2911
  139OSM    H6F15237   6.118   0.643   6.044 -0.9101 -0.9578 -1.7283
  139OSM    H6G15238   6.151   0.812   5.979 -0.8605  0.2340 -0.0900
  139OSM    C7F15239   5.988   0.704   5.886  0.6803  0.0133  0.2404
  139OSM    H7F15240   5.943   0.799   5.851 -0.1316  0.0333  1.2838
  139OSM    H7G15241   5.904   0.644   5.926 -0.4938  1.1364 -0.4658
  139OSM    C8F15242   6.057   0.645   5.762 -0.2616 -0.0840 -0.0818
  139OSM    H8F15243   6.110   0.554   5.797 -2.5357 -1.0295  1.1315
  139OSM    H8G15244   6.135   0.716   5.726 -0.1018  0.9784  2.1571
  139OSM    C9F15245   5.956   0.603   5.658 -0.4326 -0.1549  0.4131
  139OSM    H9F15246   5.863   0.566   5.703 -0.2075 -1.1599  0.0825
  139OSM   C10F15247   5.972   0.597   5.527  0.7148  0.6048  0.6277
  139OSM   H10F15248   5.894   0.547   5.468  0.8066 -0.1973  1.1644
  139OSM   C11F15249   6.107   0.636   5.465  0.1358  0.3468  0.4981
  139OSM   H11F15250   6.197   0.595   5.516  0.3237  0.9001  0.6272
  139OSM   H11G15251   6.123   0.744   5.486 -0.4849  0.4704  0.3428
  139OSM   C12F15252   6.123   0.602   5.314  0.1500 -0.0821  0.7188
  139OSM   H12F15253   6.135   0.492   5.305 -0.3070 -0.0578 -0.3277
  139OSM   H12G15254   6.220   0.643   5.280 -0.2539  1.3034  1.1720
  139OSM   C13F15255   6.012   0.653   5.215 -0.9375  0.0112 -0.2905
  139OSM   H13F15256   5.999   0.762   5.233  1.9347  0.1339  1.8320
  139OSM   H13G15257   5.918   0.598   5.238 -1.0937  1.0886  1.9350
  139OSM   C14F15258   6.044   0.625   5.069  0.0736 -0.1770 -0.1748
  139OSM   H14F15259   5.946   0.627   5.017 -0.1683  1.2257  0.3004
  139OSM   H14G15260   6.071   0.517   5.072 -2.0391 -0.7520 -0.3401
  139OSM   C15F15261   6.149   0.713   4.995  0.2943 -0.1689  0.0619
  139OSM   H15F15262   6.234   0.724   5.066 -0.0093 -1.3956  0.6412
  139OSM   H15G15263   6.111   0.817   4.982  1.0373 -0.1063 -1.9580
  139OSM   C16F15264   6.195   0.656   4.861  0.2400 -0.2411 -0.4225
  139OSM   H16F15265   6.099   0.631   4.811 -0.4046  1.1660  0.0665
  139OSM   H16G15266   6.234   0.554   4.882 -1.0045 -0.7058 -0.2597
  139OSM   C17F15267   6.288   0.744   4.777  0.4365 -0.5244  0.8306
  139OSM   H17F15268   6.393   0.759   4.812  0.9706  1.0821 -1.2738
  139OSM   H17G15269   6.242   0.845   4.775 -0.8170 -1.0750  0.8095
  139OSM   C18F15270   6.298   0.684   4.633 -0.0244  0.1987 -0.2527
  139OSM   H18F15271   6.202   0.656   4.583 -1.3485 -0.4875  2.4950
  139OSM   H18G15272   6.343   0.587   4.664 -0.8593  0.9182  3.8014
  139OSM   H18H15273   6.363   0.748   4.570 -0.3929  1.2667  0.4301
  140OSM      N15274   6.100   0.494   6.906 -0.9103 -0.5369 -0.1884
  140OSM    C1515275   6.138   0.558   6.775 -0.6265  0.1702  0.3186
  140OSM   H15A15276   6.114   0.663   6.773  2.3865  1.0539  2.6170
  140OSM   H15B15277   6.084   0.504   6.698 -1.1992  1.5579 -0.2961
  140OSM   H15C15278   6.244   0.551   6.755 -0.5756 -0.4140  0.7815
  140OSM    C1415279   6.157   0.576   7.019 -0.0178  0.0415 -0.5208
  140OSM   H14A15280   6.247   0.623   6.981 -0.5756  2.0724  0.5502
  140OSM   H14B15281   6.194   0.526   7.107  0.7765  0.1024 -0.8063
  140OSM   H14C15282   6.097   0.661   7.048  1.5063  1.1140 -0.4010
  140OSM    C1315283   5.948   0.498   6.925  0.3219 -0.5681  0.4665
  140OSM   H13A15284   5.905   0.422   6.862 -0.9751  0.8364 -0.4070
  140OSM   H13B15285   5.904   0.588   6.886  0.7291 -0.4432  0.2853
  140OSM   H13C15286   5.918   0.495   7.029 -1.1662 -0.0344  0.0757
  140OSM    C1215287   6.159   0.359   6.910 -0.0811  0.7066 -0.2021
  140OSM   H12A15288   6.267   0.360   6.900  0.0688 -3.9980 -1.6008
  140OSM   H12B15289   6.134   0.307   6.819  0.2115 -0.8854  0.6032
  140OSM    C1115290   6.121   0.258   7.022 -0.5250 -0.4372 -0.1048
  140OSM   H11A15291   6.125   0.292   7.128 -0.1933 -0.9219  0.0414
  140OSM   H11B15292   6.189   0.170   7.020 -2.3564 -2.0139  2.0057
  140OSM      P15293   5.964   0.097   6.891 -0.5106 -0.0220  0.0186
  140OSM    O1315294   6.001  -0.029   6.954 -0.1106  0.2850 -0.1326
  140OSM    O1415295   5.827   0.116   6.840 -0.3048 -0.2000  0.0205
  140OSM    O1115296   6.066   0.117   6.773 -0.1987  0.2179 -0.9152
  140OSM    O1215297   5.994   0.215   6.991 -0.2271 -0.2126 -0.6482
  140OSM    C1S15298   6.058   0.020   6.668  0.5184 -0.1647  0.2493
  140OSM    H1S15299   5.993  -0.067   6.690 -0.3094  0.4879  0.4496
  140OSM    H1T15300   6.157  -0.023   6.644  0.8859  0.3924  0.7570
  140OSM     NF15301   5.997  -0.035   6.435 -0.2753  0.4815 -0.3618
  140OSM    HNF15302   6.067  -0.040   6.364 -1.2785  1.5762 -1.4817
  140OSM    C2S15303   6.004   0.077   6.534  0.3192 -0.2846  0.8926
  140OSM    H2S15304   5.902   0.119   6.547  0.9670  1.0779  1.7856
  140OSM    C3S15305   6.092   0.194   6.480  0.1038  0.1523  0.0107
  140OSM    H3S15306   6.191   0.147   6.463  0.1190 -0.7535  2.2367
  140OSM     O315307   6.112   0.299   6.570  0.7156  0.1662 -0.2284
  140OSM    HO315308   6.076   0.269   6.654  2.1806  0.0869  0.4034
  140OSM    C4S15309   6.039   0.232   6.340  0.0900 -0.6438  0.2501
  140OSM    H4S15310   6.038   0.154   6.262  0.8882 -0.3330 -0.0849
  140OSM    C5S15311   5.944   0.335   6.330  0.8832  0.5559  0.2723
  140OSM    H5S15312   5.906   0.381   6.422 -1.6779 -1.4431  0.3292
  140OSM    C6S15313   5.857   0.358   6.210 -0.5796 -0.4379 -0.1707
  140OSM    H6S15314   5.893   0.446   6.153 -0.5112  0.7945  1.6821
  140OSM    H6T15315   5.760   0.392   6.253 -0.1005 -0.4428  0.9533
  140OSM    C7S15316   5.807   0.243   6.111 -0.1152  0.1293  0.3430
  140OSM    H7S15317   5.774   0.162   6.179 -0.2782  1.3471  1.7731
  140OSM    H7T15318   5.897   0.210   6.055 -1.1058 -2.0120 -0.0964
  140OSM    C8S15319   5.698   0.283   6.020  0.4558 -0.2035  1.2897
  140OSM    H8S15320   5.608   0.317   6.077 -0.5665  0.2866 -0.5548
  140OSM    H8T15321   5.666   0.193   5.963  2.3326 -0.5133  0.6362
  140OSM    C9S15322   5.731   0.390   5.920 -1.0888  0.4174 -0.5291
  140OSM    H9S15323   5.815   0.351   5.859  0.1206 -0.7068  1.7196
  140OSM    H9T15324   5.767   0.489   5.956 -0.4353 -0.0218  0.0594
  140OSM   C10S15325   5.623   0.418   5.816  0.3202 -0.1406  0.7066
  140OSM   H10S15326   5.654   0.513   5.767  2.8448 -0.3260  1.7701
  140OSM   H10T15327   5.534   0.460   5.868 -0.0573  0.2066 -0.2012
  140OSM   C11S15328   5.603   0.307   5.706  0.2527 -0.1692 -0.2514
  140OSM   H11S15329   5.499   0.321   5.672 -0.2361  1.4982  1.7320
  140OSM   H11T15330   5.602   0.207   5.753 -0.4497 -0.3028 -0.5458
  140OSM   C12S15331   5.703   0.324   5.587  0.0755  0.8086 -0.3832
  140OSM   H12S15332   5.809   0.312   5.618 -0.0639  3.0901  1.2602
  140OSM   H12T15333   5.687   0.428   5.551  3.1836  2.5879  2.6805
  140OSM   C13S15334   5.680   0.238   5.458 -0.0479  0.2591 -0.8072
  140OSM   H13S15335   5.571   0.218   5.451 -0.1931 -0.6801  2.4895
  140OSM   H13T15336   5.741   0.146   5.472 -1.1242 -0.1998  1.2844
  140OSM   C14S15337   5.723   0.317   5.340 -0.0737 -0.7916  0.3230
  140OSM   H14S15338   5.820   0.361   5.371 -0.7877 -0.2957  1.9559
  140OSM   H14T15339   5.647   0.395   5.317 -0.9329 -1.5147  0.6556
  140OSM   C15S15340   5.746   0.231   5.219 -0.4250 -0.3052  0.5764
  140OSM   H15S15341   5.648   0.200   5.179 -1.6459 -0.7328  3.5942
  140OSM   H15T15342   5.802   0.141   5.252 -0.1600 -1.2216 -2.1610
  140OSM   C16S15343   5.829   0.299   5.107  0.3116  0.1509 -0.2287
  140OSM   H16S15344   5.936   0.298   5.136  0.4400  0.3883 -0.6960
  140OSM   H16T15345   5.796   0.404   5.095  0.9152  0.4981  0.9349
  140OSM   C17S15346   5.821   0.223   4.975  0.1350 -0.6862  0.1614
  140OSM   H17S15347   5.713   0.214   4.947  0.1568  1.8215 -0.9754
  140OSM   H17T15348   5.851   0.120   5.005 -1.2694 -0.9108  0.9118
  140OSM   C18S15349   5.909   0.286   4.861 -0.1764  0.2243 -0.0486
  140OSM   H18S15350   6.014   0.306   4.893 -0.8353  2.6269  0.8276
  140OSM   H18T15351   5.884   0.391   4.838  1.1047  1.5804  3.9133
  140OSM   H18U15352   5.901   0.217   4.774  1.4261  0.8561 -0.7427
  140OSM    C1F15353   5.906  -0.134   6.438  0.4615  0.2732  0.2685
  140OSM     OF15354   5.806  -0.150   6.512  0.3719  0.6370  0.2667
  140OSM    C2F15355   5.934  -0.242   6.330 -0.2224 -0.1460 -0.6380
  140OSM    H2F15356   5.929  -0.339   6.382  3.0419 -0.2453 -0.2727
  140OSM    H2G15357   6.034  -0.228   6.283  0.0581  1.1377  0.2963
  140OSM    C3F15358   5.827  -0.244   6.220 -0.6802 -0.2204  0.1894
  140OSM    H3F15359   5.810  -0.140   6.185  0.8815  0.1533  0.4705
  140OSM    H3G15360   5.732  -0.281   6.263  0.1985 -0.1725  2.2784
  140OSM    C4F15361   5.874  -0.335   6.100 -0.2481  0.0894 -1.1547
  140OSM    H4F15362   5.901  -0.429   6.153 -0.5233  1.3247  1.3476
  140OSM    H4G15363   5.965  -0.297   6.049  0.9543  0.9147  1.4492
  140OSM    C5F15364   5.765  -0.359   5.999  0.3099  0.0726  0.1349
  140OSM    H5F15365   5.674  -0.386   6.058  2.0621 -0.9371  2.5483
  140OSM    H5G15366   5.799  -0.429   5.920  1.1567  0.4115  0.1907
  140OSM    C6F15367   5.749  -0.222   5.918  0.0121 -0.3636  0.1273
  140OSM    H6F15368   5.855  -0.193   5.904 -0.3778  2.4336  2.2063
  140OSM    H6G15369   5.702  -0.151   5.990  0.3081  2.2831 -2.1398
  140OSM    C7F15370   5.661  -0.243   5.792  0.0429 -0.1737  0.3336
  140OSM    H7F15371   5.553  -0.246   5.819 -0.1409  0.2639 -0.3204
  140OSM    H7G15372   5.677  -0.344   5.749 -2.6778 -1.6155  2.4099
  140OSM    C8F15373   5.672  -0.128   5.692 -0.4612 -0.5101 -0.7788
  140OSM    H8F15374   5.673  -0.037   5.757 -0.1018 -0.5067 -0.7883
  140OSM    H8G15375   5.586  -0.129   5.622  0.5363 -1.7399 -2.0335
  140OSM    C9F15376   5.795  -0.143   5.607 -0.0484 -0.5320 -0.1361
  140OSM    H9F15377   5.885  -0.111   5.661 -1.2292  1.2890  0.8550
  140OSM   C10F15378   5.807  -0.172   5.476 -0.5225 -0.8004  1.0900
  140OSM   H10F15379   5.910  -0.187   5.441 -1.5935 -0.7432 -2.4569
  140OSM   C11F15380   5.699  -0.224   5.386  0.1415 -0.2220  0.6068
  140OSM   H11F15381   5.628  -0.283   5.447 -0.0348 -1.4251 -0.6961
  140OSM   H11G15382   5.741  -0.299   5.315 -0.4907  0.6975 -0.7974
  140OSM   C12F15383   5.635  -0.118   5.298  0.2491 -0.0484  0.2226
  140OSM   H12F15384   5.707  -0.080   5.222 -0.7696 -0.5594 -1.0296
  140OSM   H12G15385   5.608  -0.040   5.372  1.5797  0.0637  0.6317
  140OSM   C13F15386   5.511  -0.159   5.233 -0.2422 -0.1464  0.4144
  140OSM   H13F15387   5.437  -0.186   5.311 -2.5981 -0.8134 -1.8972
  140OSM   H13G15388   5.536  -0.246   5.168  1.2778  0.6170 -0.0730
  140OSM   C14F15389   5.449  -0.044   5.147  0.2774  0.3121 -0.5513
  140OSM   H14F15390   5.465   0.050   5.203 -1.9076 -0.0235  0.7726
  140OSM   H14G15391   5.340  -0.069   5.152  0.2631  0.5452  0.5558
  140OSM   C15F15392   5.497  -0.056   5.003  0.1711 -0.0488 -0.5497
  140OSM   H15F15393   5.470  -0.157   4.966  1.0835 -0.5117  0.0198
  140OSM   H15G15394   5.608  -0.051   5.003  0.3587 -1.0078  3.4487
  140OSM   C16F15395   5.442   0.047   4.908 -0.1783 -0.2003 -0.3065
  140OSM   H16F15396   5.463   0.145   4.956 -0.6154  0.5555 -1.6280
  140OSM   H16G15397   5.333   0.037   4.889 -0.6647  3.0100  0.1733
  140OSM   C17F15398   5.525   0.023   4.776  0.6773 -0.5978  0.1613
  140OSM   H17F15399   5.488  -0.073   4.732 -1.4603 -0.1304  0.7985
  140OSM   H17G15400   5.630   0.000   4.804  0.4805  0.1195  1.5518
  140OSM   C18F15401   5.520   0.139   4.677  0.0659  0.3438 -0.3956
  140OSM   H18F15402   5.415   0.162   4.649  0.3230  0.6891 -1.0958
  140OSM   H18G15403   5.590   0.115   4.594 -1.3713  0.7866 -1.7620
  140OSM   H18H15404   5.570   0.229   4.718 -0.6690 -0.0238  1.4316
  141OSM      N15405   4.855   6.873   6.764 -0.7039  0.6204  0.2579
  141OSM    C1515406   4.948   6.880   6.648  0.1102  0.4383 -0.3620
  141OSM   H15A15407   4.902   6.920   6.559 -0.0410  1.3267  0.0944
  141OSM   H15B15408   4.991   6.784   6.627 -0.4899  0.2844 -0.9258
  141OSM   H15C15409   5.031   6.944   6.674  0.2824  0.1833 -0.2820
  141OSM    C1415410   4.801   7.010   6.779 -0.0089  0.1142  0.3508
  141OSM   H14A15411   4.878   7.085   6.790  0.9395 -1.0009  2.1002
  141OSM   H14B15412   4.731   7.014   6.861 -0.8237 -0.2789 -0.3192
  141OSM   H14C15413   4.747   7.030   6.688  0.3249  1.1144  0.3676
  141OSM    C1315414   4.746   6.776   6.757  0.1394  0.0351 -0.1862
  141OSM   H13A15415   4.701   6.765   6.659  0.6597 -0.0612 -0.4183
  141OSM   H13B15416   4.668   6.801   6.828 -0.4147 -1.7817 -0.1054
  141OSM   H13C15417   4.775   6.674   6.777 -5.1197 -1.7161 -0.0100
  141OSM    C1215418   4.936   6.838   6.892  0.3982 -0.3065 -0.2039
  141OSM   H12A15419   4.866   6.830   6.973  3.1206 -0.4750  2.3017
  141OSM   H12B15420   5.009   6.910   6.925  0.2997 -0.1490 -0.3265
  141OSM    C1115421   5.009   6.703   6.894 -0.2551  0.0852 -0.1105
  141OSM   H11A15422   4.948   6.611   6.880 -1.2989  0.4393  1.7474
  141OSM   H11B15423   5.039   6.703   7.001  1.1624  0.1724 -0.4873
  141OSM      P15424   5.240   6.796   6.845  0.2244  0.2867  0.1529
  141OSM    O1315425   5.200   6.936   6.830  0.5011 -0.0792  0.5101
  141OSM    O1415426   5.294   6.752   6.971  0.3286  0.1395  0.3394
  141OSM    O1115427   5.353   6.766   6.735  0.1453  0.2532  0.2017
  141OSM    O1215428   5.123   6.700   6.806  1.0008  0.0502  0.3865
  141OSM    C1S15429   5.325   6.783   6.597  0.2547  0.4877 -0.5084
  141OSM    H1S15430   5.339   6.890   6.570 -0.5657  0.7666  0.1328
  141OSM    H1T15431   5.223   6.747   6.574  0.5217 -1.4720  1.1093
  141OSM     NF15432   5.395   6.723   6.369 -0.5392  0.4204 -0.1964
  141OSM    HNF15433   5.371   6.642   6.316  2.3150 -3.6463  3.9618
  141OSM    C2S15434   5.422   6.695   6.505 -0.0132  0.1169  0.5432
  141OSM    H2S15435   5.528   6.718   6.529  0.3766 -0.0272 -0.9486
  141OSM    C3S15436   5.416   6.547   6.551  0.0354  0.4007  0.5762
  141OSM    H3S15437   5.312   6.511   6.540 -0.0311 -0.0129  2.3550
  141OSM     O315438   5.448   6.516   6.686  0.9568 -0.5436  0.1165
  141OSM    HO315439   5.450   6.601   6.732 -0.4092  0.0602 -0.8580
  141OSM    C4S15440   5.514   6.466   6.466  0.2060 -0.1982  0.6497
  141OSM    H4S15441   5.459   6.437   6.376 -5.2185  1.4747  2.9859
  141OSM    C5S15442   5.641   6.433   6.483 -0.1564 -0.4122  0.1062
  141OSM    H5S15443   5.689   6.457   6.579 -0.0123 -1.5133  0.3145
  141OSM    C6S15444   5.720   6.349   6.381 -0.0969  0.2372 -1.3132
  141OSM    H6S15445   5.760   6.263   6.439  0.9745  1.6186  0.0964
  141OSM    H6T15446   5.814   6.400   6.350  1.4416 -1.4083  0.4277
  141OSM    C7S15447   5.641   6.305   6.252 -0.6163 -1.0537 -1.1031
  141OSM    H7S15448   5.586   6.387   6.200  0.5445 -0.9097 -2.1439
  141OSM    H7T15449   5.561   6.243   6.299  0.8878 -0.4667  2.5344
  141OSM    C8S15450   5.735   6.225   6.164 -0.1180 -0.0523 -0.4976
  141OSM    H8S15451   5.792   6.164   6.237  4.2352  3.2072 -0.7492
  141OSM    H8T15452   5.809   6.294   6.119  0.3997  0.8042  1.5645
  141OSM    C9S15453   5.671   6.142   6.051  0.2965 -0.1917  0.0925
  141OSM    H9S15454   5.574   6.191   6.025 -0.2160 -0.5878  1.1783
  141OSM    H9T15455   5.627   6.044   6.080 -1.6952  0.9422  1.1688
  141OSM   C10S15456   5.758   6.125   5.934 -0.2975  0.2407  0.0338
  141OSM   H10S15457   5.843   6.053   5.940 -0.7299 -0.2011  1.1871
  141OSM   H10T15458   5.824   6.213   5.916 -0.6893  0.7005  0.7759
  141OSM   C11S15459   5.689   6.100   5.793 -0.0153 -0.2268  0.1541
  141OSM   H11S15460   5.630   6.191   5.771  0.9101  0.5673  0.8330
  141OSM   H11T15461   5.620   6.013   5.800  2.4034 -2.3913 -1.0019
  141OSM   C12S15462   5.778   6.074   5.669 -1.0481 -0.4186  0.1959
  141OSM   H12S15463   5.794   5.965   5.660 -2.5705 -0.7781  1.3935
  141OSM   H12T15464   5.875   6.121   5.699 -2.0848  1.3609  0.9371
  141OSM   C13S15465   5.712   6.128   5.537 -1.0942 -0.7790 -0.3760
  141OSM   H13S15466   5.691   6.237   5.545  2.4648 -0.0479  1.3039
  141OSM   H13T15467   5.620   6.069   5.520 -0.9339 -1.4493  0.9512
  141OSM   C14S15468   5.805   6.120   5.412  0.2188 -0.3832  0.0570
  141OSM   H14S15469   5.820   6.012   5.388  1.2244 -0.3171  0.3491
  141OSM   H14T15470   5.906   6.157   5.439  0.9260 -1.5147 -0.9183
  141OSM   C15S15471   5.744   6.186   5.291  0.2493 -0.2398  0.3267
  141OSM   H15S15472   5.718   6.289   5.322 -0.3384  0.0899 -1.1920
  141OSM   H15T15473   5.651   6.132   5.264 -0.5126  1.8258 -1.4673
  141OSM   C16S15474   5.825   6.218   5.160 -0.0394 -0.0088 -0.3721
  141OSM   H16S15475   5.850   6.125   5.105  1.0494 -0.2541  0.5036
  141OSM   H16T15476   5.916   6.262   5.206  0.6310 -2.1261  0.4448
  141OSM   C17S15477   5.742   6.303   5.062  0.1087  0.1530 -0.2721
  141OSM   H17S15478   5.808   6.323   4.975 -1.3770  1.6403 -1.1284
  141OSM   H17T15479   5.713   6.394   5.118 -3.2387 -0.3661 -0.9509
  141OSM   C18S15480   5.617   6.228   5.004 -0.3844  0.2273  0.7147
  141OSM   H18S15481   5.572   6.299   4.932  0.7903 -0.2550 -0.5303
  141OSM   H18T15482   5.542   6.211   5.084 -0.6814  0.8895  0.5841
  141OSM   H18U15483   5.643   6.130   4.960 -0.3787 -0.0275  1.2735
  141OSM    C1F15484   5.427   6.841   6.315 -0.1701  0.9571 -0.4985
  141OSM     OF15485   5.460   6.938   6.381 -0.0140 -0.6727  0.5116
  141OSM    C2F15486   5.431   6.845   6.165  0.0043 -0.0502 -0.7643
  141OSM    H2F15487   5.413   6.743   6.125  1.6719 -0.4806 -0.4875
  141OSM    H2G15488   5.524   6.898   6.134 -0.8114  1.8071 -0.1760
  141OSM    C3F15489   5.330   6.945   6.105  0.1704 -0.5944  0.5991
  141OSM    H3F15490   5.365   7.042   6.147  0.3971  0.3203 -1.5523
  141OSM    H3G15491   5.226   6.927   6.142 -1.3368 -0.5697 -3.1735
  141OSM    C4F15492   5.340   6.959   5.953 -0.3979  0.3910  0.0007
  141OSM    H4F15493   5.289   6.871   5.907 -0.2976 -0.2955  1.1808
  141OSM    H4G15494   5.444   6.962   5.914 -0.3658  0.8191  0.1067
  141OSM    C5F15495   5.264   7.086   5.901 -0.2233  0.3419  0.1006
  141OSM    H5F15496   5.307   7.178   5.945 -1.8347  2.0657 -1.7408
  141OSM    H5G15497   5.159   7.084   5.938 -0.1708  1.0663  0.2997
  141OSM    C6F15498   5.243   7.092   5.748 -0.1695 -0.3461 -0.5897
  141OSM    H6F15499   5.197   6.997   5.712 -1.1489  0.0018 -0.2896
  141OSM    H6G15500   5.342   7.089   5.697  0.7880 -1.4053  1.2042
  141OSM    C7F15501   5.183   7.229   5.700  0.0576  0.1426  0.0735
  141OSM    H7F15502   5.244   7.312   5.743  2.0308 -2.0821  1.8939
  141OSM    H7G15503   5.087   7.235   5.755 -0.8876 -0.2286 -1.4857
  141OSM    C8F15504   5.182   7.242   5.550 -1.0701  0.6630 -0.7522
  141OSM    H8F15505   5.128   7.166   5.491 -1.2417  0.9940 -1.0238
  141OSM    H8G15506   5.287   7.228   5.516 -0.5007  1.4523  0.5958
  141OSM    C9F15507   5.120   7.375   5.509 -0.0858  0.2165  0.0043
  141OSM    H9F15508   5.056   7.408   5.593  0.8170  1.2166  0.3170
  141OSM   C10F15509   5.142   7.440   5.392 -0.2359 -0.3353  0.0173
  141OSM   H10F15510   5.082   7.529   5.369  0.2286  0.5962  2.1390
  141OSM   C11F15511   5.243   7.412   5.282  0.3926  0.8337  0.0603
  141OSM   H11F15512   5.301   7.320   5.307  2.2343  0.8434 -3.4794
  141OSM   H11G15513   5.323   7.489   5.294  1.8506 -0.5351 -0.4851
  141OSM   C12F15514   5.190   7.411   5.141 -0.1414  0.1649 -0.1108
  141OSM   H12F15515   5.165   7.517   5.120 -1.0072 -0.6851 -4.3829
  141OSM   H12G15516   5.097   7.350   5.133 -0.2371  0.4687 -1.5659
  141OSM   C13F15517   5.300   7.364   5.046  0.2941 -0.1818 -0.0187
  141OSM   H13F15518   5.249   7.390   4.951 -0.7155  2.8734  1.2612
  141OSM   H13G15519   5.315   7.254   5.049  0.9991 -0.0943 -0.1496
  141OSM   C14F15520   5.430   7.444   5.055  0.2223 -0.1857 -0.0214
  141OSM   H14F15521   5.509   7.386   5.108  2.3930  0.7839 -2.0242
  141OSM   H14G15522   5.406   7.546   5.091 -2.3492 -0.2841 -1.2678
  141OSM   C15F15523   5.484   7.475   4.919  0.1085 -0.6897 -0.1726
  141OSM   H15F15524   5.403   7.522   4.860  2.0952 -0.2734 -2.7292
  141OSM   H15G15525   5.510   7.380   4.868  0.2573  0.5790 -2.5618
  141OSM   C16F15526   5.611   7.563   4.903 -0.1294 -0.1701 -0.4988
  141OSM   H16F15527   5.689   7.534   4.977 -0.0816 -0.5809 -0.7116
  141OSM   H16G15528   5.583   7.669   4.923 -0.7970 -0.3227 -0.6240
  141OSM   C17F15529   5.663   7.550   4.762 -0.3827 -0.3122  0.2552
  141OSM   H17F15530   5.593   7.599   4.692 -0.6065  3.2527  2.7173
  141OSM   H17G15531   5.664   7.443   4.732  1.4243 -0.3011  0.1234
  141OSM   C18F15532   5.808   7.600   4.732 -0.2524 -0.6893  0.0368
  141OSM   H18F15533   5.886   7.536   4.778  0.4272 -0.7698 -1.1656
  141OSM   H18G15534   5.823   7.697   4.783  1.0838 -1.6938  1.6762
  141OSM   H18H15535   5.820   7.617   4.623 -0.3874  1.4593  0.3147
  142OSM      N15536   4.976   5.327   7.025 -0.0502  0.7890  0.2138
  142OSM    C1515537   4.843   5.378   7.070  0.2092 -0.8944 -0.2661
  142OSM   H15A15538   4.803   5.329   7.157  0.0872  1.1875  0.9226
  142OSM   H15B15539   4.773   5.385   6.988 -0.2427  1.7198  0.2582
  142OSM   H15C15540   4.861   5.475   7.114  0.0944 -1.6745  1.5921
  142OSM    C1415541   5.033   5.419   6.912 -0.6617  0.1203  0.1488
  142OSM   H14A15542   4.963   5.448   6.835  0.9900  1.2937 -0.9888
  142OSM   H14B15543   5.117   5.370   6.865  0.9289  3.0759 -0.3333
  142OSM   H14C15544   5.078   5.514   6.939  0.9911 -0.6263  0.1483
  142OSM    C1315545   5.073   5.326   7.137 -0.9033 -0.0967  0.0545
  142OSM   H13A15546   5.172   5.288   7.116 -0.9036  0.1005 -0.3146
  142OSM   H13B15547   5.030   5.277   7.222 -3.7219 -1.4351 -2.0059
  142OSM   H13C15548   5.088   5.428   7.170  1.7104 -0.2185 -0.5211
  142OSM    C1215549   4.947   5.180   6.973 -0.1446 -0.6004 -0.8301
  142OSM   H12A15550   4.873   5.190   6.894  0.8009  2.7213 -1.4694
  142OSM   H12B15551   4.890   5.131   7.050 -1.6782  2.0630 -0.1412
  142OSM    C1115552   5.069   5.107   6.922  0.0472  0.2752 -0.1465
  142OSM   H11A15553   5.044   5.000   6.934 -1.9869  0.7834  0.5385
  142OSM   H11B15554   5.157   5.124   6.987  0.3196  2.3373 -0.9595
  142OSM      P15555   4.988   5.090   6.672  0.2413  0.0306 -0.1781
  142OSM    O1315556   4.978   4.940   6.667  0.6733 -0.4407  0.2346
  142OSM    O1415557   4.865   5.163   6.703  0.4594  0.4092 -0.1595
  142OSM    O1115558   5.040   5.149   6.535 -0.2440  0.3002 -0.3076
  142OSM    O1215559   5.097   5.139   6.780  0.2832 -0.5556 -0.7474
  142OSM    C1S15560   5.154   5.078   6.472 -0.0201  0.2684 -0.1608
  142OSM    H1S15561   5.144   4.967   6.472 -0.8591  0.3388 -0.3566
  142OSM    H1T15562   5.251   5.089   6.526  0.5978 -2.8669 -0.4146
  142OSM     NF15563   5.271   5.012   6.255 -0.5225 -0.4498 -0.3719
  142OSM    HNF15564   5.364   5.046   6.261 -0.6709  0.4714 -2.4417
  142OSM    C2S15565   5.176   5.107   6.318 -0.7295  0.4474  0.0625
  142OSM    H2S15566   5.076   5.099   6.272  0.4884  0.8562 -2.9103
  142OSM    C3S15567   5.226   5.252   6.310  0.0700 -0.4975  0.1988
  142OSM    H3S15568   5.329   5.254   6.353 -0.3908  1.0605  1.3462
  142OSM     O315569   5.148   5.345   6.394  0.0145 -0.2347 -0.1420
  142OSM    HO315570   5.108   5.291   6.463  1.3561 -0.9216  0.1171
  142OSM    C4S15571   5.234   5.286   6.162 -0.2212  0.3195 -0.0605
  142OSM    H4S15572   5.324   5.259   6.104 -0.3220 -0.4958  0.1544
  142OSM    C5S15573   5.142   5.358   6.094 -0.2403  1.0216 -0.4679
  142OSM    H5S15574   5.056   5.398   6.149 -0.2799  0.4813 -0.1242
  142OSM    C6S15575   5.149   5.403   5.949  0.6279 -0.1708  0.5046
  142OSM    H6S15576   5.173   5.511   5.947  1.9940 -0.4326  1.3267
  142OSM    H6T15577   5.052   5.394   5.896  0.6109  2.6451 -0.1078
  142OSM    C7S15578   5.255   5.327   5.869  0.8096  0.0613 -0.2469
  142OSM    H7S15579   5.246   5.216   5.872  1.7928 -0.0518  3.9675
  142OSM    H7T15580   5.360   5.358   5.887  0.6431  0.1378  0.5959
  142OSM    C8S15581   5.241   5.367   5.718 -0.2604  0.3728  0.3935
  142OSM    H8S15582   5.240   5.478   5.711  0.9982  0.4092  0.5730
  142OSM    H8T15583   5.139   5.331   5.692 -0.8081  1.0168  1.5209
  142OSM    C9S15584   5.346   5.305   5.619 -0.2046  0.6850 -0.5409
  142OSM    H9S15585   5.318   5.198   5.608 -0.6124  0.6948  0.3300
  142OSM    H9T15586   5.453   5.311   5.649 -0.9900 -0.3606  2.9687
  142OSM   C10S15587   5.334   5.366   5.476 -0.3384  0.4092 -0.2524
  142OSM   H10S15588   5.429   5.338   5.426  0.3958  1.4945  0.5085
  142OSM   H10T15589   5.331   5.477   5.478 -1.2944  0.3892  1.2058
  142OSM   C11S15590   5.212   5.314   5.396 -0.3006 -0.1783  0.2284
  142OSM   H11S15591   5.119   5.358   5.437 -0.6125 -0.2983 -0.3361
  142OSM   H11T15592   5.193   5.205   5.406  1.8227 -0.5245  0.9618
  142OSM   C12S15593   5.229   5.344   5.245 -0.2171 -0.7811  0.1628
  142OSM   H12S15594   5.247   5.247   5.194  0.6874  0.4243 -1.9548
  142OSM   H12T15595   5.309   5.417   5.221  0.4497 -1.2373  0.9388
  142OSM   C13S15596   5.101   5.395   5.185  0.3263 -0.2936  0.1466
  142OSM   H13S15597   5.085   5.495   5.232 -1.2092 -1.1267  1.4704
  142OSM   H13T15598   5.008   5.334   5.187  1.4027 -2.0302 -0.5700
  142OSM   C14S15599   5.117   5.432   5.033 -0.4577 -0.0842 -0.1126
  142OSM   H14S15600   5.148   5.337   4.984  1.7804  0.3303  0.4045
  142OSM   H14T15601   5.206   5.496   5.019 -0.6088  0.3310  0.7771
  142OSM   C15S15602   5.002   5.485   4.953  0.8009  0.6221 -0.3943
  142OSM   H15S15603   4.978   5.585   4.997  2.4037  0.6985  0.3848
  142OSM   H15T15604   4.915   5.424   4.985  2.0187 -0.7596  0.4236
  142OSM   C16S15605   5.025   5.481   4.798  0.2733  0.2249 -0.2503
  142OSM   H16S15606   5.049   5.377   4.768 -1.5632 -0.3920  0.3238
  142OSM   H16T15607   5.118   5.537   4.773 -0.8433  1.9130 -0.8284
  142OSM   C17S15608   4.906   5.544   4.716 -0.2887  0.0941  0.0268
  142OSM   H17S15609   4.880   5.636   4.772 -1.1105 -0.9797  1.4999
  142OSM   H17T15610   4.824   5.470   4.729 -0.1914  0.0782  0.5755
  142OSM   C18S15611   4.929   5.570   4.572 -0.6150 -0.1107 -0.3500
  142OSM   H18S15612   4.839   5.613   4.522  0.1200  3.1905  0.9149
  142OSM   H18T15613   4.967   5.479   4.521  1.7585 -0.7444  2.2862
  142OSM   H18U15614   5.011   5.644   4.575 -0.0218 -0.7334 -1.0396
  142OSM    C1F15615   5.252   4.881   6.235  0.6743 -0.8603 -0.2365
  142OSM     OF15616   5.138   4.837   6.248  0.1838 -0.1799 -0.2724
  142OSM    C2F15617   5.371   4.793   6.206 -0.5086  0.3202  0.8686
  142OSM    H2F15618   5.402   4.757   6.307 -1.4110 -0.5636  0.8446
  142OSM    H2G15619   5.450   4.850   6.154 -2.4501  0.6823 -1.8524
  142OSM    C3F15620   5.332   4.661   6.128  0.4668 -0.4600 -0.5543
  142OSM    H3F15621   5.269   4.602   6.198  1.4662 -1.5885 -0.5869
  142OSM    H3G15622   5.419   4.595   6.109  0.1645 -1.1873  0.5322
  142OSM    C4F15623   5.259   4.691   5.995 -0.0053  0.0273 -0.5874
  142OSM    H4F15624   5.157   4.729   6.013  0.1672  0.3648 -0.3067
  142OSM    H4G15625   5.247   4.595   5.940  2.6123 -0.5007 -0.4020
  142OSM    C5F15626   5.333   4.793   5.914  0.5404  0.1030  0.9498
  142OSM    H5F15627   5.436   4.759   5.888  0.2293 -0.6104  0.6361
  142OSM    H5G15628   5.350   4.886   5.972 -1.4949  0.4560  1.0485
  142OSM    C6F15629   5.256   4.825   5.779 -0.0882 -0.3319 -0.0493
  142OSM    H6F15630   5.163   4.875   5.814  0.0593  0.5487 -0.8747
  142OSM    H6G15631   5.236   4.734   5.718 -0.3918 -0.3710  0.1057
  142OSM    C7F15632   5.336   4.918   5.679  0.2130 -0.8352 -0.3515
  142OSM    H7F15633   5.381   5.004   5.734  3.3343 -0.6799 -2.8908
  142OSM    H7G15634   5.249   4.954   5.620 -0.0056 -0.2845  0.2861
  142OSM    C8F15635   5.427   4.839   5.588  0.1489  0.3805  0.4959
  142OSM    H8F15636   5.361   4.766   5.535 -2.7431  3.3935 -0.4060
  142OSM    H8G15637   5.497   4.779   5.649  0.1839  0.8533  0.9247
  142OSM    C9F15638   5.498   4.919   5.482  0.5594  0.7948  0.1065
  142OSM    H9F15639   5.604   4.934   5.506  0.2083  1.5908  1.3202
  142OSM   C10F15640   5.445   4.952   5.358 -0.6630  0.4352 -0.6865
  142OSM   H10F15641   5.510   5.006   5.287  1.8639 -0.4767  0.7783
  142OSM   C11F15642   5.309   4.919   5.310  0.6000  0.8126  0.1814
  142OSM   H11F15643   5.228   4.979   5.357  1.9713  1.9428  1.1645
  142OSM   H11G15644   5.290   4.813   5.334  0.4688  0.0447 -2.8618
  142OSM   C12F15645   5.287   4.928   5.163  0.3626  0.8150  0.0532
  142OSM   H12F15646   5.264   5.036   5.146 -0.4776  1.1542  2.8164
  142OSM   H12G15647   5.192   4.879   5.135  1.7875 -1.2636 -1.3975
  142OSM   C13F15648   5.397   4.874   5.067 -0.2960 -0.2095  0.0441
  142OSM   H13F15649   5.400   4.764   5.076 -2.8746 -0.3351  0.0655
  142OSM   H13G15650   5.493   4.917   5.105  0.3034 -0.4888 -1.1262
  142OSM   C14F15651   5.383   4.928   4.926  0.3551  0.2549  0.7185
  142OSM   H14F15652   5.470   4.894   4.866 -0.8374 -2.0893  0.2020
  142OSM   H14G15653   5.393   5.038   4.934 -0.4204  0.3816  0.0539
  142OSM   C15F15654   5.251   4.914   4.848  0.6149 -0.3513 -0.2381
  142OSM   H15F15655   5.172   4.954   4.915  1.2887 -1.1815  1.1193
  142OSM   H15G15656   5.234   4.805   4.830 -0.2069 -0.7236  2.3332
  142OSM   C16F15657   5.249   4.995   4.723 -0.0124 -0.0415  0.1699
  142OSM   H16F15658   5.156   4.969   4.668 -0.7037  0.8764  0.8847
  142OSM   H16G15659   5.332   4.952   4.662  0.7299  1.3988  0.1352
  142OSM   C17F15660   5.273   5.146   4.739  0.3436 -0.5910  0.4860
  142OSM   H17F15661   5.380   5.164   4.758 -0.2011 -0.4498  4.0179
  142OSM   H17G15662   5.226   5.191   4.829 -0.2922 -0.8431  0.2934
  142OSM   C18F15663   5.227   5.215   4.611 -0.3374  0.0502  0.1969
  142OSM   H18F15664   5.271   5.194   4.511 -1.6243  1.1975 -0.6472
  142OSM   H18G15665   5.248   5.324   4.610  2.4110 -0.4106 -0.2177
  142OSM   H18H15666   5.120   5.194   4.591  0.1804 -1.5073 -1.1680
  143OSM      N15667   1.767   0.054   6.675  0.0335 -0.4539 -0.0188
  143OSM    C1515668   1.700  -0.056   6.752 -0.4051 -0.2238  0.5205
  143OSM   H15A15669   1.608  -0.088   6.706 -0.5666  0.6122  0.2571
  143OSM   H15B15670   1.671  -0.024   6.851  0.6162  0.4534  0.6153
  143OSM   H15C15671   1.761  -0.145   6.755 -0.9398 -0.6299 -0.2740
  143OSM    C1415672   1.876   0.125   6.755  0.3138  0.8467  0.1178
  143OSM   H14A15673   1.845   0.158   6.853  0.3421 -0.3488  0.5444
  143OSM   H14B15674   1.901   0.217   6.703  0.6387  0.3313 -0.6505
  143OSM   H14C15675   1.967   0.067   6.753  0.1105  0.5453 -0.7704
  143OSM    C1315676   1.828  -0.002   6.551 -0.3275  0.1640 -0.5162
  143OSM   H13A15677   1.871   0.070   6.483 -0.6986 -0.2448 -1.1872
  143OSM   H13B15678   1.756  -0.053   6.490 -1.5762  0.5389  0.5912
  143OSM   H13C15679   1.910  -0.066   6.580 -0.1906  0.6939  0.3139
  143OSM    C1215680   1.660   0.153   6.628  0.0369 -0.0012  0.2823
  143OSM   H12A15681   1.616   0.186   6.721 -2.2694 -1.4818 -0.2196
  143OSM   H12B15682   1.583   0.097   6.577 -1.8788  1.0065  1.9287
  143OSM    C1115683   1.698   0.280   6.543  0.4756  0.4072 -0.3461
  143OSM   H11A15684   1.607   0.341   6.526  0.2899  0.8337  1.9343
  143OSM   H11B15685   1.730   0.241   6.444  0.9013 -1.2891  0.4146
  143OSM      P15686   1.767   0.473   6.693 -0.4937  0.0754 -0.0310
  143OSM    O1315687   1.683   0.410   6.798 -0.1476 -0.4156 -0.5120
  143OSM    O1415688   1.885   0.548   6.744  0.3319 -0.1831  0.3100
  143OSM    O1115689   1.680   0.562   6.605  0.5991 -1.2195 -0.1729
  143OSM    O1215690   1.811   0.359   6.594  0.0285 -0.2303 -0.0237
  143OSM    C1S15691   1.733   0.627   6.484  0.2150  0.4471 -0.4767
  143OSM    H1S15692   1.753   0.554   6.403 -0.0955  0.1755 -0.3089
  143OSM    H1T15693   1.825   0.685   6.506 -0.8177  2.5832 -1.4949
  143OSM     NF15694   1.672   0.746   6.271  0.3386 -1.0369  0.4141
  143OSM    HNF15695   1.737   0.821   6.268 -2.8124  1.9653 -2.8794
  143OSM    C2S15696   1.627   0.716   6.407  0.3940 -0.0745  0.5404
  143OSM    H2S15697   1.539   0.650   6.396  0.1816 -0.1074  2.2215
  143OSM    C3S15698   1.603   0.836   6.507 -0.0703  0.5498 -0.3554
  143OSM    H3S15699   1.701   0.884   6.526  0.6187 -0.8572 -0.2295
  143OSM     O315700   1.556   0.797   6.639 -0.3565 -0.1332 -0.2308
  143OSM    HO315701   1.573   0.703   6.636 -0.3275 -0.1169 -1.4258
  143OSM    C4S15702   1.505   0.939   6.452  0.7829  0.3423  0.2775
  143OSM    H4S15703   1.419   0.885   6.409  1.7756 -1.0578 -0.0225
  143OSM    C5S15704   1.510   1.073   6.450 -0.6628 -0.0885 -0.1060
  143OSM    H5S15705   1.592   1.120   6.506  0.0775 -2.0671  0.5858
  143OSM    C6S15706   1.412   1.172   6.401 -0.0769 -0.6587 -0.0407
  143OSM    H6S15707   1.411   1.257   6.472  1.8032  1.2378 -2.1197
  143OSM    H6T15708   1.310   1.131   6.387  0.5755 -2.3409 -0.1819
  143OSM    C7S15709   1.450   1.223   6.258  0.3003  0.5696 -0.3088
  143OSM    H7S15710   1.448   1.142   6.182 -1.8179  1.3612 -1.1556
  143OSM    H7T15711   1.557   1.254   6.257  0.4758  0.0078 -0.0032
  143OSM    C8S15712   1.363   1.332   6.194  0.2606  0.7124  0.5968
  143OSM    H8S15713   1.376   1.408   6.274 -0.8908  0.5540  0.9509
  143OSM    H8T15714   1.258   1.295   6.194  0.7418 -0.7882 -1.2290
  143OSM    C9S15715   1.410   1.371   6.056 -0.3050  0.4894  0.3078
  143OSM    H9S15716   1.403   1.281   5.990 -1.8642  0.5012  0.4297
  143OSM    H9T15717   1.515   1.402   6.074 -0.1568  1.6956 -2.2505
  143OSM   C10S15718   1.325   1.484   5.997  0.2458 -0.1001 -0.1724
  143OSM   H10S15719   1.331   1.569   6.068 -1.0140  0.8168 -1.1098
  143OSM   H10T15720   1.222   1.444   5.984 -1.7124  3.6045  2.1830
  143OSM   C11S15721   1.378   1.550   5.867  0.5586 -0.3305 -0.0571
  143OSM   H11S15722   1.478   1.595   5.881  0.5037 -0.3436  0.4044
  143OSM   H11T15723   1.310   1.631   5.835  0.2303 -0.5952 -0.0402
  143OSM   C12S15724   1.377   1.451   5.758 -0.2734 -0.7782  0.3512
  143OSM   H12S15725   1.274   1.410   5.756 -0.5965  0.0109 -1.2740
  143OSM   H12T15726   1.456   1.374   5.773  2.6138  1.5464 -1.5690
  143OSM   C13S15727   1.404   1.500   5.614  0.7295  0.0097 -0.0586
  143OSM   H13S15728   1.417   1.404   5.560 -0.9674 -0.1526 -0.2184
  143OSM   H13T15729   1.504   1.549   5.604  1.0871 -0.4256  1.2443
  143OSM   C14S15730   1.295   1.582   5.553  0.1789 -0.6629  0.2036
  143OSM   H14S15731   1.312   1.690   5.571 -1.0036  0.1623 -2.9265
  143OSM   H14T15732   1.188   1.558   5.572 -0.0400  0.5986  0.6006
  143OSM   C15S15733   1.303   1.572   5.394 -0.3194  0.1311  0.6090
  143OSM   H15S15734   1.234   1.641   5.341  1.5188  1.3225 -0.3284
  143OSM   H15T15735   1.276   1.473   5.350 -0.4539  1.7709 -3.4088
  143OSM   C16S15736   1.441   1.608   5.326 -0.1448 -0.3055  0.5966
  143OSM   H16S15737   1.532   1.559   5.367  0.2037  0.6303  0.9869
  143OSM   H16T15738   1.452   1.717   5.345  0.5137  0.1313 -1.8445
  143OSM   C17S15739   1.428   1.613   5.173  0.2268 -0.2026 -0.0820
  143OSM   H17S15740   1.523   1.665   5.145 -0.6938  1.5030 -0.2147
  143OSM   H17T15741   1.352   1.687   5.140  1.8240  1.0810 -1.0734
  143OSM   C18S15742   1.408   1.476   5.106  0.3703 -0.6852  0.3150
  143OSM   H18S15743   1.302   1.448   5.121 -0.3445  0.0985 -2.6199
  143OSM   H18T15744   1.477   1.398   5.146  1.4232  0.7653  1.4625
  143OSM   H18U15745   1.434   1.491   4.999 -0.1947  1.3990  0.4309
  143OSM    C1F15746   1.671   0.658   6.165  0.5506  0.2102  0.1071
  143OSM     OF15747   1.626   0.548   6.178  0.2183  0.2587  0.4060
  143OSM    C2F15748   1.722   0.717   6.038 -0.3030  0.3660  0.4183
  143OSM    H2F15749   1.816   0.669   6.004 -0.7665  0.2227 -0.6785
  143OSM    H2G15750   1.752   0.823   6.051  0.3975  0.2145  0.0294
  143OSM    C3F15751   1.614   0.703   5.926 -0.7404  0.2663 -0.3853
  143OSM    H3F15752   1.516   0.731   5.970 -0.6670 -1.8198  1.2316
  143OSM    H3G15753   1.606   0.600   5.886 -1.8166  0.1409  0.1265
  143OSM    C4F15754   1.645   0.802   5.815 -0.1322 -0.5434  0.3110
  143OSM    H4F15755   1.748   0.794   5.775 -0.7797 -1.3723 -1.2678
  143OSM    H4G15756   1.609   0.903   5.846 -3.9908 -1.1149 -1.7056
  143OSM    C5F15757   1.554   0.786   5.687  0.3652  0.1389 -0.2469
  143OSM    H5F15758   1.452   0.790   5.730  1.9265 -0.7118  4.1328
  143OSM    H5G15759   1.565   0.682   5.650  0.9161 -0.0588  0.4416
  143OSM    C6F15760   1.572   0.882   5.569 -0.1594  0.3823 -0.2395
  143OSM    H6F15761   1.680   0.876   5.540 -0.3684 -1.3443 -0.7928
  143OSM    H6G15762   1.563   0.989   5.597 -1.3870  0.5117 -1.0831
  143OSM    C7F15763   1.473   0.844   5.452 -0.2050 -0.1276  0.1290
  143OSM    H7F15764   1.374   0.872   5.492  0.2807 -0.2937  1.4855
  143OSM    H7G15765   1.479   0.734   5.441 -2.2776 -0.4186  1.4321
  143OSM    C8F15766   1.511   0.928   5.326  0.0377  0.8520  0.5164
  143OSM    H8F15767   1.613   0.893   5.300 -1.0206 -1.6850 -0.5121
  143OSM    H8G15768   1.505   1.037   5.347  0.2817  0.4799  2.7367
  143OSM    C9F15769   1.430   0.887   5.202 -0.7718  0.0643 -0.0393
  143OSM    H9F15770   1.400   0.782   5.210  0.1930 -0.1582  0.9123
  143OSM   C10F15771   1.402   0.960   5.093  0.1660 -0.4646 -0.1926
  143OSM   H10F15772   1.345   0.917   5.009 -1.6132 -1.8470  1.6144
  143OSM   C11F15773   1.437   1.105   5.070 -0.2947 -0.6490  0.5623
  143OSM   H11F15774   1.536   1.122   5.118  1.2545 -1.7128 -1.9761
  143OSM   H11G15775   1.368   1.169   5.129  2.2354  0.9326  2.0037
  143OSM   C12F15776   1.447   1.155   4.925  0.6439  0.4477 -0.9626
  143OSM   H12F15777   1.505   1.082   4.865  2.2569 -0.8803  2.0512
  143OSM   H12G15778   1.508   1.247   4.915  0.0844  0.8950 -0.3911
  143OSM   C13F15779   1.311   1.174   4.854 -0.2627 -0.1406  0.0998
  143OSM   H13F15780   1.267   1.273   4.879  0.2285  0.3171 -0.7832
  143OSM   H13G15781   1.239   1.095   4.884 -0.3997  0.7730  2.3356
  143OSM   C14F15782   1.333   1.165   4.700 -0.4900  0.5769 -0.7982
  143OSM   H14F15783   1.387   1.070   4.685 -0.6980  0.1237  1.0402
  143OSM   H14G15784   1.396   1.250   4.666  0.0309  0.2684 -0.6141
  143OSM   C15F15785   1.205   1.179   4.620 -0.3740 -0.8173  0.9025
  143OSM   H15F15786   1.184   1.287   4.639 -1.8037 -1.1483  1.3802
  143OSM   H15G15787   1.124   1.112   4.656  0.3840 -2.1848  0.1223
  143OSM   C16F15788   1.229   1.151   4.465 -0.0843  0.1787 -0.1111
  143OSM   H16F15789   1.229   1.041   4.449 -3.4207 -0.1021  1.0990
  143OSM   H16G15790   1.331   1.184   4.435 -0.4951 -0.2480 -2.1279
  143OSM   C17F15791   1.114   1.205   4.375  0.3523  0.2600  0.1403
  143OSM   H17F15792   1.029   1.134   4.381 -0.3363  1.0278 -0.2611
  143OSM   H17G15793   1.150   1.197   4.270 -1.2761  0.1833 -0.4474
  143OSM   C18F15794   1.070   1.348   4.397  0.2563  0.2146 -0.1715
  143OSM   H18F15795   1.018   1.360   4.495  1.3086 -3.7079  1.0660
  143OSM   H18G15796   1.002   1.373   4.313 -0.4536  2.0098  0.8904
  143OSM   H18H15797   1.161   1.411   4.386  2.4258 -2.8709 -1.2397
  144OSM      N15798   1.083   0.602   6.831  0.2665 -0.2554 -0.7366
  144OSM    C1515799   1.182   0.714   6.858  0.0177 -0.3365  0.7274
  144OSM   H15A15800   1.166   0.803   6.800 -1.1814 -0.9777  0.0415
  144OSM   H15B15801   1.283   0.692   6.825 -0.3733 -1.2534  0.1168
  144OSM   H15C15802   1.185   0.736   6.964  0.9702  2.7953  0.1550
  144OSM    C1415803   1.120   0.480   6.898 -0.4831  0.2053 -0.1024
  144OSM   H14A15804   1.120   0.486   7.006  2.2203 -0.2610 -0.0255
  144OSM   H14B15805   1.215   0.443   6.863  1.0332  2.8334  0.9465
  144OSM   H14C15806   1.053   0.398   6.877  0.4857 -0.5251 -0.3556
  144OSM    C1315807   0.948   0.648   6.871  0.6165  0.5459 -0.6357
  144OSM   H13A15808   0.920   0.745   6.833  0.0972 -0.2445 -2.4256
  144OSM   H13B15809   0.935   0.638   6.978 -0.1784 -0.6056 -0.8165
  144OSM   H13C15810   0.874   0.584   6.824  0.7298 -0.6383  0.7428
  144OSM    C1215811   1.077   0.555   6.682 -0.5498  0.0751  0.2383
  144OSM   H12A15812   1.041   0.638   6.623  0.0492  0.4934  0.4476
  144OSM   H12B15813   1.010   0.471   6.671 -3.0674  2.2792 -3.3930
  144OSM    C1115814   1.215   0.510   6.610 -0.2297  0.7194  0.1027
  144OSM   H11A15815   1.283   0.597   6.622  1.5702 -0.6995  0.6857
  144OSM   H11B15816   1.194   0.509   6.501  0.6135 -0.5302 -0.0546
  144OSM      P15817   1.196   0.256   6.617  0.1538 -0.2217  0.1780
  144OSM    O1315818   1.268   0.136   6.662 -0.1926 -0.1760 -0.5364
  144OSM    O1415819   1.058   0.263   6.662 -0.3515  0.5359 -0.1468
  144OSM    O1115820   1.214   0.260   6.456  0.1847 -0.3327 -0.4875
  144OSM    O1215821   1.268   0.388   6.667  0.2919 -0.0169  0.3652
  144OSM    C1S15822   1.350   0.280   6.404 -0.2853  0.3796 -0.8411
  144OSM    H1S15823   1.417   0.198   6.436  1.3469  1.8646 -0.2655
  144OSM    H1T15824   1.396   0.364   6.460  0.1669 -2.1166  2.8571
  144OSM     NF15825   1.511   0.305   6.218 -0.4333  0.1962  0.4384
  144OSM    HNF15826   1.553   0.393   6.198  2.5008 -0.7200  2.0184
  144OSM    C2S15827   1.371   0.302   6.249  0.6627  1.1421  0.0887
  144OSM    H2S15828   1.328   0.208   6.207  1.7271  0.8206 -0.3301
  144OSM    C3S15829   1.290   0.428   6.200 -0.4648 -0.0133  0.0472
  144OSM    H3S15830   1.323   0.516   6.259  0.7680 -0.9023  0.7402
  144OSM     O315831   1.156   0.418   6.241 -0.0210  0.3970  0.0878
  144OSM    HO315832   1.156   0.338   6.295 -0.6066  0.9960  1.0140
  144OSM    C4S15833   1.305   0.452   6.055  0.4596 -0.5553 -0.4387
  144OSM    H4S15834   1.397   0.505   6.025 -0.0396  0.3868 -0.3587
  144OSM    C5S15835   1.213   0.436   5.958 -0.1295 -0.1910  0.3814
  144OSM    H5S15836   1.116   0.396   5.990  0.5451 -1.1858  1.2541
  144OSM    C6S15837   1.232   0.484   5.814  0.3287  0.1086 -0.4060
  144OSM    H6S15838   1.203   0.395   5.755  0.7340 -0.9715  0.9542
  144OSM    H6T15839   1.337   0.513   5.794  1.1632 -2.1763  0.3032
  144OSM    C7S15840   1.143   0.600   5.793  0.5581 -0.5408 -0.2229
  144OSM    H7S15841   1.152   0.688   5.861 -0.1473 -1.8520  1.6490
  144OSM    H7T15842   1.040   0.564   5.816  0.1052  1.1423  0.5307
  144OSM    C8S15843   1.142   0.660   5.652 -1.0975  0.9044 -0.9330
  144OSM    H8S15844   1.158   0.582   5.574  0.6904  0.7405 -0.4468
  144OSM    H8T15845   1.236   0.715   5.632 -0.0928 -0.3392  0.1484
  144OSM    C9S15846   1.020   0.736   5.607 -0.0392  0.2565 -0.7544
  144OSM    H9S15847   1.021   0.826   5.672  0.9355 -1.1967  1.3333
  144OSM    H9T15848   0.936   0.676   5.648  1.4442 -1.6781 -0.4308
  144OSM   C10S15849   1.024   0.754   5.463 -0.6379 -0.9036  0.2187
  144OSM   H10S15850   1.008   0.660   5.406 -1.2911 -2.3761  2.7011
  144OSM   H10T15851   1.124   0.792   5.435 -0.2652 -0.4603  2.0178
  144OSM   C11S15852   0.906   0.854   5.423 -0.2633 -0.2118  0.5651
  144OSM   H11S15853   0.938   0.961   5.427 -2.1305  0.5672 -2.2371
  144OSM   H11T15854   0.823   0.834   5.493 -0.6579 -0.2886  0.0851
  144OSM   C12S15855   0.861   0.834   5.279 -0.1797  0.1840  0.0868
  144OSM   H12S15856   0.795   0.919   5.252 -0.2994  0.5686  1.4885
  144OSM   H12T15857   0.808   0.737   5.270  0.8804 -0.3743 -0.3267
  144OSM   C13S15858   0.977   0.828   5.181 -0.1809 -0.5846 -0.0019
  144OSM   H13S15859   1.046   0.742   5.192 -0.6845 -1.3717 -2.2758
  144OSM   H13T15860   1.036   0.922   5.195  1.0071 -1.5018  1.3693
  144OSM   C14S15861   0.924   0.802   5.041  0.1759 -0.3430  0.0083
  144OSM   H14S15862   0.868   0.706   5.038 -0.9585  0.2833  0.3587
  144OSM   H14T15863   1.010   0.793   4.971 -0.8538  0.9022 -1.4927
  144OSM   C15S15864   0.843   0.921   4.985 -0.5470  0.1916  0.2405
  144OSM   H15S15865   0.766   0.956   5.058 -1.7783  0.7133 -1.2462
  144OSM   H15T15866   0.791   0.883   4.894 -0.9254  0.0038  0.5317
  144OSM   C16S15867   0.928   1.039   4.939 -0.6858 -0.2254  0.1651
  144OSM   H16S15868   0.989   0.997   4.857 -3.8796 -0.2447 -2.4019
  144OSM   H16T15869   0.982   1.081   5.027 -0.5548  2.6083 -1.1566
  144OSM   C17S15870   0.841   1.157   4.890 -0.0276 -0.5686  0.6084
  144OSM   H17S15871   0.889   1.254   4.915  1.6171 -1.0267 -0.6237
  144OSM   H17T15872   0.751   1.159   4.955 -0.9526 -1.1137 -0.6070
  144OSM   C18S15873   0.803   1.159   4.746 -0.1043 -0.2598  0.0518
  144OSM   H18S15874   0.753   1.254   4.720  1.1414  0.3155 -0.3115
  144OSM   H18T15875   0.745   1.072   4.708 -1.3141  0.5370  0.0309
  144OSM   H18U15876   0.897   1.152   4.686 -0.0950 -2.5880  0.2337
  144OSM    C1F15877   1.587   0.197   6.216 -0.6125  0.2699  0.6125
  144OSM     OF15878   1.551   0.085   6.245 -0.4237 -0.0841 -0.2540
  144OSM    C2F15879   1.736   0.226   6.186 -0.5990 -0.2377 -0.2565
  144OSM    H2F15880   1.797   0.151   6.240 -0.4357 -0.7014 -1.0625
  144OSM    H2G15881   1.753   0.329   6.224  0.9685 -0.6088  0.1142
  144OSM    C3F15882   1.783   0.205   6.037  0.0574  0.1701  1.0142
  144OSM    H3F15883   1.785   0.095   6.019  4.9881  0.0909  0.5859
  144OSM    H3G15884   1.889   0.233   6.022  0.2997 -1.2433 -0.1173
  144OSM    C4F15885   1.704   0.281   5.932 -0.3941  0.2151  0.4682
  144OSM    H4F15886   1.709   0.391   5.945 -0.0868  0.4830 -1.6048
  144OSM    H4G15887   1.598   0.247   5.932 -0.0126 -1.0620 -0.5228
  144OSM    C5F15888   1.740   0.243   5.786 -0.0112 -0.1901 -0.3128
  144OSM    H5F15889   1.716   0.143   5.744 -0.0563  0.7417 -2.6829
  144OSM    H5G15890   1.848   0.262   5.766  0.0243 -0.9190 -0.8733
  144OSM    C6F15891   1.667   0.328   5.676  1.1629 -0.1384  0.2011
  144OSM    H6F15892   1.718   0.311   5.579 -2.2065 -1.7661 -1.4782
  144OSM    H6G15893   1.635   0.430   5.705  0.0263 -0.8569  1.6603
  144OSM    C7F15894   1.525   0.257   5.649  0.2159 -0.2228 -0.4258
  144OSM    H7F15895   1.482   0.251   5.751 -1.0490  0.7872 -0.8706
  144OSM    H7G15896   1.549   0.159   5.601  0.8229 -0.0218 -0.5472
  144OSM    C8F15897   1.428   0.344   5.556  1.2913  0.3312 -0.0864
  144OSM    H8F15898   1.493   0.369   5.469  2.2902  3.0023  1.3071
  144OSM    H8G15899   1.393   0.439   5.602  0.5034 -0.9829  2.1740
  144OSM    C9F15900   1.313   0.260   5.512  0.3622 -0.1443 -0.0245
  144OSM    H9F15901   1.214   0.285   5.554 -0.0499  1.0902 -1.5918
  144OSM   C10F15902   1.303   0.179   5.407 -0.2094 -0.3535  0.3600
  144OSM   H10F15903   1.208   0.127   5.386 -1.0284  1.1794  0.1467
  144OSM   C11F15904   1.418   0.144   5.316 -0.9175  0.0174 -0.3314
  144OSM   H11F15905   1.519   0.117   5.355 -1.7391 -1.6724  0.7289
  144OSM   H11G15906   1.435   0.220   5.237  0.4728 -1.0479 -1.1161
  144OSM   C12F15907   1.399   0.016   5.224 -0.0800  0.9314 -0.3952
  144OSM   H12F15908   1.385  -0.071   5.291  1.6505  0.9003 -0.0202
  144OSM   H12G15909   1.497  -0.007   5.176  0.8075  3.4008  0.0998
  144OSM   C13F15910   1.295   0.024   5.118  0.3103  0.1015 -0.9245
  144OSM   H13F15911   1.319   0.116   5.061 -2.5919  1.6905  0.1942
  144OSM   H13G15912   1.199   0.045   5.170  1.6565  1.2141  1.3098
  144OSM   C14F15913   1.298  -0.096   5.031  0.3677  0.2267  0.3036
  144OSM   H14F15914   1.272  -0.187   5.089  1.6642  0.1615  0.8165
  144OSM   H14G15915   1.401  -0.120   4.997 -0.2111 -0.2704 -1.1906
  144OSM   C15F15916   1.205  -0.087   4.903  0.1079  0.1101 -0.2865
  144OSM   H15F15917   1.232  -0.017   4.821  0.7040 -1.1772 -1.2286
  144OSM   H15G15918   1.101  -0.069   4.936 -0.3623 -0.9525 -1.1227
  144OSM   C16F15919   1.193  -0.227   4.841  0.8463  0.8263  0.0744
  144OSM   H16F15920   1.174  -0.308   4.915  1.8249  0.1295 -0.4094
  144OSM   H16G15921   1.291  -0.261   4.800  0.0743  0.6497 -1.7166
  144OSM   C17F15922   1.088  -0.236   4.733 -0.6319  0.5701 -0.2643
  144OSM   H17F15923   1.094  -0.143   4.673 -0.8869  0.9512  0.3042
  144OSM   H17G15924   0.989  -0.238   4.783 -0.7286 -1.3242 -0.4440
  144OSM   C18F15925   1.113  -0.354   4.630 -0.3952 -0.1850 -0.2966
  144OSM   H18F15926   1.215  -0.337   4.591 -0.1675  1.6057  0.9281
  144OSM   H18G15927   1.033  -0.343   4.553  0.7608 -0.5252 -1.5764
  144OSM   H18H15928   1.114  -0.452   4.682  2.9245  0.8000  1.7984
  145OSM      N15929   1.213   2.329   7.188  0.8878  0.0535 -0.4428
  145OSM    C1515930   1.302   2.301   7.313 -0.4735  0.3096  0.3458
  145OSM   H15A15931   1.288   2.202   7.354  1.6983 -0.3478 -0.3549
  145OSM   H15B15932   1.264   2.370   7.387 -1.7988  1.5992 -1.4538
  145OSM   H15C15933   1.407   2.320   7.297 -0.1215 -1.9411 -0.3800
  145OSM    C1415934   1.078   2.305   7.240  1.0683  0.0778  0.5833
  145OSM   H14A15935   1.065   2.363   7.330 -0.1597 -0.0326  0.5017
  145OSM   H14B15936   1.060   2.200   7.259 -3.4512  0.2839 -1.2871
  145OSM   H14C15937   1.005   2.335   7.166 -0.4849 -2.2998  1.0543
  145OSM    C1315938   1.226   2.478   7.151 -0.8523 -0.6045 -0.1630
  145OSM   H13A15939   1.323   2.504   7.113 -1.1005  0.4155 -0.1334
  145OSM   H13B15940   1.195   2.549   7.226 -2.4764  1.4075 -2.5596
  145OSM   H13C15941   1.162   2.501   7.067 -0.7992 -0.4816 -0.1706
  145OSM    C1215942   1.255   2.231   7.073  1.1597  0.2753 -0.1899
  145OSM   H12A15943   1.235   2.128   7.100  0.6392  0.6747  1.0164
  145OSM   H12B15944   1.362   2.230   7.067  1.2167  0.9159  0.6390
  145OSM    C1115945   1.183   2.264   6.939 -0.4395  0.3003 -0.0130
  145OSM   H11A15946   1.222   2.203   6.855 -1.3792  1.0386 -1.0054
  145OSM   H11B15947   1.213   2.368   6.919  0.2471 -0.2372 -1.9938
  145OSM      P15948   0.964   2.122   6.962 -0.2072  0.0676 -0.2251
  145OSM    O1315949   1.028   2.044   7.069 -0.2123 -0.5011 -0.3800
  145OSM    O1415950   0.817   2.147   6.976 -0.0482  0.0468  0.4136
  145OSM    O1115951   0.988   2.039   6.835  0.2124  0.6913 -0.1906
  145OSM    O1215952   1.040   2.258   6.935 -0.8269  0.2729 -0.6469
  145OSM    C1S15953   0.926   2.062   6.704 -0.0774  0.2133 -0.3996
  145OSM    H1S15954   0.857   2.149   6.704  1.5584  1.5791 -0.3305
  145OSM    H1T15955   0.852   1.981   6.686  0.5458 -0.8127  1.3996
  145OSM     NF15956   0.949   2.085   6.461  0.1783 -0.5603 -0.2053
  145OSM    HNF15957   0.953   1.994   6.420  0.1627 -1.5870  1.9323
  145OSM    C2S15958   1.025   2.084   6.587  0.5133 -0.0659  0.5046
  145OSM    H2S15959   1.067   2.187   6.591  1.5762 -0.4943  0.9238
  145OSM    C3S15960   1.137   1.977   6.602 -0.4368 -0.4506 -0.5228
  145OSM    H3S15961   1.087   1.878   6.602  0.8040 -1.2073  2.6401
  145OSM     O315962   1.200   1.971   6.727  0.2524  0.2863 -0.3233
  145OSM    HO315963   1.124   1.971   6.784 -1.5765  4.4320 -2.3696
  145OSM    C4S15964   1.241   1.974   6.492 -0.3223 -0.1570  0.0340
  145OSM    H4S15965   1.225   1.902   6.411  2.3706  0.3669 -1.0705
  145OSM    C5S15966   1.344   2.058   6.472  0.5153  0.1973 -0.3830
  145OSM    H5S15967   1.353   2.139   6.545  0.5717  0.1207 -0.3034
  145OSM    C6S15968   1.441   2.055   6.362 -0.1475 -0.7248  0.2768
  145OSM    H6S15969   1.424   1.956   6.314  1.0298 -1.4148  1.2117
  145OSM    H6T15970   1.547   2.053   6.395  0.6454  1.7061 -1.8472
  145OSM    C7S15971   1.432   2.163   6.250  0.1597 -0.5034  0.1895
  145OSM    H7S15972   1.428   2.266   6.292 -1.8881 -1.1539  1.7051
  145OSM    H7T15973   1.334   2.148   6.200 -0.4808 -0.1300  1.3042
  145OSM    C8S15974   1.538   2.135   6.145 -0.0636 -0.8284 -0.0572
  145OSM    H8S15975   1.516   2.036   6.098 -1.7601 -1.3245  1.6524
  145OSM    H8T15976   1.639   2.132   6.189  1.0518 -0.4321 -2.4111
  145OSM    C9S15977   1.538   2.244   6.033 -0.8637  0.2346  0.4015
  145OSM    H9S15978   1.522   2.352   6.053  0.1924  0.6999 -1.0465
  145OSM    H9T15979   1.461   2.210   5.960  0.3626  0.9882 -1.3401
  145OSM   C10S15980   1.664   2.244   5.944 -0.0185  0.3446 -0.2147
  145OSM   H10S15981   1.689   2.140   5.914  0.3736  0.5013 -0.4322
  145OSM   H10T15982   1.752   2.291   5.992 -0.5744  2.8757 -1.5135
  145OSM   C11S15983   1.637   2.305   5.810  0.5006 -0.0688  0.0343
  145OSM   H11S15984   1.593   2.406   5.821 -2.1274 -1.2712  1.6171
  145OSM   H11T15985   1.549   2.250   5.771 -0.7487  0.5522  1.8485
  145OSM   C12S15986   1.742   2.302   5.699  0.0818  0.2894  0.1390
  145OSM   H12S15987   1.779   2.197   5.693  2.5715  1.0833  0.4195
  145OSM   H12T15988   1.826   2.373   5.713  0.2599  0.1542 -0.2287
  145OSM   C13S15989   1.668   2.341   5.567  1.0061 -0.3568  0.6065
  145OSM   H13S15990   1.601   2.426   5.591  0.1794 -0.3340 -1.6102
  145OSM   H13T15991   1.604   2.253   5.546  1.1193 -0.2982  0.0111
  145OSM   C14S15992   1.755   2.352   5.444  0.0849  0.0853 -0.4088
  145OSM   H14S15993   1.843   2.285   5.446  0.0414 -0.1154 -2.4310
  145OSM   H14T15994   1.811   2.448   5.452  0.4869 -0.2722  1.4404
  145OSM   C15S15995   1.678   2.347   5.313  0.0278 -0.6362  0.0051
  145OSM   H15S15996   1.594   2.417   5.335 -1.2733 -2.3459  0.6754
  145OSM   H15T15997   1.629   2.249   5.294 -0.1457 -0.4297 -0.6646
  145OSM   C16S15998   1.767   2.390   5.197  0.1730 -0.1819  0.1001
  145OSM   H16S15999   1.826   2.300   5.166  1.0425  0.5303 -0.3672
  145OSM   H16T16000   1.844   2.468   5.216 -1.2375  1.2001  0.3225
  145OSM   C17S16001   1.698   2.441   5.076  0.2061  0.2999 -0.1750
  145OSM   H17S16002   1.673   2.545   5.108  0.5177 -0.5015  3.0109
  145OSM   H17T16003   1.610   2.376   5.057  0.2353  0.3064 -0.3320
  145OSM   C18S16004   1.789   2.452   4.952  0.2222 -0.1987 -0.1384
  145OSM   H18S16005   1.843   2.359   4.926  1.2899  0.2651  0.3552
  145OSM   H18T16006   1.876   2.521   4.960 -0.8346  1.7587 -3.3545
  145OSM   H18U16007   1.730   2.478   4.862 -0.0803  0.4744  0.2417
  145OSM    C1F16008   0.859   2.170   6.417 -0.2163  0.3844 -0.9698
  145OSM     OF16009   0.837   2.272   6.482 -0.6207  0.5108 -0.0572
  145OSM    C2F16010   0.799   2.139   6.281 -0.5782 -0.1117  0.7541
  145OSM    H2F16011   0.744   2.043   6.278  0.0476 -0.5626 -3.6593
  145OSM    H2G16012   0.881   2.123   6.208 -0.7316 -0.5827  0.6837
  145OSM    C3F16013   0.697   2.252   6.230  0.2840  0.6236  0.5927
  145OSM    H3F16014   0.724   2.355   6.260 -1.6698  1.5748 -0.7265
  145OSM    H3G16015   0.597   2.241   6.279  0.2960  0.9110  0.6837
  145OSM    C4F16016   0.683   2.238   6.079 -0.0781  0.2683 -0.0904
  145OSM    H4F16017   0.590   2.279   6.036  1.6764  2.3703 -2.2053
  145OSM    H4G16018   0.686   2.129   6.054 -2.0130  0.5770 -1.9288
  145OSM    C5F16019   0.787   2.318   5.995 -0.0999 -0.9876  0.0461
  145OSM    H5F16020   0.887   2.277   6.021  0.8459  0.8039 -0.6486
  145OSM    H5G16021   0.783   2.422   6.032  1.5552 -1.2292  0.9832
  145OSM    C6F16022   0.766   2.308   5.840  0.8357  1.8055  0.3098
  145OSM    H6F16023   0.793   2.205   5.810 -1.5490  1.3613 -0.5329
  145OSM    H6G16024   0.838   2.385   5.804  1.8697  1.0811  0.7760
  145OSM    C7F16025   0.630   2.340   5.786  0.0513 -0.2580 -0.6611
  145OSM    H7F16026   0.615   2.443   5.825 -0.1020 -0.7470  0.6220
  145OSM    H7G16027   0.555   2.269   5.824 -0.2198  0.4445  0.1430
  145OSM    C8F16028   0.631   2.358   5.635  0.1512  0.9346 -0.2686
  145OSM    H8F16029   0.712   2.427   5.605  0.8392  0.6367  0.8517
  145OSM    H8G16030   0.537   2.407   5.604 -0.8034  0.5222  1.7696
  145OSM    C9F16031   0.650   2.223   5.564 -0.4964  0.4164 -0.0574
  145OSM    H9F16032   0.647   2.134   5.628  2.1181 -1.8945 -2.8483
  145OSM   C10F16033   0.655   2.210   5.435  0.5962  0.1863  0.1860
  145OSM   H10F16034   0.664   2.107   5.397 -0.0810  0.2440 -0.1386
  145OSM   C11F16035   0.637   2.316   5.333  0.0796 -0.3730 -0.3184
  145OSM   H11F16036   0.628   2.411   5.390 -1.0894 -0.8235  0.2833
  145OSM   H11G16037   0.545   2.292   5.276 -1.6437  0.8906  1.7546
  145OSM   C12F16038   0.759   2.333   5.237  0.1116 -0.5160 -0.2706
  145OSM   H12F16039   0.762   2.239   5.177  1.8276 -0.4928 -0.2547
  145OSM   H12G16040   0.851   2.349   5.297 -0.0337 -0.7997  0.0319
  145OSM   C13F16041   0.758   2.452   5.146  0.4796 -0.1832  0.2323
  145OSM   H13F16042   0.855   2.449   5.092 -0.6530 -1.3000 -1.8628
  145OSM   H13G16043   0.747   2.549   5.198  3.1746 -0.7335  2.0432
  145OSM   C14F16044   0.661   2.427   5.024 -0.2039 -0.3421  0.3999
  145OSM   H14F16045   0.555   2.421   5.057 -0.5770  1.7927 -0.2911
  145OSM   H14G16046   0.678   2.333   4.967 -1.1196 -0.5309  0.4297
  145OSM   C15F16047   0.671   2.543   4.926 -0.1500 -0.3405 -0.4189
  145OSM   H15F16048   0.658   2.631   4.993  1.7284  0.7787 -1.4521
  145OSM   H15G16049   0.587   2.537   4.854 -2.2145  2.4699  1.5527
  145OSM   C16F16050   0.805   2.531   4.849 -0.3851 -0.0343 -0.2481
  145OSM   H16F16051   0.791   2.438   4.790 -2.5341  0.6171 -0.8323
  145OSM   H16G16052   0.884   2.499   4.921 -1.0501 -0.9779  0.0807
  145OSM   C17F16053   0.841   2.649   4.768 -1.1264 -0.1653  0.0256
  145OSM   H17F16054   0.841   2.737   4.835  1.8310  0.6418 -0.8901
  145OSM   H17G16055   0.780   2.666   4.677 -0.6152  1.8506  0.0153
  145OSM   C18F16056   0.983   2.633   4.709 -0.1792 -0.4202  0.4862
  145OSM   H18F16057   0.999   2.703   4.624 -1.0217  0.2224  0.8445
  145OSM   H18G16058   0.985   2.527   4.677 -1.3667 -0.1925 -0.4248
  145OSM   H18H16059   1.051   2.670   4.788  0.7183  0.2707 -0.5646
  146OSM      N16060   5.072   2.878   6.973 -0.3854  0.6907  0.5651
  146OSM    C1516061   5.146   2.906   7.100  0.1231 -0.2935  0.1813
  146OSM   H15A16062   5.251   2.880   7.091  0.4415  1.4993 -2.1748
  146OSM   H15B16063   5.119   2.838   7.179 -2.3296  0.4850  0.0927
  146OSM   H15C16064   5.126   3.005   7.136 -1.6330 -0.6950  0.4049
  146OSM    C1416065   5.125   2.739   6.934  0.4233  0.0648  0.3747
  146OSM   H14A16066   5.113   2.671   7.017  1.3704  0.1142  0.5694
  146OSM   H14B16067   5.231   2.751   6.918  0.1068  2.0051 -0.5642
  146OSM   H14C16068   5.075   2.704   6.845  0.0930  0.7715  0.2708
  146OSM    C1316069   4.927   2.859   6.994  0.2307  0.5289 -0.1585
  146OSM   H13A16070   4.878   2.954   6.982 -3.0218 -1.0995 -0.8460
  146OSM   H13B16071   4.907   2.836   7.098 -0.5933 -0.2244 -0.4673
  146OSM   H13C16072   4.871   2.789   6.934  0.5864  1.7812 -2.0180
  146OSM    C1216073   5.107   2.979   6.865  0.1666 -0.5313 -0.4186
  146OSM   H12A16074   5.213   2.990   6.852 -0.3063  1.5824 -4.0177
  146OSM   H12B16075   5.073   3.078   6.894 -0.8110 -0.6424 -1.1045
  146OSM    C1116076   5.062   2.962   6.717 -0.3129 -0.0966 -0.0820
  146OSM   H11A16077   5.114   2.872   6.676 -1.9345 -0.3689 -1.6416
  146OSM   H11B16078   5.100   3.049   6.660  0.8934 -0.8721 -0.5047
  146OSM      P16079   4.827   3.056   6.678  0.0937  0.3068 -0.1693
  146OSM    O1316080   4.689   3.012   6.710  0.1638  0.2370  0.2476
  146OSM    O1416081   4.875   3.175   6.753  0.4493 -0.0371  0.2282
  146OSM    O1116082   4.844   3.088   6.528  0.2522 -0.1129  0.2274
  146OSM    O1216083   4.924   2.936   6.711 -0.2639  0.1396  0.6041
  146OSM    C1S16084   4.871   2.979   6.438  0.3536 -0.1981 -0.6146
  146OSM    H1S16085   4.775   2.930   6.413 -1.0919  1.3151  1.6381
  146OSM    H1T16086   4.943   2.902   6.473  0.1775  0.6083  1.6558
  146OSM     NF16087   4.950   2.908   6.222  0.1407 -0.1039 -0.6318
  146OSM    HNF16088   5.046   2.881   6.216  0.6147  1.6280 -1.4022
  146OSM    C2S16089   4.925   3.030   6.303 -0.5036 -0.1923 -0.2241
  146OSM    H2S16090   4.857   3.098   6.247 -0.7524 -0.9886 -0.9247
  146OSM    C3S16091   5.060   3.104   6.336  0.9480 -0.1923 -0.1275
  146OSM    H3S16092   5.114   3.030   6.399 -3.6610 -0.6063  3.9884
  146OSM     O316093   5.051   3.219   6.415 -0.6670 -0.3169 -0.2737
  146OSM    HO316094   4.965   3.221   6.458 -0.1129  2.3344  0.9283
  146OSM    C4S16095   5.134   3.136   6.208 -0.0322 -0.4620  0.0446
  146OSM    H4S16096   5.218   3.069   6.185  0.7564  0.5526 -0.0847
  146OSM    C5S16097   5.118   3.246   6.130 -0.2022  0.4391  0.1630
  146OSM    H5S16098   5.052   3.325   6.171  1.3184  1.2545  1.1228
  146OSM    C6S16099   5.197   3.278   6.002 -0.7633  0.3948  0.2258
  146OSM    H6S16100   5.277   3.202   5.997 -0.1131  1.0378  0.6840
  146OSM    H6T16101   5.255   3.372   6.015  1.9820 -1.2832  0.9101
  146OSM    C7S16102   5.137   3.272   5.862  0.7724 -0.0192  0.2620
  146OSM    H7S16103   5.050   3.340   5.856 -0.0943 -0.7785  2.7504
  146OSM    H7T16104   5.104   3.167   5.849  1.3158 -0.1054 -0.4737
  146OSM    C8S16105   5.234   3.313   5.750 -0.3463  0.0410  0.0904
  146OSM    H8S16106   5.333   3.265   5.764 -0.7681 -0.8717  0.0634
  146OSM    H8T16107   5.261   3.420   5.751  0.6351 -0.1976  1.0432
  146OSM    C9S16108   5.185   3.273   5.612  0.9142  0.3466  0.0655
  146OSM    H9S16109   5.077   3.293   5.597  1.0314  2.9925  1.9865
  146OSM    H9T16110   5.189   3.162   5.613  2.4403  0.3704 -0.4613
  146OSM   C10S16111   5.263   3.349   5.497 -0.7149 -0.1773  0.1230
  146OSM   H10S16112   5.367   3.318   5.473 -0.7997  1.2310 -2.3201
  146OSM   H10T16113   5.265   3.459   5.517  1.9106 -0.2032  0.4567
  146OSM   C11S16114   5.184   3.344   5.362 -0.2697 -0.1718 -0.1158
  146OSM   H11S16115   5.080   3.361   5.396 -0.9819  2.7590 -3.2089
  146OSM   H11T16116   5.194   3.241   5.320  1.5700 -0.1205  0.1179
  146OSM   C12S16117   5.224   3.452   5.257 -0.0160 -0.4055 -0.5673
  146OSM   H12S16118   5.334   3.445   5.244 -0.3393 -0.4568 -3.9720
  146OSM   H12T16119   5.192   3.553   5.291  1.5166 -0.5240  1.4085
  146OSM   C13S16120   5.160   3.425   5.120 -0.1176  0.1085 -0.0394
  146OSM   H13S16121   5.050   3.432   5.131 -0.3955 -2.1200 -0.8771
  146OSM   H13T16122   5.195   3.323   5.094 -0.2883  0.1565 -0.4495
  146OSM   C14S16123   5.202   3.522   5.011 -0.8001 -0.2480  0.4594
  146OSM   H14S16124   5.306   3.497   4.980 -0.0555  2.3259  0.6764
  146OSM   H14T16125   5.196   3.626   5.050  1.4754 -0.0357  0.3997
  146OSM   C15S16126   5.112   3.522   4.886 -0.3029  0.0551  0.0993
  146OSM   H15S16127   5.160   3.577   4.802 -1.9217 -0.9117 -1.5303
  146OSM   H15T16128   5.016   3.571   4.911 -0.6967 -1.1302  0.9604
  146OSM   C16S16129   5.076   3.383   4.836 -0.0186 -0.0041 -0.2737
  146OSM   H16S16130   5.008   3.343   4.915  2.0707 -0.6673  1.2633
  146OSM   H16T16131   5.165   3.317   4.827 -0.7374 -1.0354 -0.0044
  146OSM   C17S16132   5.008   3.393   4.697  0.7249  0.4121 -0.7824
  146OSM   H17S16133   5.082   3.429   4.622  0.2829 -2.1539 -2.5631
  146OSM   H17T16134   4.913   3.449   4.709 -0.8822 -2.0220 -1.4985
  146OSM   C18S16135   4.963   3.258   4.658  1.0939 -0.3487  0.0789
  146OSM   H18S16136   4.900   3.275   4.568  0.3826  3.5680  1.1563
  146OSM   H18T16137   4.910   3.202   4.738 -2.2643 -1.8082 -2.8459
  146OSM   H18U16138   5.047   3.190   4.630  1.7805  0.8555 -0.8881
  146OSM    C1F16139   4.850   2.828   6.171 -0.5237 -0.5412  0.3547
  146OSM     OF16140   4.733   2.846   6.188 -0.2294  0.5389 -1.0027
  146OSM    C2F16141   4.898   2.708   6.110 -0.5121  1.2329  0.4860
  146OSM    H2F16142   4.904   2.627   6.186  1.3195 -1.2092 -2.0410
  146OSM    H2G16143   5.005   2.730   6.093 -0.7711  0.8521 -1.9959
  146OSM    C3F16144   4.823   2.660   5.985  0.3228  0.1334  0.0441
  146OSM    H3F16145   4.863   2.731   5.909  1.4041  1.1259  1.4896
  146OSM    H3G16146   4.713   2.677   5.992  0.2535 -0.7434  1.2671
  146OSM    C4F16147   4.859   2.513   5.930  0.7236 -0.1346 -0.5909
  146OSM    H4F16148   4.957   2.492   5.979  1.3831  2.5908 -0.5992
  146OSM    H4G16149   4.870   2.513   5.820 -0.0660  0.4018 -0.6836
  146OSM    C5F16150   4.758   2.397   5.957 -0.3983 -1.0504 -0.2697
  146OSM    H5F16151   4.657   2.444   5.954  0.4617  0.8733 -1.2383
  146OSM    H5G16152   4.784   2.388   6.065 -2.0838  1.4772  0.4344
  146OSM    C6F16153   4.774   2.273   5.882 -0.0100  0.4484  0.1446
  146OSM    H6F16154   4.733   2.195   5.948 -0.1500 -0.1053 -0.5861
  146OSM    H6G16155   4.880   2.254   5.854 -0.5488  0.2729 -1.9396
  146OSM    C7F16156   4.687   2.274   5.749  0.3267 -0.0004 -0.8845
  146OSM    H7F16157   4.683   2.381   5.721  1.6532  0.5119  0.7029
  146OSM    H7G16158   4.588   2.239   5.785  0.5877  0.5014  0.3830
  146OSM    C8F16159   4.734   2.181   5.634  0.0754 -0.1387 -0.3475
  146OSM    H8F16160   4.651   2.180   5.560 -0.1169  0.5200 -0.1463
  146OSM    H8G16161   4.740   2.072   5.654  0.2704 -0.6971 -3.0924
  146OSM    C9F16162   4.855   2.226   5.569 -0.0163  0.8186  0.0145
  146OSM    H9F16163   4.940   2.164   5.601 -2.1696 -2.2449  0.2145
  146OSM   C10F16164   4.877   2.328   5.483 -0.3818 -0.1066  0.5161
  146OSM   H10F16165   4.976   2.356   5.445 -1.2013 -1.3085 -2.9579
  146OSM   C11F16166   4.769   2.422   5.434  0.5143  0.2790 -0.4388
  146OSM   H11F16167   4.798   2.526   5.461  1.4646  0.3595 -1.6717
  146OSM   H11G16168   4.670   2.386   5.469  1.3036 -0.5646  1.0378
  146OSM   C12F16169   4.790   2.452   5.286  0.0136  0.5610  0.2780
  146OSM   H12F16170   4.899   2.465   5.273  0.0403 -0.7423 -1.1832
  146OSM   H12G16171   4.737   2.546   5.256 -1.2018 -0.0417  0.4564
  146OSM   C13F16172   4.748   2.327   5.201 -0.8933  0.2318  0.2621
  146OSM   H13F16173   4.676   2.361   5.124  2.0827  0.7896 -2.4936
  146OSM   H13G16174   4.706   2.253   5.272  0.6410  0.9775  2.0669
  146OSM   C14F16175   4.857   2.262   5.115 -0.0964  0.0758  0.6461
  146OSM   H14F16176   4.893   2.341   5.046  1.7854 -0.5614  0.8329
  146OSM   H14G16177   4.935   2.227   5.186  0.6093 -0.3423 -0.3089
  146OSM   C15F16178   4.807   2.135   5.049 -0.1877 -0.0452 -0.0603
  146OSM   H15F16179   4.722   2.152   4.978 -0.0270 -0.4652 -0.3565
  146OSM   H15G16180   4.769   2.065   5.126 -0.1468 -2.2341 -1.9375
  146OSM   C16F16181   4.918   2.056   4.986 -0.0203 -0.1613 -0.0265
  146OSM   H16F16182   5.004   2.022   5.047  1.0706 -0.0096 -1.4180
  146OSM   H16G16183   4.965   2.127   4.914  0.2992  0.7700  1.0773
  146OSM   C17F16184   4.878   1.928   4.918  0.1527 -0.2650  0.1727
  146OSM   H17F16185   4.770   1.928   4.892 -0.4785 -1.7454  2.5413
  146OSM   H17G16186   4.881   1.840   4.985  0.8780 -1.4213 -1.2987
  146OSM   C18F16187   4.958   1.884   4.795 -0.5835  0.0048 -0.1577
  146OSM   H18F16188   4.944   1.776   4.774  1.1670 -0.0406 -1.2427
  146OSM   H18G16189   5.069   1.888   4.803 -0.5948 -0.2274  0.1597
  146OSM   H18H16190   4.936   1.938   4.701  1.4002 -0.2242 -0.8026
  147OSM      N16191   6.408   2.979   2.508  0.0442 -0.2344 -0.2268
  147OSM    C1516192   6.539   2.901   2.517  0.1576 -0.1114 -0.1845
  147OSM   H15A16193   6.608   2.923   2.597  3.3499  0.5061 -2.9125
  147OSM   H15B16194   6.592   2.921   2.426  1.2665 -1.8247  0.0448
  147OSM   H15C16195   6.521   2.794   2.523 -0.3299  0.0239  1.7321
  147OSM    C1416196   6.440   3.118   2.486  0.1664 -0.5973 -0.0176
  147OSM   H14A16197   6.360   3.190   2.481  2.3183  1.9293  0.0446
  147OSM   H14B16198   6.493   3.125   2.392  0.0179  0.4538 -0.0368
  147OSM   H14C16199   6.505   3.158   2.562  0.0850  0.2780 -0.4011
  147OSM    C1316200   6.324   2.926   2.398 -0.5465  0.3946 -0.1746
  147OSM   H13A16201   6.357   2.966   2.303 -0.5149  0.7033 -0.0333
  147OSM   H13B16202   6.219   2.948   2.411 -0.5071  0.0584  0.7638
  147OSM   H13C16203   6.330   2.818   2.407 -0.0995  0.5245  1.3518
  147OSM    C1216204   6.336   2.962   2.641  0.6807 -0.4528 -0.1459
  147OSM   H12A16205   6.406   2.985   2.719  0.5858 -1.9480  0.4205
  147OSM   H12B16206   6.323   2.854   2.647  2.3107 -0.7219 -0.9208
  147OSM    C1116207   6.205   3.037   2.673 -0.2882 -0.1453  0.5220
  147OSM   H11A16208   6.233   3.144   2.671  0.0694 -0.1305  2.9114
  147OSM   H11B16209   6.158   3.033   2.774 -3.0040  1.6405 -0.5424
  147OSM      P16210   5.997   2.896   2.609 -0.0424  0.2721 -0.3104
  147OSM    O1316211   5.873   2.980   2.632 -0.6453 -0.1961 -0.1470
  147OSM    O1416212   6.002   2.795   2.503 -0.0456 -0.0857  0.3494
  147OSM    O1116213   6.051   2.840   2.741  0.0789  0.2961 -0.3230
  147OSM    O1216214   6.114   2.997   2.576 -0.1618 -0.0676  0.5206
  147OSM    C1S16215   5.961   2.826   2.856  0.2676  0.3004  0.1157
  147OSM    H1S16216   5.885   2.748   2.833  1.1585 -0.9434  1.2093
  147OSM    H1T16217   5.911   2.922   2.884  2.4674  0.9736  2.0580
  147OSM     NF16218   5.932   2.768   3.105  0.1073 -0.3651 -0.2198
  147OSM    HNF16219   5.954   2.827   3.182  1.6159 -2.5426  1.1243
  147OSM    C2S16220   6.019   2.779   2.989  0.2403 -0.2081  0.9881
  147OSM    H2S16221   6.053   2.674   2.978 -0.9682 -0.7456  2.1080
  147OSM    C3S16222   6.148   2.856   3.018  0.0615  0.7109  0.3669
  147OSM    H3S16223   6.143   2.967   3.017  1.1782  0.7794 -1.1713
  147OSM     O316224   6.256   2.836   2.921  0.3269  0.4123 -0.1872
  147OSM    HO316225   6.212   2.786   2.852 -1.3713  0.3495  0.8897
  147OSM    C4S16226   6.195   2.837   3.163  0.2775 -1.0391  0.5297
  147OSM    H4S16227   6.162   2.926   3.219 -2.4760 -1.1637 -0.7098
  147OSM    C5S16228   6.264   2.741   3.216  0.0322  0.0159 -0.3984
  147OSM    H5S16229   6.301   2.657   3.154 -0.0739  0.5764 -1.2416
  147OSM    C6S16230   6.290   2.741   3.366  0.0281  0.0826  0.0021
  147OSM    H6S16231   6.373   2.812   3.386 -2.0332  2.4688  0.6505
  147OSM    H6T16232   6.331   2.647   3.407  1.8629  1.0979  0.6094
  147OSM    C7S16233   6.165   2.774   3.448  0.8639  0.3737 -0.5336
  147OSM    H7S16234   6.076   2.712   3.424  1.3211 -0.3368 -0.4047
  147OSM    H7T16235   6.121   2.875   3.431  1.2337  0.6235 -0.0288
  147OSM    C8S16236   6.175   2.763   3.599  0.2520  0.6237  0.8897
  147OSM    H8S16237   6.203   2.658   3.621 -0.1348  0.1234 -0.8491
  147OSM    H8T16238   6.078   2.796   3.644 -0.5023 -0.8559  0.4220
  147OSM    C9S16239   6.277   2.859   3.663 -0.4177  0.2640 -0.4500
  147OSM    H9S16240   6.286   2.951   3.601 -1.9625 -0.4900 -1.8349
  147OSM    H9T16241   6.376   2.809   3.651 -0.2811  0.2819  0.4727
  147OSM   C10S16242   6.249   2.898   3.808  0.4601  0.0120 -0.0352
  147OSM   H10S16243   6.204   2.807   3.854  0.9113 -0.1063  0.1816
  147OSM   H10T16244   6.166   2.972   3.804  0.2431 -0.2180  0.1290
  147OSM   C11S16245   6.377   2.954   3.871 -0.1978 -0.1597  0.4154
  147OSM   H11S16246   6.409   3.043   3.812  0.2048  0.7725  1.9888
  147OSM   H11T16247   6.456   2.876   3.861  1.0208  1.1478 -0.8048
  147OSM   C12S16248   6.371   2.994   4.018 -0.2520  0.2115 -0.9572
  147OSM   H12S16249   6.268   3.030   4.039 -0.0974 -0.8781  2.1998
  147OSM   H12T16250   6.446   3.075   4.033 -1.1304  0.6419  1.6474
  147OSM   C13S16251   6.384   2.873   4.109 -0.0633  0.1820  0.4025
  147OSM   H13S16252   6.487   2.838   4.086  0.4677  1.7057  0.3227
  147OSM   H13T16253   6.311   2.794   4.082  2.8435 -2.2202 -0.9027
  147OSM   C14S16254   6.382   2.905   4.254 -0.0265 -0.3354 -0.2944
  147OSM   H14S16255   6.277   2.897   4.291 -0.4352  2.0193 -0.7352
  147OSM   H14T16256   6.421   3.009   4.263 -0.7418  0.0801 -1.6312
  147OSM   C15S16257   6.463   2.805   4.338  0.0208  0.5115 -0.0112
  147OSM   H15S16258   6.567   2.801   4.299 -0.8290 -0.8799 -2.4014
  147OSM   H15T16259   6.416   2.705   4.325 -0.5160  0.5085  1.6710
  147OSM   C16S16260   6.469   2.836   4.485  0.0381  0.2773 -0.4565
  147OSM   H16S16261   6.368   2.836   4.530 -0.0215  1.7251 -0.5228
  147OSM   H16T16262   6.508   2.939   4.505 -0.8917  0.6919 -0.7272
  147OSM   C17S16263   6.551   2.725   4.556 -0.0739  0.7493 -0.2122
  147OSM   H17S16264   6.655   2.714   4.518 -0.3496 -0.4135 -0.6822
  147OSM   H17T16265   6.498   2.628   4.540 -0.3463  0.9202 -0.3514
  147OSM   C18S16266   6.584   2.756   4.711  0.2307 -0.3047  0.4949
  147OSM   H18S16267   6.489   2.729   4.762 -1.2786  0.3691 -1.7976
  147OSM   H18T16268   6.611   2.863   4.723  1.0859 -0.7100  2.5414
  147OSM   H18U16269   6.672   2.695   4.740  1.7191  1.4999 -0.0663
  147OSM    C1F16270   5.818   2.710   3.123  0.2960 -0.1090 -0.0729
  147OSM     OF16271   5.771   2.649   3.030  0.8577 -0.0537 -0.7639
  147OSM    C2F16272   5.752   2.729   3.253  0.1280 -0.1218  0.0212
  147OSM    H2F16273   5.653   2.774   3.232  0.8833  1.1587 -0.8957
  147OSM    H2G16274   5.815   2.792   3.320 -2.4772  3.1467 -0.3787
  147OSM    C3F16275   5.730   2.595   3.328  0.2002  0.5563 -0.2207
  147OSM    H3F16276   5.820   2.531   3.328 -0.9964 -1.2170  0.5198
  147OSM    H3G16277   5.653   2.536   3.274  1.1579  0.7652 -1.8583
  147OSM    C4F16278   5.681   2.614   3.476  0.3095  0.5236  0.2069
  147OSM    H4F16279   5.601   2.545   3.508 -2.1838  2.9918 -0.3159
  147OSM    H4G16280   5.637   2.716   3.470 -0.6755  0.0537 -0.8040
  147OSM    C5F16281   5.793   2.602   3.576  0.8561 -0.2072  0.5215
  147OSM    H5F16282   5.887   2.652   3.543  1.2602 -1.1532  0.2198
  147OSM    H5G16283   5.841   2.503   3.590  0.7865 -0.5937 -1.6490
  147OSM    C6F16284   5.748   2.663   3.707  0.4194 -0.1874  0.1622
  147OSM    H6F16285   5.678   2.593   3.757  1.0462 -1.1512 -0.2778
  147OSM    H6G16286   5.694   2.759   3.693 -0.7784 -0.5884  1.7871
  147OSM    C7F16287   5.859   2.698   3.815  0.9519  0.3510 -0.0336
  147OSM    H7F16288   5.915   2.786   3.777  0.3022  0.2698 -1.2110
  147OSM    H7G16289   5.938   2.620   3.821  0.6849  0.1883  3.3723
  147OSM    C8F16290   5.802   2.732   3.951  0.1565  0.3004  0.0754
  147OSM    H8F16291   5.749   2.646   3.998  0.1555  0.6763  0.7802
  147OSM    H8G16292   5.729   2.816   3.946 -0.3923 -0.1692  0.0692
  147OSM    C9F16293   5.916   2.756   4.047  0.3236  0.2106  0.1949
  147OSM    H9F16294   5.986   2.674   4.066  2.1096  1.3729 -1.0608
  147OSM   C10F16295   5.947   2.876   4.080  0.0016  0.4269  0.0141
  147OSM   H10F16296   6.032   2.891   4.148 -1.0321 -0.1336  1.4684
  147OSM   C11F16297   5.885   3.008   4.049 -0.0527 -0.4492  0.4059
  147OSM   H11F16298   5.774   3.012   4.060 -0.6681  2.0360 -4.3199
  147OSM   H11G16299   5.898   3.034   3.942 -2.4776 -0.6204 -0.0018
  147OSM   C12F16300   5.943   3.123   4.139 -0.0251  0.2540  0.3763
  147OSM   H12F16301   5.909   3.215   4.088  0.6601 -0.4873 -1.5173
  147OSM   H12G16302   6.053   3.129   4.130 -0.1966  1.7005 -1.2128
  147OSM   C13F16303   5.882   3.129   4.281  0.1224 -0.5442 -0.3506
  147OSM   H13F16304   5.925   3.040   4.331  0.9422  0.6295  1.1271
  147OSM   H13G16305   5.771   3.127   4.275  0.1269  0.9121 -1.4300
  147OSM   C14F16306   5.943   3.249   4.363 -0.2546  0.1886 -0.0073
  147OSM   H14F16307   5.914   3.348   4.321 -1.1244 -0.5985 -1.3287
  147OSM   H14G16308   6.054   3.249   4.361 -0.1923  1.8067  0.9038
  147OSM   C15F16309   5.896   3.241   4.510  0.2274  0.1965  0.5177
  147OSM   H15F16310   5.897   3.134   4.543  0.6998  0.1868  0.4774
  147OSM   H15G16311   5.794   3.279   4.528  0.4898  0.3152  1.9258
  147OSM   C16F16312   5.983   3.315   4.617 -0.3828  0.5358 -0.2434
  147OSM   H16F16313   5.936   3.298   4.717 -1.5343  1.0002 -0.6850
  147OSM   H16G16314   5.984   3.421   4.586 -2.3204  0.2388 -1.5173
  147OSM   C17F16315   6.129   3.259   4.620  0.9180  0.4333  0.3831
  147OSM   H17F16316   6.199   3.333   4.664  0.0919  1.5855 -0.2150
  147OSM   H17G16317   6.177   3.242   4.521 -1.5685  0.3995 -0.8951
  147OSM   C18F16318   6.146   3.134   4.703  0.1952 -0.3138  0.0933
  147OSM   H18F16319   6.106   3.141   4.807 -0.6813  0.0372 -0.2619
  147OSM   H18G16320   6.250   3.102   4.724  0.7384  1.0671 -0.4067
  147OSM   H18H16321   6.084   3.051   4.662  0.9250 -0.3801 -0.9072
  148OSM      N16322   5.259   4.781   1.938 -0.3920 -0.5179  0.2114
  148OSM    C1516323   5.372   4.789   1.845  1.2344  0.7675 -0.0135
  148OSM   H15A16324   5.351   4.771   1.740  0.6466  3.0635 -0.3397
  148OSM   H15B16325   5.448   4.716   1.866  0.1183 -0.7038 -0.8697
  148OSM   H15C16326   5.416   4.886   1.858  1.7931  0.3747  1.1143
  148OSM    C1416327   5.152   4.876   1.904  1.1907 -0.2554  0.4043
  148OSM   H14A16328   5.123   4.853   1.802  2.8727 -2.4371  0.3356
  148OSM   H14B16329   5.189   4.977   1.906  1.4473 -0.2988 -1.1221
  148OSM   H14C16330   5.067   4.876   1.970  1.1099  1.3712  0.3351
  148OSM    C1316331   5.202   4.641   1.934 -0.4147  0.0080  0.7143
  148OSM   H13A16332   5.112   4.633   1.993  0.4103  0.7475  2.1124
  148OSM   H13B16333   5.269   4.564   1.969 -0.0024  0.1113  0.1646
  148OSM   H13C16334   5.180   4.629   1.829  0.7745  3.7833 -0.1236
  148OSM    C1216335   5.307   4.810   2.082 -0.3136 -0.0618 -0.1902
  148OSM   H12A16336   5.235   4.796   2.161 -0.3861  1.9316  0.1346
  148OSM   H12B16337   5.331   4.915   2.076  1.0165 -0.4257 -2.4100
  148OSM    C1116338   5.444   4.742   2.126 -0.6271  0.4219 -0.6875
  148OSM   H11A16339   5.454   4.757   2.236 -0.2294 -2.8598 -0.1598
  148OSM   H11B16340   5.533   4.788   2.078  0.3975  0.2063  0.9188
  148OSM      P16341   5.373   4.496   2.202 -0.3868 -0.0915  0.1271
  148OSM    O1316342   5.321   4.397   2.104  0.1250  0.2725 -0.1429
  148OSM    O1416343   5.462   4.458   2.319  0.3599  0.6432  0.4035
  148OSM    O1116344   5.252   4.576   2.267 -0.2049  0.3045  0.1233
  148OSM    O1216345   5.454   4.600   2.113 -0.6486 -0.0004 -0.4003
  148OSM    C1S16346   5.204   4.527   2.392 -0.1649  0.1403  0.1251
  148OSM    H1S16347   5.270   4.546   2.479 -1.5685 -1.0738  1.5254
  148OSM    H1T16348   5.175   4.420   2.380 -0.2360  0.3574 -2.2395
  148OSM     NF16349   5.034   4.544   2.564  0.1155 -0.4349  0.2754
  148OSM    HNF16350   4.958   4.479   2.564 -1.5172  1.3831 -0.3399
  148OSM    C2S16351   5.068   4.593   2.432  0.2987  0.2409 -0.2472
  148OSM    H2S16352   5.073   4.703   2.446 -0.5434  0.1583  0.8564
  148OSM    C3S16353   4.964   4.571   2.316 -0.0908  0.2589 -0.1368
  148OSM    H3S16354   4.933   4.466   2.336  0.0817 -0.0484 -1.3801
  148OSM     O316355   5.008   4.568   2.179 -0.1541  0.6465  0.1199
  148OSM    HO316356   5.104   4.564   2.175 -0.2256 -1.6470 -0.9099
  148OSM    C4S16357   4.840   4.653   2.336  0.5734  0.9175 -0.0097
  148OSM    H4S16358   4.753   4.599   2.376  2.1466  0.6422  3.4080
  148OSM    C5S16359   4.816   4.782   2.306 -0.1139 -0.4278  0.6374
  148OSM    H5S16360   4.902   4.837   2.266 -0.0562 -1.0518 -0.1304
  148OSM    C6S16361   4.691   4.864   2.333  0.1310  0.2310 -0.2930
  148OSM    H6S16362   4.647   4.907   2.241 -1.2572  0.0222  0.2471
  148OSM    H6T16363   4.715   4.951   2.397  1.0190 -0.6338  0.5812
  148OSM    C7S16364   4.576   4.796   2.409  1.2475 -0.3153  0.4819
  148OSM    H7S16365   4.546   4.697   2.367  0.6224 -0.1496  0.5284
  148OSM    H7T16366   4.479   4.850   2.414 -0.6165 -3.4111  1.1290
  148OSM    C8S16367   4.611   4.769   2.562  0.4612 -0.2584  0.9258
  148OSM    H8S16368   4.659   4.857   2.609  1.4390 -0.7684  0.9067
  148OSM    H8T16369   4.693   4.695   2.560 -0.2449 -1.0612 -0.4266
  148OSM    C9S16370   4.494   4.719   2.633  0.1876  0.7938  0.5182
  148OSM    H9S16371   4.455   4.628   2.583 -0.4796  2.3811 -2.0331
  148OSM    H9T16372   4.416   4.795   2.611  1.1608  1.8245  0.5277
  148OSM   C10S16373   4.508   4.708   2.790  0.3355 -0.0258  0.9274
  148OSM   H10S16374   4.417   4.688   2.850  0.1164 -0.2161  0.5354
  148OSM   H10T16375   4.542   4.811   2.814 -0.6553  0.9232 -1.3639
  148OSM   C11S16376   4.605   4.596   2.827  0.7081  0.0461  0.2694
  148OSM   H11S16377   4.707   4.609   2.786  2.0534  2.3101  3.8548
  148OSM   H11T16378   4.572   4.495   2.794  0.7878 -1.1130  3.3743
  148OSM   C12S16379   4.624   4.602   2.980  0.4369 -0.6231 -0.1983
  148OSM   H12S16380   4.687   4.519   3.018  0.6459  0.5978  2.2944
  148OSM   H12T16381   4.526   4.608   3.033  0.0485  1.0927 -1.0422
  148OSM   C13S16382   4.687   4.734   3.028 -0.4299  0.1090  0.0126
  148OSM   H13S16383   4.618   4.816   3.001 -1.1708 -1.3848 -3.0188
  148OSM   H13T16384   4.784   4.750   2.976  0.7988 -3.2268  0.9677
  148OSM   C14S16385   4.711   4.732   3.189  0.5888  0.2238 -0.0915
  148OSM   H14S16386   4.616   4.688   3.225  0.0679  0.6160 -0.9557
  148OSM   H14T16387   4.707   4.838   3.223 -2.0468  0.8245 -1.9395
  148OSM   C15S16388   4.840   4.664   3.237  0.2481 -0.1678  0.3044
  148OSM   H15S16389   4.916   4.741   3.209 -1.5050  2.4112  2.2376
  148OSM   H15T16390   4.845   4.566   3.184 -0.8884 -0.0326 -0.0688
  148OSM   C16S16391   4.836   4.640   3.383  0.1830 -0.6559 -0.1536
  148OSM   H16S16392   4.751   4.574   3.410  0.3638 -0.8907 -0.1544
  148OSM   H16T16393   4.809   4.736   3.431 -2.4522 -1.2862 -0.2300
  148OSM   C17S16394   4.971   4.584   3.459 -0.2219 -0.5406  0.8229
  148OSM   H17S16395   5.058   4.615   3.396 -0.4834 -0.2950  0.5801
  148OSM   H17T16396   4.961   4.473   3.459  0.2736 -0.6084  2.4839
  148OSM   C18S16397   4.972   4.619   3.613 -0.9577 -0.0795 -1.0571
  148OSM   H18S16398   4.978   4.730   3.609  2.3151 -0.1675 -2.2612
  148OSM   H18T16399   5.056   4.570   3.668  0.3450  3.3939  0.3356
  148OSM   H18U16400   4.874   4.586   3.653 -0.5020 -1.1564 -0.7900
  148OSM    C1F16401   5.104   4.572   2.676 -0.1972 -0.6206  0.0967
  148OSM     OF16402   5.180   4.671   2.672  0.2149 -0.2429 -0.0063
  148OSM    C2F16403   5.083   4.485   2.801  0.1017  0.4689  0.3036
  148OSM    H2F16404   5.067   4.382   2.763  3.5685  0.7131 -2.3513
  148OSM    H2G16405   4.990   4.519   2.851 -1.2321  1.7943 -2.7590
  148OSM    C3F16406   5.204   4.497   2.884 -0.4997  0.4603 -0.4417
  148OSM    H3F16407   5.229   4.602   2.911 -1.2552  0.7779 -0.9328
  148OSM    H3G16408   5.295   4.461   2.832  0.8688  1.1375  1.3919
  148OSM    C4F16409   5.196   4.423   3.018  0.0825  0.4814  0.6113
  148OSM    H4F16410   5.114   4.456   3.086 -2.7951 -1.5647 -1.6116
  148OSM    H4G16411   5.294   4.437   3.070 -0.0300  1.9326  0.4956
  148OSM    C5F16412   5.194   4.273   2.992 -0.3770  0.3127  0.3583
  148OSM    H5F16413   5.276   4.238   2.926 -0.0030  1.7604  0.0254
  148OSM    H5G16414   5.107   4.242   2.928 -0.3252  0.2283  0.3275
  148OSM    C6F16415   5.183   4.186   3.115  0.2043 -0.0761  0.2140
  148OSM    H6F16416   5.094   4.216   3.173  1.0339  0.0077  1.4945
  148OSM    H6G16417   5.276   4.198   3.176 -0.2219 -0.0282  0.8625
  148OSM    C7F16418   5.179   4.036   3.077 -0.3815 -0.4493 -0.2899
  148OSM    H7F16419   5.280   4.015   3.036  0.7646  2.6218  0.6384
  148OSM    H7G16420   5.109   4.012   2.994  1.3717 -1.3618 -1.5689
  148OSM    C8F16421   5.148   3.945   3.199  0.0443  0.0315  0.0808
  148OSM    H8F16422   5.048   3.981   3.233  0.7937  1.0407  1.3001
  148OSM    H8G16423   5.216   3.980   3.280 -0.7296  0.1281  0.6999
  148OSM    C9F16424   5.157   3.795   3.180  1.0007  0.3884  1.1868
  148OSM    H9F16425   5.252   3.739   3.171  0.1546 -0.7360 -2.6443
  148OSM   C10F16426   5.048   3.714   3.174  0.3455  0.0552  0.8639
  148OSM   H10F16427   5.059   3.610   3.142 -0.9525  0.3383 -0.6335
  148OSM   C11F16428   4.904   3.776   3.176  0.5057  0.2988 -0.8045
  148OSM   H11F16429   4.854   3.737   3.084  1.9116  1.4187 -2.1076
  148OSM   H11G16430   4.893   3.886   3.166 -1.3541  0.3482  1.1113
  148OSM   C12F16431   4.819   3.753   3.302 -0.0113  0.1375 -0.4740
  148OSM   H12F16432   4.820   3.644   3.321 -0.8007  0.0646 -0.8250
  148OSM   H12G16433   4.711   3.775   3.286 -0.4558 -1.9004 -0.5354
  148OSM   C13F16434   4.865   3.823   3.438  0.3538  0.4043  0.2079
  148OSM   H13F16435   4.849   3.933   3.428  0.3355  0.3536 -0.3950
  148OSM   H13G16436   4.972   3.798   3.452  0.7506  2.3480  0.9300
  148OSM   C14F16437   4.798   3.759   3.557 -1.3104  0.0887  0.8067
  148OSM   H14F16438   4.799   3.648   3.554  2.5513  0.0242 -0.5403
  148OSM   H14G16439   4.694   3.798   3.562 -1.4727 -0.0040 -1.0270
  148OSM   C15F16440   4.853   3.807   3.694  0.1754 -0.5539 -0.1723
  148OSM   H15F16441   4.853   3.919   3.694 -1.0771 -0.5177  1.3555
  148OSM   H15G16442   4.957   3.769   3.707 -0.6095 -2.5031  0.7171
  148OSM   C16F16443   4.767   3.765   3.809 -0.4944  0.2226 -0.9409
  148OSM   H16F16444   4.773   3.660   3.843 -2.1870  0.0786 -1.0010
  148OSM   H16G16445   4.660   3.769   3.779 -1.1062 -1.6467  0.7498
  148OSM   C17F16446   4.814   3.854   3.932  0.0518  0.6310 -0.0392
  148OSM   H17F16447   4.839   3.959   3.904 -2.3742  1.0433 -0.9571
  148OSM   H17G16448   4.911   3.813   3.967 -0.2137  1.5069  1.8480
  148OSM   C18F16449   4.726   3.844   4.055  0.4090  0.2322  0.0969
  148OSM   H18F16450   4.627   3.893   4.036  1.1296  0.6019 -3.2757
  148OSM   H18G16451   4.771   3.903   4.137 -2.1719  0.6284  1.3372
  148OSM   H18H16452   4.701   3.740   4.084  1.0084  0.4563  1.4602
  149OSM      N16453   6.063   1.863   2.391 -0.4140 -0.0746 -0.1534
  149OSM    C1516454   5.941   1.946   2.388 -0.2894 -0.5803  0.5243
  149OSM   H15A16455   5.952   2.010   2.475  2.9611 -0.7864  0.4023
  149OSM   H15B16456   5.850   1.890   2.403 -1.0722 -0.1242 -1.9766
  149OSM   H15C16457   5.944   2.017   2.306  1.9255 -0.2035  0.8686
  149OSM    C1416458   6.100   1.827   2.532  0.1705 -0.2844  0.1550
  149OSM   H14A16459   6.008   1.802   2.584  0.9104 -0.8332  1.2411
  149OSM   H14B16460   6.147   1.909   2.585  0.6397 -1.6931  2.0124
  149OSM   H14C16461   6.169   1.744   2.536  1.2928  0.5984 -0.2718
  149OSM    C1316462   6.024   1.737   2.318 -0.0551 -1.0343 -0.0610
  149OSM   H13A16463   5.958   1.763   2.236 -2.3975  1.5184  2.4164
  149OSM   H13B16464   5.973   1.671   2.387 -0.5740  0.7876  1.3914
  149OSM   H13C16465   6.113   1.678   2.302  0.3141 -0.4187 -0.2850
  149OSM    C1216466   6.180   1.930   2.328 -0.5758 -0.4033 -0.0561
  149OSM   H12A16467   6.158   1.943   2.223 -1.4586 -0.8502  0.0667
  149OSM   H12B16468   6.259   1.856   2.335 -1.7270 -1.7620 -0.9507
  149OSM    C1116469   6.231   2.057   2.393  0.0856 -0.2886  0.5573
  149OSM   H11A16470   6.140   2.111   2.429  0.7083 -0.3319  2.3113
  149OSM   H11B16471   6.283   2.123   2.321 -2.1729  1.0851  0.0836
  149OSM      P16472   6.436   1.946   2.509  0.2128  0.2051 -0.0267
  149OSM    O1316473   6.402   1.801   2.515 -0.2128 -0.4819  0.0824
  149OSM    O1416474   6.520   1.988   2.393  0.1693 -0.0025  0.3248
  149OSM    O1116475   6.506   1.998   2.641 -0.2865 -0.6835  0.2762
  149OSM    O1216476   6.306   2.029   2.515 -0.0379 -0.0088  0.4024
  149OSM    C1S16477   6.440   2.007   2.765  0.4120  0.7143  0.0159
  149OSM    H1S16478   6.335   1.975   2.750  0.8004 -0.3404 -0.5474
  149OSM    H1T16479   6.441   2.116   2.788 -0.4958  1.1502 -1.8080
  149OSM     NF16480   6.436   1.945   3.000 -0.7539 -0.3035 -0.1795
  149OSM    HNF16481   6.457   2.006   3.076 -0.3242  0.4773 -0.9175
  149OSM    C2S16482   6.523   1.943   2.886  0.3871  0.0644  0.2324
  149OSM    H2S16483   6.543   1.837   2.858  1.9205 -0.0444  1.6209
  149OSM    C3S16484   6.662   2.012   2.892 -0.4419 -0.5102  0.0470
  149OSM    H3S16485   6.636   2.114   2.926  3.4372  0.4421  0.6350
  149OSM     O316486   6.726   2.039   2.765 -0.1401  0.2085 -0.1948
  149OSM    HO316487   6.655   2.032   2.701 -0.0384 -0.1802 -0.2671
  149OSM    C4S16488   6.758   1.959   2.998 -0.0540 -0.2320 -0.6543
  149OSM    H4S16489   6.730   1.986   3.101 -0.1338 -0.8951 -0.4953
  149OSM    C5S16490   6.862   1.870   2.983  0.3507  0.2653  0.1711
  149OSM    H5S16491   6.871   1.817   2.887  1.0049  1.3800 -0.3865
  149OSM    C6S16492   6.932   1.814   3.100 -0.5058 -0.3233 -0.1424
  149OSM    H6S16493   7.041   1.825   3.087 -0.4080 -0.5386  0.4388
  149OSM    H6T16494   6.902   1.708   3.118 -3.2765  0.6520  1.7544
  149OSM    C7S16495   6.910   1.890   3.235 -0.0579 -0.1995  0.5551
  149OSM    H7S16496   6.805   1.882   3.268 -0.3641  0.1843 -0.2903
  149OSM    H7T16497   6.944   1.994   3.214  0.3272  0.0850  2.4103
  149OSM    C8S16498   6.989   1.836   3.354 -0.4590  0.6169 -0.2199
  149OSM    H8S16499   7.092   1.831   3.314 -0.0574 -1.9228  0.9558
  149OSM    H8T16500   6.960   1.730   3.368  0.7409 -0.2810 -3.5215
  149OSM    C9S16501   6.980   1.916   3.489 -0.0084 -0.7669 -0.3193
  149OSM    H9S16502   6.894   1.986   3.491  2.4691  2.4583  0.1794
  149OSM    H9T16503   7.071   1.979   3.500 -0.8685  0.5013 -0.2760
  149OSM   C10S16504   6.980   1.823   3.613  0.1538 -0.5373  0.7325
  149OSM   H10S16505   7.070   1.759   3.617  0.3578 -0.2847  0.2802
  149OSM   H10T16506   6.894   1.754   3.598  1.0941 -1.7897  1.0119
  149OSM   C11S16507   6.962   1.878   3.752 -0.1065  0.5971  0.4289
  149OSM   H11S16508   6.860   1.923   3.756 -1.2987 -1.6383 -2.2314
  149OSM   H11T16509   7.045   1.952   3.762 -1.3602  2.0752  0.3762
  149OSM   C12S16510   6.983   1.783   3.873  0.4037  0.1583 -0.9122
  149OSM   H12S16511   7.089   1.754   3.890  0.4202  0.7448  0.0790
  149OSM   H12T16512   6.921   1.691   3.866 -0.4672  0.3719  2.3889
  149OSM   C13S16513   6.925   1.851   3.997  0.2571 -0.7294  0.1117
  149OSM   H13S16514   6.815   1.862   3.999  0.5383  4.3606 -0.0105
  149OSM   H13T16515   6.962   1.954   4.012 -0.9678 -0.2830  0.1351
  149OSM   C14S16516   6.962   1.780   4.131  0.0681 -0.0808  0.8610
  149OSM   H14S16517   7.065   1.743   4.110 -0.6698 -1.1352 -1.2077
  149OSM   H14T16518   6.893   1.694   4.126  1.0635 -0.8747  0.3480
  149OSM   C15S16519   6.938   1.861   4.254  0.3501  0.0800 -0.2705
  149OSM   H15S16520   6.838   1.910   4.245  1.0438  1.2118 -2.6410
  149OSM   H15T16521   7.010   1.943   4.275  0.8599 -0.0892 -1.2870
  149OSM   C16S16522   6.941   1.778   4.384  0.4900  0.2535  1.0049
  149OSM   H16S16523   7.046   1.758   4.412  0.5469 -1.5600 -0.3065
  149OSM   H16T16524   6.891   1.679   4.371 -1.5242  0.8478  3.4113
  149OSM   C17S16525   6.867   1.833   4.510  0.3719  0.6106 -0.1702
  149OSM   H17S16526   6.756   1.844   4.500  0.0703 -0.9253  1.0499
  149OSM   H17T16527   6.907   1.931   4.541  1.1005 -0.3118  1.9742
  149OSM   C18S16528   6.862   1.743   4.637 -0.0163  0.4637 -0.1143
  149OSM   H18S16529   6.958   1.696   4.667 -0.2358 -0.0694 -0.2371
  149OSM   H18T16530   6.785   1.665   4.621 -1.8668  2.0843  0.4316
  149OSM   H18U16531   6.839   1.798   4.731 -0.1192  1.1641 -0.5388
  149OSM    C1F16532   6.330   1.866   3.017 -0.0585 -0.2145  0.2953
  149OSM     OF16533   6.317   1.772   2.935 -0.3099 -0.2216 -0.1678
  149OSM    C2F16534   6.228   1.891   3.123  0.4887 -0.1961 -0.4586
  149OSM    H2F16535   6.164   1.979   3.103 -1.1622 -0.7250  2.1059
  149OSM    H2G16536   6.282   1.920   3.215 -0.9272 -1.7378  0.9260
  149OSM    C3F16537   6.151   1.757   3.159  0.3949 -0.2217 -0.0189
  149OSM    H3F16538   6.213   1.665   3.146  0.0099 -0.7829  1.8370
  149OSM    H3G16539   6.059   1.736   3.101 -0.6864  1.2821  1.0957
  149OSM    C4F16540   6.113   1.749   3.310  0.3609 -0.2970  0.6255
  149OSM    H4F16541   6.204   1.739   3.373 -0.3007  0.9320  1.8251
  149OSM    H4G16542   6.054   1.658   3.336  0.0229  0.0234  0.9771
  149OSM    C5F16543   6.025   1.866   3.343 -0.4621 -0.4611 -0.1621
  149OSM    H5F16544   5.949   1.887   3.264 -0.5795 -0.3452 -0.0187
  149OSM    H5G16545   6.098   1.951   3.344  1.3479 -1.8834 -2.0642
  149OSM    C6F16546   5.951   1.849   3.477 -0.1175 -0.1607 -0.2665
  149OSM    H6F16547   5.886   1.761   3.458  0.4441 -0.1076 -2.6973
  149OSM    H6G16548   5.884   1.938   3.484 -0.1906 -0.2687  0.6703
  149OSM    C7F16549   6.032   1.825   3.606 -0.5518  0.5330  0.6470
  149OSM    H7F16550   6.095   1.916   3.607 -1.1608  1.0622 -1.6409
  149OSM    H7G16551   6.105   1.743   3.587 -1.8408 -0.4557 -0.2489
  149OSM    C8F16552   5.942   1.799   3.724 -0.2401 -0.5090 -0.0334
  149OSM    H8F16553   6.002   1.755   3.807 -2.2064 -1.1267  1.1489
  149OSM    H8G16554   5.879   1.715   3.689  0.0809 -1.5763  1.8214
  149OSM    C9F16555   5.855   1.909   3.774 -0.7373 -0.3527 -0.5705
  149OSM    H9F16556   5.771   1.946   3.713  0.5523  2.2542 -0.9173
  149OSM   C10F16557   5.873   1.983   3.884 -0.6055  0.0040  0.0023
  149OSM   H10F16558   5.813   2.073   3.903  1.2987  1.0966  1.2920
  149OSM   C11F16559   5.990   1.960   3.977 -0.3521  0.2656 -0.8296
  149OSM   H11F16560   6.039   2.059   3.991 -0.7775  0.0574  3.0684
  149OSM   H11G16561   6.074   1.900   3.936  0.4754 -0.1263  1.3112
  149OSM   C12F16562   5.954   1.895   4.111 -0.7909  0.3084  0.1588
  149OSM   H12F16563   6.053   1.866   4.153 -1.6990  1.0245  3.0844
  149OSM   H12G16564   5.880   1.813   4.095  0.0731 -0.2301 -1.2435
  149OSM   C13F16565   5.886   2.001   4.200  0.6131  0.7651  0.4048
  149OSM   H13F16566   5.805   2.049   4.140 -0.8643  1.0299  2.5148
  149OSM   H13G16567   5.953   2.086   4.224  0.5196  0.8303  0.4392
  149OSM   C14F16568   5.822   1.934   4.326  0.8354 -0.2357  0.2749
  149OSM   H14F16569   5.906   1.879   4.374 -0.7623 -1.8296  1.3586
  149OSM   H14G16570   5.755   1.855   4.286  2.4249 -1.2056 -0.5748
  149OSM   C15F16571   5.750   2.038   4.415 -0.2778  0.2339 -0.2657
  149OSM   H15F16572   5.671   2.087   4.354  0.1346 -0.6564 -1.5648
  149OSM   H15G16573   5.821   2.119   4.443 -0.8868  0.1649  1.6096
  149OSM   C16F16574   5.690   1.972   4.537 -0.1589 -0.4758  0.1066
  149OSM   H16F16575   5.602   1.912   4.507  0.2276 -0.5110 -1.0325
  149OSM   H16G16576   5.647   2.053   4.599  2.2892  0.8288  0.2225
  149OSM   C17F16577   5.779   1.883   4.625 -0.6568 -0.2783  0.1643
  149OSM   H17F16578   5.879   1.929   4.643 -1.4446  0.2069  4.3216
  149OSM   H17G16579   5.802   1.784   4.579 -0.2000 -0.8116  1.4842
  149OSM   C18F16580   5.709   1.860   4.755  0.0004 -0.3063 -0.2116
  149OSM   H18F16581   5.785   1.816   4.823  0.7796  0.7586 -0.3842
  149OSM   H18G16582   5.623   1.790   4.748  0.0100 -0.2617 -0.7666
  149OSM   H18H16583   5.673   1.957   4.796  0.6874  0.5933 -1.6810
  150OSM      N16584   5.047   3.780   2.688 -0.3721  0.1839  0.0932
  150OSM    C1516585   5.065   3.904   2.606 -0.2034  0.6688 -0.7808
  150OSM   H15A16586   4.993   3.983   2.621  0.0760  0.7303  0.2734
  150OSM   H15B16587   5.053   3.872   2.504 -0.2855 -0.7909 -0.3365
  150OSM   H15C16588   5.160   3.951   2.625 -0.8841  1.6189  0.4508
  150OSM    C1416589   5.029   3.811   2.828 -0.3821  0.0224 -0.2722
  150OSM   H14A16590   4.950   3.886   2.832  1.3702  1.8908  1.4213
  150OSM   H14B16591   5.116   3.851   2.876 -1.5241  0.8012  1.2467
  150OSM   H14C16592   4.986   3.724   2.875 -0.5304  0.6946  0.8780
  150OSM    C1316593   4.929   3.696   2.632  0.2083 -0.0743 -0.6988
  150OSM   H13A16594   4.969   3.661   2.537  1.3390 -2.1271  0.4567
  150OSM   H13B16595   4.835   3.746   2.615  0.0876 -0.2358 -0.5112
  150OSM   H13C16596   4.903   3.604   2.682 -1.5822  1.3565  1.1662
  150OSM    C1216597   5.175   3.695   2.672  0.3379  0.0568  0.8060
  150OSM   H12A16598   5.187   3.676   2.567 -0.5967  4.1173 -0.1932
  150OSM   H12B16599   5.163   3.596   2.712 -1.7433 -0.0264  0.0711
  150OSM    C1116600   5.309   3.744   2.734 -0.0113 -0.5115  0.1372
  150OSM   H11A16601   5.377   3.657   2.727  0.9599  0.3057 -1.0935
  150OSM   H11B16602   5.279   3.770   2.838 -3.4723  1.4175 -1.1751
  150OSM      P16603   5.450   3.882   2.553 -0.4252  0.0659  0.0261
  150OSM    O1316604   5.482   3.755   2.485  0.6136  0.6927 -0.3369
  150OSM    O1416605   5.391   3.989   2.468 -0.4657  0.4721 -0.5617
  150OSM    O1116606   5.585   3.942   2.627  0.4670 -0.0845  0.5493
  150OSM    O1216607   5.356   3.861   2.673  0.3587 -0.4087 -0.0524
  150OSM    C1S16608   5.673   3.846   2.697 -0.3642  0.3441 -0.2522
  150OSM    H1S16609   5.751   3.810   2.626 -1.0624  0.1189 -0.9267
  150OSM    H1T16610   5.624   3.750   2.726  2.6048 -0.8749  1.1852
  150OSM     NF16611   5.822   3.782   2.880 -0.2008 -0.0668 -0.2848
  150OSM    HNF16612   5.785   3.734   2.959  0.5595  0.4411  0.3956
  150OSM    C2S16613   5.748   3.887   2.818  0.1224 -0.0190 -0.2096
  150OSM    H2S16614   5.822   3.966   2.792  0.6563 -0.8745 -1.3757
  150OSM    C3S16615   5.650   3.958   2.909  0.7172 -0.1399 -0.0106
  150OSM    H3S16616   5.554   3.903   2.916 -0.4265  1.8335  0.8431
  150OSM     O316617   5.617   4.087   2.856  0.4040 -0.7609  0.5943
  150OSM    HO316618   5.635   4.081   2.761 -0.0115  1.1076  0.3575
  150OSM    C4S16619   5.697   3.985   3.047 -0.2922  0.3452  0.3301
  150OSM    H4S16620   5.796   4.033   3.055 -1.0006  1.6912  1.5696
  150OSM    C5S16621   5.635   3.947   3.160  0.0402  0.4073  0.6005
  150OSM    H5S16622   5.542   3.889   3.145 -1.5869  2.8650  0.6314
  150OSM    C6S16623   5.700   3.950   3.295 -0.3197 -0.2296 -0.7093
  150OSM    H6S16624   5.629   3.997   3.367 -0.3949  1.0879 -1.5999
  150OSM    H6T16625   5.789   4.016   3.286 -0.9695  1.0279  1.3983
  150OSM    C7S16626   5.752   3.823   3.360 -0.4228  0.2182 -0.2581
  150OSM    H7S16627   5.669   3.750   3.357 -0.7219  0.5118 -4.6196
  150OSM    H7T16628   5.776   3.839   3.468 -0.3018  0.3998 -0.3113
  150OSM    C8S16629   5.879   3.762   3.295 -0.1518  0.1252 -0.1273
  150OSM    H8S16630   5.888   3.800   3.192  1.8858 -2.5888 -1.0830
  150OSM    H8T16631   5.869   3.652   3.278  3.2169 -0.1999 -0.7588
  150OSM    C9S16632   6.005   3.771   3.381 -0.1701 -0.1011  0.0982
  150OSM    H9S16633   5.990   3.696   3.462 -2.6107  0.9544  0.7302
  150OSM    H9T16634   6.008   3.875   3.420 -0.9890 -0.3471  0.8545
  150OSM   C10S16635   6.130   3.757   3.302  0.2133  0.1492  0.7977
  150OSM   H10S16636   6.097   3.818   3.215 -2.4275 -0.3077  1.4013
  150OSM   H10T16637   6.153   3.659   3.255  0.9723  0.3972  0.6348
  150OSM   C11S16638   6.249   3.825   3.371  0.2883  0.1859 -0.3875
  150OSM   H11S16639   6.233   3.932   3.395  3.0730  0.4665  0.6211
  150OSM   H11T16640   6.332   3.811   3.298  0.3959 -3.5306  0.2287
  150OSM   C12S16641   6.296   3.757   3.496 -1.0310  0.4885  0.9675
  150OSM   H12S16642   6.347   3.661   3.475 -0.1726  1.0874  0.1785
  150OSM   H12T16643   6.220   3.729   3.572 -0.9890  2.4940  1.8100
  150OSM   C13S16644   6.391   3.842   3.570 -0.3657 -0.8693 -0.4406
  150OSM   H13S16645   6.338   3.938   3.587  0.4598 -0.3420 -0.8086
  150OSM   H13T16646   6.478   3.874   3.508 -0.6583 -0.3995 -0.6190
  150OSM   C14S16647   6.446   3.789   3.701 -0.2052 -0.3377 -0.6019
  150OSM   H14S16648   6.473   3.682   3.688  1.6277 -0.0384  0.4208
  150OSM   H14T16649   6.364   3.779   3.774  1.0576 -1.1594  0.7703
  150OSM   C15S16650   6.556   3.873   3.767 -0.8123  0.5039 -0.0822
  150OSM   H15S16651   6.543   3.981   3.746  0.5702  0.3596 -2.0030
  150OSM   H15T16652   6.659   3.845   3.735  0.1072  0.9924  2.2367
  150OSM   C16S16653   6.563   3.847   3.920  0.5774  0.4302 -0.4020
  150OSM   H16S16654   6.549   3.741   3.946  0.3141  0.8383  1.2131
  150OSM   H16T16655   6.475   3.905   3.955 -0.0773 -0.2007 -0.9961
  150OSM   C17S16656   6.685   3.892   3.985 -0.2056 -0.2078  0.0948
  150OSM   H17S16657   6.681   3.999   3.953  0.4459 -0.4111 -0.7090
  150OSM   H17T16658   6.771   3.834   3.947 -0.5968 -0.8241  0.1495
  150OSM   C18S16659   6.681   3.896   4.140 -0.4036  0.1297 -0.0059
  150OSM   H18S16660   6.698   3.793   4.178  0.9143  0.6606  0.9207
  150OSM   H18T16661   6.590   3.940   4.186 -0.2496 -1.4240  1.8588
  150OSM   H18U16662   6.762   3.958   4.184 -0.5611  0.8256 -0.6632
  150OSM    C1F16663   5.922   3.723   2.813 -0.0167  0.4226 -0.0170
  150OSM     OF16664   5.963   3.777   2.710 -0.0855  0.1535 -0.2587
  150OSM    C2F16665   5.991   3.603   2.874  0.5640  0.5757 -0.2634
  150OSM    H2F16666   5.928   3.514   2.852  2.2715 -0.6241 -0.4753
  150OSM    H2G16667   6.000   3.629   2.982 -0.8502 -0.1015  0.0418
  150OSM    C3F16668   6.127   3.576   2.806 -0.3112 -0.1308  0.1313
  150OSM    H3F16669   6.190   3.666   2.819 -1.4473  0.5848  0.8385
  150OSM    H3G16670   6.111   3.570   2.696  0.9585  0.2615 -0.0897
  150OSM    C4F16671   6.201   3.449   2.865  0.6328 -0.3304  0.3472
  150OSM    H4F16672   6.302   3.434   2.820  1.3072 -1.1815  2.0620
  150OSM    H4G16673   6.139   3.361   2.839  1.0814 -0.1976 -1.3082
  150OSM    C5F16674   6.228   3.462   3.013 -0.3286 -0.1861  0.2291
  150OSM    H5F16675   6.135   3.463   3.073 -0.5122  1.2533 -0.0530
  150OSM    H5G16676   6.276   3.558   3.040 -0.0336 -0.7655  1.8511
  150OSM    C6F16677   6.318   3.349   3.062  0.8628  0.1346  0.0330
  150OSM    H6F16678   6.426   3.371   3.045  0.2054  3.0515 -0.8196
  150OSM    H6G16679   6.299   3.252   3.011  0.9105 -1.6801  3.1809
  150OSM    C7F16680   6.300   3.324   3.206  0.5394 -0.8907 -0.1763
  150OSM    H7F16681   6.197   3.285   3.221  0.2123 -0.0192 -0.1279
  150OSM    H7G16682   6.303   3.422   3.259 -1.2703 -0.7860 -0.2148
  150OSM    C8F16683   6.398   3.225   3.269  0.3026  0.1727 -0.4019
  150OSM    H8F16684   6.391   3.127   3.217 -2.0251  0.6755 -1.1566
  150OSM    H8G16685   6.357   3.216   3.372 -1.9676  0.0645 -1.2622
  150OSM    C9F16686   6.544   3.278   3.274 -0.1911  0.6955 -0.4937
  150OSM    H9F16687   6.591   3.295   3.176  0.8328 -0.8905 -0.3093
  150OSM   C10F16688   6.623   3.300   3.384 -0.5651  0.9226 -0.0427
  150OSM   H10F16689   6.730   3.324   3.373 -0.3571 -0.6607 -1.9422
  150OSM   C11F16690   6.581   3.275   3.531  0.2192  0.2700  0.0169
  150OSM   H11F16691   6.642   3.201   3.588 -0.3247  0.8861  1.4536
  150OSM   H11G16692   6.482   3.225   3.530  1.5246 -2.6231 -2.8911
  150OSM   C12F16693   6.583   3.399   3.614  0.1852  0.0895  0.6353
  150OSM   H12F16694   6.552   3.490   3.557 -1.2634  0.1016  1.3876
  150OSM   H12G16695   6.686   3.417   3.649  0.6225  0.4186 -0.7436
  150OSM   C13F16696   6.499   3.390   3.741  0.0052 -0.0548  0.0286
  150OSM   H13F16697   6.532   3.466   3.816 -1.3070  1.6049 -1.0043
  150OSM   H13G16698   6.515   3.290   3.786  0.5938 -1.2051 -2.5555
  150OSM   C14F16699   6.342   3.413   3.723 -0.1844 -0.4292  0.0894
  150OSM   H14F16700   6.301   3.346   3.645 -2.3838 -1.3384  1.9011
  150OSM   H14G16701   6.337   3.522   3.700  2.1830 -0.3955 -0.5855
  150OSM   C15F16702   6.256   3.372   3.844 -0.1394  0.0062  0.0929
  150OSM   H15F16703   6.300   3.277   3.883 -3.0472 -0.7601  1.8061
  150OSM   H15G16704   6.153   3.357   3.808 -0.3195 -1.1381  1.0046
  150OSM   C16F16705   6.264   3.475   3.959  0.2176 -0.6801 -0.2460
  150OSM   H16F16706   6.194   3.560   3.944  2.7655  2.5268  3.5942
  150OSM   H16G16707   6.362   3.526   3.975  0.8485 -1.4476 -1.5067
  150OSM   C17F16708   6.221   3.419   4.092 -0.6909 -0.2081  0.1343
  150OSM   H17F16709   6.277   3.323   4.099  0.5007  0.3480 -1.3250
  150OSM   H17G16710   6.111   3.403   4.088 -0.5749 -1.2439  0.6365
  150OSM   C18F16711   6.266   3.527   4.204 -0.6125  0.9527  0.1228
  150OSM   H18F16712   6.227   3.484   4.298  1.0485 -2.2053 -0.4980
  150OSM   H18G16713   6.224   3.621   4.161  0.7402  1.8574  0.7054
  150OSM   H18H16714   6.377   3.533   4.206 -0.6640  1.9356  1.7253
  151OSM      N16715   3.534   3.343   2.198 -0.3894 -0.3789  0.0108
  151OSM    C1516716   3.570   3.438   2.080 -0.0775  0.7320 -0.7305
  151OSM   H15A16717   3.668   3.482   2.093  0.2795 -0.0185 -0.8302
  151OSM   H15B16718   3.496   3.516   2.068  1.1782  1.8837 -1.1618
  151OSM   H15C16719   3.569   3.379   1.990 -0.8853  1.8896 -1.5143
  151OSM    C1416720   3.645   3.249   2.224 -0.8639 -0.0593 -0.9366
  151OSM   H14A16721   3.675   3.197   2.134 -0.6350  0.9892 -1.4918
  151OSM   H14B16722   3.614   3.179   2.300 -1.5537  0.8359 -0.3790
  151OSM   H14C16723   3.729   3.307   2.261 -1.8271 -0.3779  1.9549
  151OSM    C1316724   3.497   3.423   2.319  0.1323 -0.4511  0.2399
  151OSM   H13A16725   3.474   3.361   2.404  2.6071  1.0489  2.1625
  151OSM   H13B16726   3.411   3.484   2.294  0.7284  1.7193  2.9688
  151OSM   H13C16727   3.567   3.495   2.358 -0.2495 -0.5803  1.1923
  151OSM    C1216728   3.413   3.262   2.161  0.0115  0.0781  0.7927
  151OSM   H12A16729   3.437   3.203   2.074 -2.5621 -0.5498  0.4115
  151OSM   H12B16730   3.343   3.332   2.117  2.3096  1.2866 -1.1989
  151OSM    C1116731   3.329   3.186   2.263 -0.2538  0.1627 -0.3523
  151OSM   H11A16732   3.250   3.124   2.214 -0.6304  1.9961 -2.1974
  151OSM   H11B16733   3.272   3.264   2.318 -1.7134 -1.8732  1.1937
  151OSM      P16734   3.457   2.958   2.329  0.1080  0.0945 -0.0753
  151OSM    O1316735   3.333   2.877   2.316 -0.0834  0.2306 -0.0315
  151OSM    O1416736   3.557   2.955   2.220 -0.7507 -0.1947 -0.2959
  151OSM    O1116737   3.534   2.934   2.466 -0.2296  0.3425 -0.3240
  151OSM    O1216738   3.409   3.111   2.348 -0.2592  0.2118 -0.2812
  151OSM    C1S16739   3.667   2.991   2.480 -0.6239  0.3895 -0.2708
  151OSM    H1S16740   3.674   3.095   2.443 -0.4390  1.1126  1.6837
  151OSM    H1T16741   3.738   2.929   2.421 -1.2448 -0.0082 -0.6178
  151OSM     NF16742   3.842   3.083   2.643  1.4721  0.6717  0.3603
  151OSM    HNF16743   3.932   3.043   2.657  0.7659 -1.1705 -0.0580
  151OSM    C2S16744   3.724   2.994   2.631  0.1248  0.4009  0.0897
  151OSM    H2S16745   3.644   3.043   2.691  0.4763  2.6361 -1.1528
  151OSM    C3S16746   3.739   2.851   2.691  0.6719 -0.4542 -0.1216
  151OSM    H3S16747   3.830   2.812   2.640  0.0900 -0.9521 -0.8029
  151OSM     O316748   3.637   2.762   2.644 -0.2724 -0.0879 -0.3704
  151OSM    HO316749   3.590   2.805   2.573 -0.6977  0.0622 -0.0029
  151OSM    C4S16750   3.747   2.854   2.845 -0.1353 -0.0549  0.1169
  151OSM    H4S16751   3.656   2.831   2.902  0.6898 -1.9492  0.7850
  151OSM    C5S16752   3.861   2.854   2.913  0.1725  0.6432  0.0800
  151OSM    H5S16753   3.952   2.850   2.852  0.4379  1.3133  0.4201
  151OSM    C6S16754   3.887   2.832   3.067  0.4656 -1.2028  0.2642
  151OSM    H6S16755   3.994   2.803   3.075  0.6609 -0.4046  0.6288
  151OSM    H6T16756   3.809   2.764   3.106 -1.3703  1.3105  1.2254
  151OSM    C7S16757   3.870   2.969   3.132 -0.7210 -0.1314  0.2476
  151OSM    H7S16758   3.768   3.012   3.122 -0.5966  0.0154 -0.4022
  151OSM    H7T16759   3.941   3.032   3.075 -1.4377 -0.6099 -1.2107
  151OSM    C8S16760   3.898   2.967   3.280 -0.0179  0.2083  0.1735
  151OSM    H8S16761   4.001   2.927   3.293  0.2315  0.5383 -0.6834
  151OSM    H8T16762   3.823   2.897   3.323 -1.0051 -0.0458 -1.8400
  151OSM    C9S16763   3.900   3.095   3.360 -0.3446 -0.2436  0.7038
  151OSM    H9S16764   3.798   3.138   3.367 -0.1134  0.1039  2.5119
  151OSM    H9T16765   3.981   3.161   3.323 -1.3691 -0.8154 -3.0038
  151OSM   C10S16766   3.944   3.075   3.503 -0.7171  0.5591 -0.7420
  151OSM   H10S16767   4.045   3.029   3.500 -0.5964  0.7960 -0.4639
  151OSM   H10T16768   3.880   3.002   3.557  1.1130  0.6770  1.7457
  151OSM   C11S16769   3.953   3.204   3.588 -0.1444 -0.3436  0.5117
  151OSM   H11S16770   3.888   3.272   3.529  2.4010  0.6118 -1.3636
  151OSM   H11T16771   4.057   3.244   3.589 -1.3943  3.6140 -2.4919
  151OSM   C12S16772   3.888   3.189   3.728 -0.3569 -0.4969  0.8499
  151OSM   H12S16773   3.957   3.124   3.787  1.8384  0.6115 -0.3977
  151OSM   H12T16774   3.789   3.138   3.719 -0.5432 -0.1768  1.0315
  151OSM   C13S16775   3.863   3.318   3.813  0.3210  0.0026  0.0686
  151OSM   H13S16776   3.800   3.387   3.752 -0.7210 -0.9223  0.0807
  151OSM   H13T16777   3.963   3.366   3.826  1.1609 -1.1920 -1.6162
  151OSM   C14S16778   3.789   3.290   3.944  0.1550 -0.0805 -0.2786
  151OSM   H14S16779   3.700   3.230   3.918  0.3320 -0.8594  0.8351
  151OSM   H14T16780   3.739   3.379   3.988 -1.0109 -1.6912  1.8235
  151OSM   C15S16781   3.871   3.213   4.049 -0.3099  0.0796  0.2514
  151OSM   H15S16782   3.973   3.255   4.066  0.2412 -1.3050  0.4672
  151OSM   H15T16783   3.895   3.112   4.010 -2.2157 -0.6783  0.8980
  151OSM   C16S16784   3.799   3.185   4.178 -0.2162 -0.1940 -0.0035
  151OSM   H16S16785   3.721   3.263   4.190 -0.2321 -0.1284 -0.5313
  151OSM   H16T16786   3.865   3.192   4.268 -0.0752 -0.8342 -0.0536
  151OSM   C17S16787   3.716   3.054   4.178 -0.9776  0.5133 -0.2159
  151OSM   H17S16788   3.645   3.037   4.095 -0.6674 -1.4696 -0.1316
  151OSM   H17T16789   3.661   3.040   4.274 -1.0278  1.1683 -0.1430
  151OSM   C18S16790   3.813   2.938   4.183 -0.2761  0.4289  0.5103
  151OSM   H18S16791   3.904   2.959   4.243  0.6872  1.1862 -1.1545
  151OSM   H18T16792   3.855   2.912   4.084 -0.9083 -0.5401  0.4832
  151OSM   H18U16793   3.769   2.849   4.232  0.0814  0.4103  0.8000
  151OSM    C1F16794   3.824   3.212   2.629  0.3253  0.0495  0.2903
  151OSM     OF16795   3.710   3.264   2.593 -0.5737 -0.6325  0.0337
  151OSM    C2F16796   3.942   3.299   2.660  1.0305 -0.1678  0.3531
  151OSM    H2F16797   3.937   3.392   2.599  0.4958  0.3288  1.1320
  151OSM    H2G16798   4.032   3.248   2.621  1.4199 -0.2853  1.3810
  151OSM    C3F16799   3.952   3.343   2.808  0.4565 -0.0975  0.2397
  151OSM    H3F16800   3.944   3.252   2.872  0.7976  0.5986  1.3142
  151OSM    H3G16801   3.866   3.402   2.846  0.1211  0.9266 -1.9842
  151OSM    C4F16802   4.076   3.420   2.844  0.1451  0.2104 -0.0399
  151OSM    H4F16803   4.095   3.500   2.770 -2.1194  1.4725  0.6200
  151OSM    H4G16804   4.171   3.363   2.839  1.2255  1.8412  0.8713
  151OSM    C5F16805   4.082   3.495   2.977 -0.0147 -0.2867  0.0970
  151OSM    H5F16806   3.987   3.553   2.982 -0.3329 -0.8113  0.2487
  151OSM    H5G16807   4.176   3.553   2.982 -0.1624 -0.0745  0.4386
  151OSM    C6F16808   4.071   3.398   3.097 -0.3603 -0.4907  0.0578
  151OSM    H6F16809   4.129   3.309   3.066  1.1085  0.5260 -0.2485
  151OSM    H6G16810   3.966   3.371   3.123  0.2570 -0.9092  2.3853
  151OSM    C7F16811   4.143   3.453   3.227  0.6318 -0.1809 -0.3353
  151OSM    H7F16812   4.252   3.444   3.206  0.6825  2.1733 -1.4486
  151OSM    H7G16813   4.119   3.382   3.308 -1.7619 -1.0575 -1.7075
  151OSM    C8F16814   4.114   3.597   3.255  0.2333  0.8326 -0.8128
  151OSM    H8F16815   4.007   3.590   3.284 -0.1034 -3.3273 -2.3830
  151OSM    H8G16816   4.103   3.665   3.168 -2.2517  0.1189 -1.1441
  151OSM    C9F16817   4.188   3.659   3.369  0.2998  0.6375  0.4840
  151OSM    H9F16818   4.210   3.590   3.452 -2.4655 -0.8123  0.1517
  151OSM   C10F16819   4.229   3.785   3.362 -0.0726  0.4363 -0.0143
  151OSM   H10F16820   4.291   3.825   3.443  2.6131 -2.0664 -0.6624
  151OSM   C11F16821   4.207   3.887   3.256  0.0382 -0.6761  0.1437
  151OSM   H11F16822   4.257   3.979   3.295  0.1099 -1.1079  1.0977
  151OSM   H11G16823   4.100   3.904   3.233  0.3445  0.7881 -0.3063
  151OSM   C12F16824   4.280   3.881   3.109 -0.4501 -0.5063  0.2657
  151OSM   H12F16825   4.280   3.984   3.068  1.8533 -0.0044  1.3631
  151OSM   H12G16826   4.233   3.811   3.037  0.1909 -0.3830 -0.2853
  151OSM   C13F16827   4.426   3.849   3.119  0.0715  0.0341 -0.3231
  151OSM   H13F16828   4.431   3.743   3.152  2.4267  0.0567 -0.4161
  151OSM   H13G16829   4.482   3.906   3.197  0.4880  1.3353 -1.5462
  151OSM   C14F16830   4.503   3.876   2.986 -0.2277 -1.0841  0.4548
  151OSM   H14F16831   4.443   3.851   2.895 -0.6751  0.0846  0.4166
  151OSM   H14G16832   4.600   3.822   2.986  2.3802  3.1575  0.5888
  151OSM   C15F16833   4.533   4.031   2.963  0.5030 -0.6154  0.0918
  151OSM   H15F16834   4.604   4.073   3.037 -0.3592  0.2389  0.4549
  151OSM   H15G16835   4.439   4.088   2.979  0.6548  0.5588 -2.5748
  151OSM   C16F16836   4.585   4.067   2.820  0.2179  0.2426 -0.2917
  151OSM   H16F16837   4.572   4.177   2.809 -2.0043  0.0081 -0.4411
  151OSM   H16G16838   4.521   4.010   2.750  0.2236  0.0315 -0.1250
  151OSM   C17F16839   4.733   4.040   2.804  0.0637  1.0050  0.2287
  151OSM   H17F16840   4.752   4.040   2.695 -1.5990  2.3767 -0.1227
  151OSM   H17G16841   4.756   3.935   2.829 -0.0793  1.2951  1.6488
  151OSM   C18F16842   4.829   4.125   2.876  0.4472  1.0726  0.3946
  151OSM   H18F16843   4.791   4.229   2.882  1.8657  1.7813 -1.7957
  151OSM   H18G16844   4.924   4.126   2.819 -0.2185 -0.6257 -0.8387
  151OSM   H18H16845   4.851   4.082   2.976 -0.5438  1.5484  0.8348
  152OSM      N16846   5.828   5.138   2.204 -0.0642  0.0375  0.3583
  152OSM    C1516847   5.939   5.068   2.272  0.2842  0.3863  0.2161
  152OSM   H15A16848   5.998   5.001   2.210  2.9070  2.3252  0.4209
  152OSM   H15B16849   5.914   5.021   2.366 -0.3190 -1.9262 -1.0257
  152OSM   H15C16850   6.015   5.135   2.311 -1.3551  2.7254 -0.4239
  152OSM    C1416851   5.888   5.234   2.109  0.0810 -0.0047  0.4119
  152OSM   H14A16852   5.934   5.203   2.017  1.1276  2.3237  0.0892
  152OSM   H14B16853   5.959   5.297   2.160 -0.7157  0.5064  0.9122
  152OSM   H14C16854   5.807   5.295   2.071 -0.8938 -1.8285 -0.5553
  152OSM    C1316855   5.748   5.043   2.118 -0.8894  0.4733 -0.4525
  152OSM   H13A16856   5.813   5.018   2.035 -2.0155 -0.4712 -1.0688
  152OSM   H13B16857   5.654   5.086   2.087 -0.9869  2.0354  1.7159
  152OSM   H13C16858   5.725   4.953   2.172  1.3142  0.9473  1.4583
  152OSM    C1216859   5.742   5.205   2.303  0.2185 -0.5216 -0.3488
  152OSM   H12A16860   5.799   5.260   2.376 -0.8961 -2.1354  1.8409
  152OSM   H12B16861   5.694   5.128   2.362 -3.4079 -0.0327 -2.3496
  152OSM    C1116862   5.621   5.294   2.258 -0.4010 -0.1331 -0.4198
  152OSM   H11A16863   5.665   5.376   2.197 -0.7973 -1.0706 -2.0218
  152OSM   H11B16864   5.568   5.342   2.343  1.1583  2.3135 -0.7284
  152OSM      P16865   5.372   5.220   2.197  0.0467  0.0228  0.2171
  152OSM    O1316866   5.320   5.359   2.188 -0.0039  0.8513  0.0736
  152OSM    O1416867   5.323   5.127   2.095 -0.1473  0.0046  0.2792
  152OSM    O1116868   5.351   5.159   2.344  0.1923 -0.3971  0.2039
  152OSM    O1216869   5.529   5.225   2.172 -0.2997  0.1019  0.3841
  152OSM    C1S16870   5.385   5.027   2.386 -0.1545  0.2848  0.7333
  152OSM    H1S16871   5.493   5.027   2.414  0.3130 -1.7173 -0.8086
  152OSM    H1T16872   5.354   4.951   2.311  0.2422 -0.4475  1.2881
  152OSM     NF16873   5.358   4.896   2.594 -0.1717 -0.1699 -0.2637
  152OSM    HNF16874   5.310   4.809   2.606  4.0794 -3.1852 -2.3991
  152OSM    C2S16875   5.302   4.998   2.515  0.2013 -0.7278  0.3733
  152OSM    H2S16876   5.313   5.092   2.574  2.1579 -1.3445  1.0931
  152OSM    C3S16877   5.150   4.987   2.472  0.4821  0.5836  0.1496
  152OSM    H3S16878   5.146   4.896   2.408  1.1108  0.0448  0.8400
  152OSM     O316879   5.103   5.088   2.385 -0.3155 -0.0435  0.3074
  152OSM    HO316880   5.186   5.134   2.370 -1.0143  0.6149 -1.9353
  152OSM    C4S16881   5.051   4.960   2.581 -0.8030  0.5300 -0.1943
  152OSM    H4S16882   5.030   4.853   2.596  0.6205  0.4395  1.5230
  152OSM    C5S16883   4.999   5.048   2.666  0.0663 -0.3531 -0.3756
  152OSM    H5S16884   5.020   5.155   2.669 -0.4585 -0.2329 -0.7560
  152OSM    C6S16885   4.908   5.000   2.782 -0.3872 -1.0346 -0.5605
  152OSM    H6S16886   4.894   4.890   2.786 -0.3196 -1.0228  3.3940
  152OSM    H6T16887   4.805   5.036   2.762 -0.3492  0.8824  2.1380
  152OSM    C7S16888   4.963   5.048   2.917  0.2215 -0.0346 -0.1999
  152OSM    H7S16889   4.885   5.013   2.988 -0.1665  2.5687  0.7894
  152OSM    H7T16890   4.977   5.158   2.928 -0.9484  0.0833  0.3657
  152OSM    C8S16891   5.090   4.964   2.962  0.2804  0.1320 -0.2380
  152OSM    H8S16892   5.172   5.022   2.915  0.8904 -0.7353 -0.2596
  152OSM    H8T16893   5.082   4.860   2.925  0.3872  0.4830 -1.2591
  152OSM    C9S16894   5.096   4.989   3.110 -0.4264  0.2909 -0.4815
  152OSM    H9S16895   5.002   4.957   3.160  1.3335 -2.0755  1.5606
  152OSM    H9T16896   5.108   5.099   3.122 -0.2750  0.1259  1.0384
  152OSM   C10S16897   5.195   4.899   3.187  0.1493 -0.4147  0.1351
  152OSM   H10S16898   5.297   4.907   3.145 -0.8131 -0.4870 -2.4070
  152OSM   H10T16899   5.164   4.793   3.176  0.0823 -0.3058 -0.8700
  152OSM   C11S16900   5.197   4.942   3.336  0.4022  0.4131  0.0276
  152OSM   H11S16901   5.092   4.937   3.370  0.3232 -1.3010 -0.3621
  152OSM   H11T16902   5.236   5.046   3.340  1.1736  0.0783  2.0069
  152OSM   C12S16903   5.280   4.845   3.421  0.1257 -0.5013  0.5608
  152OSM   H12S16904   5.381   4.873   3.384  0.2057  0.6594  1.6057
  152OSM   H12T16905   5.243   4.742   3.400 -1.6750  0.0042  1.0603
  152OSM   C13S16906   5.250   4.858   3.569  0.0228  0.9595 -0.6701
  152OSM   H13S16907   5.140   4.843   3.577 -0.2272  2.1581 -1.5972
  152OSM   H13T16908   5.262   4.964   3.601  0.4725  0.4669  0.8936
  152OSM   C14S16909   5.330   4.766   3.666  0.6464 -0.4603  0.1134
  152OSM   H14S16910   5.435   4.769   3.628  0.0401  0.7926 -1.5640
  152OSM   H14T16911   5.288   4.663   3.667 -0.9084  0.1526  0.2387
  152OSM   C15S16912   5.317   4.823   3.806  0.0898 -0.1747  0.1455
  152OSM   H15S16913   5.209   4.816   3.830 -0.3750 -0.1121 -1.7553
  152OSM   H15T16914   5.348   4.930   3.808  2.2663 -0.7447 -0.2726
  152OSM   C16S16915   5.416   4.759   3.903 -0.7425 -0.0859 -0.1605
  152OSM   H16S16916   5.417   4.819   3.996  3.1524 -0.3070  0.0708
  152OSM   H16T16917   5.515   4.760   3.854 -0.4813 -0.7721  0.3379
  152OSM   C17S16918   5.381   4.608   3.927 -0.5491  0.4398 -0.2707
  152OSM   H17S16919   5.377   4.560   3.827  0.8683  2.8812 -1.5936
  152OSM   H17T16920   5.290   4.594   3.990 -0.5568  2.1900  0.1526
  152OSM   C18S16921   5.500   4.541   4.006  0.5138  0.4584  0.5122
  152OSM   H18S16922   5.498   4.553   4.117 -0.5218  1.1162  0.4435
  152OSM   H18T16923   5.597   4.572   3.962  1.0104 -0.7798  0.7093
  152OSM   H18U16924   5.495   4.431   4.000  2.0109  0.3436  0.9544
  152OSM    C1F16925   5.468   4.916   2.667  0.0017  0.5605  0.8850
  152OSM     OF16926   5.547   5.010   2.644 -1.1724 -0.3460  0.9539
  152OSM    C2F16927   5.485   4.823   2.780  0.0420 -0.6754 -0.3904
  152OSM    H2F16928   5.535   4.733   2.738 -1.9041 -1.0916 -1.9525
  152OSM    H2G16929   5.385   4.784   2.806 -0.3932 -0.2032 -1.2972
  152OSM    C3F16930   5.551   4.893   2.902 -0.0827 -0.2631 -1.1560
  152OSM    H3F16931   5.471   4.947   2.958  0.1896  1.1560 -2.0898
  152OSM    H3G16932   5.634   4.961   2.875 -1.8503  1.3786 -2.8101
  152OSM    C4F16933   5.620   4.804   3.007 -0.6504 -1.1655 -0.1781
  152OSM    H4F16934   5.696   4.853   3.072 -0.0677  1.0551 -2.4009
  152OSM    H4G16935   5.701   4.752   2.951  3.2724  2.4055  1.6387
  152OSM    C5F16936   5.535   4.684   3.067  0.1028 -0.7750  0.5606
  152OSM    H5F16937   5.510   4.622   2.978 -1.7534 -0.8295  1.0793
  152OSM    H5G16938   5.442   4.710   3.122 -0.5222 -0.6813 -0.4924
  152OSM    C6F16939   5.618   4.599   3.165  0.4801  0.3298 -0.3590
  152OSM    H6F16940   5.728   4.612   3.158  0.1159  3.2202 -2.2474
  152OSM    H6G16941   5.627   4.494   3.131  2.4211 -0.2658  1.7136
  152OSM    C7F16942   5.580   4.599   3.316  0.3599 -0.3008 -0.0663
  152OSM    H7F16943   5.571   4.708   3.336  0.7251  0.5943 -3.8732
  152OSM    H7G16944   5.657   4.543   3.372 -0.1330 -1.4983 -0.5484
  152OSM    C8F16945   5.442   4.537   3.352 -0.1552  0.4458  0.6649
  152OSM    H8F16946   5.369   4.578   3.279 -0.7664 -0.2861  0.8524
  152OSM    H8G16947   5.415   4.568   3.455  0.1778 -1.2443  1.2888
  152OSM    C9F16948   5.455   4.387   3.344 -0.1318  0.0106 -0.3256
  152OSM    H9F16949   5.400   4.330   3.267 -2.7296  2.6399 -0.6176
  152OSM   C10F16950   5.537   4.315   3.424  0.7543  0.4242 -0.2373
  152OSM   H10F16951   5.548   4.208   3.403  0.7671  0.8694 -2.8017
  152OSM   C11F16952   5.612   4.355   3.547 -0.1749  0.3019 -0.1379
  152OSM   H11F16953   5.580   4.454   3.586  0.6735  0.8575 -0.8107
  152OSM   H11G16954   5.720   4.369   3.525 -0.1153  2.6224  1.2759
  152OSM   C12F16955   5.590   4.257   3.666  0.0940  0.4845 -0.5154
  152OSM   H12F16956   5.607   4.149   3.645  2.1369 -0.1430  3.4736
  152OSM   H12G16957   5.484   4.265   3.699  0.6199  2.0013  0.9319
  152OSM   C13F16958   5.675   4.282   3.788 -0.6008  0.4234 -0.2358
  152OSM   H13F16959   5.655   4.387   3.820 -2.4843 -0.0361  0.2245
  152OSM   H13G16960   5.783   4.262   3.771 -0.8028 -1.7777  0.7830
  152OSM   C14F16961   5.630   4.186   3.895 -0.2165  0.1234 -0.5914
  152OSM   H14F16962   5.611   4.081   3.863 -0.3032 -0.0138 -0.0947
  152OSM   H14G16963   5.537   4.219   3.946 -0.2594 -1.0191  0.1005
  152OSM   C15F16964   5.730   4.176   4.010  0.3139 -0.3089 -0.4708
  152OSM   H15F16965   5.717   4.273   4.062 -0.9382  0.4452 -2.1310
  152OSM   H15G16966   5.829   4.165   3.962  0.5371 -0.5048  0.0237
  152OSM   C16F16967   5.730   4.048   4.097  0.0133  0.8999 -0.1114
  152OSM   H16F16968   5.813   4.045   4.170  1.7003 -0.1490 -1.9877
  152OSM   H16G16969   5.738   3.959   4.031 -0.7693  0.0508  0.8896
  152OSM   C17F16970   5.590   4.033   4.170 -0.1128  0.0803  0.5224
  152OSM   H17F16971   5.509   4.104   4.145 -0.6294 -0.1848  1.3996
  152OSM   H17G16972   5.604   4.035   4.280 -2.2728  0.8636  0.8242
  152OSM   C18F16973   5.535   3.891   4.133 -0.6753  0.5063  0.5031
  152OSM   H18F16974   5.451   3.873   4.204  0.9864 -0.1479  2.4158
  152OSM   H18G16975   5.613   3.814   4.154  0.2293  0.8565 -1.3841
  152OSM   H18H16976   5.518   3.881   4.024  1.5547 -1.4725  0.2566
  153OSM      N16977   5.765   5.913   1.605 -0.3170 -0.2240 -0.4714
  153OSM    C1516978   5.891   5.984   1.643  0.8005  0.4490 -0.1268
  153OSM   H15A16979   5.863   6.083   1.676  1.8326  0.4236  0.9007
  153OSM   H15B16980   5.942   5.995   1.548  0.4228 -1.5517 -0.6062
  153OSM   H15C16981   5.946   5.942   1.726  0.4348  1.8198  0.8474
  153OSM    C1416982   5.719   5.994   1.484 -0.6314 -0.2095  1.0289
  153OSM   H14A16983   5.721   6.101   1.501 -0.8232 -0.0081 -0.1098
  153OSM   H14B16984   5.624   5.964   1.442  0.0264 -2.6610  1.1533
  153OSM   H14C16985   5.786   5.975   1.402 -0.0760  0.3271  1.3539
  153OSM    C1316986   5.800   5.773   1.559 -0.3469 -0.6644 -0.0037
  153OSM   H13A16987   5.722   5.730   1.499 -1.6768  0.2561  0.9882
  153OSM   H13B16988   5.824   5.704   1.638 -1.0768  0.1684  0.9816
  153OSM   H13C16989   5.888   5.773   1.498 -0.9721  0.2344 -0.9445
  153OSM    C1216990   5.665   5.913   1.722  1.0431  0.4986  0.2017
  153OSM   H12A16991   5.586   5.846   1.692 -0.7448  1.4927  2.4100
  153OSM   H12B16992   5.625   6.010   1.748  0.3911  0.3827 -0.3256
  153OSM    C1116993   5.716   5.850   1.851  0.5710 -0.6915 -0.6677
  153OSM   H11A16994   5.664   5.899   1.936 -0.4413  0.4845 -1.9175
  153OSM   H11B16995   5.824   5.867   1.868  0.7792 -4.4351  3.6861
  153OSM      P16996   5.795   5.612   1.922  0.1774 -0.3262  0.2318
  153OSM    O1316997   5.728   5.489   1.972  0.3326  0.2787  0.2745
  153OSM    O1416998   5.911   5.595   1.832  0.1116  0.0609  0.0968
  153OSM    O1116999   5.850   5.690   2.050  0.3802  0.4089  0.2926
  153OSM    O1217000   5.684   5.710   1.862  0.5026 -0.6567  0.2120
  153OSM    C1S17001   5.781   5.663   2.173  0.6341  0.3330 -0.3991
  153OSM    H1S17002   5.793   5.556   2.200  1.0939 -0.0293 -1.9223
  153OSM    H1T17003   5.673   5.677   2.156  0.5033 -0.4794 -0.2880
  153OSM     NF17004   5.724   5.709   2.418  0.7679  0.3119  0.0405
  153OSM    HNF17005   5.654   5.768   2.457  0.5520 -0.8850  1.5799
  153OSM    C2S17006   5.798   5.757   2.300 -0.3172 -0.4386 -0.0310
  153OSM    H2S17007   5.906   5.744   2.321 -0.3157 -0.3643  0.0045
  153OSM    C3S17008   5.789   5.911   2.262  0.1208  0.2152  0.1064
  153OSM    H3S17009   5.680   5.933   2.258 -0.4030 -1.9952  0.4932
  153OSM     O317010   5.852   5.947   2.137 -0.6140  0.1238 -0.4373
  153OSM    HO317011   5.829   5.876   2.076  0.0263 -0.8031  0.3581
  153OSM    C4S17012   5.825   5.998   2.382  0.7322  0.2743  0.5366
  153OSM    H4S17013   5.739   6.009   2.450  0.2751 -0.5972  0.1180
  153OSM    C5S17014   5.942   6.063   2.415  0.2416  1.2472  0.2843
  153OSM    H5S17015   6.025   6.047   2.344 -0.4454 -0.5908 -0.1643
  153OSM    C6S17016   5.969   6.143   2.531 -0.1791 -0.6347 -0.9726
  153OSM    H6S17017   5.875   6.195   2.561 -0.7012 -2.3210  0.4163
  153OSM    H6T17018   6.048   6.210   2.490 -0.0307 -1.1595 -1.5670
  153OSM    C7S17019   6.034   6.061   2.645  0.1013  0.4076  0.4082
  153OSM    H7S17020   6.122   5.999   2.619 -0.8176 -1.1320  0.8180
  153OSM    H7T17021   5.961   5.985   2.683  0.1910  0.6215  1.0146
  153OSM    C8S17022   6.088   6.139   2.764  0.3087  0.1229 -0.5866
  153OSM    H8S17023   6.021   6.224   2.788 -0.5734 -0.5649 -0.5727
  153OSM    H8T17024   6.188   6.184   2.744  1.3394 -1.5704  0.4684
  153OSM    C9S17025   6.106   6.048   2.885 -0.1601 -0.0906  0.1768
  153OSM    H9S17026   6.201   5.993   2.869 -1.1216 -1.1213 -2.4973
  153OSM    H9T17027   6.029   5.970   2.873 -1.4620  1.2360 -0.3343
  153OSM   C10S17028   6.106   6.111   3.025  0.4651  0.9149 -0.4432
  153OSM   H10S17029   6.011   6.164   3.046  0.0467 -0.7035  2.2868
  153OSM   H10T17030   6.194   6.176   3.045  2.4289 -1.6865  0.0467
  153OSM   C11S17031   6.118   6.003   3.139  0.0658 -0.0904  0.4429
  153OSM   H11S17032   6.209   5.945   3.112  0.8608  1.5622 -0.6076
  153OSM   H11T17033   6.033   5.932   3.123 -1.4069  1.8939 -1.0345
  153OSM   C12S17034   6.118   6.064   3.276  0.1818 -0.2142  0.4586
  153OSM   H12S17035   6.046   6.147   3.292  0.1088 -0.3726  0.9659
  153OSM   H12T17036   6.221   6.102   3.289  0.7564 -2.0566  1.7751
  153OSM   C13S17037   6.084   5.955   3.383  0.0796 -0.6951 -0.2180
  153OSM   H13S17038   6.120   5.854   3.356 -0.5865 -0.3775 -2.4423
  153OSM   H13T17039   5.973   5.953   3.379 -0.1343  1.8552  1.7806
  153OSM   C14S17040   6.121   6.012   3.519  0.4558  0.3349  0.1125
  153OSM   H14S17041   6.070   6.111   3.524 -0.3061 -0.0830  1.1053
  153OSM   H14T17042   6.231   6.017   3.532  0.5461  1.3652 -0.9485
  153OSM   C15S17043   6.066   5.916   3.625  0.1097 -0.5931  0.5432
  153OSM   H15S17044   6.134   5.830   3.641 -0.1764 -0.7550  0.9044
  153OSM   H15T17045   5.970   5.878   3.583 -0.5808  2.5615 -1.0960
  153OSM   C16S17046   6.049   5.984   3.763 -0.4003  0.4736  0.1528
  153OSM   H16S17047   6.007   6.085   3.745 -0.7913  0.1076 -1.1008
  153OSM   H16T17048   6.146   5.999   3.815  0.0099  0.5524 -0.6322
  153OSM   C17S17049   5.947   5.910   3.854 -0.1421 -0.3752  0.1533
  153OSM   H17S17050   5.966   5.801   3.843  0.8765 -0.2836  0.9464
  153OSM   H17T17051   5.843   5.926   3.818 -0.7746  1.6016  2.6351
  153OSM   C18S17052   5.953   5.934   4.007 -0.5029  0.6927  0.4902
  153OSM   H18S17053   6.046   5.882   4.040 -0.6228  0.9515  1.2625
  153OSM   H18T17054   5.873   5.881   4.064 -0.5424  0.8837  0.6115
  153OSM   H18U17055   5.954   6.044   4.024 -1.9037  0.7388  0.4315
  153OSM    C1F17056   5.727   5.593   2.485  0.1566  0.0514 -0.5126
  153OSM     OF17057   5.812   5.514   2.456  0.0969 -0.0240 -0.0607
  153OSM    C2F17058   5.606   5.578   2.579 -0.3922  0.4435 -0.3228
  153OSM    H2F17059   5.511   5.555   2.526 -1.0233 -0.2009  1.0536
  153OSM    H2G17060   5.601   5.672   2.637  0.2624  0.2679  0.0243
  153OSM    C3F17061   5.640   5.463   2.689 -0.2566  0.4315 -1.0334
  153OSM    H3F17062   5.735   5.481   2.743  0.0723  0.1379 -1.5116
  153OSM    H3G17063   5.652   5.373   2.625 -1.0696 -0.5934  0.2188
  153OSM    C4F17064   5.523   5.451   2.789 -0.3231  0.2555 -0.4099
  153OSM    H4F17065   5.433   5.459   2.724 -0.9918  1.5237  0.6133
  153OSM    H4G17066   5.523   5.532   2.865 -1.7425 -1.1124  1.1292
  153OSM    C5F17067   5.508   5.314   2.865 -0.6511  0.5873  0.6977
  153OSM    H5F17068   5.485   5.238   2.787  0.5754  3.2107 -2.4576
  153OSM    H5G17069   5.413   5.315   2.923 -0.0930 -0.2561  1.6576
  153OSM    C6F17070   5.623   5.266   2.948  0.4550 -0.7006 -0.2410
  153OSM    H6F17071   5.708   5.250   2.878 -1.0902 -1.1656 -2.0619
  153OSM    H6G17072   5.587   5.165   2.976 -3.0281  0.1939 -1.0495
  153OSM    C7F17073   5.658   5.356   3.069  0.1930 -0.0295 -0.3144
  153OSM    H7F17074   5.696   5.455   3.035  0.3674 -0.1546 -0.4824
  153OSM    H7G17075   5.743   5.302   3.117  1.3508  1.2555 -0.8369
  153OSM    C8F17076   5.542   5.366   3.173 -0.3372 -0.2700  0.1341
  153OSM    H8F17077   5.459   5.403   3.109  0.4925  1.0368 -0.2205
  153OSM    H8G17078   5.558   5.439   3.254 -0.6283 -2.1023  1.9238
  153OSM    C9F17079   5.496   5.239   3.236  0.5765 -0.8513  0.1219
  153OSM    H9F17080   5.422   5.185   3.175 -0.6618  1.9526 -1.0509
  153OSM   C10F17081   5.502   5.198   3.363  0.2482 -0.1631 -0.3132
  153OSM   H10F17082   5.469   5.097   3.391 -0.1770 -0.2478 -1.0806
  153OSM   C11F17083   5.577   5.267   3.477  0.0583  0.4473  0.3073
  153OSM   H11F17084   5.641   5.350   3.438  0.0532  1.1285  1.6695
  153OSM   H11G17085   5.648   5.200   3.530 -1.4077 -1.6469 -0.2707
  153OSM   C12F17086   5.480   5.310   3.584  0.9091 -0.0489 -0.6159
  153OSM   H12F17087   5.467   5.224   3.653 -0.0226  0.8924  0.4011
  153OSM   H12G17088   5.380   5.339   3.547  0.6912 -1.0679 -0.8672
  153OSM   C13F17089   5.538   5.421   3.664  0.4070  0.0807 -0.1722
  153OSM   H13F17090   5.544   5.510   3.597  0.4647  0.8548  0.8284
  153OSM   H13G17091   5.640   5.404   3.706  0.1601  0.2551  0.5232
  153OSM   C14F17092   5.452   5.471   3.782  0.0542  0.1748 -0.4880
  153OSM   H14F17093   5.442   5.394   3.861 -0.6980  1.0833  0.3285
  153OSM   H14G17094   5.352   5.484   3.735  0.0839  0.4419 -0.4753
  153OSM   C15F17095   5.496   5.604   3.847  0.2190  0.0238 -0.0528
  153OSM   H15F17096   5.463   5.694   3.789 -0.6295  1.0646  1.9513
  153OSM   H15G17097   5.604   5.604   3.870  0.1302  1.7455  0.5155
  153OSM   C16F17098   5.424   5.625   3.985  0.2114 -0.4994 -0.5273
  153OSM   H16F17099   5.466   5.549   4.054  1.2896  1.3215  0.9061
  153OSM   H16G17100   5.314   5.616   3.974  0.1718 -1.3801  0.4634
  153OSM   C17F17101   5.426   5.767   4.056  0.2870 -0.1505 -0.8680
  153OSM   H17F17102   5.362   5.843   4.006  0.6876  0.0361 -1.1108
  153OSM   H17G17103   5.532   5.802   4.047 -0.3931  1.7742 -2.1342
  153OSM   C18F17104   5.396   5.755   4.205  0.2376 -0.2759  0.5445
  153OSM   H18F17105   5.289   5.742   4.230 -0.0032 -0.5686 -0.5951
  153OSM   H18G17106   5.420   5.853   4.252  0.8750 -0.5965  0.9023
  153OSM   H18H17107   5.444   5.671   4.260  0.7580 -1.4776 -1.6400
  154OSM      N17108   3.723   2.622   1.996  0.0382 -0.2644 -0.2859
  154OSM    C1517109   3.679   2.527   1.890 -0.1898 -0.3124 -0.3161
  154OSM   H15A17110   3.646   2.577   1.800 -2.9683 -0.2170  0.6583
  154OSM   H15B17111   3.599   2.461   1.923 -0.9300 -0.9875 -3.1861
  154OSM   H15C17112   3.763   2.465   1.862  0.7919  0.4266  0.9205
  154OSM    C1417113   3.826   2.717   1.935  0.5562 -0.3649 -0.6147
  154OSM   H14A17114   3.846   2.794   2.008 -1.6525  0.6821 -1.0543
  154OSM   H14B17115   3.789   2.779   1.855 -4.3853  0.2004  1.7676
  154OSM   H14C17116   3.916   2.663   1.906  0.6614  0.2190 -1.4353
  154OSM    C1317117   3.597   2.701   2.030  0.6681  0.4171 -0.4002
  154OSM   H13A17118   3.515   2.640   2.064  0.6468  1.7219  2.1245
  154OSM   H13B17119   3.568   2.773   1.955 -0.0539  0.5300 -0.0185
  154OSM   H13C17120   3.612   2.761   2.118  0.3365 -0.1228  0.0286
  154OSM    C1217121   3.776   2.542   2.119  0.0160 -0.2696  0.4703
  154OSM   H12A17122   3.856   2.474   2.094  0.7136  0.9493 -0.7385
  154OSM   H12B17123   3.693   2.481   2.150 -0.0060 -0.1518  0.6449
  154OSM    C1117124   3.810   2.618   2.249  0.2979  1.1709 -0.3120
  154OSM   H11A17125   3.842   2.543   2.325 -0.6583  0.3112 -0.7266
  154OSM   H11B17126   3.715   2.663   2.288 -1.4283  0.0973 -3.0111
  154OSM      P17127   4.064   2.693   2.222  0.6033 -0.0394 -0.1285
  154OSM    O1317128   4.093   2.587   2.124 -0.0954 -0.1312 -0.6469
  154OSM    O1417129   4.129   2.827   2.206  0.9432 -0.0326 -0.0051
  154OSM    O1117130   4.096   2.631   2.358 -0.4229 -0.4623  0.1940
  154OSM    O1217131   3.903   2.721   2.221 -0.5179  0.2433 -0.9280
  154OSM    C1S17132   4.174   2.708   2.455 -0.5952 -1.3006  0.4522
  154OSM    H1S17133   4.187   2.815   2.428  1.2143 -1.5348  0.2889
  154OSM    H1T17134   4.276   2.665   2.457  0.3579  0.7548 -1.1497
  154OSM     NF17135   4.175   2.774   2.703  0.2088 -0.0790 -0.4429
  154OSM    HNF17136   4.243   2.722   2.755  0.5497  0.1434 -0.6568
  154OSM    C2S17137   4.101   2.698   2.597 -0.5505 -0.3502 -0.8456
  154OSM    H2S17138   3.999   2.742   2.583 -0.2323  0.1089 -1.8461
  154OSM    C3S17139   4.088   2.547   2.633  0.0724  0.1787 -0.5077
  154OSM    H3S17140   4.187   2.499   2.641  0.1792  0.0178 -2.3974
  154OSM     O317141   4.021   2.467   2.534  0.4426  0.0433  0.0016
  154OSM    HO317142   4.013   2.533   2.464 -3.6125 -0.5315 -0.3363
  154OSM    C4S17143   4.028   2.519   2.765  0.3983  0.4227 -0.0314
  154OSM    H4S17144   4.108   2.486   2.833  0.5849 -0.3976 -0.6334
  154OSM    C5S17145   3.894   2.524   2.805  0.7365  0.1481 -0.0016
  154OSM    H5S17146   3.820   2.542   2.726  3.3301 -0.7027 -2.8331
  154OSM    C6S17147   3.847   2.491   2.945  0.2253  0.3279  0.1201
  154OSM    H6S17148   3.785   2.568   2.996  0.5012  0.0752  0.8388
  154OSM    H6T17149   3.932   2.492   3.016 -0.1045  0.7627  0.5177
  154OSM    C7S17150   3.784   2.351   2.940 -0.7626  0.0572  0.1568
  154OSM    H7S17151   3.858   2.280   2.898  0.7893  1.9199 -0.4278
  154OSM    H7T17152   3.701   2.357   2.865  0.1002 -0.6348 -0.8821
  154OSM    C8S17153   3.740   2.295   3.077 -0.6595 -0.0680  0.3721
  154OSM    H8S17154   3.696   2.193   3.070 -1.3792  0.2112  0.7203
  154OSM    H8T17155   3.666   2.367   3.117  1.3371  1.8402  0.7990
  154OSM    C9S17156   3.854   2.292   3.172  0.6380 -0.1171  0.3242
  154OSM    H9S17157   3.866   2.394   3.214  0.7521  0.6689 -1.5522
  154OSM    H9T17158   3.947   2.258   3.122 -0.3066 -2.0592 -0.2428
  154OSM   C10S17159   3.821   2.188   3.278 -0.5311  0.9413  0.5132
  154OSM   H10S17160   3.914   2.161   3.333  0.5939  5.0232  0.9247
  154OSM   H10T17161   3.787   2.101   3.219  0.7601  0.9446 -0.2689
  154OSM   C11S17162   3.726   2.232   3.390  0.2580 -0.3917  0.6531
  154OSM   H11S17163   3.626   2.241   3.343  0.2006 -1.4990  0.5179
  154OSM   H11T17164   3.760   2.326   3.438  1.4961 -0.4319 -0.0936
  154OSM   C12S17165   3.723   2.122   3.503  0.6319  1.2287 -0.0962
  154OSM   H12S17166   3.822   2.120   3.555 -0.2267 -0.9996  1.6601
  154OSM   H12T17167   3.701   2.024   3.455  2.3388  1.4968 -1.5453
  154OSM   C13S17168   3.625   2.141   3.616  0.4788  0.6325  0.1428
  154OSM   H13S17169   3.632   2.042   3.667 -0.9790 -0.5429 -1.7987
  154OSM   H13T17170   3.518   2.142   3.584 -0.5678 -1.7294  3.0564
  154OSM   C14S17171   3.666   2.241   3.719  0.0462 -0.1120  0.1080
  154OSM   H14S17172   3.687   2.339   3.672  0.7205  0.7141  2.0061
  154OSM   H14T17173   3.755   2.211   3.780 -0.2031  1.8147  1.5186
  154OSM   C15S17174   3.566   2.269   3.835 -0.8933 -0.6915  0.8706
  154OSM   H15S17175   3.476   2.313   3.786  1.0336  0.7290 -1.5894
  154OSM   H15T17176   3.610   2.346   3.903  0.2988 -1.6034  1.1605
  154OSM   C16S17177   3.521   2.148   3.906 -0.1267 -0.2294 -0.6061
  154OSM   H16S17178   3.612   2.095   3.941  1.5687  2.3177 -0.8837
  154OSM   H16T17179   3.467   2.076   3.840 -0.3307 -0.3592 -0.3013
  154OSM   C17S17180   3.435   2.177   4.034  0.5600  0.3810 -0.7028
  154OSM   H17S17181   3.412   2.078   4.078 -2.8725  1.5909  0.5209
  154OSM   H17T17182   3.340   2.224   4.002  0.5477  2.2188  1.7428
  154OSM   C18S17183   3.496   2.273   4.142 -0.3209 -0.4304  0.1039
  154OSM   H18S17184   3.471   2.376   4.111 -0.1467 -0.1744  0.7918
  154OSM   H18T17185   3.607   2.282   4.143 -0.3441  0.0877  1.8326
  154OSM   H18U17186   3.456   2.250   4.243  0.3970 -1.5593  0.1485
  154OSM    C1F17187   4.185   2.906   2.689 -0.0823 -0.7959 -1.0212
  154OSM     OF17188   4.113   2.968   2.614 -0.3244 -0.1722 -0.2928
  154OSM    C2F17189   4.280   2.986   2.775  0.3980 -0.1779 -0.3789
  154OSM    H2F17190   4.273   3.092   2.743  1.2469 -0.3522 -1.2034
  154OSM    H2G17191   4.385   2.953   2.760 -0.0523 -2.2104  0.6948
  154OSM    C3F17192   4.229   2.964   2.920 -0.1581  0.3701 -0.2724
  154OSM    H3F17193   4.214   2.858   2.950 -2.2902  0.6863 -0.0660
  154OSM    H3G17194   4.128   3.009   2.928  0.7826  2.3552  1.7440
  154OSM    C4F17195   4.338   3.030   3.017 -0.0902 -0.8592  0.2575
  154OSM    H4F17196   4.328   3.140   3.021 -0.1176 -0.3973 -5.0043
  154OSM    H4G17197   4.435   3.004   2.969 -0.9483 -2.5220 -0.7089
  154OSM    C5F17198   4.307   2.981   3.152 -0.3101  0.0943  0.5431
  154OSM    H5F17199   4.304   2.870   3.155  0.5446  0.0101 -0.9563
  154OSM    H5G17200   4.204   3.019   3.170 -0.8549 -0.4048 -1.3180
  154OSM    C6F17201   4.410   3.026   3.259 -0.1729 -0.6030 -0.0423
  154OSM    H6F17202   4.448   3.124   3.224  0.9718 -0.7171  0.7969
  154OSM    H6G17203   4.500   2.961   3.265  0.1713 -0.0723  0.7628
  154OSM    C7F17204   4.338   3.044   3.393 -0.8922  0.2833  0.5384
  154OSM    H7F17205   4.248   3.108   3.380 -0.3649  0.5224 -3.0561
  154OSM    H7G17206   4.400   3.097   3.469  1.5140  0.4988 -1.4495
  154OSM    C8F17207   4.294   2.907   3.456 -0.4985  0.7106 -0.2865
  154OSM    H8F17208   4.235   2.854   3.378 -1.1263 -0.6472  1.0500
  154OSM    H8G17209   4.225   2.943   3.535  0.0514 -3.0925  2.1997
  154OSM    C9F17210   4.416   2.839   3.501  0.0550  0.2631 -0.3039
  154OSM    H9F17211   4.467   2.780   3.423  0.1017  0.5172 -0.4691
  154OSM   C10F17212   4.450   2.822   3.628  0.1395  0.1189 -0.5304
  154OSM   H10F17213   4.541   2.764   3.651 -0.3350 -0.0243  1.0917
  154OSM   C11F17214   4.369   2.866   3.749  0.0201  0.1119  0.0978
  154OSM   H11F17215   4.299   2.782   3.766 -0.8875  0.9561  0.6075
  154OSM   H11G17216   4.304   2.952   3.721  0.9285  0.5281 -0.7966
  154OSM   C12F17217   4.457   2.895   3.871  0.2163  0.2371  0.0446
  154OSM   H12F17218   4.518   2.984   3.846  2.5905 -0.6731  2.1405
  154OSM   H12G17219   4.525   2.809   3.884 -0.0682 -0.0582 -0.3855
  154OSM   C13F17220   4.373   2.921   4.000  0.3512  0.8679  0.2166
  154OSM   H13F17221   4.327   2.824   4.029  1.7475 -1.2351 -3.7492
  154OSM   H13G17222   4.289   2.992   3.989 -0.8131 -0.7937 -2.6586
  154OSM   C14F17223   4.447   2.979   4.117  0.2669 -0.2152 -0.5217
  154OSM   H14F17224   4.408   3.083   4.130 -0.1534 -0.3059 -1.0445
  154OSM   H14G17225   4.555   2.996   4.098 -0.0093  2.9734  0.0841
  154OSM   C15F17226   4.437   2.905   4.251 -0.6930 -0.0444  0.1091
  154OSM   H15F17227   4.489   2.807   4.250 -1.9913 -0.7902 -2.1003
  154OSM   H15G17228   4.331   2.887   4.279 -0.5710 -0.4744  0.3061
  154OSM   C16F17229   4.477   2.986   4.375  0.1081  0.4778  0.0590
  154OSM   H16F17230   4.429   3.087   4.380 -0.0690  0.3763  0.4376
  154OSM   H16G17231   4.584   3.014   4.363 -0.6114  3.4517 -0.3517
  154OSM   C17F17232   4.453   2.904   4.507 -0.5312  0.6033  0.3351
  154OSM   H17F17233   4.499   2.803   4.514 -2.6236 -0.4160  0.3025
  154OSM   H17G17234   4.343   2.891   4.521 -0.6826  2.2739  0.8721
  154OSM   C18F17235   4.513   2.995   4.614  0.1422  0.4007 -0.6203
  154OSM   H18F17236   4.497   2.961   4.719  1.8059 -1.6336 -0.9807
  154OSM   H18G17237   4.462   3.094   4.606  0.8279  1.1501  2.7687
  154OSM   H18H17238   4.620   3.013   4.590  0.0846  1.9971  0.1781
  155OSM      N17239   4.791   1.356   2.199 -0.2255  0.6500 -0.1463
  155OSM    C1517240   4.805   1.502   2.210  0.6942 -0.5022 -0.0997
  155OSM   H15A17241   4.836   1.541   2.114  0.4440  1.1475  0.4528
  155OSM   H15B17242   4.888   1.516   2.278 -1.9045 -0.0759  3.3002
  155OSM   H15C17243   4.719   1.549   2.256  1.9736 -0.3924  2.4050
  155OSM    C1417244   4.687   1.336   2.083 -0.2529  0.2952 -0.2772
  155OSM   H14A17245   4.598   1.396   2.098  1.2112  2.5423  0.0019
  155OSM   H14B17246   4.667   1.230   2.078  0.1988  0.1961  0.0061
  155OSM   H14C17247   4.737   1.368   1.994  1.3296  0.8643  0.7736
  155OSM    C1317248   4.926   1.309   2.141  0.7137  0.3982  0.1140
  155OSM   H13A17249   4.919   1.204   2.118 -2.1849  0.4767  0.3008
  155OSM   H13B17250   5.014   1.326   2.201  1.1536 -1.3681  0.0192
  155OSM   H13C17251   4.946   1.356   2.046  2.2619 -0.3593  0.0434
  155OSM    C1217252   4.747   1.290   2.330 -0.1393 -0.5326 -0.4221
  155OSM   H12A17253   4.700   1.195   2.314  0.4433 -0.9597  0.3103
  155OSM   H12B17254   4.668   1.354   2.367  0.4701  0.8131 -1.3376
  155OSM    C1117255   4.853   1.274   2.439  0.4559 -0.3419 -0.1101
  155OSM   H11A17256   4.815   1.244   2.540  0.5648  1.3851  0.4728
  155OSM   H11B17257   4.900   1.374   2.449  1.1687 -0.5682 -1.0290
  155OSM      P17258   4.935   1.020   2.404  0.3477 -0.1815 -0.1689
  155OSM    O1317259   4.802   0.989   2.340 -0.3524  0.3865  0.1202
  155OSM    O1417260   5.051   0.943   2.351 -0.4166  0.5441 -0.1469
  155OSM    O1117261   4.925   0.982   2.560 -0.1088 -0.3342 -0.7427
  155OSM    O1217262   4.951   1.178   2.401 -0.1734 -0.2301  0.4401
  155OSM    C1S17263   5.041   1.016   2.638 -0.0753 -0.0154 -0.2666
  155OSM    H1S17264   5.079   1.117   2.611 -1.2909 -0.1342 -2.6210
  155OSM    H1T17265   5.125   0.943   2.629  1.0732  0.7394  2.8911
  155OSM     NF17266   5.128   1.086   2.856 -0.7716  0.0435  0.4011
  155OSM    HNF17267   5.198   1.043   2.913 -0.3169  1.0901  0.6434
  155OSM    C2S17268   5.019   1.014   2.791  0.8752 -0.0503 -0.5643
  155OSM    H2S17269   4.924   1.070   2.807  0.5335 -1.5224  3.7739
  155OSM    C3S17270   4.998   0.863   2.831 -0.2799 -0.5922 -0.7376
  155OSM    H3S17271   5.089   0.800   2.829 -0.0906 -0.3216 -0.8175
  155OSM     O317272   4.889   0.802   2.760  0.1908  0.5586 -0.1630
  155OSM    HO317273   4.864   0.857   2.686  0.3816  0.8360 -0.0229
  155OSM    C4S17274   4.952   0.857   2.981 -0.0180  0.0830 -0.1274
  155OSM    H4S17275   4.844   0.870   3.000 -0.0054  0.0633 -0.0417
  155OSM    C5S17276   5.031   0.836   3.091 -0.1725 -0.0174  0.3381
  155OSM    H5S17277   5.140   0.827   3.076 -0.2903  1.7221 -2.3147
  155OSM    C6S17278   4.980   0.818   3.227  0.4248  0.5984 -0.9656
  155OSM    H6S17279   4.879   0.865   3.236  0.1674 -0.1681  0.3717
  155OSM    H6T17280   5.053   0.856   3.301  0.3891 -1.2369  0.0693
  155OSM    C7S17281   4.952   0.666   3.264 -0.7091 -0.6186  0.0022
  155OSM    H7S17282   5.044   0.603   3.266  0.3832  0.9270  0.0133
  155OSM    H7T17283   4.889   0.631   3.179 -0.7175 -1.3228  0.2911
  155OSM    C8S17284   4.873   0.642   3.390 -0.1017  0.2450 -0.5957
  155OSM    H8S17285   4.829   0.541   3.391 -2.3279  1.0530 -3.4690
  155OSM    H8T17286   4.791   0.716   3.381 -0.6088 -0.4495 -1.8656
  155OSM    C9S17287   4.948   0.655   3.527  0.4827  0.2003  0.0442
  155OSM    H9S17288   5.021   0.738   3.521  0.6607 -0.0244 -1.5178
  155OSM    H9T17289   4.998   0.558   3.548  0.1344  0.2038  0.8948
  155OSM   C10S17290   4.865   0.697   3.652  1.1781  0.1660  0.0283
  155OSM   H10S17291   4.786   0.623   3.674  2.1416 -1.1919 -0.8822
  155OSM   H10T17292   4.831   0.800   3.630  3.0679  0.7186 -0.5411
  155OSM   C11S17293   4.957   0.709   3.776  0.1546 -0.3185  0.0851
  155OSM   H11S17294   5.032   0.785   3.746 -0.6712 -0.7646 -3.5595
  155OSM   H11T17295   5.003   0.610   3.793  1.2513  0.6954  3.9710
  155OSM   C12S17296   4.880   0.761   3.899  0.1808 -0.7674  0.0654
  155OSM   H12S17297   4.793   0.697   3.924  0.2313 -0.5764  0.7290
  155OSM   H12T17298   4.838   0.861   3.877 -0.0811 -0.8110  0.3645
  155OSM   C13S17299   4.954   0.762   4.032 -0.0321  0.7242 -0.1812
  155OSM   H13S17300   4.886   0.819   4.098 -1.6905  0.7205 -1.8010
  155OSM   H13T17301   5.059   0.797   4.029  0.8721 -1.5517  1.7207
  155OSM   C14S17302   4.961   0.625   4.108  0.5206  0.5838  0.8913
  155OSM   H14S17303   5.038   0.562   4.059 -1.4934 -0.4914 -1.0656
  155OSM   H14T17304   4.865   0.576   4.082  0.0433  1.3596  1.1417
  155OSM   C15S17305   4.987   0.633   4.257  0.0407  0.1158 -0.2568
  155OSM   H15S17306   5.087   0.677   4.279 -0.4172  0.1635  1.9142
  155OSM   H15T17307   4.997   0.532   4.303 -0.2155  0.9750  1.7824
  155OSM   C16S17308   4.877   0.710   4.335 -0.4479  0.4117 -0.0785
  155OSM   H16S17309   4.874   0.818   4.310 -0.9053  0.2016 -0.9634
  155OSM   H16T17310   4.897   0.698   4.444 -1.3122 -2.8724 -0.1594
  155OSM   C17S17311   4.738   0.653   4.320  0.2946  0.1378  0.2411
  155OSM   H17S17312   4.709   0.624   4.217 -0.1259 -1.8827  0.8811
  155OSM   H17T17313   4.667   0.732   4.353  0.1302 -0.5503  1.5940
  155OSM   C18S17314   4.716   0.535   4.416  0.3388 -0.0368  0.5783
  155OSM   H18S17315   4.744   0.559   4.521 -0.6683 -2.0676  1.3631
  155OSM   H18T17316   4.781   0.450   4.383  3.4459  1.7926  1.5430
  155OSM   H18U17317   4.607   0.519   4.431  0.6971 -0.8928  2.5610
  155OSM    C1F17318   5.152   1.215   2.837  0.0284  0.3955  0.0628
  155OSM     OF17319   5.070   1.289   2.783  0.3481  0.5353  0.2964
  155OSM    C2F17320   5.270   1.273   2.903  0.1551  0.5923 -1.3025
  155OSM    H2F17321   5.307   1.356   2.839  1.4384  0.5962 -0.5941
  155OSM    H2G17322   5.348   1.194   2.901 -0.8245 -0.4186 -0.8698
  155OSM    C3F17323   5.246   1.316   3.054 -0.0522  0.1720 -0.0245
  155OSM    H3F17324   5.161   1.388   3.056 -0.1698  0.0315  1.3922
  155OSM    H3G17325   5.339   1.363   3.091  1.4749 -2.1960 -0.6327
  155OSM    C4F17326   5.210   1.204   3.148  0.5534  0.9916 -0.5750
  155OSM    H4F17327   5.272   1.114   3.131 -1.7203 -0.6954 -0.4228
  155OSM    H4G17328   5.106   1.183   3.113 -0.1834  0.6999  1.6232
  155OSM    C5F17329   5.208   1.234   3.296  0.6163 -0.4621  0.1886
  155OSM    H5F17330   5.136   1.318   3.308  0.6382 -0.5917  1.2995
  155OSM    H5G17331   5.307   1.269   3.331  1.3946 -0.9493 -1.4197
  155OSM    C6F17332   5.183   1.108   3.384  0.3857 -0.2153 -0.2862
  155OSM    H6F17333   5.273   1.044   3.373  0.9735  0.3666  0.9743
  155OSM    H6G17334   5.106   1.049   3.330  0.9391 -0.7136 -0.5427
  155OSM    C7F17335   5.141   1.138   3.536 -0.5465 -0.3029 -0.0738
  155OSM    H7F17336   5.033   1.163   3.532 -1.2579 -3.0845 -0.0089
  155OSM    H7G17337   5.207   1.222   3.567 -0.6786 -0.5783  0.9686
  155OSM    C8F17338   5.167   1.025   3.638 -0.2548  0.3199 -0.2999
  155OSM    H8F17339   5.277   1.008   3.637 -0.2268  0.3775  0.8569
  155OSM    H8G17340   5.117   0.930   3.608 -0.0940 -0.0345  0.5316
  155OSM    C9F17341   5.118   1.059   3.778 -0.4606  0.6197 -0.0335
  155OSM    H9F17342   5.009   1.062   3.793 -0.3600  0.4882  0.7760
  155OSM   C10F17343   5.203   1.060   3.888  0.3526  0.5470  0.4342
  155OSM   H10F17344   5.158   1.075   3.988  0.8045  0.3224  0.6751
  155OSM   C11F17345   5.346   1.058   3.903 -0.5927 -0.0164 -0.7724
  155OSM   H11F17346   5.400   1.071   3.806  1.4561 -0.3834  0.2794
  155OSM   H11G17347   5.387   0.969   3.954  1.4610  1.1946 -0.1899
  155OSM   C12F17348   5.399   1.166   3.997 -0.1946  0.5834 -0.2419
  155OSM   H12F17349   5.388   1.270   3.957  1.9978  1.7496  1.9088
  155OSM   H12G17350   5.508   1.147   3.996  0.1349  2.1535  1.2521
  155OSM   C13F17351   5.353   1.174   4.141  0.1507 -0.2216 -0.5059
  155OSM   H13F17352   5.364   1.071   4.182  0.2637 -0.5518 -1.3342
  155OSM   H13G17353   5.245   1.199   4.140  0.1400 -0.1720 -2.2704
  155OSM   C14F17354   5.428   1.271   4.230 -0.3574 -0.1099 -0.1188
  155OSM   H14F17355   5.427   1.375   4.194  1.4869  0.8668  2.3397
  155OSM   H14G17356   5.533   1.235   4.236  0.3480  1.2056 -2.9874
  155OSM   C15F17357   5.362   1.284   4.366  0.4163 -0.3135 -0.4983
  155OSM   H15F17358   5.339   1.181   4.401  1.3525 -0.3512  0.0372
  155OSM   H15G17359   5.272   1.346   4.348  0.5564 -0.2092 -0.8540
  155OSM   C16F17360   5.446   1.356   4.473  0.1698  0.6663 -0.6024
  155OSM   H16F17361   5.476   1.447   4.417 -1.5899  0.9640 -1.1213
  155OSM   H16G17362   5.532   1.290   4.495 -0.1271 -0.4104 -2.4139
  155OSM   C17F17363   5.364   1.393   4.598  0.0426  0.0024 -0.3298
  155OSM   H17F17364   5.393   1.318   4.675  2.6492  0.5681 -0.6344
  155OSM   H17G17365   5.255   1.383   4.583  0.2164  0.6399 -2.3251
  155OSM   C18F17366   5.396   1.533   4.659 -0.3473 -0.6302  0.6606
  155OSM   H18F17367   5.499   1.526   4.700 -0.3382  0.3273  0.8455
  155OSM   H18G17368   5.334   1.552   4.750  0.5363  0.6497  1.0233
  155OSM   H18H17369   5.392   1.620   4.590 -0.0181 -1.0432  0.1175
  156OSM      N17370   1.658   5.386   2.046  0.5632  0.3410  0.5266
  156OSM    C1517371   1.606   5.306   1.929  0.7388 -0.1159  0.6395
  156OSM   H15A17372   1.540   5.371   1.873 -0.9820 -2.8077 -0.7317
  156OSM   H15B17373   1.542   5.224   1.960  1.2818 -0.3345  1.2017
  156OSM   H15C17374   1.690   5.266   1.873  0.5535 -0.3085  0.4946
  156OSM    C1417375   1.550   5.464   2.106  0.6792  0.3498 -0.5463
  156OSM   H14A17376   1.514   5.540   2.038 -1.4356 -0.8864 -0.9075
  156OSM   H14B17377   1.574   5.516   2.198  0.7704  0.9617 -0.9128
  156OSM   H14C17378   1.466   5.402   2.134 -0.3216  2.2718  0.9821
  156OSM    C1317379   1.706   5.292   2.147 -0.2412 -0.0572  0.0560
  156OSM   H13A17380   1.793   5.235   2.117 -0.4373 -1.0470  1.2913
  156OSM   H13B17381   1.631   5.224   2.185 -0.5895  0.5551  0.4815
  156OSM   H13C17382   1.720   5.348   2.238 -1.2521  0.3523 -0.0343
  156OSM    C1217383   1.769   5.473   1.994  0.4408  0.1215  0.9664
  156OSM   H12A17384   1.838   5.417   1.933 -1.2641  1.7565 -2.8172
  156OSM   H12B17385   1.813   5.519   2.081  1.0521 -0.0755  0.7635
  156OSM    C1117386   1.731   5.592   1.897  0.4114 -0.4391  0.1093
  156OSM   H11A17387   1.678   5.548   1.810 -2.0628 -1.4454  1.9872
  156OSM   H11B17388   1.830   5.632   1.865  2.6635 -2.8836  3.3465
  156OSM      P17389   1.718   5.819   2.030  0.0811 -0.1368 -0.3202
  156OSM    O1317390   1.743   5.930   1.941  0.3696  0.1356  0.3894
  156OSM    O1417391   1.633   5.853   2.145 -0.5112 -0.5392  0.4284
  156OSM    O1117392   1.852   5.772   2.079 -0.6011  0.3465 -0.5568
  156OSM    O1217393   1.651   5.699   1.959 -0.1274 -0.2960  0.2578
  156OSM    C1S17394   1.883   5.763   2.219  0.2564 -0.0501 -0.2688
  156OSM    H1S17395   1.799   5.732   2.285  2.2711 -0.1269  2.4289
  156OSM    H1T17396   1.922   5.861   2.254  0.9389 -0.2621 -0.4212
  156OSM     NF17397   2.008   5.628   2.395  0.0231 -0.0385 -0.2684
  156OSM    HNF17398   2.067   5.686   2.451  1.4421 -1.0655 -0.6631
  156OSM    C2S17399   1.992   5.657   2.250 -0.4537 -0.5121  0.6278
  156OSM    H2S17400   1.967   5.568   2.189 -1.8852  0.6888 -0.6234
  156OSM    C3S17401   2.136   5.692   2.176  1.0126 -0.1424 -0.1795
  156OSM    H3S17402   2.160   5.796   2.207 -0.7946  0.1519  0.3649
  156OSM     O317403   2.123   5.703   2.035  0.2259  0.5321  0.0441
  156OSM    HO317404   2.030   5.725   2.022  0.2968  2.3289  2.0748
  156OSM    C4S17405   2.248   5.604   2.217 -0.2464 -0.2247  0.1691
  156OSM    H4S17406   2.246   5.503   2.173  0.5654  0.2614 -1.0407
  156OSM    C5S17407   2.366   5.646   2.272 -0.3952  0.4158 -0.1564
  156OSM    H5S17408   2.378   5.755   2.284  0.9004  0.2779 -0.0782
  156OSM    C6S17409   2.496   5.564   2.287  0.1677  0.2273  0.0065
  156OSM    H6S17410   2.581   5.608   2.231  0.5345 -1.0854 -0.4820
  156OSM    H6T17411   2.483   5.459   2.255 -0.6612  0.0315  0.9289
  156OSM    C7S17412   2.536   5.562   2.435  0.6610  0.0238 -0.0095
  156OSM    H7S17413   2.466   5.520   2.510  0.0647  1.6606  0.4060
  156OSM    H7T17414   2.563   5.667   2.463 -0.0964  0.3163 -0.3406
  156OSM    C8S17415   2.661   5.475   2.448 -0.0225 -0.2859 -0.0591
  156OSM    H8S17416   2.730   5.480   2.361 -1.6720  1.7957 -1.3347
  156OSM    H8T17417   2.613   5.375   2.456 -0.3025 -0.0235  2.6227
  156OSM    C9S17418   2.746   5.508   2.567 -0.3567 -0.1493  0.2731
  156OSM    H9S17419   2.731   5.611   2.605 -0.6497  0.2339 -0.8657
  156OSM    H9T17420   2.854   5.490   2.546 -0.2950  0.3041  0.2043
  156OSM   C10S17421   2.711   5.417   2.688  0.0230  0.0701 -0.1657
  156OSM   H10S17422   2.778   5.329   2.682 -0.6795 -0.4252 -1.1190
  156OSM   H10T17423   2.608   5.374   2.685  0.1071 -0.2686  1.2286
  156OSM   C11S17424   2.730   5.489   2.825  0.6795  0.0353 -0.0833
  156OSM   H11S17425   2.652   5.568   2.832 -0.0357 -0.2425 -3.3076
  156OSM   H11T17426   2.833   5.529   2.816  0.9071 -0.9236 -2.4297
  156OSM   C12S17427   2.707   5.383   2.935 -0.1566 -0.6836 -0.8673
  156OSM   H12S17428   2.785   5.303   2.927  2.2380  0.6611  4.2620
  156OSM   H12T17429   2.609   5.331   2.930 -1.0873  0.9498 -0.3862
  156OSM   C13S17430   2.714   5.450   3.078 -0.0779  0.9721 -0.8092
  156OSM   H13S17431   2.636   5.528   3.089  0.6072  1.4217  1.3984
  156OSM   H13T17432   2.810   5.497   3.111 -2.1240  2.1522  4.3225
  156OSM   C14S17433   2.680   5.339   3.183  0.0440 -0.4279  0.0566
  156OSM   H14S17434   2.744   5.248   3.174  1.9855  0.7010  1.4409
  156OSM   H14T17435   2.582   5.291   3.164 -0.8005  1.6126 -1.0482
  156OSM   C15S17436   2.689   5.398   3.322 -0.0554 -0.4015 -0.3866
  156OSM   H15S17437   2.616   5.482   3.326  0.7005  0.2034  2.3595
  156OSM   H15T17438   2.785   5.447   3.349 -1.2333  0.7122  1.9930
  156OSM   C16S17439   2.653   5.293   3.431  0.7287  1.3761  0.0603
  156OSM   H16S17440   2.739   5.224   3.450  0.1832  0.9997  1.2544
  156OSM   H16T17441   2.561   5.240   3.398  1.1815  0.6728 -0.1180
  156OSM   C17S17442   2.627   5.343   3.572  0.0862 -0.2116 -0.0657
  156OSM   H17S17443   2.544   5.417   3.567 -0.3800 -0.5951  1.4135
  156OSM   H17T17444   2.721   5.392   3.607 -0.3578 -1.2064  2.7570
  156OSM   C18S17445   2.593   5.233   3.667 -0.1557  1.2188  0.6970
  156OSM   H18S17446   2.492   5.194   3.642 -0.6656  0.3077  3.6694
  156OSM   H18T17447   2.606   5.258   3.775  0.2040  0.0396  0.9528
  156OSM   H18U17448   2.650   5.139   3.649  0.9418  2.1937 -1.1749
  156OSM    C1F17449   1.903   5.571   2.454 -0.0785 -0.6680 -0.3787
  156OSM     OF17450   1.824   5.506   2.390 -0.7793  0.4940 -0.8000
  156OSM    C2F17451   1.895   5.592   2.602 -0.6231  0.2476 -0.6912
  156OSM    H2F17452   1.948   5.682   2.640  1.6142 -1.5899  0.8509
  156OSM    H2G17453   1.942   5.505   2.652 -0.0789 -0.3622 -2.2284
  156OSM    C3F17454   1.749   5.620   2.649 -0.7925 -0.3179 -0.6713
  156OSM    H3F17455   1.695   5.524   2.652  2.3485 -2.2394 -0.6520
  156OSM    H3G17456   1.704   5.693   2.579  1.6057  1.6636 -0.3016
  156OSM    C4F17457   1.748   5.702   2.776  1.3495 -0.2572  0.5094
  156OSM    H4F17458   1.645   5.735   2.797  1.8605  0.3893  2.1035
  156OSM    H4G17459   1.815   5.787   2.753  0.2211  0.3911 -0.4943
  156OSM    C5F17460   1.791   5.634   2.906 -0.4691  0.1896  0.6589
  156OSM    H5F17461   1.902   5.626   2.901 -0.5437 -0.5580 -2.5563
  156OSM    H5G17462   1.744   5.533   2.914 -1.4692  0.7880  3.2639
  156OSM    C6F17463   1.743   5.706   3.029 -0.4109  0.1136 -0.4529
  156OSM    H6F17464   1.634   5.725   3.018 -0.3260  0.0948 -1.4284
  156OSM    H6G17465   1.793   5.803   3.051 -0.6952  0.7058 -2.2278
  156OSM    C7F17466   1.763   5.623   3.159 -0.6274 -0.0994 -0.2403
  156OSM    H7F17467   1.869   5.594   3.170 -0.7857 -0.3729  0.6902
  156OSM    H7G17468   1.714   5.524   3.145  2.7308 -1.8866 -0.4350
  156OSM    C8F17469   1.706   5.695   3.285  0.3733 -0.7993 -0.2445
  156OSM    H8F17470   1.597   5.710   3.270 -0.0104 -0.7034  2.2169
  156OSM    H8G17471   1.754   5.792   3.309 -4.3484  1.5607  0.9503
  156OSM    C9F17472   1.715   5.611   3.410 -0.6355 -1.1216 -0.1441
  156OSM    H9F17473   1.692   5.506   3.387  0.5114 -0.9846 -2.1002
  156OSM   C10F17474   1.713   5.660   3.531 -0.3135  0.5303 -0.1561
  156OSM   H10F17475   1.717   5.588   3.614 -0.9365  0.8585  0.1663
  156OSM   C11F17476   1.734   5.801   3.577  0.5944  0.1313  0.4224
  156OSM   H11F17477   1.732   5.881   3.499  3.1292  2.0581  2.1739
  156OSM   H11G17478   1.836   5.795   3.619  0.7045 -2.1264 -0.0097
  156OSM   C12F17479   1.635   5.850   3.686 -0.2006 -0.0623 -0.4739
  156OSM   H12F17480   1.532   5.814   3.661 -0.2482 -0.0845 -0.2535
  156OSM   H12G17481   1.615   5.958   3.673 -3.8860 -0.5705 -0.1860
  156OSM   C13F17482   1.666   5.822   3.835 -0.4314  0.0384 -0.1151
  156OSM   H13F17483   1.760   5.876   3.857  0.1458 -1.6498  1.7911
  156OSM   H13G17484   1.684   5.714   3.850  0.7106  0.3020  0.4695
  156OSM   C14F17485   1.550   5.869   3.927  0.7111 -0.1008  0.2539
  156OSM   H14F17486   1.465   5.804   3.896  0.5120  0.0610  0.4491
  156OSM   H14G17487   1.524   5.973   3.898  1.5075 -0.4603 -1.9335
  156OSM   C15F17488   1.578   5.869   4.073 -0.8519  0.4270 -0.2741
  156OSM   H15F17489   1.655   5.946   4.091 -0.5938  0.2808 -0.7270
  156OSM   H15G17490   1.613   5.768   4.101  1.2607  1.4697  1.0310
  156OSM   C16F17491   1.450   5.895   4.161  0.2799  0.3242  0.1812
  156OSM   H16F17492   1.394   5.805   4.126 -0.5642  1.1294 -0.5968
  156OSM   H16G17493   1.407   5.988   4.119  2.3876  0.5900 -1.5698
  156OSM   C17F17494   1.467   5.886   4.309  0.3369  0.1366  0.4744
  156OSM   H17F17495   1.518   5.980   4.339  0.0261  1.0262 -1.6062
  156OSM   H17G17496   1.527   5.795   4.329  2.9912  1.9065  1.0071
  156OSM   C18F17497   1.337   5.882   4.395 -0.4377  0.4373 -1.1181
  156OSM   H18F17498   1.362   5.864   4.502 -3.2004 -1.0466 -0.6106
  156OSM   H18G17499   1.278   5.796   4.357 -2.3273  0.1911  1.9626
  156OSM   H18H17500   1.273   5.972   4.379 -0.1689  0.7328 -0.5756
  157OSM      N17501   0.979   6.549   1.764 -0.3044 -0.3388  0.0661
  157OSM    C1517502   1.057   6.421   1.719  0.0151  0.1684  0.5458
  157OSM   H15A17503   1.141   6.433   1.652 -0.6222 -4.0435 -1.3493
  157OSM   H15B17504   1.001   6.345   1.667  2.2182 -2.5256  1.8241
  157OSM   H15C17505   1.104   6.390   1.811 -0.0271 -0.2710  0.4203
  157OSM    C1417506   0.951   6.628   1.647  0.3943 -0.5128  0.0116
  157OSM   H14A17507   0.889   6.716   1.662  0.4698 -0.4281 -0.1718
  157OSM   H14B17508   0.920   6.571   1.561  0.7728  1.2495 -1.3637
  157OSM   H14C17509   1.045   6.663   1.607  0.0596  1.3779  0.7608
  157OSM    C1317510   0.848   6.492   1.812  0.0160 -0.2405 -0.2149
  157OSM   H13A17511   0.777   6.572   1.826 -0.8862 -0.5381 -2.5678
  157OSM   H13B17512   0.847   6.424   1.896 -1.4691 -1.1937 -0.9439
  157OSM   H13C17513   0.804   6.430   1.735  0.9048  0.0998 -1.0208
  157OSM    C1217514   1.049   6.636   1.873 -0.8524  0.3263  0.0738
  157OSM   H12A17515   0.989   6.724   1.887 -0.6536  0.1437  2.5631
  157OSM   H12B17516   1.146   6.664   1.833 -0.5999  1.3403  1.3342
  157OSM    C1117517   1.073   6.575   2.009  0.1674  0.1467  0.0342
  157OSM   H11A17518   0.983   6.535   2.061  1.4108 -1.9481  0.7093
  157OSM   H11B17519   1.109   6.663   2.065  1.3007 -0.2472 -0.0410
  157OSM      P17520   1.326   6.512   1.998 -0.0152 -0.2913  0.2251
  157OSM    O1317521   1.409   6.385   2.003  0.8887 -0.3548 -0.1550
  157OSM    O1417522   1.345   6.601   1.874  0.4497  0.7544  0.7647
  157OSM    O1117523   1.361   6.590   2.130  0.0042 -0.3574 -0.2384
  157OSM    O1217524   1.173   6.467   2.013  0.3263 -0.2375  0.1671
  157OSM    C1S17525   1.270   6.605   2.244 -0.3259 -0.6896 -0.1981
  157OSM    H1S17526   1.207   6.514   2.254  3.5018 -3.3627  1.9352
  157OSM    H1T17527   1.212   6.699   2.231  0.0478 -0.4781 -0.3447
  157OSM     NF17528   1.272   6.604   2.500 -0.4087  0.0760  0.5924
  157OSM    HNF17529   1.255   6.690   2.547  0.1169  0.8902 -0.6488
  157OSM    C2S17530   1.357   6.610   2.381  0.5220  0.0088  0.0226
  157OSM    H2S17531   1.408   6.511   2.385 -1.6830 -1.1454  1.4158
  157OSM    C3S17532   1.461   6.725   2.378 -0.2855 -0.1703  0.1422
  157OSM    H3S17533   1.398   6.816   2.389  0.3961  0.0762  2.7659
  157OSM     O317534   1.544   6.749   2.257 -0.0101 -0.6817  0.5794
  157OSM    HO317535   1.509   6.691   2.189  1.6588  1.7423 -2.6015
  157OSM    C4S17536   1.535   6.707   2.505  0.2566 -0.0448 -0.2217
  157OSM    H4S17537   1.494   6.766   2.589 -1.6642  0.0214 -1.1569
  157OSM    C5S17538   1.652   6.639   2.533  0.4235  0.3772  0.0215
  157OSM    H5S17539   1.711   6.617   2.443 -1.8884  2.5332 -2.1917
  157OSM    C6S17540   1.724   6.620   2.666 -0.6082  0.2269  0.0526
  157OSM    H6S17541   1.829   6.656   2.661  0.3510 -2.4432 -0.3143
  157OSM    H6T17542   1.723   6.510   2.674  0.2139  0.2135  0.0234
  157OSM    C7S17543   1.650   6.683   2.794 -0.7547 -0.0724  0.3239
  157OSM    H7S17544   1.543   6.655   2.781 -0.6329  0.1920 -1.5504
  157OSM    H7T17545   1.639   6.794   2.788 -1.0487 -0.1408 -0.5099
  157OSM    C8S17546   1.705   6.631   2.921  0.5888 -0.2989 -0.4908
  157OSM    H8S17547   1.801   6.686   2.925  0.0979  0.6169 -0.7979
  157OSM    H8T17548   1.717   6.521   2.917 -1.3777 -0.7072  1.9931
  157OSM    C9S17549   1.610   6.665   3.035  0.2296  0.1753 -0.3826
  157OSM    H9S17550   1.507   6.633   3.009 -1.5977  2.6278  2.9854
  157OSM    H9T17551   1.597   6.775   3.049  1.2934  0.4940 -1.6806
  157OSM   C10S17552   1.657   6.590   3.163 -0.2864 -0.0047 -0.4081
  157OSM   H10S17553   1.762   6.611   3.193 -0.8273 -1.0010  2.5005
  157OSM   H10T17554   1.652   6.479   3.150 -0.0141 -0.0906  0.1616
  157OSM   C11S17555   1.574   6.621   3.285 -0.0254  0.0759  0.1610
  157OSM   H11S17556   1.465   6.616   3.265  0.3664  0.4607 -2.2630
  157OSM   H11T17557   1.585   6.730   3.303 -0.3250  0.0300  0.6549
  157OSM   C12S17558   1.612   6.543   3.414  0.0517 -0.3628  0.6998
  157OSM   H12S17559   1.722   6.532   3.425  0.1019 -1.8155 -0.8988
  157OSM   H12T17560   1.570   6.445   3.385 -0.1194  0.7822 -3.5139
  157OSM   C13S17561   1.541   6.597   3.534 -0.3017 -0.4173  0.5067
  157OSM   H13S17562   1.433   6.581   3.515 -0.2160  0.2111 -0.6322
  157OSM   H13T17563   1.557   6.705   3.557  0.9762 -0.5990  0.5176
  157OSM   C14S17564   1.576   6.512   3.659  0.0254 -0.5112  0.7107
  157OSM   H14S17565   1.529   6.573   3.739 -0.1012 -0.1710  0.3767
  157OSM   H14T17566   1.687   6.509   3.672 -0.0138 -0.7817  1.0049
  157OSM   C15S17567   1.525   6.371   3.650 -0.7704  0.1494 -0.7436
  157OSM   H15S17568   1.509   6.336   3.545  0.4412  1.4983 -1.4092
  157OSM   H15T17569   1.429   6.372   3.707 -0.2565  0.3904  0.1324
  157OSM   C16S17570   1.626   6.265   3.705 -0.2525 -0.1813 -0.4811
  157OSM   H16S17571   1.719   6.262   3.645  0.5787 -1.0379  0.7975
  157OSM   H16T17572   1.563   6.173   3.704 -0.3734 -0.1820  1.6347
  157OSM   C17S17573   1.667   6.301   3.852  0.7892 -0.0975  0.4326
  157OSM   H17S17574   1.575   6.311   3.914  0.2016  1.2001 -0.6103
  157OSM   H17T17575   1.709   6.404   3.846 -0.9720  0.6333  0.0159
  157OSM   C18S17576   1.774   6.209   3.912 -0.2853  0.0156  0.5552
  157OSM   H18S17577   1.863   6.219   3.847 -1.7406  1.5905 -1.3359
  157OSM   H18T17578   1.739   6.104   3.913 -0.0026 -0.1067 -0.4876
  157OSM   H18U17579   1.795   6.243   4.015  0.1192  0.7588  0.2391
  157OSM    C1F17580   1.192   6.496   2.516  0.5443  0.1641  0.1851
  157OSM     OF17581   1.224   6.388   2.474  0.5823 -0.1834  0.5142
  157OSM    C2F17582   1.076   6.521   2.617 -0.7458 -0.2221  0.2137
  157OSM    H2F17583   0.989   6.569   2.568 -1.6397  0.0534  2.0241
  157OSM    H2G17584   1.116   6.584   2.699  3.0429 -2.2405  0.1792
  157OSM    C3F17585   1.028   6.394   2.688  0.4262  0.3180 -0.3000
  157OSM    H3F17586   1.116   6.331   2.711  1.1952  1.6918  0.6784
  157OSM    H3G17587   0.973   6.328   2.617 -0.8060  0.1971  0.7431
  157OSM    C4F17588   0.935   6.414   2.806 -0.4447  0.0082  0.6163
  157OSM    H4F17589   0.855   6.488   2.785 -0.1092  0.2843  0.3176
  157OSM    H4G17590   1.000   6.438   2.892 -0.5427  0.0466  0.6799
  157OSM    C5F17591   0.865   6.280   2.840 -0.5170 -0.1547  0.2270
  157OSM    H5F17592   0.953   6.213   2.834 -0.6359 -0.2350 -0.7496
  157OSM    H5G17593   0.794   6.254   2.759 -0.0533  0.4126 -0.3812
  157OSM    C6F17594   0.808   6.269   2.984  0.1986 -0.1056 -0.4514
  157OSM    H6F17595   0.877   6.303   3.064  1.8114  1.9724 -2.6006
  157OSM    H6G17596   0.781   6.167   3.020  0.6713 -0.4408 -1.0293
  157OSM    C7F17597   0.688   6.360   3.006 -0.4351 -0.1683 -0.0733
  157OSM    H7F17598   0.611   6.334   2.930 -0.7648 -1.6913  0.7443
  157OSM    H7G17599   0.726   6.462   2.987 -2.4044  0.7191  0.4885
  157OSM    C8F17600   0.619   6.354   3.146 -0.5161  0.7068 -0.2514
  157OSM    H8F17601   0.521   6.406   3.134 -0.0451  1.4832 -0.8589
  157OSM    H8G17602   0.681   6.418   3.212  0.5979 -0.5983 -0.0083
  157OSM    C9F17603   0.606   6.212   3.191 -0.6700  0.5607 -0.0821
  157OSM    H9F17604   0.568   6.149   3.110  0.4168  1.2758 -1.1841
  157OSM   C10F17605   0.669   6.164   3.300 -0.1637 -0.1486  0.2926
  157OSM   H10F17606   0.650   6.059   3.328 -2.5085 -0.0744 -0.7955
  157OSM   C11F17607   0.731   6.236   3.417 -1.0864 -0.4899 -0.1316
  157OSM   H11F17608   0.794   6.319   3.377  1.2161 -2.4925 -0.8884
  157OSM   H11G17609   0.804   6.175   3.474  1.3862  0.0222 -2.5358
  157OSM   C12F17610   0.631   6.290   3.519 -0.1691 -0.0943  0.4541
  157OSM   H12F17611   0.546   6.329   3.458 -0.9081 -1.1720  0.7561
  157OSM   H12G17612   0.680   6.356   3.594  1.3420 -0.9940  0.2834
  157OSM   C13F17613   0.562   6.178   3.601  0.2224  0.2092  0.1025
  157OSM   H13F17614   0.542   6.098   3.527 -0.9534  1.0831 -0.5622
  157OSM   H13G17615   0.456   6.204   3.624  0.5414  2.1928 -0.5148
  157OSM   C14F17616   0.622   6.114   3.728 -0.3715  0.0828 -0.5374
  157OSM   H14F17617   0.727   6.084   3.706  0.2901  2.3279 -0.7124
  157OSM   H14G17618   0.568   6.019   3.748  2.0219 -1.0026  1.2819
  157OSM   C15F17619   0.629   6.220   3.839  0.1375  0.2042 -0.3046
  157OSM   H15F17620   0.543   6.289   3.835  0.4817  0.5671 -2.4546
  157OSM   H15G17621   0.727   6.272   3.825  1.0072 -1.6672 -1.6170
  157OSM   C16F17622   0.644   6.145   3.973 -0.2621  0.4811 -0.8383
  157OSM   H16F17623   0.717   6.061   3.962  0.2257  0.7954 -0.0525
  157OSM   H16G17624   0.552   6.086   3.992 -0.0422  0.8002  1.3868
  157OSM   C17F17625   0.681   6.234   4.091  0.4703  0.5144  0.4006
  157OSM   H17F17626   0.773   6.287   4.059 -1.4985  3.8931 -0.0941
  157OSM   H17G17627   0.715   6.182   4.184  1.6109 -0.4375 -0.5060
  157OSM   C18F17628   0.593   6.359   4.115 -0.1945 -0.6001  0.7859
  157OSM   H18F17629   0.508   6.333   4.182 -0.2467  0.9611  1.3767
  157OSM   H18G17630   0.552   6.409   4.025 -1.3731  2.2648  2.7464
  157OSM   H18H17631   0.650   6.434   4.174  0.6826 -0.5751 -0.0672
  158OSM      N17632   6.568   6.060   1.662  0.0806 -0.2149  0.0166
  158OSM    C1517633   6.582   6.202   1.699  0.0145  0.3347  0.3872
  158OSM   H15A17634   6.539   6.261   1.619  1.5200  0.6045 -0.2512
  158OSM   H15B17635   6.683   6.236   1.713  0.3427 -0.4754  0.0525
  158OSM   H15C17636   6.538   6.203   1.798  2.3933 -2.1896  1.6255
  158OSM    C1417637   6.428   6.034   1.612 -0.0044  0.1521 -0.2538
  158OSM   H14A17638   6.356   6.033   1.692  0.3942  0.9631  0.1261
  158OSM   H14B17639   6.412   5.932   1.581 -2.2294  0.1838  0.6510
  158OSM   H14C17640   6.389   6.105   1.540 -2.7720  0.2430  1.1925
  158OSM    C1317641   6.662   6.048   1.546  0.2013 -0.3463  0.1330
  158OSM   H13A17642   6.760   6.081   1.577  0.3619 -1.9947  1.5706
  158OSM   H13B17643   6.633   6.123   1.474 -2.4262  1.0739  2.4767
  158OSM   H13C17644   6.663   5.946   1.509 -1.5485 -0.2657 -0.2072
  158OSM    C1217645   6.613   5.975   1.778 -0.0581  0.0755  0.1304
  158OSM   H12A17646   6.715   6.000   1.803 -0.2470  0.8344  0.1697
  158OSM   H12B17647   6.612   5.873   1.741  1.3382 -0.3384  1.1298
  158OSM    C1117648   6.535   5.987   1.912 -0.2337  0.3885 -0.7136
  158OSM   H11A17649   6.550   5.892   1.967  0.6935  1.3837  0.8204
  158OSM   H11B17650   6.426   5.991   1.891 -0.9309 -2.0339  1.8715
  158OSM      P17651   6.487   6.191   2.065  0.0119 -0.2275  0.0773
  158OSM    O1317652   6.576   6.292   2.119  0.3170  0.4279 -0.2336
  158OSM    O1417653   6.385   6.238   1.969  0.1765 -0.4074  0.1311
  158OSM    O1117654   6.404   6.105   2.170 -0.9051 -0.2007 -0.0743
  158OSM    O1217655   6.583   6.088   1.989 -0.5409  0.1419 -0.1319
  158OSM    C1S17656   6.486   6.036   2.264  0.0085 -0.2484  0.6944
  158OSM    H1S17657   6.536   6.113   2.326  0.4182 -0.3797  0.5325
  158OSM    H1T17658   6.565   5.973   2.218  1.4272  2.7378 -1.2601
  158OSM     NF17659   6.497   5.915   2.471  0.2366  0.5921  0.3767
  158OSM    HNF17660   6.566   5.847   2.449 -0.2295 -0.2770  1.4615
  158OSM    C2S17661   6.407   5.950   2.361 -0.3669 -0.0896 -0.0737
  158OSM    H2S17662   6.316   6.004   2.393 -0.1785 -0.2409  0.7201
  158OSM    C3S17663   6.350   5.823   2.286 -0.0269 -0.4273  0.7744
  158OSM    H3S17664   6.429   5.785   2.217 -0.8620  0.0326 -0.4566
  158OSM     O317665   6.248   5.860   2.187  0.1236 -0.7553 -0.2273
  158OSM    HO317666   6.266   5.954   2.177 -1.3865 -0.4761 -0.6104
  158OSM    C4S17667   6.306   5.718   2.382 -0.1084  0.8634  0.0889
  158OSM    H4S17668   6.390   5.662   2.424  0.3225 -0.4131 -2.3164
  158OSM    C5S17669   6.181   5.701   2.429 -0.1419  0.2403  0.0204
  158OSM    H5S17670   6.105   5.776   2.402  1.9878  2.6940  0.4367
  158OSM    C6S17671   6.148   5.607   2.539  0.1095 -0.7115 -0.2211
  158OSM    H6S17672   6.231   5.534   2.549  3.2788  2.8711  2.6604
  158OSM    H6T17673   6.059   5.546   2.514  1.1726 -2.2085 -0.5239
  158OSM    C7S17674   6.126   5.679   2.673  0.2739  0.4901  0.3297
  158OSM    H7S17675   6.044   5.753   2.665 -0.8982 -0.5798  1.8708
  158OSM    H7T17676   6.217   5.736   2.704  1.0071  0.2945 -1.3531
  158OSM    C8S17677   6.088   5.581   2.785 -0.1539 -0.3569  0.1535
  158OSM    H8S17678   6.162   5.499   2.785 -0.5337 -0.7033  0.3593
  158OSM    H8T17679   5.991   5.533   2.759 -0.9225  0.7817  0.7990
  158OSM    C9S17680   6.066   5.650   2.916  0.2874  0.5675 -0.5345
  158OSM    H9S17681   5.994   5.734   2.903 -0.8601 -0.0386  1.3945
  158OSM    H9T17682   6.162   5.692   2.952  1.1387 -0.6178 -1.3274
  158OSM   C10S17683   5.999   5.552   3.018 -0.2330 -0.2384 -0.1280
  158OSM   H10S17684   6.055   5.457   3.020  0.0585 -0.0606  1.1983
  158OSM   H10T17685   5.894   5.527   2.992 -0.5464  0.8660  0.0323
  158OSM   C11S17686   5.998   5.605   3.165 -0.1528 -0.2737 -0.6089
  158OSM   H11S17687   5.944   5.701   3.172  1.4040  0.5567  0.4370
  158OSM   H11T17688   6.105   5.621   3.192 -0.9125  0.3204  2.2873
  158OSM   C12S17689   5.951   5.494   3.257 -0.7235  0.1179  0.3721
  158OSM   H12S17690   5.988   5.395   3.223 -0.3880 -0.3421  1.9708
  158OSM   H12T17691   5.841   5.481   3.260 -1.3822  4.2563  1.4548
  158OSM   C13S17692   5.993   5.517   3.400 -0.5059 -0.3846 -0.0529
  158OSM   H13S17693   5.914   5.584   3.439 -0.7475 -0.1513 -0.9275
  158OSM   H13T17694   6.090   5.572   3.405  0.1376 -1.5500  0.6751
  158OSM   C14S17695   6.000   5.389   3.483 -0.0495  0.2043 -0.4223
  158OSM   H14S17696   6.085   5.323   3.457 -0.1882 -0.0104 -0.3293
  158OSM   H14T17697   5.906   5.340   3.451 -1.5216  2.5818  0.0089
  158OSM   C15S17698   6.010   5.412   3.638  0.0997  0.3954  0.4677
  158OSM   H15S17699   5.932   5.487   3.662  1.5122  1.4097  2.2468
  158OSM   H15T17700   6.102   5.467   3.667  1.0661  0.0539 -1.7770
  158OSM   C16S17701   5.986   5.279   3.711  0.3289 -0.0148 -0.3745
  158OSM   H16S17702   5.905   5.214   3.669 -0.7181 -1.1021  3.0116
  158OSM   H16T17703   5.944   5.316   3.806 -2.2954 -1.1062 -1.0116
  158OSM   C17S17704   6.114   5.204   3.733 -0.1522  0.4371 -0.4816
  158OSM   H17S17705   6.187   5.282   3.762  1.2418 -0.9467 -0.1821
  158OSM   H17T17706   6.156   5.163   3.639  0.0203 -0.7049  0.0742
  158OSM   C18S17707   6.114   5.107   3.855 -0.4653 -0.5717  0.2658
  158OSM   H18S17708   6.213   5.059   3.874 -0.7519 -1.3362 -0.1290
  158OSM   H18T17709   6.038   5.029   3.833  0.0430 -0.7023 -1.1241
  158OSM   H18U17710   6.069   5.173   3.933  2.2402  2.8304 -0.8301
  158OSM    C1F17711   6.499   5.983   2.589  0.2194 -0.0685  0.0451
  158OSM     OF17712   6.435   6.088   2.603 -0.1502 -0.4740 -0.5227
  158OSM    C2F17713   6.596   5.934   2.688  0.3673  0.5959  0.0702
  158OSM    H2F17714   6.683   6.003   2.695  0.5386  0.4325 -0.4084
  158OSM    H2G17715   6.643   5.838   2.657 -1.0761  0.3714 -1.5965
  158OSM    C3F17716   6.537   5.913   2.828  0.4897 -0.2676 -0.4339
  158OSM    H3F17717   6.462   5.831   2.830  0.7764 -0.5929 -2.0312
  158OSM    H3G17718   6.483   6.005   2.858  1.4484  0.1304  0.0936
  158OSM    C4F17719   6.642   5.885   2.935  0.0134 -0.5588 -0.1995
  158OSM    H4F17720   6.709   5.973   2.935 -1.6285  0.7925  2.1119
  158OSM    H4G17721   6.707   5.798   2.908  0.9912 -0.0583  0.4767
  158OSM    C5F17722   6.596   5.887   3.083  0.4840  0.1512 -0.1152
  158OSM    H5F17723   6.519   5.967   3.080  0.6997  0.4328  1.1851
  158OSM    H5G17724   6.676   5.914   3.155  0.6811  0.6327 -0.5007
  158OSM    C6F17725   6.542   5.753   3.120  0.4124  0.6524 -0.0125
  158OSM    H6F17726   6.625   5.683   3.144  0.1747 -0.0725 -1.1911
  158OSM    H6G17727   6.500   5.704   3.029 -2.0134  3.0954 -0.3369
  158OSM    C7F17728   6.424   5.762   3.221 -0.6834 -0.0794  0.4007
  158OSM    H7F17729   6.330   5.772   3.163 -1.9662  0.5760  2.4793
  158OSM    H7G17730   6.434   5.845   3.294  0.7671  0.6626 -0.5927
  158OSM    C8F17731   6.403   5.634   3.311 -0.1296 -0.6164 -0.0449
  158OSM    H8F17732   6.387   5.544   3.248 -0.3009  0.8450 -2.1837
  158OSM    H8G17733   6.310   5.650   3.370 -0.4786 -0.8258 -0.5267
  158OSM    C9F17734   6.513   5.599   3.410 -0.0185 -0.4027  0.2439
  158OSM    H9F17735   6.605   5.561   3.364 -0.3952  0.4890 -1.3640
  158OSM   C10F17736   6.513   5.628   3.540  0.7871 -0.1033 -0.5849
  158OSM   H10F17737   6.596   5.589   3.601  0.3931  2.5508  1.8858
  158OSM   C11F17738   6.411   5.690   3.628 -0.3705 -0.7525  0.2959
  158OSM   H11F17739   6.310   5.697   3.581 -0.7759  1.5360  1.3716
  158OSM   H11G17740   6.441   5.789   3.669  2.0523 -1.2989  0.0001
  158OSM   C12F17741   6.400   5.603   3.744 -0.1646  0.6716 -0.7515
  158OSM   H12F17742   6.495   5.589   3.799  0.1593 -0.6172 -1.5838
  158OSM   H12G17743   6.380   5.501   3.705  1.3803 -0.7539  1.9277
  158OSM   C13F17744   6.291   5.626   3.855  0.2845 -0.2782 -0.4614
  158OSM   H13F17745   6.188   5.614   3.816  0.4445 -0.8314 -0.7106
  158OSM   H13G17746   6.306   5.726   3.903 -0.5511 -0.0470 -0.6712
  158OSM   C14F17747   6.313   5.546   3.974 -0.8492  0.2539  0.5452
  158OSM   H14F17748   6.411   5.569   4.020  1.2216 -2.8057 -1.9602
  158OSM   H14G17749   6.321   5.439   3.945 -2.5982 -0.3954  2.2520
  158OSM   C15F17750   6.204   5.548   4.074 -0.1736  0.0506 -0.0648
  158OSM   H15F17751   6.195   5.647   4.122  1.8018  0.5999 -0.7301
  158OSM   H15G17752   6.225   5.467   4.147  0.6660 -0.1973 -0.5676
  158OSM   C16F17753   6.064   5.505   4.017 -0.1888 -0.2378  0.0048
  158OSM   H16F17754   6.076   5.413   3.956 -3.4193 -0.5215 -0.3890
  158OSM   H16G17755   6.033   5.588   3.951  0.9378  1.4448  1.4883
  158OSM   C17F17756   5.955   5.490   4.121  0.9511  0.2824 -0.5869
  158OSM   H17F17757   5.964   5.401   4.187  1.7858  2.1424  1.9689
  158OSM   H17G17758   5.860   5.482   4.064  0.9585  0.3502 -0.6087
  158OSM   C18F17759   5.939   5.602   4.225 -0.7714 -0.1380 -0.4184
  158OSM   H18F17760   6.031   5.593   4.287 -0.0136 -1.7459 -1.6901
  158OSM   H18G17761   5.843   5.580   4.276 -0.7069  1.6535  0.5518
  158OSM   H18H17762   5.935   5.705   4.184  1.4822 -0.6147 -2.0611
  159OSM      N17763   0.704   0.318   2.514 -0.0688 -0.5792 -0.0390
  159OSM    C1517764   0.719   0.234   2.644  0.0636  0.0487 -0.7119
  159OSM   H15A17765   0.694   0.133   2.614  0.6422  0.0791 -1.3269
  159OSM   H15B17766   0.663   0.283   2.723  2.0054  0.4272  0.4955
  159OSM   H15C17767   0.824   0.246   2.667  0.1135  0.5050 -1.1479
  159OSM    C1417768   0.791   0.263   2.410  0.8370 -0.0571  0.5127
  159OSM   H14A17769   0.897   0.272   2.425  1.5175 -4.1167 -0.5154
  159OSM   H14B17770   0.774   0.308   2.313  0.6155  0.9458  1.0155
  159OSM   H14C17771   0.770   0.159   2.388  2.7930 -0.3347 -0.1904
  159OSM    C1317772   0.561   0.302   2.471  0.5399  0.0237 -0.1331
  159OSM   H13A17773   0.536   0.197   2.463 -0.3774  0.3051 -1.0346
  159OSM   H13B17774   0.548   0.358   2.380  0.9646  1.3845  0.6131
  159OSM   H13C17775   0.506   0.359   2.545 -0.2127  1.8256 -1.9842
  159OSM    C1217776   0.749   0.461   2.546  0.0346 -0.3565 -0.1513
  159OSM   H12A17777   0.853   0.453   2.576  0.3729 -1.0082 -1.4256
  159OSM   H12B17778   0.683   0.490   2.626  0.6929  1.1220 -0.0926
  159OSM    C1117779   0.753   0.563   2.429  0.0259  0.8997  0.6034
  159OSM   H11A17780   0.780   0.662   2.473 -0.8946  0.4029  2.3716
  159OSM   H11B17781   0.650   0.578   2.391  0.5459 -2.3534 -2.7158
  159OSM      P17782   0.990   0.533   2.333  0.1751  0.0187 -0.0921
  159OSM    O1317783   1.047   0.404   2.285  0.2206  0.2697  0.2917
  159OSM    O1417784   1.032   0.660   2.273 -0.1487  0.1626 -0.2346
  159OSM    O1117785   1.016   0.540   2.493  0.1950  0.1629 -0.3671
  159OSM    O1217786   0.834   0.520   2.322 -0.9193 -0.3385  0.1092
  159OSM    C1S17787   1.148   0.571   2.539 -0.2373 -0.0701  0.0329
  159OSM    H1S17788   1.170   0.679   2.524 -0.3778  0.0288  0.5251
  159OSM    H1T17789   1.223   0.508   2.486 -1.8285 -2.1352  0.0993
  159OSM     NF17790   1.290   0.593   2.739  0.4822 -0.0937  0.5184
  159OSM    HNF17791   1.365   0.531   2.717  0.6562 -0.2904  1.6166
  159OSM    C2S17792   1.163   0.548   2.693  0.7417  0.1536 -0.3867
  159OSM    H2S17793   1.080   0.608   2.735  2.3162  1.1725  1.3811
  159OSM    C3S17794   1.128   0.407   2.744 -0.1302  0.4313 -0.0852
  159OSM    H3S17795   1.207   0.341   2.701 -1.9508 -0.8301 -1.6660
  159OSM     O317796   1.009   0.352   2.690 -0.1000  0.2029 -0.3396
  159OSM    HO317797   1.007   0.397   2.605 -0.2922  0.2611 -0.3064
  159OSM    C4S17798   1.131   0.405   2.892  0.6254  0.1366 -0.1374
  159OSM    H4S17799   1.066   0.489   2.920 -2.1945 -1.2155 -2.1307
  159OSM    C5S17800   1.203   0.329   2.976  0.1724  0.2705  0.3820
  159OSM    H5S17801   1.281   0.261   2.937 -0.4845  0.3853 -1.2350
  159OSM    C6S17802   1.207   0.363   3.123 -0.0136  0.2869 -0.4401
  159OSM    H6S17803   1.291   0.434   3.139  0.7662 -1.0082  1.4880
  159OSM    H6T17804   1.229   0.277   3.189  0.5536  1.1792  0.5788
  159OSM    C7S17805   1.084   0.424   3.193 -0.1699  0.3861 -0.0390
  159OSM    H7S17806   1.003   0.348   3.196 -0.8847  1.0919 -0.7553
  159OSM    H7T17807   1.037   0.507   3.137 -0.9116  0.2135  0.3231
  159OSM    C8S17808   1.111   0.475   3.331 -0.1564 -0.4916  0.1178
  159OSM    H8S17809   1.016   0.526   3.359 -2.4321 -4.0099 -0.5193
  159OSM    H8T17810   1.193   0.550   3.328 -1.0594  0.4871 -0.8444
  159OSM    C9S17811   1.128   0.363   3.430 -0.2115 -0.2882 -0.2148
  159OSM    H9S17812   1.218   0.300   3.409 -0.4470 -0.4780 -0.6612
  159OSM    H9T17813   1.048   0.286   3.422 -0.8400  0.4250 -0.8520
  159OSM   C10S17814   1.138   0.425   3.566 -0.2790 -0.4087  0.1785
  159OSM   H10S17815   1.053   0.496   3.580 -0.0758  0.0656 -0.9063
  159OSM   H10T17816   1.232   0.484   3.575 -1.1896  1.8067 -2.9843
  159OSM   C11S17817   1.139   0.324   3.682  0.6130 -0.3941 -0.6018
  159OSM   H11S17818   1.236   0.271   3.673  1.3568  0.8941 -0.4570
  159OSM   H11T17819   1.051   0.255   3.685 -0.5460  0.9299  3.8314
  159OSM   C12S17820   1.133   0.396   3.816 -1.0483 -0.1895 -0.1856
  159OSM   H12S17821   1.031   0.441   3.815 -0.0680  2.1735 -0.0050
  159OSM   H12T17822   1.207   0.479   3.814 -0.3166 -0.6878  2.6229
  159OSM   C13S17823   1.152   0.303   3.931 -0.1333 -0.6254 -0.1478
  159OSM   H13S17824   1.253   0.258   3.937 -0.1685 -0.6296  0.5732
  159OSM   H13T17825   1.071   0.227   3.936 -1.0498  0.2815 -0.6408
  159OSM   C14S17826   1.139   0.381   4.064  0.8503 -0.3831  0.2348
  159OSM   H14S17827   1.038   0.424   4.046 -0.0356 -2.2877  0.3440
  159OSM   H14T17828   1.204   0.470   4.063  0.0031  0.2490 -0.3946
  159OSM   C15S17829   1.147   0.305   4.196  0.0561  0.7420 -0.4240
  159OSM   H15S17830   1.230   0.231   4.192 -0.9995 -0.4442 -2.9882
  159OSM   H15T17831   1.063   0.232   4.203  1.2930 -0.6759  0.0705
  159OSM   C16S17832   1.154   0.386   4.332  0.4161  0.1458 -1.4054
  159OSM   H16S17833   1.078   0.467   4.332 -0.5399 -0.6867  1.0193
  159OSM   H16T17834   1.258   0.426   4.325  0.4369  0.1423 -1.1269
  159OSM   C17S17835   1.135   0.318   4.465  0.0727 -0.1522 -0.4309
  159OSM   H17S17836   1.065   0.232   4.465  2.9431 -2.6507 -0.5771
  159OSM   H17T17837   1.101   0.397   4.537 -0.5776 -0.3360 -0.5351
  159OSM   C18S17838   1.264   0.260   4.521 -0.2949  0.0109 -0.3676
  159OSM   H18S17839   1.306   0.177   4.461  0.1327  1.1910 -1.7529
  159OSM   H18T17840   1.235   0.212   4.617  1.2950 -2.8782 -1.2025
  159OSM   H18U17841   1.343   0.338   4.532 -2.3982  2.3351 -0.7721
  159OSM    C1F17842   1.312   0.725   2.749  0.8509 -0.2970 -0.5683
  159OSM     OF17843   1.220   0.801   2.727  0.0649 -0.7723  0.2291
  159OSM    C2F17844   1.453   0.761   2.789 -0.5846 -0.1305  0.3444
  159OSM    H2F17845   1.485   0.849   2.729  0.0424 -0.4771  0.1608
  159OSM    H2G17846   1.523   0.675   2.782  0.2092  0.3914  1.5317
  159OSM    C3F17847   1.462   0.814   2.933 -0.3463 -0.1777  0.5195
  159OSM    H3F17848   1.382   0.890   2.940  1.1261  1.3730  1.3251
  159OSM    H3G17849   1.563   0.862   2.939 -0.2202 -0.2432 -0.8797
  159OSM    C4F17850   1.459   0.708   3.036  0.1664 -0.2041  0.2398
  159OSM    H4F17851   1.541   0.636   3.015 -0.4617 -0.9864  0.3998
  159OSM    H4G17852   1.372   0.640   3.032 -0.4512  0.6325 -0.8547
  159OSM    C5F17853   1.481   0.758   3.180  0.7951 -0.2660  0.0600
  159OSM    H5F17854   1.388   0.787   3.233  1.4585 -1.6028  2.0847
  159OSM    H5G17855   1.526   0.859   3.168  2.3067 -0.6587  1.8657
  159OSM    C6F17856   1.549   0.661   3.281  0.1028  0.1609 -0.5320
  159OSM    H6F17857   1.652   0.648   3.242  0.2126 -2.8707  0.4877
  159OSM    H6G17858   1.498   0.565   3.261 -2.1089  1.2905 -0.5620
  159OSM    C7F17859   1.541   0.705   3.425 -0.5762 -0.4186  0.6478
  159OSM    H7F17860   1.450   0.659   3.469 -0.4211 -1.6629 -0.2905
  159OSM    H7G17861   1.530   0.815   3.414  0.0256 -0.5554 -2.3205
  159OSM    C8F17862   1.671   0.667   3.502  0.5315 -0.4210 -0.1643
  159OSM    H8F17863   1.764   0.688   3.445 -0.6542 -0.1180 -2.0534
  159OSM    H8G17864   1.664   0.557   3.519 -1.1564 -0.3466 -0.2499
  159OSM    C9F17865   1.681   0.738   3.635 -0.3082  1.3016  0.2949
  159OSM    H9F17866   1.763   0.811   3.627 -0.1767  1.0362 -1.1310
  159OSM   C10F17867   1.599   0.713   3.742 -0.3374  0.2864 -0.2015
  159OSM   H10F17868   1.624   0.770   3.833  1.9844  2.0300 -1.8017
  159OSM   C11F17869   1.491   0.607   3.750  0.2266  0.4969 -0.7972
  159OSM   H11F17870   1.481   0.548   3.656 -1.0744 -0.0042 -0.3753
  159OSM   H11G17871   1.391   0.651   3.774 -0.8866 -2.3113  0.1567
  159OSM   C12F17872   1.525   0.498   3.859  0.0497  0.2405 -0.1808
  159OSM   H12F17873   1.628   0.464   3.838  0.4418  1.0803  0.3341
  159OSM   H12G17874   1.454   0.415   3.838 -2.1264  2.0713 -0.5683
  159OSM   C13F17875   1.513   0.543   4.004 -0.4111 -0.0972  0.5034
  159OSM   H13F17876   1.414   0.590   4.020 -0.1065  0.5482  0.5233
  159OSM   H13G17877   1.589   0.622   4.022 -0.8419  0.2079  1.0084
  159OSM   C14F17878   1.526   0.431   4.106  0.2589 -0.0362  0.6004
  159OSM   H14F17879   1.461   0.342   4.096 -0.0999  0.3167 -0.2735
  159OSM   H14G17880   1.499   0.483   4.201  2.8235 -0.9809  1.9323
  159OSM   C15F17881   1.666   0.387   4.143 -0.4677  0.1604 -0.2510
  159OSM   H15F17882   1.751   0.456   4.121  2.3315 -3.1032 -0.4269
  159OSM   H15G17883   1.694   0.300   4.079  1.5302  1.6983 -1.6174
  159OSM   C16F17884   1.679   0.342   4.292 -0.5742  0.6323  0.3118
  159OSM   H16F17885   1.654   0.432   4.352  0.0019 -0.4484  2.2550
  159OSM   H16G17886   1.784   0.313   4.316 -0.5094  1.4093  1.0022
  159OSM   C17F17887   1.592   0.218   4.327 -0.5351 -0.5338  0.5825
  159OSM   H17F17888   1.612   0.136   4.254 -1.6969 -0.1296 -0.2153
  159OSM   H17G17889   1.486   0.248   4.312 -0.9572 -1.9615  0.5429
  159OSM   C18F17890   1.603   0.164   4.472 -0.5072 -0.8474 -0.2251
  159OSM   H18F17891   1.680   0.085   4.471 -0.2749 -0.6841  1.6142
  159OSM   H18G17892   1.503   0.137   4.514 -0.3019  2.1658  2.5356
  159OSM   H18H17893   1.651   0.239   4.538 -1.0683 -0.7817  0.1204
  160OSM      N17894   4.493   0.192   1.934  0.1878 -0.8629  0.1668
  160OSM    C1517895   4.386   0.096   1.893 -0.8475 -0.1202  0.5341
  160OSM   H15A17896   4.334   0.061   1.981  0.5625 -0.2748  1.3434
  160OSM   H15B17897   4.427   0.002   1.859 -0.6637 -0.3713  1.4214
  160OSM   H15C17898   4.305   0.144   1.841 -1.3402 -1.0110  0.4621
  160OSM    C1417899   4.605   0.126   2.008  0.0774  0.2913  0.2374
  160OSM   H14A17900   4.675   0.206   2.032  0.1097  0.4571 -0.4004
  160OSM   H14B17901   4.642   0.057   1.934  1.8941  0.6901  0.6977
  160OSM   H14C17902   4.579   0.068   2.095 -2.0733  2.2222  0.9832
  160OSM    C1317903   4.541   0.270   1.813 -0.0941  0.7530 -0.0412
  160OSM   H13A17904   4.596   0.353   1.854  1.3560 -0.2342  0.0663
  160OSM   H13B17905   4.463   0.310   1.749  0.5065  1.6640 -0.2302
  160OSM   H13C17906   4.615   0.213   1.760  4.0599  3.4747  2.3016
  160OSM    C1217907   4.426   0.276   2.035  0.1659 -0.4695  0.5280
  160OSM   H12A17908   4.399   0.204   2.110 -0.6855 -1.5854 -0.8118
  160OSM   H12B17909   4.326   0.300   2.002  0.8716 -1.2256 -2.4232
  160OSM    C1117910   4.496   0.393   2.105  0.0702 -0.6149 -0.4089
  160OSM   H11A17911   4.597   0.351   2.122 -0.8776 -3.0216 -0.2948
  160OSM   H11B17912   4.457   0.411   2.208  2.6001  0.9889  0.3679
  160OSM      P17913   4.599   0.627   2.069  0.0132 -0.1162 -0.3814
  160OSM    O1317914   4.701   0.640   1.961 -0.0561 -0.2895 -0.0684
  160OSM    O1417915   4.528   0.755   2.102  0.4005  0.1402 -0.1707
  160OSM    O1117916   4.662   0.561   2.202  0.3737  0.4799  0.5051
  160OSM    O1217917   4.497   0.513   2.024 -0.1547  0.4761  0.3417
  160OSM    C1S17918   4.659   0.637   2.321 -0.0948  0.5157  0.3656
  160OSM    H1S17919   4.559   0.630   2.368  0.3001  0.6449  1.2659
  160OSM    H1T17920   4.690   0.742   2.302 -0.2077  0.0812 -2.5813
  160OSM     NF17921   4.721   0.608   2.565 -0.5507  0.7307 -0.5231
  160OSM    HNF17922   4.792   0.655   2.617 -1.3485  1.5891 -0.1934
  160OSM    C2S17923   4.754   0.565   2.423  0.3912  0.2528  0.3918
  160OSM    H2S17924   4.741   0.456   2.409 -0.2268  0.3368  0.3191
  160OSM    C3S17925   4.900   0.590   2.381 -0.1180 -0.1696  0.5047
  160OSM    H3S17926   4.903   0.700   2.363 -0.2500 -0.0616  1.1325
  160OSM     O317927   4.938   0.535   2.256 -0.4137 -0.1787 -0.3151
  160OSM    HO317928   4.847   0.516   2.233 -0.1384  0.2669 -1.8431
  160OSM    C4S17929   5.001   0.569   2.487  0.3150 -0.1394  0.3059
  160OSM    H4S17930   5.023   0.658   2.548  0.9481 -0.1720  0.1305
  160OSM    C5S17931   5.060   0.452   2.509  0.4656  0.2344  0.1286
  160OSM    H5S17932   5.037   0.375   2.434 -4.2404  0.1514  1.3800
  160OSM    C6S17933   5.162   0.423   2.614 -0.5585 -0.4183 -0.7738
  160OSM    H6S17934   5.261   0.391   2.574 -0.7709 -1.0685 -0.7889
  160OSM    H6T17935   5.132   0.335   2.674  0.8362  0.2258  0.9754
  160OSM    C7S17936   5.186   0.533   2.718  0.0149  0.4552  0.4340
  160OSM    H7S17937   5.090   0.583   2.745 -1.1593 -1.4610 -0.0084
  160OSM    H7T17938   5.255   0.606   2.671  0.1345 -0.0903 -0.2463
  160OSM    C8S17939   5.254   0.483   2.839  0.7023  0.2754 -0.7424
  160OSM    H8S17940   5.346   0.428   2.810  1.0114 -1.3026  2.7641
  160OSM    H8T17941   5.188   0.403   2.878  0.8446  0.5768  0.1536
  160OSM    C9S17942   5.278   0.592   2.942  0.0726 -0.0425  0.0563
  160OSM    H9S17943   5.188   0.655   2.958  0.5528  0.6776 -0.0383
  160OSM    H9T17944   5.343   0.671   2.898 -1.4972  0.6760 -1.0705
  160OSM   C10S17945   5.313   0.542   3.081  0.2273 -0.2295  0.4510
  160OSM   H10S17946   5.402   0.476   3.083  0.3766 -0.0298  0.4808
  160OSM   H10T17947   5.227   0.485   3.121  1.2317 -1.9396  0.2904
  160OSM   C11S17948   5.339   0.653   3.194  0.4665  0.3379  0.5777
  160OSM   H11S17949   5.272   0.742   3.199  2.3946  1.7595  2.3976
  160OSM   H11T17950   5.440   0.697   3.187  1.3857 -1.5493  1.2096
  160OSM   C12S17951   5.333   0.592   3.329 -0.5505 -0.1927 -0.0986
  160OSM   H12S17952   5.409   0.514   3.352  1.4835  2.4230  2.7864
  160OSM   H12T17953   5.238   0.533   3.333 -0.7218  0.0884  4.0801
  160OSM   C13S17954   5.336   0.684   3.449  0.0416  0.0737  0.0259
  160OSM   H13S17955   5.256   0.758   3.428 -0.4543  0.0367  1.6723
  160OSM   H13T17956   5.431   0.742   3.446 -0.3574  0.7294  0.0248
  160OSM   C14S17957   5.322   0.616   3.586 -0.5515 -0.1941 -0.0379
  160OSM   H14S17958   5.399   0.536   3.587 -0.9497 -0.5930 -0.6277
  160OSM   H14T17959   5.225   0.561   3.584 -0.3566 -0.5369 -0.1912
  160OSM   C15S17960   5.347   0.705   3.707 -0.0423 -0.5718  0.4040
  160OSM   H15S17961   5.307   0.809   3.699  0.9860 -0.0961  1.2425
  160OSM   H15T17962   5.457   0.718   3.703 -0.1716  1.1408 -4.3044
  160OSM   C16S17963   5.308   0.634   3.841 -0.2243 -0.8746  0.5999
  160OSM   H16S17964   5.199   0.612   3.831 -0.8815  2.4257 -1.2118
  160OSM   H16T17965   5.309   0.715   3.917 -0.9169  0.4965 -0.8003
  160OSM   C17S17966   5.398   0.517   3.873 -0.1130  0.3061  0.2163
  160OSM   H17S17967   5.504   0.549   3.882  0.9463 -1.8026 -3.0556
  160OSM   H17T17968   5.385   0.451   3.784  0.4436 -0.2233  0.5238
  160OSM   C18S17969   5.351   0.454   4.003  0.0255 -1.2078  0.6288
  160OSM   H18S17970   5.398   0.357   4.032 -0.4329 -1.3749  0.8166
  160OSM   H18T17971   5.244   0.432   3.988 -0.5803 -0.4703  3.3334
  160OSM   H18U17972   5.364   0.526   4.086  2.1427 -1.1644  0.3239
  160OSM    C1F17973   4.613   0.564   2.626  0.3965 -0.8351 -0.3813
  160OSM     OF17974   4.537   0.480   2.578  0.1620  0.0200  0.7580
  160OSM    C2F17975   4.590   0.624   2.761  0.1779  0.4191  0.2907
  160OSM    H2F17976   4.482   0.615   2.788 -0.2291 -0.9736 -1.6180
  160OSM    H2G17977   4.629   0.727   2.775  2.3103 -0.3647  0.4577
  160OSM    C3F17978   4.654   0.549   2.891  1.0476  1.0834  0.3467
  160OSM    H3F17979   4.626   0.599   2.986 -0.9295 -1.3065  1.1289
  160OSM    H3G17980   4.764   0.550   2.875  0.8786  1.3900 -0.8585
  160OSM    C4F17981   4.608   0.405   2.914 -0.1189 -0.4625  0.6002
  160OSM    H4F17982   4.688   0.328   2.904  1.7416  1.2083  2.0177
  160OSM    H4G17983   4.530   0.381   2.838  0.4187  0.2535 -0.1900
  160OSM    C5F17984   4.535   0.378   3.048  0.0617 -0.2466  0.0277
  160OSM    H5F17985   4.521   0.268   3.053  0.2860 -0.3730 -1.7028
  160OSM    H5G17986   4.436   0.426   3.031  0.4786  0.5679 -0.1443
  160OSM    C6F17987   4.583   0.438   3.184 -0.8217 -0.0191  0.4095
  160OSM    H6F17988   4.599   0.547   3.164 -0.2440 -0.4694 -1.9580
  160OSM    H6G17989   4.683   0.401   3.215 -1.3158  0.4456  2.7269
  160OSM    C7F17990   4.489   0.419   3.303 -0.1258 -0.2610  0.4216
  160OSM    H7F17991   4.494   0.314   3.338 -0.4186  0.0117  1.3324
  160OSM    H7G17992   4.387   0.438   3.264  0.4143 -0.9505 -1.3978
  160OSM    C8F17993   4.511   0.514   3.434  0.4725  0.0173  0.8778
  160OSM    H8F17994   4.545   0.614   3.400 -0.6676  1.1311  2.8322
  160OSM    H8G17995   4.599   0.472   3.488  1.8212 -0.1147 -1.2765
  160OSM    C9F17996   4.395   0.542   3.526 -0.0297 -0.4552  0.1171
  160OSM    H9F17997   4.308   0.586   3.474  0.2500 -0.6588 -0.5379
  160OSM   C10F17998   4.386   0.507   3.652 -0.4141 -0.3085 -0.5149
  160OSM   H10F17999   4.297   0.521   3.716 -0.8704 -1.2416 -0.9234
  160OSM   C11F18000   4.490   0.434   3.733 -0.3008  0.5611  0.5582
  160OSM   H11F18001   4.565   0.378   3.674 -0.4041 -2.3486  2.9758
  160OSM   H11G18002   4.445   0.353   3.793  0.0970  1.1410  1.6652
  160OSM   C12F18003   4.559   0.545   3.824  0.1796 -0.2616  0.4509
  160OSM   H12F18004   4.583   0.635   3.763 -3.3412  0.1345 -0.5451
  160OSM   H12G18005   4.646   0.487   3.860 -0.5806 -0.8676  1.3357
  160OSM   C13F18006   4.476   0.590   3.952  0.6770  0.7489  0.2653
  160OSM   H13F18007   4.396   0.654   3.908 -1.1725 -1.6936 -0.1661
  160OSM   H13G18008   4.537   0.651   4.021  2.0150 -1.6292  1.2961
  160OSM   C14F18009   4.410   0.474   4.036 -0.1772 -0.2750  0.2938
  160OSM   H14F18010   4.471   0.382   4.030  0.5733  0.2035  0.3634
  160OSM   H14G18011   4.309   0.455   3.994  0.7019 -0.9356 -1.6302
  160OSM   C15F18012   4.385   0.513   4.183 -0.4202 -0.4572  0.4134
  160OSM   H15F18013   4.295   0.576   4.195  0.2054  0.2647  1.4181
  160OSM   H15G18014   4.470   0.563   4.234 -1.2373 -0.1143  1.4661
  160OSM   C16F18015   4.335   0.392   4.264 -0.2264  0.1033 -0.3808
  160OSM   H16F18016   4.419   0.321   4.281  0.9721  1.0822 -1.9597
  160OSM   H16G18017   4.261   0.339   4.201 -1.7175  1.1239  0.4524
  160OSM   C17F18018   4.268   0.439   4.397  0.3436  0.3422 -0.1989
  160OSM   H17F18019   4.185   0.499   4.356  1.2064  1.2572 -0.6445
  160OSM   H17G18020   4.333   0.499   4.465  0.0237 -0.4547  0.8361
  160OSM   C18F18021   4.217   0.317   4.475  0.9382 -0.0258 -0.0511
  160OSM   H18F18022   4.296   0.257   4.525  0.7426  0.1037  0.4241
  160OSM   H18G18023   4.144   0.254   4.422  0.0763 -1.0017  2.1843
  160OSM   H18H18024   4.154   0.362   4.555 -1.8803  0.1111 -2.2076
  161OSM      N18025   3.059   5.103   1.789 -0.5237 -0.0161  0.1703
  161OSM    C1518026   3.203   5.070   1.741  0.6317 -0.6069 -0.1868
  161OSM   H15A18027   3.205   5.028   1.642 -1.2932 -0.4947 -0.3052
  161OSM   H15B18028   3.259   5.013   1.814  1.0409  0.5259  0.4073
  161OSM   H15C18029   3.257   5.162   1.728  0.6793 -0.4635  0.8753
  161OSM    C1418030   2.987   5.187   1.682 -0.0711 -0.2158 -0.1220
  161OSM   H14A18031   3.000   5.148   1.582  1.1115  1.3100 -0.6065
  161OSM   H14B18032   3.035   5.282   1.666  0.8815 -1.0873 -3.0033
  161OSM   H14C18033   2.881   5.197   1.700 -0.0086  0.9826 -0.3505
  161OSM    C1318034   2.994   4.969   1.795  0.8658 -0.5676  0.3290
  161OSM   H13A18035   2.892   4.988   1.824  1.2533  0.3897  1.1278
  161OSM   H13B18036   3.041   4.916   1.876  2.6187  1.0114  0.4237
  161OSM   H13C18037   3.005   4.911   1.705 -1.6053  0.7070 -0.9098
  161OSM    C1218038   3.048   5.181   1.918 -0.2921  0.1550  0.1550
  161OSM   H12A18039   2.948   5.205   1.951  0.1649  0.3410  1.4637
  161OSM   H12B18040   3.103   5.271   1.897 -2.2040  1.6368  1.0983
  161OSM    C1118041   3.117   5.126   2.048 -0.2083  0.4508 -0.4496
  161OSM   H11A18042   3.067   5.032   2.080  0.1821  0.6440  0.8032
  161OSM   H11B18043   3.100   5.195   2.133  0.6721 -1.7376  1.6046
  161OSM      P18044   3.371   5.202   2.038 -0.0167 -0.2076 -0.3584
  161OSM    O1318045   3.494   5.135   1.978 -0.3189  0.5506 -0.1339
  161OSM    O1418046   3.337   5.339   2.000 -0.1554 -0.5280 -0.3037
  161OSM    O1118047   3.372   5.210   2.186  0.3540  0.1887 -0.3247
  161OSM    O1218048   3.253   5.106   2.017  0.2527  0.2570 -0.4011
  161OSM    C1S18049   3.367   5.100   2.280  0.2862  0.3364  0.0545
  161OSM    H1S18050   3.447   5.024   2.265  1.8551  1.9438 -0.2056
  161OSM    H1T18051   3.275   5.044   2.253 -0.4872  1.7430 -0.3078
  161OSM     NF18052   3.402   5.034   2.519 -0.1762  0.1961 -0.1182
  161OSM    HNF18053   3.321   4.982   2.545  1.1107 -0.7211  2.4197
  161OSM    C2S18054   3.370   5.148   2.436 -0.8374 -0.5525 -0.4000
  161OSM    H2S18055   3.458   5.214   2.448 -1.0896  0.1312 -2.0177
  161OSM    C3S18056   3.238   5.219   2.468  0.1576 -0.1307 -0.1834
  161OSM    H3S18057   3.164   5.147   2.424 -2.7476  2.7103 -0.3127
  161OSM     O318058   3.206   5.335   2.386 -0.1944 -0.0313 -0.9580
  161OSM    HO318059   3.269   5.327   2.314  1.0372  0.8755 -0.0229
  161OSM    C4S18060   3.209   5.249   2.612 -0.1785 -0.0033  0.1680
  161OSM    H4S18061   3.260   5.339   2.650  0.7077  0.6746 -2.4525
  161OSM    C5S18062   3.119   5.188   2.683  0.3720  0.2174  0.2062
  161OSM    H5S18063   3.052   5.120   2.628 -1.0026  1.3594  0.3978
  161OSM    C6S18064   3.062   5.222   2.821 -0.1719 -0.4093 -0.2237
  161OSM    H6S18065   2.970   5.161   2.819  0.8756 -2.0147 -1.3656
  161OSM    H6T18066   3.053   5.333   2.829  2.3526 -0.1392 -0.1981
  161OSM    C7S18067   3.147   5.158   2.928 -0.0411 -0.0848  1.0448
  161OSM    H7S18068   3.252   5.192   2.922  1.3838 -3.6979  2.7057
  161OSM    H7T18069   3.140   5.047   2.917 -1.1535  0.0850 -0.1646
  161OSM    C8S18070   3.102   5.213   3.068  0.6886  0.0250  0.4964
  161OSM    H8S18071   3.000   5.178   3.097  0.6558  0.0243  0.3807
  161OSM    H8T18072   3.097   5.323   3.061 -0.8479  0.0999  2.0829
  161OSM    C9S18073   3.190   5.169   3.178 -0.2196  0.2118 -0.5897
  161OSM    H9S18074   3.282   5.231   3.180  0.1060 -0.2106  2.9313
  161OSM    H9T18075   3.218   5.062   3.166 -2.7887 -1.0180  2.7110
  161OSM   C10S18076   3.123   5.182   3.321 -0.0990 -0.3801 -0.0299
  161OSM   H10S18077   3.184   5.118   3.388 -0.5027 -2.7754 -1.8245
  161OSM   H10T18078   3.022   5.136   3.324 -0.6632  0.8473  0.2294
  161OSM   C11S18079   3.110   5.322   3.368  0.1368 -0.2752  0.6366
  161OSM   H11S18080   3.055   5.382   3.292 -0.0811  0.9028  1.6834
  161OSM   H11T18081   3.213   5.360   3.387  0.0284 -0.5602  1.8946
  161OSM   C12S18082   3.027   5.333   3.500 -0.5031 -0.8098  0.4479
  161OSM   H12S18083   2.940   5.264   3.493  0.0870 -1.4002 -1.8326
  161OSM   H12T18084   3.006   5.440   3.520  2.5098  0.1654 -1.0776
  161OSM   C13S18085   3.108   5.278   3.620 -0.0024 -0.4480 -0.4764
  161OSM   H13S18086   3.169   5.359   3.666 -1.4091  1.4258 -1.7461
  161OSM   H13T18087   3.182   5.199   3.597  0.0870 -0.3640 -0.4779
  161OSM   C14S18088   3.003   5.230   3.731  0.0619  0.3634 -0.2424
  161OSM   H14S18089   2.952   5.140   3.691  0.1345 -0.9314  2.3380
  161OSM   H14T18090   2.928   5.309   3.753 -0.4588 -0.2522  0.2160
  161OSM   C15S18091   3.074   5.188   3.862 -0.6328 -0.2318 -0.4569
  161OSM   H15S18092   3.156   5.119   3.832 -0.3994 -0.0247 -0.2890
  161OSM   H15T18093   3.007   5.142   3.937  0.3884 -1.4237 -0.2450
  161OSM   C16S18094   3.143   5.294   3.945 -0.1172  0.5074  0.3132
  161OSM   H16S18095   3.229   5.342   3.893  1.1792  0.6357  2.4751
  161OSM   H16T18096   3.188   5.255   4.038  0.7162  1.3297  0.2666
  161OSM   C17S18097   3.035   5.400   3.985 -0.6356 -0.0344 -0.3083
  161OSM   H17S18098   2.936   5.354   4.006 -2.3423  3.8738  1.1939
  161OSM   H17T18099   3.000   5.467   3.904 -0.4677  0.0908 -0.2799
  161OSM   C18S18100   3.074   5.492   4.098  0.2213  0.2703  0.0060
  161OSM   H18S18101   3.144   5.574   4.072  1.8237 -0.1871  2.4970
  161OSM   H18T18102   3.120   5.431   4.179  1.4638  2.8777  1.4008
  161OSM   H18U18103   2.988   5.550   4.136  0.8664  1.4601 -0.2823
  161OSM    C1F18104   3.527   4.977   2.517  0.1368  0.2760  0.0539
  161OSM     OF18105   3.614   5.041   2.456  0.0738  0.1662  0.3691
  161OSM    C2F18106   3.547   4.841   2.583 -0.8098 -0.3280  0.3041
  161OSM    H2F18107   3.613   4.779   2.519  2.4487 -0.3116  3.3375
  161OSM    H2G18108   3.452   4.790   2.606 -2.1941  1.5675 -0.9265
  161OSM    C3F18109   3.623   4.878   2.716 -0.2449 -0.0143  0.5084
  161OSM    H3F18110   3.715   4.934   2.691  0.4576 -1.6932 -0.9062
  161OSM    H3G18111   3.658   4.785   2.765  0.1916  0.7419  1.6729
  161OSM    C4F18112   3.529   4.945   2.815 -0.4188 -0.1025 -0.5350
  161OSM    H4F18113   3.444   4.875   2.830 -0.2775  0.1698  1.9540
  161OSM    H4G18114   3.493   5.043   2.776 -1.8354 -0.0138  0.8979
  161OSM    C5F18115   3.592   4.951   2.953  0.5970 -0.2167 -0.1269
  161OSM    H5F18116   3.675   5.023   2.961  0.6161  0.0302 -1.9465
  161OSM    H5G18117   3.620   4.846   2.978 -1.1986 -0.1936  2.3267
  161OSM    C6F18118   3.483   4.980   3.061  0.5572 -0.0570 -0.0995
  161OSM    H6F18119   3.400   4.907   3.052 -0.3009 -0.0443  4.9108
  161OSM    H6G18120   3.444   5.083   3.045  1.1683 -0.0367 -1.5607
  161OSM    C7F18121   3.530   4.990   3.211 -0.3813 -0.3188  0.1911
  161OSM    H7F18122   3.602   4.911   3.243 -1.1233 -1.4806 -0.9381
  161OSM    H7G18123   3.440   4.998   3.275 -0.3159 -0.3746  0.2922
  161OSM    C8F18124   3.599   5.122   3.226  0.2895 -0.8129  0.0088
  161OSM    H8F18125   3.521   5.199   3.207  2.4691  1.2060 -1.3795
  161OSM    H8G18126   3.672   5.162   3.152 -1.1203 -0.2238 -1.1164
  161OSM    C9F18127   3.651   5.139   3.367 -0.2707  0.1177  0.3891
  161OSM    H9F18128   3.721   5.063   3.403  2.0659  1.7837 -0.4067
  161OSM   C10F18129   3.601   5.234   3.455 -0.0773 -0.1037 -0.1635
  161OSM   H10F18130   3.647   5.240   3.555 -0.2570 -1.8642  0.0598
  161OSM   C11F18131   3.517   5.355   3.421 -0.2354  0.6539 -0.3014
  161OSM   H11F18132   3.425   5.313   3.375 -0.6307 -0.1996  1.1919
  161OSM   H11G18133   3.568   5.412   3.341  1.0287 -1.1712 -0.8746
  161OSM   C12F18134   3.486   5.447   3.537  0.1576  0.3936  0.9226
  161OSM   H12F18135   3.582   5.484   3.580 -1.0979  2.3274  2.2014
  161OSM   H12G18136   3.423   5.389   3.609 -0.3041 -2.3698 -1.5203
  161OSM   C13F18137   3.386   5.565   3.504  0.4427 -0.1601 -0.0377
  161OSM   H13F18138   3.300   5.535   3.440  0.6541 -2.1563  0.5303
  161OSM   H13G18139   3.445   5.641   3.449  1.4267  0.3939  1.7163
  161OSM   C14F18140   3.330   5.620   3.643  0.2719 -0.0627  0.4343
  161OSM   H14F18141   3.420   5.636   3.706  0.3561 -1.0839  0.5887
  161OSM   H14G18142   3.272   5.545   3.701  0.5891 -1.0454 -0.5008
  161OSM   C15F18143   3.243   5.741   3.627 -0.6123 -0.4102 -0.0298
  161OSM   H15F18144   3.150   5.717   3.571 -2.2676  0.3440  2.2444
  161OSM   H15G18145   3.300   5.819   3.572 -1.6058 -1.2229 -2.3259
  161OSM   C16F18146   3.191   5.795   3.766 -0.3946  0.2603  0.0945
  161OSM   H16F18147   3.285   5.803   3.826  0.8848  0.1385 -1.7800
  161OSM   H16G18148   3.114   5.724   3.802  0.7551 -0.4620  1.2239
  161OSM   C17F18149   3.124   5.936   3.759  0.5218  0.2614  0.6834
  161OSM   H17F18150   3.047   5.921   3.680  2.2123 -1.6163 -0.7020
  161OSM   H17G18151   3.201   6.005   3.720  0.2826  1.3113  2.0009
  161OSM   C18F18152   3.060   5.971   3.892 -0.1942 -0.0143 -0.3234
  161OSM   H18F18153   3.011   6.071   3.892 -1.6554 -0.6842  0.3744
  161OSM   H18G18154   3.135   5.971   3.974  0.8919  1.9177 -1.2480
  161OSM   H18H18155   2.978   5.899   3.914  0.6259 -1.0237 -0.4964
  162OSM      N18156   4.619   5.748   1.969 -0.2347  0.6799  0.0617
  162OSM    C1518157   4.533   5.865   1.946  0.6010 -0.5158  0.7409
  162OSM   H15A18158   4.526   5.901   1.845 -0.9189 -2.2319  0.1728
  162OSM   H15B18159   4.572   5.939   2.014  1.6875 -1.8053  1.5918
  162OSM   H15C18160   4.432   5.851   1.983  0.3974 -1.4680 -0.1365
  162OSM    C1418161   4.589   5.631   1.878  0.1158 -0.8644  0.3034
  162OSM   H14A18162   4.660   5.549   1.886  0.8720 -0.1750  0.7743
  162OSM   H14B18163   4.611   5.671   1.780  0.9013  2.7123  1.8104
  162OSM   H14C18164   4.482   5.612   1.874 -0.1113  0.4034  0.1270
  162OSM    C1318165   4.756   5.780   1.932 -0.7890  0.3533 -0.4603
  162OSM   H13A18166   4.765   5.820   1.832 -2.9548  2.4698  0.0885
  162OSM   H13B18167   4.811   5.687   1.938 -2.6119 -0.6973  2.5815
  162OSM   H13C18168   4.809   5.850   1.994 -1.0612  1.2874 -1.2586
  162OSM    C1218169   4.600   5.698   2.110  0.1402  0.4208  0.7167
  162OSM   H12A18170   4.648   5.601   2.118 -0.4189  0.0707 -0.0667
  162OSM   H12B18171   4.496   5.671   2.123  0.3210 -0.1472  1.0670
  162OSM    C1118172   4.633   5.785   2.231  0.2936 -1.1919 -0.6220
  162OSM   H11A18173   4.742   5.805   2.231  0.2409 -0.7652  0.7697
  162OSM   H11B18174   4.613   5.728   2.324  0.6110  0.6304  0.6259
  162OSM      P18175   4.418   5.919   2.287  0.1212  0.6352  0.3219
  162OSM    O1318176   4.359   6.044   2.246  0.2485 -0.2415 -0.1889
  162OSM    O1418177   4.337   5.800   2.248 -0.9158 -0.0426 -0.0758
  162OSM    O1118178   4.445   5.914   2.438 -0.1958 -0.1747 -0.3817
  162OSM    O1218179   4.557   5.908   2.220  0.0718 -0.2089  0.4243
  162OSM    C1S18180   4.542   6.011   2.481 -0.2969 -0.0616 -0.0065
  162OSM    H1S18181   4.513   6.115   2.455  1.1823  0.3884  0.0089
  162OSM    H1T18182   4.636   6.007   2.421 -1.2119  1.1947 -1.5883
  162OSM     NF18183   4.642   6.132   2.678  0.1130 -0.0037  0.2252
  162OSM    HNF18184   4.742   6.130   2.671  0.2703  0.0896  2.0548
  162OSM    C2S18185   4.569   6.009   2.636 -0.3433 -0.2171 -0.2974
  162OSM    H2S18186   4.474   6.007   2.694 -0.0164  1.5143  0.3609
  162OSM    C3S18187   4.654   5.882   2.653  0.0168  0.2939  0.3697
  162OSM    H3S18188   4.747   5.892   2.594  0.2616  3.1818  1.1100
  162OSM     O318189   4.600   5.771   2.593  0.3621  0.1970  0.1983
  162OSM    HO318190   4.516   5.799   2.558  0.9655  2.6298  0.5031
  162OSM    C4S18191   4.703   5.866   2.795 -0.1888  0.2374 -0.2261
  162OSM    H4S18192   4.777   5.943   2.824 -0.2648  0.7448 -1.3272
  162OSM    C5S18193   4.658   5.771   2.883  0.4577 -0.1864 -0.3694
  162OSM    H5S18194   4.572   5.715   2.843 -0.9129  2.1976 -1.0067
  162OSM    C6S18195   4.697   5.751   3.028  0.2138  0.1025  0.6897
  162OSM    H6S18196   4.772   5.669   3.034 -0.0717 -0.2325 -0.2258
  162OSM    H6T18197   4.602   5.720   3.077  0.2558 -1.5631 -0.2213
  162OSM    C7S18198   4.751   5.877   3.088 -0.0977 -0.2741  0.0238
  162OSM    H7S18199   4.673   5.951   3.058 -0.4810 -1.5497 -2.4087
  162OSM    H7T18200   4.842   5.913   3.035 -1.1303  1.6315 -0.5674
  162OSM    C8S18201   4.774   5.883   3.235 -0.5993  0.6871 -0.1076
  162OSM    H8S18202   4.794   5.986   3.272  2.2155  0.4913 -0.8847
  162OSM    H8T18203   4.865   5.826   3.263 -0.6241  1.2007  1.0967
  162OSM    C9S18204   4.659   5.833   3.320 -0.1585  0.4444 -0.7706
  162OSM    H9S18205   4.637   5.730   3.284  0.4644  0.5467 -1.4749
  162OSM    H9T18206   4.574   5.903   3.304 -0.7381 -0.5561 -2.2516
  162OSM   C10S18207   4.687   5.816   3.475  0.3168  0.0293  0.2532
  162OSM   H10S18208   4.757   5.898   3.500 -1.2356  1.7793 -0.8763
  162OSM   H10T18209   4.748   5.723   3.484  1.7882  0.7146 -1.8256
  162OSM   C11S18210   4.561   5.818   3.558 -0.6079 -0.4412 -0.5124
  162OSM   H11S18211   4.502   5.725   3.541 -0.7648 -0.3194 -0.6344
  162OSM   H11T18212   4.496   5.905   3.533  1.3252  1.1658 -0.2165
  162OSM   C12S18213   4.608   5.825   3.706 -0.1555 -0.7356  0.3474
  162OSM   H12S18214   4.522   5.864   3.765  1.8121  2.2948  1.4573
  162OSM   H12T18215   4.683   5.906   3.717 -0.6501 -0.2500  0.2123
  162OSM   C13S18216   4.670   5.703   3.773  0.3737  0.0617 -0.4110
  162OSM   H13S18217   4.686   5.722   3.881 -2.2205 -2.0927  0.4494
  162OSM   H13T18218   4.769   5.681   3.727  0.3576  1.6851 -1.2945
  162OSM   C14S18219   4.573   5.578   3.784  0.1171 -0.1600  0.1524
  162OSM   H14S18220   4.578   5.509   3.697  1.3031 -1.6544  1.3525
  162OSM   H14T18221   4.468   5.612   3.798  0.3492  1.1586 -1.0537
  162OSM   C15S18222   4.622   5.488   3.899  0.2802 -0.3900 -0.6499
  162OSM   H15S18223   4.605   5.544   3.993  0.4705  0.5347 -1.1445
  162OSM   H15T18224   4.731   5.466   3.889 -0.1173 -2.5665 -0.6654
  162OSM   C16S18225   4.551   5.344   3.890 -0.0139 -0.0787  0.1363
  162OSM   H16S18226   4.558   5.298   3.790 -1.9104  0.4751 -0.2765
  162OSM   H16T18227   4.441   5.355   3.894 -0.1100 -0.4530 -1.0768
  162OSM   C17S18228   4.596   5.245   4.002 -0.2205  0.6336 -0.6417
  162OSM   H17S18229   4.567   5.287   4.101 -0.7271 -0.2196 -0.4210
  162OSM   H17T18230   4.707   5.240   4.004 -0.2758 -2.1283  0.7673
  162OSM   C18S18231   4.540   5.102   3.997 -0.0513  0.0762  0.8581
  162OSM   H18S18232   4.545   5.072   3.891  0.5027 -0.0630  0.9186
  162OSM   H18T18233   4.437   5.079   4.029 -0.6292 -1.9092 -2.1233
  162OSM   H18U18234   4.590   5.037   4.072 -1.6799 -1.7947  0.4001
  162OSM    C1F18235   4.579   6.249   2.685 -0.1143 -0.1375 -0.3271
  162OSM     OF18236   4.455   6.260   2.668  0.4712 -1.3789  0.1009
  162OSM    C2F18237   4.671   6.369   2.716 -0.2578  0.5704  0.1331
  162OSM    H2F18238   4.613   6.463   2.729  0.7097  1.5685 -2.2645
  162OSM    H2G18239   4.736   6.395   2.630  2.5062 -0.7141  1.6660
  162OSM    C3F18240   4.754   6.355   2.845  0.3702 -0.2103 -0.5537
  162OSM    H3F18241   4.822   6.442   2.858  2.9202 -1.9692 -1.2997
  162OSM    H3G18242   4.827   6.271   2.838  0.9991  0.3901 -1.4433
  162OSM    C4F18243   4.670   6.337   2.969  0.8541  0.2268 -0.1988
  162OSM    H4F18244   4.602   6.250   2.962  0.5963  0.3871  0.3296
  162OSM    H4G18245   4.600   6.423   2.966 -0.1154 -0.5646 -1.1948
  162OSM    C5F18246   4.748   6.343   3.098  0.2787 -0.0467 -0.4326
  162OSM    H5F18247   4.792   6.445   3.105  2.3213 -0.8462 -0.8642
  162OSM    H5G18248   4.830   6.269   3.108 -1.0597 -1.7495 -1.4095
  162OSM    C6F18249   4.653   6.315   3.212 -0.6140 -0.1853 -0.0271
  162OSM    H6F18250   4.599   6.219   3.200 -0.9107 -0.0662  0.3428
  162OSM    H6G18251   4.571   6.390   3.209  0.1608  0.6516 -1.3573
  162OSM    C7F18252   4.729   6.313   3.342 -0.2932  0.4596  0.2373
  162OSM    H7F18253   4.779   6.407   3.371 -0.2194  0.8480 -1.1255
  162OSM    H7G18254   4.811   6.238   3.334  1.1629  2.1811 -2.1391
  162OSM    C8F18255   4.633   6.253   3.451  0.1804  0.0408 -0.4651
  162OSM    H8F18256   4.576   6.169   3.408  1.3762 -0.7140 -0.6082
  162OSM    H8G18257   4.557   6.329   3.479  0.3834 -0.6829  2.3961
  162OSM    C9F18258   4.715   6.196   3.568 -0.5937  0.0253  0.9560
  162OSM    H9F18259   4.802   6.138   3.533  0.2779  2.6440 -1.6691
  162OSM   C10F18260   4.686   6.198   3.705 -0.2585 -0.9202  0.5970
  162OSM   H10F18261   4.751   6.149   3.779 -0.4250  1.1822  2.2061
  162OSM   C11F18262   4.563   6.269   3.763  1.1959 -0.1937  0.0380
  162OSM   H11F18263   4.469   6.223   3.726 -0.0104  1.6797  0.6339
  162OSM   H11G18264   4.557   6.375   3.731  0.1422 -0.4470 -0.6691
  162OSM   C12F18265   4.560   6.288   3.916  0.3111  0.1651 -0.6707
  162OSM   H12F18266   4.467   6.344   3.938 -0.3340 -1.3864  0.7534
  162OSM   H12G18267   4.645   6.340   3.964  0.8203 -0.4991 -0.8284
  162OSM   C13F18268   4.531   6.158   3.993 -0.7209  0.1838  0.6042
  162OSM   H13F18269   4.498   6.178   4.097 -2.1616 -1.8832  0.5901
  162OSM   H13G18270   4.621   6.093   4.000 -2.0201 -2.4050 -3.2377
  162OSM   C14F18271   4.407   6.082   3.935 -0.1236 -0.0168 -0.6120
  162OSM   H14F18272   4.441   6.054   3.833  1.6078 -0.5868  0.0779
  162OSM   H14G18273   4.326   6.157   3.935 -1.1042 -1.0479 -0.2915
  162OSM   C15F18274   4.372   5.957   4.017  0.6241  0.4384  0.4266
  162OSM   H15F18275   4.323   5.994   4.109  1.3000  0.1740  0.9022
  162OSM   H15G18276   4.466   5.911   4.054  0.6288 -3.1141 -3.2977
  162OSM   C16F18277   4.281   5.864   3.932  0.2569  1.0821 -0.1090
  162OSM   H16F18278   4.329   5.848   3.834  1.5978  2.8154  0.2196
  162OSM   H16G18279   4.185   5.919   3.927  0.1769  0.8373 -1.8409
  162OSM   C17F18280   4.260   5.722   3.994 -0.1778 -0.6183  0.1806
  162OSM   H17F18281   4.361   5.679   4.007  0.3270 -0.5737 -2.9091
  162OSM   H17G18282   4.217   5.655   3.917 -0.7908 -0.8003  0.6686
  162OSM   C18F18283   4.175   5.728   4.127 -0.2187  0.0399 -0.2923
  162OSM   H18F18284   4.086   5.793   4.110  0.1023  0.4481 -0.4317
  162OSM   H18G18285   4.234   5.782   4.204 -1.6413  0.5515  0.4846
  162OSM   H18H18286   4.134   5.631   4.161 -1.8082 -0.2638 -2.7989
  163OSM      N18287   2.267   6.031   1.893 -0.4729 -1.3180 -0.7145
  163OSM    C1518288   2.199   6.162   1.858  0.4208 -0.3024  0.3528
  163OSM   H15A18289   2.272   6.240   1.872  0.3236 -0.6950  3.8403
  163OSM   H15B18290   2.112   6.186   1.918 -0.0473 -2.3406  0.5653
  163OSM   H15C18291   2.169   6.163   1.754  0.7189 -1.8875  0.2367
  163OSM    C1418292   2.269   6.029   2.041 -0.0199 -0.4994  0.0456
  163OSM   H14A18293   2.336   6.109   2.069 -0.7549  0.3940 -0.6914
  163OSM   H14B18294   2.310   5.944   2.093  1.9696  1.3698  1.7359
  163OSM   H14C18295   2.169   6.043   2.078  0.2273  0.3601  0.4090
  163OSM    C1318296   2.183   5.922   1.845 -0.0712 -0.0741 -0.1339
  163OSM   H13A18297   2.204   5.905   1.740 -0.4366  0.3180 -0.2738
  163OSM   H13B18298   2.078   5.939   1.865  0.5320  0.3048  3.3061
  163OSM   H13C18299   2.203   5.823   1.885 -0.4489  0.1862  0.7145
  163OSM    C1218300   2.405   6.025   1.837 -0.5415  0.0356 -0.1552
  163OSM   H12A18301   2.408   6.026   1.729  0.5175 -0.4009 -0.1389
  163OSM   H12B18302   2.446   5.930   1.868  2.1052  0.6062 -1.6770
  163OSM    C1118303   2.507   6.130   1.888  0.8447 -0.0265 -0.6419
  163OSM   H11A18304   2.454   6.226   1.871  0.5898 -0.4733 -2.5328
  163OSM   H11B18305   2.589   6.134   1.813 -0.6583  2.7636 -2.2711
  163OSM      P18306   2.647   6.020   2.081  0.0759  0.0659 -0.2941
  163OSM    O1318307   2.604   5.886   2.114  0.2977 -0.4347 -0.4049
  163OSM    O1418308   2.755   6.023   1.985 -0.3088  0.3555  0.1002
  163OSM    O1118309   2.690   6.111   2.204  0.6505 -0.6747 -0.6212
  163OSM    O1218310   2.533   6.112   2.026 -0.3971 -0.3188 -0.0635
  163OSM    C1S18311   2.598   6.208   2.247  0.2903 -0.1521  0.9342
  163OSM    H1S18312   2.498   6.169   2.278  0.2548  0.3297  1.4436
  163OSM    H1T18313   2.580   6.284   2.169  0.1820  0.1321  1.2331
  163OSM     NF18314   2.537   6.352   2.436 -0.3999  0.3645  0.2541
  163OSM    HNF18315   2.527   6.444   2.398  1.9913  1.0733  1.1248
  163OSM    C2S18316   2.645   6.278   2.373 -0.7260 -0.2497 -0.3154
  163OSM    H2S18317   2.677   6.205   2.450 -0.7294  1.3691  1.2905
  163OSM    C3S18318   2.775   6.362   2.340  0.1197 -0.3290 -0.1415
  163OSM    H3S18319   2.752   6.453   2.280 -0.7917 -0.3155  0.2174
  163OSM     O318320   2.873   6.289   2.269  0.1054 -0.0973 -0.1648
  163OSM    HO318321   2.833   6.204   2.251  0.7097 -1.0573  2.5453
  163OSM    C4S18322   2.840   6.416   2.471 -0.3084  0.8377  0.0475
  163OSM    H4S18323   2.868   6.329   2.533 -1.5866 -0.6620 -1.3865
  163OSM    C5S18324   2.845   6.543   2.516 -0.1133  0.6263 -0.5557
  163OSM    H5S18325   2.803   6.626   2.458  0.3241  0.3604 -1.2735
  163OSM    C6S18326   2.883   6.578   2.658 -0.0808  0.1222  0.4878
  163OSM    H6S18327   2.821   6.661   2.699 -0.4390  0.9616 -1.6066
  163OSM    H6T18328   2.988   6.613   2.660  0.5349 -1.6880  1.1077
  163OSM    C7S18329   2.867   6.450   2.758 -0.1384 -0.1794  0.4446
  163OSM    H7S18330   2.946   6.374   2.745 -0.5840 -0.7694  1.0708
  163OSM    H7T18331   2.771   6.402   2.729  0.0024 -1.4296  1.9190
  163OSM    C8S18332   2.869   6.490   2.907 -0.4475 -0.1990 -1.0177
  163OSM    H8S18333   2.797   6.572   2.929 -0.2579 -0.4165  0.5136
  163OSM    H8T18334   2.969   6.531   2.929 -1.4494  2.4062 -0.9536
  163OSM    C9S18335   2.847   6.369   2.998 -0.0067 -0.0731  0.2985
  163OSM    H9S18336   2.919   6.292   2.960  0.7374  0.9159 -0.3497
  163OSM    H9T18337   2.745   6.328   2.985  0.3200 -0.4210 -1.4536
  163OSM   C10S18338   2.856   6.399   3.148  0.2475  1.3372  0.6375
  163OSM   H10S18339   2.787   6.485   3.163 -1.4324  0.7575 -2.7219
  163OSM   H10T18340   2.954   6.447   3.171 -0.0335  2.8680 -1.1206
  163OSM   C11S18341   2.822   6.273   3.234 -0.6668 -0.5218  0.0147
  163OSM   H11S18342   2.874   6.190   3.181 -0.4117 -0.8601  0.7740
  163OSM   H11T18343   2.715   6.246   3.235 -0.4248 -1.5275  0.1345
  163OSM   C12S18344   2.864   6.292   3.382  0.2285  0.0516  0.1362
  163OSM   H12S18345   2.805   6.217   3.439  0.6026  1.0620  1.9405
  163OSM   H12T18346   2.827   6.391   3.414  1.2343  0.2317  0.7989
  163OSM   C13S18347   3.009   6.278   3.415  0.3222  0.4560 -0.2082
  163OSM   H13S18348   3.005   6.266   3.526 -0.4110 -1.3936 -0.4090
  163OSM   H13T18349   3.073   6.366   3.393 -1.0611  1.0950 -1.9411
  163OSM   C14S18350   3.073   6.150   3.344  0.3148 -0.0157 -0.2181
  163OSM   H14S18351   3.091   6.173   3.237  0.2533 -0.1477 -0.2572
  163OSM   H14T18352   2.999   6.067   3.345 -0.4454  0.5635  3.2040
  163OSM   C15S18353   3.194   6.088   3.422 -0.0227  0.6714  0.1503
  163OSM   H15S18354   3.209   5.987   3.379 -0.6479 -0.3082  2.1187
  163OSM   H15T18355   3.168   6.075   3.529 -3.6020 -0.1044 -0.6873
  163OSM   C16S18356   3.318   6.183   3.409  0.1724 -0.3417  0.0795
  163OSM   H16S18357   3.293   6.285   3.446  0.6960  0.2683 -1.1925
  163OSM   H16T18358   3.343   6.191   3.301 -0.5123 -0.6866 -0.1073
  163OSM   C17S18359   3.444   6.143   3.485 -0.2207 -0.5890 -0.0672
  163OSM   H17S18360   3.475   6.039   3.459 -0.5947 -0.1835 -2.2490
  163OSM   H17T18361   3.423   6.135   3.594  1.5884 -2.2387  0.2229
  163OSM   C18S18362   3.561   6.244   3.459 -0.0563  0.1951  0.0258
  163OSM   H18S18363   3.634   6.227   3.541  0.2045 -0.6012 -0.3603
  163OSM   H18T18364   3.532   6.350   3.479 -2.2236 -0.3585  0.1092
  163OSM   H18U18365   3.594   6.239   3.354 -0.6120  1.3276 -0.2185
  163OSM    C1F18366   2.430   6.289   2.495 -0.0961 -0.5426 -0.2248
  163OSM     OF18367   2.429   6.170   2.526 -0.0214 -0.2579 -0.1946
  163OSM    C2F18368   2.309   6.378   2.521 -0.3359  0.2617  0.7325
  163OSM    H2F18369   2.255   6.401   2.427 -0.3266 -1.7866  0.1648
  163OSM    H2G18370   2.344   6.472   2.567  0.2796 -0.3503  1.5517
  163OSM    C3F18371   2.219   6.304   2.620 -0.4312 -0.5636 -0.0409
  163OSM    H3F18372   2.281   6.277   2.709 -1.6766 -3.2664  0.1006
  163OSM    H3G18373   2.172   6.213   2.578 -3.0141 -0.0048  1.3884
  163OSM    C4F18374   2.103   6.389   2.683 -0.1870  0.1018  0.6809
  163OSM    H4F18375   2.045   6.436   2.601 -1.3917 -0.9068  0.9334
  163OSM    H4G18376   2.143   6.471   2.747 -0.2652 -0.3218  1.2789
  163OSM    C5F18377   2.009   6.317   2.772 -0.1708 -0.6283  0.7283
  163OSM    H5F18378   1.981   6.226   2.715  1.2908 -0.6986  0.0606
  163OSM    H5G18379   1.929   6.390   2.793  0.9483  0.7408  0.3644
  163OSM    C6F18380   2.085   6.266   2.897 -0.2280  0.2916  0.9958
  163OSM    H6F18381   2.129   6.351   2.953 -1.8354  2.4510 -0.8047
  163OSM    H6G18382   2.164   6.198   2.859 -1.0860  0.0990 -0.5713
  163OSM    C7F18383   1.983   6.198   2.993 -0.3913  0.2413  0.3030
  163OSM    H7F18384   2.050   6.140   3.060 -0.6550  0.0109  0.3686
  163OSM    H7G18385   1.915   6.126   2.944 -1.4114  1.5587 -0.2762
  163OSM    C8F18386   1.908   6.299   3.071  0.2495 -0.4983 -0.1270
  163OSM    H8F18387   1.845   6.357   3.000 -1.1040 -0.8192  0.7893
  163OSM    H8G18388   1.973   6.371   3.126 -0.0738  0.8171 -1.4016
  163OSM    C9F18389   1.803   6.233   3.159 -0.5872 -0.6398  0.2918
  163OSM    H9F18390   1.713   6.193   3.110  0.6085 -1.7836 -1.0633
  163OSM   C10F18391   1.812   6.217   3.294 -1.1697 -0.5520  0.3558
  163OSM   H10F18392   1.729   6.168   3.345 -1.2614  0.1198  0.8604
  163OSM   C11F18393   1.922   6.254   3.389  0.0716  0.1075  0.6256
  163OSM   H11F18394   1.890   6.352   3.431 -2.4683 -0.7431  0.8418
  163OSM   H11G18395   2.012   6.271   3.326  0.6959 -1.3240  1.0949
  163OSM   C12F18396   1.950   6.139   3.483 -0.1451 -0.4877  0.1104
  163OSM   H12F18397   1.978   6.047   3.427  2.3211  0.3456 -0.1547
  163OSM   H12G18398   1.854   6.112   3.532  1.0904 -4.8042  0.4961
  163OSM   C13F18399   2.068   6.173   3.569 -0.3176  0.0459  0.0024
  163OSM   H13F18400   2.048   6.276   3.607 -0.4363  0.4523 -1.1251
  163OSM   H13G18401   2.158   6.168   3.504 -0.2703 -1.8048  0.1625
  163OSM   C14F18402   2.062   6.072   3.683 -0.2593 -0.3800  0.0097
  163OSM   H14F18403   2.079   5.968   3.650 -1.2359 -0.4335 -0.3463
  163OSM   H14G18404   1.962   6.076   3.730 -0.6278  1.6236 -0.8162
  163OSM   C15F18405   2.184   6.099   3.766 -0.2715  0.0526 -0.2320
  163OSM   H15F18406   2.186   6.199   3.814 -1.2331 -0.4729  0.9724
  163OSM   H15G18407   2.273   6.095   3.700 -0.7278 -2.5046 -0.7924
  163OSM   C16F18408   2.186   6.003   3.881 -0.0784 -0.2347  0.4889
  163OSM   H16F18409   2.159   5.902   3.843 -2.7656 -0.2013  2.0577
  163OSM   H16G18410   2.102   6.042   3.943  1.1714  1.8138  0.9886
  163OSM   C17F18411   2.314   5.992   3.954  0.7346  0.3350 -0.3272
  163OSM   H17F18412   2.331   6.077   4.023 -4.1652  2.2811 -1.0590
  163OSM   H17G18413   2.398   5.992   3.881  2.5786 -0.0969  1.7127
  163OSM   C18F18414   2.322   5.873   4.045 -0.4425  0.5995 -0.3499
  163OSM   H18F18415   2.429   5.871   4.074  0.1572  0.4091 -2.3985
  163OSM   H18G18416   2.299   5.776   3.995  1.6902 -1.5044  2.3829
  163OSM   H18H18417   2.262   5.880   4.138 -0.5727 -1.4430 -0.2353
  164OSM      N18418   4.278   6.386   2.442  0.6611 -0.3476 -0.2019
  164OSM    C1518419   4.193   6.464   2.343  0.3262  0.6337 -0.3723
  164OSM   H15A18420   4.088   6.463   2.369  0.1903 -1.1994 -0.8466
  164OSM   H15B18421   4.196   6.403   2.254 -4.0471  1.1771 -1.1040
  164OSM   H15C18422   4.242   6.559   2.327  0.1959  0.7792  0.0929
  164OSM    C1418423   4.249   6.448   2.580  0.2378 -0.3463  0.2985
  164OSM   H14A18424   4.288   6.548   2.580 -2.1516  0.6495  0.1668
  164OSM   H14B18425   4.306   6.393   2.654  1.8902  0.9848  0.0904
  164OSM   H14C18426   4.146   6.451   2.611  0.4600 -0.7302  1.1131
  164OSM    C1318427   4.244   6.238   2.440 -0.2007  0.2920 -0.2250
  164OSM   H13A18428   4.278   6.183   2.527 -0.9095 -0.9674 -0.7132
  164OSM   H13B18429   4.283   6.191   2.352  2.4496 -0.5567  1.2827
  164OSM   H13C18430   4.137   6.225   2.431  0.0405 -1.0348 -1.4691
  164OSM    C1218431   4.419   6.405   2.394 -0.5199 -0.1136  0.6659
  164OSM   H12A18432   4.419   6.389   2.288  1.2090 -0.9883  0.7651
  164OSM   H12B18433   4.484   6.329   2.435 -1.2954 -1.9726 -1.3643
  164OSM    C1118434   4.487   6.540   2.423 -0.1034 -0.0793  0.8428
  164OSM   H11A18435   4.594   6.544   2.395 -0.2283  0.9326  0.4514
  164OSM   H11B18436   4.498   6.547   2.533  1.8726  2.2736  0.5633
  164OSM      P18437   4.461   6.742   2.249  0.2095 -0.2200 -0.3205
  164OSM    O1318438   4.531   6.662   2.150 -0.2322 -0.1824  0.5120
  164OSM    O1418439   4.344   6.809   2.190  0.3056 -0.4235  0.3147
  164OSM    O1118440   4.555   6.856   2.312 -0.2756  0.2557 -0.6393
  164OSM    O1218441   4.413   6.662   2.378 -0.9437 -0.2538 -0.1085
  164OSM    C1S18442   4.482   6.963   2.376  0.2517 -0.1372  0.4190
  164OSM    H1S18443   4.378   6.940   2.405  0.2622 -0.7119  0.0097
  164OSM    H1T18444   4.483   7.049   2.306 -2.1704 -0.7649 -0.4802
  164OSM     NF18445   4.466   7.096   2.573 -0.4231  0.9084  0.0375
  164OSM    HNF18446   4.488   7.193   2.564 -0.1290  0.7066 -1.8149
  164OSM    C2S18447   4.554   7.005   2.506 -0.1457  0.0531  0.9840
  164OSM    H2S18448   4.583   6.922   2.574 -0.4293  0.4557  1.6114
  164OSM    C3S18449   4.697   7.059   2.471  0.1311  0.0612 -0.3320
  164OSM    H3S18450   4.684   7.142   2.398  1.0964 -0.1220 -0.7246
  164OSM     O318451   4.791   6.971   2.415  0.5051  0.5313  0.6618
  164OSM    HO318452   4.737   6.903   2.374  2.1585 -1.8085  2.0752
  164OSM    C4S18453   4.765   7.126   2.599 -0.9223 -0.2134  0.1628
  164OSM    H4S18454   4.767   7.236   2.602 -0.1615 -0.2526  1.6998
  164OSM    C5S18455   4.860   7.065   2.680  0.6627 -0.2763  0.2014
  164OSM    H5S18456   4.875   6.956   2.675  0.1893 -0.4783  2.2170
  164OSM    C6S18457   4.942   7.132   2.788 -0.1213 -0.0577  0.7378
  164OSM    H6S18458   4.933   7.242   2.801 -0.6496  0.0829 -0.7049
  164OSM    H6T18459   5.050   7.108   2.775 -0.0138 -0.6164  2.3457
  164OSM    C7S18460   4.911   7.066   2.924 -0.1848 -0.1169  0.7042
  164OSM    H7S18461   4.948   6.961   2.920  1.8391  0.5544 -3.0009
  164OSM    H7T18462   4.800   7.064   2.933 -0.3446 -1.1292 -0.9942
  164OSM    C8S18463   4.978   7.142   3.037 -0.7435 -0.3878 -0.2527
  164OSM    H8S18464   4.956   7.250   3.025 -1.0110 -0.4096  0.0201
  164OSM    H8T18465   5.089   7.132   3.037 -0.6959  0.1267 -0.1192
  164OSM    C9S18466   4.912   7.100   3.170  0.5857  0.2444 -0.0977
  164OSM    H9S18467   4.911   6.991   3.192 -1.0091  0.4173  0.8334
  164OSM    H9T18468   4.805   7.129   3.166  0.8567  1.2313 -0.5574
  164OSM   C10S18469   4.992   7.163   3.278  0.2454 -0.5487  0.6840
  164OSM   H10S18470   4.996   7.271   3.253 -0.3303 -0.8281 -0.6762
  164OSM   H10T18471   5.094   7.120   3.263  1.4410  2.9854 -2.9815
  164OSM   C11S18472   4.924   7.135   3.412  0.2046  0.0593  0.3881
  164OSM   H11S18473   4.890   7.029   3.410 -2.5633  0.8675 -0.6004
  164OSM   H11T18474   4.831   7.195   3.419  0.5709  0.4015  3.4478
  164OSM   C12S18475   5.012   7.152   3.531 -0.5513 -0.2464  0.3770
  164OSM   H12S18476   5.072   7.245   3.524  1.7824 -1.6114  0.9678
  164OSM   H12T18477   5.087   7.070   3.526 -1.3729 -0.9862 -0.1212
  164OSM   C13S18478   4.943   7.134   3.671  0.4934  0.1068  0.4510
  164OSM   H13S18479   4.874   7.047   3.676 -2.3900  2.2119 -0.0917
  164OSM   H13T18480   4.884   7.227   3.685  0.5946  0.1567  0.5509
  164OSM   C14S18481   5.049   7.124   3.781  0.3109 -0.2544  0.0314
  164OSM   H14S18482   5.116   7.212   3.770 -2.4159  1.9966  0.3737
  164OSM   H14T18483   5.109   7.031   3.785  0.3788 -0.2187 -0.1191
  164OSM   C15S18484   4.986   7.142   3.927  0.4898  0.1488 -0.2985
  164OSM   H15S18485   4.947   7.242   3.956 -0.2331 -0.1964 -0.0562
  164OSM   H15T18486   5.078   7.145   3.989  0.1005  1.4517  0.2591
  164OSM   C16S18487   4.893   7.028   3.982  0.0451 -0.2811  0.9827
  164OSM   H16S18488   4.958   6.940   4.002  0.9196  0.5931  2.1451
  164OSM   H16T18489   4.812   6.999   3.911  1.5207  1.4918 -1.5757
  164OSM   C17S18490   4.818   7.067   4.112 -0.4540  0.3150  0.3078
  164OSM   H17S18491   4.896   7.079   4.190 -0.1514  1.0168 -0.0940
  164OSM   H17T18492   4.751   6.980   4.132  0.9514 -0.9816 -0.4437
  164OSM   C18S18493   4.740   7.193   4.110  0.5090 -0.5490 -0.7438
  164OSM   H18S18494   4.670   7.188   4.024 -0.1580  2.2971 -0.4741
  164OSM   H18T18495   4.797   7.287   4.090 -1.1865  0.0206 -3.4638
  164OSM   H18U18496   4.685   7.194   4.207  0.3950 -3.0672 -0.7201
  164OSM    C1F18497   4.355   7.060   2.633 -0.4714 -0.1436 -0.3206
  164OSM     OF18498   4.328   6.941   2.669  0.9956 -0.5509 -1.0048
  164OSM    C2F18499   4.257   7.170   2.657  1.1442 -0.2676 -0.4211
  164OSM    H2F18500   4.172   7.158   2.586  0.9229  0.5108 -0.3042
  164OSM    H2G18501   4.300   7.269   2.630  0.7128  0.3095  0.9427
  164OSM    C3F18502   4.204   7.171   2.806  0.1761 -0.0303 -0.0486
  164OSM    H3F18503   4.294   7.187   2.870  1.8100 -3.1400 -1.3905
  164OSM    H3G18504   4.166   7.069   2.822 -0.3795  0.1134 -0.4375
  164OSM    C4F18505   4.086   7.262   2.848  0.1387 -0.5077 -0.0493
  164OSM    H4F18506   3.993   7.203   2.836 -0.8452  1.0357 -0.2208
  164OSM    H4G18507   4.080   7.345   2.775  3.3151  0.8348  1.0083
  164OSM    C5F18508   4.107   7.333   2.980 -0.3829  0.6935 -0.0394
  164OSM    H5F18509   4.016   7.391   3.008 -1.3719 -1.0740  0.6291
  164OSM    H5G18510   4.189   7.407   2.967 -0.8439  0.7834 -3.1119
  164OSM    C6F18511   4.136   7.239   3.098  0.0462 -0.3407 -0.1867
  164OSM    H6F18512   4.239   7.197   3.093  0.0756 -0.2653 -0.2239
  164OSM    H6G18513   4.072   7.148   3.097 -0.5770  0.0911  0.0889
  164OSM    C7F18514   4.115   7.309   3.234 -0.0718 -0.7684  0.6983
  164OSM    H7F18515   4.013   7.350   3.249  0.0572 -0.0506 -0.3117
  164OSM    H7G18516   4.184   7.395   3.225  0.9361 -1.6978 -0.9869
  164OSM    C8F18517   4.151   7.223   3.361  0.6322  0.0316 -0.9441
  164OSM    H8F18518   4.190   7.297   3.435 -0.2572 -1.2152  0.8275
  164OSM    H8G18519   4.228   7.148   3.334  0.0629 -0.5341 -1.0019
  164OSM    C9F18520   4.028   7.148   3.416  0.5195 -1.0768 -0.3213
  164OSM    H9F18521   3.967   7.099   3.339 -0.0895 -0.8703  0.0243
  164OSM   C10F18522   3.971   7.154   3.537  0.2554 -0.5564 -0.2104
  164OSM   H10F18523   3.882   7.094   3.561 -1.0962  1.6787  0.6143
  164OSM   C11F18524   4.027   7.229   3.653  0.1718  0.2018 -0.9113
  164OSM   H11F18525   4.078   7.320   3.615  1.1495  0.9855  2.0442
  164OSM   H11G18526   4.109   7.168   3.695  0.2148  0.0000 -1.2795
  164OSM   C12F18527   3.936   7.257   3.773  0.3508  0.7167 -0.3357
  164OSM   H12F18528   3.905   7.158   3.812  0.0648  0.4680 -1.1564
  164OSM   H12G18529   3.853   7.317   3.731  0.4877 -0.1610 -1.9462
  164OSM   C13F18530   4.011   7.345   3.876 -0.1977 -0.8312 -0.2515
  164OSM   H13F18531   4.046   7.435   3.821  1.9168 -2.2021 -1.2979
  164OSM   H13G18532   4.101   7.293   3.915 -2.4847 -3.7151  1.6280
  164OSM   C14F18533   3.935   7.381   4.005  0.0636  0.0178  0.4446
  164OSM   H14F18534   3.831   7.417   3.990  0.9501  2.3495 -0.6748
  164OSM   H14G18535   3.991   7.467   4.048  0.3214 -0.3483  0.8504
  164OSM   C15F18536   3.929   7.262   4.098 -0.3421  0.8563  0.3927
  164OSM   H15F18537   4.029   7.215   4.106 -0.0796  0.8632 -1.9762
  164OSM   H15G18538   3.858   7.186   4.060  1.1301 -0.9536  1.1154
  164OSM   C16F18539   3.907   7.306   4.246 -0.3912  0.9982  0.5726
  164OSM   H16F18540   3.822   7.377   4.242 -0.9513  0.3713  1.0410
  164OSM   H16G18541   3.996   7.345   4.300 -0.5170  0.9153  0.8444
  164OSM   C17F18542   3.856   7.185   4.333 -0.4339  0.1490  0.3013
  164OSM   H17F18543   3.937   7.112   4.356  1.4679  1.9151 -0.5834
  164OSM   H17G18544   3.788   7.126   4.268  1.4536 -0.3271 -1.3315
  164OSM   C18F18545   3.791   7.220   4.465  0.1329  0.3818  0.6157
  164OSM   H18F18546   3.776   7.119   4.508  0.6769 -0.6662 -1.5074
  164OSM   H18G18547   3.696   7.273   4.442 -0.4850 -1.6606 -2.0463
  164OSM   H18H18548   3.845   7.271   4.548 -2.9615  1.3131  2.2039
  165SAPS     N18549   4.218   6.678   6.650 -0.6773 -0.4150 -0.4439
  165SAPS   HN118550   4.158   6.595   6.636 -0.9068 -0.5900  1.3602
  165SAPS   HN218551   4.161   6.761   6.623 -0.0382  0.5317  0.9786
  165SAPS   HN318552   4.308   6.662   6.599 -0.0195  1.7929 -0.1206
  165SAPS   C1218553   4.267   6.704   6.789  0.4759  1.2370  1.0818
  165SAPS  H12A18554   4.182   6.725   6.852  0.8136  1.4715  1.4577
  165SAPS   C1318555   4.337   6.585   6.858 -0.6289  0.1222  0.5329
  165SAPS  O13A18556   4.320   6.468   6.812 -0.2176  0.2065  0.4633
  165SAPS  O13B18557   4.369   6.602   6.972 -0.3146 -0.3660 -0.2305
  165SAPS   C1118558   4.364   6.822   6.779 -0.3869  0.0861  0.2272
  165SAPS  H11A18559   4.453   6.785   6.724 -1.5078  0.5656 -1.9973
  165SAPS  H11B18560   4.393   6.846   6.884 -0.6134  2.0966 -0.1308
  165SAPS     P18561   4.400   7.071   6.725  0.0329 -0.3739  0.1520
  165SAPS   O1318562   4.301   7.180   6.727  0.3790  0.3619 -0.4794
  165SAPS   O1418563   4.500   7.061   6.832  0.5995 -0.2853 -0.5036
  165SAPS   O1218564   4.310   6.943   6.717 -0.5033 -0.0690  0.8349
  165SAPS   O1118565   4.466   7.077   6.583 -0.1502 -1.1187 -0.0483
  165SAPS    C118566   4.447   6.980   6.473  1.2634  0.2136 -0.2820
  165SAPS    HA18567   4.543   6.940   6.433 -0.1027 -2.5502 -1.0172
  165SAPS    HB18568   4.396   6.890   6.511  1.8051 -0.6855 -1.6069
  165SAPS    C218569   4.356   7.030   6.358 -0.1680  0.0296 -0.2780
  165SAPS    HS18570   4.254   7.059   6.391  0.9187  2.8317  0.9579
  165SAPS   O2118571   4.356   6.928   6.255 -0.4613 -0.0752 -0.4176
  165SAPS   C2118572   4.276   6.829   6.273 -0.1292  0.4138  0.1971
  165SAPS   O2218573   4.189   6.830   6.357 -0.0695 -0.0519 -0.7013
  165SAPS   C2218574   4.273   6.727   6.146  0.0585  0.7475  0.2593
  165SAPS   H2R18575   4.202   6.643   6.164  1.2624 -0.2042  0.6752
  165SAPS   H2S18576   4.230   6.777   6.057  0.1343 -1.1673 -0.9080
  165SAPS    C318577   4.407   7.159   6.295 -0.3204  0.4149  0.0613
  165SAPS    HX18578   4.500   7.134   6.239 -1.1490 -0.2632 -1.0474
  165SAPS    HY18579   4.421   7.225   6.383  0.7402  2.1552 -1.3443
  165SAPS   O3118580   4.308   7.212   6.206  0.2125  0.6091 -0.1816
  165SAPS   C3118581   4.341   7.331   6.152 -0.1089 -0.3141  0.3428
  165SAPS   O3218582   4.443   7.395   6.174  0.1215  0.2730 -0.6742
  165SAPS   C3218583   4.221   7.376   6.063  0.0837  0.2449  0.1567
  165SAPS   H2X18584   4.150   7.385   6.148  0.9435 -2.0072  1.2158
  165SAPS   H2Y18585   4.187   7.290   6.001  1.4028 -1.0671  1.1595
  165SAPS   C2318586   4.411   6.668   6.105  0.2663 -0.1901  0.4162
  165SAPS   H3R18587   4.442   6.606   6.192 -0.9956  0.0767  1.0843
  165SAPS   H3S18588   4.480   6.750   6.075 -0.3128 -0.0966 -0.7250
  165SAPS   C2418589   4.402   6.576   5.984  0.1352 -0.0921  0.1259
  165SAPS   H4R18590   4.381   6.643   5.898  2.5279  0.2440 -0.2627
  165SAPS   H4S18591   4.322   6.505   6.014  1.2854 -1.4875 -0.0212
  165SAPS   C2518592   4.528   6.500   5.954  0.4489 -0.0804  0.1552
  165SAPS   H5R18593   4.557   6.448   6.047  0.4351  0.2544  0.3469
  165SAPS   C2618594   4.588   6.488   5.835 -0.1615  0.2936  0.1966
  165SAPS   H6R18595   4.676   6.422   5.828 -0.2045  0.2323  0.2397
  165SAPS   C2718596   4.560   6.551   5.706  0.6786 -0.1950 -0.0794
  165SAPS   H7R18597   4.457   6.513   5.688  1.0030 -0.5260 -1.3168
  165SAPS   H7S18598   4.632   6.503   5.637  0.3134 -0.9083  0.0197
  165SAPS   C2818599   4.574   6.699   5.685 -0.0340  0.3373 -0.7536
  165SAPS   H8R18600   4.618   6.761   5.764  3.5479 -0.1127 -2.2283
  165SAPS   C2918601   4.539   6.761   5.572  0.2980 -0.5561 -0.1908
  165SAPS   H9R18602   4.564   6.868   5.573 -2.9124  0.3258 -0.8482
  165SAPS  C21018603   4.499   6.703   5.439 -0.4250 -0.2145 -0.1716
  165SAPS  H10R18604   4.444   6.784   5.387 -0.3829  0.9633  1.5547
  165SAPS  H10S18605   4.429   6.619   5.458  0.3153 -0.7018  0.4803
  165SAPS  C21118606   4.612   6.641   5.362  0.9285  0.0941 -0.5665
  165SAPS  H11R18607   4.677   6.567   5.412  0.6741  0.4487  0.2987
  165SAPS  C21218608   4.635   6.659   5.234 -0.6630  0.7371  0.2568
  165SAPS  H12R18609   4.712   6.599   5.185 -1.5374  0.1851 -0.4636
  165SAPS  C21318610   4.557   6.750   5.141 -0.2512 -0.2514  0.3693
  165SAPS  H13R18611   4.568   6.848   5.193  0.6904 -0.7110  1.0916
  165SAPS  H13S18612   4.449   6.728   5.146 -0.6552  1.5791  0.3975
  165SAPS  C21418613   4.609   6.770   5.002 -0.3292 -0.0516  0.0464
  165SAPS  H14R18614   4.716   6.753   4.978 -0.5342 -0.4836 -0.6063
  165SAPS  C21518615   4.538   6.817   4.895  0.2269  0.8389  0.1917
  165SAPS  H15R18616   4.587   6.844   4.800 -0.7298  0.5110 -0.4009
  165SAPS  C21618617   4.394   6.848   4.886  0.2275 -0.4219 -0.3649
  165SAPS  H16R18618   4.334   6.782   4.952 -2.7811  1.4484 -1.0572
  165SAPS  H16S18619   4.361   6.831   4.782 -1.9029 -0.1209  0.2134
  165SAPS  C21718620   4.379   6.999   4.911  0.2400 -0.5549  0.0920
  165SAPS  H17R18621   4.460   7.057   4.862  1.6592 -0.8262  1.9845
  165SAPS  H17S18622   4.378   7.025   5.019  0.9827 -1.3103  0.2896
  165SAPS  C21818623   4.241   7.042   4.858  0.1712 -0.6687 -0.3092
  165SAPS  H18R18624   4.164   6.991   4.920 -1.3099  1.3562 -0.3763
  165SAPS  H18S18625   4.222   7.014   4.752 -0.5180 -0.6577 -0.1977
  165SAPS  C21918626   4.207   7.183   4.890  0.1329 -0.1906  0.2233
  165SAPS  H19R18627   4.262   7.238   4.812 -0.6250  0.1211 -0.1026
  165SAPS  H19S18628   4.230   7.202   4.997  1.0981  0.7066 -0.1262
  165SAPS  C22018629   4.062   7.231   4.874 -0.0564 -0.5957 -0.0333
  165SAPS  H20R18630   4.074   7.337   4.843 -0.3428 -0.3797  0.5679
  165SAPS  H20S18631   4.000   7.237   4.966 -1.0337  0.0647 -0.7146
  165SAPS  H20T18632   4.000   7.176   4.800  0.2966  0.2109 -0.9490
  165SAPS   C3318633   4.256   7.511   5.989  0.3141  0.4787 -0.6439
  165SAPS   H3X18634   4.300   7.575   6.068  1.3945  0.1399 -0.9539
  165SAPS   H3Y18635   4.162   7.563   5.961  0.3486  1.6042  1.1713
  165SAPS   C3418636   4.359   7.492   5.876  0.3715 -0.3451 -0.5141
  165SAPS   H4X18637   4.308   7.433   5.797 -0.0545  1.2319 -1.4571
  165SAPS   H4Y18638   4.448   7.429   5.895  1.2315  1.0503  0.2654
  165SAPS   C3518639   4.396   7.631   5.816 -0.4272  0.4846  0.4715
  165SAPS   H5X18640   4.507   7.635   5.816 -0.3180 -1.5601  0.9369
  165SAPS   H5Y18641   4.359   7.718   5.875  1.0921  0.4221  1.5918
  165SAPS   C3618642   4.355   7.649   5.670 -0.5956  0.6795  0.2925
  165SAPS   H6X18643   4.245   7.630   5.672 -0.8717  2.1764  1.6229
  165SAPS   H6Y18644   4.414   7.578   5.609 -1.5210  1.1535 -1.1966
  165SAPS   C3718645   4.379   7.789   5.623 -0.1289 -0.1858  0.2668
  165SAPS   H7X18646   4.483   7.822   5.640 -0.6817  0.9855  1.6285
  165SAPS   H7Y18647   4.325   7.866   5.682 -2.1907 -0.9834 -0.4699
  165SAPS   C3818648   4.328   7.811   5.481 -0.4084  0.2953 -0.0732
  165SAPS   H8X18649   4.307   7.919   5.471  1.7204  0.7369 -0.2290
  165SAPS   H8Y18650   4.227   7.768   5.459 -0.3789 -0.1495  0.6244
  165SAPS   C3918651   4.416   7.777   5.361  0.4588 -0.7665 -0.5115
  165SAPS   H9X18652   4.458   7.675   5.378  3.6082  0.7965  2.0563
  165SAPS   H9Y18653   4.504   7.845   5.354 -0.6593  0.8962  0.7230
  165SAPS  C31018654   4.368   7.790   5.221  0.7105  0.2798 -0.0538
  165SAPS  H10X18655   4.453   7.768   5.154  1.4069  0.3072  0.8084
  165SAPS  H10Y18656   4.335   7.895   5.203 -3.3485 -1.0576 -1.4573
  165SAPS  C31118657   4.247   7.702   5.181 -0.8568 -0.3202  0.3589
  165SAPS  H11X18658   4.167   7.717   5.256 -0.9365 -2.2804  0.6965
  165SAPS  H11Y18659   4.287   7.599   5.194  0.8679  0.2619  0.0408
  165SAPS  C31218660   4.212   7.715   5.035  1.3380  0.5375  0.2669
  165SAPS  H12X18661   4.167   7.816   5.019 -0.2715 -0.4363 -1.7915
  165SAPS  H12Y18662   4.131   7.640   5.026  1.2395  0.7110 -0.3350
  165SAPS  C31318663   4.317   7.672   4.938 -0.5823 -0.4242  0.3753
  165SAPS  H13X18664   4.369   7.575   4.953  0.6921  0.1608 -0.0689
  165SAPS  H13Y18665   4.404   7.742   4.934 -0.4365 -0.6509 -0.8804
  165SAPS  C31418666   4.249   7.675   4.798 -0.0559 -0.0654  0.3937
  165SAPS  H14X18667   4.226   7.783   4.783  1.8762  0.5014  1.1517
  165SAPS  H14Y18668   4.153   7.622   4.816 -0.6369  0.0522 -2.0978
  165SAPS  C31518669   4.332   7.603   4.694 -0.3114 -0.1891  0.4339
  165SAPS  H15X18670   4.273   7.595   4.601 -0.6174  0.1342  0.5968
  165SAPS  H15Y18671   4.362   7.503   4.733 -1.4648 -1.3708 -1.5512
  165SAPS  C31618672   4.454   7.675   4.649  0.4333 -0.0905 -0.2746
  165SAPS  H16X18673   4.428   7.783   4.658 -3.2361 -0.9319  0.7760
  165SAPS  H16Y18674   4.468   7.654   4.541  0.5095 -1.0758 -0.0818
  165SAPS  C31718675   4.590   7.648   4.719  0.5279  0.1274  0.0782
  165SAPS  H17X18676   4.617   7.542   4.705  1.5217  0.0275  2.3298
  165SAPS  H17Y18677   4.574   7.657   4.829 -0.0687 -0.4834  0.0477
  165SAPS  C31818678   4.711   7.739   4.688  0.5810  0.0525 -0.6845
  165SAPS  H18X18679   4.693   7.783   4.587  1.2997 -1.4541 -1.4983
  165SAPS  H18Y18680   4.803   7.679   4.678 -0.5839 -2.0258  0.3201
  165SAPS  H18Z18681   4.722   7.818   4.765 -3.3556  2.4990 -2.2822
  166SAPS     N18682   3.735   0.361   7.255 -0.5046  0.2559  0.0610
  166SAPS   HN118683   3.707   0.423   7.333  0.2388  0.3091  0.2965
  166SAPS   HN218684   3.722   0.262   7.284  0.0979  0.5844  1.5208
  166SAPS   HN318685   3.837   0.365   7.235 -0.5633 -0.0858 -0.3248
  166SAPS   C1218686   3.654   0.395   7.135 -0.1590  0.0118 -0.7633
  166SAPS  H12A18687   3.663   0.321   7.057 -1.0686 -0.3316 -0.5583
  166SAPS   C1318688   3.502   0.395   7.180 -0.6585 -0.5485 -0.1454
  166SAPS  O13A18689   3.460   0.382   7.302 -0.4776 -0.7718  0.6709
  166SAPS  O13B18690   3.413   0.411   7.091 -0.6505 -0.2192 -0.1355
  166SAPS   C1118691   3.698   0.535   7.078 -0.0437 -0.4121  0.0509
  166SAPS  H11A18692   3.710   0.598   7.169 -1.8547  0.2090 -0.1028
  166SAPS  H11B18693   3.615   0.579   7.019 -0.5097  0.4136  1.2948
  166SAPS     P18694   3.805   0.524   6.839 -0.1201 -0.2155 -0.0780
  166SAPS   O1318695   3.759   0.652   6.781  0.5093 -0.0186  0.3395
  166SAPS   O1418696   3.924   0.456   6.784  0.1387 -0.5412  0.4413
  166SAPS   O1218697   3.820   0.524   7.005  0.1622 -0.2489 -0.4020
  166SAPS   O1118698   3.688   0.418   6.823 -0.0043 -0.2107  0.0852
  166SAPS    C118699   3.581   0.433   6.726  0.8929 -0.3308  0.4197
  166SAPS    HA18700   3.487   0.388   6.767  1.6609 -0.7975  1.7246
  166SAPS    HB18701   3.562   0.535   6.688 -0.3540 -0.6600  0.0909
  166SAPS    C218702   3.615   0.351   6.594  0.1859 -0.3034 -0.1097
  166SAPS    HS18703   3.620   0.243   6.620  0.0040 -0.3940 -0.4457
  166SAPS   O2118704   3.732   0.406   6.535 -0.4808  0.1589 -0.1067
  166SAPS   C2118705   3.809   0.310   6.482 -0.0361 -0.9571  0.7475
  166SAPS   O2218706   3.785   0.189   6.471 -0.1260  0.2368 -0.4003
  166SAPS   C2218707   3.942   0.372   6.440 -0.0696  0.0755  0.2371
  166SAPS   H2R18708   3.932   0.472   6.393 -1.6857  0.0108  0.4007
  166SAPS   H2S18709   4.003   0.398   6.529 -1.1262 -1.1609  1.3759
  166SAPS    C318710   3.495   0.360   6.494 -0.3160  0.0792  0.3111
  166SAPS    HX18711   3.477   0.461   6.452 -3.1548 -0.7249 -0.6719
  166SAPS    HY18712   3.398   0.337   6.543 -0.2680 -0.9243 -0.0340
  166SAPS   O3118713   3.520   0.283   6.378  0.0623 -0.1683 -0.2264
  166SAPS   C3118714   3.430   0.191   6.347 -0.0147  0.1072  0.1380
  166SAPS   O3218715   3.332   0.163   6.412  0.4882  0.3529  0.0897
  166SAPS   C3218716   3.483   0.120   6.222 -0.6799  0.0678  0.3214
  166SAPS   H2X18717   3.581   0.081   6.255  0.7689  3.9022  0.9740
  166SAPS   H2Y18718   3.497   0.186   6.134  0.2941  0.7908  1.0056
  166SAPS   C2318719   4.022   0.274   6.350 -0.1718 -0.0840  0.5406
  166SAPS   H3R18720   4.035   0.181   6.409 -2.8077 -1.8101 -1.3450
  166SAPS   H3S18721   4.124   0.318   6.345 -0.9600  1.9149  1.0431
  166SAPS   C2418722   3.964   0.248   6.211 -0.8420 -0.3148 -0.4260
  166SAPS   H4R18723   3.970   0.345   6.158  1.0687  0.2513  0.7605
  166SAPS   H4S18724   3.854   0.229   6.214 -1.0517  0.7806 -0.8380
  166SAPS   C2518725   4.034   0.147   6.127 -0.3703 -0.4262 -0.0672
  166SAPS   H5R18726   4.139   0.176   6.108 -0.7878  1.5043  0.3904
  166SAPS   C2618727   3.973   0.044   6.068 -0.1379 -0.3948  0.1453
  166SAPS   H6R18728   4.030  -0.025   6.004  2.2362  0.8678  0.8100
  166SAPS   C2718729   3.825   0.003   6.089 -0.3637 -0.3459  0.2111
  166SAPS   H7R18730   3.786  -0.047   5.997 -0.4986 -0.0844  0.1247
  166SAPS   H7S18731   3.753   0.088   6.085 -0.8023 -0.7419 -1.8236
  166SAPS   C2818732   3.808  -0.091   6.207  0.2371  0.2512 -0.6005
  166SAPS   H8R18733   3.779  -0.043   6.302  0.3863 -0.3812 -0.2276
  166SAPS   C2918734   3.816  -0.224   6.205  0.5374 -0.0264  0.5015
  166SAPS   H9R18735   3.774  -0.283   6.287  1.9667  0.2008  1.4387
  166SAPS  C21018736   3.855  -0.312   6.081 -0.0495  0.3092  0.3646
  166SAPS  H10R18737   3.890  -0.413   6.114 -2.1003 -0.9205 -0.9702
  166SAPS  H10S18738   3.943  -0.266   6.031  0.1042 -0.9221 -0.5405
  166SAPS  C21118739   3.728  -0.336   6.001 -0.6157  0.0318 -0.0078
  166SAPS  H11R18740   3.637  -0.375   6.049 -0.9497 -0.7663 -1.2393
  166SAPS  C21218741   3.715  -0.319   5.868  0.0571  0.2119 -0.2248
  166SAPS  H12R18742   3.619  -0.342   5.820 -0.2765  0.6236  0.2326
  166SAPS  C21318743   3.835  -0.273   5.784  0.6077  0.2093  0.1821
  166SAPS  H13R18744   3.925  -0.337   5.793  0.9556  0.6525 -0.1514
  166SAPS  H13S18745   3.871  -0.172   5.811  1.4120 -0.1763  0.5770
  166SAPS  C21418746   3.809  -0.270   5.637  0.0383  0.0659 -0.6747
  166SAPS  H14R18747   3.712  -0.310   5.604 -0.5913 -0.8678  2.0856
  166SAPS  C21518748   3.905  -0.242   5.548  0.1291 -0.2236 -0.0191
  166SAPS  H15R18749   3.888  -0.260   5.441 -1.3157 -2.7304  0.5633
  166SAPS  C21618750   4.037  -0.171   5.581 -0.6050  1.3055  0.5834
  166SAPS  H16R18751   4.071  -0.184   5.686  2.0953  0.1167 -0.3515
  166SAPS  H16S18752   4.021  -0.063   5.560 -1.1725  0.9769 -0.7767
  166SAPS  C21718753   4.159  -0.204   5.485  0.3310  0.1457 -0.0048
  166SAPS  H17R18754   4.175  -0.314   5.487  1.8028  0.3509  1.3241
  166SAPS  H17S18755   4.249  -0.153   5.525  0.1409  0.8175 -0.4334
  166SAPS  C21818756   4.148  -0.170   5.338  0.1690 -0.3406 -0.8918
  166SAPS  H18R18757   4.083  -0.235   5.276  0.8676  0.7400 -2.8462
  166SAPS  H18S18758   4.244  -0.184   5.284 -0.5568  0.0418 -2.3499
  166SAPS  C21918759   4.107  -0.023   5.307 -0.2838  0.1545 -0.1225
  166SAPS  H19R18760   4.202   0.031   5.327  0.8139 -1.4118 -0.8951
  166SAPS  H19S18761   4.021   0.032   5.352 -0.8917  0.8241 -1.9692
  166SAPS  C22018762   4.102  -0.002   5.160  0.3826 -0.3463  0.4133
  166SAPS  H20R18763   4.011  -0.053   5.122  0.3442  0.3409 -0.4341
  166SAPS  H20S18764   4.185  -0.051   5.104  1.3203  0.7849  0.7748
  166SAPS  H20T18765   4.096   0.104   5.130  0.6905  0.2736  2.3867
  166SAPS   C3318766   3.378   0.009   6.181 -0.0156 -0.7786 -0.3437
  166SAPS   H3X18767   3.296   0.071   6.138 -1.1308 -0.9247  1.4778
  166SAPS   H3Y18768   3.334  -0.049   6.265 -2.9456  2.0222  0.2819
  166SAPS   C3418769   3.439  -0.085   6.071 -0.0620  0.1387 -0.5556
  166SAPS   H4X18770   3.499  -0.162   6.125  1.7211  2.0374  0.2897
  166SAPS   H4Y18771   3.511  -0.030   6.008 -0.6513  1.9247  0.2772
  166SAPS   C3518772   3.323  -0.123   5.980 -0.3797  0.0214  0.2440
  166SAPS   H5X18773   3.266  -0.029   5.966 -1.9861  0.1452  5.6820
  166SAPS   H5Y18774   3.255  -0.190   6.036 -1.5008  1.7411  1.0363
  166SAPS   C3618775   3.369  -0.170   5.837 -0.2582 -0.1426 -0.1698
  166SAPS   H6X18776   3.440  -0.256   5.840 -2.1243 -1.7589 -0.3639
  166SAPS   H6Y18777   3.422  -0.082   5.795 -1.8016  0.4896 -0.8486
  166SAPS   C3718778   3.252  -0.206   5.745 -0.6311  0.5254 -0.4076
  166SAPS   H7X18779   3.172  -0.132   5.769  0.1341  0.8928  1.1236
  166SAPS   H7Y18780   3.210  -0.305   5.773  1.7538 -0.3982  0.0919
  166SAPS   C3818781   3.280  -0.213   5.599 -0.8184 -0.3570  0.2763
  166SAPS   H8X18782   3.330  -0.125   5.553 -0.0878 -1.4274 -1.0696
  166SAPS   H8Y18783   3.181  -0.204   5.549 -1.4646  1.2059  1.7513
  166SAPS   C3918784   3.350  -0.340   5.550 -0.4435  0.6088  0.2158
  166SAPS   H9X18785   3.342  -0.430   5.613  1.0262  0.5152  0.2967
  166SAPS   H9Y18786   3.458  -0.317   5.537  0.1755 -3.2776 -3.9891
  166SAPS  C31018787   3.291  -0.374   5.411  0.3679 -0.7737  0.7084
  166SAPS  H10X18788   3.184  -0.397   5.428  0.6135 -0.3515  3.2623
  166SAPS  H10Y18789   3.337  -0.464   5.365 -1.7037 -0.9907 -1.0795
  166SAPS  C31118790   3.310  -0.262   5.308 -0.2789  0.3546 -0.3886
  166SAPS  H11X18791   3.410  -0.214   5.312  0.2217 -0.7043  0.3570
  166SAPS  H11Y18792   3.236  -0.182   5.332 -1.6867 -0.6498 -1.2805
  166SAPS  C31218793   3.283  -0.308   5.165 -0.0061  0.7145 -0.0313
  166SAPS  H12X18794   3.187  -0.363   5.175  2.2558 -4.0110 -1.2959
  166SAPS  H12Y18795   3.372  -0.372   5.143  0.4924  1.8758 -1.5442
  166SAPS  C31318796   3.269  -0.202   5.056 -0.3577 -0.0698  0.2951
  166SAPS  H13X18797   3.358  -0.142   5.028 -0.6056 -0.1932 -0.8194
  166SAPS  H13Y18798   3.188  -0.134   5.090 -1.3212 -0.6899 -0.6723
  166SAPS  C31418799   3.206  -0.260   4.924 -0.4311 -0.0871  0.3129
  166SAPS  H14X18800   3.099  -0.237   4.904 -0.0791 -0.1672 -1.8390
  166SAPS  H14Y18801   3.212  -0.369   4.942  2.0611  0.3278  2.7878
  166SAPS  C31518802   3.286  -0.205   4.801 -0.2374 -0.5635  0.3600
  166SAPS  H15X18803   3.270  -0.272   4.713  0.7278  1.0127 -1.0742
  166SAPS  H15Y18804   3.393  -0.205   4.832 -0.5871 -1.4368  1.6423
  166SAPS  C31618805   3.255  -0.047   4.779  0.2178  0.1290  0.0469
  166SAPS  H16X18806   3.295   0.015   4.862 -3.6498  3.2416 -0.1217
  166SAPS  H16Y18807   3.147  -0.024   4.780 -0.3901 -2.2976 -1.3894
  166SAPS  C31718808   3.317   0.016   4.648  0.1637  0.3815  0.0291
  166SAPS  H17X18809   3.297   0.124   4.632 -3.3381 -0.3284 -1.0887
  166SAPS  H17Y18810   3.264  -0.040   4.568 -0.8502 -0.7398  1.4539
  166SAPS  C31818811   3.471  -0.009   4.629  0.0124  0.7138 -0.1948
  166SAPS  H18X18812   3.507   0.065   4.553  2.5512  1.6275  1.7565
  166SAPS  H18Y18813   3.497  -0.111   4.593  1.3355  1.1808 -0.6204
  166SAPS  H18Z18814   3.530   0.008   4.722  0.9565  2.6812 -1.0824
  167SAPS     N18815   4.564   2.782   6.657 -1.0134 -0.7834  0.6366
  167SAPS   HN118816   4.634   2.718   6.614  1.9652  3.0939 -0.8310
  167SAPS   HN218817   4.475   2.774   6.604 -0.4261  0.7817 -0.6553
  167SAPS   HN318818   4.609   2.875   6.654  0.3369 -1.3965 -2.8574
  167SAPS   C1218819   4.548   2.743   6.796  0.3319 -0.0407 -0.0002
  167SAPS  H12A18820   4.650   2.750   6.832  1.2752 -1.2746 -2.2081
  167SAPS   C1318821   4.433   2.831   6.854  0.2080 -0.1958  0.4673
  167SAPS  O13A18822   4.395   2.932   6.791  0.1371 -0.0838 -0.1875
  167SAPS  O13B18823   4.380   2.804   6.969 -0.3837  0.2741  0.1267
  167SAPS   C1118824   4.502   2.593   6.805 -0.6541  0.6326  0.4350
  167SAPS  H11A18825   4.400   2.604   6.762  0.3089 -0.5305 -2.3616
  167SAPS  H11B18826   4.492   2.565   6.912 -1.1647  2.1450  0.8083
  167SAPS     P18827   4.608   2.356   6.764  0.3039  0.3763 -0.1126
  167SAPS   O1318828   4.688   2.354   6.887  0.1759  0.1187 -0.4679
  167SAPS   O1418829   4.476   2.287   6.775 -0.2971  0.4807  0.8480
  167SAPS   O1218830   4.587   2.508   6.723 -0.1361  0.1502  1.3755
  167SAPS   O1118831   4.690   2.277   6.657  0.6483  0.2323  0.7272
  167SAPS    C118832   4.806   2.316   6.576  0.3083  0.3121  0.1330
  167SAPS    HA18833   4.810   2.422   6.543 -1.2837  0.6036  0.8256
  167SAPS    HB18834   4.888   2.294   6.648 -1.0382 -1.4998  1.1853
  167SAPS    C218835   4.817   2.230   6.443 -0.7888 -1.2306  0.2785
  167SAPS    HS18836   4.899   2.266   6.378 -1.4958 -1.6694 -0.8850
  167SAPS   O2118837   4.700   2.235   6.368 -0.4358 -0.1689 -0.3429
  167SAPS   C2118838   4.674   2.353   6.312  0.0636  0.8507  0.6062
  167SAPS   O2218839   4.749   2.453   6.319 -0.4631 -0.0088 -0.2933
  167SAPS   C2218840   4.542   2.340   6.227  0.0047  0.4586  0.0768
  167SAPS   H2R18841   4.572   2.275   6.142 -1.2712 -0.5504  0.3575
  167SAPS   H2S18842   4.476   2.275   6.289 -3.0433  1.8626 -1.4649
  167SAPS    C318843   4.856   2.087   6.497  0.2118  0.0583 -0.3245
  167SAPS    HX18844   4.778   2.058   6.569 -2.0944 -0.5558 -2.9139
  167SAPS    HY18845   4.952   2.099   6.552  1.6959 -2.1112 -2.2236
  167SAPS   O3118846   4.865   1.989   6.397 -0.4294  0.3590 -0.0712
  167SAPS   C3118847   4.979   1.979   6.326  0.6493 -0.5087 -0.5552
  167SAPS   O3218848   5.074   2.055   6.334  0.1808  0.3758  0.7301
  167SAPS   C3218849   4.976   1.856   6.235  0.2828  0.1744 -0.2475
  167SAPS   H2X18850   4.912   1.781   6.286  1.5270 -0.6271  0.1637
  167SAPS   H2Y18851   5.077   1.815   6.219 -0.3619 -0.5121 -3.1688
  167SAPS   C2318852   4.458   2.461   6.198  0.0386  0.6191 -0.3218
  167SAPS   H3R18853   4.521   2.541   6.152 -1.0333  0.2819 -2.4806
  167SAPS   H3S18854   4.414   2.498   6.293 -1.8245 -1.1697 -0.4402
  167SAPS   C2418855   4.333   2.429   6.116 -0.0870  0.4481 -0.2460
  167SAPS   H4R18856   4.275   2.524   6.114 -1.2199 -0.2198 -0.2098
  167SAPS   H4S18857   4.271   2.359   6.176  0.5007 -2.1494 -2.4469
  167SAPS   C2518858   4.350   2.387   5.972  0.1852  0.0723  0.4806
  167SAPS   H5R18859   4.397   2.461   5.906  0.2529 -0.4925 -0.1228
  167SAPS   C2618860   4.326   2.258   5.923  0.1425 -0.7076 -0.8690
  167SAPS   H6R18861   4.348   2.241   5.817  1.4303 -1.3060 -0.5185
  167SAPS   C2718862   4.263   2.152   6.003 -0.0796 -0.0095  0.0001
  167SAPS   H7R18863   4.171   2.123   5.948  0.3978 -0.6605 -0.4754
  167SAPS   H7S18864   4.230   2.172   6.107 -1.2243 -2.3066  0.1379
  167SAPS   C2818865   4.362   2.033   6.006  0.6906 -0.6969 -0.3284
  167SAPS   H8R18866   4.409   2.007   6.102 -0.5820 -0.2773  0.4286
  167SAPS   C2918867   4.372   1.954   5.903  0.1740  0.2158 -0.1607
  167SAPS   H9R18868   4.446   1.875   5.922  0.2205 -0.0396 -1.2906
  167SAPS  C21018869   4.310   1.959   5.765 -0.0372  0.1311 -0.0438
  167SAPS  H10R18870   4.396   1.963   5.695  0.1948 -0.2106  0.2099
  167SAPS  H10S18871   4.243   2.045   5.745  0.0722  0.5686  1.3693
  167SAPS  C21118872   4.222   1.835   5.754 -0.0913 -0.3707 -0.6581
  167SAPS  H11R18873   4.159   1.816   5.842  0.2253 -1.6476 -0.6987
  167SAPS  C21218874   4.215   1.742   5.655  0.7866 -0.0430  0.3017
  167SAPS  H12R18875   4.136   1.666   5.663 -0.3777  1.1176  0.1208
  167SAPS  C21318876   4.298   1.739   5.530 -1.0007 -0.2214  0.4994
  167SAPS  H13R18877   4.342   1.839   5.509  0.0907 -0.9892 -1.0809
  167SAPS  H13S18878   4.243   1.709   5.438  1.5992  0.8910 -1.5486
  167SAPS  C21418879   4.421   1.647   5.523 -0.6077  0.2278  1.2251
  167SAPS  H14R18880   4.493   1.668   5.603  0.1131 -0.3303  0.7416
  167SAPS  C21518881   4.449   1.542   5.445  0.6096  0.0363  0.4784
  167SAPS  H15R18882   4.543   1.486   5.459  0.6041  0.1028  0.7824
  167SAPS  C21618883   4.365   1.492   5.332  0.2459  0.0147 -0.4023
  167SAPS  H16R18884   4.257   1.519   5.338  0.2453  0.4464 -1.7837
  167SAPS  H16S18885   4.366   1.381   5.331 -0.0971  0.0139 -0.7493
  167SAPS  C21718886   4.423   1.532   5.199 -0.4838  0.0404  0.3421
  167SAPS  H17R18887   4.343   1.508   5.125 -3.3079  0.8745  2.9307
  167SAPS  H17S18888   4.503   1.460   5.174 -0.9742 -0.2011 -0.6198
  167SAPS  C21818889   4.468   1.673   5.184 -0.0953 -0.1635  0.3696
  167SAPS  H18R18890   4.554   1.683   5.253 -0.0021  1.0900  0.0924
  167SAPS  H18S18891   4.390   1.749   5.207 -1.2141 -1.0934 -0.1989
  167SAPS  C21918892   4.533   1.712   5.047  0.2792  0.4035 -0.4949
  167SAPS  H19R18893   4.469   1.656   4.975 -0.2837  0.4448 -0.0352
  167SAPS  H19S18894   4.631   1.670   5.016  0.2602 -1.6010  1.8619
  167SAPS  C22018895   4.530   1.870   5.029  0.2543  0.1364  0.1029
  167SAPS  H20R18896   4.610   1.922   5.086 -0.5378 -0.2648  1.6438
  167SAPS  H20S18897   4.429   1.911   5.052  0.3642  0.1319  0.6174
  167SAPS  H20T18898   4.560   1.896   4.926 -0.5992 -2.3853 -0.8669
  167SAPS   C3318899   4.925   1.910   6.099 -0.3423 -0.3963  0.1425
  167SAPS   H3X18900   4.997   1.990   6.074 -0.1693 -1.0228 -1.5335
  167SAPS   H3Y18901   4.822   1.946   6.119 -0.7247 -0.4511 -1.6038
  167SAPS   C3418902   4.930   1.809   5.981  0.2283 -0.0582 -0.1285
  167SAPS   H4X18903   4.967   1.713   6.023 -0.7505  0.0080  0.9595
  167SAPS   H4Y18904   4.999   1.848   5.904 -0.8483  2.3411  0.0164
  167SAPS   C3518905   4.793   1.771   5.913 -0.4031  1.0851 -0.6600
  167SAPS   H5X18906   4.775   1.846   5.832  0.9570  0.7731 -1.2846
  167SAPS   H5Y18907   4.715   1.765   5.992  0.8682  0.4709  0.5866
  167SAPS   C3618908   4.805   1.635   5.836  0.5412 -0.3839  0.3048
  167SAPS   H6X18909   4.704   1.626   5.790  0.1496  1.4997  0.7322
  167SAPS   H6Y18910   4.821   1.553   5.909  0.3998 -0.6206  0.0739
  167SAPS   C3718911   4.909   1.635   5.719  0.7328  0.3616  0.0479
  167SAPS   H7X18912   4.913   1.543   5.656  0.7495 -0.3928  1.1355
  167SAPS   H7Y18913   5.008   1.646   5.768  0.3742 -0.8567  1.0948
  167SAPS   C3818914   4.901   1.762   5.623  0.0243  0.4492 -0.4919
  167SAPS   H8X18915   4.928   1.853   5.682 -0.7132  2.8234 -3.5943
  167SAPS   H8Y18916   4.803   1.776   5.572 -0.3160 -2.4919 -0.8238
  167SAPS   C3918917   5.009   1.766   5.513  1.1405 -0.1675  0.4802
  167SAPS   H9X18918   4.969   1.697   5.436  0.0529  0.2529  0.6551
  167SAPS   H9Y18919   5.109   1.733   5.548  0.7039 -2.0923  0.0005
  167SAPS  C31018920   5.044   1.896   5.438  0.2929  0.0378 -0.1246
  167SAPS  H10X18921   5.065   1.972   5.516  2.4299  0.1171 -0.7295
  167SAPS  H10Y18922   4.954   1.930   5.383  1.3873  0.4320 -1.7318
  167SAPS  C31118923   5.165   1.879   5.334  0.5047 -0.3743  0.8732
  167SAPS  H11X18924   5.132   1.904   5.231 -1.7109 -0.6399  1.4786
  167SAPS  H11Y18925   5.191   1.771   5.329  2.2329  0.0713 -2.3569
  167SAPS  C31218926   5.292   1.959   5.381 -0.4243  0.3013  0.6022
  167SAPS  H12X18927   5.381   1.900   5.349 -1.8466 -0.1171 -3.0985
  167SAPS  H12Y18928   5.304   1.970   5.491  1.6633  3.1359  0.2142
  167SAPS  C31318929   5.302   2.101   5.320  0.5577 -0.3291  0.4109
  167SAPS  H13X18930   5.315   2.082   5.212  3.5588  0.6659  0.5031
  167SAPS  H13Y18931   5.395   2.156   5.343 -0.0858  1.2747 -0.6507
  167SAPS  C31418932   5.189   2.201   5.360  0.7756 -0.1320  0.3802
  167SAPS  H14X18933   5.173   2.205   5.470 -0.6504  2.0165  0.1429
  167SAPS  H14Y18934   5.097   2.156   5.318 -0.9029  2.3948  1.1010
  167SAPS  C31518935   5.222   2.347   5.314  0.4294 -0.0472  0.2137
  167SAPS  H15X18936   5.136   2.417   5.324 -0.8384 -1.6144  0.6630
  167SAPS  H15Y18937   5.254   2.339   5.208 -3.0908  0.2704 -0.9937
  167SAPS  C31618938   5.334   2.423   5.386 -0.3095 -0.4104  0.6079
  167SAPS  H16X18939   5.434   2.382   5.361 -0.5792 -0.2243 -0.8630
  167SAPS  H16Y18940   5.320   2.419   5.496 -1.4393  2.9963  0.7028
  167SAPS  C31718941   5.336   2.568   5.328 -0.3984  1.1550  0.5734
  167SAPS  H17X18942   5.420   2.613   5.385  0.5291  0.1595  0.0262
  167SAPS  H17Y18943   5.242   2.616   5.361 -0.1350  2.2155 -0.1572
  167SAPS  C31818944   5.370   2.586   5.188  0.1205  0.1224 -0.2703
  167SAPS  H18X18945   5.465   2.541   5.152  1.3787  1.1904  1.5556
  167SAPS  H18Y18946   5.376   2.695   5.166 -0.1420  0.2079  0.0690
  167SAPS  H18Z18947   5.286   2.553   5.122 -0.5663 -0.6493  0.9588
  168SAPS     N18948   1.968   6.345   6.995  0.2644 -0.4541  0.0110
  168SAPS   HN118949   1.959   6.441   6.958  1.5004 -0.7547 -1.1647
  168SAPS   HN218950   1.877   6.294   6.985  0.1068 -0.2169  0.2446
  168SAPS   HN318951   1.995   6.348   7.095 -1.2415 -1.1909  0.4648
  168SAPS   C1218952   2.054   6.270   6.903 -0.1496  0.4449  0.6390
  168SAPS  H12A18953   2.152   6.290   6.944 -0.8683  0.2312  2.5496
  168SAPS   C1318954   2.035   6.114   6.909  0.2184 -0.0649 -0.0878
  168SAPS  O13A18955   1.927   6.082   6.970 -0.0138  0.3912 -0.2655
  168SAPS  O13B18956   2.098   6.027   6.838 -0.0389  0.4463 -0.6869
  168SAPS   C1118957   2.029   6.322   6.762  0.0918 -0.3360 -0.5949
  168SAPS  H11A18958   1.922   6.302   6.742 -0.1741  0.6857 -0.2524
  168SAPS  H11B18959   2.101   6.280   6.689  0.4461  0.3324 -0.6358
  168SAPS     P18960   1.961   6.562   6.669  0.0129  0.4654 -0.5606
  168SAPS   O1318961   1.825   6.561   6.726 -0.4100  0.3413 -0.0048
  168SAPS   O1418962   2.031   6.691   6.656  0.1756 -0.4265 -0.4598
  168SAPS   O1218963   2.053   6.465   6.752 -0.3969  0.5060  0.3247
  168SAPS   O1118964   1.948   6.490   6.532 -0.5656 -0.1611  0.3058
  168SAPS    C118965   2.046   6.485   6.431 -0.1833 -0.1871 -0.4416
  168SAPS    HA18966   2.098   6.583   6.429  0.6761 -0.6471 -2.4048
  168SAPS    HB18967   2.118   6.410   6.470 -0.0286 -0.3881 -1.1032
  168SAPS    C218968   1.998   6.429   6.293  0.5591 -0.8950 -0.0488
  168SAPS    HS18969   2.078   6.389   6.227 -0.3369 -1.1813 -0.9955
  168SAPS   O2118970   1.924   6.538   6.226  0.6117  0.8000  0.0995
  168SAPS   C2118971   2.003   6.630   6.180 -0.6055 -0.3899  0.0066
  168SAPS   O2218972   2.127   6.632   6.182  0.6484  0.3180 -0.4018
  168SAPS   C2218973   1.922   6.741   6.127 -0.2486  0.5007  0.2359
  168SAPS   H2R18974   1.869   6.787   6.213 -1.2238 -1.2313  0.6207
  168SAPS   H2S18975   1.992   6.814   6.083  0.0446 -0.6254 -1.2433
  168SAPS    C318976   1.901   6.313   6.314 -1.3413  0.0597  0.2813
  168SAPS    HX18977   1.807   6.349   6.362 -1.4651  1.0604 -0.6742
  168SAPS    HY18978   1.948   6.237   6.379 -0.0344 -2.1406 -2.9644
  168SAPS   O3118979   1.868   6.252   6.187  0.3612 -0.0549  0.1038
  168SAPS   C3118980   1.958   6.157   6.146 -0.0096  0.2217  0.7100
  168SAPS   O3218981   2.052   6.115   6.208  0.3279 -0.2388 -0.4263
  168SAPS   C3218982   1.908   6.109   6.008  0.1346  0.7301  0.3165
  168SAPS   H2X18983   1.807   6.068   6.029  0.8621 -0.4225  1.7529
  168SAPS   H2Y18984   1.967   6.016   5.991 -1.8037 -0.6871  0.9667
  168SAPS   C2318985   1.811   6.698   6.023 -0.6955 -0.3192  0.3632
  168SAPS   H3R18986   1.732   6.776   6.025  0.1291  0.6135 -1.3523
  168SAPS   H3S18987   1.767   6.599   6.046  0.1651 -0.6962  0.4192
  168SAPS   C2418988   1.863   6.711   5.879 -0.3326  0.5239  0.1549
  168SAPS   H4R18989   1.776   6.697   5.811  1.1272  1.0657 -1.9393
  168SAPS   H4S18990   1.925   6.620   5.864  0.2463  1.1658 -1.6244
  168SAPS   C2518991   1.936   6.837   5.841  0.6290  0.1590 -0.7123
  168SAPS   H5R18992   1.886   6.934   5.859  0.8226 -0.1022  1.4116
  168SAPS   C2618993   2.060   6.849   5.804 -0.9458 -0.0625  0.5419
  168SAPS   H6R18994   2.099   6.948   5.777  0.2175 -0.4871  0.6253
  168SAPS   C2718995   2.146   6.726   5.770  0.8351 -0.8044  0.3161
  168SAPS   H7R18996   2.101   6.649   5.704  0.5350 -2.5972  2.4876
  168SAPS   H7S18997   2.164   6.671   5.865  0.1663 -0.6489  0.5396
  168SAPS   C2818998   2.278   6.767   5.714 -0.0014 -0.3354  0.3640
  168SAPS   H8R18999   2.353   6.792   5.791  0.6657  0.9333 -0.6468
  168SAPS   C2919000   2.320   6.782   5.588  0.3304 -0.1166  0.3475
  168SAPS   H9R19001   2.422   6.823   5.576  0.2768  0.4277  1.6457
  168SAPS  C21019002   2.236   6.760   5.464 -0.1057  0.0372  0.0787
  168SAPS  H10R19003   2.132   6.738   5.493  0.6206 -2.0889  1.3124
  168SAPS  H10S19004   2.281   6.677   5.404 -0.1752  1.1068 -1.5068
  168SAPS  C21119005   2.246   6.872   5.359 -1.0092  0.7892 -0.1150
  168SAPS  H11R19006   2.319   6.857   5.278  0.8480 -0.9072  1.7194
  168SAPS  C21219007   2.175   6.984   5.353 -0.2575 -0.0556 -0.2684
  168SAPS  H12R19008   2.207   7.048   5.269 -1.1811 -0.9831 -1.3800
  168SAPS  C21319009   2.070   7.033   5.453 -0.9408  0.1780 -0.7043
  168SAPS  H13R19010   2.086   7.141   5.474 -3.8478  0.9948 -2.1823
  168SAPS  H13S19011   2.087   6.979   5.548  0.9348 -1.1141 -1.7178
  168SAPS  C21419012   1.926   7.009   5.426 -0.0911 -0.2497 -0.2866
  168SAPS  H14R19013   1.900   6.907   5.459 -0.5826 -0.7752 -2.1776
  168SAPS  C21519014   1.825   7.080   5.377  0.3008 -0.1551 -0.4564
  168SAPS  H15R19015   1.727   7.033   5.393  0.9138 -0.8254  1.6572
  168SAPS  C21619016   1.835   7.223   5.334 -0.3760  0.1898  0.2030
  168SAPS  H16R19017   1.929   7.269   5.373  1.2039 -1.3239 -1.6129
  168SAPS  H16S19018   1.751   7.270   5.390  1.3890  0.3960  2.8898
  168SAPS  C21719019   1.819   7.249   5.184 -0.3516 -0.2578  1.0722
  168SAPS  H17R19020   1.907   7.204   5.134 -1.2997 -1.5733  0.5407
  168SAPS  H17S19021   1.827   7.357   5.159 -1.2821 -0.1570  1.1497
  168SAPS  C21819022   1.692   7.193   5.117 -1.0190 -0.3065  0.1092
  168SAPS  H18R19023   1.594   7.234   5.151 -0.9190 -0.2868  0.3732
  168SAPS  H18S19024   1.706   7.087   5.148 -1.4670 -0.8045 -1.2794
  168SAPS  C21919025   1.690   7.220   4.966  0.1894 -0.0501  0.1062
  168SAPS  H19R19026   1.791   7.203   4.923  1.0130  2.0017  1.1301
  168SAPS  H19S19027   1.679   7.330   4.952  0.0672  0.0758  1.1207
  168SAPS  C22019028   1.584   7.148   4.885  0.2195  0.2551  0.4807
  168SAPS  H20R19029   1.599   7.039   4.874 -1.2136  0.1999 -1.5558
  168SAPS  H20S19030   1.575   7.199   4.787  1.2457 -1.0213 -0.3021
  168SAPS  H20T19031   1.481   7.159   4.927 -0.5040 -1.7331 -0.6443
  168SAPS   C3319032   1.915   6.202   5.888 -0.1058  0.0816 -0.8858
  168SAPS   H3X19033   1.838   6.282   5.885  0.8646  0.9970 -1.6973
  168SAPS   H3Y19034   1.893   6.146   5.794  1.5681 -0.0074 -1.2613
  168SAPS   C3419035   2.044   6.280   5.875 -0.1191  0.2481  0.5953
  168SAPS   H4X19036   2.130   6.212   5.886  0.9883  1.4227 -0.4525
  168SAPS   H4Y19037   2.053   6.348   5.962 -0.3638  1.9115 -0.6119
  168SAPS   C3519038   2.053   6.367   5.752  0.3554  0.6355 -0.0792
  168SAPS   H5X19039   2.145   6.425   5.774  1.4765 -1.4438  1.1049
  168SAPS   H5Y19040   1.968   6.436   5.740  0.3831  0.8177  0.7061
  168SAPS   C3619041   2.062   6.287   5.621  0.5210 -0.3522 -0.1238
  168SAPS   H6X19042   1.981   6.213   5.604 -2.1125  1.8332  1.9423
  168SAPS   H6Y19043   2.154   6.225   5.628 -0.2485 -1.5321 -0.2553
  168SAPS   C3719044   2.080   6.378   5.500 -0.2605 -0.0643  0.3876
  168SAPS   H7X19045   2.166   6.448   5.512 -0.3900  0.0273  0.8114
  168SAPS   H7Y19046   1.984   6.434   5.489 -0.3159  0.1176  1.6294
  168SAPS   C3819047   2.107   6.292   5.374  0.8037 -0.7372 -0.5469
  168SAPS   H8X19048   2.055   6.194   5.388 -2.7413  1.2020  1.2427
  168SAPS   H8Y19049   2.216   6.270   5.375  0.2961 -3.7511 -0.5622
  168SAPS   C3919050   2.073   6.369   5.251  0.1176 -0.0535 -0.0008
  168SAPS   H9X19051   2.128   6.463   5.231 -0.1044 -0.4081 -2.6433
  168SAPS   H9Y19052   1.964   6.389   5.257  0.3736  1.4674 -0.2015
  168SAPS  C31019053   2.085   6.279   5.122  0.1630  0.8746 -0.1110
  168SAPS  H10X19054   2.054   6.173   5.137  0.0156  1.0567  0.9459
  168SAPS  H10Y19055   2.194   6.280   5.102 -0.1807 -0.9480 -2.5010
  168SAPS  C31119056   2.010   6.327   5.000  0.4930  0.1407 -0.3853
  168SAPS  H11X19057   2.044   6.429   4.973  3.0897 -0.2955  0.9574
  168SAPS  H11Y19058   1.904   6.340   5.030  0.4111 -0.0562 -0.5878
  168SAPS  C31219059   2.028   6.233   4.889 -0.2219  0.3261 -0.3060
  168SAPS  H12X19060   1.995   6.128   4.906 -0.4557 -0.1134 -3.0013
  168SAPS  H12Y19061   2.138   6.226   4.870 -0.5838  1.4889 -3.5280
  168SAPS  C31319062   1.968   6.273   4.758 -0.0664 -0.3964 -0.2626
  168SAPS  H13X19063   1.986   6.382   4.744  2.1738 -0.7019 -0.1501
  168SAPS  H13Y19064   1.859   6.262   4.773  0.0854 -0.1173  1.1937
  168SAPS  C31419065   2.007   6.188   4.634  0.5178  1.0221  0.7103
  168SAPS  H14X19066   1.979   6.083   4.657 -0.9592  0.7019 -2.1161
  168SAPS  H14Y19067   2.118   6.185   4.622  0.4192 -0.2070 -0.0782
  168SAPS  C31519068   1.931   6.242   4.506  0.1603 -0.0225  0.0573
  168SAPS  H15X19069   1.945   6.352   4.500 -0.4424  0.0154 -0.6766
  168SAPS  H15Y19070   1.821   6.232   4.511  0.0493  1.4343  1.0587
  168SAPS  C31619071   1.977   6.171   4.375 -0.0912 -0.0787 -0.7602
  168SAPS  H16X19072   2.087   6.161   4.376 -0.1995 -1.6247 -0.2660
  168SAPS  H16Y19073   1.944   6.228   4.286  0.9300  1.8814  0.0685
  168SAPS  C31719074   1.911   6.033   4.372  0.7466 -0.2402  0.0416
  168SAPS  H17X19075   1.800   6.030   4.381  0.8064 -3.7915  0.9027
  168SAPS  H17Y19076   1.958   5.983   4.460 -0.4775  0.4908  1.1422
  168SAPS  C31819077   1.945   5.971   4.238 -0.3966 -0.8190 -0.4476
  168SAPS  H18X19078   1.927   6.030   4.145 -0.6966 -0.1808  0.0044
  168SAPS  H18Y19079   1.895   5.872   4.232 -0.5095 -0.7899 -0.0562
  168SAPS  H18Z19080   2.051   5.941   4.251  0.0473  0.2978 -1.3636
  169SAPS     N19081   6.806   2.707   6.616 -0.1826 -0.1910  0.4749
  169SAPS   HN119082   6.748   2.709   6.530 -0.8824 -2.5630  0.8416
  169SAPS   HN219083   6.907   2.695   6.593 -0.0129 -1.0857  1.6198
  169SAPS   HN319084   6.777   2.635   6.684 -2.9762  1.1493  0.8495
  169SAPS   C1219085   6.793   2.845   6.677 -0.4615 -0.3666 -0.8075
  169SAPS  H12A19086   6.701   2.847   6.733 -0.2844 -3.1316 -0.2602
  169SAPS   C1319087   6.913   2.893   6.777  1.0600  0.1848 -0.4058
  169SAPS  O13A19088   7.016   2.819   6.795  0.1667  0.0442  0.7549
  169SAPS  O13B19089   6.895   3.001   6.840 -0.0607  0.1741 -0.7908
  169SAPS   C1119090   6.784   2.948   6.559  0.8925 -0.1979 -0.0204
  169SAPS  H11A19091   6.862   2.926   6.482 -0.3119 -0.9340 -1.0696
  169SAPS  H11B19092   6.784   3.052   6.598 -0.5219 -0.1594 -0.0798
  169SAPS     P19093   6.559   3.011   6.432  0.3480 -0.1361 -0.1624
  169SAPS   O1319094   6.422   2.956   6.444 -0.1844 -0.2437  0.6392
  169SAPS   O1419095   6.571   3.138   6.512 -0.2584 -0.2410 -0.0352
  169SAPS   O1219096   6.662   2.906   6.491  0.5297 -0.7746  0.1729
  169SAPS   O1119097   6.599   3.038   6.282 -0.3158 -0.0687  0.1742
  169SAPS    C119098   6.620   2.937   6.188 -0.3999  0.1994  0.1888
  169SAPS    HA19099   6.681   2.970   6.102 -0.5178 -0.3774 -0.1226
  169SAPS    HB19100   6.668   2.849   6.237 -2.2584 -0.4881  0.9072
  169SAPS    C219101   6.487   2.893   6.123  0.2105  1.2117 -0.2950
  169SAPS    HS19102   6.425   2.829   6.190  1.1709 -0.3079 -0.8150
  169SAPS   O2119103   6.508   2.814   6.003  0.2276 -0.5548 -0.5414
  169SAPS   C2119104   6.562   2.700   6.039 -0.6872  0.2029  0.2831
  169SAPS   O2219105   6.573   2.657   6.151  0.1086  0.1482  0.2121
  169SAPS   C2219106   6.588   2.616   5.914  0.4171 -0.0943  0.0186
  169SAPS   H2R19107   6.573   2.509   5.941 -1.8865  0.0462 -0.4649
  169SAPS   H2S19108   6.510   2.633   5.836 -0.3883 -0.0684  0.8083
  169SAPS    C319109   6.404   3.014   6.082  0.3092  0.1459  0.6481
  169SAPS    HX19110   6.473   3.080   6.026  1.9083 -2.5610 -0.7984
  169SAPS    HY19111   6.376   3.066   6.176  0.2850  1.1627  0.0916
  169SAPS   O3119112   6.285   2.974   6.002 -0.5946  0.0139  0.4983
  169SAPS   C3119113   6.235   3.082   5.934  0.8116 -0.6599 -0.2305
  169SAPS   O3219114   6.285   3.193   5.927  0.4336  0.5843  0.4321
  169SAPS   C3219115   6.100   3.036   5.872 -0.3497 -0.0135  0.0532
  169SAPS   H2X19116   6.020   3.035   5.949  0.5204 -0.9397  0.9845
  169SAPS   H2Y19117   6.113   2.929   5.845 -1.5690  0.7049 -4.1119
  169SAPS   C2319118   6.726   2.651   5.855  0.4285 -0.2254  0.0715
  169SAPS   H3R19119   6.752   2.576   5.777  1.9620  1.0258 -0.6673
  169SAPS   H3S19120   6.809   2.651   5.929 -1.3627  2.1370  2.2507
  169SAPS   C2419121   6.732   2.800   5.795 -0.5486 -0.1397  0.1771
  169SAPS   H4R19122   6.836   2.808   5.758 -1.2361  0.8752 -1.6841
  169SAPS   H4S19123   6.711   2.873   5.876  1.7717 -0.2599  0.9459
  169SAPS   C2519124   6.637   2.827   5.678 -0.0786 -0.4467 -0.1025
  169SAPS   H5R19125   6.551   2.894   5.695  0.5766  1.0658 -2.3902
  169SAPS   C2619126   6.665   2.784   5.552 -0.5891  0.6200  0.0950
  169SAPS   H6R19127   6.606   2.811   5.463 -0.1475  0.3306 -0.2901
  169SAPS   C2719128   6.790   2.707   5.504  1.1062  0.5537  0.0312
  169SAPS   H7R19129   6.751   2.633   5.431  1.6254 -0.7126  1.0167
  169SAPS   H7S19130   6.832   2.649   5.589  0.7210 -0.5094 -0.4921
  169SAPS   C2819131   6.893   2.786   5.441  0.3026 -0.2561  0.0636
  169SAPS   H8R19132   6.937   2.862   5.506 -1.3549  0.1228  0.7866
  169SAPS   C2919133   6.929   2.785   5.311  0.0787 -0.2630  0.2818
  169SAPS   H9R19134   7.004   2.858   5.279  0.7833 -1.1735 -0.1977
  169SAPS  C21019135   6.883   2.692   5.198  0.1448 -0.0114  0.0117
  169SAPS  H10R19136   6.837   2.598   5.237  1.0024 -0.2404  0.5177
  169SAPS  H10S19137   6.969   2.661   5.135  1.4641  0.3587  1.5664
  169SAPS  C21119138   6.772   2.749   5.109  0.4674 -0.1622  0.4491
  169SAPS  H11R19139   6.800   2.841   5.055  1.8387 -0.5198  0.5215
  169SAPS  C21219140   6.658   2.695   5.064 -0.8228 -0.0582  0.3697
  169SAPS  H12R19141   6.597   2.757   4.998 -1.6982  0.2827  1.4589
  169SAPS  C21319142   6.588   2.575   5.123  0.5659  0.1361 -0.0667
  169SAPS  H13R19143   6.568   2.577   5.232 -1.0267 -0.2280 -0.3230
  169SAPS  H13S19144   6.658   2.490   5.108  1.1104  0.3621  1.1058
  169SAPS  C21419145   6.457   2.551   5.048  0.7753  0.1527 -0.5124
  169SAPS  H14R19146   6.381   2.624   5.079  2.4867  1.9042 -0.2142
  169SAPS  C21519147   6.422   2.448   4.971  0.5867 -0.1334 -0.4517
  169SAPS  H15R19148   6.325   2.453   4.920  0.6701  4.1634 -0.5779
  169SAPS  C21619149   6.526   2.351   4.918  0.6398 -0.6482 -0.2355
  169SAPS  H16R19150   6.625   2.401   4.907 -0.3792  1.6748  0.5544
  169SAPS  H16S19151   6.496   2.326   4.814  0.0075  2.6502 -0.9540
  169SAPS  C21719152   6.551   2.232   5.005  0.7033  0.4868  0.0864
  169SAPS  H17R19153   6.469   2.157   5.017  0.5159  0.2083 -2.2965
  169SAPS  H17S19154   6.571   2.268   5.108  1.5281 -0.4610  0.2747
  169SAPS  C21819155   6.692   2.168   4.985 -0.7392  0.1086 -0.7220
  169SAPS  H18R19156   6.761   2.251   5.011 -0.2549 -0.0704 -1.3994
  169SAPS  H18S19157   6.714   2.127   4.884 -0.8467 -0.4560 -0.5234
  169SAPS  C21919158   6.698   2.039   5.072  0.3406 -0.3415 -0.1857
  169SAPS  H19R19159   6.609   1.973   5.056  0.8846 -1.5099  1.4214
  169SAPS  H19S19160   6.691   2.067   5.179  2.0890 -0.5624  0.0115
  169SAPS  C22019161   6.824   1.959   5.073  0.0000 -0.3356  1.2850
  169SAPS  H20R19162   6.912   2.026   5.084  0.9760 -1.5048  0.8094
  169SAPS  H20S19163   6.838   1.921   4.970  0.1634  0.9255  0.8327
  169SAPS  H20T19164   6.831   1.875   5.146  0.2936 -1.9945 -0.5604
  169SAPS   C3319165   6.059   3.121   5.761  0.0436 -0.7088 -0.1080
  169SAPS   H3X19166   6.141   3.124   5.686  0.4983  0.5113  0.4192
  169SAPS   H3Y19167   6.038   3.227   5.786 -1.0195 -0.3829 -2.2042
  169SAPS   C3419168   5.930   3.071   5.682 -0.1348  0.2027 -0.2375
  169SAPS   H4X19169   5.950   2.962   5.684  2.9465  0.6514  2.4481
  169SAPS   H4Y19170   5.940   3.098   5.574  0.4921 -1.5968 -0.6693
  169SAPS   C3519171   5.802   3.130   5.733 -0.2644  0.5362 -0.3247
  169SAPS   H5X19172   5.803   3.241   5.723  0.7978  0.6361  0.7531
  169SAPS   H5Y19173   5.807   3.106   5.841  0.1596  0.7761 -0.2887
  169SAPS   C3619174   5.667   3.075   5.672 -1.2113  0.4303 -0.2447
  169SAPS   H6X19175   5.581   3.121   5.727 -0.8921  0.3404  0.3317
  169SAPS   H6Y19176   5.653   2.967   5.692 -2.4726  0.4389 -0.9447
  169SAPS   C3719177   5.655   3.104   5.522 -0.2011 -0.3043  0.0217
  169SAPS   H7X19178   5.734   3.055   5.461  1.9324  1.5384  1.1761
  169SAPS   H7Y19179   5.661   3.214   5.507 -0.2491 -0.0726  1.5728
  169SAPS   C3819180   5.514   3.053   5.458 -0.6145  0.1838 -0.4235
  169SAPS   H8X19181   5.421   3.097   5.500 -0.6459 -1.9748  2.0341
  169SAPS   H8Y19182   5.514   2.946   5.489  0.3231 -0.5672 -2.8059
  169SAPS   C3919183   5.531   3.060   5.309  0.1448 -0.6133  0.3705
  169SAPS   H9X19184   5.632   3.019   5.287  0.8385  0.5459  1.2900
  169SAPS   H9Y19185   5.522   3.165   5.277 -1.0840 -1.5204 -2.6111
  169SAPS  C31019186   5.424   2.994   5.230 -0.1262  0.2800 -0.5608
  169SAPS  H10X19187   5.325   3.014   5.276  0.5571 -0.5530  1.4036
  169SAPS  H10Y19188   5.429   2.883   5.227  0.2327  0.3107 -2.5696
  169SAPS  C31119189   5.415   3.046   5.096 -0.1896 -0.0542 -0.4202
  169SAPS  H11X19190   5.514   3.057   5.047  1.0556 -0.0752  1.9597
  169SAPS  H11Y19191   5.383   3.152   5.105  0.7818  0.1206  1.4290
  169SAPS  C31219192   5.307   2.970   5.015 -0.7852 -0.1875 -0.1303
  169SAPS  H12X19193   5.219   2.959   5.083 -0.6321  0.8509  0.2642
  169SAPS  H12Y19194   5.343   2.866   4.997  1.8674  0.6102  0.1059
  169SAPS  C31319195   5.265   3.031   4.885  0.3297  0.1710 -0.1963
  169SAPS  H13X19196   5.224   3.133   4.901 -3.0566 -1.0217 -0.3587
  169SAPS  H13Y19197   5.176   2.975   4.848  1.2036 -0.6065 -1.1877
  169SAPS  C31419198   5.380   3.040   4.775 -0.7117 -0.1415 -0.0701
  169SAPS  H14X19199   5.399   2.936   4.743 -1.7032 -0.3877  0.1100
  169SAPS  H14Y19200   5.479   3.066   4.819 -0.4705  0.6477 -1.0355
  169SAPS  C31519201   5.346   3.144   4.665 -0.4128 -0.0597 -0.0519
  169SAPS  H15X19202   5.340   3.245   4.711  1.0225  0.9334 -1.8980
  169SAPS  H15Y19203   5.251   3.126   4.610 -1.7838  1.9061  1.5103
  169SAPS  C31619204   5.454   3.143   4.561  0.0368 -0.1995  0.3084
  169SAPS  H16X19205   5.463   3.042   4.515 -0.5021  0.4734 -1.3683
  169SAPS  H16Y19206   5.550   3.160   4.614  0.4511 -4.5935  1.3607
  169SAPS  C31719207   5.441   3.244   4.444 -0.4791 -0.1528  0.3174
  169SAPS  H17X19208   5.536   3.231   4.388  0.7534 -2.1489  2.6323
  169SAPS  H17Y19209   5.433   3.350   4.479 -0.6911  0.5039 -1.6195
  169SAPS  C31819210   5.312   3.213   4.361  0.2758  0.1057 -0.1125
  169SAPS  H18X19211   5.303   3.272   4.267  0.8131 -0.6647 -0.6630
  169SAPS  H18Y19212   5.226   3.241   4.427  1.8575  1.1756  1.5919
  169SAPS  H18Z19213   5.319   3.106   4.335  1.6502  0.1384  0.0698
  170SAPS     N19214   5.933   1.748   6.663 -0.7823  0.4664  0.0395
  170SAPS   HN119215   6.033   1.727   6.649 -0.6076  1.7440 -0.8271
  170SAPS   HN219216   5.878   1.660   6.652  0.2847 -0.1876 -0.1537
  170SAPS   HN319217   5.908   1.803   6.578 -0.8955  0.9124  0.3552
  170SAPS   C1219218   5.922   1.819   6.799 -0.4107 -0.2567 -1.3328
  170SAPS  H12A19219   5.941   1.744   6.874 -0.7668 -0.9694 -1.9393
  170SAPS   C1319220   6.018   1.935   6.828 -0.3296 -0.1417 -0.6764
  170SAPS  O13A19221   6.107   1.971   6.742  0.3705  0.2922 -0.1320
  170SAPS  O13B19222   6.012   1.991   6.943 -0.0752 -0.0630 -0.2539
  170SAPS   C1119223   5.780   1.861   6.824  0.2441 -0.1043 -0.5481
  170SAPS  H11A19224   5.780   1.894   6.930 -1.1732 -3.3057  0.5763
  170SAPS  H11B19225   5.719   1.770   6.808 -0.7466  0.4323  0.0919
  170SAPS     P19226   5.603   1.953   6.666  0.3535  0.1248  0.1918
  170SAPS   O1319227   5.592   1.870   6.545 -0.2352  0.4321 -0.8117
  170SAPS   O1419228   5.512   1.919   6.778 -0.0341  0.1770  0.1812
  170SAPS   O1219229   5.744   1.959   6.725 -0.0964 -0.1019  0.0342
  170SAPS   O1119230   5.589   2.100   6.630 -0.0189  0.5117 -0.0515
  170SAPS    C119231   5.647   2.155   6.515 -0.8778 -0.5429 -0.0348
  170SAPS    HA19232   5.686   2.254   6.545  0.4761 -0.9859 -0.2621
  170SAPS    HB19233   5.731   2.094   6.475  1.4600  0.3438  3.1431
  170SAPS    C219234   5.556   2.185   6.402  0.3117  0.2962 -0.0415
  170SAPS    HS19235   5.468   2.239   6.443 -1.7839 -3.1948  0.4182
  170SAPS   O2119236   5.514   2.077   6.318  0.3833 -0.2334  0.4374
  170SAPS   C2119237   5.406   2.022   6.361  0.9541  0.1830  0.2219
  170SAPS   O2219238   5.342   2.061   6.460 -0.2038  0.1439  0.2335
  170SAPS   C2219239   5.361   1.910   6.271 -0.3427  0.3663  0.0217
  170SAPS   H2R19240   5.438   1.830   6.273 -1.6805 -0.9429  0.5756
  170SAPS   H2S19241   5.269   1.869   6.317 -0.8866  1.7377  0.2323
  170SAPS    C319242   5.625   2.273   6.289  0.3314 -0.1516 -0.7171
  170SAPS    HX19243   5.542   2.295   6.217 -0.7467  0.5619  0.6904
  170SAPS    HY19244   5.708   2.213   6.247  2.2172  0.7406  1.5330
  170SAPS   O3119245   5.691   2.383   6.352 -0.1351 -0.2607  0.0269
  170SAPS   C3119246   5.754   2.451   6.250 -0.1763  0.0905  0.3714
  170SAPS   O3219247   5.747   2.420   6.131  0.4264  0.2069  0.1993
  170SAPS   C3219248   5.839   2.569   6.302  0.4145 -0.0851 -0.3905
  170SAPS   H2X19249   5.888   2.542   6.398 -0.0709  0.9983  0.1851
  170SAPS   H2Y19250   5.762   2.645   6.327 -1.5532 -1.5908 -1.5818
  170SAPS   C2319251   5.359   1.946   6.119  0.0642 -0.0138 -0.2978
  170SAPS   H3R19252   5.454   1.997   6.095  0.5608  0.2984  2.0499
  170SAPS   H3S19253   5.272   2.016   6.112  0.7828  0.9239 -0.0322
  170SAPS   C2419254   5.331   1.829   6.025 -0.5702 -0.9811  0.0278
  170SAPS   H4R19255   5.227   1.798   6.047 -1.1708  0.6184 -0.5097
  170SAPS   H4S19256   5.391   1.740   6.058 -2.2715 -2.5215 -0.8621
  170SAPS   C2519257   5.356   1.868   5.882  0.3585  0.3893 -0.0150
  170SAPS   H5R19258   5.321   1.972   5.866 -0.9890 -0.3178 -2.1069
  170SAPS   C2619259   5.390   1.789   5.780 -0.2105 -0.0461  0.5936
  170SAPS   H6R19260   5.411   1.841   5.686 -1.0745 -0.2617  0.2774
  170SAPS   C2719261   5.421   1.644   5.786 -1.0336 -0.0058 -0.2421
  170SAPS   H7R19262   5.474   1.619   5.880  1.2970 -0.3429 -1.5733
  170SAPS   H7S19263   5.489   1.616   5.704 -0.8409  1.0322 -0.4565
  170SAPS   C2819264   5.291   1.560   5.791 -0.2949 -0.4420  0.5449
  170SAPS   H8R19265   5.235   1.546   5.884  1.3838 -1.7605  1.3993
  170SAPS   C2919266   5.242   1.491   5.681 -0.2907  0.2418 -0.4893
  170SAPS   H9R19267   5.140   1.454   5.694 -0.9436  1.3268 -2.1727
  170SAPS  C21019268   5.304   1.476   5.541  0.5627 -0.2356 -0.3012
  170SAPS  H10R19269   5.389   1.545   5.528  1.5836 -1.6566 -1.3959
  170SAPS  H10S19270   5.218   1.514   5.482  0.3156  0.0022  0.2001
  170SAPS  C21119271   5.354   1.334   5.513  0.1096 -0.3494 -0.5542
  170SAPS  H11R19272   5.416   1.291   5.593  0.6447  1.4011  0.0245
  170SAPS  C21219273   5.342   1.276   5.394  0.0758  0.9658 -0.2183
  170SAPS  H12R19274   5.378   1.172   5.389  0.5393  1.1635 -1.3165
  170SAPS  C21319275   5.284   1.331   5.263  0.2241 -0.4933  0.3419
  170SAPS  H13R19276   5.297   1.441   5.278 -0.6487 -0.4321  0.6652
  170SAPS  H13S19277   5.178   1.305   5.245  0.2122 -1.3565  1.5759
  170SAPS  C21419278   5.366   1.302   5.140 -0.0010  0.1805  0.2144
  170SAPS  H14R19279   5.453   1.236   5.145 -0.3053 -0.6103 -2.8436
  170SAPS  C21519280   5.335   1.345   5.020  0.0369 -0.7735  0.4230
  170SAPS  H15R19281   5.413   1.323   4.946 -1.6469  0.9144 -2.0090
  170SAPS  C21619282   5.214   1.429   4.978  0.1080 -0.1704 -0.1700
  170SAPS  H16R19283   5.237   1.526   4.930 -0.8599  0.8961  1.4257
  170SAPS  H16S19284   5.177   1.468   5.075  1.9169  0.2184  0.3996
  170SAPS  C21719285   5.109   1.351   4.902 -0.0641 -0.1227 -0.6777
  170SAPS  H17R19286   5.077   1.268   4.968  0.8815  0.1075  0.1015
  170SAPS  H17S19287   5.150   1.307   4.809 -1.0221  1.7569 -2.0739
  170SAPS  C21819288   4.993   1.442   4.860 -0.3776  0.3520  0.2622
  170SAPS  H18R19289   5.036   1.525   4.800  0.3984 -1.5130 -1.9035
  170SAPS  H18S19290   4.958   1.490   4.954  1.8318  0.5478  1.0346
  170SAPS  C21919291   4.879   1.377   4.779 -0.4744 -0.6722 -0.5001
  170SAPS  H19R19292   4.801   1.446   4.743  0.3801  1.0727  0.8509
  170SAPS  H19S19293   4.829   1.299   4.841 -0.0762 -1.6934 -1.4346
  170SAPS  C22019294   4.929   1.303   4.659 -0.8153 -0.5314 -0.6013
  170SAPS  H20R19295   4.991   1.214   4.685  3.7784  1.9711 -1.8577
  170SAPS  H20S19296   4.986   1.369   4.590 -1.2815  0.0725 -0.4187
  170SAPS  H20T19297   4.842   1.259   4.606  0.0249 -0.0302 -2.4738
  170SAPS   C3319298   5.952   2.614   6.203  0.0012 -0.7029  0.2590
  170SAPS   H3X19299   6.006   2.707   6.230 -0.0935 -1.3888  3.1566
  170SAPS   H3Y19300   5.906   2.630   6.103  0.5638 -1.2007 -0.0877
  170SAPS   C3419301   6.055   2.505   6.181 -0.4625 -0.5438 -0.4072
  170SAPS   H4X19302   6.000   2.410   6.168 -0.0171 -1.4200  3.1458
  170SAPS   H4Y19303   6.117   2.494   6.272  1.6167  1.6977 -1.4412
  170SAPS   C3519304   6.175   2.538   6.085  0.8737  0.6045 -0.7503
  170SAPS   H5X19305   6.248   2.457   6.063 -0.3824 -0.2030 -2.1868
  170SAPS   H5Y19306   6.231   2.622   6.131  0.0067  0.9824 -0.3557
  170SAPS   C3619307   6.116   2.574   5.949 -0.0054  0.0683 -0.5010
  170SAPS   H6X19308   6.071   2.676   5.947  1.5803  0.8042 -2.0599
  170SAPS   H6Y19309   6.032   2.504   5.933 -1.5018  1.2426  1.6212
  170SAPS   C3719310   6.214   2.567   5.838 -1.1221  0.4444  0.0776
  170SAPS   H7X19311   6.254   2.467   5.813 -1.2083  0.5331 -0.4422
  170SAPS   H7Y19312   6.303   2.629   5.860 -0.4262 -0.2889 -0.6147
  170SAPS   C3819313   6.154   2.614   5.706  0.1577 -0.9537  0.0040
  170SAPS   H8X19314   6.088   2.703   5.719 -1.5386 -2.2871  0.7609
  170SAPS   H8Y19315   6.076   2.542   5.674 -2.7367  2.6865 -2.1049
  170SAPS   C3919316   6.261   2.654   5.602 -0.6781 -0.2375 -0.2825
  170SAPS   H9X19317   6.342   2.578   5.606 -3.0604 -2.8678  1.7549
  170SAPS   H9Y19318   6.303   2.751   5.638  1.4608 -0.6457 -1.4718
  170SAPS  C31019319   6.203   2.682   5.460  0.3602  0.6813 -0.0573
  170SAPS  H10X19320   6.128   2.763   5.473 -0.8806 -0.2948 -0.9278
  170SAPS  H10Y19321   6.146   2.593   5.426 -0.2661  0.9718  0.2169
  170SAPS  C31119322   6.300   2.732   5.359 -0.1822 -0.1756  0.5110
  170SAPS  H11X19323   6.273   2.699   5.257  0.3809  1.9824 -0.3968
  170SAPS  H11Y19324   6.398   2.685   5.382  0.5765  1.6061  1.0617
  170SAPS  C31219325   6.321   2.883   5.352  0.0081  0.2283  0.0664
  170SAPS  H12X19326   6.353   2.919   5.452  0.2650  0.7284 -0.1957
  170SAPS  H12Y19327   6.224   2.936   5.335  0.2179  0.6394  0.1452
  170SAPS  C31319328   6.420   2.941   5.250 -0.0077 -0.6754  0.3104
  170SAPS  H13X19329   6.382   2.885   5.161  1.4635 -0.0935 -0.7375
  170SAPS  H13Y19330   6.523   2.906   5.272 -0.2161 -2.0021 -0.6405
  170SAPS  C31419331   6.408   3.091   5.220 -0.4986  0.3437 -0.5317
  170SAPS  H14X19332   6.411   3.129   5.324  1.8455 -4.3733  1.4143
  170SAPS  H14Y19333   6.313   3.113   5.166 -0.8806 -0.6907 -0.2911
  170SAPS  C31519334   6.519   3.153   5.134 -0.3399 -0.1750  0.0497
  170SAPS  H15X19335   6.620   3.141   5.180 -0.8284  2.7085  2.1466
  170SAPS  H15Y19336   6.500   3.263   5.129  1.4486  0.1218 -2.0596
  170SAPS  C31619337   6.530   3.100   4.988 -0.0382  0.3640 -1.2906
  170SAPS  H16X19338   6.433   3.074   4.940  0.2385 -1.7467 -0.8087
  170SAPS  H16Y19339   6.592   3.008   4.998 -2.2673 -1.1069 -0.1679
  170SAPS  C31719340   6.603   3.200   4.900  0.1671  0.2398 -0.1262
  170SAPS  H17X19341   6.706   3.210   4.942  1.2412 -2.2187 -1.8993
  170SAPS  H17Y19342   6.556   3.301   4.900  2.0452  1.1685 -1.0828
  170SAPS  C31819343   6.619   3.152   4.751 -0.2416 -0.2948  0.3155
  170SAPS  H18X19344   6.665   3.238   4.699 -1.3019  0.4475  0.5751
  170SAPS  H18Y19345   6.522   3.139   4.699 -1.8729  0.8846  2.8633
  170SAPS  H18Z19346   6.691   3.067   4.746  0.7794  0.5873 -0.2299
  171SAPS     N19347   0.705   1.134   7.099  0.4917 -0.4206 -0.2308
  171SAPS   HN119348   0.805   1.159   7.109  1.2160 -2.5336 -1.6675
  171SAPS   HN219349   0.654   1.141   7.190  0.1414  0.2330 -0.4650
  171SAPS   HN319350   0.717   1.034   7.078 -2.9559 -1.6940  2.7000
  171SAPS   C1219351   0.636   1.197   6.988 -0.2019  0.1595 -0.2825
  171SAPS  H12A19352   0.531   1.172   6.987 -0.4460  1.1139 -1.4473
  171SAPS   C1319353   0.663   1.347   6.968  0.3820 -0.4784 -0.1940
  171SAPS  O13A19354   0.747   1.406   7.038  0.7793  0.0036 -0.0371
  171SAPS  O13B19355   0.611   1.401   6.870 -0.0872 -0.0734 -0.5667
  171SAPS   C1119356   0.689   1.122   6.857 -0.4369  0.5659 -0.5850
  171SAPS  H11A19357   0.792   1.155   6.833 -0.0581 -0.6023 -0.5971
  171SAPS  H11B19358   0.630   1.152   6.768 -1.0814 -0.7092 -0.6061
  171SAPS     P19359   0.598   0.884   6.802 -0.0075 -0.2187 -0.0863
  171SAPS   O1319360   0.581   0.758   6.871  0.1119 -0.1278 -0.4137
  171SAPS   O1419361   0.477   0.961   6.759 -0.0613 -0.3590 -0.0589
  171SAPS   O1219362   0.693   0.982   6.879  0.0240  0.3712  0.3062
  171SAPS   O1119363   0.694   0.852   6.671  0.4164 -0.6598 -0.4109
  171SAPS    C119364   0.759   0.956   6.592  0.3202  0.1634  0.5164
  171SAPS    HA19365   0.693   1.046   6.586 -0.6868 -0.6324 -4.0092
  171SAPS    HB19366   0.854   0.976   6.645 -0.5534 -0.0019  2.2291
  171SAPS    C219367   0.804   0.919   6.444  0.7022  0.1949  0.4625
  171SAPS    HS19368   0.880   0.992   6.408  0.2459  0.1628 -0.6079
  171SAPS   O2119369   0.696   0.921   6.353  0.3783 -0.5356  0.0148
  171SAPS   C2119370   0.665   1.039   6.296 -0.4174  0.3397 -0.1633
  171SAPS   O2219371   0.727   1.142   6.314 -0.1011 -0.0981 -0.3216
  171SAPS   C2219372   0.559   1.027   6.188  0.8698  0.0269  0.0421
  171SAPS   H2R19373   0.603   1.065   6.094  1.2911  1.1805  0.6887
  171SAPS   H2S19374   0.542   0.918   6.179  2.9162 -0.2039 -2.1745
  171SAPS    C319375   0.873   0.784   6.436  0.0631 -0.6985  0.2008
  171SAPS    HX19376   0.789   0.712   6.433  0.1365 -0.7746 -0.1117
  171SAPS    HY19377   0.930   0.762   6.528 -1.6733 -2.9071  0.8283
  171SAPS   O3119378   0.944   0.753   6.307  0.0999  0.1554 -0.9564
  171SAPS   C3119379   1.071   0.794   6.314 -0.0024  0.8330  0.0127
  171SAPS   O3219380   1.138   0.809   6.414 -0.0812 -0.1370  0.1260
  171SAPS   C3219381   1.127   0.813   6.171 -0.6082 -0.5604  0.5883
  171SAPS   H2X19382   1.046   0.872   6.124 -2.3057 -4.3871 -1.7313
  171SAPS   H2Y19383   1.116   0.720   6.113  0.6395 -0.7575  0.6239
  171SAPS   C2319384   0.429   1.114   6.227 -0.6387 -0.2982 -0.2606
  171SAPS   H3R19385   0.446   1.224   6.231  0.0136 -0.3902 -0.3138
  171SAPS   H3S19386   0.405   1.085   6.331  0.0384  0.0446 -0.0023
  171SAPS   C2419387   0.310   1.078   6.144  0.9254 -0.7418  0.4468
  171SAPS   H4R19388   0.348   1.031   6.051 -1.0270  0.8057 -1.2388
  171SAPS   H4S19389   0.274   1.174   6.100  1.5017 -1.5269 -1.9298
  171SAPS   C2519390   0.194   1.004   6.201  0.7817  0.3343  0.3352
  171SAPS   H5R19391   0.227   0.928   6.273  1.1357  1.2987  1.1990
  171SAPS   C2619392   0.062   1.040   6.178 -0.1007 -0.1102 -0.7882
  171SAPS   H6R19393  -0.007   0.974   6.233 -1.1731  2.6090  1.3705
  171SAPS   C2719394   0.017   1.160   6.105  0.1385 -0.3697  0.6437
  171SAPS   H7R19395   0.089   1.239   6.134  0.8860 -0.5489 -0.6385
  171SAPS   H7S19396  -0.083   1.192   6.142 -0.2383 -0.7682 -0.0050
  171SAPS   C2819397   0.008   1.139   5.957  0.3289  0.1950 -0.2156
  171SAPS   H8R19398   0.092   1.079   5.919  0.2666  0.2771 -0.4783
  171SAPS   C2919399  -0.080   1.193   5.870  0.2651  0.3057  0.1580
  171SAPS   H9R19400  -0.072   1.155   5.767  0.4065  0.3692  0.1451
  171SAPS  C21019401  -0.204   1.281   5.889 -0.1585  0.3350 -0.1271
  171SAPS  H10R19402  -0.221   1.307   5.996  0.4603  1.5364 -0.2954
  171SAPS  H10S19403  -0.283   1.207   5.867 -0.5530  0.4295  0.9057
  171SAPS  C21119404  -0.228   1.407   5.815 -0.2410 -0.3248  0.1796
  171SAPS  H11R19405  -0.196   1.499   5.866  0.4921 -1.1283  1.2003
  171SAPS  C21219406  -0.293   1.421   5.698  0.8130  0.1803  0.5867
  171SAPS  H12R19407  -0.314   1.519   5.653  0.3352 -1.0767 -2.0839
  171SAPS  C21319408  -0.333   1.304   5.607  0.4097  0.0144 -0.2255
  171SAPS  H13R19409  -0.376   1.225   5.672  1.4064 -0.9051 -0.6552
  171SAPS  H13S19410  -0.241   1.259   5.565  0.5158  0.8865 -0.9613
  171SAPS  C21419411  -0.434   1.327   5.496  0.1041  0.0255 -0.6974
  171SAPS  H14R19412  -0.491   1.417   5.520 -1.6246 -1.4636  1.0431
  171SAPS  C21519413  -0.457   1.271   5.378 -0.4841  0.0740 -0.7502
  171SAPS  H15R19414  -0.537   1.319   5.318 -0.1902  0.5916 -0.7306
  171SAPS  C21619415  -0.386   1.148   5.319  0.3495 -0.7552  0.2813
  171SAPS  H16R19416  -0.432   1.049   5.343  1.2766 -0.6875  2.5585
  171SAPS  H16S19417  -0.288   1.144   5.371  0.3498 -2.1367  0.2224
  171SAPS  C21719418  -0.365   1.173   5.171  0.0533 -0.5960 -0.1686
  171SAPS  H17R19419  -0.319   1.270   5.143  0.2808 -0.4929  0.5454
  171SAPS  H17S19420  -0.466   1.185   5.126 -1.4156 -0.5549  2.8814
  171SAPS  C21819421  -0.287   1.062   5.103 -0.4134 -0.4305  0.0464
  171SAPS  H18R19422  -0.327   0.962   5.129  1.5834 -1.0817  0.8282
  171SAPS  H18S19423  -0.187   1.059   5.150 -1.9121  0.0867  3.5865
  171SAPS  C21919424  -0.264   1.080   4.952 -0.1257  0.9543 -0.3529
  171SAPS  H19R19425  -0.161   1.048   4.929 -0.4061  0.9571 -1.6735
  171SAPS  H19S19426  -0.270   1.184   4.913  3.3851  1.3033 -0.2178
  171SAPS  C22019427  -0.349   0.981   4.868 -0.3543  0.5289  0.4079
  171SAPS  H20R19428  -0.457   0.981   4.893 -0.8717 -1.2750 -1.5976
  171SAPS  H20S19429  -0.313   0.877   4.879  1.9995  1.2293 -0.0617
  171SAPS  H20T19430  -0.332   1.014   4.763  0.9322 -1.2811  0.0059
  171SAPS   C3319431   1.276   0.872   6.161 -0.1214  0.1498  0.8123
  171SAPS   H3X19432   1.355   0.806   6.204  2.7343  0.9036 -2.7546
  171SAPS   H3Y19433   1.289   0.969   6.215  0.0625  0.0463  0.9572
  171SAPS   C3419434   1.328   0.908   6.021  0.2147 -0.4127  0.2154
  171SAPS   H4X19435   1.322   0.824   5.948 -1.1112 -0.5415  0.4440
  171SAPS   H4Y19436   1.431   0.950   6.028 -0.8610  2.4901 -0.0502
  171SAPS   C3519437   1.237   1.016   5.954 -0.6480 -0.3322  0.2951
  171SAPS   H5X19438   1.241   1.118   5.997 -0.4593 -0.2826  0.1597
  171SAPS   H5Y19439   1.132   0.979   5.963 -0.9423  0.3577 -0.2396
  171SAPS   C3619440   1.260   1.029   5.798  0.9633 -0.1893  0.5553
  171SAPS   H6X19441   1.256   0.931   5.747  1.6077  0.8604 -1.6220
  171SAPS   H6Y19442   1.361   1.069   5.778  0.8507 -0.4007 -0.4991
  171SAPS   C3719443   1.151   1.112   5.741  0.8653 -0.1601  0.0912
  171SAPS   H7X19444   1.154   1.217   5.776 -1.9528  0.3560 -0.9477
  171SAPS   H7Y19445   1.054   1.061   5.762 -0.0318 -0.2801 -3.6251
  171SAPS   C3819446   1.156   1.117   5.587  0.2398 -0.1228 -0.7201
  171SAPS   H8X19447   1.132   1.017   5.544 -1.4062 -0.3068  0.5180
  171SAPS   H8Y19448   1.257   1.146   5.553 -0.3226  0.0833 -2.2844
  171SAPS   C3919449   1.065   1.234   5.533 -1.2207  0.2879  0.0543
  171SAPS   H9X19450   1.098   1.327   5.584  1.8223 -1.8589  2.3533
  171SAPS   H9Y19451   0.962   1.211   5.568 -1.4152  1.9455  0.6256
  171SAPS  C31019452   1.073   1.232   5.378  0.0265 -0.3218 -0.0590
  171SAPS  H10X19453   1.024   1.139   5.342  0.3238 -0.3759 -0.3216
  171SAPS  H10Y19454   1.178   1.234   5.341  1.0207  1.1261  2.5670
  171SAPS  C31119455   0.999   1.355   5.315 -0.7470  0.5872  0.6903
  171SAPS  H11X19456   1.045   1.442   5.364  0.8368 -0.1166  0.5036
  171SAPS  H11Y19457   0.890   1.349   5.336 -0.6474  1.6024  1.5660
  171SAPS  C31219458   1.027   1.363   5.164  0.1294  0.6504 -0.0812
  171SAPS  H12X19459   0.975   1.282   5.109  0.9034  0.0222  0.0942
  171SAPS  H12Y19460   1.137   1.349   5.151 -0.3361 -1.0461 -3.0190
  171SAPS  C31319461   1.000   1.499   5.100  0.3800 -0.6958  0.3130
  171SAPS  H13X19462   1.038   1.581   5.165  2.5157 -1.5941  0.2636
  171SAPS  H13Y19463   0.890   1.513   5.101  0.3508 -0.8957 -0.0539
  171SAPS  C31419464   1.046   1.518   4.957  0.7162 -0.4637 -0.5029
  171SAPS  H14X19465   0.968   1.466   4.897  0.1593 -1.4592  1.0202
  171SAPS  H14Y19466   1.144   1.468   4.944  1.5772  0.9470  0.2914
  171SAPS  C31519467   1.052   1.664   4.914 -0.7171 -0.4346 -0.1590
  171SAPS  H15X19468   1.146   1.708   4.956 -1.9975  0.7555  1.5741
  171SAPS  H15Y19469   0.965   1.721   4.951 -1.2983 -0.8233 -0.8999
  171SAPS  C31619470   1.054   1.681   4.758  0.0024 -0.1378  0.3447
  171SAPS  H16X19471   1.066   1.789   4.738 -0.7617 -0.2027 -0.4886
  171SAPS  H16Y19472   0.956   1.653   4.715  0.2893 -1.6797  0.6339
  171SAPS  C31719473   1.174   1.599   4.686 -0.0010  0.3792 -0.6650
  171SAPS  H17X19474   1.163   1.614   4.577 -1.9374 -2.3391 -0.9410
  171SAPS  H17Y19475   1.160   1.491   4.709 -2.0237  1.0736  1.7923
  171SAPS  C31819476   1.313   1.630   4.737 -0.0038 -0.0612 -0.4112
  171SAPS  H18X19477   1.341   1.737   4.737 -0.4147  0.0530  0.1242
  171SAPS  H18Y19478   1.394   1.572   4.687  0.0467 -1.1019  0.8237
  171SAPS  H18Z19479   1.312   1.604   4.845 -1.5336 -0.1651 -0.4256
  172SAPS     N19480   0.627   4.257   6.432 -0.5072 -0.5151  0.0599
  172SAPS   HN119481   0.618   4.176   6.367  0.7733 -1.1813  0.6689
  172SAPS   HN219482   0.538   4.309   6.442  0.8509  1.7258  1.5001
  172SAPS   HN319483   0.704   4.322   6.404 -0.8842  0.3217  0.9273
  172SAPS   C1219484   0.662   4.198   6.558 -0.1547 -0.2322  0.0942
  172SAPS  H12A19485   0.769   4.204   6.571 -0.4061  2.1183  1.7465
  172SAPS   C1319486   0.595   4.271   6.676  0.1665  0.4029 -0.1908
  172SAPS  O13A19487   0.522   4.368   6.657 -0.0918  0.1346  0.2011
  172SAPS  O13B19488   0.620   4.232   6.795 -0.5843 -0.2052 -0.4377
  172SAPS   C1119489   0.619   4.050   6.549  0.1562  0.3244  0.4066
  172SAPS  H11A19490   0.654   4.011   6.647  0.9103  0.9391  0.3870
  172SAPS  H11B19491   0.669   3.983   6.477 -0.4242 -2.7580  2.6752
  172SAPS     P19492   0.412   3.902   6.567  0.3512 -0.1796  0.1109
  172SAPS   O1319493   0.429   3.889   6.712  0.2811 -0.4193 -0.1025
  172SAPS   O1419494   0.272   3.908   6.519 -0.8462  0.0656  0.0656
  172SAPS   O1219495   0.478   4.035   6.524  0.0357 -0.4161 -0.5649
  172SAPS   O1119496   0.486   3.797   6.477 -0.2247 -0.0399 -0.1441
  172SAPS    C119497   0.554   3.689   6.531 -0.9294  0.2896 -0.2226
  172SAPS    HA19498   0.523   3.656   6.633 -0.9131  2.0688  0.3923
  172SAPS    HB19499   0.542   3.600   6.466 -0.9213  0.7420 -0.8488
  172SAPS    C219500   0.712   3.705   6.535 -0.2926  0.3874 -0.2687
  172SAPS    HS19501   0.738   3.799   6.588 -0.7312  0.3487  0.0245
  172SAPS   O2119502   0.751   3.719   6.396 -0.1238 -0.1679 -0.3205
  172SAPS   C2119503   0.868   3.784   6.383 -0.9022  0.5288  0.1327
  172SAPS   O2219504   0.925   3.840   6.476  0.9533  0.0851  0.3645
  172SAPS   C2219505   0.908   3.790   6.234 -0.3266 -0.7982  0.2636
  172SAPS   H2R19506   0.882   3.890   6.191  1.1642 -0.4736  0.0628
  172SAPS   H2S19507   1.019   3.784   6.239 -0.1477  1.8855  1.7953
  172SAPS    C319508   0.779   3.583   6.616 -0.5774 -0.2994 -0.0357
  172SAPS    HX19509   0.730   3.594   6.715 -0.7768 -0.5343 -0.1061
  172SAPS    HY19510   0.888   3.596   6.625 -0.8053  1.4878  0.4442
  172SAPS   O3119511   0.737   3.458   6.560  0.0468  0.7802 -0.3251
  172SAPS   C3119512   0.813   3.419   6.456 -0.1278  0.6330  0.4960
  172SAPS   O3219513   0.907   3.478   6.410  0.3752 -0.5298 -0.1308
  172SAPS   C3219514   0.767   3.285   6.404 -0.0974  0.0828  0.3874
  172SAPS   H2X19515   0.687   3.248   6.471 -0.6719  0.1825 -0.2331
  172SAPS   H2Y19516   0.851   3.213   6.415 -0.9397 -1.2243 -1.2968
  172SAPS   C2319517   0.860   3.689   6.134  0.0815  0.1430 -0.6532
  172SAPS   H3R19518   0.775   3.629   6.172  0.1511 -0.6347 -1.6630
  172SAPS   H3S19519   0.943   3.618   6.111  0.1079 -0.0763  0.0967
  172SAPS   C2419520   0.815   3.748   5.993 -0.4331  0.5714 -0.2037
  172SAPS   H4R19521   0.892   3.822   5.961 -0.5998  0.6437 -0.4403
  172SAPS   H4S19522   0.714   3.793   6.003 -0.4845  0.3999  0.0727
  172SAPS   C2519523   0.817   3.634   5.892 -0.0343 -0.0084 -0.4154
  172SAPS   H5R19524   0.847   3.544   5.947 -1.1041  0.3049  0.7348
  172SAPS   C2619525   0.746   3.619   5.773 -0.4177  0.4156 -0.6125
  172SAPS   H6R19526   0.762   3.529   5.712 -1.8007  2.6492 -4.6756
  172SAPS   C2719527   0.675   3.732   5.707  0.4270 -0.3087  0.3349
  172SAPS   H7R19528   0.723   3.739   5.607 -0.6317 -0.7594 -0.2213
  172SAPS   H7S19529   0.678   3.830   5.759 -1.1055 -0.3017  0.4565
  172SAPS   C2819530   0.530   3.682   5.699 -0.7542  0.6442 -0.2598
  172SAPS   H8R19531   0.506   3.630   5.793  0.5101 -0.7828 -0.6818
  172SAPS   C2919532   0.452   3.670   5.593 -0.6651 -0.0270  0.6524
  172SAPS   H9R19533   0.352   3.629   5.611 -1.1396  0.5138 -0.6728
  172SAPS  C21019534   0.472   3.736   5.456  0.6873 -1.1147 -0.2404
  172SAPS  H10R19535   0.483   3.657   5.379  0.7799 -0.4766 -0.8935
  172SAPS  H10S19536   0.572   3.783   5.461 -0.0203  0.3769  0.6092
  172SAPS  C21119537   0.378   3.846   5.419  0.7460  0.6547  0.0302
  172SAPS  H11R19538   0.337   3.902   5.505 -0.8503 -1.2648  0.6194
  172SAPS  C21219539   0.325   3.863   5.293  0.1495 -0.1317  0.7610
  172SAPS  H12R19540   0.244   3.936   5.279 -0.1838 -0.5164  0.6714
  172SAPS  C21319541   0.347   3.785   5.168 -0.3901  0.2657  0.5401
  172SAPS  H13R19542   0.458   3.779   5.156 -0.6499 -4.3880 -1.6166
  172SAPS  H13S19543   0.311   3.838   5.078 -0.9170  0.8080  1.0608
  172SAPS  C21419544   0.302   3.640   5.167  0.0467 -0.2340  0.2213
  172SAPS  H14R19545   0.263   3.600   5.262 -1.8946  1.5602  0.2606
  172SAPS  C21519546   0.303   3.558   5.055  0.0088  0.5122  1.0322
  172SAPS  H15R19547   0.273   3.453   5.067  0.2567 -0.2866 -3.5263
  172SAPS  C21619548   0.366   3.579   4.923 -0.3034 -0.2105  0.4512
  172SAPS  H16R19549   0.437   3.496   4.902  0.7193  0.4732  1.1393
  172SAPS  H16S19550   0.429   3.671   4.925 -0.4999 -0.0004 -1.3075
  172SAPS  C21719551   0.270   3.600   4.800 -0.6482 -0.2132  0.6290
  172SAPS  H17R19552   0.188   3.525   4.801 -0.1529 -0.7860 -0.1895
  172SAPS  H17S19553   0.325   3.591   4.704 -1.9627 -0.8971 -0.0795
  172SAPS  C21819554   0.198   3.731   4.806  0.5074  0.4643  0.8213
  172SAPS  H18R19555   0.276   3.805   4.779  0.1953  0.4015 -0.3377
  172SAPS  H18S19556   0.162   3.747   4.909  0.7673  0.7349  0.8708
  172SAPS  C21919557   0.087   3.756   4.712 -0.0966 -0.2261  0.6305
  172SAPS  H19R19558   0.048   3.859   4.728 -1.6432 -0.5315 -0.8285
  172SAPS  H19S19559   0.008   3.680   4.731 -0.8221 -0.1733 -1.7657
  172SAPS  C22019560   0.105   3.736   4.568 -0.2092  0.2975  0.7986
  172SAPS  H20R19561   0.115   3.625   4.561  1.3048  0.4053  1.0706
  172SAPS  H20S19562   0.197   3.784   4.528  0.1796 -1.2869 -0.3165
  172SAPS  H20T19563   0.014   3.772   4.514  0.1119 -0.5172 -0.3446
  172SAPS   C3319564   0.734   3.293   6.258 -0.1155 -0.1873 -0.6420
  172SAPS   H3X19565   0.728   3.183   6.244 -2.5120 -0.1833 -0.0423
  172SAPS   H3Y19566   0.805   3.346   6.191 -0.6487 -0.9187 -1.8165
  172SAPS   C3419567   0.598   3.364   6.248 -0.2120 -0.1825 -0.3700
  172SAPS   H4X19568   0.598   3.459   6.305  2.0075  0.4059 -1.2320
  172SAPS   H4Y19569   0.525   3.292   6.292  2.0335 -1.5195  1.4008
  172SAPS   C3519570   0.566   3.402   6.108  0.3813  0.0452 -0.3781
  172SAPS   H5X19571   0.649   3.463   6.066 -0.7604  1.1631 -1.0617
  172SAPS   H5Y19572   0.471   3.460   6.110 -0.4265 -1.2662  0.9270
  172SAPS   C3619573   0.559   3.285   6.016 -0.1234  0.2651  1.0049
  172SAPS   H6X19574   0.499   3.204   6.064  1.3317 -1.3893  0.1456
  172SAPS   H6Y19575   0.663   3.249   6.004  0.3519  1.1976  2.1955
  172SAPS   C3719576   0.507   3.336   5.880  0.3106 -0.0955 -0.5775
  172SAPS   H7X19577   0.589   3.365   5.810  0.4946 -0.6078 -0.5734
  172SAPS   H7Y19578   0.443   3.426   5.894  0.0091 -0.5060  0.8133
  172SAPS   C3819579   0.407   3.231   5.823 -0.4696 -0.2539  0.1375
  172SAPS   H8X19580   0.322   3.220   5.892  0.1596 -0.9424  0.8183
  172SAPS   H8Y19581   0.456   3.132   5.819 -0.2770 -0.1507 -2.9017
  172SAPS   C3919582   0.348   3.266   5.690  0.2450 -1.3022 -0.3870
  172SAPS   H9X19583   0.422   3.274   5.608 -0.2894 -2.1868 -0.9796
  172SAPS   H9Y19584   0.289   3.360   5.699 -1.0654 -2.0989 -0.3650
  172SAPS  C31019585   0.244   3.162   5.647  0.3426 -1.1183  0.6399
  172SAPS  H10X19586   0.148   3.172   5.703 -1.0303 -0.7354 -1.6547
  172SAPS  H10Y19587   0.271   3.054   5.643  2.2575 -0.6426 -0.7410
  172SAPS  C31119588   0.210   3.178   5.499  0.0267  0.7356  0.4248
  172SAPS  H11X19589   0.150   3.089   5.471 -1.6032  1.9604 -0.1276
  172SAPS  H11Y19590   0.299   3.179   5.433 -0.7669 -0.1777 -0.6900
  172SAPS  C31219591   0.107   3.296   5.466 -0.4709 -1.2471 -1.1874
  172SAPS  H12X19592   0.160   3.389   5.494  0.6057 -1.8921 -1.0495
  172SAPS  H12Y19593   0.021   3.288   5.537  0.4781 -1.8829 -0.0707
  172SAPS  C31319594   0.059   3.309   5.321 -0.1212  0.4738 -0.5872
  172SAPS  H13X19595  -0.003   3.220   5.296 -2.8935  1.8153  0.9897
  172SAPS  H13Y19596   0.151   3.310   5.258  0.5259 -0.8736  0.2893
  172SAPS  C31419597  -0.024   3.434   5.304 -0.1239  0.7325 -0.7312
  172SAPS  H14X19598   0.054   3.513   5.293 -0.5352  1.3173  0.3145
  172SAPS  H14Y19599  -0.084   3.462   5.394  0.4397 -1.0816  0.2700
  172SAPS  C31519600  -0.112   3.425   5.176 -0.0666  0.4517  0.1996
  172SAPS  H15X19601  -0.196   3.354   5.187 -0.9598  1.1031 -1.9070
  172SAPS  H15Y19602  -0.046   3.395   5.091 -1.8369  2.2052 -1.9063
  172SAPS  C31619603  -0.155   3.571   5.143  0.1044 -0.1218 -0.0096
  172SAPS  H16X19604  -0.192   3.627   5.232  2.1907 -3.0349  2.9451
  172SAPS  H16Y19605  -0.072   3.630   5.100 -1.2434  1.5043 -0.4821
  172SAPS  C31719606  -0.255   3.575   5.026 -0.5827  0.0407 -0.7973
  172SAPS  H17X19607  -0.208   3.511   4.948  1.1633 -0.1382  0.3474
  172SAPS  H17Y19608  -0.247   3.673   4.976 -0.1912  0.8197  0.7233
  172SAPS  C31819609  -0.402   3.558   5.066  0.3024  0.2966  0.0922
  172SAPS  H18X19610  -0.458   3.547   4.970  1.2120 -0.7438 -0.3456
  172SAPS  H18Y19611  -0.446   3.639   5.128 -0.0551 -0.3437  0.6893
  172SAPS  H18Z19612  -0.415   3.463   5.122  1.0115 -1.1303 -2.0284
  173SAPS     N19613   1.204   2.452   2.195 -0.7160  0.0576  0.2712
  173SAPS   HN119614   1.265   2.489   2.271 -0.4694 -2.9187  1.6678
  173SAPS   HN219615   1.101   2.443   2.210 -0.5950 -4.5696 -0.2434
  173SAPS   HN319616   1.239   2.356   2.178  1.3102  0.5214  1.5411
  173SAPS   C1219617   1.214   2.542   2.075 -0.0459 -0.1973 -0.1531
  173SAPS  H12A19618   1.320   2.537   2.052  0.7175  1.0969  2.6571
  173SAPS   C1319619   1.126   2.502   1.958 -0.0700 -0.1513 -0.2530
  173SAPS  O13A19620   1.039   2.413   1.973  0.4880 -0.4503 -0.8805
  173SAPS  O13B19621   1.124   2.575   1.854 -0.3208  0.0711 -0.3585
  173SAPS   C1119622   1.170   2.688   2.117  0.3251 -0.0957 -0.1650
  173SAPS  H11A19623   1.069   2.674   2.161  0.8390 -3.3061  0.2172
  173SAPS  H11B19624   1.161   2.751   2.026 -0.3274  1.2869  0.8214
  173SAPS     P19625   1.215   2.873   2.285  0.0625  0.2996  0.1362
  173SAPS   O1319626   1.345   2.922   2.345 -0.1184  0.2889 -0.0565
  173SAPS   O1419627   1.157   2.965   2.181 -0.5055  0.3745  0.6199
  173SAPS   O1219628   1.263   2.733   2.210 -0.0590 -0.0108 -0.3327
  173SAPS   O1119629   1.111   2.830   2.386  0.2822 -0.2051  0.2845
  173SAPS    C119630   1.133   2.733   2.489  0.1215  0.0417 -0.2590
  173SAPS    HA19631   1.070   2.646   2.462  0.8143 -0.1360 -1.3795
  173SAPS    HB19632   1.238   2.697   2.500 -0.1821 -0.3654  1.4817
  173SAPS    C219633   1.095   2.790   2.623 -0.1230 -0.6371 -0.1006
  173SAPS    HS19634   1.111   2.718   2.706 -1.8810  1.3445  2.0931
  173SAPS   O2119635   0.955   2.818   2.612 -0.6469  0.1988 -0.7832
  173SAPS   C2119636   0.886   2.802   2.726 -0.0156  0.4332 -1.3852
  173SAPS   O2219637   0.921   2.741   2.826  0.7691  0.2183 -0.6218
  173SAPS   C2219638   0.754   2.883   2.710 -0.8614 -0.4855 -0.8480
  173SAPS   H2R19639   0.759   2.928   2.609  2.3562 -0.2540 -0.6691
  173SAPS   H2S19640   0.670   2.810   2.718 -0.2977 -0.9439  3.0586
  173SAPS    C319641   1.189   2.911   2.658 -0.1825 -0.3506  0.1478
  173SAPS    HX19642   1.186   2.980   2.571  0.1519  0.6253  0.8965
  173SAPS    HY19643   1.296   2.886   2.670 -0.4727 -0.8635  2.0301
  173SAPS   O3119644   1.139   2.979   2.776  0.3247 -0.3337 -0.2050
  173SAPS   C3119645   1.187   2.945   2.894 -0.1956  1.1118 -0.3309
  173SAPS   O3219646   1.279   2.863   2.911 -0.1974  0.1690  0.1944
  173SAPS   C3219647   1.127   3.035   3.004  0.2013 -0.1606  0.1520
  173SAPS   H2X19648   1.022   3.049   2.969 -0.7549 -0.0838  2.8443
  173SAPS   H2Y19649   1.175   3.135   2.997 -2.7052  1.2833 -0.4525
  173SAPS   C2319650   0.739   2.989   2.826  0.6304 -0.2950  0.2878
  173SAPS   H3R19651   0.836   3.036   2.851  0.3816  1.6589 -2.0182
  173SAPS   H3S19652   0.699   2.935   2.914 -0.5179 -2.7899 -1.6468
  173SAPS   C2419653   0.628   3.096   2.798 -0.0526 -0.2395 -0.1364
  173SAPS   H4R19654   0.530   3.049   2.780  0.1685 -0.9024  0.3587
  173SAPS   H4S19655   0.642   3.165   2.711 -0.5166 -1.3503 -1.1145
  173SAPS   C2519656   0.627   3.190   2.915 -0.2545 -0.5249 -0.4888
  173SAPS   H5R19657   0.685   3.283   2.908  2.1295 -2.0275 -2.0008
  173SAPS   C2619658   0.534   3.183   3.016 -0.4387  0.7320  0.6140
  173SAPS   H6R19659   0.531   3.268   3.087  0.8461  1.9047 -0.6468
  173SAPS   C2719660   0.423   3.085   3.032 -0.0234 -0.2733 -0.1499
  173SAPS   H7R19661   0.431   3.011   2.949  0.6932  1.5444 -1.7715
  173SAPS   H7S19662   0.330   3.140   3.008  1.3643  2.0024 -0.5655
  173SAPS   C2819663   0.383   3.006   3.155 -0.5742  0.1258 -0.7160
  173SAPS   H8R19664   0.284   2.958   3.153 -0.1312 -0.8519  0.0534
  173SAPS   C2919665   0.450   2.996   3.274 -0.6058  0.5506  0.2883
  173SAPS   H9R19666   0.401   2.930   3.347  0.8706 -0.9862 -0.0518
  173SAPS  C21019667   0.576   3.073   3.313 -0.8154 -0.0162  0.6607
  173SAPS  H10R19668   0.557   3.180   3.291 -0.8744 -0.2941 -0.7220
  173SAPS  H10S19669   0.651   3.047   3.236 -1.5526  0.3768 -0.2168
  173SAPS  C21119670   0.636   3.038   3.444  0.0288 -0.1726 -0.7397
  173SAPS  H11R19671   0.725   2.973   3.442  0.9070  1.0121 -2.0436
  173SAPS  C21219672   0.586   3.074   3.563 -0.2012  0.9600 -0.2794
  173SAPS  H12R19673   0.636   3.041   3.655 -1.0882 -1.0026 -0.4596
  173SAPS  C21319674   0.471   3.167   3.582 -0.5395  0.3069 -0.1237
  173SAPS  H13R19675   0.375   3.116   3.603 -2.7876  2.1514 -4.5173
  173SAPS  H13S19676   0.452   3.229   3.492 -1.4244 -1.8815 -1.5134
  173SAPS  C21419677   0.491   3.251   3.707 -0.7261 -0.2309  0.8270
  173SAPS  H14R19678   0.540   3.346   3.681  0.9043 -1.1396  0.4557
  173SAPS  C21519679   0.448   3.226   3.829  0.0264  0.3211  0.7608
  173SAPS  H15R19680   0.483   3.305   3.897 -0.7436  3.7006 -2.4414
  173SAPS  C21619681   0.369   3.105   3.872  0.3073 -0.1376 -0.5681
  173SAPS  H16R19682   0.441   3.029   3.910  0.2235  0.0281 -0.0731
  173SAPS  H16S19683   0.304   3.053   3.799 -1.3280  0.1860  0.6149
  173SAPS  C21719684   0.278   3.133   4.003  0.2301 -0.9638  0.5248
  173SAPS  H17R19685   0.258   3.037   4.053 -3.6189 -0.9205 -0.6075
  173SAPS  H17S19686   0.178   3.174   3.974  0.8434 -1.0558 -2.0003
  173SAPS  C21819687   0.342   3.231   4.093  0.1332  0.3388 -0.1186
  173SAPS  H18R19688   0.348   3.331   4.045 -0.4604  0.1722 -0.5465
  173SAPS  H18S19689   0.444   3.193   4.114 -0.0601  0.4263  1.0842
  173SAPS  C21919690   0.247   3.240   4.216  0.0943 -0.5357 -0.4052
  173SAPS  H19R19691   0.220   3.142   4.261  0.1713 -0.5499 -0.3907
  173SAPS  H19S19692   0.151   3.291   4.190  0.3137  1.2824  1.9996
  173SAPS  C22019693   0.315   3.326   4.330  0.3017 -0.0414  0.3046
  173SAPS  H20R19694   0.333   3.427   4.288 -0.9969 -0.5275 -1.5541
  173SAPS  H20S19695   0.410   3.273   4.354 -0.1321 -1.0356 -0.0932
  173SAPS  H20T19696   0.249   3.345   4.417  0.4383  0.9837  0.1901
  173SAPS   C3319697   1.130   2.994   3.151 -0.2401  0.5546 -0.1498
  173SAPS   H3X19698   1.235   2.979   3.184  0.1026  0.4046 -1.2600
  173SAPS   H3Y19699   1.071   2.901   3.162 -1.7973  1.1014 -2.9511
  173SAPS   C3419700   1.061   3.094   3.236 -0.3692 -0.0967 -0.9039
  173SAPS   H4X19701   0.958   3.122   3.203 -1.2521  1.5201  2.7707
  173SAPS   H4Y19702   1.110   3.193   3.232 -0.5272  0.0527  0.4502
  173SAPS   C3519703   1.057   3.046   3.388 -0.8882 -0.2592 -0.3309
  173SAPS   H5X19704   1.157   3.005   3.416 -0.1598 -0.3256 -2.7510
  173SAPS   H5Y19705   0.989   2.958   3.388 -3.3212  1.5398 -0.4766
  173SAPS   C3619706   1.008   3.160   3.485  0.0705 -0.0459 -0.9935
  173SAPS   H6X19707   0.897   3.164   3.482 -0.3888 -3.1067  2.7992
  173SAPS   H6Y19708   1.055   3.258   3.465 -4.4984  2.4381 -0.9582
  173SAPS   C3719709   1.031   3.119   3.633  0.7523 -0.2078 -0.0846
  173SAPS   H7X19710   1.138   3.128   3.662  0.7195  1.4213 -0.3355
  173SAPS   H7Y19711   0.994   3.015   3.641  0.3375 -0.1948 -1.5436
  173SAPS   C3819712   0.932   3.198   3.729 -0.5251 -0.1870  0.5216
  173SAPS   H8X19713   0.828   3.190   3.691 -0.7185  1.2273  0.6895
  173SAPS   H8Y19714   0.950   3.308   3.729 -1.2210 -0.0430  1.9580
  173SAPS   C3919715   0.947   3.146   3.874 -0.3361  0.1854 -0.6665
  173SAPS   H9X19716   1.052   3.166   3.904 -1.4147 -0.8068  4.8499
  173SAPS   H9Y19717   0.946   3.035   3.868  3.1577  0.0074 -0.2514
  173SAPS  C31019718   0.845   3.218   3.965 -0.0581 -0.4065  0.6446
  173SAPS  H10X19719   0.746   3.199   3.919  0.3053 -1.4350  0.2655
  173SAPS  H10Y19720   0.865   3.328   3.963 -1.9936  0.0079 -2.4313
  173SAPS  C31119721   0.847   3.156   4.106 -0.3496  0.2665  0.2178
  173SAPS  H11X19722   0.924   3.076   4.111  2.3756  2.5090 -2.1320
  173SAPS  H11Y19723   0.751   3.102   4.116  0.1549 -1.1383 -1.8409
  173SAPS  C31219724   0.861   3.269   4.209  0.1295 -0.0610  0.4061
  173SAPS  H12X19725   0.767   3.325   4.189  1.6613  1.8148 -2.1025
  173SAPS  H12Y19726   0.942   3.341   4.187  0.2406 -0.4163 -0.4097
  173SAPS  C31319727   0.855   3.229   4.358  0.1220 -0.1259 -0.2840
  173SAPS  H13X19728   0.750   3.198   4.373 -0.2238  0.9621 -0.3201
  173SAPS  H13Y19729   0.869   3.316   4.426 -1.6050  0.4145 -0.5665
  173SAPS  C31419730   0.961   3.124   4.402 -0.3346 -0.4468  0.2262
  173SAPS  H14X19731   1.066   3.161   4.395 -1.1689  2.0678 -0.1006
  173SAPS  H14Y19732   0.955   3.029   4.344  0.5859 -0.8338  0.7352
  173SAPS  C31519733   0.939   3.087   4.547 -0.2210  0.0614  0.1181
  173SAPS  H15X19734   0.981   2.987   4.574 -0.8732 -0.2445  0.0191
  173SAPS  H15Y19735   0.831   3.065   4.563  0.1915 -1.0176  1.7133
  173SAPS  C31619736   0.985   3.197   4.647  0.6434  0.2496 -0.2517
  173SAPS  H16X19737   0.929   3.293   4.644 -0.4624 -0.0938  3.4697
  173SAPS  H16Y19738   1.091   3.226   4.627  0.4111  1.1310 -0.2325
  173SAPS  C31719739   0.988   3.136   4.790 -0.6235  1.0304 -0.3260
  173SAPS  H17X19740   0.997   3.025   4.784  1.2052  1.1885 -0.8778
  173SAPS  H17Y19741   0.893   3.160   4.843 -1.1262  0.7345 -1.0740
  173SAPS  C31819742   1.100   3.193   4.883 -0.3794 -0.5239  0.6674
  173SAPS  H18X19743   1.096   3.145   4.983  2.6353 -1.5825  0.3893
  173SAPS  H18Y19744   1.073   3.300   4.889  3.2012  0.7294 -2.0910
  173SAPS  H18Z19745   1.199   3.183   4.833 -0.5059 -0.2699  0.3601
  174SAPS     N19746   3.955   1.483   2.165  0.3659  0.3635  0.7721
  174SAPS   HN119747   3.951   1.527   2.259 -0.5365  0.5071  0.6809
  174SAPS   HN219748   3.965   1.379   2.165 -0.7836  0.2346  1.2174
  174SAPS   HN319749   4.039   1.518   2.115  0.1261  0.0209  0.1116
  174SAPS   C1219750   3.848   1.548   2.084  0.0730  0.4005  0.1907
  174SAPS  H12A19751   3.879   1.649   2.058 -0.3589  0.6163  0.4967
  174SAPS   C1319752   3.823   1.494   1.946  0.4592 -0.1135  0.9146
  174SAPS  O13A19753   3.896   1.400   1.904 -0.1545 -0.0226 -0.5742
  174SAPS  O13B19754   3.743   1.546   1.869 -0.1487  0.1258 -0.0244
  174SAPS   C1119755   3.715   1.587   2.152 -0.7824 -0.1457 -1.0241
  174SAPS  H11A19756   3.666   1.498   2.196 -0.2847  0.2035  0.3069
  174SAPS  H11B19757   3.643   1.616   2.073 -3.3521  0.1203  1.2614
  174SAPS     P19758   3.582   1.741   2.307  0.2490  0.2745 -0.2452
  174SAPS   O1319759   3.577   1.886   2.291 -0.1318 -0.4709  0.3468
  174SAPS   O1419760   3.476   1.664   2.241 -0.0497 -0.2244  0.4619
  174SAPS   O1219761   3.717   1.687   2.259  0.6830 -0.0379  0.3196
  174SAPS   O1119762   3.578   1.705   2.454 -0.0240  0.1931  0.2664
  174SAPS    C119763   3.686   1.636   2.525 -0.1550  0.0124 -0.0959
  174SAPS    HA19764   3.663   1.534   2.563  2.7868 -0.6908 -0.0096
  174SAPS    HB19765   3.775   1.621   2.460  1.2720 -0.4713  1.8783
  174SAPS    C219766   3.739   1.709   2.650 -0.1908 -0.2741  0.3410
  174SAPS    HS19767   3.840   1.674   2.682  1.2721  3.5433  0.5024
  174SAPS   O2119768   3.636   1.696   2.754  0.4531  0.1848 -0.4508
  174SAPS   C2119769   3.683   1.692   2.880 -0.0481  0.3148 -0.0906
  174SAPS   O2219770   3.799   1.668   2.912  0.5295  0.1000 -0.6365
  174SAPS   C2219771   3.586   1.748   2.987 -0.0002  0.5070  0.1320
  174SAPS   H2R19772   3.605   1.857   2.997  1.8643  0.4972 -2.3542
  174SAPS   H2S19773   3.482   1.723   2.957 -0.6048  1.0599  1.7185
  174SAPS    C319774   3.761   1.867   2.632 -0.0724  0.0345 -0.5479
  174SAPS    HX19775   3.662   1.898   2.594 -0.3509 -2.5848 -2.1836
  174SAPS    HY19776   3.832   1.897   2.552 -0.3678  1.7960 -0.2051
  174SAPS   O3119777   3.789   1.944   2.752 -0.3156  0.1656 -1.0714
  174SAPS   C3119778   3.911   1.924   2.791  0.1277  0.6139  0.4370
  174SAPS   O3219779   4.003   1.878   2.719  0.5961 -0.1185 -0.6206
  174SAPS   C3219780   3.928   1.979   2.929  0.1937  0.0553  0.3348
  174SAPS   H2X19781   3.848   1.945   3.000  1.4806 -1.2542  1.2114
  174SAPS   H2Y19782   3.944   2.088   2.916  1.5094 -0.3980 -2.2839
  174SAPS   C2319783   3.616   1.668   3.122 -0.1521  0.3485  0.6274
  174SAPS   H3R19784   3.717   1.691   3.164  1.4965 -4.2770 -0.1707
  174SAPS   H3S19785   3.622   1.562   3.090  1.8354  0.5388  0.2398
  174SAPS   C2419786   3.504   1.692   3.224 -0.5072  0.0114  0.1685
  174SAPS   H4R19787   3.406   1.681   3.173 -0.4702  1.4034 -0.2315
  174SAPS   H4S19788   3.514   1.797   3.259 -1.6726  0.8323 -1.8238
  174SAPS   C2519789   3.520   1.582   3.336 -0.0629 -0.4654  0.5404
  174SAPS   H5R19790   3.477   1.486   3.304  0.8066  0.0088 -2.4105
  174SAPS   C2619791   3.566   1.599   3.466  0.0162  0.3823 -0.2603
  174SAPS   H6R19792   3.560   1.519   3.541  2.0416  1.2211  0.8903
  174SAPS   C2719793   3.620   1.725   3.536  1.5381 -1.3156 -0.0057
  174SAPS   H7R19794   3.633   1.814   3.472  0.2917 -1.2573 -0.2121
  174SAPS   H7S19795   3.716   1.693   3.581 -0.1801 -1.0017  4.3901
  174SAPS   C2819796   3.511   1.753   3.640 -0.2359 -0.7737 -0.3459
  174SAPS   H8R19797   3.421   1.808   3.609  0.1412  1.1012  1.6157
  174SAPS   C2919798   3.519   1.714   3.771  0.0251 -0.0012 -0.0052
  174SAPS   H9R19799   3.440   1.737   3.845  0.0913 -0.2110  0.1292
  174SAPS  C21019800   3.637   1.636   3.839 -0.5443 -0.3310 -0.2945
  174SAPS  H10R19801   3.684   1.695   3.921  2.6598  0.7900 -2.7499
  174SAPS  H10S19802   3.721   1.615   3.770 -1.2086 -1.2962 -0.8276
  174SAPS  C21119803   3.575   1.516   3.896 -0.0767  0.0029 -0.2139
  174SAPS  H11R19804   3.547   1.438   3.822 -2.4040  0.5007  0.0774
  174SAPS  C21219805   3.551   1.487   4.031 -0.1199  0.8698 -0.3284
  174SAPS  H12R19806   3.505   1.390   4.052 -0.1884 -0.3191 -4.9005
  174SAPS  C21319807   3.560   1.582   4.150  0.4677 -0.2245 -0.2999
  174SAPS  H13R19808   3.538   1.685   4.113 -1.0375  0.4606  2.2578
  174SAPS  H13S19809   3.663   1.579   4.191  0.3325  2.1642  0.3660
  174SAPS  C21419810   3.466   1.548   4.268 -0.5356 -0.0743 -0.1931
  174SAPS  H14R19811   3.495   1.453   4.315 -1.3275 -0.3841 -0.2994
  174SAPS  C21519812   3.351   1.610   4.299 -0.2616 -0.6523  0.8677
  174SAPS  H15R19813   3.282   1.557   4.366 -1.8391  0.2775  0.0536
  174SAPS  C21619814   3.282   1.730   4.243  0.1359 -0.3088 -0.0173
  174SAPS  H16R19815   3.180   1.705   4.209  0.4383 -3.3231  1.0049
  174SAPS  H16S19816   3.342   1.774   4.159  0.4156  0.5956  0.6346
  174SAPS  C21719817   3.248   1.851   4.340 -0.1270 -0.2596 -0.9393
  174SAPS  H17R19818   3.343   1.873   4.392 -1.3349  1.4551  0.6849
  174SAPS  H17S19819   3.185   1.803   4.418  0.4905 -0.2200 -0.4108
  174SAPS  C21819820   3.181   1.973   4.278  0.1090 -0.5838  0.2695
  174SAPS  H18R19821   3.086   1.937   4.234  0.1637 -1.1154  0.5720
  174SAPS  H18S19822   3.229   2.002   4.182 -1.0847 -1.8030 -0.7290
  174SAPS  C21919823   3.180   2.088   4.375 -0.3248 -0.5850 -0.2223
  174SAPS  H19R19824   3.131   2.177   4.329 -0.6777 -0.4237  0.4527
  174SAPS  H19S19825   3.289   2.105   4.392 -0.7008  0.0743  1.8817
  174SAPS  C22019826   3.105   2.079   4.511  0.3123 -0.3505  0.7435
  174SAPS  H20R19827   2.999   2.057   4.485  1.1220 -1.2082 -2.3501
  174SAPS  H20S19828   3.128   2.168   4.573  1.2101  0.5307 -0.7730
  174SAPS  H20T19829   3.137   1.989   4.567 -0.3000 -0.7359  0.4823
  174SAPS   C3319830   4.065   1.935   2.990  0.1830  0.0428  0.6104
  174SAPS   H3X19831   4.147   1.994   2.943  0.8389 -0.9973  0.4238
  174SAPS   H3Y19832   4.083   1.831   2.955 -1.2410  0.4804 -1.5901
  174SAPS   C3419833   4.060   1.942   3.146 -0.9287 -0.2241 -0.0675
  174SAPS   H4X19834   3.968   1.889   3.179 -0.9035  0.5680  1.3385
  174SAPS   H4Y19835   4.052   2.047   3.180  1.7861 -0.5224  1.7858
  174SAPS   C3519836   4.183   1.873   3.201 -0.4922  0.4402 -1.1980
  174SAPS   H5X19837   4.272   1.929   3.165 -1.5652  1.8034 -1.8279
  174SAPS   H5Y19838   4.176   1.766   3.175  0.1346  0.4598 -1.4668
  174SAPS   C3619839   4.189   1.880   3.362  0.2133  0.5982  0.0899
  174SAPS   H6X19840   4.190   1.989   3.378 -2.7558  0.6899  0.2845
  174SAPS   H6Y19841   4.288   1.843   3.396 -0.3952 -1.5572 -0.3270
  174SAPS   C3719842   4.074   1.807   3.434 -0.0505 -0.1672  0.5321
  174SAPS   H7X19843   4.058   1.708   3.387 -2.2211  0.0318  0.7118
  174SAPS   H7Y19844   3.973   1.847   3.411  0.0309 -1.2151 -1.9038
  174SAPS   C3819845   4.079   1.788   3.580  0.5390 -0.1382  0.3748
  174SAPS   H8X19846   4.160   1.713   3.597  1.9264  1.3175  0.4514
  174SAPS   H8Y19847   3.993   1.724   3.611 -1.0557  0.4222 -2.5657
  174SAPS   C3919848   4.080   1.915   3.665  0.7447 -0.2191  0.1959
  174SAPS   H9X19849   3.981   1.965   3.665  0.4828 -0.7207  0.8395
  174SAPS   H9Y19850   4.156   1.972   3.607  0.8003 -0.3313  0.1581
  174SAPS  C31019851   4.138   1.897   3.808 -0.1458  0.5180  0.3521
  174SAPS  H10X19852   4.158   1.999   3.847 -2.8256  1.1222  0.3125
  174SAPS  H10Y19853   4.228   1.831   3.803 -1.0483 -0.6805 -0.6480
  174SAPS  C31119854   4.034   1.828   3.895  0.0963 -0.5065 -0.8117
  174SAPS  H11X19855   4.088   1.771   3.974 -0.5538  0.4275  0.3385
  174SAPS  H11Y19856   3.976   1.750   3.842 -1.1861  0.4327 -0.8235
  174SAPS  C31219857   3.932   1.917   3.961 -0.4875  0.2878  0.7067
  174SAPS  H12X19858   3.837   1.930   3.906 -0.7481 -1.2921  0.7214
  174SAPS  H12Y19859   3.975   2.018   3.980  0.2944  0.0138  0.4316
  174SAPS  C31319860   3.906   1.863   4.100 -0.1746  0.0293  0.2684
  174SAPS  H13X19861   4.003   1.890   4.147 -1.2009  0.7605  2.0694
  174SAPS  H13Y19862   3.884   1.754   4.100  0.5990 -0.1305  0.3172
  174SAPS  C31419863   3.776   1.927   4.159  0.0540  0.5877  0.1237
  174SAPS  H14X19864   3.684   1.885   4.113  0.3855  1.6809 -1.6161
  174SAPS  H14Y19865   3.778   2.035   4.135  1.6301  0.6341  0.3218
  174SAPS  C31519866   3.778   1.917   4.311 -0.0848 -0.5534 -0.4427
  174SAPS  H15X19867   3.871   1.963   4.350 -0.7504 -1.1954  2.0626
  174SAPS  H15Y19868   3.770   1.815   4.354  1.3884  0.1676  1.6881
  174SAPS  C31619869   3.666   2.005   4.368  0.2065  0.3458  0.7365
  174SAPS  H16X19870   3.568   1.967   4.332  0.5093  0.0878  0.1614
  174SAPS  H16Y19871   3.686   2.108   4.331 -3.0334  1.2764  1.2746
  174SAPS  C31719872   3.676   2.015   4.517 -0.6079 -0.1696  0.4173
  174SAPS  H17X19873   3.766   2.069   4.551 -1.7606  1.3928  1.1171
  174SAPS  H17Y19874   3.667   1.913   4.562  1.3333 -1.3115 -1.5683
  174SAPS  C31819875   3.561   2.097   4.572  0.2433  0.4062 -0.2130
  174SAPS  H18X19876   3.473   2.031   4.562  2.2183 -2.9472  2.4616
  174SAPS  H18Y19877   3.540   2.191   4.516 -0.5026 -0.0414 -0.7022
  174SAPS  H18Z19878   3.577   2.109   4.681  0.9906 -0.5138 -0.2127
  175SAPS     N19879   1.033   2.175   2.112 -0.3653 -0.2650 -0.0114
  175SAPS   HN119880   0.935   2.146   2.130 -0.4304  0.2383  0.4757
  175SAPS   HN219881   1.071   2.197   2.206 -1.1836  0.3425  0.1886
  175SAPS   HN319882   1.026   2.268   2.068 -2.1881 -0.1260  0.4746
  175SAPS   C1219883   1.111   2.075   2.039 -0.3001  0.4828  0.5780
  175SAPS  H12A19884   1.074   2.074   1.937  0.9858  1.3440  0.0644
  175SAPS   C1319885   1.257   2.122   2.034  0.6966 -0.2454  0.2410
  175SAPS  O13A19886   1.302   2.220   2.101  0.4681 -0.2436 -0.1582
  175SAPS  O13B19887   1.337   2.037   1.989 -0.4483 -0.4318 -0.1602
  175SAPS   C1119888   1.111   1.946   2.119 -0.0014  0.1116 -0.0073
  175SAPS  H11A19889   1.140   1.963   2.225  0.8607  0.7923 -0.3389
  175SAPS  H11B19890   1.189   1.878   2.078  0.7230  0.1956  1.1890
  175SAPS     P19891   0.966   1.726   2.138  0.1544 -0.4806 -0.2794
  175SAPS   O1319892   0.918   1.659   2.018  0.4758  0.2276  0.4777
  175SAPS   O1419893   1.096   1.682   2.200  0.3126  0.8000 -0.3601
  175SAPS   O1219894   0.980   1.886   2.112  0.1561  0.1901  0.1722
  175SAPS   O1119895   0.846   1.712   2.245 -0.0897  0.5133  0.0805
  175SAPS    C119896   0.830   1.800   2.355 -0.3474 -0.7547 -0.3299
  175SAPS    HA19897   0.861   1.902   2.327  2.3363 -1.3331  0.2601
  175SAPS    HB19898   0.724   1.800   2.389 -0.2777 -1.9083 -0.0390
  175SAPS    C219899   0.915   1.757   2.477  0.4570  0.0378 -0.9352
  175SAPS    HS19900   1.021   1.783   2.456  0.3098  2.3655  0.8067
  175SAPS   O2119901   0.885   1.624   2.506  0.4300 -0.4914 -0.2592
  175SAPS   C2119902   0.988   1.560   2.564 -0.3786 -0.3970  0.7743
  175SAPS   O2219903   1.093   1.617   2.610  0.8836 -0.2617  0.0468
  175SAPS   C2219904   0.964   1.415   2.584 -0.1503  0.2401 -0.1605
  175SAPS   H2R19905   0.857   1.395   2.605 -0.6186  1.2618 -1.4194
  175SAPS   H2S19906   0.988   1.366   2.487 -1.0059  0.6875 -0.6080
  175SAPS    C319907   0.858   1.849   2.586  0.3139 -0.6029  0.5965
  175SAPS    HX19908   0.756   1.817   2.614 -1.0946  1.3778 -1.8638
  175SAPS    HY19909   0.843   1.952   2.546  0.2225 -0.0664  1.9715
  175SAPS   O3119910   0.956   1.861   2.690 -0.5810  0.4127 -0.5712
  175SAPS   C3119911   0.907   1.917   2.796 -0.0269 -0.3255 -0.1407
  175SAPS   O3219912   0.795   1.951   2.825 -0.2883  0.4445  0.7668
  175SAPS   C3219913   1.028   1.936   2.896 -0.5517  0.5983  0.0435
  175SAPS   H2X19914   1.103   1.997   2.842 -0.8248 -0.7654 -1.9656
  175SAPS   H2Y19915   1.060   1.831   2.912  0.7931  0.8958 -0.5635
  175SAPS   C2319916   1.055   1.339   2.681 -0.3520  0.0024  1.0211
  175SAPS   H3R19917   1.164   1.349   2.661  0.0410  3.4207  3.9907
  175SAPS   H3S19918   1.033   1.232   2.662  1.6344 -0.4043  0.8167
  175SAPS   C2419919   1.028   1.360   2.830  0.1602 -0.1062  1.1165
  175SAPS   H4R19920   1.087   1.284   2.886  0.8858  0.6565  1.3908
  175SAPS   H4S19921   0.922   1.331   2.850  0.3879 -1.2968  0.7191
  175SAPS   C2519922   1.069   1.493   2.883  0.7540  0.0025 -0.1182
  175SAPS   H5R19923   1.127   1.565   2.824  0.9747  0.1917  0.3201
  175SAPS   C2619924   1.043   1.530   3.008 -0.6693 -0.3620  0.0661
  175SAPS   H6R19925   1.097   1.623   3.033 -1.1693 -0.0807  0.0996
  175SAPS   C2719926   0.968   1.451   3.108  0.8837  0.0062  0.3550
  175SAPS   H7R19927   0.952   1.353   3.058 -1.2937  0.2365  0.4949
  175SAPS   H7S19928   0.862   1.472   3.133 -0.1769 -1.0974 -2.7303
  175SAPS   C2819929   1.063   1.430   3.221  0.6714  0.1819  0.4150
  175SAPS   H8R19930   1.165   1.400   3.192 -0.2528 -2.7498 -0.1644
  175SAPS   C2919931   1.038   1.457   3.350  0.2094  0.1402 -0.3355
  175SAPS   H9R19932   1.114   1.428   3.424 -0.2002  0.3280  0.1682
  175SAPS  C21019933   0.902   1.478   3.398 -0.0003  0.6080 -0.2886
  175SAPS  H10R19934   0.856   1.380   3.422 -0.8082  0.7814 -1.0593
  175SAPS  H10S19935   0.834   1.523   3.321  0.5676 -1.1144 -1.8479
  175SAPS  C21119936   0.912   1.569   3.516  0.3837  0.2855  0.2954
  175SAPS  H11R19937   0.905   1.674   3.482 -0.1646 -0.3641 -1.7079
  175SAPS  C21219938   0.923   1.539   3.648 -0.3377  0.4016  0.3290
  175SAPS  H12R19939   0.934   1.612   3.729  1.8970  1.0530 -0.4807
  175SAPS  C21319940   0.934   1.399   3.694  0.4533 -0.5155 -0.5969
  175SAPS  H13R19941   0.945   1.323   3.614  0.4026  0.1176 -1.2114
  175SAPS  H13S19942   0.834   1.370   3.733  0.3716 -1.8719 -1.7362
  175SAPS  C21419943   1.036   1.364   3.804  0.5349 -0.4891 -0.2174
  175SAPS  H14R19944   1.138   1.335   3.774  0.7009  0.3533 -0.4740
  175SAPS  C21519945   1.020   1.398   3.938 -0.5119  0.3081  0.6445
  175SAPS  H15R19946   1.100   1.369   4.006  1.0174  0.9422 -0.8135
  175SAPS  C21619947   0.900   1.461   3.995  0.1616 -0.5645  0.1915
  175SAPS  H16R19948   0.830   1.392   4.048  0.4838 -0.5686  0.6163
  175SAPS  H16S19949   0.833   1.506   3.919  0.5932 -0.4430 -0.1204
  175SAPS  C21719950   0.954   1.571   4.080  0.0301 -1.0545 -0.2474
  175SAPS  H17R19951   0.992   1.656   4.019 -0.4991  0.0553  0.9286
  175SAPS  H17S19952   1.037   1.535   4.144 -0.1819  1.1573  1.3783
  175SAPS  C21819953   0.859   1.635   4.181  0.4092 -0.0515  0.4099
  175SAPS  H18R19954   0.811   1.553   4.237  0.6661 -0.9989 -0.7095
  175SAPS  H18S19955   0.781   1.684   4.119 -0.7188  0.7121  2.3469
  175SAPS  C21919956   0.936   1.732   4.271  0.2428 -0.4913 -0.2674
  175SAPS  H19R19957   0.977   1.815   4.210  0.4188  0.2946  0.8709
  175SAPS  H19S19958   1.026   1.675   4.302  0.3579 -0.5893 -0.7818
  175SAPS  C22019959   0.855   1.776   4.396  0.3708  0.3873 -0.1317
  175SAPS  H20R19960   0.805   1.694   4.451  2.1379 -1.4234 -1.1086
  175SAPS  H20S19961   0.781   1.852   4.360  1.2675  1.4130  0.1280
  175SAPS  H20T19962   0.909   1.836   4.473  1.3266  0.0985 -0.5703
  175SAPS   C3319963   0.981   2.006   3.025 -0.0882  0.4058 -0.4241
  175SAPS   H3X19964   0.908   2.084   2.993 -2.1544 -1.3453 -0.2289
  175SAPS   H3Y19965   1.070   2.044   3.079 -0.0968  1.9613 -1.4259
  175SAPS   C3419966   0.918   1.905   3.127  0.6831  0.4746  0.3245
  175SAPS   H4X19967   0.991   1.830   3.163 -1.1210 -0.5622  2.0249
  175SAPS   H4Y19968   0.840   1.849   3.070 -0.3441  2.8011 -0.6956
  175SAPS   C3519969   0.884   1.978   3.251  0.2949 -0.8809 -0.6677
  175SAPS   H5X19970   0.804   1.919   3.302  0.9367 -1.3073 -0.1440
  175SAPS   H5Y19971   0.846   2.082   3.243  0.5935 -0.6236  0.9018
  175SAPS   C3619972   1.010   1.989   3.336 -0.9405  0.2477  0.2544
  175SAPS   H6X19973   1.079   2.058   3.282  1.2594 -0.7347  1.6265
  175SAPS   H6Y19974   1.061   1.890   3.344 -1.2129  0.0054 -0.8089
  175SAPS   C3719975   0.986   2.059   3.471  0.3651  0.3111 -0.2370
  175SAPS   H7X19976   0.889   2.113   3.474 -0.7702 -1.6463 -0.5198
  175SAPS   H7Y19977   1.075   2.124   3.485  1.3851 -1.2699  0.9527
  175SAPS   C3819978   0.981   1.959   3.592 -0.2577  0.1502  0.2705
  175SAPS   H8X19979   1.088   1.929   3.600 -0.4142 -0.2852  0.7316
  175SAPS   H8Y19980   0.921   1.869   3.568 -0.7236 -0.1017  2.2715
  175SAPS   C3919981   0.941   2.022   3.722  0.0810 -0.1088 -0.9113
  175SAPS   H9X19982   0.850   2.082   3.704 -0.2427  0.0618  1.0685
  175SAPS   H9Y19983   1.022   2.092   3.752 -1.1043  0.2117  1.8839
  175SAPS  C31019984   0.909   1.923   3.836 -0.5357  0.1877 -0.1788
  175SAPS  H10X19985   1.007   1.880   3.867 -2.2389 -3.6996  0.3334
  175SAPS  H10Y19986   0.848   1.834   3.811 -0.8051  0.2760  0.1624
  175SAPS  C31119987   0.839   1.984   3.956 -0.2176  0.2363  0.1231
  175SAPS  H11X19988   0.804   1.904   4.024  0.0124  1.5446  1.8626
  175SAPS  H11Y19989   0.744   2.038   3.933 -1.0286 -0.1395  2.2904
  175SAPS  C31219990   0.925   2.075   4.033  0.0539 -0.4080 -0.3292
  175SAPS  H12X19991   1.010   2.110   3.970  1.0532 -1.9256  0.1335
  175SAPS  H12Y19992   0.975   2.008   4.106  3.2059  0.9485 -1.0530
  175SAPS  C31319993   0.845   2.191   4.101 -0.0095 -1.0624 -0.6257
  175SAPS  H13X19994   0.784   2.238   4.021 -1.6101 -0.9957  0.5860
  175SAPS  H13Y19995   0.926   2.261   4.132 -0.9010 -0.1624 -0.3012
  175SAPS  C31419996   0.759   2.143   4.221  0.1741 -0.0496  0.7444
  175SAPS  H14X19997   0.802   2.050   4.263 -0.6613 -0.8239 -0.0638
  175SAPS  H14Y19998   0.663   2.114   4.175 -0.7273  1.7148  1.3995
  175SAPS  C31519999   0.763   2.251   4.335  0.0929  0.3542  0.9096
  175SAPS  H15X20000   0.700   2.334   4.296  0.5654 -0.3939 -1.6456
  175SAPS  H15Y20001   0.867   2.289   4.340 -1.0603  3.8888  0.5470
  175SAPS  C31620002   0.705   2.197   4.464 -0.1738  0.1122 -1.0810
  175SAPS  H16X20003   0.618   2.131   4.440 -0.9919  0.8856 -0.3221
  175SAPS  H16Y20004   0.661   2.273   4.533 -0.7531  0.7537 -2.1292
  175SAPS  C31720005   0.801   2.115   4.547  0.6589 -0.0882  0.1929
  175SAPS  H17X20006   0.885   2.183   4.574  0.0087  1.1211 -0.7766
  175SAPS  H17Y20007   0.853   2.044   4.479  0.7145  0.3559 -0.2300
  175SAPS  C31820008   0.735   2.033   4.657  0.2616  0.2512  0.9562
  175SAPS  H18X20009   0.675   2.089   4.732 -1.0711  1.2508 -0.7947
  175SAPS  H18Y20010   0.813   1.977   4.713  0.0432 -0.4762  0.5483
  175SAPS  H18Z20011   0.662   1.956   4.622 -1.2596  0.8577  2.6569
  176SAPS     N20012   0.610   1.033   2.035 -0.1184  0.3443  0.0730
  176SAPS   HN120013   0.635   1.113   2.097  0.1068  0.7961 -0.5945
  176SAPS   HN220014   0.548   1.073   1.963 -0.3246  1.2492  0.7281
  176SAPS   HN320015   0.554   0.977   2.102 -0.3517  1.8503  1.2142
  176SAPS   C1220016   0.730   0.970   1.981 -0.2957  0.0528  0.0542
  176SAPS  H12A20017   0.762   0.895   2.051  2.2326 -1.3296 -2.4126
  176SAPS   C1320018   0.707   0.896   1.847 -0.0194  0.3253 -0.3504
  176SAPS  O13A20019   0.594   0.913   1.792  0.1435  0.4407 -0.0694
  176SAPS  O13B20020   0.799   0.849   1.779  0.5199  0.0162 -0.0359
  176SAPS   C1120021   0.857   1.066   1.982 -0.2400  0.1737  0.2790
  176SAPS  H11A20022   0.849   1.141   1.899  0.2453 -0.7387 -0.6169
  176SAPS  H11B20023   0.938   0.993   1.959  0.0391  0.6532 -0.3213
  176SAPS     P20024   1.012   1.158   2.173  0.3640 -0.2372  0.6614
  176SAPS   O1320025   1.121   1.102   2.090 -0.0473 -0.2510  0.2151
  176SAPS   O1420026   1.019   1.305   2.200 -0.1162 -0.2537 -0.2551
  176SAPS   O1220027   0.871   1.131   2.111 -0.0707 -0.0789  0.3423
  176SAPS   O1120028   1.006   1.083   2.310  0.0321 -0.7270  0.5690
  176SAPS    C120029   0.900   0.990   2.343  0.0200  0.2890 -0.2057
  176SAPS    HA20030   0.805   1.015   2.291 -0.4287 -1.4968 -0.3112
  176SAPS    HB20031   0.935   0.887   2.322  1.8880  1.0469 -1.0519
  176SAPS    C220032   0.871   0.992   2.498  0.0275  0.2505 -0.0505
  176SAPS    HS20033   0.812   0.907   2.538  1.3471 -0.3577  0.6536
  176SAPS   O2120034   0.805   1.117   2.533 -0.1031  0.0585 -0.3180
  176SAPS   C2120035   0.676   1.121   2.510  0.2280 -0.0157  0.6645
  176SAPS   O2220036   0.612   1.029   2.455  0.0622  0.4212 -0.3792
  176SAPS   C2220037   0.620   1.255   2.563 -0.0377  0.1310  0.0168
  176SAPS   H2R20038   0.667   1.337   2.504 -0.0454 -0.1693 -0.4090
  176SAPS   H2S20039   0.516   1.266   2.525  0.0089 -2.5236 -1.0628
  176SAPS    C320040   1.007   0.968   2.568  0.9644 -0.8322  0.2159
  176SAPS    HX20041   1.084   1.034   2.523  0.1254 -1.8774 -3.0644
  176SAPS    HY20042   1.031   0.861   2.549  0.5010 -0.5257 -2.4949
  176SAPS   O3120043   1.007   1.009   2.702 -0.2583  0.1585 -0.0609
  176SAPS   C3120044   0.935   0.931   2.785  0.7521  0.2515  0.4354
  176SAPS   O3220045   0.890   0.818   2.755  0.6434 -0.5651 -0.6864
  176SAPS   C3220046   0.921   1.002   2.922  0.4045  0.2105 -0.2256
  176SAPS   H2X20047   0.822   0.991   2.971  0.3625  1.4973  0.0122
  176SAPS   H2Y20048   0.940   1.111   2.910  2.2734  0.5346  4.0280
  176SAPS   C2320049   0.637   1.258   2.716  0.2938  0.0935 -0.1518
  176SAPS   H3R20050   0.744   1.240   2.739  0.2113 -0.6525 -0.3452
  176SAPS   H3S20051   0.581   1.171   2.755 -2.5497  1.7085 -0.3324
  176SAPS   C2420052   0.594   1.390   2.789 -0.1079 -0.0607 -0.0312
  176SAPS   H4R20053   0.484   1.404   2.797  0.1735  2.3363  0.2914
  176SAPS   H4S20054   0.638   1.465   2.720 -1.6340  0.3295 -0.6327
  176SAPS   C2520055   0.659   1.408   2.923  0.0600  0.6208 -0.3335
  176SAPS   H5R20056   0.736   1.486   2.931  0.2704  0.5398 -1.3445
  176SAPS   C2620057   0.621   1.345   3.037  0.2905 -0.2409  0.5838
  176SAPS   H6R20058   0.684   1.346   3.128  1.6175 -0.9423 -0.2868
  176SAPS   C2720059   0.507   1.245   3.047 -0.1148  0.1814  0.1644
  176SAPS   H7R20060   0.441   1.260   2.959  1.0587 -0.3456 -0.8491
  176SAPS   H7S20061   0.437   1.266   3.130 -1.3757 -3.1340  0.0781
  176SAPS   C2820062   0.560   1.099   3.054  0.8242 -0.7135 -0.6629
  176SAPS   H8R20063   0.560   1.048   2.957 -1.6419  0.4571 -1.3821
  176SAPS   C2920064   0.585   1.028   3.162 -0.0845  0.0135 -0.4908
  176SAPS   H9R20065   0.631   0.928   3.156  0.6827  0.2324  1.1061
  176SAPS  C21020066   0.560   1.075   3.304 -0.3997 -0.0383 -0.2056
  176SAPS  H10R20067   0.496   0.998   3.351  0.6774 -0.8726 -0.0517
  176SAPS  H10S20068   0.498   1.167   3.306 -1.3822 -0.7015  1.2266
  176SAPS  C21120069   0.687   1.092   3.381 -0.7308  1.0249 -0.3488
  176SAPS  H11R20070   0.774   1.128   3.325 -0.0716  0.0975  0.0575
  176SAPS  C21220071   0.707   1.052   3.507 -0.1179  0.6784  0.4957
  176SAPS  H12R20072   0.804   1.076   3.554  1.1267 -0.7345 -1.2118
  176SAPS  C21320073   0.603   0.990   3.605 -0.3046  0.1279  0.7088
  176SAPS  H13R20074   0.657   0.908   3.658  0.2333 -0.2163 -0.3481
  176SAPS  H13S20075   0.516   0.945   3.552 -1.0628 -0.4381  2.3618
  176SAPS  C21420076   0.546   1.093   3.691 -0.7868 -0.4075 -0.1974
  176SAPS  H14R20077   0.483   1.166   3.638 -2.0044 -1.9948 -1.0170
  176SAPS  C21520078   0.550   1.104   3.823  0.6465 -0.0041  0.1500
  176SAPS  H15R20079   0.482   1.175   3.871  0.8258  0.0220  0.3644
  176SAPS  C21620080   0.617   1.009   3.924  0.2351 -0.2705  0.3650
  176SAPS  H16R20081   0.673   0.928   3.873 -1.1593 -0.2793 -1.2400
  176SAPS  H16S20082   0.548   0.968   4.001 -0.4440 -0.9849 -0.6023
  176SAPS  C21720083   0.729   1.100   3.979  0.7431 -0.0750 -0.1567
  176SAPS  H17R20084   0.699   1.199   4.021  2.5668  0.2943  0.3982
  176SAPS  H17S20085   0.808   1.116   3.903  1.0756  2.4505  0.5998
  176SAPS  C21820086   0.803   1.039   4.103 -0.1904  0.4011 -0.1826
  176SAPS  H18R20087   0.906   1.080   4.114 -0.3626  0.2210  3.0898
  176SAPS  H18S20088   0.807   0.930   4.083  2.2720  0.3072  0.4317
  176SAPS  C21920089   0.727   1.064   4.233  0.4157 -0.1820  0.2784
  176SAPS  H19R20090   0.619   1.070   4.206  0.8929 -0.6972 -1.9382
  176SAPS  H19S20091   0.767   1.159   4.273 -0.6477  0.1949  0.4846
  176SAPS  C22020092   0.759   0.968   4.353 -0.0737 -0.0507  0.2759
  176SAPS  H20R20093   0.730   0.866   4.320 -4.0430  1.8160 -2.9586
  176SAPS  H20S20094   0.693   0.991   4.440  1.2955  1.0956  1.0463
  176SAPS  H20T20095   0.865   0.967   4.387 -0.3806  0.5405  1.2862
  176SAPS   C3320096   1.025   0.941   3.022 -0.1100  0.2724  0.4779
  176SAPS   H3X20097   1.129   0.965   2.989 -0.0717 -1.7554 -1.1547
  176SAPS   H3Y20098   1.012   0.831   3.030  0.5483  0.1696  0.2401
  176SAPS   C3420099   1.008   0.995   3.162 -0.3527  0.4441 -0.3886
  176SAPS   H4X20100   0.902   0.992   3.196  0.5129 -2.4021  2.4552
  176SAPS   H4Y20101   1.022   1.105   3.169  2.2719  0.0872  0.9441
  176SAPS   C3520102   1.099   0.915   3.257 -0.2016 -0.3126  0.0124
  176SAPS   H5X20103   1.207   0.926   3.233 -0.2439  1.2651  0.4873
  176SAPS   H5Y20104   1.068   0.808   3.250 -0.8246 -0.1226 -0.2288
  176SAPS   C3620105   1.087   0.957   3.410  0.3187 -0.4441 -0.0824
  176SAPS   H6X20106   0.978   0.948   3.430  0.3289 -1.8376 -0.5674
  176SAPS   H6Y20107   1.117   1.063   3.422 -0.5745 -0.4343  2.9592
  176SAPS   C3720108   1.171   0.868   3.502  0.7915 -0.3016 -0.2231
  176SAPS   H7X20109   1.276   0.874   3.466  1.4209  1.1989  1.6740
  176SAPS   H7Y20110   1.145   0.761   3.487 -2.8726  0.3666  0.2154
  176SAPS   C3820111   1.157   0.895   3.649  0.1920  0.0351  0.2877
  176SAPS   H8X20112   1.160   1.005   3.666 -1.8439  0.3541 -1.1251
  176SAPS   H8Y20113   1.253   0.861   3.694  1.3187  1.1974 -1.1463
  176SAPS   C3920114   1.030   0.825   3.701 -0.0953 -0.2109 -0.2023
  176SAPS   H9X20115   1.044   0.715   3.694  1.0269 -0.0235 -1.4728
  176SAPS   H9Y20116   0.932   0.851   3.655 -1.4115 -1.3876  1.7839
  176SAPS  C31020117   1.015   0.867   3.852  0.0706  0.3124  0.1183
  176SAPS  H10X20118   0.912   0.835   3.878  0.2144 -1.5033 -1.3333
  176SAPS  H10Y20119   1.035   0.976   3.861 -1.1256  0.6944 -1.3709
  176SAPS  C31120120   1.111   0.789   3.942  0.0867  0.0866  0.2154
  176SAPS  H11X20121   1.217   0.819   3.925 -0.0685 -0.1417 -1.3477
  176SAPS  H11Y20122   1.101   0.679   3.928 -2.1703  0.4713 -1.8250
  176SAPS  C31220123   1.079   0.800   4.094  0.0807  0.4961  0.5152
  176SAPS  H12X20124   0.978   0.758   4.115 -1.5620  3.3062 -1.0619
  176SAPS  H12Y20125   1.074   0.909   4.114  0.2516  0.9871 -1.7732
  176SAPS  C31320126   1.181   0.741   4.199  0.1954 -1.1922 -0.2326
  176SAPS  H13X20127   1.281   0.785   4.180  0.5308 -1.1831  1.4091
  176SAPS  H13Y20128   1.190   0.631   4.182 -3.9443 -1.7950  0.2910
  176SAPS  C31420129   1.113   0.768   4.336 -0.0481  0.2123  0.2160
  176SAPS  H14X20130   1.020   0.707   4.337  1.1380 -1.7384 -1.1759
  176SAPS  H14Y20131   1.086   0.875   4.344  0.7026  0.5567 -1.5685
  176SAPS  C31520132   1.216   0.747   4.455  0.4137 -0.0150  0.2199
  176SAPS  H15X20133   1.294   0.825   4.442 -0.9539  1.1994 -0.9811
  176SAPS  H15Y20134   1.267   0.648   4.448 -0.5363 -0.6423  1.6364
  176SAPS  C31620135   1.155   0.754   4.593  0.4653 -0.3134 -0.0233
  176SAPS  H16X20136   1.087   0.667   4.607 -0.6594  0.4705 -0.4672
  176SAPS  H16Y20137   1.095   0.848   4.598  2.0238  0.6391  2.3847
  176SAPS  C31720138   1.264   0.764   4.699  0.3546  0.2375 -1.0131
  176SAPS  H17X20139   1.214   0.798   4.792  1.5155 -0.6841 -0.0226
  176SAPS  H17Y20140   1.345   0.834   4.667 -1.8616  2.8123 -1.3732
  176SAPS  C31820141   1.332   0.628   4.718  0.3137  1.4705  0.1097
  176SAPS  H18X20142   1.265   0.560   4.775  1.5507  0.9701  1.0011
  176SAPS  H18Y20143   1.426   0.647   4.774  0.0523  0.4664  0.9255
  176SAPS  H18Z20144   1.356   0.579   4.620  1.9220  0.9174  0.7475
  177SAPS     N20145   2.881   3.790   1.999 -0.0089  0.5589  0.2848
  177SAPS   HN120146   2.940   3.726   1.942  0.2109  1.0562 -0.0517
  177SAPS   HN220147   2.944   3.855   2.051  3.2300 -0.7366 -1.6774
  177SAPS   HN320148   2.834   3.735   2.074 -0.7997 -0.9172 -1.2478
  177SAPS   C1220149   2.785   3.868   1.915  0.6909  0.4460 -0.8251
  177SAPS  H12A20150   2.724   3.937   1.973 -0.0602  0.5443 -1.7129
  177SAPS   C1320151   2.855   3.965   1.820  1.2984 -0.2790 -0.5195
  177SAPS  O13A20152   2.976   3.969   1.806  0.1951 -0.1867 -0.6108
  177SAPS  O13B20153   2.775   4.017   1.733 -1.2271  0.4383 -0.3155
  177SAPS   C1120154   2.697   3.763   1.829 -0.4943  0.0403 -0.3546
  177SAPS  H11A20155   2.769   3.725   1.754 -2.6074 -1.7188 -1.6199
  177SAPS  H11B20156   2.626   3.824   1.769 -2.0289 -0.2004  1.1478
  177SAPS     P20157   2.513   3.708   2.002  0.2063  0.2715  0.1052
  177SAPS   O1320158   2.572   3.792   2.111  0.2152  0.1428  0.1541
  177SAPS   O1420159   2.409   3.768   1.919  0.8434 -0.3658 -0.3265
  177SAPS   O1220160   2.634   3.666   1.914 -0.0651 -0.1114 -0.0100
  177SAPS   O1120161   2.457   3.573   2.063  0.0190 -0.1748  0.6347
  177SAPS    C120162   2.539   3.471   2.098  0.3661  0.2578 -0.4034
  177SAPS    HA20163   2.508   3.388   2.031 -0.8403  1.9404 -2.0325
  177SAPS    HB20164   2.649   3.487   2.099  0.4640 -0.3443  0.4977
  177SAPS    C220165   2.507   3.419   2.244 -0.7119 -0.3631 -0.2604
  177SAPS    HS20166   2.399   3.394   2.243 -0.3753 -1.8666 -1.7216
  177SAPS   O2120167   2.557   3.527   2.332 -0.2151  0.3744 -0.0048
  177SAPS   C2120168   2.454   3.584   2.391  0.0878  0.4913 -0.4206
  177SAPS   O2220169   2.345   3.534   2.412  0.4385  0.4190  0.1956
  177SAPS   C2220170   2.497   3.723   2.447 -0.2316  0.8498  0.1320
  177SAPS   H2R20171   2.590   3.687   2.496 -0.8881  0.1019  0.8666
  177SAPS   H2S20172   2.519   3.795   2.365 -0.7042  0.8014 -0.0437
  177SAPS    C320173   2.581   3.283   2.271  0.3179 -0.2436 -0.2036
  177SAPS    HX20174   2.692   3.288   2.267  0.2847  0.5396 -0.1713
  177SAPS    HY20175   2.552   3.208   2.194  0.6100 -1.2870  0.6795
  177SAPS   O3120176   2.534   3.230   2.398 -0.1495  0.1876  0.4975
  177SAPS   C3120177   2.607   3.244   2.504  0.1502 -0.6612 -0.0507
  177SAPS   O3220178   2.718   3.297   2.515 -0.2023 -0.0641 -0.2686
  177SAPS   C3220179   2.515   3.198   2.619  0.2406 -0.3612 -0.1374
  177SAPS   H2X20180   2.536   3.090   2.635  0.7389 -0.1544  0.6303
  177SAPS   H2Y20181   2.409   3.202   2.586 -0.0373  1.0045  0.8376
  177SAPS   C2320182   2.407   3.788   2.556 -0.0935 -0.0407  0.0715
  177SAPS   H3R20183   2.366   3.704   2.616 -0.0618 -0.7907 -0.9312
  177SAPS   H3S20184   2.322   3.845   2.513  0.4413  0.1807 -0.7223
  177SAPS   C2420185   2.484   3.872   2.661 -0.7559 -0.1593  0.2419
  177SAPS   H4R20186   2.562   3.802   2.700 -0.0885 -0.1422 -1.0106
  177SAPS   H4S20187   2.403   3.895   2.733 -1.4037  3.7288 -1.4626
  177SAPS   C2520188   2.546   3.996   2.604  0.2521  0.5761 -0.1550
  177SAPS   H5R20189   2.583   3.980   2.501  1.4880 -0.2606  0.3931
  177SAPS   C2620190   2.590   4.105   2.667 -0.3533 -0.7182 -0.5025
  177SAPS   H6R20191   2.659   4.173   2.616 -0.5663  1.0944  1.4919
  177SAPS   C2720192   2.580   4.147   2.815 -0.1514  0.0978  0.2685
  177SAPS   H7R20193   2.470   4.133   2.830 -0.2273 -1.9724 -1.6489
  177SAPS   H7S20194   2.613   4.251   2.834  2.1928 -0.4444 -0.5371
  177SAPS   C2820195   2.651   4.058   2.914 -1.0031  0.6855  0.7882
  177SAPS   H8R20196   2.760   4.058   2.903 -0.8180 -1.9291  1.9923
  177SAPS   C2920197   2.594   3.969   3.001 -0.1241  0.0514 -0.3295
  177SAPS   H9R20198   2.661   3.911   3.065  1.2263 -0.8592 -2.4439
  177SAPS  C21020199   2.452   3.945   3.036 -0.4030  0.3595  0.0807
  177SAPS  H10R20200   2.428   3.845   2.994  2.0092 -0.4003  0.3834
  177SAPS  H10S20201   2.386   4.013   2.977 -1.0871  0.3440  0.8155
  177SAPS  C21120202   2.431   3.944   3.185 -0.4111 -0.1840  0.7693
  177SAPS  H11R20203   2.519   3.943   3.251 -0.9976 -1.1089  1.5535
  177SAPS  C21220204   2.313   3.938   3.251 -0.2385 -0.4537  0.1524
  177SAPS  H12R20205   2.309   3.946   3.360 -0.1848 -0.9507  0.1921
  177SAPS  C21320206   2.176   3.956   3.196 -0.0158  0.0482  0.4087
  177SAPS  H13R20207   2.129   3.859   3.171 -2.4689  1.2536  0.0103
  177SAPS  H13S20208   2.184   4.006   3.098  0.9716  0.8356  0.8664
  177SAPS  C21420209   2.078   4.026   3.276  0.0566  0.9389 -0.4673
  177SAPS  H14R20210   2.037   4.117   3.230 -0.1331 -0.5752 -3.5930
  177SAPS  C21520211   2.036   4.000   3.403 -0.0491  0.0053 -0.1296
  177SAPS  H15R20212   1.968   4.067   3.458 -0.0749  0.4235 -0.6660
  177SAPS  C21620213   2.091   3.883   3.478  0.3420 -0.5540 -0.7666
  177SAPS  H16R20214   2.178   3.908   3.543  1.0504 -3.1562 -0.6124
  177SAPS  H16S20215   2.121   3.799   3.411  0.7732 -2.1155  1.2721
  177SAPS  C21720216   1.989   3.808   3.569 -0.2544 -0.2389 -0.4882
  177SAPS  H17R20217   2.046   3.731   3.626  0.0282 -1.2158 -2.0210
  177SAPS  H17S20218   1.921   3.746   3.507 -1.3050 -1.7839  2.0139
  177SAPS  C21820219   1.916   3.897   3.670 -0.6546 -0.1183  0.1147
  177SAPS  H18R20220   1.842   3.835   3.726 -1.4477 -1.9975 -2.7996
  177SAPS  H18S20221   1.864   3.983   3.622  0.5476  0.9180  0.6121
  177SAPS  C21920222   2.007   3.974   3.759  0.0735 -0.3910  0.9726
  177SAPS  H19R20223   2.046   4.059   3.699  1.7464 -2.3795 -0.9770
  177SAPS  H19S20224   2.081   3.903   3.804  0.0580 -1.0751 -0.0521
  177SAPS  C22020225   1.930   4.042   3.877  0.1124  0.0890 -0.3428
  177SAPS  H20R20226   1.847   4.108   3.844  0.7585  0.6489 -0.8910
  177SAPS  H20S20227   2.000   4.110   3.930 -1.7501  1.2675  0.7046
  177SAPS  H20T20228   1.881   3.958   3.932  0.4293  0.0220 -0.1604
  177SAPS   C3320229   2.521   3.279   2.751  0.2833 -0.6784  0.0473
  177SAPS   H3X20230   2.625   3.308   2.774 -0.1904  0.0107  1.4278
  177SAPS   H3Y20231   2.502   3.212   2.838  1.2867 -0.8195  0.1599
  177SAPS   C3420232   2.436   3.405   2.762  0.0353  0.2635  0.5290
  177SAPS   H4X20233   2.332   3.366   2.759  0.0755 -0.0793  2.3078
  177SAPS   H4Y20234   2.460   3.471   2.676 -0.7909  0.3179  0.3234
  177SAPS   C3520235   2.460   3.489   2.886 -0.2144  0.7780 -0.5836
  177SAPS   H5X20236   2.402   3.584   2.884  0.0112  0.9231 -0.3150
  177SAPS   H5Y20237   2.568   3.514   2.890  0.0453  0.0934 -2.3956
  177SAPS   C3620238   2.429   3.425   3.021 -0.2017 -0.3409 -0.0592
  177SAPS   H6X20239   2.487   3.331   3.027 -1.1569 -0.9270  0.1661
  177SAPS   H6Y20240   2.322   3.396   3.025 -0.4718  0.7290  1.9431
  177SAPS   C3720241   2.457   3.516   3.142  0.6819  0.1334  0.1398
  177SAPS   H7X20242   2.412   3.617   3.135  0.8641  0.6568  4.1139
  177SAPS   H7Y20243   2.566   3.518   3.164  0.9223 -2.0669 -0.6222
  177SAPS   C3820244   2.391   3.444   3.258  0.2001 -0.2712 -0.6555
  177SAPS   H8X20245   2.442   3.349   3.282  1.4159  0.2322 -1.1711
  177SAPS   H8Y20246   2.283   3.420   3.243 -0.3710  1.7132  0.0140
  177SAPS   C3920247   2.404   3.519   3.391 -0.1904 -0.0716 -0.8837
  177SAPS   H9X20248   2.360   3.620   3.387  1.4534  0.6747 -0.9518
  177SAPS   H9Y20249   2.513   3.531   3.411 -0.5535 -1.0216  2.1348
  177SAPS  C31020250   2.336   3.446   3.505 -0.1361 -0.2577 -0.0164
  177SAPS  H10X20251   2.384   3.349   3.529  0.3271 -0.0562 -0.1200
  177SAPS  H10Y20252   2.235   3.415   3.469 -1.3341 -1.0797  3.6354
  177SAPS  C31120253   2.323   3.519   3.639  0.2615 -0.4735  0.1131
  177SAPS  H11X20254   2.280   3.615   3.601  0.4655 -0.0034  1.0516
  177SAPS  H11Y20255   2.418   3.543   3.692  0.3792  1.9511 -1.0309
  177SAPS  C31220256   2.226   3.461   3.743  0.9166  0.5828 -0.5627
  177SAPS  H12X20257   2.251   3.355   3.763  0.4658 -0.0370 -2.9917
  177SAPS  H12Y20258   2.130   3.450   3.687  0.0716 -2.1543  1.2269
  177SAPS  C31320259   2.202   3.543   3.867 -0.3348 -0.1392 -0.3098
  177SAPS  H13X20260   2.170   3.645   3.839  2.2954  1.1431  0.9577
  177SAPS  H13Y20261   2.305   3.553   3.908 -0.7284  0.4690  0.5391
  177SAPS  C31420262   2.099   3.495   3.966  0.1692 -0.0834 -0.7506
  177SAPS  H14X20263   2.130   3.397   4.008 -1.2131 -0.9251 -1.5794
  177SAPS  H14Y20264   2.007   3.482   3.905 -0.4607 -0.9088  0.3430
  177SAPS  C31520265   2.062   3.592   4.081 -0.9229  0.2334 -0.0337
  177SAPS  H15X20266   2.024   3.685   4.035  2.4169  1.3871 -0.7632
  177SAPS  H15Y20267   2.159   3.612   4.132 -1.2037  1.6637 -0.0380
  177SAPS  C31620268   1.948   3.544   4.186  0.1958 -0.5115  0.6432
  177SAPS  H16X20269   1.975   3.441   4.220 -0.0551 -1.1358 -0.9660
  177SAPS  H16Y20270   1.850   3.539   4.133 -1.7102 -2.0709  3.9796
  177SAPS  C31720271   1.932   3.623   4.319 -0.0496 -0.0129 -0.1092
  177SAPS  H17X20272   1.846   3.598   4.385 -0.2821 -1.9895 -1.0852
  177SAPS  H17Y20273   1.929   3.729   4.285 -0.4355  0.3135  0.8769
  177SAPS  C31820274   2.060   3.630   4.404 -0.0286 -0.5353  0.1324
  177SAPS  H18X20275   2.049   3.696   4.493  1.5332 -0.2023  0.0982
  177SAPS  H18Y20276   2.148   3.655   4.342  0.8075 -1.6316  0.8322
  177SAPS  H18Z20277   2.075   3.528   4.445 -1.0743 -1.3075 -1.3091
  178SAPS     N20278   1.474   3.866   2.129 -0.0461 -0.7581  0.1473
  178SAPS   HN120279   1.499   3.851   2.030 -2.1860 -1.3770 -0.3570
  178SAPS   HN220280   1.544   3.929   2.175 -0.1483  0.3036 -1.0965
  178SAPS   HN320281   1.467   3.777   2.183  0.4418 -0.8194  0.1152
  178SAPS   C1220282   1.340   3.926   2.122 -0.6147 -0.0128 -0.4813
  178SAPS  H12A20283   1.343   4.031   2.098 -0.5013 -0.2737 -1.6952
  178SAPS   C1320284   1.254   3.885   1.999 -0.1145 -0.2896 -0.5458
  178SAPS  O13A20285   1.297   3.793   1.926 -0.1988 -0.2287  0.4740
  178SAPS  O13B20286   1.134   3.925   1.987  0.2933 -0.3152 -0.3174
  178SAPS   C1120287   1.257   3.909   2.250  0.4210 -0.1021 -1.3992
  178SAPS  H11A20288   1.228   3.802   2.260  2.3792 -0.5611  0.0683
  178SAPS  H11B20289   1.165   3.970   2.239 -1.0936 -1.7397  1.0310
  178SAPS     P20290   1.332   4.100   2.401  0.6294  0.1220 -0.1248
  178SAPS   O1320291   1.424   4.181   2.321  0.3422 -0.1405  0.1340
  178SAPS   O1420292   1.185   4.147   2.400 -0.1616  0.3896 -0.8279
  178SAPS   O1220293   1.325   3.946   2.368  0.2040 -0.2851  0.7107
  178SAPS   O1120294   1.384   4.091   2.548  0.1746  0.4334  0.2524
  178SAPS    C120295   1.360   3.994   2.649 -0.1522 -0.4531 -0.2012
  178SAPS    HA20296   1.360   3.891   2.608 -1.6021 -0.8865  0.7836
  178SAPS    HB20297   1.432   3.996   2.733 -2.0219 -1.8754  1.5526
  178SAPS    C220298   1.219   4.026   2.718  0.1724  0.8249 -0.0979
  178SAPS    HS20299   1.144   3.997   2.641 -0.3944 -1.4116  1.2048
  178SAPS   O2120300   1.202   4.168   2.739  0.7387 -0.4762  0.4014
  178SAPS   C2120301   1.083   4.212   2.770 -0.1385  0.4786 -0.3913
  178SAPS   O2220302   0.979   4.144   2.780  0.1402 -0.2439 -0.5986
  178SAPS   C2220303   1.086   4.366   2.797 -0.9068  0.2470  0.0932
  178SAPS   H2R20304   1.190   4.388   2.828 -0.5406 -0.1849 -0.7970
  178SAPS   H2S20305   1.065   4.421   2.703  1.0935 -0.4640 -0.8249
  178SAPS    C320306   1.193   3.934   2.842 -1.0701  0.3637  0.1276
  178SAPS    HX20307   1.184   3.830   2.806 -0.1372 -0.7576  2.9021
  178SAPS    HY20308   1.094   3.946   2.891 -0.1757  0.0944  2.0856
  178SAPS   O3120309   1.294   3.947   2.935  0.2499 -0.0918  0.5387
  178SAPS   C3120310   1.301   3.861   3.039 -0.1982 -0.5395  0.7174
  178SAPS   O3220311   1.228   3.767   3.055  0.0655  0.2266  1.2195
  178SAPS   C3220312   1.407   3.896   3.139 -0.0676  0.1432  0.4138
  178SAPS   H2X20313   1.341   3.942   3.215 -2.1468 -0.5599 -0.8923
  178SAPS   H2Y20314   1.484   3.966   3.100 -1.0793  1.1461  0.2078
  178SAPS   C2320315   1.001   4.418   2.915 -0.0385 -0.1446 -0.2040
  178SAPS   H3R20316   0.896   4.383   2.908  0.3912 -1.5572  0.0537
  178SAPS   H3S20317   1.005   4.528   2.907 -1.9776 -0.0225  0.0339
  178SAPS   C2420318   1.061   4.376   3.054 -0.0149 -0.3693  0.1793
  178SAPS   H4R20319   1.016   4.437   3.136 -0.8532  2.7413 -2.3731
  178SAPS   H4S20320   1.166   4.410   3.047 -0.0931 -0.3356 -0.9727
  178SAPS   C2520321   1.049   4.231   3.094 -0.0160  0.2241  0.2793
  178SAPS   H5R20322   0.980   4.167   3.037  0.4539 -2.2559  2.3305
  178SAPS   C2620323   1.127   4.173   3.185 -0.1047  0.5902  0.0225
  178SAPS   H6R20324   1.102   4.067   3.201  1.5436 -0.1842 -2.1700
  178SAPS   C2720325   1.231   4.239   3.276 -0.0457 -0.0977  0.9059
  178SAPS   H7R20326   1.196   4.339   3.308  1.6297  0.8044  0.0144
  178SAPS   H7S20327   1.327   4.237   3.221  0.3488 -0.5718  1.6004
  178SAPS   C2820328   1.244   4.164   3.405  0.3834 -1.1440  0.8643
  178SAPS   H8R20329   1.239   4.055   3.396  1.5545 -1.1036 -0.9012
  178SAPS   C2920330   1.252   4.232   3.524  0.6141 -0.0820 -0.7621
  178SAPS   H9R20331   1.253   4.161   3.608 -0.1478  0.7242 -0.0551
  178SAPS  C21020332   1.246   4.375   3.561 -0.4157 -0.7153 -0.4500
  178SAPS  H10R20333   1.283   4.427   3.470  0.3725  0.1440  0.3490
  178SAPS  H10S20334   1.321   4.400   3.639 -0.5347 -3.0714  0.5154
  178SAPS  C21120335   1.108   4.419   3.604 -0.0341 -0.3411 -0.0478
  178SAPS  H11R20336   1.043   4.450   3.521 -0.0154  0.5775  0.2678
  178SAPS  C21220337   1.061   4.418   3.731 -0.0476 -0.1709 -0.0582
  178SAPS  H12R20338   0.953   4.436   3.740  0.1868  1.5328 -0.4071
  178SAPS  C21320339   1.134   4.385   3.857  0.4250 -0.4292 -0.0161
  178SAPS  H13R20340   1.141   4.482   3.911 -2.3898  0.1818 -0.6057
  178SAPS  H13S20341   1.236   4.349   3.831  0.3644  0.0343 -0.9255
  178SAPS  C21420342   1.062   4.292   3.948  0.8416 -0.6107 -0.4516
  178SAPS  H14R20343   1.033   4.199   3.896 -0.0731  0.4994 -2.0251
  178SAPS  C21520344   1.025   4.313   4.085  0.5296  0.3915  0.2243
  178SAPS  H15R20345   0.963   4.232   4.126  0.5597  1.4048  2.4252
  178SAPS  C21620346   1.063   4.426   4.179 -0.2774 -0.0340 -0.5191
  178SAPS  H16R20347   0.991   4.431   4.264  1.4930 -2.6715  1.3155
  178SAPS  H16S20348   1.070   4.518   4.117  0.6423 -1.5624 -2.7880
  178SAPS  C21720349   1.198   4.397   4.257 -0.7602 -0.3445 -0.0923
  178SAPS  H17R20350   1.213   4.487   4.320  1.4890 -0.4917 -0.3377
  178SAPS  H17S20351   1.279   4.394   4.182  1.1404  1.5342  1.7463
  178SAPS  C21820352   1.195   4.273   4.351 -1.0168  0.5131 -0.2315
  178SAPS  H18R20353   1.194   4.177   4.294  1.7553  1.6192 -2.3687
  178SAPS  H18S20354   1.099   4.290   4.404 -1.2273 -1.7057  0.1890
  178SAPS  C21920355   1.316   4.263   4.448  0.9440 -0.2072  0.3775
  178SAPS  H19R20356   1.284   4.192   4.527  0.2532  1.3387  1.5362
  178SAPS  H19S20357   1.330   4.365   4.490  0.9000 -0.3946  0.8522
  178SAPS  C22020358   1.446   4.215   4.383  0.2778  0.0762 -0.8666
  178SAPS  H20R20359   1.465   4.280   4.295  1.6104  2.0187  0.7656
  178SAPS  H20S20360   1.421   4.118   4.334 -2.0160  0.7543 -1.1315
  178SAPS  H20T20361   1.537   4.220   4.447 -1.9235  0.6433  2.4509
  178SAPS   C3320362   1.483   3.768   3.181 -0.8699  0.2068 -0.7052
  178SAPS   H3X20363   1.544   3.729   3.096 -0.0121 -1.5962  0.6597
  178SAPS   H3Y20364   1.409   3.690   3.211  0.4465  0.3250  3.3182
  178SAPS   C3420365   1.577   3.799   3.302 -0.3931 -0.1824  0.1516
  178SAPS   H4X20366   1.657   3.873   3.283  0.7894 -1.7171 -1.1644
  178SAPS   H4Y20367   1.626   3.703   3.329 -0.4488 -1.0367 -2.5081
  178SAPS   C3520368   1.497   3.850   3.423 -0.0036  0.3960  0.2796
  178SAPS   H5X20369   1.400   3.796   3.438  0.4528 -0.1016  1.5888
  178SAPS   H5Y20370   1.469   3.953   3.393  0.2266  0.2922 -0.3121
  178SAPS   C3620371   1.575   3.858   3.557 -0.5342 -0.0196 -0.2408
  178SAPS   H6X20372   1.660   3.928   3.541  0.5043 -1.3789 -0.8225
  178SAPS   H6Y20373   1.623   3.760   3.576  1.3224  1.5057  4.9202
  178SAPS   C3720374   1.491   3.897   3.677 -0.1335 -0.4552  0.3055
  178SAPS   H7X20375   1.393   3.843   3.672 -0.9016  0.8475  0.7957
  178SAPS   H7Y20376   1.459   4.002   3.660  2.8736  0.5943  0.5972
  178SAPS   C3820377   1.547   3.859   3.819 -0.7320 -0.9209 -0.2844
  178SAPS   H8X20378   1.645   3.911   3.827 -0.0665 -1.8483 -1.7975
  178SAPS   H8Y20379   1.573   3.751   3.822  1.0978 -0.4914  0.7505
  178SAPS   C3920380   1.457   3.894   3.933 -0.1015  0.3285  0.3534
  178SAPS   H9X20381   1.483   3.832   4.022 -2.7126 -0.8453  0.3998
  178SAPS   H9Y20382   1.361   3.842   3.910  0.1534  0.4785 -1.1171
  178SAPS  C31020383   1.420   4.040   3.978 -0.0886  0.0861  0.7190
  178SAPS  H10X20384   1.354   4.018   4.064 -1.9529 -0.8499 -0.8616
  178SAPS  H10Y20385   1.349   4.095   3.913  0.1927  0.6949  0.9136
  178SAPS  C31120386   1.547   4.130   3.990  0.0763 -0.0876  0.3509
  178SAPS  H11X20387   1.511   4.230   4.024  1.5604  0.0467  1.6238
  178SAPS  H11Y20388   1.590   4.140   3.889 -2.9329  0.5386 -0.9819
  178SAPS  C31220389   1.650   4.075   4.092  0.0133 -0.7705 -0.3106
  178SAPS  H12X20390   1.690   3.978   4.055  1.0128 -0.7475  0.6656
  178SAPS  H12Y20391   1.587   4.048   4.179 -0.6528 -0.9661 -0.8425
  178SAPS  C31320392   1.755   4.163   4.155 -0.0827 -0.0586 -0.4521
  178SAPS  H13X20393   1.701   4.255   4.188  1.9693  1.1683 -0.3175
  178SAPS  H13Y20394   1.837   4.184   4.083 -0.4107 -0.4721 -0.9533
  178SAPS  C31420395   1.823   4.106   4.277  1.3709  0.3048 -0.1420
  178SAPS  H14X20396   1.882   4.016   4.248  1.0185 -0.0287  0.1753
  178SAPS  H14Y20397   1.754   4.060   4.351  0.0648 -0.9966 -2.0743
  178SAPS  C31520398   1.917   4.200   4.347  0.0673 -0.5704 -0.1983
  178SAPS  H15X20399   1.867   4.298   4.362 -0.2607 -0.3389 -2.3892
  178SAPS  H15Y20400   2.011   4.214   4.290  1.3285  2.7382  2.3609
  178SAPS  C31620401   1.967   4.143   4.485 -0.5043  0.2702  0.9258
  178SAPS  H16X20402   1.879   4.137   4.553 -0.4767 -3.0420  0.8323
  178SAPS  H16Y20403   2.043   4.209   4.533  0.6234  0.0692 -0.4992
  178SAPS  C31720404   2.037   4.005   4.486 -0.1126 -0.3041  0.9234
  178SAPS  H17X20405   1.968   3.920   4.464 -0.9006  0.3075  1.0188
  178SAPS  H17Y20406   2.079   3.981   4.586  3.3938  3.3925  0.5798
  178SAPS  C31820407   2.156   3.990   4.392  0.1921  0.2209  0.5519
  178SAPS  H18X20408   2.179   3.881   4.394  2.4547  0.6618  1.9581
  178SAPS  H18Y20409   2.248   4.039   4.429 -0.0411  3.0226 -2.1399
  178SAPS  H18Z20410   2.140   4.035   4.292  0.4514  0.3276  0.5560
  179SAPS     N20411   2.684   0.543   1.863  0.1577 -0.2230  0.0260
  179SAPS   HN120412   2.726   0.503   1.777 -0.0839 -1.4809  0.4791
  179SAPS   HN220413   2.682   0.645   1.842 -2.6114 -0.5135 -1.5595
  179SAPS   HN320414   2.746   0.513   1.941  2.1449 -0.6898 -1.6407
  179SAPS   C1220415   2.550   0.478   1.885 -0.0225  0.0591  0.6381
  179SAPS  H12A20416   2.501   0.530   1.966 -0.7369  2.4159 -1.1931
  179SAPS   C1320417   2.451   0.477   1.763  0.0015  0.2899 -0.3292
  179SAPS  O13A20418   2.480   0.543   1.665  0.4961  0.4434  0.2973
  179SAPS  O13B20419   2.356   0.393   1.762  0.5605 -0.5496  0.1075
  179SAPS   C1120420   2.584   0.336   1.921  0.0722  0.6477 -0.1258
  179SAPS  H11A20421   2.638   0.300   1.831  2.1425  0.7550  1.0272
  179SAPS  H11B20422   2.493   0.272   1.923 -1.1010  2.1057 -2.8250
  179SAPS     P20423   2.631   0.241   2.163  0.4357 -0.0943  0.1245
  179SAPS   O1320424   2.581   0.111   2.121  0.8867  0.1479  0.3440
  179SAPS   O1420425   2.746   0.232   2.254  0.4653 -0.4459 -0.1386
  179SAPS   O1220426   2.670   0.322   2.033 -0.6612  0.2369 -0.8006
  179SAPS   O1120427   2.527   0.320   2.243  0.3773 -0.2359 -0.2137
  179SAPS    C120428   2.568   0.449   2.298  0.3192 -0.4978  0.3060
  179SAPS    HA20429   2.672   0.476   2.271  0.3787 -1.5343 -0.5742
  179SAPS    HB20430   2.502   0.531   2.264  1.8496  0.8262  0.3998
  179SAPS    C220431   2.565   0.452   2.453 -0.4417 -0.6492  0.0231
  179SAPS    HS20432   2.646   0.378   2.473  1.5416  0.9748 -1.5683
  179SAPS   O2120433   2.429   0.428   2.503 -0.0220 -1.0975 -0.0694
  179SAPS   C2120434   2.408   0.323   2.583  0.4557  0.1876 -0.1142
  179SAPS   O2220435   2.486   0.234   2.595  0.5112  0.1251  0.3408
  179SAPS   C2220436   2.266   0.328   2.644 -0.0635 -0.0693  0.2576
  179SAPS   H2R20437   2.233   0.434   2.644 -0.2667 -0.0873 -1.8046
  179SAPS   H2S20438   2.193   0.268   2.585 -0.5441  0.6353  0.1280
  179SAPS    C320439   2.603   0.583   2.524  0.3636 -0.2434  0.4543
  179SAPS    HX20440   2.533   0.667   2.502  1.4120  0.0422 -2.2565
  179SAPS    HY20441   2.701   0.618   2.485  0.4728  1.3947  2.0574
  179SAPS   O3120442   2.604   0.573   2.668 -0.1032  0.1910 -0.2375
  179SAPS   C3120443   2.727   0.543   2.714 -0.6346 -0.5902 -0.0947
  179SAPS   O3220444   2.821   0.503   2.649  0.0777  0.3364 -0.2008
  179SAPS   C3220445   2.725   0.551   2.870 -0.3761  0.2773 -0.7598
  179SAPS   H2X20446   2.621   0.532   2.904  0.2876 -1.7226  0.2732
  179SAPS   H2Y20447   2.753   0.650   2.910 -2.2007  0.0623  1.2341
  179SAPS   C2320448   2.262   0.290   2.792 -0.5874 -0.2376 -0.3624
  179SAPS   H3R20449   2.310   0.189   2.796 -3.1196 -1.4865  0.5845
  179SAPS   H3S20450   2.157   0.283   2.827 -0.7974 -2.2947 -1.2271
  179SAPS   C2420451   2.333   0.382   2.892  0.2328  0.1569 -0.2419
  179SAPS   H4R20452   2.442   0.368   2.875  0.5572  1.2270  0.8507
  179SAPS   H4S20453   2.305   0.327   2.984 -0.9622 -0.5909 -1.0194
  179SAPS   C2520454   2.292   0.525   2.888  0.3296 -0.3139  0.1310
  179SAPS   H5R20455   2.325   0.583   2.801 -1.8941  1.7053  0.5524
  179SAPS   C2620456   2.223   0.583   2.981  0.0967  0.1108 -0.5194
  179SAPS   H6R20457   2.194   0.687   2.963  1.9665  0.5497 -1.1856
  179SAPS   C2720458   2.170   0.517   3.101  0.4093  0.5711 -0.2539
  179SAPS   H7R20459   2.181   0.592   3.183  1.0570  1.0149 -0.7406
  179SAPS   H7S20460   2.230   0.429   3.132  0.1220  0.7985  1.0263
  179SAPS   C2820461   2.026   0.470   3.097  0.1202  0.5902 -0.1184
  179SAPS   H8R20462   1.981   0.474   2.997  0.6368  0.3838 -0.3604
  179SAPS   C2920463   1.958   0.418   3.201 -0.1637 -0.0141  0.4155
  179SAPS   H9R20464   1.851   0.398   3.187 -0.4160  0.6844  1.2900
  179SAPS  C21020465   2.014   0.405   3.340  0.2415 -0.0286 -0.4503
  179SAPS  H10R20466   2.120   0.372   3.339  1.2367  2.8469 -0.6256
  179SAPS  H10S20467   1.969   0.320   3.395  1.1019 -1.0223 -1.2581
  179SAPS  C21120468   2.012   0.532   3.420  0.7272 -0.8306 -0.2171
  179SAPS  H11R20469   1.988   0.622   3.361  2.6085  1.7222  2.6097
  179SAPS  C21220470   2.024   0.542   3.557  0.8218 -0.9926  0.7151
  179SAPS  H12R20471   2.020   0.646   3.595  3.7644 -0.6461  0.3749
  179SAPS  C21320472   2.053   0.430   3.656  0.5460  0.9224  0.3549
  179SAPS  H13R20473   2.144   0.456   3.714  0.9956 -3.1934  1.8975
  179SAPS  H13S20474   2.068   0.334   3.601  0.8287 -0.1529  2.2026
  179SAPS  C21420475   1.945   0.410   3.757 -0.3565  0.0958  0.4641
  179SAPS  H14R20476   1.868   0.488   3.759 -2.5182 -1.9398  2.3582
  179SAPS  C21520477   1.925   0.295   3.830 -0.2975  0.2879 -0.0095
  179SAPS  H15R20478   1.831   0.275   3.883 -0.0635 -1.8431 -0.3196
  179SAPS  C21620479   2.016   0.173   3.826 -0.2544 -0.3600 -0.3645
  179SAPS  H16R20480   2.119   0.209   3.847 -0.2622 -0.3171 -0.3982
  179SAPS  H16S20481   2.008   0.125   3.726  1.9340  0.7314 -1.1316
  179SAPS  C21720482   1.989   0.076   3.940  0.9362  0.4900  0.0032
  179SAPS  H17R20483   2.061  -0.008   3.929 -0.1078 -0.4519  0.1223
  179SAPS  H17S20484   1.888   0.038   3.916  2.2062 -0.8247 -4.1903
  179SAPS  C21820485   1.989   0.134   4.087 -0.2381 -0.0458 -0.0612
  179SAPS  H18R20486   1.911   0.211   4.102  0.6651  0.6778  1.2328
  179SAPS  H18S20487   2.086   0.185   4.108  1.0075 -2.9413  1.9970
  179SAPS  C21920488   1.976   0.025   4.199 -0.4920  0.0846  0.2821
  179SAPS  H19R20489   1.887  -0.039   4.182 -0.1401 -1.3031  3.1085
  179SAPS  H19S20490   1.943   0.073   4.294 -1.3674 -0.6477  0.3658
  179SAPS  C22020491   2.097  -0.063   4.217 -0.2240  0.1777 -0.4684
  179SAPS  H20R20492   2.109  -0.133   4.132 -0.3711 -0.0176 -0.3291
  179SAPS  H20S20493   2.081  -0.132   4.303  0.5626 -0.8190 -1.1008
  179SAPS  H20T20494   2.192  -0.010   4.241 -0.4731  0.4129  0.0170
  179SAPS   C3320495   2.808   0.436   2.934  0.7013 -0.4752 -0.2801
  179SAPS   H3X20496   2.907   0.432   2.884  0.3592  0.4811 -1.0724
  179SAPS   H3Y20497   2.765   0.336   2.914 -1.8615  0.1374  1.6595
  179SAPS   C3420498   2.808   0.447   3.087 -0.3032 -0.2061 -0.0483
  179SAPS   H4X20499   2.860   0.350   3.103 -0.5771 -0.2713  0.4590
  179SAPS   H4Y20500   2.706   0.421   3.122 -0.6441 -3.7800 -3.0832
  179SAPS   C3520501   2.893   0.565   3.143  0.3600 -0.0561 -0.3281
  179SAPS   H5X20502   2.834   0.657   3.122 -1.1402 -1.1043 -0.7919
  179SAPS   H5Y20503   2.991   0.561   3.089  0.0906 -1.8946 -0.7411
  179SAPS   C3620504   2.922   0.564   3.291 -0.2819 -0.8866  0.4009
  179SAPS   H6X20505   2.828   0.590   3.345 -0.9767 -0.0161 -1.1384
  179SAPS   H6Y20506   2.993   0.647   3.314 -1.1025  0.0468 -0.3205
  179SAPS   C3720507   2.989   0.437   3.353  0.0518 -0.9872  0.4868
  179SAPS   H7X20508   3.090   0.423   3.310 -0.2777  1.4187 -1.3134
  179SAPS   H7Y20509   2.927   0.348   3.327  0.7472 -1.7890  1.5114
  179SAPS   C3820510   3.005   0.441   3.506 -0.0231 -0.3778  1.7877
  179SAPS   H8X20511   2.898   0.467   3.524 -0.8372 -0.2408 -2.3214
  179SAPS   H8Y20512   3.077   0.521   3.535  0.3001  0.0984 -0.1808
  179SAPS   C3920513   3.058   0.308   3.553  1.1400  0.9371 -0.2518
  179SAPS   H9X20514   3.168   0.318   3.564  1.1835 -0.5261  0.9783
  179SAPS   H9Y20515   3.046   0.219   3.488 -0.7987  0.1993  1.0090
  179SAPS  C31020516   3.003   0.263   3.689 -0.5110 -0.4386  0.2681
  179SAPS  H10X20517   2.897   0.234   3.673 -0.2284 -1.4624  0.1838
  179SAPS  H10Y20518   3.008   0.351   3.756 -0.7785  1.0031 -1.5336
  179SAPS  C31120519   3.067   0.134   3.744  1.0325 -0.4416 -0.0215
  179SAPS  H11X20520   3.076   0.057   3.665 -0.2307 -0.9254  0.2944
  179SAPS  H11Y20521   2.989   0.107   3.819  3.6887 -1.8422  2.4805
  179SAPS  C31220522   3.198   0.166   3.828  0.7857 -0.1682 -0.1613
  179SAPS  H12X20523   3.172   0.222   3.920 -2.1721 -0.4754 -0.7062
  179SAPS  H12Y20524   3.261   0.235   3.767  0.4990 -1.5942 -2.1685
  179SAPS  C31320525   3.276   0.043   3.860 -1.0057  0.5109 -0.3511
  179SAPS  H13X20526   3.308  -0.008   3.767  0.8126 -1.6205  1.3421
  179SAPS  H13Y20527   3.209  -0.021   3.921  0.1443 -4.0234 -3.3822
  179SAPS  C31420528   3.414   0.066   3.940 -0.6185 -0.1069  0.5759
  179SAPS  H14X20529   3.405   0.147   4.016 -0.9960  0.6781 -0.2824
  179SAPS  H14Y20530   3.483   0.092   3.858 -0.6711  1.0158  0.8615
  179SAPS  C31520531   3.455  -0.053   4.023 -0.1507  0.0314 -0.2168
  179SAPS  H15X20532   3.503  -0.132   3.961  0.9620  0.4808  0.0460
  179SAPS  H15Y20533   3.367  -0.095   4.077 -1.1748  0.2459 -1.6504
  179SAPS  C31620534   3.569  -0.021   4.117 -0.1553 -0.1286  0.3458
  179SAPS  H16X20535   3.533   0.056   4.190 -1.6023  0.1613 -0.6280
  179SAPS  H16Y20536   3.646   0.036   4.060  0.6514 -0.9225  0.6251
  179SAPS  C31720537   3.627  -0.149   4.181  0.9505  0.2123  0.6629
  179SAPS  H17X20538   3.715  -0.123   4.245  1.6102 -1.0856  0.3006
  179SAPS  H17Y20539   3.660  -0.213   4.096 -1.7022 -0.2639 -0.1000
  179SAPS  C31820540   3.526  -0.225   4.269 -0.0579 -0.3936 -0.7984
  179SAPS  H18X20541   3.578  -0.313   4.312 -3.6153 -1.6523  1.3578
  179SAPS  H18Y20542   3.446  -0.277   4.213 -1.6600 -0.6958  1.6272
  179SAPS  H18Z20543   3.477  -0.163   4.347  0.9409  0.8464 -1.1168
  180SAPS     N20544   3.365   5.566   2.153 -0.8807  0.2653  0.6472
  180SAPS   HN120545   3.268   5.598   2.173 -0.7521 -0.5533  2.8223
  180SAPS   HN220546   3.355   5.481   2.094 -2.6136  0.7377  0.1940
  180SAPS   HN320547   3.398   5.520   2.240 -1.3953 -1.0650  0.1527
  180SAPS   C1220548   3.462   5.674   2.104 -0.5390 -0.1664  0.6386
  180SAPS  H12A20549   3.523   5.712   2.185  1.8098 -1.1183 -0.5946
  180SAPS   C1320550   3.580   5.626   2.012 -0.4475  0.0657 -0.4015
  180SAPS  O13A20551   3.582   5.507   1.984 -0.0603  0.0433 -0.3682
  180SAPS  O13B20552   3.680   5.705   2.000  0.1655  0.1781  0.5240
  180SAPS   C1120553   3.384   5.790   2.023 -0.1001  0.5953  0.3896
  180SAPS  H11A20554   3.314   5.743   1.951 -1.5239  0.5668  1.7482
  180SAPS  H11B20555   3.452   5.867   1.980 -1.0639  2.2173  1.6587
  180SAPS     P20556   3.171   5.938   2.082 -0.0957 -0.0099  0.1760
  180SAPS   O1320557   3.182   6.010   1.947  0.1687  0.3966  0.0007
  180SAPS   O1420558   3.056   5.848   2.103 -0.2296 -0.0351  0.6226
  180SAPS   O1220559   3.303   5.866   2.115 -1.0774 -0.5397  0.2983
  180SAPS   O1120560   3.179   6.042   2.199  0.4593 -0.4143  0.6539
  180SAPS    C120561   3.226   6.014   2.326  0.6946 -0.2762 -0.8569
  180SAPS    HA20562   3.336   5.998   2.326  0.8968  1.0279 -0.5237
  180SAPS    HB20563   3.220   6.108   2.384  0.7777 -0.6038 -0.3110
  180SAPS    C220564   3.156   5.897   2.399  0.3509 -0.0381  0.1210
  180SAPS    HS20565   3.167   5.812   2.329  0.3957 -0.3962  0.5561
  180SAPS   O2120566   3.025   5.940   2.406  0.5326 -0.5599 -0.4282
  180SAPS   C2120567   2.933   5.844   2.420 -0.6309  0.8995  1.1811
  180SAPS   O2220568   2.956   5.727   2.401 -0.3686 -0.1484 -0.2731
  180SAPS   C2220569   2.792   5.885   2.455  0.0394 -0.3424 -0.2872
  180SAPS   H2R20570   2.773   5.978   2.398  2.1114  0.8708  0.8613
  180SAPS   H2S20571   2.717   5.809   2.423  0.9964 -1.4882  0.0903
  180SAPS    C320572   3.225   5.855   2.528 -0.1931 -0.2099 -0.1784
  180SAPS    HX20573   3.310   5.794   2.491 -0.3779  0.2743 -1.4650
  180SAPS    HY20574   3.155   5.795   2.590  0.2201 -0.2069  0.2997
  180SAPS   O3120575   3.276   5.959   2.611  0.2152  0.5418  0.6618
  180SAPS   C3120576   3.376   5.937   2.697 -0.3907  0.2387  0.1021
  180SAPS   O3220577   3.439   5.832   2.709  0.1064  0.0564 -0.3152
  180SAPS   C3220578   3.392   6.063   2.773 -0.6585  0.6886 -0.1296
  180SAPS   H2X20579   3.294   6.115   2.774 -1.8522 -1.3292 -2.3006
  180SAPS   H2Y20580   3.471   6.128   2.729  2.2872 -1.8320  1.0877
  180SAPS   C2320581   2.771   5.908   2.601 -0.2417 -0.0512 -0.2638
  180SAPS   H3R20582   2.811   5.819   2.654 -3.1388 -2.5649 -1.9909
  180SAPS   H3S20583   2.663   5.906   2.629 -0.0680  0.7505  0.4995
  180SAPS   C2420584   2.841   6.027   2.655 -0.0116  0.6913  0.4242
  180SAPS   H4R20585   2.805   6.124   2.614  0.3563  0.2796 -0.9225
  180SAPS   H4S20586   2.948   6.019   2.624  0.3432  1.6981  1.3003
  180SAPS   C2520587   2.823   6.033   2.803  0.4928 -0.3004 -0.4814
  180SAPS   H5R20588   2.728   6.076   2.837  0.6869 -0.7654  0.7095
  180SAPS   C2620589   2.892   5.971   2.902 -0.1591  0.4401  0.0665
  180SAPS   H6R20590   2.866   5.988   3.008 -2.0830  0.5619 -0.3989
  180SAPS   C2720591   3.023   5.899   2.879  0.0048 -0.2741  0.4616
  180SAPS   H7R20592   3.081   5.942   2.964  2.1128  0.6777 -1.3616
  180SAPS   H7S20593   3.083   5.933   2.792 -0.9504 -0.6266 -0.3580
  180SAPS   C2820594   3.006   5.745   2.863  0.3279 -0.5263 -0.0487
  180SAPS   H8R20595   2.922   5.710   2.801 -2.1038  2.0290  1.5670
  180SAPS   C2920596   3.074   5.657   2.924 -0.0344  0.3204 -0.8917
  180SAPS   H9R20597   3.035   5.555   2.911 -0.0551  0.1113  0.6396
  180SAPS  C21020598   3.193   5.668   3.020 -0.0789 -0.2352 -0.3386
  180SAPS  H10R20599   3.157   5.668   3.125  0.2900 -0.1226 -0.2131
  180SAPS  H10S20600   3.238   5.766   2.995  0.4468 -0.4537 -0.2742
  180SAPS  C21120601   3.289   5.547   3.001 -0.3108  0.0460  0.1098
  180SAPS  H11R20602   3.253   5.466   2.936  3.6840 -1.4690 -0.5453
  180SAPS  C21220603   3.418   5.523   3.045  0.1929 -0.4044 -0.1018
  180SAPS  H12R20604   3.473   5.427   3.037  1.3033 -0.1400  2.9404
  180SAPS  C21320605   3.501   5.619   3.126 -0.1548 -0.0799  0.2876
  180SAPS  H13R20606   3.560   5.558   3.197  2.0057  0.7483 -0.7057
  180SAPS  H13S20607   3.434   5.686   3.185 -1.8711 -3.0191  1.8974
  180SAPS  C21420608   3.592   5.699   3.038  0.1296 -0.2010  0.1920
  180SAPS  H14R20609   3.603   5.658   2.936 -1.8687  0.5288 -0.3590
  180SAPS  C21520610   3.657   5.807   3.076 -0.2734 -0.1039 -0.6005
  180SAPS  H15R20611   3.727   5.852   3.004  1.3613 -2.4084 -0.5925
  180SAPS  C21620612   3.659   5.872   3.213  0.9202 -0.2589  0.5105
  180SAPS  H16R20613   3.562   5.846   3.260  1.8434 -2.8860  1.0991
  180SAPS  H16S20614   3.672   5.982   3.200  2.5187 -0.6726 -2.3330
  180SAPS  C21720615   3.771   5.831   3.317  0.7003  0.6481  0.3925
  180SAPS  H17R20616   3.872   5.861   3.285 -0.1651  0.8058 -2.4255
  180SAPS  H17S20617   3.773   5.720   3.313  0.5019  0.6584  0.0362
  180SAPS  C21820618   3.748   5.896   3.459  0.0324  0.0753 -0.0580
  180SAPS  H18R20619   3.641   5.889   3.491  0.7562 -0.8053  2.3699
  180SAPS  H18S20620   3.775   6.004   3.453  2.8964 -0.5589  0.3215
  180SAPS  C21920621   3.840   5.838   3.566 -0.7458  0.3226  0.6899
  180SAPS  H19R20622   3.812   5.902   3.652  1.1676  2.3256 -0.0757
  180SAPS  H19S20623   3.949   5.861   3.561 -0.8007  0.5894  0.6968
  180SAPS  C22020624   3.813   5.693   3.595 -0.6887 -0.4194 -0.3199
  180SAPS  H20R20625   3.705   5.690   3.622 -0.5527 -3.0318  0.2600
  180SAPS  H20S20626   3.838   5.635   3.503 -0.1139 -0.9132  0.1394
  180SAPS  H20T20627   3.873   5.658   3.681 -1.2626  1.0113  0.6905
  180SAPS   C3320628   3.451   6.027   2.917  0.3952  0.0925 -0.0327
  180SAPS   H3X20629   3.542   5.965   2.902 -0.8400 -2.2447  1.4721
  180SAPS   H3Y20630   3.370   5.971   2.968  1.3216  0.0563  1.4834
  180SAPS   C3420631   3.482   6.149   3.006 -0.3779  0.4297 -0.0409
  180SAPS   H4X20632   3.575   6.192   2.962  0.8432 -2.2329 -0.2777
  180SAPS   H4Y20633   3.509   6.102   3.103 -2.3206 -0.5596  0.0683
  180SAPS   C3520634   3.353   6.235   3.017 -0.0649 -0.3291 -0.4281
  180SAPS   H5X20635   3.267   6.190   3.070 -0.3740  0.1483 -0.5254
  180SAPS   H5Y20636   3.300   6.251   2.921  0.9738 -0.5012 -1.0455
  180SAPS   C3620637   3.375   6.378   3.076 -0.3216  0.2127  0.5460
  180SAPS   H6X20638   3.436   6.437   3.003 -1.3491 -0.4634 -0.8944
  180SAPS   H6Y20639   3.428   6.370   3.174 -4.0695 -3.1346  2.5610
  180SAPS   C3720640   3.239   6.452   3.091  0.0479  0.4012  0.4664
  180SAPS   H7X20641   3.196   6.390   3.172 -1.5144 -0.6262 -1.0710
  180SAPS   H7Y20642   3.181   6.455   2.996 -0.1671  0.0945  0.5881
  180SAPS   C3820643   3.232   6.588   3.169 -0.4470  0.0203  0.1269
  180SAPS   H8X20644   3.127   6.616   3.192 -0.0929  1.9311 -0.4231
  180SAPS   H8Y20645   3.288   6.660   3.105  2.1127 -1.4442  0.5839
  180SAPS   C3920646   3.312   6.586   3.300 -0.4182 -0.0420  1.1839
  180SAPS   H9X20647   3.422   6.583   3.290 -0.5339 -0.3898 -0.2885
  180SAPS   H9Y20648   3.276   6.501   3.361 -1.6238 -1.5276 -1.4072
  180SAPS  C31020649   3.301   6.724   3.365 -0.3161  0.4340  0.0114
  180SAPS  H10X20650   3.194   6.753   3.355 -1.5749 -3.0445  1.6211
  180SAPS  H10Y20651   3.367   6.801   3.319  1.4838 -0.7465  0.5106
  180SAPS  C31120652   3.330   6.711   3.518 -0.7588  0.3687  0.4987
  180SAPS  H11X20653   3.301   6.810   3.557  1.6630  1.2183  0.2499
  180SAPS  H11Y20654   3.428   6.668   3.547 -1.4450 -1.4081  0.3265
  180SAPS  C31220655   3.230   6.613   3.591 -0.0292 -0.3006  0.8708
  180SAPS  H12X20656   3.281   6.517   3.567 -2.2868 -0.7409 -3.1861
  180SAPS  H12Y20657   3.133   6.602   3.537 -1.3701  1.0287  2.8577
  180SAPS  C31320658   3.220   6.631   3.740  0.0799 -0.7226 -0.2439
  180SAPS  H13X20659   3.171   6.728   3.762 -0.2194 -1.4476  2.7903
  180SAPS  H13Y20660   3.322   6.643   3.784 -0.1312  2.7688 -0.4334
  180SAPS  C31420661   3.137   6.526   3.802  0.0418 -0.2358  0.2563
  180SAPS  H14X20662   3.186   6.427   3.790 -1.3854 -1.2375  2.1024
  180SAPS  H14Y20663   3.036   6.525   3.756 -0.4895 -0.2468  1.3856
  180SAPS  C31520664   3.119   6.546   3.952  0.5011 -0.4509  0.2651
  180SAPS  H15X20665   3.077   6.648   3.966  0.0978 -0.3583 -1.3403
  180SAPS  H15Y20666   3.216   6.540   4.006  2.5831  0.5256 -3.0258
  180SAPS  C31620667   3.016   6.453   4.012  0.0901 -0.4010  0.2384
  180SAPS  H16X20668   3.053   6.350   4.029 -2.3040 -1.3732  0.0688
  180SAPS  H16Y20669   2.919   6.443   3.958  0.4150  0.3930 -0.5358
  180SAPS  C31720670   2.967   6.495   4.153  0.0861  0.3658 -0.2193
  180SAPS  H17X20671   2.887   6.428   4.189 -1.1062  2.8249  2.0149
  180SAPS  H17Y20672   2.919   6.594   4.142  1.1281  0.7967 -1.0357
  180SAPS  C31820673   3.078   6.511   4.255 -0.6037 -0.4311 -0.1796
  180SAPS  H18X20674   3.049   6.518   4.362 -0.8667 -1.3791 -0.1800
  180SAPS  H18Y20675   3.139   6.602   4.235 -0.3387 -0.3793  0.8252
  180SAPS  H18Z20676   3.147   6.424   4.251  0.7722  0.6349 -0.1740
  181POPC     N20677   3.957   5.034   6.323  0.7052  0.0208  0.1868
  181POPC   C1220678   3.953   5.191   6.339  0.0892 -0.2956  0.1297
  181POPC  H12A20679   4.047   5.218   6.385  1.9646 -0.5950 -3.1928
  181POPC  H12B20680   3.881   5.223   6.412 -1.3138  0.5024 -1.5154
  181POPC   C1320681   4.067   5.000   6.240  0.3694 -0.3717  0.7569
  181POPC  H13A20682   4.049   5.035   6.139  0.8894  0.3105  0.9022
  181POPC  H13B20683   4.145   5.064   6.276  0.3446  0.1154 -0.0335
  181POPC  H13C20684   4.082   4.893   6.239 -0.2773 -0.4677  0.5274
  181POPC   C1420685   3.974   4.976   6.449 -0.5000  0.4104 -0.4895
  181POPC  H14A20686   3.986   4.870   6.440  2.0650  0.6284 -0.2031
  181POPC  H14B20687   4.063   5.014   6.497 -0.9038  1.1468 -0.2957
  181POPC  H14C20688   3.885   5.000   6.507 -0.0655 -2.3456  1.5228
  181POPC   C1520689   3.835   4.986   6.253 -0.1845 -0.0848  0.3200
  181POPC  H15A20690   3.828   5.032   6.155  0.0983 -2.3984 -0.8637
  181POPC  H15B20691   3.742   4.991   6.307 -0.9757  1.4068 -1.0587
  181POPC  H15C20692   3.839   4.881   6.229 -0.0416  0.2361 -1.1551
  181POPC   C1120693   3.928   5.268   6.206  0.0218 -0.0882  0.5857
  181POPC  H11A20694   3.984   5.213   6.128  2.5717 -0.1451  2.3192
  181POPC  H11B20695   3.969   5.372   6.210 -1.8343  0.6732  0.7012
  181POPC     P20696   3.741   5.322   6.036 -0.2413 -0.1400  0.0339
  181POPC   O1320697   3.769   5.467   6.028  0.3724  0.2711 -0.3110
  181POPC   O1420698   3.600   5.280   6.023  0.6697  0.9515 -0.4308
  181POPC   O1220699   3.790   5.272   6.176  0.7855 -0.6349  0.3033
  181POPC   O1120700   3.843   5.249   5.933 -0.1393  0.0971  0.2030
  181POPC    C120701   3.843   5.109   5.911  0.5252  0.5942 -0.1845
  181POPC    HA20702   3.751   5.062   5.949  0.1045  1.0192 -0.6524
  181POPC    HB20703   3.928   5.056   5.959 -0.1222 -1.0517 -0.7839
  181POPC    C220704   3.858   5.069   5.760 -0.3115 -0.2250 -0.4115
  181POPC    HS20705   3.863   4.959   5.748  0.1143 -0.4139  1.3483
  181POPC   O2120706   3.986   5.122   5.703 -0.0612 -0.6984  0.0659
  181POPC   C2120707   4.018   5.091   5.584 -0.0281  0.4780  0.5072
  181POPC   O2220708   3.966   5.009   5.505  0.3840  0.6733 -0.6256
  181POPC   C2220709   4.150   5.148   5.548  0.0407  0.6228 -0.5549
  181POPC   H2R20710   4.203   5.074   5.484  4.0246  3.1409 -0.4758
  181POPC   H2S20711   4.215   5.159   5.637 -0.1062 -0.5262 -0.2825
  181POPC    C320712   3.722   5.126   5.691 -0.4746 -0.2664  0.3234
  181POPC    HX20713   3.719   5.231   5.727 -0.0165 -0.5040  1.0731
  181POPC    HY20714   3.639   5.077   5.746  0.4401 -1.0996  0.9827
  181POPC   O3120715   3.706   5.125   5.543 -0.1283  0.0183 -0.2237
  181POPC   C3120716   3.642   5.025   5.495 -0.9657 -0.4378  0.0422
  181POPC   O3220717   3.618   4.915   5.548 -0.0706 -0.8622 -0.5902
  181POPC   C3220718   3.586   5.068   5.364 -0.6075  0.3609 -0.3476
  181POPC   H2X20719   3.540   5.169   5.368 -1.9770 -0.2007 -1.3031
  181POPC   H2Y20720   3.509   4.994   5.337 -1.1746  1.6004 -2.3863
  181POPC   C2320721   4.141   5.283   5.470  0.0015  0.3704  0.3699
  181POPC   H3R20722   4.214   5.357   5.509  1.7949 -0.9346 -0.3837
  181POPC   H3S20723   4.043   5.330   5.494 -0.4583 -0.6601  0.5838
  181POPC   C2420724   4.143   5.257   5.318 -0.1492  0.0732  0.0686
  181POPC   H4R20725   4.094   5.160   5.296 -0.8907  0.6163 -0.7762
  181POPC   H4S20726   4.248   5.252   5.282  0.6108  1.7150  1.8533
  181POPC   C2520727   4.078   5.378   5.242  0.4684 -0.5815  0.6035
  181POPC   H5R20728   4.147   5.465   5.249  1.6106 -1.3568 -0.5403
  181POPC   H5S20729   3.978   5.406   5.281  0.1884  0.3432 -0.7216
  181POPC   C2620730   4.066   5.357   5.095  0.7801 -0.4532 -0.4367
  181POPC   H6R20731   4.016   5.259   5.079  0.5366 -0.2363 -1.0520
  181POPC   H6S20732   4.166   5.359   5.046  1.2589  0.5036  0.5417
  181POPC   C2720733   3.986   5.472   5.025 -0.2487 -0.4671 -0.0954
  181POPC   H7R20734   4.030   5.574   5.022 -1.5121  0.0734 -2.2886
  181POPC   H7S20735   3.895   5.478   5.089 -0.0950 -0.1941  0.0977
  181POPC   C2820736   3.944   5.438   4.882  0.1911 -0.3974  0.3734
  181POPC   H8R20737   3.871   5.518   4.857  1.1338  0.5278  0.5381
  181POPC   H8S20738   3.893   5.339   4.886 -1.8120  0.5421 -0.3768
  181POPC   C2920739   4.066   5.453   4.795 -0.3210 -0.2880  0.5333
  181POPC   H9120740   4.150   5.393   4.832 -0.6312 -1.2142 -0.2375
  181POPC  C21020741   4.090   5.522   4.686  0.3514 -0.1260 -0.3599
  181POPC  H10120742   4.184   5.509   4.630  1.3217 -0.5223  1.2807
  181POPC  C21120743   3.990   5.611   4.618 -0.1791  0.1819 -0.2256
  181POPC  H11R20744   3.889   5.596   4.661 -1.1836  4.8416 -0.4109
  181POPC  H11S20745   3.984   5.590   4.509  1.8164  1.5678 -0.6669
  181POPC  C21220746   4.027   5.759   4.638 -0.3580  0.0296  0.2177
  181POPC  H12R20747   4.136   5.775   4.628 -0.8302  3.1628 -0.8764
  181POPC  H12S20748   4.006   5.790   4.743  0.7419  2.5683 -0.2550
  181POPC  C21320749   3.950   5.854   4.541  0.3541 -0.6300 -0.4737
  181POPC  H13R20750   3.841   5.834   4.547  0.0537  0.3142 -1.9905
  181POPC  H13S20751   3.983   5.815   4.442 -0.0684  2.0166 -1.7603
  181POPC  C21420752   3.963   6.004   4.567  0.3253  0.7188  0.6646
  181POPC  H14R20753   4.070   6.031   4.577  1.6508 -3.4278 -0.0731
  181POPC  H14S20754   3.923   6.031   4.667 -2.4053  1.1603 -0.4553
  181POPC  C21520755   3.894   6.089   4.456 -0.0278  0.3630 -1.0225
  181POPC  H15R20756   3.806   6.032   4.418  0.3449 -0.5549 -0.5497
  181POPC  H15S20757   3.953   6.098   4.362 -1.8659  0.5583 -2.2106
  181POPC  C21620758   3.856   6.235   4.505 -0.6796  0.4678 -0.4032
  181POPC  H16R20759   3.936   6.268   4.574 -0.7319 -0.4739  0.1218
  181POPC  H16S20760   3.763   6.228   4.566  0.7988 -0.3389  1.8831
  181POPC  C21720761   3.830   6.330   4.392  0.1704 -0.1281 -0.2259
  181POPC  H17R20762   3.926   6.329   4.334  2.6856 -1.5739  3.5926
  181POPC  H17S20763   3.810   6.433   4.429 -4.0166 -0.4945 -1.0506
  181POPC  C21820764   3.705   6.284   4.309 -0.3192 -0.1036  0.4221
  181POPC  H18R20765   3.663   6.366   4.248  1.2508 -0.0699 -0.6751
  181POPC  H18S20766   3.619   6.251   4.372 -0.7100  3.7058  2.1788
  181POPC  H18T20767   3.733   6.215   4.227 -0.3896  0.2721  0.0781
  181POPC   C3320768   3.700   5.051   5.256 -0.3261 -0.7863  0.1252
  181POPC   H3X20769   3.672   5.011   5.156  1.6888  1.6629 -1.5829
  181POPC   H3Y20770   3.788   4.993   5.292  0.4540 -0.2448 -0.8443
  181POPC   C3420771   3.760   5.197   5.226 -0.3262  0.3161 -0.2229
  181POPC   H4X20772   3.859   5.173   5.182 -0.2886 -1.4436  0.7079
  181POPC   H4Y20773   3.773   5.250   5.323 -1.2023  1.4131 -0.6832
  181POPC   C3520774   3.658   5.270   5.137 -0.6125  0.2723 -0.2960
  181POPC   H5X20775   3.699   5.372   5.123 -0.3263  0.1101 -0.6619
  181POPC   H5Y20776   3.558   5.262   5.185 -0.4259 -2.2715 -0.1599
  181POPC   C3620777   3.639   5.206   4.997  0.1528  0.4080  0.0540
  181POPC   H6X20778   3.582   5.110   4.998  1.4826 -0.4442  2.6106
  181POPC   H6Y20779   3.738   5.191   4.949  0.2126 -1.6943  0.7152
  181POPC   C3720780   3.570   5.304   4.905 -0.2649  0.4957 -0.5069
  181POPC   H7X20781   3.636   5.346   4.826  1.3298  1.1211  1.0891
  181POPC   H7Y20782   3.528   5.382   4.972  0.8760 -0.2257  1.1217
  181POPC   C3820783   3.443   5.254   4.837  0.0107  0.0208 -0.0160
  181POPC   H8X20784   3.373   5.209   4.910 -0.6446  2.1422  0.7382
  181POPC   H8Y20785   3.472   5.173   4.768 -1.4870 -0.3207 -0.2811
  181POPC   C3920786   3.364   5.359   4.757  0.2755 -0.5469  0.2965
  181POPC   H9X20787   3.362   5.441   4.831  0.0064 -2.1819  2.2040
  181POPC   H9Y20788   3.260   5.325   4.735  0.6471 -0.4986 -1.7145
  181POPC  C31020789   3.432   5.412   4.620  0.1610  0.0868 -0.3410
  181POPC  H10X20790   3.408   5.340   4.539  0.4706 -2.7325  1.9197
  181POPC  H10Y20791   3.541   5.392   4.627  0.0213 -0.5738  0.0105
  181POPC  C31120792   3.403   5.563   4.611 -0.2784 -0.0150  0.5169
  181POPC  H11X20793   3.439   5.619   4.700 -0.8903  1.7338 -0.2822
  181POPC  H11Y20794   3.292   5.572   4.617 -0.0982  3.0175  1.1090
  181POPC  C31220795   3.454   5.631   4.481  0.1502  1.1415 -1.1243
  181POPC  H12X20796   3.432   5.558   4.400 -1.2663  0.1173  0.1226
  181POPC  H12Y20797   3.564   5.639   4.485  0.0817  1.9061  2.3934
  181POPC  C31320798   3.395   5.769   4.451  0.5298 -0.2947  0.3029
  181POPC  H13X20799   3.387   5.817   4.551 -1.6878 -1.4862  0.7435
  181POPC  H13Y20800   3.286   5.763   4.431  0.1259 -0.2486  2.2645
  181POPC  C31420801   3.473   5.858   4.362 -0.2456 -0.5576 -0.0328
  181POPC  H14X20802   3.488   5.796   4.271  1.5694 -0.3747  0.0984
  181POPC  H14Y20803   3.575   5.865   4.407  0.2911  1.2582 -1.3961
  181POPC  C31520804   3.418   5.996   4.357 -0.1949  0.2117 -0.0871
  181POPC  H15X20805   3.491   6.062   4.306 -0.6515  2.4704  1.9964
  181POPC  H15Y20806   3.390   6.031   4.459 -1.5940 -0.8288 -0.0837
  181POPC  C31620807   3.284   5.992   4.286 -0.7682  0.2006 -0.4151
  181POPC  H16X20808   3.216   5.914   4.327  1.4545 -0.9803  1.2165
  181POPC  H16Y20809   3.285   5.984   4.175  0.2810  1.5457 -0.5309
  181POPC  H16Z20810   3.224   6.079   4.319  0.8888  0.9298  0.7932
  182POPC     N20811   0.589   5.323   6.918  0.5183 -0.3045  0.2045
  182POPC   C1220812   0.455   5.318   6.840 -0.1873 -0.0786 -0.5949
  182POPC  H12A20813   0.413   5.417   6.827  0.4171  0.8862  3.4881
  182POPC  H12B20814   0.378   5.267   6.896 -1.9394  1.4418 -1.5106
  182POPC   C1320815   0.578   5.417   7.036  0.0459  0.1727 -0.5038
  182POPC  H13A20816   0.551   5.513   6.995 -0.6791 -0.2804 -1.1128
  182POPC  H13B20817   0.500   5.384   7.104  0.9389 -1.1446 -0.0687
  182POPC  H13C20818   0.667   5.429   7.095 -0.4005 -1.2091  0.5011
  182POPC   C1420819   0.608   5.182   6.969 -0.1555 -0.5705 -0.1535
  182POPC  H14A20820   0.526   5.153   7.033  0.4299  2.2662  2.0960
  182POPC  H14B20821   0.606   5.122   6.879  1.2061  1.4341 -1.5894
  182POPC  H14C20822   0.701   5.172   7.022 -0.5008  2.9154  1.3747
  182POPC   C1520823   0.709   5.359   6.843  0.4867 -0.0346  0.5955
  182POPC  H15A20824   0.798   5.328   6.895  0.2455 -1.8732 -0.0082
  182POPC  H15B20825   0.701   5.464   6.819 -1.8733 -0.6168 -1.8099
  182POPC  H15C20826   0.717   5.311   6.746  0.5424  2.8287 -0.9446
  182POPC   C1120827   0.449   5.265   6.694 -0.7344  0.4503  0.3299
  182POPC  H11A20828   0.504   5.332   6.625  0.0945 -1.2323 -0.6946
  182POPC  H11B20829   0.347   5.272   6.651 -1.3624 -1.4009  1.3811
  182POPC     P20830   0.619   5.085   6.610 -0.6059 -0.1633  0.1562
  182POPC   O1320831   0.694   4.994   6.697  0.1329  0.0370  0.2546
  182POPC   O1420832   0.690   5.206   6.565  0.2215 -0.2944  0.3914
  182POPC   O1220833   0.498   5.128   6.688  0.3488 -0.3776 -0.1393
  182POPC   O1120834   0.562   5.009   6.486  0.2249  0.0119  0.2333
  182POPC    C120835   0.431   5.040   6.431 -0.0000  0.0445 -0.0966
  182POPC    HA20836   0.384   5.134   6.467  0.4274  1.0232 -2.0031
  182POPC    HB20837   0.362   4.955   6.452  1.2652 -0.6224  1.6002
  182POPC    C220838   0.445   5.066   6.274 -0.0850 -0.4723  0.5485
  182POPC    HS20839   0.347   5.113   6.250  1.1234  1.8576 -0.1388
  182POPC   O2120840   0.494   4.950   6.205 -0.4547 -0.3735  0.2230
  182POPC   C2120841   0.394   4.865   6.186 -0.5670 -0.6108  0.3500
  182POPC   O2220842   0.275   4.889   6.215 -0.7158  0.5384  0.6254
  182POPC   C2220843   0.443   4.732   6.124 -0.2697  0.1324 -0.2048
  182POPC   H2R20844   0.363   4.658   6.105 -1.3042  1.3824 -0.9037
  182POPC   H2S20845   0.520   4.685   6.189 -0.6778 -3.6564 -2.1853
  182POPC    C320846   0.542   5.190   6.252  0.0157 -0.4683  0.1928
  182POPC    HX20847   0.648   5.160   6.269  0.3238  0.2412 -0.4354
  182POPC    HY20848   0.507   5.265   6.326 -0.9383 -0.7379  0.0247
  182POPC   O3120849   0.530   5.249   6.124 -0.1824 -0.1821  0.2054
  182POPC   C3120850   0.432   5.329   6.095  0.3138  0.0918  0.8666
  182POPC   O3220851   0.347   5.378   6.167  0.5928  0.3472  0.2014
  182POPC   C3220852   0.440   5.346   5.939  0.5936  0.3909  0.0466
  182POPC   H2X20853   0.448   5.244   5.898 -1.0624  0.5381 -0.7085
  182POPC   H2Y20854   0.526   5.413   5.915  1.6871 -0.6639  0.8987
  182POPC   C2320855   0.502   4.765   5.987 -0.0682  0.1908 -0.1827
  182POPC   H3R20856   0.516   4.669   5.932  0.3005  0.0177  0.2126
  182POPC   H3S20857   0.603   4.810   5.992 -0.0350  0.1351 -0.3511
  182POPC   C2420858   0.422   4.852   5.897 -0.1332  0.0849 -0.2443
  182POPC   H4R20859   0.418   4.953   5.943  1.3652 -1.0079  2.5017
  182POPC   H4S20860   0.319   4.811   5.900  1.0165 -3.1381 -0.6444
  182POPC   C2520861   0.464   4.854   5.753  0.0335 -0.0077 -0.1035
  182POPC   H5R20862   0.454   4.750   5.714  1.0482 -0.1178 -0.1138
  182POPC   H5S20863   0.571   4.884   5.749 -0.3589  1.3943 -2.6347
  182POPC   C2620864   0.373   4.937   5.659  0.5742  1.0221 -0.7579
  182POPC   H6R20865   0.347   5.034   5.706  2.0129  0.8523  0.4457
  182POPC   H6S20866   0.276   4.882   5.658  1.3065 -0.3062 -1.0293
  182POPC   C2720867   0.428   4.936   5.515  0.2835  0.2873 -0.1451
  182POPC   H7R20868   0.451   4.831   5.489  0.6574  0.2635  0.2657
  182POPC   H7S20869   0.526   4.987   5.524  1.0105 -0.8289 -1.4047
  182POPC   C2820870   0.327   4.994   5.416 -0.5980 -0.1610  0.2705
  182POPC   H8R20871   0.242   4.925   5.396 -1.3070  1.0288 -0.9731
  182POPC   H8S20872   0.383   4.988   5.320  0.7916  0.7390  0.9872
  182POPC   C2920873   0.283   5.137   5.445 -0.6130  0.6234  0.1534
  182POPC   H9120874   0.229   5.155   5.539 -0.1584 -1.2563  0.8207
  182POPC  C21020875   0.315   5.248   5.377 -0.4138  0.1385 -0.4401
  182POPC  H10120876   0.263   5.340   5.409 -1.6775  0.0754 -2.1855
  182POPC  C21120877   0.400   5.262   5.252  0.2578  0.8332 -0.1728
  182POPC  H11R20878   0.453   5.168   5.224 -1.0946  0.0685 -0.2442
  182POPC  H11S20879   0.471   5.347   5.249  1.6350 -0.2899 -0.4938
  182POPC  C21220880   0.307   5.287   5.129 -0.1668 -0.0216  0.2530
  182POPC  H12R20881   0.265   5.387   5.151  1.3594  0.7850 -0.3724
  182POPC  H12S20882   0.230   5.207   5.127  1.2913 -1.4624 -0.5125
  182POPC  C21320883   0.401   5.306   5.014  0.8854 -0.7779  0.0841
  182POPC  H13R20884   0.463   5.216   4.996 -0.8390 -1.7338 -1.2414
  182POPC  H13S20885   0.469   5.391   5.037  0.6024 -0.1742 -1.2154
  182POPC  C21420886   0.328   5.347   4.877 -0.4205  0.5810 -0.3499
  182POPC  H14R20887   0.241   5.412   4.899  0.5831  1.3503  1.6090
  182POPC  H14S20888   0.282   5.249   4.854 -1.5635  0.7160  1.1999
  182POPC  C21520889   0.418   5.388   4.769  0.7950 -0.5898 -0.2660
  182POPC  H15R20890   0.363   5.400   4.673 -1.5582 -1.7888  0.8402
  182POPC  H15S20891   0.502   5.319   4.744  0.0576 -0.4919 -3.5582
  182POPC  C21620892   0.476   5.533   4.795 -0.5363  0.6245  0.3404
  182POPC  H16R20893   0.536   5.550   4.703  0.5684 -3.4772  0.1151
  182POPC  H16S20894   0.551   5.530   4.877 -0.1737  2.0142  0.0889
  182POPC  C21720895   0.378   5.649   4.812 -0.1887 -0.5054 -0.2630
  182POPC  H17R20896   0.428   5.738   4.857  0.7507 -1.4304  0.5912
  182POPC  H17S20897   0.308   5.625   4.895  1.5801  0.0664  1.5018
  182POPC  C21820898   0.301   5.692   4.689 -0.3257  0.5014  0.2295
  182POPC  H18R20899   0.214   5.755   4.716  0.3162  1.9666 -0.9665
  182POPC  H18S20900   0.257   5.608   4.630 -1.0428  1.8731 -1.2734
  182POPC  H18T20901   0.360   5.752   4.616 -2.1456  1.1313 -0.7809
  182POPC   C3320902   0.317   5.405   5.869 -0.1462  0.2910 -0.7119
  182POPC   H3X20903   0.285   5.498   5.921 -1.2159  0.5238 -1.7389
  182POPC   H3Y20904   0.233   5.334   5.884  0.4410 -0.5141 -1.1730
  182POPC   C3420905   0.328   5.422   5.715 -0.0229  0.1585  0.1503
  182POPC   H4X20906   0.226   5.454   5.685 -0.2504  0.1450  0.9142
  182POPC   H4Y20907   0.357   5.332   5.657  0.3980 -0.7084  1.6597
  182POPC   C3520908   0.418   5.539   5.687  0.3338 -0.1680 -0.9799
  182POPC   H5X20909   0.524   5.507   5.677  0.7648  1.3415 -1.5828
  182POPC   H5Y20910   0.412   5.616   5.767 -3.6732  0.4293 -1.6702
  182POPC   C3620911   0.380   5.605   5.554  0.5413 -0.6889  0.1323
  182POPC   H6X20912   0.293   5.673   5.565 -0.0156 -1.4977  0.8193
  182POPC   H6Y20913   0.349   5.526   5.482 -0.6615 -1.3843  1.3614
  182POPC   C3720914   0.503   5.676   5.493 -0.3325  0.8571 -0.1645
  182POPC   H7X20915   0.590   5.609   5.476  0.0874  1.7827 -1.8247
  182POPC   H7Y20916   0.542   5.754   5.562 -0.5623 -0.8477  2.0335
  182POPC   C3820917   0.480   5.737   5.356  0.0422  0.6275 -0.2191
  182POPC   H8X20918   0.391   5.803   5.365 -1.7060 -1.6668  0.3374
  182POPC   H8Y20919   0.466   5.665   5.272  0.5647 -0.3465  0.5038
  182POPC   C3920920   0.597   5.825   5.311 -0.1320 -0.3381 -0.1249
  182POPC   H9X20921   0.688   5.778   5.353 -0.1288  0.5273  0.8916
  182POPC   H9Y20922   0.576   5.921   5.364 -1.2792  0.0840 -1.2742
  182POPC  C31020923   0.622   5.845   5.160  0.3318  0.4984  0.5818
  182POPC  H10X20924   0.539   5.904   5.114  0.4145 -0.2045 -0.4835
  182POPC  H10Y20925   0.618   5.744   5.114 -0.2655  0.8249 -0.1069
  182POPC  C31120926   0.756   5.926   5.135 -0.1615  0.6601 -0.0496
  182POPC  H11X20927   0.845   5.864   5.161 -1.4775 -0.5760  1.7139
  182POPC  H11Y20928   0.742   6.011   5.206 -1.6553 -0.1770  0.7048
  182POPC  C31220929   0.785   5.978   4.993 -0.4778  0.0442 -0.6201
  182POPC  H12X20930   0.875   6.042   5.003 -0.9194  0.5305  0.4120
  182POPC  H12Y20931   0.705   6.047   4.957 -0.3468  0.5128 -0.0175
  182POPC  C31320932   0.804   5.880   4.876 -0.0904  0.1928  0.2603
  182POPC  H13X20933   0.719   5.808   4.868 -2.2758  2.5481  1.0280
  182POPC  H13Y20934   0.888   5.814   4.907  0.1296 -0.1674 -1.0326
  182POPC  C31420935   0.817   5.945   4.737 -0.1636  0.5268  0.3974
  182POPC  H14X20936   0.881   6.036   4.739  0.4734  0.2173 -2.0713
  182POPC  H14Y20937   0.719   5.991   4.713 -1.2476 -1.7151  0.2703
  182POPC  C31520938   0.871   5.850   4.631  0.0943  0.0274 -0.4959
  182POPC  H15X20939   0.865   5.756   4.690  2.3075  0.6364  0.8474
  182POPC  H15Y20940   0.978   5.863   4.603  0.3723 -0.4940  0.2805
  182POPC  C31620941   0.781   5.836   4.506 -0.1666  0.0129 -1.3317
  182POPC  H16X20942   0.819   5.749   4.448  0.8685 -0.9919  0.7626
  182POPC  H16Y20943   0.764   5.928   4.446 -1.1769 -0.9926 -2.6401
  182POPC  H16Z20944   0.680   5.807   4.542  0.6738  0.1010  1.3107
  183POPC     N20945   3.224   3.293   6.832  0.2525  0.1235  0.4020
  183POPC   C1220946   3.190   3.416   6.745 -0.1006 -0.1667 -0.2794
  183POPC  H12A20947   3.085   3.435   6.759 -0.0013 -0.4987  1.0648
  183POPC  H12B20948   3.204   3.389   6.641 -3.3690 -1.4646 -0.5062
  183POPC   C1320949   3.131   3.177   6.786 -0.2375 -0.4897  0.2598
  183POPC  H13A20950   3.158   3.086   6.837 -1.0003 -0.1458  1.3223
  183POPC  H13B20951   3.026   3.202   6.796 -0.7052 -1.1856 -2.2097
  183POPC  H13C20952   3.151   3.163   6.680 -0.3419 -0.0740  0.1858
  183POPC   C1420953   3.364   3.245   6.816 -0.0804  0.9542  0.3993
  183POPC  H14A20954   3.389   3.225   6.713 -0.0584 -0.2422  0.6257
  183POPC  H14B20955   3.419   3.335   6.840  1.5060  0.3251 -0.7315
  183POPC  H14C20956   3.389   3.159   6.876 -1.2781  0.8860  0.8294
  183POPC   C1520957   3.203   3.317   6.979  0.4554 -0.0522  0.0926
  183POPC  H15A20958   3.106   3.358   7.004  0.6472 -0.5380  1.7541
  183POPC  H15B20959   3.279   3.389   7.006  0.5232  0.9019 -2.3912
  183POPC  H15C20960   3.223   3.222   7.026  2.3588 -0.6348 -1.7314
  183POPC   C1120961   3.266   3.547   6.776  0.3058  0.1910  0.0770
  183POPC  H11A20962   3.231   3.589   6.873 -0.7962  1.2238 -0.7388
  183POPC  H11B20963   3.220   3.614   6.700 -0.2751  0.4442  0.6476
  183POPC     P20964   3.485   3.578   6.632 -0.0660  0.2859  0.7250
  183POPC   O1320965   3.619   3.518   6.620 -0.5315 -0.2866 -0.3453
  183POPC   O1420966   3.482   3.727   6.631  0.0792  0.5499 -0.7433
  183POPC   O1220967   3.411   3.528   6.765  0.5638  0.5933  0.3147
  183POPC   O1120968   3.394   3.514   6.519  0.2110  0.3345 -0.0468
  183POPC    C120969   3.438   3.398   6.440 -0.5374 -0.4407 -0.1002
  183POPC    HA20970   3.528   3.342   6.475 -0.4065  0.0121  0.2958
  183POPC    HB20971   3.466   3.433   6.339 -0.5957 -0.6052 -0.1748
  183POPC    C220972   3.324   3.303   6.429 -0.1465  0.5203 -0.0877
  183POPC    HS20973   3.311   3.257   6.529  0.9595  2.4318  0.9801
  183POPC   O2120974   3.347   3.203   6.322 -0.0718 -0.3063 -0.5546
  183POPC   C2120975   3.340   3.079   6.365  0.2164 -0.1956 -0.2197
  183POPC   O2220976   3.304   3.044   6.474  0.2942  0.1919 -0.5415
  183POPC   C2220977   3.398   2.990   6.261  0.5396  0.5210 -0.4301
  183POPC   H2R20978   3.440   2.898   6.308 -0.1230  0.3176 -0.2209
  183POPC   H2S20979   3.472   3.046   6.201  0.6773 -1.1366 -1.8949
  183POPC    C320980   3.192   3.376   6.405  0.5030 -0.4830 -0.4028
  183POPC    HX20981   3.196   3.428   6.307  0.2650 -0.5552 -0.4529
  183POPC    HY20982   3.178   3.455   6.481  1.3276 -0.6949 -0.0200
  183POPC   O3120983   3.079   3.282   6.414  0.4198 -0.2216  0.0862
  183POPC   C3120984   3.043   3.217   6.312  0.1514 -0.2680  0.3616
  183POPC   O3220985   3.092   3.224   6.201 -0.1654 -0.2801  0.3879
  183POPC   C3220986   2.928   3.119   6.346 -0.5917  0.3070 -0.3453
  183POPC   H2X20987   2.926   3.085   6.451  1.3816  0.9378 -0.0677
  183POPC   H2Y20988   2.945   3.031   6.281  0.9715 -1.1416  1.9036
  183POPC   C2320989   3.286   2.935   6.165 -0.4952 -0.0065  0.0583
  183POPC   H3R20990   3.234   3.019   6.115  0.4239  0.4881 -0.1047
  183POPC   H3S20991   3.216   2.879   6.230 -0.0317 -0.3731  0.2495
  183POPC   C2420992   3.339   2.847   6.054  0.5858 -0.2973 -0.3057
  183POPC   H4R20993   3.418   2.778   6.091 -0.1295 -1.3992 -0.7705
  183POPC   H4S20994   3.388   2.906   5.973  2.8716 -0.9934  0.4891
  183POPC   C2520995   3.223   2.760   6.000 -0.3228 -0.8516 -0.7411
  183POPC   H5R20996   3.145   2.828   5.962  2.5729  3.3127  0.0590
  183POPC   H5S20997   3.181   2.691   6.076 -1.2905 -1.6896 -1.9880
  183POPC   C2620998   3.267   2.672   5.884 -0.1452  0.6521  0.7957
  183POPC   H6R20999   3.355   2.616   5.921 -1.1613 -1.3587  0.3542
  183POPC   H6S21000   3.302   2.729   5.795 -2.4841  1.9276  0.5982
  183POPC   C2721001   3.158   2.579   5.827  0.8266 -0.0031  1.1283
  183POPC   H7R21002   3.078   2.647   5.792 -0.2017 -0.7020  2.0591
  183POPC   H7S21003   3.106   2.522   5.907  3.6556 -0.4004  2.8384
  183POPC   C2821004   3.199   2.484   5.709 -0.9106 -0.1945 -0.8055
  183POPC   H8R21005   3.261   2.543   5.638 -1.4829 -0.9568 -1.9720
  183POPC   H8S21006   3.103   2.459   5.659  0.3775 -2.3948 -2.3351
  183POPC   C2921007   3.259   2.361   5.775 -0.1098  0.8136  0.6844
  183POPC   H9121008   3.200   2.309   5.852 -0.1192  0.3541  0.3679
  183POPC  C21021009   3.370   2.296   5.726  0.5018 -1.2095 -0.2873
  183POPC  H10121010   3.400   2.203   5.778 -1.5805 -1.8393 -0.1174
  183POPC  C21121011   3.463   2.341   5.615 -0.0105  0.0992 -0.1633
  183POPC  H11R21012   3.560   2.301   5.654 -1.2987 -0.5083  2.7308
  183POPC  H11S21013   3.479   2.450   5.603  1.6186 -0.3120 -2.2918
  183POPC  C21221014   3.415   2.295   5.480  0.5886 -0.0586  0.1656
  183POPC  H12R21015   3.311   2.327   5.455  0.8076 -0.3962 -1.3030
  183POPC  H12S21016   3.413   2.184   5.483 -0.2968 -0.0436  0.5093
  183POPC  C21321017   3.517   2.325   5.370 -0.1593 -0.1244 -0.5944
  183POPC  H13R21018   3.614   2.275   5.393 -0.0674  0.3497  0.0661
  183POPC  H13S21019   3.541   2.433   5.382  0.0963 -0.4154  2.0339
  183POPC  C21421020   3.465   2.293   5.229 -1.1571 -0.1870 -0.6798
  183POPC  H14R21021   3.377   2.359   5.218 -0.3806  1.1514  0.7178
  183POPC  H14S21022   3.442   2.185   5.219 -0.9322 -0.2236 -0.8066
  183POPC  C21521023   3.563   2.331   5.115 -0.0666  0.0111  0.9216
  183POPC  H15R21024   3.596   2.437   5.126  2.5015 -0.7074  0.6464
  183POPC  H15S21025   3.512   2.314   5.017  0.3250  0.0377  0.7113
  183POPC  C21621026   3.684   2.241   5.111  0.5250  0.2408 -0.3655
  183POPC  H16R21027   3.666   2.133   5.094 -0.4979  0.4236 -0.5151
  183POPC  H16S21028   3.736   2.245   5.210  1.2663 -1.2137 -0.6654
  183POPC  C21721029   3.778   2.279   4.997  0.5840  0.4631  0.3820
  183POPC  H17R21030   3.807   2.384   5.021  1.0960 -0.3329  3.5991
  183POPC  H17S21031   3.720   2.297   4.904  1.2932  0.6542 -0.0320
  183POPC  C21821032   3.900   2.180   4.979 -0.3526 -0.4720  0.1504
  183POPC  H18R21033   3.957   2.184   5.075 -0.0834 -2.0559  0.0873
  183POPC  H18S21034   3.980   2.194   4.903 -0.7856 -1.4125 -0.4986
  183POPC  H18T21035   3.866   2.077   4.956 -0.1849 -0.2950 -0.9456
  183POPC   C3321036   2.788   3.175   6.320 -0.1425 -0.4678 -0.0791
  183POPC   H3X21037   2.791   3.283   6.347  3.1664 -0.3446 -0.4890
  183POPC   H3Y21038   2.712   3.119   6.378 -0.3685  0.6724  0.7416
  183POPC   C3421039   2.741   3.175   6.170 -0.6148  1.0357 -0.4922
  183POPC   H4X21040   2.784   3.257   6.108  1.1567  0.8218  0.3885
  183POPC   H4Y21041   2.631   3.182   6.158 -0.5958  3.2535  0.1815
  183POPC   C3521042   2.788   3.052   6.094  0.5669 -0.2304 -0.4068
  183POPC   H5X21043   2.781   2.964   6.161  1.2553 -1.2126 -1.5811
  183POPC   H5Y21044   2.895   3.057   6.064  0.9053 -0.6485  0.6657
  183POPC   C3621045   2.700   3.007   5.977  0.1995  0.8816 -0.1415
  183POPC   H6X21046   2.680   3.096   5.913 -2.1231 -0.8153 -1.9340
  183POPC   H6Y21047   2.601   2.969   6.012  1.1932  0.3722  2.2720
  183POPC   C3721048   2.780   2.916   5.891  0.5535  0.5268  0.6890
  183POPC   H7X21049   2.803   2.821   5.945 -1.3499 -1.1416 -1.2288
  183POPC   H7Y21050   2.873   2.969   5.862  0.8739 -0.3293  0.0877
  183POPC   C3821051   2.688   2.880   5.772  0.7833  0.1933  0.5219
  183POPC   H8X21052   2.650   2.967   5.714 -2.9297 -2.6114 -1.7039
  183POPC   H8Y21053   2.598   2.822   5.801  1.6042 -2.1811 -1.3614
  183POPC   C3921054   2.747   2.789   5.665  0.1230 -0.4996 -0.7397
  183POPC   H9X21055   2.671   2.719   5.625  0.8115 -2.2413  0.8636
  183POPC   H9Y21056   2.827   2.730   5.714  0.5957 -1.7939 -2.9388
  183POPC  C31021057   2.797   2.867   5.541 -0.3616  0.5365  0.1168
  183POPC  H10X21058   2.850   2.958   5.576 -1.6451  1.5250 -0.3927
  183POPC  H10Y21059   2.701   2.905   5.499 -0.6678  1.5647  1.6606
  183POPC  C31121060   2.872   2.783   5.426  0.4035  0.5053  0.0780
  183POPC  H11X21061   2.908   2.862   5.356  2.9159 -0.7703 -0.2077
  183POPC  H11Y21062   2.804   2.712   5.375 -0.4934 -0.1032  2.0075
  183POPC  C31221063   2.996   2.705   5.469  0.3091 -0.1636  0.2131
  183POPC  H12X21064   2.982   2.602   5.508  1.4096  0.1729  1.5766
  183POPC  H12Y21065   3.047   2.759   5.551 -0.4855  0.8082  0.0853
  183POPC  C31321066   3.100   2.708   5.353  0.3746  0.3617 -0.1162
  183POPC  H13X21067   3.201   2.672   5.385  0.0864 -0.6750 -0.3438
  183POPC  H13Y21068   3.107   2.814   5.319  0.9513  0.4414  0.2236
  183POPC  C31421069   3.062   2.630   5.230 -0.4784  0.4151  0.9974
  183POPC  H14X21070   3.000   2.694   5.164  0.1054  0.7639  0.7678
  183POPC  H14Y21071   2.996   2.546   5.258 -0.4598 -0.8676 -2.3615
  183POPC  C31521072   3.177   2.568   5.149  0.7966  0.2360 -0.4207
  183POPC  H15X21073   3.244   2.504   5.210  1.9350 -0.1175 -1.9881
  183POPC  H15Y21074   3.236   2.656   5.116 -0.9906  1.2997 -0.8893
  183POPC  C31621075   3.120   2.483   5.027  0.0117 -0.0834  0.4127
  183POPC  H16X21076   3.206   2.454   4.963  0.7266  1.3781  0.6911
  183POPC  H16Y21077   3.052   2.544   4.964 -0.5557  0.0346  1.1223
  183POPC  H16Z21078   3.078   2.389   5.070  1.0512 -1.1736 -0.8811
  184POPC     N21079   3.733   3.774   6.282 -0.3713 -0.6866  0.2191
  184POPC   C1221080   3.864   3.842   6.338  0.2316  0.1247  0.0245
  184POPC  H12A21081   3.878   3.808   6.439 -1.6643  0.3581  0.3981
  184POPC  H12B21082   3.841   3.948   6.342 -0.5313  0.0713 -1.8510
  184POPC   C1321083   3.616   3.818   6.372 -0.2681  0.3970  0.0092
  184POPC  H13A21084   3.610   3.924   6.387 -0.8399  0.5122 -0.9565
  184POPC  H13B21085   3.522   3.782   6.332  0.1060 -0.9211  0.2436
  184POPC  H13C21086   3.628   3.773   6.469  2.1247  1.2391  0.1668
  184POPC   C1421087   3.716   3.818   6.141  0.2293 -0.6441  0.0668
  184POPC  H14A21088   3.786   3.775   6.070 -0.4301 -1.4777 -0.0908
  184POPC  H14B21089   3.616   3.798   6.107  0.2700 -0.2056 -0.3239
  184POPC  H14C21090   3.715   3.926   6.143  0.4398 -0.6490  0.5430
  184POPC   C1521091   3.738   3.629   6.276  0.6864  0.3034  0.7204
  184POPC  H15A21092   3.798   3.608   6.189  2.3594  1.4803  1.5372
  184POPC  H15B21093   3.640   3.592   6.249  1.0917 -0.2018 -0.1128
  184POPC  H15C21094   3.773   3.587   6.369  0.8767  0.4596  0.7193
  184POPC   C1121095   3.989   3.835   6.250  0.1220  0.1346 -0.2002
  184POPC  H11A21096   4.068   3.902   6.290  0.4443 -0.2259 -0.2266
  184POPC  H11B21097   3.966   3.871   6.147 -1.7629  1.7114  0.7089
  184POPC     P21098   4.100   3.635   6.113  0.0670  0.0743  0.3935
  184POPC   O1321099   4.214   3.550   6.160  0.2133 -0.0915  0.2363
  184POPC   O1421100   4.128   3.744   6.017 -0.1437 -0.1262  0.2321
  184POPC   O1221101   4.047   3.699   6.243  0.2236  0.1118 -0.0968
  184POPC   O1121102   3.973   3.548   6.063 -0.2103  0.4485  0.6044
  184POPC    C121103   3.964   3.405   6.072  0.3430 -0.2872 -0.3720
  184POPC    HA21104   3.937   3.381   6.177 -1.2106  1.4124 -0.3384
  184POPC    HB21105   4.056   3.346   6.055 -0.4965 -2.3575  1.6543
  184POPC    C221106   3.860   3.351   5.971 -0.7049 -0.4484  0.2771
  184POPC    HS21107   3.760   3.395   5.989 -0.0472  0.9569  0.5947
  184POPC   O2121108   3.873   3.209   5.973 -0.1274 -0.1703  0.0429
  184POPC   C2121109   3.811   3.157   6.076 -0.2347 -0.0293 -0.2691
  184POPC   O2221110   3.763   3.217   6.171  0.0340 -0.3368  0.4546
  184POPC   C2221111   3.808   3.006   6.058  0.1303 -0.0310  0.7489
  184POPC   H2R21112   3.805   2.959   6.158 -1.4488 -1.3391  0.1200
  184POPC   H2S21113   3.899   2.969   6.006 -1.5893 -1.9325 -1.0601
  184POPC    C321114   3.893   3.408   5.823  0.4525  0.1146  0.2766
  184POPC    HX21115   3.998   3.375   5.809  0.8545  1.5941 -0.4058
  184POPC    HY21116   3.894   3.519   5.817  0.6823  0.0268 -2.2244
  184POPC   O3121117   3.803   3.350   5.723  0.4842  0.0292 -0.2013
  184POPC   C3121118   3.687   3.417   5.704 -0.0427 -0.5308 -0.3984
  184POPC   O3221119   3.656   3.524   5.759 -0.0783  0.7044  0.1935
  184POPC   C3221120   3.591   3.343   5.612  0.0243 -0.2293  0.2320
  184POPC   H2X21121   3.496   3.400   5.623  0.4714  0.4639  0.5023
  184POPC   H2Y21122   3.583   3.238   5.649  1.7924 -0.1156  0.9904
  184POPC   C2321123   3.685   2.952   5.978 -0.0689  0.2942 -0.1609
  184POPC   H3R21124   3.594   3.002   6.019  0.6763  2.0044 -0.5150
  184POPC   H3S21125   3.692   2.845   6.009 -0.6975  0.7318  1.6126
  184POPC   C2421126   3.693   2.968   5.825  0.0015  0.2361 -0.9684
  184POPC   H4R21127   3.791   2.939   5.781  0.2917  2.9341 -2.2697
  184POPC   H4S21128   3.699   3.077   5.806  1.2846  0.5469  0.9968
  184POPC   C2521129   3.584   2.894   5.748  0.7799 -0.3856  0.5705
  184POPC   H5R21130   3.482   2.931   5.774  1.0245  0.4659  0.3648
  184POPC   H5S21131   3.592   2.789   5.783 -2.7383 -0.5818  1.1745
  184POPC   C2621132   3.607   2.917   5.597  0.1339  0.8653 -0.4841
  184POPC   H6R21133   3.716   2.901   5.582  0.3865 -1.5323  2.7195
  184POPC   H6S21134   3.591   3.023   5.570 -0.1198  1.1348  0.6572
  184POPC   C2721135   3.537   2.813   5.506 -0.7279 -0.2751  0.4959
  184POPC   H7R21136   3.434   2.845   5.481 -0.8090  0.5719  1.8119
  184POPC   H7S21137   3.527   2.716   5.560 -0.2471  0.4154  1.8813
  184POPC   C2821138   3.625   2.789   5.376  0.2506  1.0769 -0.4645
  184POPC   H8R21139   3.584   2.702   5.321 -0.2981  1.9753 -1.5332
  184POPC   H8S21140   3.728   2.765   5.409  0.3197 -0.4029 -1.6562
  184POPC   C2921141   3.619   2.913   5.297 -0.1424  0.2921 -1.0580
  184POPC   H9121142   3.652   3.004   5.349 -1.4738  1.7423 -2.6389
  184POPC  C21021143   3.574   2.921   5.172 -0.3898 -0.0959  0.0958
  184POPC  H10121144   3.592   3.016   5.119  1.3546  0.1599  1.0655
  184POPC  C21121145   3.537   2.809   5.077 -0.1069 -0.0574 -0.0105
  184POPC  H11R21146   3.450   2.825   5.009 -1.8368 -0.4549  2.0235
  184POPC  H11S21147   3.520   2.708   5.119  2.2786 -1.3700 -1.9094
  184POPC  C21221148   3.663   2.782   4.979  0.1190 -1.0344 -0.3139
  184POPC  H12R21149   3.674   2.866   4.908 -0.7505 -1.1578 -0.6131
  184POPC  H12S21150   3.633   2.693   4.919 -0.3452  0.3789 -2.2687
  184POPC  C21321151   3.792   2.758   5.049 -0.1887  0.0504 -0.2205
  184POPC  H13R21152   3.781   2.690   5.136  1.5390  1.5767  1.2914
  184POPC  H13S21153   3.836   2.855   5.082 -0.2109  0.9003 -2.5201
  184POPC  C21421154   3.893   2.697   4.957 -0.1747  0.1819 -0.2745
  184POPC  H14R21155   3.914   2.754   4.864 -1.2476 -1.6870 -1.7448
  184POPC  H14S21156   3.847   2.603   4.920  0.0035  0.5915 -1.5800
  184POPC  C21521157   4.026   2.654   5.028 -0.1867  0.3852  0.3917
  184POPC  H15R21158   4.002   2.572   5.099 -0.3300  0.9782  1.0396
  184POPC  H15S21159   4.071   2.738   5.086  2.4660  0.0880 -1.0635
  184POPC  C21621160   4.143   2.601   4.945  0.6221  0.5164  0.3489
  184POPC  H16R21161   4.115   2.503   4.902  0.6721  1.8780 -3.1040
  184POPC  H16S21162   4.224   2.563   5.011  0.4894 -1.5634 -0.6201
  184POPC  C21721163   4.189   2.684   4.827  0.2623 -0.2893 -0.1474
  184POPC  H17R21164   4.201   2.792   4.846  0.8850 -0.4383  0.3424
  184POPC  H17S21165   4.105   2.689   4.755  0.9332  0.3730 -0.8960
  184POPC  C21821166   4.330   2.642   4.767  0.1723  0.2383 -0.9300
  184POPC  H18R21167   4.402   2.623   4.850  0.5352 -0.3650 -1.3728
  184POPC  H18S21168   4.384   2.727   4.719  1.1323 -0.2143 -0.6825
  184POPC  H18T21169   4.322   2.555   4.697  1.1335  0.4864 -1.3776
  184POPC   C3321170   3.653   3.334   5.477 -0.5236  0.9434  0.2272
  184POPC   H3X21171   3.593   3.262   5.419  1.3260 -1.5763  1.2652
  184POPC   H3Y21172   3.754   3.288   5.483 -0.3723  1.3058  0.5124
  184POPC   C3421173   3.654   3.455   5.397 -0.5097  0.1979  0.3927
  184POPC   H4X21174   3.722   3.532   5.440 -0.2024  1.0515 -1.4975
  184POPC   H4Y21175   3.555   3.504   5.405 -0.4055  0.2426  1.7457
  184POPC   C3521176   3.700   3.425   5.251  0.4291  0.8825 -0.7603
  184POPC   H5X21177   3.763   3.334   5.254 -2.7394 -1.5140 -1.6336
  184POPC   H5Y21178   3.760   3.514   5.221 -1.0982  1.7568 -1.3428
  184POPC   C3621179   3.579   3.411   5.156 -0.0785 -0.0209 -0.1501
  184POPC   H6X21180   3.524   3.506   5.140  0.4812  0.3463  0.1209
  184POPC   H6Y21181   3.509   3.339   5.205 -0.6228 -0.0782 -0.9803
  184POPC   C3721182   3.612   3.347   5.023 -0.2394 -0.9426 -0.4712
  184POPC   H7X21183   3.645   3.242   5.036 -0.6380 -1.1118 -0.7949
  184POPC   H7Y21184   3.694   3.402   4.971 -0.1889 -0.9832 -0.4342
  184POPC   C3821185   3.482   3.364   4.933  0.2934 -0.7363 -0.5105
  184POPC   H8X21186   3.446   3.468   4.944  1.2297 -0.4405 -0.1049
  184POPC   H8Y21187   3.405   3.304   4.986 -1.5466  1.9240 -0.0283
  184POPC   C3921188   3.511   3.324   4.787  0.2433 -0.3408 -0.2587
  184POPC   H9X21189   3.567   3.409   4.742 -0.4475 -0.6805 -1.8374
  184POPC   H9Y21190   3.415   3.317   4.731 -0.5665 -1.4449  1.2213
  184POPC  C31021191   3.597   3.198   4.765  0.0723 -0.8213 -0.3966
  184POPC  H10X21192   3.550   3.121   4.830 -1.0508  0.9421  0.9745
  184POPC  H10Y21193   3.697   3.235   4.797 -0.5243 -0.9577  1.7307
  184POPC  C31121194   3.594   3.146   4.616 -0.1011  0.0724  0.6449
  184POPC  H11X21195   3.658   3.211   4.552 -0.2424  0.5479  0.9775
  184POPC  H11Y21196   3.491   3.154   4.577 -0.6087  3.4806  2.3109
  184POPC  C31221197   3.634   3.000   4.623 -0.5266  0.0379  0.7291
  184POPC  H12X21198   3.617   2.961   4.521 -3.7980 -0.9495  1.5257
  184POPC  H12Y21199   3.558   2.938   4.675 -1.0765 -2.6744 -2.9871
  184POPC  C31321200   3.777   2.968   4.659  0.3031  0.2507  0.1259
  184POPC  H13X21201   3.784   2.858   4.673  0.1186  0.3835  1.3958
  184POPC  H13Y21202   3.802   3.019   4.754  0.6719 -1.6532  1.0912
  184POPC  C31421203   3.887   3.027   4.563 -0.1316 -0.4942 -0.5030
  184POPC  H14X21204   3.888   3.138   4.564 -1.3645 -0.4569 -1.3227
  184POPC  H14Y21205   3.864   3.005   4.457  1.2730  0.6331 -1.0824
  184POPC  C31521206   4.026   2.962   4.580  0.1482  0.1977 -0.2633
  184POPC  H15X21207   4.033   2.974   4.691 -0.4949 -0.6723 -0.1126
  184POPC  H15Y21208   4.098   3.020   4.519  0.1539 -0.5221 -0.9651
  184POPC  C31621209   4.034   2.811   4.541 -0.4162  0.7531 -0.9081
  184POPC  H16X21210   3.984   2.746   4.615  1.6224  0.1948  0.0455
  184POPC  H16Y21211   4.140   2.777   4.547 -0.9767 -1.1848 -1.3754
  184POPC  H16Z21212   3.998   2.792   4.437  1.8497  0.0972 -1.6337
  185POPC     N21213   6.719   2.357   2.541 -0.1207 -0.6613  0.3592
  185POPC   C1221214   6.589   2.407   2.491  1.1317  0.5941  0.3783
  185POPC  H12A21215   6.588   2.402   2.383  2.3671  0.8594  0.3318
  185POPC  H12B21216   6.582   2.514   2.505  0.0407  1.0470 -2.6900
  185POPC   C1321217   6.764   2.230   2.467  0.4103 -0.5339  0.4742
  185POPC  H13A21218   6.857   2.188   2.503 -1.6922 -3.7661  2.7765
  185POPC  H13B21219   6.685   2.156   2.465 -0.0357 -0.0541 -0.1050
  185POPC  H13C21220   6.785   2.258   2.365  3.0771 -0.7574  0.8992
  185POPC   C1421221   6.826   2.459   2.512 -0.5487 -0.4022  0.3432
  185POPC  H14A21222   6.818   2.490   2.409 -2.1367 -0.5979  0.3792
  185POPC  H14B21223   6.808   2.542   2.578  0.1583 -1.0094  1.3216
  185POPC  H14C21224   6.925   2.417   2.521 -0.2291  0.0944 -0.7044
  185POPC   C1521225   6.710   2.347   2.686  0.7592  0.6133 -0.2402
  185POPC  H15A21226   6.643   2.266   2.708 -1.6687  2.2968 -0.9648
  185POPC  H15B21227   6.665   2.439   2.720  2.4779  1.4454 -0.1348
  185POPC  H15C21228   6.804   2.328   2.735  0.2562  0.1306  0.5410
  185POPC   C1121229   6.456   2.334   2.532 -0.7851 -0.5340  0.0589
  185POPC  H11A21230   6.483   2.227   2.544  1.4711 -0.1292 -0.7763
  185POPC  H11B21231   6.376   2.357   2.458  0.6059 -0.6473 -1.5480
  185POPC     P21232   6.343   2.510   2.695 -0.2907 -0.5280  0.3448
  185POPC   O1321233   6.226   2.525   2.612 -0.2050 -0.6752 -0.2529
  185POPC   O1421234   6.446   2.609   2.688 -0.3786 -0.2712 -0.4457
  185POPC   O1221235   6.401   2.368   2.661 -0.6887  0.3609  0.2756
  185POPC   O1121236   6.303   2.490   2.839 -0.0281  0.0990  0.1439
  185POPC    C121237   6.404   2.480   2.943  0.0072 -1.0587  0.2661
  185POPC    HA21238   6.412   2.580   2.992 -2.3949 -0.6536 -0.0447
  185POPC    HB21239   6.504   2.443   2.914  0.2537  0.8337 -1.5025
  185POPC    C221240   6.354   2.372   3.038  0.8628  0.7348 -0.3226
  185POPC    HS21241   6.343   2.281   2.975 -2.9713  1.0425 -0.3507
  185POPC   O2121242   6.225   2.415   3.089  0.2069 -0.8524 -0.2524
  185POPC   C2121243   6.135   2.328   3.120 -0.4806  0.4016 -0.4700
  185POPC   O2221244   6.137   2.207   3.105 -0.0198  0.1086  0.7044
  185POPC   C2221245   6.016   2.400   3.183  0.1372  0.4603  0.1572
  185POPC   H2R21246   5.929   2.393   3.114  0.4434  0.1671 -0.1986
  185POPC   H2S21247   6.032   2.507   3.207 -1.2148  0.6294  0.4082
  185POPC    C321248   6.461   2.362   3.155 -0.4419  0.3776 -0.2285
  185POPC    HX21249   6.508   2.462   3.167  0.6176  0.0753 -1.6014
  185POPC    HY21250   6.539   2.295   3.114  1.5122  2.1276  0.4365
  185POPC   O3121251   6.405   2.321   3.282  0.3439  0.1223  0.2544
  185POPC   C3121252   6.419   2.194   3.312  0.1493 -0.0575 -0.3654
  185POPC   O3221253   6.458   2.106   3.238 -0.1502  0.1652 -0.3457
  185POPC   C3221254   6.374   2.163   3.455  0.3424  0.6145 -0.4885
  185POPC   H2X21255   6.271   2.120   3.457  0.9945 -1.0952 -1.3838
  185POPC   H2Y21256   6.379   2.253   3.519  2.7354 -0.8761  1.6111
  185POPC   C2321257   5.986   2.324   3.314  0.6535  0.6315  0.3162
  185POPC   H3R21258   5.988   2.213   3.313 -0.0298  0.6188 -0.3686
  185POPC   H3S21259   5.876   2.330   3.328  0.3946 -3.1792  0.8815
  185POPC   C2421260   6.067   2.382   3.432  0.6662  0.0921  1.0316
  185POPC   H4R21261   6.039   2.489   3.420 -1.5941 -0.1964  2.8568
  185POPC   H4S21262   6.170   2.362   3.397 -0.0028 -0.7473 -0.5605
  185POPC   C2521263   6.031   2.313   3.568 -0.4533 -1.0746  0.1233
  185POPC   H5R21264   6.061   2.207   3.556  2.0098 -0.3183 -1.0527
  185POPC   H5S21265   5.924   2.311   3.596 -0.9070  0.7598 -1.3091
  185POPC   C2621266   6.123   2.380   3.674 -0.6704 -0.0814  0.4278
  185POPC   H6R21267   6.062   2.468   3.703  0.8130  0.7564  1.1490
  185POPC   H6S21268   6.219   2.416   3.630 -0.8691 -0.8837 -0.6960
  185POPC   C2721269   6.160   2.298   3.795 -0.0198  0.2372 -0.1254
  185POPC   H7R21270   6.165   2.195   3.754 -2.2694  0.1102 -0.2446
  185POPC   H7S21271   6.081   2.308   3.872  0.3061 -1.2777  0.4271
  185POPC   C2821272   6.292   2.328   3.859  0.1943 -0.2069  0.2885
  185POPC   H8R21273   6.365   2.354   3.779 -0.8530 -0.1608 -0.6789
  185POPC   H8S21274   6.331   2.243   3.920  1.9140 -0.8163 -1.5283
  185POPC   C2921275   6.280   2.450   3.946 -0.5600 -0.2614  0.0643
  185POPC   H9121276   6.301   2.540   3.888 -1.0783 -0.4991 -0.5036
  185POPC  C21021277   6.229   2.460   4.072 -0.0618  0.1179 -0.3137
  185POPC  H10121278   6.211   2.559   4.116 -0.6638  0.9812 -2.3603
  185POPC  C21121279   6.175   2.346   4.151 -0.0277  0.5587  0.2799
  185POPC  H11R21280   6.256   2.271   4.164  0.5545  1.4487  2.1762
  185POPC  H11S21281   6.103   2.293   4.085  0.6891  1.7441 -1.5439
  185POPC  C21221282   6.129   2.378   4.293 -0.1987  0.1915 -0.0369
  185POPC  H12R21283   6.105   2.285   4.348  1.9157 -1.0669 -1.0971
  185POPC  H12S21284   6.036   2.437   4.282 -1.5254 -1.0024  3.5561
  185POPC  C21321285   6.243   2.446   4.374  0.5225  0.0628  0.5558
  185POPC  H13R21286   6.282   2.537   4.324 -1.4974  0.5528 -0.2428
  185POPC  H13S21287   6.329   2.377   4.382  1.1884  0.8965  0.7684
  185POPC  C21421288   6.191   2.502   4.508 -0.2077  0.1056 -0.2688
  185POPC  H14R21289   6.285   2.525   4.563 -0.5686  2.3511 -0.4877
  185POPC  H14S21290   6.126   2.429   4.561 -1.1016  0.2619 -1.1246
  185POPC  C21521291   6.113   2.637   4.501 -0.3907  1.0287  0.0912
  185POPC  H15R21292   6.036   2.623   4.422 -0.3911 -1.0112  0.3988
  185POPC  H15S21293   6.189   2.719   4.497  0.8578  0.0278  1.9857
  185POPC  C21621294   6.028   2.656   4.622  0.5078 -0.3274 -0.2820
  185POPC  H16R21295   5.966   2.565   4.634  0.1013  0.0044  0.1723
  185POPC  H16S21296   5.954   2.736   4.599 -0.4810 -0.8483  0.9851
  185POPC  C21721297   6.102   2.666   4.753 -0.1682 -0.1447  0.1152
  185POPC  H17R21298   6.180   2.587   4.759 -0.9703 -1.0267 -0.9240
  185POPC  H17S21299   6.030   2.652   4.836  1.5705 -0.4269  1.6681
  185POPC  C21821300   6.170   2.799   4.786 -0.2856  0.1008 -0.0158
  185POPC  H18R21301   6.238   2.834   4.705 -0.4189  0.1702 -0.0989
  185POPC  H18S21302   6.219   2.787   4.885 -0.1890  3.5256  0.4737
  185POPC  H18T21303   6.094   2.880   4.781 -1.4010 -0.9770 -1.6905
  185POPC   C3321304   6.454   2.051   3.523 -0.1494 -0.2992 -0.0339
  185POPC   H3X21305   6.562   2.081   3.524 -0.3489  0.7703  3.7737
  185POPC   H3Y21306   6.452   1.962   3.456  0.9855  1.6259 -2.8453
  185POPC   C3421307   6.403   2.027   3.665 -0.2985  0.1698 -0.1171
  185POPC   H4X21308   6.302   1.983   3.671  0.4828 -1.5287  2.4276
  185POPC   H4Y21309   6.392   2.123   3.720 -1.3532 -0.4331  0.7611
  185POPC   C3521310   6.498   1.942   3.758 -0.1225  0.8176  0.0093
  185POPC   H5X21311   6.592   2.001   3.763 -0.8333  2.0924 -1.0456
  185POPC   H5Y21312   6.509   1.839   3.717 -0.1068  0.9385 -0.2917
  185POPC   C3621313   6.440   1.935   3.898 -0.3094 -0.0833  0.4371
  185POPC   H6X21314   6.350   1.871   3.903 -2.1166  2.2361 -0.2637
  185POPC   H6Y21315   6.402   2.039   3.909  2.3559  1.1107 -0.5953
  185POPC   C3721316   6.527   1.903   4.016 -0.7697 -0.4887 -0.1319
  185POPC   H7X21317   6.624   1.951   3.990 -1.6589  1.7844  0.4668
  185POPC   H7Y21318   6.549   1.794   4.014 -0.1895 -0.3675 -1.0607
  185POPC   C3821319   6.468   1.946   4.155 -0.3494 -0.7830  0.6020
  185POPC   H8X21320   6.471   2.057   4.153 -1.8061 -0.7273 -0.3166
  185POPC   H8Y21321   6.529   1.913   4.242 -0.4237 -0.7958  0.6494
  185POPC   C3921322   6.319   1.908   4.169 -0.3216 -0.3570 -0.5849
  185POPC   H9X21323   6.297   1.804   4.135  2.2564 -1.5969  1.2235
  185POPC   H9Y21324   6.264   1.979   4.102  1.1195  1.8513  0.4619
  185POPC  C31021325   6.277   1.917   4.318  0.2848 -0.4247  0.3623
  185POPC  H10X21326   6.167   1.925   4.331  0.6451  1.5350  3.2648
  185POPC  H10Y21327   6.320   2.012   4.356 -0.0958  0.9024 -2.3038
  185POPC  C31121328   6.320   1.791   4.408  0.4384 -0.1977 -0.2826
  185POPC  H11X21329   6.328   1.832   4.510  0.9338 -1.7379  0.3290
  185POPC  H11Y21330   6.414   1.739   4.379  0.5038 -0.1340 -0.1825
  185POPC  C31221331   6.208   1.683   4.413  0.6254  0.2688  0.7343
  185POPC  H12X21332   6.193   1.638   4.312  1.4694  1.2217  0.1535
  185POPC  H12Y21333   6.110   1.728   4.441 -0.1577 -0.3412 -0.8729
  185POPC  C31321334   6.245   1.574   4.505 -0.8040  0.8822 -0.1631
  185POPC  H13X21335   6.352   1.543   4.505 -1.1367 -0.3092 -0.1164
  185POPC  H13Y21336   6.188   1.481   4.483 -1.8520  1.5204 -0.1841
  185POPC  C31421337   6.220   1.595   4.657 -0.0780  0.2705 -0.4866
  185POPC  H14X21338   6.259   1.696   4.681 -0.7340  0.3241  0.3880
  185POPC  H14Y21339   6.271   1.515   4.714 -0.2079 -0.0628 -0.8328
  185POPC  C31521340   6.071   1.567   4.678 -0.1647 -0.2943 -0.1088
  185POPC  H15X21341   6.063   1.456   4.675 -0.0133 -0.3116  0.1344
  185POPC  H15Y21342   6.012   1.610   4.593 -0.8244 -0.1727  0.3983
  185POPC  C31621343   6.021   1.635   4.806 -0.3578  0.9623  0.4779
  185POPC  H16X21344   6.072   1.618   4.903 -0.8399  1.7444  0.8758
  185POPC  H16Y21345   5.911   1.617   4.816 -0.1762 -0.5391  0.0512
  185POPC  H16Z21346   6.026   1.742   4.778  2.0871  0.1716 -2.6686
  186POPC     N21347   1.967   4.785   1.751  0.0610 -0.2089  0.4916
  186POPC   C1221348   1.942   4.887   1.648  0.3089  0.5513 -0.1198
  186POPC  H12A21349   1.854   4.942   1.675  1.7243  3.2015 -0.5747
  186POPC  H12B21350   1.911   4.834   1.559 -1.9491 -2.0211  2.0408
  186POPC   C1321351   1.838   4.716   1.779 -0.3877  0.8701  0.5649
  186POPC  H13A21352   1.797   4.673   1.689 -2.5126  1.1302  1.3553
  186POPC  H13B21353   1.850   4.642   1.857 -1.8951 -0.7327 -0.6683
  186POPC  H13C21354   1.771   4.796   1.807 -0.4319  1.4726 -1.1590
  186POPC   C1421355   2.060   4.686   1.697  1.1917  0.7854 -0.2119
  186POPC  H14A21356   2.079   4.607   1.769 -0.0008  0.4575 -0.2331
  186POPC  H14B21357   2.010   4.629   1.621 -2.1907  1.4293  1.3688
  186POPC  H14C21358   2.157   4.720   1.663  0.4946  1.5500 -1.4638
  186POPC   C1521359   2.014   4.852   1.878  0.2526 -0.0554  0.2474
  186POPC  H15A21360   1.930   4.895   1.930  1.2081 -0.7110  2.4301
  186POPC  H15B21361   2.097   4.916   1.850 -0.6079 -0.0490 -2.5855
  186POPC  H15C21362   2.052   4.773   1.940  1.0198 -0.8778 -1.2122
  186POPC   C1121363   2.047   4.992   1.617 -0.6504 -0.9922  0.2605
  186POPC  H11A21364   2.032   5.032   1.514  0.4143 -1.8054 -0.2304
  186POPC  H11B21365   2.149   4.950   1.607  0.6267  2.3203 -3.4727
  186POPC     P21366   1.933   5.206   1.728 -0.2059 -0.1773  0.1427
  186POPC   O1321367   1.806   5.135   1.736  0.4906 -0.5829 -0.3541
  186POPC   O1421368   1.943   5.302   1.612  0.0273  0.6810 -0.5372
  186POPC   O1221369   2.051   5.101   1.710 -0.5491  0.2539 -0.4696
  186POPC   O1121370   1.970   5.282   1.855  0.0905  0.0907 -0.0202
  186POPC    C121371   2.107   5.334   1.872  0.1005  0.1810  0.4104
  186POPC    HA21372   2.104   5.441   1.903 -0.7406  0.3749 -0.2890
  186POPC    HB21373   2.155   5.331   1.772 -1.3971 -1.8868 -0.3273
  186POPC    C221374   2.185   5.259   1.982 -0.0636 -0.1336  0.2609
  186POPC    HS21375   2.174   5.151   1.960 -2.2021  0.2606 -0.8778
  186POPC   O2121376   2.136   5.290   2.112  0.2006 -0.0428 -0.4271
  186POPC   C2121377   2.124   5.174   2.185  0.7262 -0.1931 -0.2134
  186POPC   O2221378   2.153   5.065   2.150  0.6047  0.0399  0.9378
  186POPC   C2221379   2.079   5.214   2.328  0.0397 -0.2920  0.8608
  186POPC   H2R21380   2.041   5.122   2.377 -0.7095 -1.3462 -1.5755
  186POPC   H2S21381   2.002   5.290   2.307 -0.5051 -1.1847 -0.4836
  186POPC    C321382   2.341   5.281   1.978 -0.1075  0.3474 -0.1212
  186POPC    HX21383   2.350   5.386   2.014 -1.4062  0.7900 -1.0211
  186POPC    HY21384   2.372   5.274   1.872 -0.4390 -1.7432 -0.1217
  186POPC   O3121385   2.416   5.185   2.064  0.2204 -0.1735  0.5803
  186POPC   C3121386   2.537   5.227   2.093 -0.0935 -0.8468  0.5166
  186POPC   O3221387   2.587   5.332   2.048  0.0126 -0.1312  0.1669
  186POPC   C3221388   2.607   5.116   2.171  0.4032 -0.4587  0.1074
  186POPC   H2X21389   2.614   5.031   2.100  0.1496 -0.8622  0.5550
  186POPC   H2Y21390   2.536   5.091   2.253  1.1875  1.3883  1.3982
  186POPC   C2321391   2.189   5.272   2.415 -0.4119 -0.1789  0.4268
  186POPC   H3R21392   2.135   5.309   2.504 -0.7562 -1.1103  0.6106
  186POPC   H3S21393   2.244   5.362   2.381  0.7642 -1.5008 -1.3802
  186POPC   C2421394   2.285   5.162   2.461  0.6788 -0.4291 -0.1732
  186POPC   H4R21395   2.367   5.154   2.387 -1.0493 -1.6406 -2.0451
  186POPC   H4S21396   2.227   5.068   2.454 -0.8945  0.2662  2.2151
  186POPC   C2521397   2.342   5.179   2.602  0.0273  0.8632 -0.2312
  186POPC   H5R21398   2.389   5.279   2.596  1.5894  0.2948  1.7359
  186POPC   H5S21399   2.415   5.099   2.624 -1.5209 -1.4227 -2.7788
  186POPC   C2621400   2.225   5.164   2.708 -0.0528 -0.2510 -1.2030
  186POPC   H6R21401   2.154   5.084   2.676 -2.9921  1.6625  0.1063
  186POPC   H6S21402   2.169   5.259   2.699  0.9727  0.4131 -0.7471
  186POPC   C2721403   2.270   5.154   2.855  0.5211  0.6540 -0.2792
  186POPC   H7R21404   2.339   5.067   2.862  0.4986  0.7362  1.2014
  186POPC   H7S21405   2.187   5.125   2.922  1.2970 -0.9813  0.0241
  186POPC   C2821406   2.334   5.284   2.898  1.0398  0.1245  0.6516
  186POPC   H8R21407   2.403   5.336   2.828 -1.8083  2.5634 -0.5411
  186POPC   H8S21408   2.395   5.270   2.990  1.8917  2.6525  0.5427
  186POPC   C2921409   2.224   5.384   2.930 -0.4643  0.2973  0.2344
  186POPC   H9121410   2.159   5.402   2.843  2.8852  0.8875 -2.3955
  186POPC  C21021411   2.203   5.461   3.037 -0.2442  0.1176  0.6274
  186POPC  H10121412   2.105   5.509   3.054 -0.5538 -0.6567  1.1065
  186POPC  C21121413   2.285   5.451   3.162 -0.3692 -0.0065  0.2807
  186POPC  H11R21414   2.321   5.553   3.189  0.1611  0.2697 -1.3319
  186POPC  H11S21415   2.377   5.391   3.146 -1.0692 -0.3625 -2.9936
  186POPC  C21221416   2.194   5.401   3.272 -0.4345  0.4276  0.0780
  186POPC  H12R21417   2.179   5.296   3.238  1.2146 -0.0332  0.6957
  186POPC  H12S21418   2.098   5.457   3.282 -1.9318 -1.8808 -0.4663
  186POPC  C21321419   2.268   5.397   3.406 -0.0502  0.8113  0.3068
  186POPC  H13R21420   2.339   5.483   3.410 -0.1303  0.8263  2.4409
  186POPC  H13S21421   2.330   5.305   3.396 -2.1329 -0.4089 -2.8945
  186POPC  C21421422   2.177   5.402   3.529  0.2423 -0.4447 -0.2262
  186POPC  H14R21423   2.143   5.299   3.554 -1.0546  0.5249  2.3824
  186POPC  H14S21424   2.092   5.473   3.514  1.0909  0.3660 -1.3742
  186POPC  C21521425   2.247   5.446   3.661  0.6139 -0.8508  0.0803
  186POPC  H15R21426   2.300   5.538   3.629  2.0835 -2.4136 -2.2072
  186POPC  H15S21427   2.324   5.371   3.685  0.0929 -1.3960  0.0793
  186POPC  C21621428   2.159   5.463   3.779 -0.7281  0.4354  0.2295
  186POPC  H16R21429   2.225   5.483   3.866 -0.8394  0.2489  0.3560
  186POPC  H16S21430   2.095   5.374   3.797 -1.1092  0.5301 -0.6349
  186POPC  C21721431   2.071   5.583   3.757 -0.0507 -0.4010 -0.1920
  186POPC  H17R21432   1.983   5.552   3.696 -0.4384 -0.4151  0.3680
  186POPC  H17S21433   2.121   5.659   3.693  0.0059 -1.5196 -1.5354
  186POPC  C21821434   2.008   5.632   3.889 -0.0169 -0.2979 -0.1744
  186POPC  H18R21435   2.085   5.689   3.946 -1.2220 -0.9059  2.2012
  186POPC  H18S21436   1.907   5.677   3.877 -0.6598 -1.3411  1.1066
  186POPC  H18T21437   1.992   5.546   3.957  3.2872 -0.7420  0.2229
  186POPC   C3321438   2.743   5.168   2.226  0.3338  0.4019  1.0376
  186POPC   H3X21439   2.726   5.266   2.275 -0.0496  1.6105 -1.3384
  186POPC   H3Y21440   2.801   5.192   2.134 -2.6156  1.1965 -0.7581
  186POPC   C3421441   2.811   5.064   2.314 -0.4741 -0.4790 -0.0127
  186POPC   H4X21442   2.920   5.082   2.324 -0.1392 -1.1186 -1.9940
  186POPC   H4Y21443   2.796   4.970   2.256 -0.1000 -0.4429 -0.1690
  186POPC   C3521444   2.736   5.036   2.446  0.6591 -0.1720  0.6842
  186POPC   H5X21445   2.627   5.018   2.431 -0.0234  0.4133  4.0660
  186POPC   H5Y21446   2.743   5.133   2.500  0.9878  0.4093 -0.3733
  186POPC   C3621447   2.809   4.946   2.533  0.2419 -0.5450 -0.3277
  186POPC   H6X21448   2.897   4.994   2.580 -0.1075  1.3184 -1.4682
  186POPC   H6Y21449   2.847   4.860   2.474 -1.1867 -1.4543  0.0317
  186POPC   C3721450   2.726   4.888   2.653 -0.3129  0.1489 -0.3965
  186POPC   H7X21451   2.781   4.802   2.697  1.4416  2.2693  1.8508
  186POPC   H7Y21452   2.625   4.857   2.618  0.2980 -1.6037 -0.7227
  186POPC   C3821453   2.698   4.994   2.764  0.6344 -0.0509  0.5532
  186POPC   H8X21454   2.637   5.081   2.732 -0.9963 -0.5031  2.2638
  186POPC   H8Y21455   2.796   5.027   2.806  0.6439  2.2499 -1.1075
  186POPC   C3921456   2.612   4.921   2.867  0.0509  0.8185 -0.1718
  186POPC   H9X21457   2.673   4.838   2.908  0.6397  0.2752 -2.0857
  186POPC   H9Y21458   2.517   4.880   2.828 -0.6257 -0.4564  2.5955
  186POPC  C31021459   2.594   5.004   2.995 -0.4967  0.2120  0.0596
  186POPC  H10X21460   2.508   5.074   2.983  0.0847  0.5152 -3.0143
  186POPC  H10Y21461   2.681   5.072   3.007  1.5662 -1.8736 -2.0097
  186POPC  C31121462   2.585   4.915   3.121  0.2346  0.1581  0.5451
  186POPC  H11X21463   2.530   4.822   3.093  0.4376  0.0114  0.6320
  186POPC  H11Y21464   2.524   4.967   3.198  0.8096  0.3861  0.8495
  186POPC  C31221465   2.724   4.876   3.177  0.5683 -0.6101  0.0672
  186POPC  H12X21466   2.769   4.966   3.224  1.6382 -1.1792  0.1748
  186POPC  H12Y21467   2.788   4.829   3.100 -0.3622 -0.2345 -0.9645
  186POPC  C31321468   2.720   4.770   3.291  0.2267  0.0138 -0.8689
  186POPC  H13X21469   2.818   4.718   3.297  1.0855  1.5617 -0.8690
  186POPC  H13Y21470   2.640   4.698   3.264 -1.3990  0.4876  2.1784
  186POPC  C31421471   2.707   4.847   3.425 -0.1772  0.6929  0.2120
  186POPC  H14X21472   2.602   4.884   3.430 -1.9272 -3.7376  1.3741
  186POPC  H14Y21473   2.783   4.926   3.441  0.1005  1.1633 -2.8609
  186POPC  C31521474   2.719   4.754   3.544  0.0569  0.4106  0.3699
  186POPC  H15X21475   2.816   4.701   3.541  0.3015  0.9088 -0.7200
  186POPC  H15Y21476   2.634   4.685   3.524 -1.1913  1.9719  0.1297
  186POPC  C31621477   2.706   4.818   3.678 -0.3503  0.0133  0.3130
  186POPC  H16X21478   2.750   4.758   3.760 -2.7994 -1.5761  0.5755
  186POPC  H16Y21479   2.598   4.828   3.705 -0.4197 -1.5651  0.7190
  186POPC  H16Z21480   2.759   4.916   3.686 -0.0572 -0.1376  0.2266
  187POPC     N21481   0.520   1.738   2.115 -0.0807 -0.4448 -0.4962
  187POPC   C1221482   0.551   1.625   2.205 -0.5176 -0.8664 -0.5781
  187POPC  H12A21483   0.655   1.623   2.233 -1.1430  0.0889  2.1873
  187POPC  H12B21484   0.527   1.528   2.165  1.5893 -1.0058 -1.5943
  187POPC   C1321485   0.583   1.865   2.164  0.0396  0.3108 -0.2212
  187POPC  H13A21486   0.572   1.941   2.088  1.7652  2.0134  1.1425
  187POPC  H13B21487   0.543   1.909   2.255 -0.9405  1.5364 -1.2123
  187POPC  H13C21488   0.690   1.863   2.172 -0.0360  1.5144  1.9265
  187POPC   C1421489   0.563   1.717   1.974  0.7655 -0.8137  0.3788
  187POPC  H14A21490   0.509   1.632   1.936  1.0137 -0.4195 -0.9168
  187POPC  H14B21491   0.557   1.805   1.912 -1.2578 -0.4576  1.0062
  187POPC  H14C21492   0.664   1.678   1.979  0.3027 -2.2602 -0.7638
  187POPC   C1521493   0.371   1.768   2.110  0.4546  0.2051 -0.2456
  187POPC  H15A21494   0.342   1.800   2.209 -0.0116  2.3734 -1.0142
  187POPC  H15B21495   0.321   1.683   2.066 -1.1826 -0.2502  2.3098
  187POPC  H15C21496   0.348   1.851   2.044  1.7752  0.2149 -0.7333
  187POPC   C1121497   0.482   1.625   2.347  0.0345 -0.4980  0.3913
  187POPC  H11A21498   0.492   1.728   2.386  1.1155 -0.6497  0.5417
  187POPC  H11B21499   0.537   1.546   2.403  0.3382 -0.8258 -0.3630
  187POPC     P21500   0.292   1.447   2.301  0.1645  0.3360 -0.5103
  187POPC   O1321501   0.385   1.375   2.217 -0.4189  0.2198 -0.3521
  187POPC   O1421502   0.161   1.454   2.237  0.0427  0.5487 -0.7888
  187POPC   O1221503   0.343   1.590   2.339 -0.5118 -0.2098  0.1561
  187POPC   O1121504   0.292   1.366   2.443 -0.1256 -0.1072 -0.1469
  187POPC    C121505   0.266   1.446   2.562 -0.3693  0.6698 -0.2453
  187POPC    HA21506   0.209   1.540   2.548  0.7178  1.1149 -1.9535
  187POPC    HB21507   0.361   1.483   2.604 -0.8997  0.5198  1.1343
  187POPC    C221508   0.201   1.356   2.664  0.3502 -0.1134 -0.0798
  187POPC    HS21509   0.092   1.358   2.641  0.0531  0.0736  1.2903
  187POPC   O2121510   0.228   1.391   2.801 -0.0155 -0.5649  0.0090
  187POPC   C2121511   0.127   1.374   2.889  0.2472 -0.1200  0.2692
  187POPC   O2221512   0.013   1.342   2.852  0.1011  0.1095 -0.0660
  187POPC   C2221513   0.171   1.406   3.036 -0.3801  0.2053  0.4477
  187POPC   H2R21514   0.156   1.514   3.055 -2.5649  0.2716 -1.2216
  187POPC   H2S21515   0.280   1.381   3.035 -0.1614  1.0436  1.4502
  187POPC    C321516   0.243   1.207   2.637 -0.5413  0.6243 -0.5291
  187POPC    HX21517   0.352   1.202   2.614 -0.4479  0.6762 -0.1055
  187POPC    HY21518   0.183   1.170   2.551 -0.5153  1.6578 -1.0076
  187POPC   O3121519   0.208   1.121   2.746  0.4426 -0.3782 -0.5142
  187POPC   C3121520   0.281   1.018   2.778 -0.1535  0.1492 -0.0048
  187POPC   O3221521   0.393   0.991   2.735 -0.2563  0.7639  0.7015
  187POPC   C3221522   0.201   0.945   2.886 -0.7449  0.8725  0.3831
  187POPC   H2X21523   0.100   0.928   2.842 -0.2557  0.6349 -0.6586
  187POPC   H2Y21524   0.185   1.015   2.971 -1.1569  1.0557  0.1573
  187POPC   C2321525   0.081   1.327   3.135 -0.4469  0.0236 -0.0383
  187POPC   H3R21526   0.077   1.222   3.098  0.0354 -0.2532  0.6839
  187POPC   H3S21527  -0.021   1.370   3.145 -0.8035 -0.6335 -0.7156
  187POPC   C2421528   0.142   1.317   3.273  0.6660 -0.1071  0.2143
  187POPC   H4R21529   0.244   1.277   3.258 -0.4218 -2.7661 -0.7548
  187POPC   H4S21530   0.092   1.239   3.334 -2.0241  1.6571  0.4449
  187POPC   C2521531   0.136   1.444   3.357 -0.3325 -0.4486  0.7274
  187POPC   H5R21532   0.031   1.462   3.390 -0.2360 -0.9316  1.3203
  187POPC   H5S21533   0.151   1.529   3.287 -0.1236 -1.4621 -0.4898
  187POPC   C2621534   0.215   1.442   3.486 -0.2841  0.2144 -0.0403
  187POPC   H6R21535   0.215   1.538   3.542  4.9546 -0.1811  1.1659
  187POPC   H6S21536   0.324   1.438   3.465 -0.4226  1.6822 -1.2513
  187POPC   C2721537   0.173   1.326   3.571  0.5619  0.0958 -0.9138
  187POPC   H7R21538   0.197   1.228   3.526  0.5975 -1.3374  2.0260
  187POPC   H7S21539   0.062   1.325   3.581  0.4914  0.8528 -1.4773
  187POPC   C2821540   0.246   1.338   3.704 -0.3493  0.0284  0.5155
  187POPC   H8R21541   0.209   1.435   3.743  0.4670  0.9999 -1.0290
  187POPC   H8S21542   0.357   1.345   3.698 -0.2971 -0.7284  0.4785
  187POPC   C2921543   0.213   1.218   3.800  0.2055  0.4437  0.8245
  187POPC   H9121544   0.224   1.116   3.761 -1.1010  0.1229  1.2427
  187POPC  C21021545   0.172   1.223   3.927  0.0451  0.8260 -0.1156
  187POPC  H10121546   0.149   1.124   3.969  3.0892  0.4805  0.9739
  187POPC  C21121547   0.135   1.340   4.012  0.0436  0.3861  0.8466
  187POPC  H11R21548   0.034   1.377   3.984 -0.2644 -1.5508 -0.8678
  187POPC  H11S21549   0.201   1.425   3.984  0.8225  0.3356  2.4107
  187POPC  C21221550   0.159   1.317   4.161  0.7378  1.1553 -0.3095
  187POPC  H12R21551   0.249   1.256   4.185  0.5922  1.3601  0.8162
  187POPC  H12S21552   0.075   1.252   4.193  0.1705  1.5970 -0.8616
  187POPC  C21321553   0.162   1.436   4.247 -0.0910  0.2425 -0.9685
  187POPC  H13R21554   0.077   1.503   4.221 -1.3896 -1.3864 -1.1128
  187POPC  H13S21555   0.251   1.502   4.247  1.1464 -1.1882  2.1851
  187POPC  C21421556   0.145   1.405   4.398  0.0716  0.4333  0.3480
  187POPC  H14R21557   0.073   1.325   4.425 -1.2470  1.1502 -0.9010
  187POPC  H14S21558   0.112   1.492   4.459 -1.2412  0.2900 -0.1278
  187POPC  C21521559   0.279   1.357   4.457  0.9147 -0.5925  0.0713
  187POPC  H15R21560   0.309   1.283   4.380  0.5970  1.4229 -2.1362
  187POPC  H15S21561   0.273   1.297   4.550 -0.3040  0.0756  0.4609
  187POPC  C21621562   0.389   1.461   4.476 -0.1436 -0.1870 -0.0210
  187POPC  H16R21563   0.356   1.541   4.546 -2.1550 -0.5462 -0.4809
  187POPC  H16S21564   0.422   1.508   4.381 -0.4573  0.9337  0.4040
  187POPC  C21721565   0.513   1.396   4.524 -0.9365 -0.4795 -0.4177
  187POPC  H17R21566   0.559   1.336   4.442  1.3435 -0.3573  0.6767
  187POPC  H17S21567   0.515   1.339   4.619  2.4614  2.2377  1.3821
  187POPC  C21821568   0.616   1.502   4.559 -0.4477  0.0639 -0.9177
  187POPC  H18R21569   0.587   1.570   4.642  2.4178  0.3671 -0.0415
  187POPC  H18S21570   0.639   1.566   4.471  0.0869 -0.5358 -1.2190
  187POPC  H18T21571   0.714   1.460   4.590 -0.4932  0.2832 -0.4625
  187POPC   C3321572   0.270   0.816   2.936 -0.3422 -0.1266 -0.2654
  187POPC   H3X21573   0.377   0.826   2.960 -0.9513  3.6314  1.6483
  187POPC   H3Y21574   0.259   0.745   2.852  1.0953 -0.9222  0.1940
  187POPC   C3421575   0.192   0.761   3.061 -0.1460  0.3575 -0.0082
  187POPC   H4X21576   0.221   0.654   3.075  0.5129  0.3210 -1.4313
  187POPC   H4Y21577   0.085   0.750   3.034 -0.4904 -0.2948  1.5503
  187POPC   C3521578   0.233   0.824   3.189  0.2681  0.3013 -0.2406
  187POPC   H5X21579   0.204   0.932   3.189 -1.7915 -0.2125  0.7170
  187POPC   H5Y21580   0.343   0.827   3.204  0.2423  0.8309 -0.1320
  187POPC   C3621581   0.176   0.768   3.313  0.5677  0.9409  0.2741
  187POPC   H6X21582   0.205   0.661   3.322  2.4120  1.3360 -0.5053
  187POPC   H6Y21583   0.067   0.757   3.295  0.6188  2.0769 -0.9154
  187POPC   C3721584   0.215   0.837   3.444  0.0412  0.3479  0.9069
  187POPC   H7X21585   0.165   0.936   3.455 -0.2027  0.2543  0.6696
  187POPC   H7Y21586   0.325   0.843   3.447 -0.0587  2.7002  1.9490
  187POPC   C3821587   0.174   0.755   3.571 -0.3907  0.5680  0.5188
  187POPC   H8X21588   0.237   0.789   3.656 -1.6024 -1.2844  2.2603
  187POPC   H8Y21589   0.198   0.648   3.551  1.1576  0.9750  0.0807
  187POPC   C3921590   0.031   0.770   3.620  0.3159  0.1374 -0.2805
  187POPC   H9X21591  -0.033   0.732   3.538  0.8736 -0.3188 -0.5073
  187POPC   H9Y21592   0.009   0.877   3.642  0.3096 -0.1781  1.3801
  187POPC  C31021593   0.009   0.699   3.749  0.2880  0.3433  0.0858
  187POPC  H10X21594   0.061   0.601   3.740 -1.0474 -0.4175  0.3210
  187POPC  H10Y21595  -0.098   0.677   3.769  0.6621 -0.6610  1.1128
  187POPC  C31121596   0.061   0.769   3.876 -0.0695  0.2069  0.7779
  187POPC  H11X21597  -0.014   0.842   3.913  1.2182  0.7635  2.4153
  187POPC  H11Y21598   0.159   0.817   3.854 -0.5948  0.3603 -1.5823
  187POPC  C31221599   0.069   0.668   3.997  0.0407  0.0712  0.0230
  187POPC  H12X21600   0.141   0.593   3.961  0.8550  0.5661  0.5905
  187POPC  H12Y21601  -0.025   0.618   4.029 -0.0504  0.1406 -0.1377
  187POPC  C31321602   0.137   0.740   4.118 -0.4537  0.5582  0.1542
  187POPC  H13X21603   0.241   0.774   4.096 -0.9385  1.8390 -0.2620
  187POPC  H13Y21604   0.156   0.665   4.198 -3.1104 -0.2940  0.0778
  187POPC  C31421605   0.070   0.862   4.179  0.1938  0.1141 -1.1291
  187POPC  H14X21606  -0.018   0.817   4.228  1.6114  0.2655  1.7630
  187POPC  H14Y21607   0.037   0.934   4.101  0.4412  1.6784  0.1511
  187POPC  C31521608   0.166   0.928   4.282  0.4529  0.0160  1.0300
  187POPC  H15X21609   0.118   1.026   4.302 -0.2940 -0.1607  0.1457
  187POPC  H15Y21610   0.268   0.946   4.241 -0.2877 -0.8885 -1.4249
  187POPC  C31621611   0.188   0.856   4.416 -0.5646 -0.1947  0.1506
  187POPC  H16X21612   0.089   0.819   4.449 -0.2766 -0.2584  0.9465
  187POPC  H16Y21613   0.243   0.912   4.494  2.1731  0.0816 -1.8254
  187POPC  H16Z21614   0.248   0.768   4.384 -2.8192 -1.2715 -1.4240
  188POPC     N21615   2.247   2.649   2.173 -0.0786  0.3423  0.1406
  188POPC   C1221616   2.267   2.559   2.293  0.0407  0.4819 -0.2205
  188POPC  H12A21617   2.312   2.622   2.367 -0.8158  1.5179 -0.5574
  188POPC  H12B21618   2.344   2.486   2.270  2.5654  2.8566  0.2180
  188POPC   C1321619   2.149   2.754   2.205 -0.0547  1.0974  0.4576
  188POPC  H13A21620   2.193   2.821   2.278  3.4421 -0.6559  0.1836
  188POPC  H13B21621   2.126   2.814   2.118  1.9047 -0.4431 -1.2278
  188POPC  H13C21622   2.066   2.703   2.251  1.0033 -2.5444 -1.2937
  188POPC   C1421623   2.377   2.723   2.133  0.0630  0.1269 -0.1465
  188POPC  H14A21624   2.358   2.783   2.045 -2.1292  2.0777  1.5358
  188POPC  H14B21625   2.418   2.792   2.205  0.9707  0.9503 -1.4182
  188POPC  H14C21626   2.455   2.651   2.112  0.3133  0.0566  0.9868
  188POPC   C1521627   2.202   2.575   2.053  0.4161  0.0625 -0.4049
  188POPC  H15A21628   2.111   2.525   2.083  0.4294  0.6504  0.6512
  188POPC  H15B21629   2.277   2.508   2.013 -0.3387 -1.1145  0.0794
  188POPC  H15C21630   2.176   2.640   1.972 -0.0230 -0.1477 -0.4323
  188POPC   C1121631   2.135   2.491   2.351 -0.6433 -0.3461  0.2704
  188POPC  H11A21632   2.073   2.572   2.395 -1.3563 -0.8645  0.2448
  188POPC  H11B21633   2.171   2.423   2.431  2.7939 -0.0868 -0.8737
  188POPC     P21634   1.919   2.353   2.287  0.0728  0.3843 -0.2898
  188POPC   O1321635   1.933   2.208   2.270  0.0849 -0.3450 -0.0763
  188POPC   O1421636   1.800   2.417   2.225 -0.0094  0.3488  0.3126
  188POPC   O1221637   2.058   2.420   2.252  0.1477 -0.2192  0.0864
  188POPC   O1121638   1.902   2.372   2.442  0.4605 -0.3698  0.4240
  188POPC    C121639   1.819   2.479   2.493  0.2481 -0.4691  0.4011
  188POPC    HA21640   1.710   2.454   2.485  0.5393 -1.3309 -1.7324
  188POPC    HB21641   1.836   2.575   2.440 -0.0239  1.5510  3.6980
  188POPC    C221642   1.854   2.495   2.639 -0.0261  0.3900 -0.2089
  188POPC    HS21643   1.961   2.525   2.636  0.1564 -0.1540  0.6389
  188POPC   O2121644   1.838   2.362   2.703 -0.0372 -0.2332 -0.2190
  188POPC   C2121645   1.929   2.329   2.792  0.0412  0.4465  0.4419
  188POPC   O2221646   2.030   2.391   2.809  0.0592  0.1781  0.2231
  188POPC   C2221647   1.880   2.227   2.887  0.2869  0.3976  0.3913
  188POPC   H2R21648   1.929   2.130   2.863  0.2786  0.5398 -0.2031
  188POPC   H2S21649   1.772   2.210   2.869  0.4770  0.6175 -1.0989
  188POPC    C321650   1.775   2.611   2.714  0.2651  0.6499 -0.3845
  188POPC    HX21651   1.670   2.576   2.706  0.6945 -1.1747  1.3330
  188POPC    HY21652   1.777   2.707   2.657 -0.3955  0.2661 -1.0757
  188POPC   O3121653   1.811   2.623   2.856  0.2425  0.1908  0.5125
  188POPC   C3121654   1.929   2.676   2.876  0.2213 -0.1028  0.5233
  188POPC   O3221655   1.996   2.720   2.782  0.1778  0.4977  0.4152
  188POPC   C3221656   1.965   2.697   3.024 -0.0118  0.0497 -0.8227
  188POPC   H2X21657   1.880   2.650   3.078  0.2923  0.5415  0.1087
  188POPC   H2Y21658   1.957   2.805   3.049 -0.5510  0.1836 -1.5145
  188POPC   C2321659   1.901   2.269   3.037 -0.4820 -0.4894  0.0682
  188POPC   H3R21660   1.856   2.369   3.054  1.9097  0.8565 -0.9234
  188POPC   H3S21661   2.011   2.278   3.054 -0.2568 -0.9748 -1.0226
  188POPC   C2421662   1.840   2.170   3.138 -0.2255  0.5148 -0.3562
  188POPC   H4R21663   1.868   2.069   3.103  0.1935  0.5566 -0.1342
  188POPC   H4S21664   1.730   2.179   3.121 -0.6477 -1.1969  1.1181
  188POPC   C2521665   1.860   2.199   3.287 -0.6244 -0.4274 -0.0164
  188POPC   H5R21666   1.962   2.159   3.304  0.1296 -0.1469 -3.2364
  188POPC   H5S21667   1.799   2.140   3.358 -0.5200  2.7974  3.0122
  188POPC   C2621668   1.846   2.350   3.330  0.1908  0.9400 -0.1876
  188POPC   H6R21669   1.752   2.389   3.284  0.2601  0.2206 -0.9633
  188POPC   H6S21670   1.936   2.396   3.283  0.7745 -0.2678 -0.2673
  188POPC   C2721671   1.843   2.363   3.481 -0.2595 -0.4998 -0.5741
  188POPC   H7R21672   1.938   2.315   3.514 -0.2031  0.1756  0.3119
  188POPC   H7S21673   1.763   2.295   3.518  0.4155 -0.7261  0.5340
  188POPC   C2821674   1.828   2.508   3.529 -0.0666  0.2467 -0.4061
  188POPC   H8R21675   1.900   2.576   3.480 -0.8726  0.8195 -0.8234
  188POPC   H8S21676   1.843   2.523   3.638  4.2106  0.8831 -0.9470
  188POPC   C2921677   1.692   2.565   3.501  0.7919  0.0056  0.1424
  188POPC   H9121678   1.694   2.641   3.421 -1.7558  0.6772  0.6261
  188POPC  C21021679   1.568   2.535   3.548 -0.2132  0.2347 -0.5960
  188POPC  H10121680   1.483   2.597   3.519  0.4138  0.6314 -1.6539
  188POPC  C21121681   1.544   2.440   3.657 -0.3337  0.6620  0.5262
  188POPC  H11R21682   1.627   2.367   3.659 -0.8383 -0.0086 -1.2135
  188POPC  H11S21683   1.455   2.381   3.625 -0.1478 -1.0013  2.8467
  188POPC  C21221684   1.510   2.497   3.794  0.2936 -0.0135 -0.4711
  188POPC  H12R21685   1.418   2.559   3.794  0.5210  0.3256 -0.6618
  188POPC  H12S21686   1.593   2.566   3.819 -1.2082  0.9421  2.2051
  188POPC  C21321687   1.467   2.389   3.894  0.5494 -0.0880 -0.4374
  188POPC  H13R21688   1.541   2.308   3.902 -0.5640 -1.0101  0.9200
  188POPC  H13S21689   1.383   2.327   3.857  1.8967 -2.5190  0.4196
  188POPC  C21421690   1.442   2.449   4.038 -0.1230  0.4742 -0.7702
  188POPC  H14R21691   1.373   2.379   4.089 -0.9374  1.7773 -0.0125
  188POPC  H14S21692   1.371   2.535   4.036 -0.5388  0.1403 -0.6032
  188POPC  C21521693   1.560   2.473   4.128 -0.1014  0.5708 -0.5474
  188POPC  H15R21694   1.637   2.537   4.080 -0.0172 -0.5925 -2.0854
  188POPC  H15S21695   1.606   2.373   4.141 -2.0129 -0.4499 -1.1606
  188POPC  C21621696   1.530   2.527   4.265 -0.4225 -0.0998 -0.1139
  188POPC  H16R21697   1.443   2.470   4.303 -1.0193 -0.6502 -2.1547
  188POPC  H16S21698   1.496   2.632   4.255 -0.5840 -0.2772 -1.7953
  188POPC  C21721699   1.651   2.540   4.357  0.9263  0.1358  0.5229
  188POPC  H17R21700   1.727   2.607   4.312 -0.0593  1.5951  0.9850
  188POPC  H17S21701   1.686   2.435   4.367  0.7765 -0.5537 -3.8979
  188POPC  C21821702   1.631   2.605   4.507  0.7848  0.3216  0.3703
  188POPC  H18R21703   1.718   2.594   4.575  1.8240 -0.5339 -1.0526
  188POPC  H18S21704   1.537   2.560   4.545  1.0901 -0.1993  0.5067
  188POPC  H18T21705   1.612   2.713   4.486  1.8018  0.3370 -0.5527
  188POPC   C3321706   2.091   2.621   3.082 -0.3596  0.7773  0.8974
  188POPC   H3X21707   2.180   2.640   3.019 -2.3080  0.5194 -2.1222
  188POPC   H3Y21708   2.083   2.511   3.070  1.4831  0.5840  1.0392
  188POPC   C3421709   2.123   2.652   3.231  0.3401 -0.5696 -0.3088
  188POPC   H4X21710   2.051   2.608   3.303 -0.6167 -0.7579 -1.3584
  188POPC   H4Y21711   2.119   2.763   3.232  1.2246 -0.5245  1.4551
  188POPC   C3521712   2.256   2.601   3.289 -0.2935  0.2264  0.5230
  188POPC   H5X21713   2.233   2.594   3.397  0.9009  3.0741  1.0318
  188POPC   H5Y21714   2.343   2.668   3.279 -0.4006  0.5939  1.8762
  188POPC   C3621715   2.295   2.454   3.250 -0.1275 -0.5487  0.0217
  188POPC   H6X21716   2.288   2.444   3.140  0.1841  0.1071 -0.0620
  188POPC   H6Y21717   2.220   2.384   3.293 -1.1559 -0.9335 -2.2822
  188POPC   C3721718   2.422   2.400   3.322  0.4191  0.0584  0.5515
  188POPC   H7X21719   2.518   2.430   3.275 -1.1165  1.9586 -1.6298
  188POPC   H7Y21720   2.414   2.289   3.329  0.0662 -0.2145 -2.7990
  188POPC   C3821721   2.427   2.419   3.475  0.3851 -0.8861  0.0736
  188POPC   H8X21722   2.438   2.529   3.493 -0.6883 -0.4032 -1.9393
  188POPC   H8Y21723   2.519   2.367   3.511  2.0060 -0.2037 -2.7536
  188POPC   C3921724   2.305   2.357   3.543  0.0556 -0.5466  0.1982
  188POPC   H9X21725   2.298   2.256   3.496 -3.1514 -0.5615  0.4831
  188POPC   H9Y21726   2.210   2.414   3.531 -0.1933 -0.1437  3.3042
  188POPC  C31021727   2.319   2.340   3.692  0.2242  0.3504 -0.1713
  188POPC  H10X21728   2.415   2.298   3.728 -0.7484  0.3901  2.7391
  188POPC  H10Y21729   2.237   2.273   3.727  0.2589  0.4156  0.0321
  188POPC  C31121730   2.308   2.468   3.776  0.4615  0.6445 -0.0500
  188POPC  H11X21731   2.209   2.513   3.750  0.5633  0.2050 -1.2612
  188POPC  H11Y21732   2.389   2.533   3.736  0.1054 -0.3165 -2.4920
  188POPC  C31221733   2.329   2.458   3.929 -0.0949 -0.5140  0.6364
  188POPC  H12X21734   2.409   2.384   3.944 -0.2667 -0.4712  1.8479
  188POPC  H12Y21735   2.238   2.418   3.979  0.3924 -1.4261  0.8079
  188POPC  C31321736   2.370   2.596   3.992 -0.1676  0.0481  0.5546
  188POPC  H13X21737   2.293   2.671   3.964 -0.4764 -1.0940 -1.8568
  188POPC  H13Y21738   2.464   2.634   3.947 -1.0482  1.8545  0.1494
  188POPC  C31421739   2.380   2.590   4.147  0.3204 -1.0413 -0.3203
  188POPC  H14X21740   2.462   2.521   4.177  1.1098  0.0813  0.1853
  188POPC  H14Y21741   2.286   2.533   4.164 -0.6746  0.6701  0.1740
  188POPC  C31521742   2.379   2.729   4.205 -0.0483 -0.1430  0.4683
  188POPC  H15X21743   2.292   2.783   4.161 -0.3491 -0.9527  0.0455
  188POPC  H15Y21744   2.469   2.787   4.177  0.1175  0.2221  1.6726
  188POPC  C31621745   2.390   2.731   4.358 -0.1569  0.1248 -0.2328
  188POPC  H16X21746   2.488   2.683   4.380 -0.0392  0.7430  0.6252
  188POPC  H16Y21747   2.308   2.679   4.411  0.1808  0.9050  1.0824
  188POPC  H16Z21748   2.391   2.835   4.397  0.7479  0.2271 -0.5047
  189SAPI   C1221749   3.184   4.700   6.302 -0.1052  0.2766 -0.0310
  189SAPI    H221750   3.125   4.652   6.221 -0.3732 -0.3887  0.5582
  189SAPI    O221751   3.284   4.790   6.235  0.6270 -0.1126  0.4714
  189SAPI   HO221752   3.369   4.748   6.227  1.7512  2.2427 -1.0611
  189SAPI   C1321753   3.093   4.782   6.389 -0.0604 -0.3580 -0.1188
  189SAPI    H321754   3.020   4.708   6.428  1.2968 -0.9927  1.2844
  189SAPI    O321755   3.018   4.877   6.312 -0.0072  0.3723  0.0470
  189SAPI   HO321756   3.075   4.897   6.237 -1.9998  0.4411 -1.5193
  189SAPI   C1421757   3.166   4.848   6.513 -0.6510  0.0903 -0.3483
  189SAPI    H421758   3.219   4.938   6.475 -1.6755  0.0666 -1.9263
  189SAPI    O421759   3.078   4.913   6.606 -0.0554  0.3363 -0.3955
  189SAPI   HO421760   2.994   4.868   6.621 -0.4142  1.0795 -0.0971
  189SAPI   C1521761   3.275   4.754   6.577 -0.0389 -0.1874 -0.5286
  189SAPI    H521762   3.216   4.700   6.654  0.8746 -0.1480  0.2128
  189SAPI    O521763   3.368   4.836   6.651 -0.0785 -0.1973  0.0940
  189SAPI   HO521764   3.414   4.899   6.595 -2.3106  2.7368  1.2461
  189SAPI   C1621765   3.340   4.646   6.493 -1.0269 -1.0903  0.1909
  189SAPI    H621766   3.425   4.697   6.444 -0.8816 -1.5465 -0.0388
  189SAPI    O621767   3.397   4.539   6.572 -0.0549 -0.3553 -0.2434
  189SAPI   HO621768   3.476   4.510   6.525  0.7954  1.4467 -0.0075
  189SAPI   C1121769   3.254   4.587   6.381 -0.0342 -0.3612 -0.1841
  189SAPI    H121770   3.178   4.521   6.429  0.2363 -0.9522 -0.5660
  189SAPI     P21771   3.295   4.371   6.230  0.6903  0.2902 -0.4155
  189SAPI   O1321772   3.221   4.291   6.326 -0.4161  0.1950  0.4395
  189SAPI   O1421773   3.419   4.308   6.175 -0.7132 -0.3355  0.0849
  189SAPI   O1221774   3.338   4.512   6.294 -0.3221 -0.1129  0.3966
  189SAPI   O1121775   3.207   4.389   6.102 -0.1340 -0.3109 -0.0609
  189SAPI    C121776   3.245   4.482   5.999  0.3038 -0.1643  0.0274
  189SAPI    HA21777   3.189   4.578   6.008  1.0571  0.2380  0.4666
  189SAPI    HB21778   3.351   4.514   6.005 -0.2237  2.3393 -1.8481
  189SAPI    C221779   3.229   4.434   5.851 -0.3339 -0.6631  0.1899
  189SAPI    HS21780   3.271   4.513   5.785 -1.7166  0.0056  0.0645
  189SAPI   O2121781   3.094   4.406   5.809  0.4403 -0.3811  0.2828
  189SAPI   C2121782   3.028   4.520   5.784  0.5191 -0.4085  0.3155
  189SAPI   O2221783   3.064   4.635   5.793  0.3860  0.1831 -0.0791
  189SAPI   C2221784   2.882   4.478   5.750 -0.8440  0.3391  1.2754
  189SAPI   H2R21785   2.872   4.373   5.715 -0.2192  0.3146  1.1539
  189SAPI   H2S21786   2.822   4.483   5.843 -1.6319  0.1902  0.7796
  189SAPI    C321787   3.313   4.311   5.829 -0.4406 -0.9205  0.5400
  189SAPI    HX21788   3.259   4.214   5.839  1.1724 -1.8741  0.3813
  189SAPI    HY21789   3.380   4.299   5.917 -1.1782  0.6807  1.3538
  189SAPI   O3121790   3.395   4.315   5.704 -0.1012  0.6947 -0.3630
  189SAPI   C3121791   3.493   4.404   5.707 -0.3246  0.1416 -0.5410
  189SAPI   O3221792   3.517   4.480   5.798 -0.4286 -0.6187 -0.3496
  189SAPI   C3221793   3.557   4.416   5.571 -0.9076  0.6303  0.5235
  189SAPI   H2X21794   3.509   4.340   5.505 -1.8153  1.2911  0.4050
  189SAPI   H2Y21795   3.665   4.396   5.589 -1.5589 -1.3794  2.7899
  189SAPI   C2321796   2.813   4.574   5.655 -0.3640  0.6884 -0.3939
  189SAPI   H3R21797   2.848   4.678   5.674  0.5192  0.3056  0.0970
  189SAPI   H3S21798   2.703   4.559   5.666 -0.4324  2.2862  1.6510
  189SAPI   C2421799   2.842   4.548   5.501  0.3318  0.2067 -0.0085
  189SAPI   H4R21800   2.792   4.632   5.447  0.9516 -0.6026 -1.9303
  189SAPI   H4S21801   2.807   4.449   5.465 -0.2664  1.2105 -2.4264
  189SAPI   C2521802   2.992   4.562   5.471  0.5350 -0.6390  0.2831
  189SAPI   H5R21803   3.044   4.638   5.531 -2.0284 -0.1647  2.0958
  189SAPI   C2621804   3.047   4.496   5.375 -0.0508 -0.0131  0.2440
  189SAPI   H6R21805   3.152   4.518   5.349  0.4937 -1.7814  0.8505
  189SAPI   C2721806   2.979   4.400   5.289  0.6847 -0.2586  0.0511
  189SAPI   H7R21807   2.881   4.434   5.247  1.1063 -1.7216 -2.2933
  189SAPI   H7S21808   2.945   4.322   5.360 -0.5366  2.1101  2.2219
  189SAPI   C2821809   3.066   4.334   5.190 -0.3428  0.2541  0.0718
  189SAPI   H8R21810   3.176   4.334   5.202 -0.2301 -0.5270 -0.8145
  189SAPI   C2921811   3.023   4.253   5.087  0.6937 -1.0598  0.3316
  189SAPI   H9R21812   3.098   4.220   5.014  0.1356 -1.6846  0.0240
  189SAPI  C21021813   2.879   4.224   5.050  0.3653 -0.1216  0.2524
  189SAPI  H10R21814   2.828   4.321   5.035 -1.3704 -1.1852 -1.0991
  189SAPI  H10S21815   2.829   4.179   5.138 -0.4454 -0.3617 -0.3219
  189SAPI  C21121816   2.868   4.127   4.938 -0.1409  0.2295  0.4549
  189SAPI  H11R21817   2.970   4.098   4.909  0.5016 -1.0674  3.6294
  189SAPI  C21221818   2.764   4.087   4.867 -0.1036  0.7092  0.8781
  189SAPI  H12R21819   2.778   4.006   4.793  0.7348  1.2505  0.4173
  189SAPI  C21321820   2.619   4.129   4.882  0.0570  0.4491 -0.2422
  189SAPI  H13R21821   2.603   4.220   4.945 -1.4751 -0.4698  0.7926
  189SAPI  H13S21822   2.567   4.054   4.946 -1.9176  1.8959 -0.0440
  189SAPI  C21421823   2.544   4.128   4.749  0.1975  0.1851  0.1326
  189SAPI  H14R21824   2.535   4.230   4.708  1.7097  0.6974  1.0262
  189SAPI  C21521825   2.501   4.019   4.681 -0.9141  0.2147  0.3145
  189SAPI  H15R21826   2.452   4.045   4.585  0.4551  1.7946 -0.0123
  189SAPI  C21621827   2.529   3.877   4.708  1.2368 -0.0296  0.1646
  189SAPI  H16R21828   2.430   3.826   4.716  1.5337 -0.6765 -0.2623
  189SAPI  H16S21829   2.571   3.862   4.810  0.5579  1.9864  0.7841
  189SAPI  C21721830   2.607   3.808   4.601 -0.1164  0.5104 -0.3070
  189SAPI  H17R21831   2.601   3.699   4.620 -0.1100  0.1064 -2.3819
  189SAPI  H17S21832   2.715   3.830   4.611  0.4712 -2.3079  0.3244
  189SAPI  C21821833   2.572   3.817   4.451 -0.3816 -0.5103 -0.3171
  189SAPI  H18R21834   2.660   3.769   4.402 -0.6580 -0.1291 -1.2006
  189SAPI  H18S21835   2.561   3.922   4.417  1.4505  0.2284  1.1512
  189SAPI  C21921836   2.455   3.734   4.404  0.4307  0.5785  0.1243
  189SAPI  H19R21837   2.362   3.766   4.456 -0.2612  0.8126 -1.2053
  189SAPI  H19S21838   2.471   3.627   4.430  1.2607  0.5116 -0.6155
  189SAPI  C22021839   2.433   3.748   4.254  0.0046 -0.0311 -0.5580
  189SAPI  H20R21840   2.354   3.678   4.221 -0.3257  0.7244 -1.4136
  189SAPI  H20S21841   2.522   3.730   4.190 -1.4527  0.1515 -2.7433
  189SAPI  H20T21842   2.401   3.854   4.240  1.9309  0.8022  0.7798
  189SAPI   C3321843   3.513   4.547   5.491 -0.4283  0.1934 -0.3003
  189SAPI   H3X21844   3.553   4.637   5.542  0.7476  0.3753 -1.4662
  189SAPI   H3Y21845   3.403   4.545   5.505 -0.7010 -0.4108 -2.1596
  189SAPI   C3421846   3.549   4.540   5.339 -0.2415  0.2863 -0.0965
  189SAPI   H4X21847   3.493   4.458   5.288  3.3476 -2.0674 -0.6191
  189SAPI   H4Y21848   3.650   4.498   5.323  0.1832  1.6087 -1.0482
  189SAPI   C3521849   3.531   4.673   5.257 -0.3227  0.5068 -0.0603
  189SAPI   H5X21850   3.597   4.746   5.309 -0.3869 -1.8982  3.7755
  189SAPI   H5Y21851   3.426   4.703   5.275 -1.2181 -0.9412 -2.3808
  189SAPI   C3621852   3.543   4.655   5.100  0.0614  0.5145  1.1923
  189SAPI   H6X21853   3.469   4.582   5.060 -0.3408  1.3144  0.4477
  189SAPI   H6Y21854   3.646   4.623   5.074  0.3032  0.3035  2.3532
  189SAPI   C3721855   3.514   4.787   5.021  0.0664 -0.1580  0.4376
  189SAPI   H7X21856   3.596   4.860   5.034 -1.1759  1.4250 -0.2214
  189SAPI   H7Y21857   3.423   4.837   5.061  0.8248  0.2353  1.7015
  189SAPI   C3821858   3.487   4.758   4.870  0.7122  0.3342 -0.8888
  189SAPI   H8X21859   3.411   4.677   4.867 -1.3240  2.1022  0.1660
  189SAPI   H8Y21860   3.581   4.736   4.815  0.3798  3.2966 -2.9429
  189SAPI   C3921861   3.419   4.876   4.793 -0.1208 -0.0966 -0.4919
  189SAPI   H9X21862   3.492   4.960   4.794 -2.9590  2.5926  1.4324
  189SAPI   H9Y21863   3.334   4.906   4.858  0.9704 -1.1381  1.5140
  189SAPI  C31021864   3.376   4.831   4.657  0.3651  0.1461  0.4874
  189SAPI  H10X21865   3.289   4.761   4.661  1.3029 -0.9944  2.1281
  189SAPI  H10Y21866   3.469   4.791   4.611 -0.2520  1.0729 -1.7019
  189SAPI  C31121867   3.335   4.952   4.564  0.4035 -0.5739  0.2587
  189SAPI  H11X21868   3.327   4.919   4.459  0.0947  0.2492  0.0148
  189SAPI  H11Y21869   3.408   5.033   4.583  1.2836 -1.3138  0.0647
  189SAPI  C31221870   3.192   5.017   4.602 -0.9432 -0.6620 -0.2096
  189SAPI  H12X21871   3.215   5.058   4.702  2.4480  2.0464 -1.8978
  189SAPI  H12Y21872   3.109   4.943   4.598 -2.0721  0.6166 -2.6495
  189SAPI  C31321873   3.152   5.125   4.501 -0.8548  0.0241  0.0460
  189SAPI  H13X21874   3.229   5.205   4.498 -0.6923 -0.1500 -2.3369
  189SAPI  H13Y21875   3.061   5.171   4.546  0.6087  3.3023 -0.0223
  189SAPI  C31421876   3.127   5.103   4.354 -0.1680 -0.5707 -0.1312
  189SAPI  H14X21877   3.214   5.065   4.295  1.2944  5.4225 -2.6210
  189SAPI  H14Y21878   3.114   5.200   4.301 -0.4196 -0.8124 -0.5205
  189SAPI  C31521879   2.995   5.039   4.326  0.5194  0.3918 -0.0401
  189SAPI  H15X21880   2.930   5.099   4.393  1.0584  0.1590  0.6972
  189SAPI  H15Y21881   3.004   4.933   4.356  3.2795  0.4022 -0.6008
  189SAPI  C31621882   2.952   5.055   4.180  0.2300 -0.2243 -0.1663
  189SAPI  H16X21883   3.044   5.019   4.129  0.6436  1.6269 -0.7797
  189SAPI  H16Y21884   2.923   5.160   4.161  0.4655 -0.5758 -3.0074
  189SAPI  C31721885   2.846   4.953   4.135 -0.0223 -0.3425  0.3579
  189SAPI  H17X21886   2.758   4.963   4.203  1.0576  0.1400  1.7452
  189SAPI  H17Y21887   2.886   4.850   4.147  1.7370  0.0326 -1.7340
  189SAPI  C31821888   2.789   4.980   3.997  0.0829  0.2078  0.0605
  189SAPI  H18X21889   2.758   5.087   3.990  1.8191  0.7668  0.4140
  189SAPI  H18Y21890   2.711   4.904   3.974  1.1716 -0.4774 -1.5400
  189SAPI  H18Z21891   2.876   4.977   3.928  0.1122 -0.2030  0.1163
  190SAPI   C1221892   2.956   1.944   6.971 -0.3864  0.3865 -0.8093
  190SAPI    H221893   2.993   1.929   6.867  2.7002 -0.3695  0.3013
  190SAPI    O221894   3.015   1.841   7.051 -0.3401  0.0004  0.1441
  190SAPI   HO221895   3.004   1.764   6.994 -1.2783  0.7595 -0.7423
  190SAPI   C1321896   2.989   2.075   7.019 -0.9794  0.5697  0.0870
  190SAPI    H321897   2.938   2.136   6.942 -1.0934  0.7804  0.3295
  190SAPI    O321898   3.130   2.106   7.005  0.2015  0.0211 -0.5443
  190SAPI   HO321899   3.147   2.181   7.062 -2.6074  0.2460  0.1436
  190SAPI   C1421900   2.942   2.120   7.154 -0.8075  0.0392 -0.1337
  190SAPI    H421901   3.007   2.058   7.219 -1.7790 -1.5785 -0.6349
  190SAPI    O421902   2.957   2.263   7.180  0.4951  0.3781  0.0690
  190SAPI   HO421903   3.011   2.266   7.260  1.5409  0.2516 -0.6172
  190SAPI   C1521904   2.802   2.070   7.189 -0.3428 -0.4113  0.3907
  190SAPI    H521905   2.736   2.146   7.143  0.0377 -0.7310 -0.7084
  190SAPI    O521906   2.777   2.065   7.329  0.0737  0.0304  0.1548
  190SAPI   HO521907   2.697   2.113   7.352 -0.7460 -1.7140  1.0783
  190SAPI   C1621908   2.744   1.955   7.110  0.8258 -0.1570 -0.1548
  190SAPI    H621909   2.772   1.857   7.156  0.0254 -0.7821 -0.9481
  190SAPI    O621910   2.602   1.965   7.106  0.5563  0.0786  0.3174
  190SAPI   HO621911   2.573   1.879   7.138 -1.1478 -0.0870 -1.5155
  190SAPI   C1121912   2.811   1.916   6.977 -0.2203  0.4032 -0.7661
  190SAPI    H121913   2.763   1.991   6.910 -2.8031 -1.8566 -1.6189
  190SAPI     P21914   2.718   1.760   6.774 -0.2293  0.2681  0.3029
  190SAPI   O1321915   2.733   1.614   6.749 -0.0452  0.1290 -0.1158
  190SAPI   O1421916   2.809   1.846   6.692 -0.1235 -0.2921 -0.2294
  190SAPI   O1221917   2.769   1.784   6.933  0.1889  0.6669  0.2360
  190SAPI   O1121918   2.563   1.791   6.767  0.0927 -0.5114 -0.0967
  190SAPI    C121919   2.513   1.926   6.789 -0.1812 -0.3792  0.2757
  190SAPI    HA21920   2.451   1.928   6.881  0.7863  1.1248  0.9307
  190SAPI    HB21921   2.596   1.998   6.805 -0.7694  0.3011  0.3067
  190SAPI    C221922   2.433   1.968   6.660 -0.5141 -0.2092 -0.1359
  190SAPI    HS21923   2.460   2.075   6.643  2.8364 -1.0141 -0.5695
  190SAPI   O2121924   2.296   1.952   6.686 -0.4451 -0.0132 -0.2004
  190SAPI   C2121925   2.222   2.059   6.689 -0.4100 -0.4398  1.0832
  190SAPI   O2221926   2.264   2.175   6.684 -0.4153  0.3497  0.0728
  190SAPI   C2221927   2.076   2.018   6.697  0.0689 -0.3750  0.1710
  190SAPI   H2R21928   2.049   1.928   6.637 -2.0775  0.4594 -0.1834
  190SAPI   H2S21929   2.057   1.987   6.802 -0.7682  0.0427  0.1465
  190SAPI    C321930   2.468   1.887   6.529  0.1887 -0.2110  0.4964
  190SAPI    HX21931   2.462   1.780   6.560 -1.1256 -0.3698 -0.2274
  190SAPI    HY21932   2.574   1.912   6.505  0.5424  0.4964  2.6631
  190SAPI   O3121933   2.376   1.910   6.420 -0.6653  0.1475  0.2489
  190SAPI   C3121934   2.397   2.027   6.360 -0.0327  0.4327  0.4172
  190SAPI   O3221935   2.465   2.116   6.391 -0.0176 -0.5625 -0.3097
  190SAPI   C3221936   2.323   2.015   6.226 -0.3263 -1.3304  0.4304
  190SAPI   H2X21937   2.251   1.931   6.237  0.4571 -1.8613  1.8289
  190SAPI   H2Y21938   2.392   1.980   6.147 -0.3325 -0.3324 -0.0333
  190SAPI   C2321939   1.976   2.134   6.667  0.2816 -0.9444 -0.2731
  190SAPI   H3R21940   1.999   2.219   6.735  0.2879 -0.3829 -0.9671
  190SAPI   H3S21941   1.874   2.101   6.698  1.7430 -3.9315  1.8708
  190SAPI   C2421942   1.966   2.178   6.523  0.3835  0.3808  0.8984
  190SAPI   H4R21943   1.958   2.082   6.467  0.5852  0.3543  0.9145
  190SAPI   H4S21944   2.057   2.231   6.489  0.1916  0.5880  0.7062
  190SAPI   C2521945   1.845   2.270   6.486  0.8585  1.1735  0.1870
  190SAPI   H5R21946   1.758   2.251   6.551  2.0850 -1.5305  1.1740
  190SAPI   C2621947   1.840   2.364   6.390  0.4304  0.1619 -0.4403
  190SAPI   H6R21948   1.740   2.402   6.364 -0.8413 -2.0035  1.0066
  190SAPI   C2721949   1.956   2.382   6.292  0.1889  1.0219 -0.1616
  190SAPI   H7R21950   1.969   2.299   6.219  1.6036  0.0999  1.0829
  190SAPI   H7S21951   2.049   2.392   6.352  0.1554  5.5852 -0.5564
  190SAPI   C2821952   1.927   2.503   6.204  0.2648 -0.4312 -0.0498
  190SAPI   H8R21953   1.853   2.489   6.125 -1.3750 -2.5110  1.7485
  190SAPI   C2921954   2.010   2.612   6.204  0.1380 -0.1732  0.4041
  190SAPI   H9R21955   1.992   2.692   6.130 -0.3092 -0.8896 -0.2714
  190SAPI  C21021956   2.125   2.642   6.295  0.0893 -0.7714  1.1079
  190SAPI  H10R21957   2.214   2.635   6.229  1.0719 -0.5526  2.3904
  190SAPI  H10S21958   2.132   2.567   6.377 -0.4103  0.2310  2.0990
  190SAPI  C21121959   2.102   2.782   6.349  1.0395 -0.0394 -0.3294
  190SAPI  H11R21960   2.008   2.798   6.403  2.0256  1.2566  1.0771
  190SAPI  C21221961   2.168   2.899   6.322 -0.1267 -0.5979 -0.3640
  190SAPI  H12R21962   2.128   2.988   6.371 -1.0916 -1.3266  0.1941
  190SAPI  C21321963   2.300   2.911   6.246 -0.0933 -0.1047 -0.4538
  190SAPI  H13R21964   2.276   2.881   6.141 -0.3355 -0.0354 -0.4196
  190SAPI  H13S21965   2.358   2.817   6.259 -0.7059 -0.2581  1.4719
  190SAPI  C21421966   2.374   3.042   6.244 -0.2718  0.2382 -0.5308
  190SAPI  H14R21967   2.472   3.046   6.294 -0.1662  1.4175 -0.8076
  190SAPI  C21521968   2.353   3.145   6.163 -0.2601  0.5808 -0.2301
  190SAPI  H15R21969   2.408   3.240   6.165 -0.4849  0.7598 -1.6811
  190SAPI  C21621970   2.224   3.143   6.079  0.1376 -0.3736  0.9785
  190SAPI  H16R21971   2.160   3.218   6.130  1.1645  1.3052 -0.1121
  190SAPI  H16S21972   2.161   3.052   6.081  0.5607 -0.6891  0.3317
  190SAPI  C21721973   2.255   3.179   5.933  0.0928  0.4704 -0.3350
  190SAPI  H17R21974   2.322   3.266   5.949  0.6385 -0.1021  0.5786
  190SAPI  H17S21975   2.159   3.208   5.884 -0.3583  1.6028  1.1499
  190SAPI  C21821976   2.334   3.074   5.851 -1.3549 -0.5014  0.6380
  190SAPI  H18R21977   2.265   2.995   5.814 -0.9561  0.1433 -1.6022
  190SAPI  H18S21978   2.406   3.034   5.925 -0.4870 -1.8901 -0.9143
  190SAPI  C21921979   2.404   3.145   5.736 -0.0070  0.3150  0.3977
  190SAPI  H19R21980   2.485   3.074   5.708 -1.3177 -1.1180  0.1289
  190SAPI  H19S21981   2.451   3.237   5.775 -1.1875  1.4742 -0.8355
  190SAPI  C22021982   2.315   3.168   5.617  0.0066  0.0062  1.0482
  190SAPI  H20R21983   2.277   3.069   5.584  0.1469  0.8727 -1.9566
  190SAPI  H20S21984   2.369   3.216   5.533 -0.6102 -1.7534 -0.3962
  190SAPI  H20T21985   2.223   3.229   5.635  1.2434  1.7129  1.8435
  190SAPI   C3321986   2.246   2.146   6.181  0.3193  0.5803  0.2683
  190SAPI   H3X21987   2.309   2.233   6.209  0.5229  1.0018 -1.3788
  190SAPI   H3Y21988   2.160   2.150   6.251  0.3963 -0.1257  0.4087
  190SAPI   C3421989   2.201   2.148   6.038 -0.1209  0.3243 -0.5182
  190SAPI   H4X21990   2.107   2.089   6.035  0.5005 -0.7287 -0.0401
  190SAPI   H4Y21991   2.274   2.096   5.971  0.2693 -0.3925  0.4407
  190SAPI   C3521992   2.176   2.289   5.979  0.8660 -0.2115 -0.1355
  190SAPI   H5X21993   2.271   2.344   5.962  0.8790  0.4680  1.8599
  190SAPI   H5Y21994   2.117   2.350   6.050  0.5963 -2.1576  1.3780
  190SAPI   C3621995   2.094   2.271   5.846 -0.1323 -0.1016 -0.5447
  190SAPI   H6X21996   2.045   2.368   5.821  0.1529 -0.4056 -2.5189
  190SAPI   H6Y21997   2.022   2.191   5.871 -0.1049 -0.0883 -0.4234
  190SAPI   C3721998   2.183   2.266   5.718 -0.1193  0.1853  0.0149
  190SAPI   H7X21999   2.235   2.168   5.721  1.6792  1.1172  1.8483
  190SAPI   H7Y22000   2.260   2.346   5.718 -1.7999  1.9004  0.2207
  190SAPI   C3822001   2.111   2.299   5.589  0.4760 -0.4319  0.2491
  190SAPI   H8X22002   2.064   2.399   5.600 -1.6799 -1.4136  0.6675
  190SAPI   H8Y22003   2.031   2.224   5.568  1.3586 -1.5091  0.6294
  190SAPI   C3922004   2.200   2.295   5.460 -0.9866  0.4461  0.3197
  190SAPI   H9X22005   2.221   2.188   5.439  1.5409  0.8801  0.3037
  190SAPI   H9Y22006   2.297   2.346   5.480  0.2640 -1.3413 -0.9472
  190SAPI  C31022007   2.131   2.348   5.332  0.6346  0.2983 -0.1917
  190SAPI  H10X22008   2.095   2.452   5.346 -1.6363 -0.5891  1.0511
  190SAPI  H10Y22009   2.041   2.285   5.314  1.9473 -2.0864  1.0144
  190SAPI  C31122010   2.233   2.339   5.216 -0.3638 -0.3446 -0.3628
  190SAPI  H11X22011   2.284   2.242   5.200  0.5903 -0.3722  2.2805
  190SAPI  H11Y22012   2.315   2.412   5.231 -0.1293 -0.6805 -0.0122
  190SAPI  C31222013   2.173   2.388   5.084 -0.2338 -0.1962 -0.5782
  190SAPI  H12X22014   2.132   2.491   5.097 -1.3916 -0.8469  1.2432
  190SAPI  H12Y22015   2.092   2.321   5.052 -2.1080  1.3452  0.7095
  190SAPI  C31322016   2.271   2.390   4.967  0.0689  0.4966  0.4049
  190SAPI  H13X22017   2.326   2.294   4.968  0.8771  0.9388 -0.4278
  190SAPI  H13Y22018   2.346   2.472   4.971 -1.3397  1.8197  0.7069
  190SAPI  C31422019   2.207   2.402   4.829  0.6511  0.2521 -0.4333
  190SAPI  H14X22020   2.181   2.510   4.824  1.5221  0.4308 -1.3758
  190SAPI  H14Y22021   2.112   2.345   4.821 -0.8448  2.5843 -0.1886
  190SAPI  C31522022   2.294   2.350   4.717 -0.0336  0.8301 -0.2765
  190SAPI  H15X22023   2.297   2.239   4.731  0.6982  0.7759 -0.8264
  190SAPI  H15Y22024   2.397   2.386   4.737  0.8482 -0.0863 -2.7795
  190SAPI  C31622025   2.269   2.399   4.576  1.3732 -0.1388 -0.0325
  190SAPI  H16X22026   2.332   2.345   4.502 -0.1288 -2.9170  0.5613
  190SAPI  H16Y22027   2.289   2.508   4.574  1.1812  0.0263  2.6637
  190SAPI  C31722028   2.116   2.375   4.531 -0.9410  0.0141 -0.1652
  190SAPI  H17X22029   2.044   2.406   4.610 -0.6763 -2.0629  0.9661
  190SAPI  H17Y22030   2.114   2.265   4.519  0.5973 -0.2216  1.3257
  190SAPI  C31822031   2.082   2.447   4.399 -0.7280  0.2565  0.6749
  190SAPI  H18X22032   2.144   2.537   4.380 -0.1203 -0.5359 -1.3316
  190SAPI  H18Y22033   1.974   2.458   4.374 -0.2873  0.2800 -1.3771
  190SAPI  H18Z22034   2.119   2.372   4.326 -0.7600 -0.5166  1.4259
  191SAPI   C1222035   5.900   0.458   2.239  0.2328 -0.1955  0.0288
  191SAPI    H222036   5.902   0.352   2.272  1.2624  0.4120  2.0799
  191SAPI    O222037   5.934   0.525   2.359 -0.1811  0.2075  0.0933
  191SAPI   HO222038   5.905   0.468   2.431 -2.1528 -1.0765 -1.5991
  191SAPI   C1322039   6.009   0.486   2.135  0.0231 -0.2891 -0.6456
  191SAPI    H322040   5.996   0.426   2.042  0.1832 -0.4583 -0.5598
  191SAPI    O322041   6.132   0.431   2.183 -0.0577 -0.4667  0.5562
  191SAPI   HO322042   6.113   0.403   2.273 -1.8142  0.5016  0.5353
  191SAPI   C1422043   6.018   0.628   2.096  0.2880 -0.2506  0.7495
  191SAPI    H422044   6.072   0.689   2.172  0.5933  3.6295 -2.2368
  191SAPI    O422045   6.112   0.639   1.988  0.4476 -0.0626  0.0893
  191SAPI   HO422046   6.150   0.725   1.971  0.9858 -0.4848 -0.8888
  191SAPI   C1522047   5.879   0.688   2.052 -0.8179 -0.3069  0.5190
  191SAPI    H522048   5.865   0.657   1.947 -0.8946  0.8252  0.1824
  191SAPI    O522049   5.874   0.838   2.051  0.7583 -0.5046  0.1647
  191SAPI   HO522050   5.816   0.871   2.119 -0.8261  0.5319 -1.5985
  191SAPI   C1622051   5.755   0.637   2.133 -0.2319 -0.0810  0.1072
  191SAPI    H622052   5.758   0.690   2.231 -1.7783 -0.7018  0.5187
  191SAPI    O622053   5.631   0.678   2.070 -0.6395 -0.0113 -0.2929
  191SAPI   HO622054   5.608   0.749   2.130 -2.6849  1.3909 -2.5617
  191SAPI   C1122055   5.758   0.491   2.183 -0.5480 -0.1651  0.1301
  191SAPI    H122056   5.744   0.434   2.089 -0.0649  1.0186 -0.6781
  191SAPI     P22057   5.569   0.332   2.299  0.2353 -0.2814 -0.1498
  191SAPI   O1322058   5.632   0.231   2.215 -0.4895  0.1967 -0.7404
  191SAPI   O1422059   5.427   0.357   2.273  0.2796 -0.6419  0.0047
  191SAPI   O1222060   5.654   0.471   2.278  0.0288  0.3641  0.4904
  191SAPI   O1122061   5.594   0.306   2.454  0.5322 -0.0826  0.0808
  191SAPI    C122062   5.560   0.398   2.563  0.5140  0.0769  0.1563
  191SAPI    HA22063   5.504   0.483   2.519  0.0535 -0.5122 -0.4218
  191SAPI    HB22064   5.504   0.355   2.649  2.5594 -1.0252  0.9907
  191SAPI    C222065   5.682   0.456   2.640  0.5927  0.5835  0.2045
  191SAPI    HS22066   5.753   0.497   2.565  0.3696 -2.0657 -1.5430
  191SAPI   O2122067   5.740   0.354   2.717 -1.0016 -0.8826 -0.1363
  191SAPI   C2122068   5.877   0.334   2.696  0.9018  0.5588 -0.2675
  191SAPI   O2222069   5.951   0.404   2.629 -0.6137 -0.7705 -0.5002
  191SAPI   C2222070   5.917   0.196   2.760  0.3879  0.2469  0.2632
  191SAPI   H2R22071   5.857   0.185   2.853  0.5388  2.6788  0.7272
  191SAPI   H2S22072   5.897   0.127   2.676  0.0575 -0.1823  0.6938
  191SAPI    C322073   5.629   0.571   2.735 -0.6094 -0.7011  0.0619
  191SAPI    HX22074   5.539   0.549   2.796 -1.1939  0.7817 -0.2329
  191SAPI    HY22075   5.601   0.655   2.669  0.0336  1.9596  2.9375
  191SAPI   O3122076   5.738   0.616   2.820  0.2026 -0.1663  0.1175
  191SAPI   C3122077   5.696   0.704   2.913 -0.0847  0.2320 -0.9001
  191SAPI   O3222078   5.582   0.738   2.935  0.4243 -0.3448 -0.0652
  191SAPI   C3222079   5.828   0.750   2.989  0.8104  0.3110  0.1686
  191SAPI   H2X22080   5.897   0.796   2.914  0.2819 -0.7621 -1.0231
  191SAPI   H2Y22081   5.871   0.656   3.028  2.3685  1.4308  1.2667
  191SAPI   C2322082   6.072   0.184   2.793 -0.1899 -0.2128 -0.2091
  191SAPI   H3R22083   6.128   0.243   2.717  0.2482 -0.6853 -0.2630
  191SAPI   H3S22084   6.107   0.079   2.793 -2.5946 -1.0788 -1.8807
  191SAPI   C2422085   6.108   0.234   2.934 -0.2955 -0.1681  0.6567
  191SAPI   H4R22086   6.093   0.343   2.928  0.1876 -0.1282  0.0875
  191SAPI   H4S22087   6.218   0.223   2.944 -0.3230 -1.7226 -0.4104
  191SAPI   C2522088   6.041   0.165   3.054  0.6402 -0.1211  0.1581
  191SAPI   H5R22089   6.065   0.058   3.065 -1.3496 -0.4454  2.0674
  191SAPI   C2622090   5.956   0.228   3.142 -0.3167 -0.0888  0.3835
  191SAPI   H6R22091   5.913   0.177   3.230 -1.7189  0.4205  0.0142
  191SAPI   C2722092   5.918   0.377   3.133  0.1783  0.4995  0.1881
  191SAPI   H7R22093   5.926   0.408   3.026 -1.3180 -0.8408 -0.3629
  191SAPI   H7S22094   5.986   0.442   3.191  0.5793  0.6257 -0.4032
  191SAPI   C2822095   5.779   0.407   3.168 -0.1049 -0.0208  0.1697
  191SAPI   H8R22096   5.706   0.400   3.086 -0.8195  2.6372  0.4885
  191SAPI   C2922097   5.725   0.436   3.286 -0.2098 -0.4481  0.1282
  191SAPI   H9R22098   5.617   0.454   3.296  0.3211  2.5475  1.6723
  191SAPI  C21022099   5.805   0.454   3.415  0.4301  0.6759 -0.0571
  191SAPI  H10R22100   5.725   0.483   3.486  1.8783  0.8912  1.5680
  191SAPI  H10S22101   5.869   0.544   3.410 -2.0304  2.6644  1.7165
  191SAPI  C21122102   5.853   0.331   3.475  0.1434  0.2873 -0.3214
  191SAPI  H11R22103   5.819   0.234   3.437 -0.8687  1.1854 -1.8111
  191SAPI  C21222104   5.944   0.334   3.575  0.9534  1.1151 -0.8281
  191SAPI  H12R22105   5.967   0.236   3.619 -2.2294 -0.4924 -2.4288
  191SAPI  C21322106   5.994   0.468   3.626 -0.0170  0.2187  0.2077
  191SAPI  H13R22107   5.906   0.509   3.680 -0.0271 -0.1031  0.4354
  191SAPI  H13S22108   6.023   0.526   3.536 -1.0031 -0.3123 -0.4707
  191SAPI  C21422109   6.122   0.462   3.714  0.5656  0.5538  0.2863
  191SAPI  H14R22110   6.213   0.487   3.658 -0.7722  2.7034 -1.1045
  191SAPI  C21522111   6.125   0.453   3.850 -0.1617  0.5953 -0.1391
  191SAPI  H15R22112   6.223   0.458   3.901 -1.1158  0.2792  1.8080
  191SAPI  C21622113   6.018   0.418   3.949 -0.3257  0.6024 -0.7419
  191SAPI  H16R22114   6.040   0.319   3.993 -0.7873  0.6629 -0.3713
  191SAPI  H16S22115   5.917   0.413   3.903 -0.7792  1.4512  0.1220
  191SAPI  C21722116   6.010   0.536   4.054 -0.2885  0.6377  1.0191
  191SAPI  H17R22117   5.911   0.515   4.099  1.0482 -0.1446  3.8262
  191SAPI  H17S22118   6.004   0.634   4.002  0.0734 -0.2226 -0.7058
  191SAPI  C21822119   6.116   0.541   4.164 -0.0682 -0.0994 -0.6128
  191SAPI  H18R22120   6.220   0.548   4.127  0.0344  1.4716 -0.1401
  191SAPI  H18S22121   6.116   0.448   4.224 -1.2060  1.0070  1.2283
  191SAPI  C21922122   6.080   0.650   4.266  0.0065  0.1657 -0.2844
  191SAPI  H19R22123   6.083   0.751   4.219  1.3976 -0.4692 -1.6727
  191SAPI  H19S22124   6.164   0.660   4.337  0.0315  2.0290 -0.5213
  191SAPI  C22022125   5.953   0.626   4.354 -1.4838 -0.8908  0.1577
  191SAPI  H20R22126   5.866   0.604   4.287  0.1880 -0.7791 -2.1874
  191SAPI  H20S22127   5.930   0.720   4.408 -0.5293 -0.3795 -0.2992
  191SAPI  H20T22128   5.959   0.538   4.421 -2.7144 -0.9812  0.1801
  191SAPI   C3322129   5.810   0.824   3.126 -0.0130 -0.2640  0.7536
  191SAPI   H3X22130   5.906   0.837   3.180  0.1561 -2.1060  0.9325
  191SAPI   H3Y22131   5.746   0.756   3.186  0.7578 -0.8340  0.9404
  191SAPI   C3422132   5.732   0.955   3.111 -0.3590 -0.3756 -0.0619
  191SAPI   H4X22133   5.633   0.938   3.064  0.2897 -0.2287 -1.5467
  191SAPI   H4Y22134   5.783   1.021   3.037 -0.2364  4.5247  3.8399
  191SAPI   C3522135   5.724   1.031   3.245  0.3671 -0.1777 -0.4934
  191SAPI   H5X22136   5.686   1.134   3.226 -2.1379 -1.1531 -1.1898
  191SAPI   H5Y22137   5.824   1.050   3.289  0.2819  1.6247 -0.9941
  191SAPI   C3622138   5.633   0.970   3.349 -0.3012 -0.2685  0.3376
  191SAPI   H6X22139   5.628   0.859   3.347 -0.5265 -0.2511 -0.4727
  191SAPI   H6Y22140   5.528   1.005   3.336 -0.3739 -0.1350  1.2588
  191SAPI   C3722141   5.668   0.996   3.496 -0.8332 -0.2884  0.4427
  191SAPI   H7X22142   5.583   0.969   3.563  0.1530 -0.9570  1.4479
  191SAPI   H7Y22143   5.705   1.101   3.497  2.1302 -1.2259  3.0523
  191SAPI   C3822144   5.785   0.913   3.546  0.0903 -0.1225  0.1374
  191SAPI   H8X22145   5.860   0.912   3.464  1.4685  1.8627  1.2707
  191SAPI   H8Y22146   5.761   0.810   3.578 -2.5803  0.6513  0.9428
  191SAPI   C3922147   5.854   0.966   3.678  0.5796 -0.5577  0.5427
  191SAPI   H9X22148   5.902   1.061   3.647 -2.3464  0.3397 -1.6260
  191SAPI   H9Y22149   5.938   0.893   3.677 -1.8264 -3.6157 -2.2734
  191SAPI  C31022150   5.786   0.964   3.821 -0.0660 -0.2521 -0.0125
  191SAPI  H10X22151   5.706   1.037   3.843 -1.1517 -1.4595  0.1744
  191SAPI  H10Y22152   5.873   0.981   3.888 -0.0476  2.2114 -0.5738
  191SAPI  C31122153   5.732   0.824   3.854  0.8656 -0.5981  0.3032
  191SAPI  H11X22154   5.797   0.745   3.813  0.6670 -1.2300  1.1746
  191SAPI  H11Y22155   5.637   0.819   3.796 -1.1720 -0.0142  3.2856
  191SAPI  C31222156   5.677   0.802   3.992 -0.2026  0.0991 -0.7647
  191SAPI  H12X22157   5.680   0.693   4.013 -0.6602  0.2636  0.2169
  191SAPI  H12Y22158   5.571   0.835   3.989  0.0226  1.0077  0.4689
  191SAPI  C31322159   5.758   0.869   4.111 -0.2651 -0.6376 -0.1736
  191SAPI  H13X22160   5.789   0.973   4.090  2.0134 -1.1961  0.1332
  191SAPI  H13Y22161   5.851   0.813   4.137 -1.0225 -0.2821  3.9819
  191SAPI  C31422162   5.671   0.888   4.234 -0.2391  0.2808 -0.7782
  191SAPI  H14X22163   5.662   0.788   4.282  1.8416 -0.1409 -1.1504
  191SAPI  H14Y22164   5.565   0.919   4.219 -0.2671  0.5163 -0.1523
  191SAPI  C31522165   5.746   0.973   4.342 -0.4189 -0.1395 -0.0714
  191SAPI  H15X22166   5.751   1.081   4.317 -0.7279 -0.5367 -1.9676
  191SAPI  H15Y22167   5.845   0.924   4.356  0.7357  1.3099 -2.6136
  191SAPI  C31622168   5.684   0.977   4.481  0.1054 -0.5036 -0.2564
  191SAPI  H16X22169   5.675   0.879   4.534  4.0823 -1.4108 -0.9641
  191SAPI  H16Y22170   5.586   1.024   4.461 -0.0219 -1.7136 -2.7614
  191SAPI  C31722171   5.746   1.081   4.577 -0.2101 -0.6301 -0.4619
  191SAPI  H17X22172   5.678   1.081   4.664 -0.2814  1.5664 -0.4620
  191SAPI  H17Y22173   5.751   1.184   4.537 -1.9226 -0.8176 -1.2340
  191SAPI  C31822174   5.885   1.043   4.622 -0.2217  1.1719  0.3483
  191SAPI  H18X22175   5.954   1.052   4.535  1.0740  2.1485  1.4386
  191SAPI  H18Y22176   5.886   0.940   4.662  2.8432  0.2521 -1.7082
  191SAPI  H18Z22177   5.919   1.113   4.701  0.5854  2.3740 -1.0224
  192SAPI   C1222178   0.124   6.261   2.139  0.4601 -0.3175 -0.0188
  192SAPI    H222179   0.178   6.321   2.063  0.4817  1.6803  1.4755
  192SAPI    O222180   0.033   6.342   2.209 -0.2463 -0.0880 -0.8682
  192SAPI   HO222181   0.062   6.433   2.199 -2.8355  0.7607 -1.4510
  192SAPI   C1322182   0.050   6.150   2.074 -0.6525  0.2805 -0.0905
  192SAPI    H322183   0.114   6.065   2.041 -0.0133  0.3833  0.8605
  192SAPI    O322184  -0.019   6.189   1.954 -0.1466 -0.0015  0.5831
  192SAPI   HO322185  -0.077   6.262   1.977 -1.1323 -0.5988  0.0638
  192SAPI   C1422186  -0.044   6.080   2.159  0.2909  0.2177 -0.0295
  192SAPI    H422187  -0.123   6.153   2.189 -0.7676  0.4586 -3.0487
  192SAPI    O422188  -0.124   5.975   2.104 -0.7888  0.4532 -0.0817
  192SAPI   HO422189  -0.185   6.018   2.044 -0.2481  0.5784 -0.5521
  192SAPI   C1522190   0.020   6.036   2.296  0.0683  0.1808 -0.2818
  192SAPI    H522191   0.060   5.934   2.280 -0.1146  0.0226  0.2561
  192SAPI    O522192  -0.076   6.029   2.405 -0.3285  0.4019 -0.5430
  192SAPI   HO522193  -0.122   5.945   2.397  0.7864 -0.1849 -0.9222
  192SAPI   C1622194   0.154   6.098   2.339  0.5077 -0.5183  0.4140
  192SAPI    H622195   0.128   6.164   2.425  0.1112 -0.3740  0.1850
  192SAPI    O622196   0.243   6.005   2.395  0.0145 -0.1193  0.1540
  192SAPI   HO622197   0.286   6.035   2.475  1.8061  0.9355 -1.1094
  192SAPI   C1122198   0.220   6.193   2.237 -0.8619  1.0029 -0.1626
  192SAPI    H122199   0.290   6.129   2.179  2.0080  4.1443 -0.4956
  192SAPI     P22200   0.419   6.388   2.227 -0.5919 -0.5075 -0.1751
  192SAPI   O1322201   0.374   6.531   2.227  0.2473  0.6245  0.5318
  192SAPI   O1422202   0.447   6.331   2.093  0.5543  0.5214 -0.8214
  192SAPI   O1222203   0.310   6.288   2.306  0.5782  0.2544  0.5814
  192SAPI   O1122204   0.553   6.378   2.312  0.0264 -0.2073 -0.4618
  192SAPI    C122205   0.592   6.273   2.390  0.1053  0.0234 -0.2438
  192SAPI    HA22206   0.572   6.172   2.349  1.9760 -1.3657  2.0006
  192SAPI    HB22207   0.702   6.290   2.395  0.5631 -2.0586 -1.9643
  192SAPI    C222208   0.536   6.286   2.533  0.5078 -0.2124  0.0918
  192SAPI    HS22209   0.424   6.284   2.534  0.3793  2.7616  0.1358
  192SAPI   O2122210   0.568   6.414   2.595 -0.1706  0.4457  0.1797
  192SAPI   C2122211   0.478   6.509   2.622 -0.1280 -0.0938  0.4592
  192SAPI   O2222212   0.355   6.488   2.623 -0.3340 -0.1894  0.4425
  192SAPI   C2222213   0.550   6.637   2.659  0.1700 -0.1150 -0.3180
  192SAPI   H2R22214   0.648   6.614   2.706 -0.6267 -0.7304  1.0952
  192SAPI   H2S22215   0.564   6.707   2.574  2.8476  0.2789  0.3641
  192SAPI    C322216   0.561   6.163   2.625  0.3776 -0.8191 -0.0358
  192SAPI    HX22217   0.670   6.150   2.637  0.9031  1.3270 -1.7064
  192SAPI    HY22218   0.522   6.075   2.570 -0.9950 -1.5270  1.9512
  192SAPI   O3122219   0.500   6.173   2.747 -0.3868 -0.8642 -0.2502
  192SAPI   C3122220   0.378   6.138   2.764  0.3228 -0.9000 -0.6509
  192SAPI   O3222221   0.309   6.069   2.685 -0.3697  0.0176 -0.1536
  192SAPI   C3222222   0.339   6.170   2.911  0.0656 -0.0354  1.0387
  192SAPI   H2X22223   0.397   6.256   2.948  1.5239 -0.0884 -0.9894
  192SAPI   H2Y22224   0.364   6.080   2.971  2.9610  0.4058  0.6415
  192SAPI   C2322225   0.466   6.697   2.780 -0.3230 -0.2562 -0.3260
  192SAPI   H3R22226   0.423   6.621   2.850 -0.0134 -1.0114 -0.9376
  192SAPI   H3S22227   0.378   6.735   2.725 -0.2154 -1.6654 -1.5436
  192SAPI   C2422228   0.549   6.801   2.851 -1.1801  0.4082 -0.8971
  192SAPI   H4R22229   0.476   6.867   2.903  0.2332  3.2279 -2.2499
  192SAPI   H4S22230   0.606   6.874   2.789  1.5380 -1.1822 -0.4263
  192SAPI   C2522231   0.643   6.750   2.957  0.9021 -0.0901 -0.0660
  192SAPI   H5R22232   0.740   6.712   2.921  0.3110  0.0415 -1.8875
  192SAPI   C2622233   0.625   6.741   3.091 -0.1177 -0.2617 -0.4373
  192SAPI   H6R22234   0.710   6.701   3.147  1.3500 -1.9657 -3.5965
  192SAPI   C2722235   0.498   6.762   3.164 -0.0259  0.5881  0.3346
  192SAPI   H7R22236   0.422   6.758   3.083  0.9358 -0.1581 -0.5583
  192SAPI   H7S22237   0.490   6.867   3.200 -1.3986  0.5245  0.2771
  192SAPI   C2822238   0.472   6.660   3.271 -0.1188 -0.3006 -0.0232
  192SAPI   H8R22239   0.488   6.554   3.247  0.9527 -0.1671  0.0600
  192SAPI   C2922240   0.462   6.684   3.401 -0.1936 -0.6509  0.3158
  192SAPI   H9R22241   0.456   6.591   3.459 -2.2394 -3.2509 -3.6264
  192SAPI  C21022242   0.453   6.813   3.475  0.2783  0.0261 -0.0137
  192SAPI  H10R22243   0.435   6.893   3.400  1.3229  1.5707  1.3198
  192SAPI  H10S22244   0.552   6.845   3.513 -0.0584 -0.0562  0.9618
  192SAPI  C21122245   0.351   6.827   3.583  0.3978  0.1614 -0.9928
  192SAPI  H11R22246   0.251   6.848   3.542  0.5098  1.3776 -0.6758
  192SAPI  C21222247   0.368   6.810   3.722  0.5597 -1.0339 -0.2036
  192SAPI  H12R22248   0.281   6.834   3.785 -0.6626 -1.6584 -1.5961
  192SAPI  C21322249   0.497   6.750   3.781  0.1221  0.0849 -0.7156
  192SAPI  H13R22250   0.582   6.822   3.784  0.6717 -0.5744  1.0416
  192SAPI  H13S22251   0.523   6.666   3.712  2.4439 -1.8772  2.2525
  192SAPI  C21422252   0.475   6.691   3.915  0.1643  0.3776  0.0869
  192SAPI  H14R22253   0.420   6.598   3.896 -1.3191  1.5952 -1.9940
  192SAPI  C21522254   0.501   6.743   4.032  0.1992 -0.4718 -0.1156
  192SAPI  H15R22255   0.463   6.691   4.120 -0.6417  3.3798  2.0432
  192SAPI  C21622256   0.552   6.885   4.057 -0.4303 -0.3548 -0.0839
  192SAPI  H16R22257   0.504   6.962   3.994  0.4401 -1.3574 -2.0643
  192SAPI  H16S22258   0.663   6.881   4.058 -0.4215 -1.5333  2.3380
  192SAPI  C21722259   0.523   6.937   4.204 -0.0593 -0.9993  0.5950
  192SAPI  H17R22260   0.425   6.900   4.242 -0.0699 -1.3361  0.2462
  192SAPI  H17S22261   0.537   7.047   4.207  1.9057 -1.2335  1.7856
  192SAPI  C21822262   0.619   6.885   4.309  0.3578 -0.6524  0.4200
  192SAPI  H18R22263   0.614   6.775   4.293 -1.6719 -0.3836 -1.1806
  192SAPI  H18S22264   0.574   6.900   4.409  1.6201 -0.5047  0.9839
  192SAPI  C21922265   0.761   6.950   4.315  0.6668 -0.3384  0.5099
  192SAPI  H19R22266   0.741   7.057   4.339 -1.5745 -0.6311  0.2113
  192SAPI  H19S22267   0.811   6.940   4.216  0.3687  1.0405  0.1999
  192SAPI  C22022268   0.846   6.885   4.428  0.7683  0.3571  1.1114
  192SAPI  H20R22269   0.795   6.920   4.520  1.0792 -1.3549  1.9749
  192SAPI  H20S22270   0.950   6.922   4.414  0.0901  1.4843 -1.5005
  192SAPI  H20T22271   0.841   6.774   4.420  2.3559  0.3167  0.3912
  192SAPI   C3322272   0.193   6.220   2.921 -1.2400 -0.5744 -0.1240
  192SAPI   H3X22273   0.129   6.163   2.850  0.2643 -0.3403 -1.7317
  192SAPI   H3Y22274   0.188   6.328   2.893 -1.5011 -0.9241 -1.4846
  192SAPI   C3422275   0.129   6.213   3.061  0.2019  0.2569 -0.2660
  192SAPI   H4X22276   0.102   6.107   3.076 -0.7749  0.6563  0.9586
  192SAPI   H4Y22277   0.033   6.268   3.052 -0.2765 -0.7833 -1.9214
  192SAPI   C3522278   0.197   6.286   3.174  0.0154 -0.2622 -0.7976
  192SAPI   H5X22279   0.223   6.386   3.132  2.6136 -0.2936  0.5505
  192SAPI   H5Y22280   0.290   6.235   3.205 -1.1615 -1.7154  0.5256
  192SAPI   C3622281   0.106   6.300   3.290  0.5579 -0.1034  0.0123
  192SAPI   H6X22282   0.065   6.200   3.312  1.8411 -1.0787 -1.7537
  192SAPI   H6Y22283   0.014   6.357   3.268  0.2143  0.0355  1.6663
  192SAPI   C3722284   0.178   6.361   3.405  0.0364 -0.1884  0.5041
  192SAPI   H7X22285   0.167   6.471   3.399 -0.0033 -0.2297 -0.3614
  192SAPI   H7Y22286   0.285   6.329   3.403 -0.5297 -2.1981 -0.8544
  192SAPI   C3822287   0.136   6.288   3.537  0.3689 -0.3350  0.2565
  192SAPI   H8X22288   0.187   6.191   3.550  0.5593 -0.3507 -0.5539
  192SAPI   H8Y22289   0.026   6.276   3.548  0.4232 -0.6126  0.4787
  192SAPI   C3922290   0.182   6.362   3.658  0.0852  0.3566 -0.2240
  192SAPI   H9X22291   0.137   6.464   3.666  0.9183  0.6975  0.3214
  192SAPI   H9Y22292   0.290   6.391   3.661  0.5557 -1.2979 -0.4094
  192SAPI  C31022293   0.150   6.291   3.794 -0.4255 -0.5968 -0.1364
  192SAPI  H10X22294   0.217   6.203   3.806  1.9093  1.1703  0.4074
  192SAPI  H10Y22295   0.042   6.264   3.789 -0.5524 -0.4294  1.1755
  192SAPI  C31122296   0.158   6.375   3.926 -0.2442 -0.5431 -0.0573
  192SAPI  H11X22297   0.093   6.460   3.898  1.2709 -0.2798 -3.2458
  192SAPI  H11Y22298   0.257   6.419   3.954  0.2334 -0.7008 -1.4136
  192SAPI  C31222299   0.132   6.283   4.049  0.8812  0.0358 -0.1504
  192SAPI  H12X22300   0.196   6.192   4.041 -0.9024 -1.1726 -1.5942
  192SAPI  H12Y22301   0.025   6.251   4.049  2.1159 -5.1109  1.4025
  192SAPI  C31322302   0.157   6.361   4.182 -0.1839  0.5682  0.4344
  192SAPI  H13X22303   0.264   6.392   4.179  0.1597 -0.6349 -0.5927
  192SAPI  H13Y22304   0.145   6.294   4.269 -0.0704 -1.4762 -1.0494
  192SAPI  C31422305   0.074   6.496   4.196  0.4584  0.0343  0.6226
  192SAPI  H14X22306  -0.032   6.461   4.188  0.2088  0.7110  0.8873
  192SAPI  H14Y22307   0.095   6.564   4.110  0.9534 -1.0744 -0.1561
  192SAPI  C31522308   0.093   6.576   4.324  0.6762 -0.6271  0.4217
  192SAPI  H15X22309   0.045   6.521   4.407 -2.1125  0.6128 -0.2180
  192SAPI  H15Y22310   0.040   6.674   4.319  0.4731 -0.7676 -0.5529
  192SAPI  C31622311   0.243   6.595   4.348 -0.2279 -0.0165 -0.1651
  192SAPI  H16X22312   0.300   6.650   4.270  0.6335  0.6477  0.9014
  192SAPI  H16Y22313   0.296   6.498   4.360 -1.6999 -1.1435 -2.2245
  192SAPI  C31722314   0.271   6.653   4.482 -0.4576  0.2855  0.3235
  192SAPI  H17X22315   0.240   6.759   4.476 -0.0386  0.3550 -1.0160
  192SAPI  H17Y22316   0.381   6.657   4.494 -0.2708 -1.3300 -0.5787
  192SAPI  C31822317   0.213   6.583   4.604 -0.1796 -0.1223 -0.5658
  192SAPI  H18X22318   0.259   6.482   4.614 -0.3656 -0.0566  1.0813
  192SAPI  H18Y22319   0.102   6.580   4.608 -0.1507 -1.0872  2.9754
  192SAPI  H18Z22320   0.247   6.645   4.690  0.0477 -0.6727 -0.2555
  193SOD    SOD22321   1.639   3.541   8.221 -0.3708 -0.4169 -0.5109
  194SOD    SOD22322   4.276   5.184   6.696  0.0117 -0.2878 -0.0011
  195SOD    SOD22323   0.173   0.914   1.851 -0.1052 -0.1114 -0.1651
  196SOD    SOD22324   2.980   5.224   0.481 -0.3639  0.2457  0.4471
  197SOD    SOD22325   1.630   4.237   2.241 -0.0273 -0.3171  0.2629
  198SOD    SOD22326   3.469   4.620   1.154 -0.3119  0.2694  0.6564
  199SOD    SOD22327   6.851   2.892   7.386  0.3122 -0.2252 -0.5336
  200SOD    SOD22328   1.555   6.330   1.822 -0.5925 -0.0345 -0.1421
  201SOD    SOD22329   1.675   1.509   7.961  0.0285  0.2492  0.2715
  202SOD    SOD22330   1.021   5.098   8.415 -0.4065 -0.6676  0.0373
  203SOD    SOD22331   2.083   6.831   7.320 -0.3507 -0.0396 -0.2158
  204SOD    SOD22332   3.265   1.509   8.179  0.1280 -0.3510  0.3886
  205SOD    SOD22333   6.556   1.762   1.110 -0.0291 -0.1444  0.3047
  206SOD    SOD22334   0.319   2.489   7.131 -0.0548  0.1310 -0.2317
  207SOD    SOD22335   5.095   6.352   1.472  0.1120  0.0108 -0.0228
  208SOD    SOD22336   4.312   1.848   6.718 -0.0979 -0.0123 -0.0903
  209SOD    SOD22337   3.379   6.361   1.795  0.3175 -0.6334 -0.1430
  210SOD    SOD22338   3.476   5.400   6.527  0.1157  0.5488  0.4175
  211SOD    SOD22339   0.657   6.117   6.980  0.2867  0.1783  0.3284
  212SOD    SOD22340   5.898   1.391   2.326  0.1499  0.0534 -0.0294
  213SOD    SOD22341   4.664   6.091   8.335 -0.1013  0.2018  0.2288
  214SOD    SOD22342   4.981   0.444   1.661 -0.6335 -0.1717  0.2354
  215SOD    SOD22343   3.223   1.075   0.397 -0.4631  0.2416  0.7872
  216SOD    SOD22344   1.851   0.565   1.353 -0.0545 -0.0365 -0.1540
  217SOD    SOD22345   0.254   0.806   7.488 -0.2393  0.2479 -0.1072
  218SOD    SOD22346   6.536   4.283   6.641 -0.2463  0.0289 -0.0488
  219SOD    SOD22347   3.854   3.484   7.072  0.2582 -0.5075 -0.3228
  220SOD    SOD22348   5.565   2.039   0.162  0.2672  0.8631  0.3394
  221SOD    SOD22349   3.341   1.895   7.318  0.5331 -0.0154  0.2073
  222SOD    SOD22350   1.302   1.988   1.528 -0.3328 -0.3537 -0.0552
  223SOD    SOD22351   1.405   6.234   6.249  0.0347 -0.1217  0.5364
  224SOD    SOD22352   0.564   4.775   7.936  0.3704  0.5496 -0.1377
  225SOD    SOD22353   1.434   1.408   2.413 -0.2207 -0.5437 -0.0973
  226SOD    SOD22354   4.742   3.294   7.589 -1.1248 -0.3204  0.1346
  227SOD    SOD22355   0.256   3.604   0.182 -0.0879  0.1845  0.1901
  228SOD    SOD22356   2.921   1.991   0.493 -0.0124 -0.2295 -0.1286
  229SOD    SOD22357   2.737   6.195   1.556  0.3816  0.0360  0.4023
  230CLA    CLA22358   3.399   2.937   0.775 -0.3909  0.0593 -0.1884
  231CLA    CLA22359   3.455   0.146   1.615 -0.1678 -0.0195  0.1070
  232CLA    CLA22360   2.903   1.628   0.894 -0.2061 -0.2129  0.1255
  233CLA    CLA22361   5.746   6.322   0.258  0.3765  0.6389 -0.3973
  234CLA    CLA22362   6.385   2.407   1.475 -0.0578 -0.1565 -0.1601
  235CLA    CLA22363   5.973   1.545   1.016 -0.2457 -0.5128 -0.0821
  236CLA    CLA22364   6.343   3.799   7.352  0.3897  0.3467 -0.2216
  237CLA    CLA22365   5.976   4.035   8.428  0.1523  0.0379 -0.0697
  238CLA    CLA22366   5.216   6.218   0.249  0.2642  0.1628 -0.2196
  239CLA    CLA22367   1.300   2.651   8.583 -0.2426  0.2308  0.0428
  240CLA    CLA22368   2.713   4.841   7.022  0.0437  0.1163 -0.1826
  241CLA    CLA22369   4.771   2.979   0.521 -0.1324 -0.3985 -0.0285
  242CLA    CLA22370   6.656   2.535   7.635  0.0118 -0.1387 -0.7280
  243CLA    CLA22371   3.128   2.280   7.495  0.1550  0.3009  0.0237
  244CLA    CLA22372   4.676   0.200   1.059  0.2196 -0.4706 -0.0950
  245CLA    CLA22373   2.494   5.407   7.635 -0.0146 -0.0137 -0.1133
  246CLA    CLA22374   0.147   6.008   1.246 -0.3448 -0.4366  0.3710
  247TIP3   OH222375   0.663   0.170   0.868  0.2207  0.4867  0.8144
  247TIP3    H122376   0.647   0.178   0.774 -0.7233  0.9569  1.0044
  247TIP3    H222377   0.610   0.096   0.895  3.1473 -1.9673  0.4110
  248TIP3   OH222378   5.989   5.069   0.461  0.0981 -0.3441  0.1464
  248TIP3    H122379   5.959   5.110   0.543  2.3884  1.0253  0.4004
  248TIP3    H222380   5.911   5.065   0.406 -0.4873  3.9759  0.3180
  249TIP3   OH222381   3.244   5.473   0.183 -0.2200 -0.1830 -0.0457
  249TIP3    H122382   3.164   5.517   0.154  0.9173  1.2530 -1.2242
  249TIP3    H222383   3.259   5.405   0.117  0.5846  0.8913 -1.0068
  250TIP3   OH222384   3.496   0.955   7.967 -0.2288 -0.1970  0.0466
  250TIP3    H122385   3.506   0.993   7.880  0.1988 -0.5297 -0.0544
  250TIP3    H222386   3.540   0.870   7.961  0.6882  0.2006  0.8715
  251TIP3   OH222387   3.627   1.719   7.648 -0.4614  0.0189  0.0982
  251TIP3    H122388   3.714   1.758   7.641  0.3727 -1.8420 -0.8087
  251TIP3    H222389   3.640   1.639   7.699 -1.3862 -0.9002 -1.0280
  252TIP3   OH222390   3.504   1.459   0.088 -0.3718 -0.2335 -0.2108
  252TIP3    H122391   3.453   1.435   0.166  0.4407 -2.8442 -0.3716
  252TIP3    H222392   3.537   1.547   0.107 -0.6130 -0.5847  2.1866
  253TIP3   OH222393   2.359   3.551   8.551 -0.1527  0.5937 -0.0910
  253TIP3    H122394   2.293   3.607   8.512 -1.0433  0.0077  0.5342
  253TIP3    H222395   2.357   3.573   8.644  0.1515  0.1932  0.0141
  254TIP3   OH222396   4.525   5.277   0.527  0.3267 -0.4857 -0.4450
  254TIP3    H122397   4.509   5.272   0.621  1.9363  2.2926  0.1032
  254TIP3    H222398   4.610   5.235   0.515  0.5308 -0.0647 -0.4940
  255TIP3   OH222399   2.565   2.319   7.817 -0.2806 -0.2708 -0.9090
  255TIP3    H122400   2.474   2.336   7.842 -0.4506 -0.9992 -1.0133
  255TIP3    H222401   2.570   2.224   7.807  1.1983 -0.5837  1.8329
  256TIP3   OH222402   4.725   6.730   0.425  0.5793 -0.7690  0.4081
  256TIP3    H122403   4.675   6.652   0.452  1.6880 -1.0933  1.6227
  256TIP3    H222404   4.814   6.713   0.456  0.8957  0.8849  0.4814
  257TIP3   OH222405   0.028   5.037   0.627 -0.2508  0.3762  0.2423
  257TIP3    H122406   0.038   5.123   0.668  2.5054  0.4174 -0.2933
  257TIP3    H222407   0.113   5.021   0.586 -2.2835 -0.2194 -4.3599
  258TIP3   OH222408   3.849   2.894   1.181 -0.2960 -0.6812  0.0964
  258TIP3    H122409   3.942   2.881   1.195 -0.1134 -1.7335 -1.7420
  258TIP3    H222410   3.823   2.959   1.246  1.5046 -1.0714  1.2536
  259TIP3   OH222411   1.402   4.572   0.220  0.2228 -0.0965 -0.2881
  259TIP3    H122412   1.480   4.612   0.183  1.2953  0.1578  2.0271
  259TIP3    H222413   1.427   4.481   0.236 -0.9188 -0.7562 -2.0131
  260TIP3   OH222414   5.295   6.497   0.995 -0.5552  0.0824  0.1549
  260TIP3    H122415   5.283   6.573   0.938 -0.2693  0.8044  1.0318
  260TIP3    H222416   5.210   6.485   1.037 -0.3579  0.4920  0.6898
  261TIP3   OH222417   0.033   2.702   1.785  0.5779 -0.0781 -0.2131
  261TIP3    H122418  -0.006   2.743   1.707 -0.3961  1.0792  0.8313
  261TIP3    H222419   0.115   2.664   1.754 -0.3524 -0.6991 -2.0443
  262TIP3   OH222420   1.913   5.122   0.991 -0.2869 -0.7073  0.1798
  262TIP3    H122421   1.897   5.216   1.000  0.6493 -0.3671 -1.3425
  262TIP3    H222422   1.993   5.117   0.939  0.0737 -2.3581  0.8420
  263TIP3   OH222423   1.806   2.281   7.411 -0.3688 -0.3436 -0.0765
  263TIP3    H122424   1.852   2.299   7.493  1.1019  0.4514 -1.0389
  263TIP3    H222425   1.840   2.197   7.381  0.8493  0.4502 -1.0110
  264TIP3   OH222426   1.286   0.649   8.294 -0.3763  0.1768  0.2106
  264TIP3    H122427   1.209   0.692   8.332 -0.4657 -0.7432  1.1210
  264TIP3    H222428   1.255   0.563   8.267  0.2828 -0.1382  0.4191
  265TIP3   OH222429   4.149   6.208   1.078  0.0458  0.4730  0.7939
  265TIP3    H122430   4.136   6.133   1.137  1.6388  0.6399  1.3907
  265TIP3    H222431   4.079   6.199   1.013 -0.8942 -0.5088  1.8904
  266TIP3   OH222432   1.325   5.194   0.609 -0.2395  0.6431 -0.2227
  266TIP3    H122433   1.339   5.119   0.667  0.8854  0.9038 -0.1266
  266TIP3    H222434   1.414   5.221   0.584 -0.6839  0.8597 -1.6433
  267TIP3   OH222435   1.384   2.530   7.562 -0.2424 -0.0216 -0.4592
  267TIP3    H122436   1.367   2.611   7.610  2.0466 -0.2200  0.8530
  267TIP3    H222437   1.379   2.461   7.629  2.1820 -0.3976 -0.5511
  268TIP3   OH222438   0.218   3.430   1.538 -0.0995 -0.0107 -0.4066
  268TIP3    H122439   0.161   3.507   1.531  0.3899  0.4898  0.8302
  268TIP3    H222440   0.300   3.456   1.495  0.0184  0.1064 -0.1094
  269TIP3   OH222441   3.093   1.380   6.964 -0.0069 -0.3583  0.1338
  269TIP3    H122442   3.006   1.356   6.932 -0.1405  0.9305 -0.5265
  269TIP3    H222443   3.094   1.476   6.963  1.7229 -0.3365 -0.7182
  270TIP3   OH222444   1.090   1.806   8.607  0.1521  0.0609  0.2311
  270TIP3    H122445   1.088   1.890   8.561 -0.0323  0.4919  1.0144
  270TIP3    H222446   1.166   1.812   8.665  0.9247 -0.8275 -0.6408
  271TIP3   OH222447   2.718   2.014   7.827 -0.0313  0.4313 -0.1775
  271TIP3    H122448   2.635   2.044   7.791 -0.2749  1.9663  1.5191
  271TIP3    H222449   2.784   2.067   7.782  0.1971 -1.3985 -2.1763
  272TIP3   OH222450   5.910   4.479   1.314  0.0048  0.1837  0.1698
  272TIP3    H122451   5.839   4.513   1.259 -0.5302 -0.0584  0.7001
  272TIP3    H222452   5.882   4.390   1.336 -0.6889  0.8792  2.3290
  273TIP3   OH222453   2.070   4.242   0.951  0.3474  0.2556 -0.8201
  273TIP3    H122454   2.031   4.294   1.022  1.0746  2.2800 -1.8093
  273TIP3    H222455   2.147   4.294   0.924  0.1191 -0.4746 -3.0373
  274TIP3   OH222456   0.604   4.964   1.056  0.2842 -0.2363 -0.0282
  274TIP3    H122457   0.616   5.055   1.082 -1.9751  0.3706 -0.9249
  274TIP3    H222458   0.613   4.965   0.960 -1.8209 -0.5278 -0.2678
  275TIP3   OH222459   6.172   4.537   1.998  1.2814 -0.3831 -0.1887
  275TIP3    H122460   6.100   4.509   2.055  1.3892  0.0551  0.1686
  275TIP3    H222461   6.251   4.521   2.050  1.4245 -0.5837 -0.4646
  276TIP3   OH222462   0.945   5.070   7.033  0.5250  0.2234 -0.3049
  276TIP3    H122463   0.995   5.093   6.955  0.3641 -1.2812 -0.8837
  276TIP3    H222464   1.007   5.079   7.105  0.9965  0.5289 -0.7462
  277TIP3   OH222465   6.333   4.811   0.172 -0.4820 -0.1582  0.0063
  277TIP3    H122466   6.263   4.870   0.144 -0.0375  0.2213 -0.3192
  277TIP3    H222467   6.290   4.751   0.234 -1.2966 -0.4943 -0.8530
  278TIP3   OH222468   4.667   2.506   1.656 -0.1736 -0.7525 -0.0194
  278TIP3    H122469   4.613   2.537   1.728 -1.5085 -0.5783 -1.0569
  278TIP3    H222470   4.727   2.579   1.638 -0.1688 -0.6069  0.5776
  279TIP3   OH222471   4.813   4.785   1.346 -0.0220  0.1561  0.2146
  279TIP3    H122472   4.801   4.808   1.254  1.6943 -0.1900 -0.1331
  279TIP3    H222473   4.746   4.836   1.392  0.8699  2.5680 -0.9448
  280TIP3   OH222474   3.596   1.275   7.999 -0.2096  0.7289 -0.3353
  280TIP3    H122475   3.591   1.286   8.094 -0.5469  2.5227 -0.5232
  280TIP3    H222476   3.688   1.290   7.978 -0.1049  0.1751 -0.2838
  281TIP3   OH222477   6.156   3.696   0.182 -0.5493 -0.2665  0.2059
  281TIP3    H122478   6.148   3.769   0.120 -2.5297 -0.4200  0.2122
  281TIP3    H222479   6.241   3.656   0.161  3.0463  4.6715  3.2203
  282TIP3   OH222480   2.171   6.546   7.025 -0.1306  0.4651 -0.6381
  282TIP3    H122481   2.179   6.632   7.066  0.0782 -0.0437  0.4314
  282TIP3    H222482   2.175   6.564   6.931 -1.1233  1.7244 -0.4697
  283TIP3   OH222483   5.849   2.083   7.115  0.1442 -0.1296  0.0398
  283TIP3    H122484   5.906   2.035   7.054 -2.6172 -1.6233 -1.5776
  283TIP3    H222485   5.853   2.032   7.196  0.5201 -0.6492 -0.2966
  284TIP3   OH222486   4.030   1.629   2.402 -0.0024 -0.2712 -0.0288
  284TIP3    H122487   4.122   1.617   2.423 -0.1724 -1.7740 -0.0679
  284TIP3    H222488   4.007   1.714   2.441  0.7257 -1.0596  2.2322
  285TIP3   OH222489   1.216   4.489   0.016 -0.1721  0.1683  0.3901
  285TIP3    H122490   1.216   4.522   0.106  1.8874 -0.0312  0.5056
  285TIP3    H222491   1.308   4.480  -0.006 -0.6492 -0.2099 -1.6077
  286TIP3   OH222492   4.068   0.928   7.928 -0.0838  0.7205  0.4459
  286TIP3    H122493   4.109   0.885   8.003 -0.2955 -1.1311 -0.4431
  286TIP3    H222494   4.025   0.857   7.880 -3.6942  2.3788  0.8595
  287TIP3   OH222495   3.303   2.122   7.304 -0.3278  0.0656 -0.3109
  287TIP3    H122496   3.315   2.193   7.241  0.4125  0.1844 -0.0380
  287TIP3    H222497   3.237   2.154   7.365 -0.1340  0.4473 -0.3004
  288TIP3   OH222498   0.163   2.477   1.468 -0.1625 -0.0925 -0.2641
  288TIP3    H122499   0.217   2.430   1.405  1.0247  2.0478 -0.9686
  288TIP3    H222500   0.223   2.538   1.510 -1.5206  0.5082  0.9155
  289TIP3   OH222501   0.815   2.795   1.183  0.2321  0.1625 -0.0961
  289TIP3    H122502   0.733   2.836   1.155  0.6464  0.3420 -1.0896
  289TIP3    H222503   0.882   2.838   1.130  0.7640 -1.3122 -0.6570
  290TIP3   OH222504   3.004   4.878   5.987 -0.8339 -0.5396 -0.1217
  290TIP3    H122505   2.969   4.792   6.010  0.6210 -1.8117 -2.3302
  290TIP3    H222506   3.083   4.859   5.936  0.7224  2.1542  1.0955
  291TIP3   OH222507   6.003   0.518   8.154  0.1183 -0.5592  0.4447
  291TIP3    H122508   5.983   0.453   8.222 -0.6218 -0.0139  0.7659
  291TIP3    H222509   5.993   0.471   8.072 -1.5639 -0.5834  0.6283
  292TIP3   OH222510   0.700   3.733   8.388  0.6037  0.1947  0.3627
  292TIP3    H122511   0.629   3.712   8.328  0.0543  0.4420  0.9178
  292TIP3    H222512   0.691   3.827   8.404  0.5997  0.0880  1.0143
  293TIP3   OH222513   1.396   6.467   7.479 -0.3131  0.3811 -0.1368
  293TIP3    H122514   1.396   6.399   7.411 -0.1943 -1.4865  1.6142
  293TIP3    H222515   1.307   6.463   7.516  0.6192 -1.2809  2.1842
  294TIP3   OH222516   3.771   3.551   6.847 -0.1946  0.5374 -0.4606
  294TIP3    H122517   3.713   3.520   6.777 -1.1737 -0.9634  0.9449
  294TIP3    H222518   3.794   3.640   6.821 -0.5114  0.0423 -2.6799
  295TIP3   OH222519   1.343   6.090   0.456 -0.4403  0.1043 -0.3334
  295TIP3    H122520   1.285   6.014   0.445 -1.1200  0.6690 -0.7425
  295TIP3    H222521   1.338   6.110   0.550  1.7030 -1.8558  0.3000
  296TIP3   OH222522   6.365   4.440   8.154 -0.0821 -0.5572  0.1811
  296TIP3    H122523   6.343   4.430   8.061 -2.1040 -0.5890  0.6163
  296TIP3    H222524   6.404   4.356   8.178  0.4788 -0.5420 -0.6319
  297TIP3   OH222525   5.120   2.420   1.208  1.0449 -0.1274  0.1234
  297TIP3    H122526   5.150   2.475   1.280  2.7182  0.7944 -1.1876
  297TIP3    H222527   5.154   2.463   1.130 -2.3289  0.0272 -1.4551
  298TIP3   OH222528   0.745   5.733   0.858  0.5917  0.3829  0.3849
  298TIP3    H122529   0.782   5.822   0.856 -0.0450  0.7134 -2.5661
  298TIP3    H222530   0.663   5.742   0.908 -0.3554  1.9474 -1.3016
  299TIP3   OH222531   5.261   0.285   8.370 -0.1175 -0.2701 -0.0549
  299TIP3    H122532   5.299   0.258   8.286  0.5665 -0.0257  0.1681
  299TIP3    H222533   5.322   0.251   8.436 -0.6262 -0.4213  0.3431
  300TIP3   OH222534   4.430   5.430   0.316 -1.0712  0.3273 -0.5543
  300TIP3    H122535   4.464   5.383   0.392  0.5344  1.1383 -0.7461
  300TIP3    H222536   4.447   5.371   0.242  0.7728  1.0625 -0.7680
  301TIP3   OH222537   5.722   1.766   0.501  0.2180  0.2141 -0.2342
  301TIP3    H122538   5.744   1.807   0.585 -1.9138 -0.1662  0.5605
  301TIP3    H222539   5.807   1.741   0.464  1.2744  1.2929  1.3204
  302TIP3   OH222540   5.875   0.691   8.503  0.3109  0.7767 -0.0480
  302TIP3    H122541   5.822   0.619   8.538  3.4498 -1.0662  1.2774
  302TIP3    H222542   5.829   0.717   8.423 -1.5726 -1.9147  0.0150
  303TIP3   OH222543   4.543   6.236   0.342 -0.1083  0.0011 -0.2765
  303TIP3    H122544   4.636   6.232   0.319 -0.2865 -0.4131 -0.9313
  303TIP3    H222545   4.499   6.257   0.260 -0.7293 -1.2845 -0.2904
  304TIP3   OH222546   3.503   0.478   0.590  0.0250 -0.3807 -0.4929
  304TIP3    H122547   3.424   0.497   0.641 -0.4321  0.1750 -1.3574
  304TIP3    H222548   3.574   0.475   0.654 -0.3182  1.5625  0.0658
  305TIP3   OH222549   6.312   1.272   7.223  0.2017  0.1436 -0.0700
  305TIP3    H122550   6.246   1.324   7.270 -0.3293  1.9322 -2.5723
  305TIP3    H222551   6.261   1.206   7.176  0.6185 -0.8637  0.8402
  306TIP3   OH222552   5.410   3.255   1.134  0.4904  0.6521 -0.9157
  306TIP3    H122553   5.466   3.303   1.196 -0.4534  1.0894 -0.3835
  306TIP3    H222554   5.336   3.225   1.187  1.7133 -2.7078 -0.8835
  307TIP3   OH222555   6.477   6.216   6.831  0.0651 -0.0973 -0.3604
  307TIP3    H122556   6.420   6.289   6.810  1.5818  1.2026 -0.1580
  307TIP3    H222557   6.528   6.201   6.751 -0.1040 -0.8317 -0.3437
  308TIP3   OH222558   4.282   5.484   7.204 -0.4779 -0.4066 -0.3731
  308TIP3    H122559   4.320   5.572   7.203  1.9264 -1.3500 -2.6198
  308TIP3    H222560   4.251   5.472   7.294  1.7394  1.6982  0.7827
  309TIP3   OH222561   3.449   4.897   0.673 -0.0749 -0.0498  0.6852
  309TIP3    H122562   3.372   4.951   0.689 -0.2426  0.9066 -2.6275
  309TIP3    H222563   3.523   4.952   0.696 -0.3166  0.4818  0.2004
  310TIP3   OH222564   4.793   3.770   6.423  0.0371 -0.2106 -0.2665
  310TIP3    H122565   4.704   3.747   6.450 -0.4294  1.5753 -0.1865
  310TIP3    H222566   4.846   3.695   6.451 -1.6244 -2.0530 -1.7287
  311TIP3   OH222567   5.430   5.826   2.446  0.0672 -0.4426  0.1192
  311TIP3    H122568   5.425   5.731   2.434 -0.4513 -0.4627  0.4525
  311TIP3    H222569   5.385   5.862   2.371  0.0883 -0.4671  0.0949
  312TIP3   OH222570   0.077   0.757   1.342 -0.1317  0.1249 -0.1536
  312TIP3    H122571   0.148   0.703   1.375 -0.0221  0.8527  0.8508
  312TIP3    H222572  -0.002   0.718   1.379 -0.2666 -0.6689 -1.2496
  313TIP3   OH222573   6.469   4.162   6.455 -0.3273 -0.0197  0.3471
  313TIP3    H122574   6.513   4.179   6.372 -0.9773 -0.3634 -0.0797
  313TIP3    H222575   6.405   4.233   6.463 -0.4911 -0.1716  0.3932
  314TIP3   OH222576   2.129   1.095   2.117 -0.0909  0.1561  0.0352
  314TIP3    H122577   2.169   1.032   2.178  0.1498 -0.6123 -0.8977
  314TIP3    H222578   2.148   1.180   2.156 -0.1737 -0.3246  1.1741
  315TIP3   OH222579   5.110   3.130   2.471  0.1430  0.1451 -0.0620
  315TIP3    H122580   5.109   3.063   2.540  1.0279  0.5595  0.3705
  315TIP3    H222581   5.066   3.088   2.396 -0.6683 -0.3759  0.6790
  316TIP3   OH222582   6.138   2.082   7.878 -0.2642 -0.4584 -0.2492
  316TIP3    H122583   6.068   2.099   7.815  0.2646  0.5224 -0.5825
  316TIP3    H222584   6.104   2.117   7.961 -0.4448 -0.6127 -0.2564
  317TIP3   OH222585   4.447   4.865   0.424 -0.1188 -0.1096  0.6169
  317TIP3    H122586   4.380   4.896   0.484 -0.5755  2.0044 -0.8613
  317TIP3    H222587   4.459   4.938   0.362 -0.5524 -2.5181 -2.5660
  318TIP3   OH222588   4.664   0.580   1.245  0.1378  0.5598 -0.1742
  318TIP3    H122589   4.585   0.601   1.294  0.4150 -1.6429  1.3423
  318TIP3    H222590   4.634   0.564   1.156 -1.2104 -0.5850  0.4453
  319TIP3   OH222591   6.299   3.674   0.494  0.4978  0.4213 -0.6128
  319TIP3    H122592   6.253   3.755   0.516 -0.7837 -0.4526 -0.0269
  319TIP3    H222593   6.233   3.605   0.500  1.4562 -0.6258 -1.5656
  320TIP3   OH222594   3.428   0.133   8.513 -0.6553  0.2783  0.2550
  320TIP3    H122595   3.359   0.199   8.510  0.6980  1.7158 -0.9912
  320TIP3    H222596   3.508   0.182   8.530  0.3254 -1.1028 -0.1733
  321TIP3   OH222597   0.436   0.702   1.529 -0.2852 -0.2328  0.8450
  321TIP3    H122598   0.503   0.635   1.519  0.1767  0.3982 -0.6747
  321TIP3    H222599   0.374   0.685   1.458 -0.2723  0.7805  0.5638
  322TIP3   OH222600   2.168   6.915   8.275  0.0158 -0.1968 -0.5675
  322TIP3    H122601   2.149   6.999   8.235  0.2812 -0.5747 -1.5106
  322TIP3    H222602   2.124   6.918   8.360  0.7929  1.2523 -0.1829
  323TIP3   OH222603   3.421   6.753   7.870 -0.1406 -0.4313 -0.2787
  323TIP3    H122604   3.478   6.760   7.793  1.8803  1.8419  1.2794
  323TIP3    H222605   3.468   6.696   7.930 -0.9352 -0.8760 -0.0579
  324TIP3   OH222606   0.268   1.408   0.608 -0.1836  0.0981  0.2578
  324TIP3    H122607   0.282   1.391   0.701 -1.3656 -0.2454  0.3876
  324TIP3    H222608   0.267   1.321   0.567 -0.2458  0.2112  0.0141
  325TIP3   OH222609   1.177   6.086   1.171 -0.2628  0.0205  0.3864
  325TIP3    H122610   1.234   6.027   1.221 -0.7078 -1.6801 -0.9755
  325TIP3    H222611   1.094   6.038   1.163 -0.6573  0.8366 -0.7263
  326TIP3   OH222612   1.108   3.257   0.044 -0.5359  0.7088  0.0861
  326TIP3    H122613   1.195   3.221   0.059  0.0204  2.1388  0.4673
  326TIP3    H222614   1.050   3.203   0.097  0.3216  0.6527  0.9966
  327TIP3   OH222615   2.483   0.011   7.268  0.4724 -0.6184 -0.0873
  327TIP3    H122616   2.561  -0.043   7.267 -0.5579 -2.1836  0.6576
  327TIP3    H222617   2.473   0.039   7.359 -0.4947 -1.4684  0.0857
  328TIP3   OH222618   1.873   3.797   6.486  0.1041 -0.0978 -0.0076
  328TIP3    H122619   1.930   3.828   6.415  1.2955 -1.0959  0.4753
  328TIP3    H222620   1.933   3.767   6.553 -0.9919 -1.8943  0.2274
  329TIP3   OH222621   4.402   5.640   8.251 -0.3551 -0.3285 -0.4164
  329TIP3    H122622   4.439   5.632   8.339  0.8906 -0.9816 -0.9567
  329TIP3    H222623   4.466   5.694   8.204 -0.1073 -1.4159 -1.3647
  330TIP3   OH222624   3.378   1.730   0.593  0.6878 -0.0682 -0.0702
  330TIP3    H122625   3.378   1.778   0.676 -1.1747 -0.4094  0.1683
  330TIP3    H222626   3.418   1.791   0.530  0.7762  0.7581  0.7575
  331TIP3   OH222627   5.046   2.980   2.693  0.2257 -0.1028  0.2694
  331TIP3    H122628   4.986   3.052   2.709  0.0186 -0.0409 -0.7238
  331TIP3    H222629   4.992   2.901   2.700 -0.1130 -0.0199 -1.1701
  332TIP3   OH222630   5.840   5.647   0.553  0.0193  0.3364  0.1630
  332TIP3    H122631   5.810   5.694   0.475 -2.0011 -0.7106  0.2295
  332TIP3    H222632   5.813   5.556   0.539 -1.4196  0.3047  2.4986
  333TIP3   OH222633   5.155   0.200   6.664  0.5124 -0.1253 -0.1598
  333TIP3    H122634   5.175   0.123   6.717 -1.8815 -0.9500 -0.3484
  333TIP3    H222635   5.110   0.260   6.724  0.8661  0.4115 -0.4252
  334TIP3   OH222636   2.199   6.312   1.577  0.4618  0.3717  0.4035
  334TIP3    H122637   2.182   6.387   1.521 -0.1223  0.0521  0.1456
  334TIP3    H222638   2.266   6.342   1.638  0.9802  0.7810 -0.3493
  335TIP3   OH222639   6.193   1.180   8.112  0.2259 -0.0759  0.6291
  335TIP3    H122640   6.101   1.162   8.133 -0.2810  1.1668 -0.3671
  335TIP3    H222641   6.221   1.107   8.058 -0.9088  0.6337 -0.9846
  336TIP3   OH222642   5.339   5.166   7.969  0.6766  0.3832 -0.4329
  336TIP3    H122643   5.250   5.163   7.933  0.7399  0.0549 -0.5685
  336TIP3    H222644   5.371   5.254   7.948  0.8844  0.0386 -1.5923
  337TIP3   OH222645   4.495   5.931   6.539  0.4723  0.0993  0.3193
  337TIP3    H122646   4.507   5.963   6.450  0.1501  0.7168  0.4950
  337TIP3    H222647   4.563   5.864   6.550  4.0052  3.4876  1.3206
  338TIP3   OH222648   5.995   0.934   0.164  0.2057  0.7685 -0.1490
  338TIP3    H122649   5.915   0.881   0.158  0.4786  0.2337  0.7843
  338TIP3    H222650   6.027   0.940   0.074  0.6640 -1.4277 -0.1673
  339TIP3   OH222651   6.659   2.054   1.402 -0.0424 -0.0103 -0.2375
  339TIP3    H122652   6.727   2.122   1.401 -1.5015  1.4865 -1.1118
  339TIP3    H222653   6.601   2.080   1.474  0.9918 -2.0749  1.4767
  340TIP3   OH222654   4.416   6.304   0.093  0.3855  0.0854  0.3460
  340TIP3    H122655   4.328   6.268   0.107 -0.8509  1.0488 -3.5689
  340TIP3    H222656   4.410   6.349   0.008  5.0151 -0.8786 -0.7434
  341TIP3   OH222657   3.494   4.101   6.352  0.8172  0.2420  0.3820
  341TIP3    H122658   3.413   4.129   6.393  0.1159 -0.0301 -0.7824
  341TIP3    H222659   3.501   4.155   6.273  2.6687  1.5073  1.3176
  342TIP3   OH222660   2.497   3.469   6.695  0.5899  0.2494  0.4730
  342TIP3    H122661   2.522   3.480   6.787  1.0377  1.2164  0.2540
  342TIP3    H222662   2.405   3.443   6.698  0.2391  1.4776  1.1848
  343TIP3   OH222663   2.404   5.259   6.461 -0.1466 -0.0929 -0.4804
  343TIP3    H122664   2.474   5.277   6.524  0.1983  0.5280 -1.0196
  343TIP3    H222665   2.443   5.281   6.376 -1.2176  0.9627 -0.7248
  344TIP3   OH222666   2.352   1.695   0.913  0.6961 -0.0101 -0.6356
  344TIP3    H122667   2.322   1.636   0.844  0.4916  0.4425 -0.9440
  344TIP3    H222668   2.274   1.745   0.938  0.6423 -0.5679  0.3333
  345TIP3   OH222669   1.500   5.686   8.084  0.1388  0.2361 -0.4820
  345TIP3    H122670   1.560   5.651   8.150 -0.5618  0.7764  0.4678
  345TIP3    H222671   1.538   5.659   8.000  1.0018 -0.5425  0.1374
  346TIP3   OH222672   4.482   4.193   8.618 -0.0912 -0.3434  0.3412
  346TIP3    H122673   4.439   4.187   8.703 -0.4467  1.3793  0.3185
  346TIP3    H222674   4.538   4.270   8.625 -1.1265  0.6306 -1.3935
  347TIP3   OH222675   0.965   1.040   1.666  0.2567 -0.3789 -0.6609
  347TIP3    H122676   1.018   0.961   1.651  1.3187  0.5598 -2.1125
  347TIP3    H222677   0.882   1.007   1.699  0.7265 -2.1031 -1.0967
  348TIP3   OH222678   4.819   6.459   8.259  0.4432  0.3504  0.3453
  348TIP3    H122679   4.767   6.383   8.287 -0.4730  0.3276 -1.2766
  348TIP3    H222680   4.906   6.444   8.295  0.1800 -1.2935  0.3683
  349TIP3   OH222681   4.487   0.434   7.339  0.4205  0.0373 -0.2987
  349TIP3    H122682   4.410   0.492   7.345  0.8550  0.4484  3.2314
  349TIP3    H222683   4.557   0.491   7.306 -0.1126  0.4015 -0.8284
  350TIP3   OH222684   0.283   4.854   1.294  0.0518 -0.7872  0.5269
  350TIP3    H122685   0.347   4.830   1.226 -0.8999  0.6713 -0.9563
  350TIP3    H222686   0.202   4.811   1.267 -0.9947  1.7957 -0.7365
  351TIP3   OH222687   1.885   3.755   7.940 -0.8087  0.2945  0.6659
  351TIP3    H122688   1.811   3.721   7.890  0.4589 -0.4686 -0.7957
  351TIP3    H222689   1.917   3.680   7.989  0.5722 -0.1135 -0.7700
  352TIP3   OH222690   3.828   1.547   6.991 -0.0777  0.5972 -0.2810
  352TIP3    H122691   3.745   1.509   6.963 -0.0151 -0.5647  1.0037
  352TIP3    H222692   3.884   1.540   6.914 -0.2187 -1.5662 -0.2701
  353TIP3   OH222693   0.987   0.262   1.168 -0.2668  0.2849 -0.1598
  353TIP3    H122694   0.907   0.241   1.217 -0.9512 -0.3732 -1.5160
  353TIP3    H222695   0.955   0.294   1.083  0.8948  1.4809 -0.1788
  354TIP3   OH222696   0.444   3.632   0.029  0.5395 -0.4783  0.0693
  354TIP3    H122697   0.447   3.678  -0.055  0.5524  1.9623  1.3096
  354TIP3    H222698   0.533   3.597   0.039  0.5553 -0.7545 -0.8838
  355TIP3   OH222699   6.513   3.435   0.512  0.6633 -0.0983 -1.0134
  355TIP3    H122700   6.490   3.365   0.574 -1.0091  0.7438 -0.6073
  355TIP3    H222701   6.438   3.437   0.451 -0.4142  2.7157  0.2625
  356TIP3   OH222702   0.613   5.584   7.988  0.0196  0.5387  0.1480
  356TIP3    H122703   0.705   5.577   7.963  0.7171  0.9983  2.3584
  356TIP3    H222704   0.596   5.505   8.039 -0.8944  0.3791 -0.3666
  357TIP3   OH222705   4.440   4.180   8.323 -0.2934 -0.6091  0.0601
  357TIP3    H122706   4.512   4.119   8.333  0.3714  0.1006 -0.2598
  357TIP3    H222707   4.435   4.225   8.407  0.5220  0.2677 -0.3432
  358TIP3   OH222708   6.676   4.626   2.544  0.0190  0.2860 -0.0037
  358TIP3    H122709   6.715   4.612   2.458 -0.5318  0.4096 -0.2771
  358TIP3    H222710   6.608   4.692   2.530 -0.1139  0.2643  0.5104
  359TIP3   OH222711   2.500   3.976   7.295 -0.0961  0.5212 -0.9938
  359TIP3    H122712   2.547   3.939   7.370 -1.2018  0.0910 -0.4879
  359TIP3    H222713   2.502   4.070   7.309 -1.4267  0.3887  0.3049
  360TIP3   OH222714   5.573   2.454   3.058 -0.3303  0.1539  0.1887
  360TIP3    H122715   5.615   2.388   3.004 -0.0878  1.3082 -1.0790
  360TIP3    H222716   5.634   2.528   3.058 -1.2329  0.9250  0.3749
  361TIP3   OH222717   4.087   0.279   8.273 -0.5570  0.4421 -0.0138
  361TIP3    H122718   4.000   0.263   8.237  0.2732 -1.4519 -1.3212
  361TIP3    H222719   4.146   0.229   8.216  1.5458  2.6908  0.0439
  362TIP3   OH222720   6.558   2.351   8.461 -0.2264 -0.4503 -0.0865
  362TIP3    H122721   6.638   2.398   8.486 -0.4053 -0.0518 -0.2612
  362TIP3    H222722   6.562   2.347   8.366  0.3839 -1.8418 -0.0349
  363TIP3   OH222723   1.258   6.650   0.226 -0.4343 -0.6190 -0.3978
  363TIP3    H122724   1.225   6.670   0.314  1.0412  0.4340 -0.0495
  363TIP3    H222725   1.342   6.695   0.221  1.4171 -3.8061 -0.9135
  364TIP3   OH222726   5.900   4.017   2.263  0.1548  0.4235  0.0978
  364TIP3    H122727   5.919   4.037   2.354  0.8715  0.1193  0.0257
  364TIP3    H222728   5.805   4.006   2.259  0.1132  0.5084  0.7886
  365TIP3   OH222729   6.909   6.751   0.749  0.0047 -0.3214  0.2231
  365TIP3    H122730   6.835   6.789   0.702  0.7810 -1.1639 -1.7988
  365TIP3    H222731   6.891   6.769   0.842 -2.0124  0.6806 -0.3138
  366TIP3   OH222732   4.588   0.846   0.816  0.6398 -0.0154 -0.1532
  366TIP3    H122733   4.551   0.817   0.899  0.3556 -0.9410 -0.5805
  366TIP3    H222734   4.683   0.831   0.825  0.6842  0.5037  0.2373
  367TIP3   OH222735   5.381   3.596   0.547  0.6386 -0.1709  0.8607
  367TIP3    H122736   5.288   3.573   0.555  0.6326 -0.0119  1.2828
  367TIP3    H222737   5.405   3.567   0.459 -0.5499  2.3669 -0.4012
  368TIP3   OH222738   3.852   3.405   0.374 -0.6870 -0.6264  0.4514
  368TIP3    H122739   3.862   3.363   0.289 -1.3950 -3.7364  1.7717
  368TIP3    H222740   3.933   3.455   0.386 -0.2229 -0.7776 -1.6421
  369TIP3   OH222741   4.150   0.867   0.665  0.5473  0.5450 -0.1635
  369TIP3    H122742   4.144   0.808   0.740 -1.4469 -0.2343 -0.8681
  369TIP3    H222743   4.060   0.897   0.651  0.6176 -0.2787 -2.9514
  370TIP3   OH222744   4.528   6.190   7.464  0.0417  0.1616  0.3371
  370TIP3    H122745   4.554   6.239   7.385 -1.3586 -2.3038 -1.8149
  370TIP3    H222746   4.437   6.216   7.478 -0.0599 -0.2658  0.4648
  371TIP3   OH222747   0.343   0.198   0.913  0.2489  0.3070  0.3271
  371TIP3    H122748   0.287   0.170   0.840 -0.4767  0.7402  0.7108
  371TIP3    H222749   0.386   0.117   0.942 -0.3538 -0.0711  0.1784
  372TIP3   OH222750   2.092   1.433   0.507  0.3214  0.1289  0.1322
  372TIP3    H122751   2.012   1.434   0.559  0.4746 -0.5319  0.3946
  372TIP3    H222752   2.063   1.442   0.417  0.0300  0.9618  0.2997
  373TIP3   OH222753   4.619   3.528   8.105 -0.7767 -0.4059  0.4622
  373TIP3    H122754   4.605   3.549   8.013 -1.1758  0.5352  0.7323
  373TIP3    H222755   4.664   3.443   8.104  0.1226  0.0733 -0.6239
  374TIP3   OH222756   0.710   3.637   0.814 -0.0140 -0.4530  0.4959
  374TIP3    H122757   0.658   3.558   0.829  0.0622 -0.2754  1.8122
  374TIP3    H222758   0.787   3.627   0.870  0.3105  0.2692  0.2038
  375TIP3   OH222759   3.521   5.984   7.921  0.4221  0.2130 -0.9290
  375TIP3    H122760   3.450   5.927   7.894 -0.1241 -0.1434  1.0752
  375TIP3    H222761   3.517   5.984   8.017  1.3012  2.5001 -0.8234
  376TIP3   OH222762   6.710   3.279   7.556  0.3845 -0.3860  0.1422
  376TIP3    H122763   6.760   3.204   7.524  0.1376 -0.6476  0.3614
  376TIP3    H222764   6.775   3.348   7.568  0.4104 -0.1144 -1.3960
  377TIP3   OH222765   2.614   2.862   7.325 -0.1590 -0.2444 -0.4441
  377TIP3    H122766   2.646   2.949   7.301  0.3031 -0.9943 -2.7952
  377TIP3    H222767   2.682   2.802   7.294 -0.6899 -1.4950  0.7202
  378TIP3   OH222768   3.407   5.481   0.775 -0.1620  0.2251 -0.3424
  378TIP3    H122769   3.341   5.485   0.844 -1.8213  1.2479 -1.9115
  378TIP3    H222770   3.452   5.565   0.780 -0.6885  0.5422 -0.8766
  379TIP3   OH222771   2.110   6.555   7.940  0.3216  0.4703  0.4808
  379TIP3    H122772   2.162   6.503   8.002  0.7410  0.9949  0.5741
  379TIP3    H222773   2.168   6.569   7.865 -0.6741 -1.4309 -0.7233
  380TIP3   OH222774   6.763   0.950   0.287 -0.1521  0.0564 -0.3508
  380TIP3    H122775   6.818   0.942   0.365  2.1732  0.1463 -1.8483
  380TIP3    H222776   6.723   0.864   0.277  1.0301 -0.5618 -0.0588
  381TIP3   OH222777   6.763   2.746   0.487  0.3106 -0.0635 -0.6494
  381TIP3    H122778   6.670   2.770   0.494  0.9126  2.2664  0.3956
  381TIP3    H222779   6.773   2.714   0.397 -1.7886 -1.8797 -0.3067
  382TIP3   OH222780   0.554   0.670   0.288 -0.0873 -0.3099  0.3065
  382TIP3    H122781   0.606   0.596   0.256  1.1993 -0.1193  1.8182
  382TIP3    H222782   0.465   0.635   0.294  0.5579 -1.9440  1.4194
  383TIP3   OH222783   5.734   0.337   1.226  0.4754 -0.1796  0.1736
  383TIP3    H122784   5.751   0.352   1.319 -0.4273  0.9321  0.1815
  383TIP3    H222785   5.651   0.290   1.223 -0.4913  1.4549 -0.0959
  384TIP3   OH222786   3.708   1.302   8.292  0.4674  0.3644 -0.4377
  384TIP3    H122787   3.803   1.304   8.305  0.5626  1.2660 -1.1830
  384TIP3    H222788   3.674   1.364   8.356  0.3358 -0.2734  0.1175
  385TIP3   OH222789   3.895   3.862   1.108  0.4994  0.4052  0.1407
  385TIP3    H122790   3.836   3.826   1.175 -1.3284  0.7453 -1.1897
  385TIP3    H222791   3.913   3.788   1.050  1.4054  0.3069  0.5338
  386TIP3   OH222792   4.187   5.700   7.814  0.4445  0.3460  0.5247
  386TIP3    H122793   4.134   5.743   7.880  0.7085  0.8911  0.3849
  386TIP3    H222794   4.158   5.608   7.816 -0.4678  0.6274  0.4695
  387TIP3   OH222795   6.612   6.196   1.078  0.0033 -0.5095 -0.2630
  387TIP3    H122796   6.528   6.240   1.065 -0.6282 -1.1957  1.2237
  387TIP3    H222797   6.648   6.187   0.990 -1.4392 -0.1156 -0.9341
  388TIP3   OH222798   0.650   3.873   0.951 -0.6932 -0.1554  0.5048
  388TIP3    H122799   0.567   3.871   1.000  0.3160 -0.8775  2.2575
  388TIP3    H222800   0.663   3.782   0.923  0.4655 -0.5062  2.0141
  389TIP3   OH222801   2.564   4.693   0.634 -0.3902  0.3052 -0.2808
  389TIP3    H122802   2.630   4.631   0.603 -1.4321 -0.6195 -0.7407
  389TIP3    H222803   2.540   4.744   0.557 -1.7360 -0.8306 -0.6651
  390TIP3   OH222804   1.163   4.823   0.080 -0.4165  0.1666  0.1820
  390TIP3    H122805   1.169   4.873  -0.001  2.4516  0.9021  0.7324
  390TIP3    H222806   1.073   4.790   0.082 -0.4027 -0.5369 -3.6441
  391TIP3   OH222807   4.132   3.536   1.618 -0.5895  0.1254 -0.1630
  391TIP3    H122808   4.113   3.459   1.565  0.8041 -1.7082  1.8530
  391TIP3    H222809   4.221   3.561   1.594  1.0659 -2.2473  2.8284
  392TIP3   OH222810   6.138   0.769   1.453  0.0152 -0.1083 -0.3976
  392TIP3    H122811   6.074   0.833   1.422  1.0292  0.8876 -0.4467
  392TIP3    H222812   6.120   0.761   1.547 -0.9938 -0.7895 -0.6285
  393TIP3   OH222813   2.582   5.089   0.649 -0.2334 -0.6896 -0.0387
  393TIP3    H122814   2.594   5.034   0.727 -0.3409  0.1013  0.5543
  393TIP3    H222815   2.671   5.104   0.616  0.1432  1.4076  1.6898
  394TIP3   OH222816   2.096   5.544   1.611 -0.0532  0.0891 -0.0643
  394TIP3    H122817   2.178   5.495   1.606 -0.0840  0.0464 -0.1523
  394TIP3    H222818   2.028   5.477   1.608 -0.0861  0.1003  0.3447
  395TIP3   OH222819   4.072   3.816   2.074 -0.2038  0.2097  0.7998
  395TIP3    H122820   4.128   3.840   2.000 -0.5832  0.9504  0.7376
  395TIP3    H222821   4.098   3.727   2.096  0.4878  0.2779  0.3032
  396TIP3   OH222822   0.344   0.492   7.862  0.3880  0.1139 -0.4274
  396TIP3    H122823   0.394   0.554   7.915  1.8210  0.8670 -2.4946
  396TIP3    H222824   0.253   0.513   7.879  0.8325  1.5733  0.3204
  397TIP3   OH222825   0.616   0.604   0.858 -0.2317 -0.5509  0.6857
  397TIP3    H122826   0.568   0.555   0.924 -0.6059 -1.4350 -0.2183
  397TIP3    H222827   0.555   0.670   0.827 -0.0665 -0.1559  1.1804
  398TIP3   OH222828   3.950   5.997   0.648  0.0299 -0.5329  0.2361
  398TIP3    H122829   3.896   6.058   0.597  1.1190  0.9326  0.7640
  398TIP3    H222830   3.952   6.035   0.736  0.7036 -1.3648  0.5849
  399TIP3   OH222831   3.758   0.495   8.260 -0.4642 -0.0785 -0.4275
  399TIP3    H122832   3.739   0.589   8.257 -0.9391 -0.2077 -2.3699
  399TIP3    H222833   3.737   0.470   8.350 -1.0040  1.5363 -0.0701
  400TIP3   OH222834   3.333   6.492   7.443 -0.5088 -0.1705 -0.0579
  400TIP3    H122835   3.327   6.409   7.489 -1.0023  0.6991  1.5420
  400TIP3    H222836   3.336   6.558   7.513  2.0027  1.0723 -1.1738
  401TIP3   OH222837   5.799   3.742   7.354 -0.2545  0.6771  0.0784
  401TIP3    H122838   5.772   3.679   7.287 -0.4042 -1.0869  1.6940
  401TIP3    H222839   5.717   3.781   7.384 -0.7158 -1.3950  1.8430
  402TIP3   OH222840   0.491   0.013   0.524 -0.2612 -0.1722  0.4255
  402TIP3    H122841   0.551  -0.052   0.560 -1.0830 -0.4786  1.2818
  402TIP3    H222842   0.545   0.090   0.509  0.6193 -0.8813 -0.1256
  403TIP3   OH222843   0.544   3.107   7.264  0.0147  0.3305  0.3153
  403TIP3    H122844   0.617   3.098   7.324 -0.0645 -0.7632  0.2686
  403TIP3    H222845   0.572   3.062   7.184 -1.0328 -0.9149  0.6150
  404TIP3   OH222846   4.191   5.766   1.060 -0.1962 -0.2235 -0.2652
  404TIP3    H122847   4.209   5.675   1.084  1.1925  0.1186  0.1169
  404TIP3    H222848   4.131   5.798   1.128 -0.4150 -0.7527 -0.2084
  405TIP3   OH222849   3.382   5.187   6.579  0.6070  0.4324 -0.2795
  405TIP3    H122850   3.409   5.116   6.521 -0.1204 -0.0036 -0.1034
  405TIP3    H222851   3.306   5.152   6.626  1.2218  0.7404  0.9874
  406TIP3   OH222852   1.760   1.123   6.717 -0.2822  0.0200 -0.2153
  406TIP3    H122853   1.716   1.099   6.798 -1.3810 -0.0622 -0.8224
  406TIP3    H222854   1.835   1.064   6.712 -0.5527 -0.3843  0.4313
  407TIP3   OH222855   4.005   1.507   0.646 -0.6353 -0.1874  0.6555
  407TIP3    H122856   4.076   1.542   0.699  0.5293 -2.5704  0.7885
  407TIP3    H222857   3.929   1.506   0.704 -1.0874  3.0529  0.3001
  408TIP3   OH222858   2.508   6.293   7.031 -0.5807 -0.5047 -0.4717
  408TIP3    H122859   2.600   6.294   7.003  0.0506 -0.9271  1.4389
  408TIP3    H222860   2.512   6.286   7.126 -2.6040  0.5375 -0.2489
  409TIP3   OH222861   4.476   2.890   2.508  0.4817  0.9509 -0.0055
  409TIP3    H122862   4.501   2.797   2.516 -3.3969 -0.1485  1.4761
  409TIP3    H222863   4.524   2.933   2.579  2.5826  0.2399 -0.8898
  410TIP3   OH222864   1.504   1.594   2.282 -0.6065 -0.0791 -0.6476
  410TIP3    H122865   1.461   1.679   2.290  0.5365  0.3929  0.9242
  410TIP3    H222866   1.597   1.612   2.299 -0.7173 -2.0209  2.8771
  411TIP3   OH222867   1.647   4.239   7.237 -0.4390 -0.0585  0.1830
  411TIP3    H122868   1.676   4.156   7.275 -0.5071  0.9150  2.5167
  411TIP3    H222869   1.719   4.267   7.181 -0.1893 -1.3974 -0.2027
  412TIP3   OH222870   5.640   1.519   7.777  0.0472  0.2473 -0.0936
  412TIP3    H122871   5.677   1.463   7.708 -1.6065 -0.7344 -0.2340
  412TIP3    H222872   5.675   1.606   7.757  1.5926 -0.4642 -0.6798
  413TIP3   OH222873   2.279   2.360   2.738  0.2232  0.0469 -0.3000
  413TIP3    H122874   2.191   2.385   2.764  0.4679 -0.5794  1.2466
  413TIP3    H222875   2.316   2.439   2.700 -0.8504  0.4364 -0.5599
  414TIP3   OH222876   0.403   2.315   7.826 -0.4100 -0.1301  0.5388
  414TIP3    H122877   0.431   2.291   7.915 -1.0487 -1.1925  0.4779
  414TIP3    H222878   0.308   2.305   7.828 -0.7638  2.6714  0.5297
  415TIP3   OH222879   0.904   4.859   1.816 -0.1224 -0.1819 -0.2644
  415TIP3    H122880   0.849   4.933   1.840  2.0342  1.6394 -0.5378
  415TIP3    H222881   0.993   4.887   1.840  0.7714 -2.6808 -0.4292
  416TIP3   OH222882   0.900   3.510   0.451  0.2344 -0.2060  0.2459
  416TIP3    H122883   0.813   3.526   0.488 -0.3575 -0.3161 -1.0482
  416TIP3    H222884   0.888   3.435   0.392  1.3653 -0.6871  0.5958
  417TIP3   OH222885   2.050   4.296   7.850 -0.4834  0.3001  0.2507
  417TIP3    H122886   2.071   4.203   7.857  0.5620  0.5292  0.2755
  417TIP3    H222887   2.091   4.324   7.769 -2.2478  0.3779 -0.6623
  418TIP3   OH222888   1.717   5.267   8.167 -0.0232  0.1155 -0.3774
  418TIP3    H122889   1.637   5.289   8.215 -2.4437 -0.0512 -3.9431
  418TIP3    H222890   1.732   5.174   8.187 -1.4980 -0.1916 -0.5359
  419TIP3   OH222891   5.164   6.110   7.539 -0.1714 -0.4925 -0.1446
  419TIP3    H122892   5.074   6.090   7.512 -0.2414 -0.3081 -0.0523
  419TIP3    H222893   5.216   6.100   7.459 -0.3065 -0.3986 -0.2449
  420TIP3   OH222894   0.016   1.413   7.951  0.4601 -0.0452  0.8607
  420TIP3    H122895  -0.029   1.478   8.006 -0.4056  0.3814 -0.3218
  420TIP3    H222896  -0.035   1.333   7.962  0.2084  0.0758  0.5723
  421TIP3   OH222897   5.789   2.168   2.275  0.1425  0.5871 -0.3263
  421TIP3    H122898   5.716   2.218   2.311 -0.1711 -0.2984  0.2914
  421TIP3    H222899   5.789   2.190   2.181 -1.2922  0.1247 -0.4522
  422TIP3   OH222900   5.618   1.077   7.843  0.2482 -0.2718  0.0789
  422TIP3    H122901   5.626   1.172   7.851 -0.5374  0.2347 -3.6237
  422TIP3    H222902   5.692   1.051   7.789 -0.2906 -1.5763 -0.0470
  423TIP3   OH222903   1.839   5.757   1.518  0.0685  0.2690  0.1096
  423TIP3    H122904   1.899   5.738   1.446 -1.2572 -0.5456 -0.8317
  423TIP3    H222905   1.818   5.672   1.555 -2.1620  0.2423 -1.0090
  424TIP3   OH222906   3.177   3.223   7.493 -0.5507  1.0387 -0.4592
  424TIP3    H122907   3.171   3.151   7.556 -0.3067  1.1701 -0.2856
  424TIP3    H222908   3.188   3.301   7.547 -0.9589  1.2236 -0.6418
  425TIP3   OH222909   0.079   2.399   0.840  0.5582 -0.3157  0.1871
  425TIP3    H122910   0.153   2.364   0.791 -0.3080  0.0818 -1.4919
  425TIP3    H222911   0.024   2.440   0.774 -0.0625  1.3813  1.6708
  426TIP3   OH222912   5.733   3.821   1.768 -0.0255  0.1036  0.6910
  426TIP3    H122913   5.725   3.881   1.694  0.7467  0.6495  1.0358
  426TIP3    H222914   5.778   3.872   1.835  2.2371 -1.3340  0.4029
  427TIP3   OH222915   3.285   6.469   7.793 -0.4278 -0.1038 -0.0004
  427TIP3    H122916   3.380   6.463   7.786 -0.1245  1.1880  2.1203
  427TIP3    H222917   3.263   6.553   7.754 -0.6951 -0.3860 -0.4581
  428TIP3   OH222918   0.283   5.122   1.374  0.0506  0.9162 -0.1593
  428TIP3    H122919   0.279   5.030   1.347 -1.4601  0.8885  0.0924
  428TIP3    H222920   0.371   5.151   1.348  1.1541 -1.0196  1.1808
  429TIP3   OH222921   3.939   6.115   7.329 -0.7928 -0.5421  0.0475
  429TIP3    H122922   3.846   6.118   7.351 -0.3817 -1.8067  2.2258
  429TIP3    H222923   3.969   6.205   7.341 -0.8802 -0.8890  3.7696
  430TIP3   OH222924   5.454   5.646   8.379 -0.2418  0.0581 -0.5650
  430TIP3    H122925   5.372   5.639   8.428  1.2515  1.8599  2.4448
  430TIP3    H222926   5.508   5.573   8.410  0.8317  1.3935  0.8531
  431TIP3   OH222927   2.396   1.707   1.969 -0.0693  0.0694  0.5242
  431TIP3    H122928   2.420   1.650   2.042  0.2118 -1.2395 -0.5589
  431TIP3    H222929   2.476   1.755   1.949  0.1288 -0.2991  0.4297
  432TIP3   OH222930   6.844   6.372   0.261  0.0364 -0.2314  0.2929
  432TIP3    H122931   6.893   6.354   0.341  1.6422  0.5025 -0.4630
  432TIP3    H222932   6.830   6.286   0.222  0.5270 -0.4770  0.6447
  433TIP3   OH222933   3.316   3.247   0.319 -0.2499 -0.2406  0.2095
  433TIP3    H122934   3.374   3.289   0.255  0.1761 -1.6352 -0.3410
  433TIP3    H222935   3.276   3.321   0.366  2.3713  0.7617  1.0190
  434TIP3   OH222936   3.937   0.347   7.541  0.1515  0.0776  0.1979
  434TIP3    H122937   3.980   0.273   7.498 -1.2104  0.0524 -1.2149
  434TIP3    H222938   3.850   0.313   7.565 -0.2589  1.0260  0.1074
  435TIP3   OH222939   1.764   0.316   7.224 -0.0435  0.6053 -0.1293
  435TIP3    H122940   1.741   0.276   7.141 -1.8519 -1.1150  1.1218
  435TIP3    H222941   1.682   0.351   7.258  0.6841  1.3777  0.9159
  436TIP3   OH222942   5.016   6.828   0.710 -0.5797  0.5610 -0.7309
  436TIP3    H122943   4.968   6.886   0.769 -0.4568  0.6003 -0.6684
  436TIP3    H222944   4.976   6.742   0.723  0.8873  0.0835  1.0748
  437TIP3   OH222945   1.569   5.241   8.530 -0.3942 -0.3975  0.5881
  437TIP3    H122946   1.534   5.217   8.444  1.5966  0.2976 -0.4847
  437TIP3    H222947   1.628   5.314   8.512  0.8120 -0.8504  2.3990
  438TIP3   OH222948   3.322   4.233   1.726 -0.1350  0.2814 -0.5155
  438TIP3    H122949   3.375   4.221   1.647 -0.2100 -2.0413 -0.2811
  438TIP3    H222950   3.372   4.295   1.779  1.4200 -0.4006 -1.1211
  439TIP3   OH222951   4.208   6.190   6.434  0.1391 -0.0861  0.0268
  439TIP3    H122952   4.129   6.240   6.455  0.6682  0.6302  0.3351
  439TIP3    H222953   4.280   6.243   6.468  0.6995 -1.1992  0.6294
  440TIP3   OH222954   5.319   3.005   1.324  0.5629 -0.2693 -0.1699
  440TIP3    H122955   5.407   3.039   1.343  0.5926 -0.9671  1.0686
  440TIP3    H222956   5.261   3.081   1.337  0.8717 -0.0784  0.1068
  441TIP3   OH222957   0.017   5.568   8.568 -0.3991  0.2232 -0.2201
  441TIP3    H122958  -0.023   5.649   8.601 -1.6527  0.4919 -2.2436
  441TIP3    H222959  -0.029   5.498   8.615 -0.5025  0.6300  0.2978
  442TIP3   OH222960   4.677   6.607   7.428  0.6325 -0.2128 -0.5403
  442TIP3    H122961   4.725   6.581   7.349  0.1994  0.5501 -1.0659
  442TIP3    H222962   4.585   6.602   7.403  0.5101  0.6258 -0.2721
  443TIP3   OH222963   4.406   2.313   7.293 -0.5681 -0.7084  0.0113
  443TIP3    H122964   4.395   2.220   7.275 -0.4658 -0.7336  0.0826
  443TIP3    H222965   4.480   2.340   7.239  0.1440 -0.9214  0.8612
  444TIP3   OH222966   3.337   2.604   7.923  0.4208 -0.1670  0.1849
  444TIP3    H122967   3.427   2.587   7.894 -0.0674  0.8379 -2.2445
  444TIP3    H222968   3.284   2.541   7.874 -0.2952  0.0703  0.6455
  445TIP3   OH222969   1.250   1.847   2.677  0.0592 -0.3991 -0.3386
  445TIP3    H122970   1.211   1.920   2.630 -1.0286 -0.0002  1.1121
  445TIP3    H222971   1.189   1.774   2.666 -0.4489 -0.1658  0.8128
  446TIP3   OH222972   1.672   4.170   0.066 -0.2569  0.2303  0.6522
  446TIP3    H122973   1.762   4.200   0.072  0.0717 -0.7672  0.9779
  446TIP3    H222974   1.678   4.088   0.016 -1.2063  1.0478 -0.8808
  447TIP3   OH222975   2.450   1.261   7.103  0.1444  0.1481  0.0087
  447TIP3    H122976   2.357   1.251   7.123  0.0106  1.4610  0.1521
  447TIP3    H222977   2.485   1.172   7.104 -0.9943 -0.3105  0.5136
  448TIP3   OH222978   1.167   5.128   7.227  0.2720 -0.1455  0.0925
  448TIP3    H122979   1.241   5.121   7.287 -0.5565 -0.9608  1.0587
  448TIP3    H222980   1.091   5.141   7.284 -0.4346 -0.1381 -0.8290
  449TIP3   OH222981   2.383   2.215   0.009  0.2061 -0.2686 -0.6047
  449TIP3    H122982   2.396   2.134   0.058  0.3228 -1.0778 -1.9536
  449TIP3    H222983   2.350   2.277   0.075 -1.1639 -1.7631  0.1912
  450TIP3   OH222984   0.335   6.552   0.377  0.3724  0.5451  0.0764
  450TIP3    H122985   0.426   6.522   0.374  0.6003  1.1386  0.8132
  450TIP3    H222986   0.313   6.552   0.470  0.0164  1.5865  0.0036
  451TIP3   OH222987   6.592   0.407   0.501  0.3530  0.0903 -0.1167
  451TIP3    H122988   6.543   0.330   0.530  0.2676  0.6939  1.4278
  451TIP3    H222989   6.527   0.465   0.463 -0.5470  1.5682  3.3028
  452TIP3   OH222990   4.767   1.821   1.218 -0.2436  0.1530 -0.3085
  452TIP3    H122991   4.817   1.879   1.276  0.1681 -1.2878  0.8247
  452TIP3    H222992   4.820   1.817   1.138  0.8440 -0.3348  0.4046
  453TIP3   OH222993   6.684   6.760   1.077 -0.0362  1.0440 -0.2763
  453TIP3    H122994   6.629   6.776   1.154 -1.4328  2.5340 -1.5179
  453TIP3    H222995   6.750   6.828   1.080  1.3333 -0.2645  0.7769
  454TIP3   OH222996   2.982   6.882   8.315 -0.1538  0.4482  0.2817
  454TIP3    H122997   3.002   6.930   8.235 -1.1055 -0.0750 -0.2846
  454TIP3    H222998   2.923   6.812   8.288  0.2692 -0.3380  1.2834
  455TIP3   OH222999   1.764   0.056   8.074 -0.1006 -0.1154  0.0687
  455TIP3    H123000   1.848   0.051   8.119 -0.0241  0.2552 -0.0331
  455TIP3    H223001   1.708   0.107   8.133  0.2635  1.1512 -0.6484
  456TIP3   OH223002   1.111   6.191   1.558  0.1086  0.2630 -0.1167
  456TIP3    H123003   1.184   6.131   1.540 -0.9026 -1.4257  1.1374
  456TIP3    H223004   1.137   6.273   1.516  2.3194 -0.5456 -0.4797
  457TIP3   OH223005   0.672   6.178   2.110 -0.2021  0.0419  0.4904
  457TIP3    H123006   0.599   6.237   2.090 -0.3674 -0.7055 -1.3027
  457TIP3    H223007   0.633   6.111   2.167 -1.0643 -0.5687 -0.7592
  458TIP3   OH223008   6.590   4.391   0.163  0.3663  0.1738  0.1788
  458TIP3    H123009   6.498   4.378   0.142  0.5656 -0.1735 -0.5015
  458TIP3    H223010   6.602   4.346   0.247  0.5050 -2.1612 -1.0038
  459TIP3   OH223011   4.919   4.671   0.997  0.2016 -0.1963 -0.1664
  459TIP3    H123012   4.866   4.705   0.924  0.7020 -1.3227 -1.0709
  459TIP3    H223013   4.977   4.744   1.019 -1.0749  0.7525  0.2566
  460TIP3   OH223014   6.294   3.111   7.403 -0.4072 -0.0136 -1.1761
  460TIP3    H123015   6.203   3.094   7.379  0.0321 -0.9231 -2.2675
  460TIP3    H223016   6.345   3.084   7.327  0.7532  1.0454 -0.8174
  461TIP3   OH223017   4.680   1.562   2.483  0.2898 -0.0145 -0.4819
  461TIP3    H123018   4.690   1.657   2.477  1.7649 -0.0269  0.8229
  461TIP3    H223019   4.711   1.541   2.572  0.1969 -1.7319 -0.8249
  462TIP3   OH223020   6.863   1.315   2.224  0.7381 -0.3981 -0.0631
  462TIP3    H123021   6.950   1.346   2.249  0.5123 -0.0907  0.3513
  462TIP3    H223022   6.821   1.392   2.184  0.3925 -0.3369  0.4155
  463TIP3   OH223023   6.403   1.843   6.484 -0.5340  0.6361 -0.0798
  463TIP3    H123024   6.408   1.889   6.401  1.6899 -1.1041 -0.9889
  463TIP3    H223025   6.493   1.840   6.516 -0.6168 -2.6257  0.1177
  464TIP3   OH223026   3.563   6.240   7.788 -0.3085 -0.0010 -0.0025
  464TIP3    H123027   3.628   6.284   7.843 -0.6190  0.2727  0.1479
  464TIP3    H223028   3.544   6.158   7.833  2.2720 -1.6254 -1.6175
  465TIP3   OH223029   2.108   0.852   0.416 -0.1766  0.3391 -0.6551
  465TIP3    H123030   2.141   0.937   0.388  0.4143  0.3242 -0.0366
  465TIP3    H223031   2.086   0.807   0.335  0.8146  0.5663 -1.0620
  466TIP3   OH223032   4.005   3.221   8.440 -0.4019 -0.4843  0.0820
  466TIP3    H123033   3.913   3.240   8.456 -0.4163 -0.1296 -0.4208
  466TIP3    H223034   4.005   3.149   8.378 -0.3606  0.6110 -1.2485
  467TIP3   OH223035   3.203   5.409   1.789  0.2210 -0.1291 -0.3078
  467TIP3    H123036   3.156   5.492   1.803 -1.3295 -1.3319  2.3855
  467TIP3    H223037   3.252   5.395   1.870 -1.1034 -2.7062  0.1686
  468TIP3   OH223038   6.313   1.724   7.759  0.0448 -0.1547 -0.3668
  468TIP3    H123039   6.363   1.656   7.804 -2.8050 -0.6843  2.4297
  468TIP3    H223040   6.320   1.801   7.816 -1.2159  0.1345 -0.5671
  469TIP3   OH223041   4.120   5.152   0.824  0.1202 -0.8033 -0.6667
  469TIP3    H123042   4.143   5.238   0.860 -1.0799 -1.2399  1.2770
  469TIP3    H223043   4.043   5.169   0.770 -0.5170 -0.7415  0.2457
  470TIP3   OH223044   4.195   6.654   8.325  0.2410 -0.5253 -0.3588
  470TIP3    H123045   4.204   6.750   8.326 -3.5004 -0.0089  1.0374
  470TIP3    H223046   4.187   6.630   8.417  0.6890 -2.1447 -0.7232
  471TIP3   OH223047   5.688   1.610   8.380  0.0447 -0.2399  0.0620
  471TIP3    H123048   5.616   1.595   8.441  0.5721  0.8198  0.9873
  471TIP3    H223049   5.667   1.694   8.339  1.9532  1.4177  2.2276
  472TIP3   OH223050   6.707   6.563   0.108  0.4339 -0.4625 -0.2016
  472TIP3    H123051   6.786   6.604   0.073  0.3093  1.4010  1.5066
  472TIP3    H223052   6.739   6.511   0.182 -0.0835  3.1673  2.8909
  473TIP3   OH223053   5.396   2.331   7.780 -0.1882 -0.0885 -0.2801
  473TIP3    H123054   5.320   2.281   7.751 -0.6711 -0.3778  1.3648
  473TIP3    H223055   5.417   2.388   7.706 -1.1942 -0.9192 -1.2400
  474TIP3   OH223056   5.593   0.175   0.841 -0.0317 -0.1108  0.5095
  474TIP3    H123057   5.629   0.107   0.899  2.1150 -0.5351 -1.1760
  474TIP3    H223058   5.628   0.153   0.755  0.7674  3.1266 -0.1268
  475TIP3   OH223059   6.340   2.924   8.340  0.0963  0.2926  0.1156
  475TIP3    H123060   6.254   2.890   8.313  0.3972  0.4522 -1.0985
  475TIP3    H223061   6.398   2.903   8.267  0.8895  1.0124  0.5213
  476TIP3   OH223062   6.157   6.158   8.271  0.0695 -0.7447 -0.5880
  476TIP3    H123063   6.082   6.110   8.306 -1.8964  2.2028 -0.4475
  476TIP3    H223064   6.204   6.188   8.349  0.7441 -1.5310 -0.6716
  477TIP3   OH223065   2.926   6.288   7.190 -0.4360  0.2856 -0.0033
  477TIP3    H123066   2.867   6.256   7.122  0.2348 -1.4739  0.1969
  477TIP3    H223067   3.011   6.250   7.169 -0.4979 -1.4939  2.5244
  478TIP3   OH223068   2.308   3.640   7.499 -0.1008  0.2358  0.4533
  478TIP3    H123069   2.282   3.612   7.411 -0.4368  0.2729  0.5386
  478TIP3    H223070   2.404   3.638   7.497 -0.1095 -0.2491  0.2422
  479TIP3   OH223071   5.271   1.690   7.762  0.2989 -0.0373 -0.1758
  479TIP3    H123072   5.293   1.649   7.678  2.6729  1.4288 -0.3738
  479TIP3    H223073   5.222   1.623   7.809  1.9130 -2.2247 -1.3846
  480TIP3   OH223074   0.586   2.434   0.511  0.4061  0.7199  0.0488
  480TIP3    H123075   0.498   2.420   0.477  0.8072 -0.6797 -0.4920
  480TIP3    H223076   0.641   2.447   0.434  0.8524  0.4449  0.3078
  481TIP3   OH223077   2.172   1.518   1.249 -0.1653  0.2622 -0.1542
  481TIP3    H123078   2.209   1.549   1.332  1.6131  0.8636 -1.1179
  481TIP3    H223079   2.244   1.471   1.207 -1.5607 -1.5570 -0.6324
  482TIP3   OH223080   0.894   0.990   1.098 -0.1970 -0.3135  0.3445
  482TIP3    H123081   0.978   0.946   1.111 -0.2895 -0.3119  0.9713
  482TIP3    H223082   0.863   1.010   1.186 -0.4489  0.4582  0.0903
  483TIP3   OH223083   5.263   6.479   7.002 -0.7248 -0.5483  0.6290
  483TIP3    H123084   5.267   6.562   6.954 -0.9880  0.2393  1.9464
  483TIP3    H223085   5.218   6.499   7.083  0.4592 -1.6759  1.6143
  484TIP3   OH223086   4.544   1.904   8.155 -0.4530  0.1657 -0.1131
  484TIP3    H123087   4.498   1.983   8.125 -0.5599  0.0641 -0.2173
  484TIP3    H223088   4.474   1.842   8.175 -0.3517 -0.1460 -0.7073
  485TIP3   OH223089   2.325   0.357   8.375  0.4833  0.1874 -0.8708
  485TIP3    H123090   2.358   0.441   8.407 -0.4864 -0.1490  1.1934
  485TIP3    H223091   2.402   0.300   8.374  0.4789  0.0001  1.7906
  486TIP3   OH223092   3.180   6.900   0.716 -0.4160 -0.1556  0.5922
  486TIP3    H123093   3.227   6.819   0.737  1.6701  0.5310 -1.0182
  486TIP3    H223094   3.104   6.872   0.666  0.6553 -1.1573 -0.5537
  487TIP3   OH223095   5.995   0.096   0.136 -0.5311 -0.4482  0.4710
  487TIP3    H123096   5.946   0.023   0.173  0.5629 -1.5920 -0.2639
  487TIP3    H223097   6.059   0.055   0.077  0.8147  1.0247  0.8384
  488TIP3   OH223098   5.475   1.472   0.111 -0.1438 -0.1028 -0.2449
  488TIP3    H123099   5.450   1.529   0.039  0.6856 -1.1898 -1.4382
  488TIP3    H223100   5.512   1.531   0.177  0.4506  0.7788 -1.3250
  489TIP3   OH223101   1.544   2.961   1.171  0.7903  0.0538 -0.0192
  489TIP3    H123102   1.595   2.880   1.181 -1.4541 -1.4562 -0.1152
  489TIP3    H223103   1.532   2.993   1.260  1.0768 -0.0960  0.0762
  490TIP3   OH223104   6.839   2.409   8.354  0.4241 -0.0703 -0.4572
  490TIP3    H123105   6.841   2.314   8.340 -0.7562 -0.3663  1.1008
  490TIP3    H223106   6.912   2.442   8.303  0.8029 -1.8060 -1.1259
  491TIP3   OH223107   2.741   3.047   1.137 -0.1755 -0.2951 -0.2845
  491TIP3    H123108   2.718   3.113   1.072  1.3693 -0.4150 -1.0017
  491TIP3    H223109   2.825   3.012   1.107 -0.6934 -2.2195  0.3555
  492TIP3   OH223110   1.297   2.388   1.740  0.5006  0.4597 -0.6578
  492TIP3    H123111   1.318   2.411   1.649  1.3747 -0.7105 -0.7913
  492TIP3    H223112   1.220   2.440   1.761  1.6283  2.5159 -1.2866
  493TIP3   OH223113   4.119   5.607   6.522 -0.4558  0.4056 -0.1011
  493TIP3    H123114   4.056   5.643   6.459 -0.6700 -1.4427 -1.0139
  493TIP3    H223115   4.126   5.674   6.590 -3.3355  0.7516 -0.0162
  494TIP3   OH223116   6.837   0.048   2.085 -0.7935  0.2440 -0.5961
  494TIP3    H123117   6.822  -0.018   2.153  0.3577 -1.2937 -1.7653
  494TIP3    H223118   6.932   0.062   2.085 -0.8485  0.6848 -1.4701
  495TIP3   OH223119   5.389   0.912   2.677  0.3243 -0.1262  0.1852
  495TIP3    H123120   5.479   0.881   2.689  0.3923 -0.0453 -0.0969
  495TIP3    H223121   5.399   1.002   2.644  0.1283  0.4811  1.6947
  496TIP3   OH223122   2.293   2.418   1.125  0.0076  0.5285 -0.1273
  496TIP3    H123123   2.226   2.355   1.151 -0.7877  1.1872 -0.5455
  496TIP3    H223124   2.329   2.450   1.207 -1.4867  1.5259  0.1799
  497TIP3   OH223125   6.195   6.694   0.333  0.2995 -0.2476 -0.2754
  497TIP3    H123126   6.239   6.676   0.417  0.3922 -0.4795 -0.3717
  497TIP3    H223127   6.120   6.635   0.333 -2.2050  2.6553  1.5422
  498TIP3   OH223128   3.378   6.692   1.595  0.1663  0.2582 -0.4927
  498TIP3    H123129   3.450   6.654   1.545  0.9796  0.1545  0.7237
  498TIP3    H223130   3.419   6.729   1.673 -0.9686  1.1688 -0.2992
  499TIP3   OH223131   0.346   1.188   1.695  0.1732  0.1395  0.0286
  499TIP3    H123132   0.275   1.252   1.691  0.3064  0.2421 -1.8207
  499TIP3    H223133   0.302   1.103   1.685  0.1808  0.0920  0.3948
  500TIP3   OH223134   6.330   1.637   2.315 -0.2551  0.1480  0.3526
  500TIP3    H123135   6.323   1.551   2.357  1.1454 -0.5269 -0.7265
  500TIP3    H223136   6.366   1.693   2.383 -0.9816 -0.1453  1.0018
  501TIP3   OH223137   1.774   5.997   7.826  0.5263 -0.0099  0.8380
  501TIP3    H123138   1.737   5.954   7.748  1.1186 -0.1520  0.6326
  501TIP3    H223139   1.719   5.967   7.898 -0.2751  0.4342  0.4227
  502TIP3   OH223140   0.859   6.667   7.740  0.3990 -0.0664 -0.2308
  502TIP3    H123141   0.828   6.734   7.679 -0.4469  0.3002  0.5635
  502TIP3    H223142   0.812   6.687   7.822 -0.3386 -1.9910 -0.1409
  503TIP3   OH223143   3.589   4.668   1.402 -0.2504 -0.5036  0.0152
  503TIP3    H123144   3.560   4.612   1.473 -0.2037 -1.2933 -0.5776
  503TIP3    H223145   3.678   4.639   1.382  0.6574  1.2706  1.1861
  504TIP3   OH223146   3.647   3.057   0.563 -0.0892  0.5872 -0.3090
  504TIP3    H123147   3.735   3.020   0.553 -0.5856 -0.3464 -1.6017
  504TIP3    H223148   3.611   3.014   0.641  0.5965  0.9763  0.2254
  505TIP3   OH223149   4.694   3.425   0.995 -0.0485 -0.3617  0.2863
  505TIP3    H123150   4.687   3.374   1.076  2.8934 -0.1689  0.7892
  505TIP3    H223151   4.700   3.359   0.926 -2.0561 -0.5296  0.1977
  506TIP3   OH223152   6.160   2.602   2.356  0.4364 -0.3554  0.0147
  506TIP3    H123153   6.196   2.597   2.445  2.1503  0.5664 -0.5825
  506TIP3    H223154   6.111   2.684   2.355 -0.2071 -0.7285  0.3061
  507TIP3   OH223155   3.393   3.865   8.034  0.7607 -0.0767 -0.3117
  507TIP3    H123156   3.353   3.794   7.984  1.7719  0.2324 -1.6170
  507TIP3    H223157   3.393   3.834   8.124 -0.8386 -0.7831 -0.5242
  508TIP3   OH223158   5.384   0.939   7.446  0.0266  0.2185  0.7714
  508TIP3    H123159   5.416   0.922   7.535 -1.6762 -1.2411  1.1654
  508TIP3    H223160   5.390   0.854   7.402 -3.1644 -0.1988  0.8898
  509TIP3   OH223161   1.633   6.507   6.478  0.2788 -0.1567  0.9960
  509TIP3    H123162   1.708   6.494   6.536  0.2333  0.5207  1.2113
  509TIP3    H223163   1.636   6.600   6.455  0.1910 -0.3730  0.0585
  510TIP3   OH223164   0.309   4.979   6.769 -0.1115 -0.3108  0.0097
  510TIP3    H123165   0.232   5.006   6.721 -0.5762 -0.1036  0.8478
  510TIP3    H223166   0.383   5.020   6.723 -0.2737 -2.0609 -1.9596
  511TIP3   OH223167   0.062   5.031   8.261  0.2293  0.0564  0.1208
  511TIP3    H123168   0.022   5.062   8.180  0.7642 -1.0247 -0.5768
  511TIP3    H223169  -0.010   5.026   8.324 -0.6565 -1.3227 -0.9512
  512TIP3   OH223170   1.200   0.217   7.816 -0.4727 -0.0095 -0.5327
  512TIP3    H123171   1.141   0.285   7.782  0.9742  0.3955 -2.4529
  512TIP3    H223172   1.143   0.142   7.832 -1.8297  1.0518 -0.1683
  513TIP3   OH223173   5.882   3.319   2.020  0.1295  0.0223  0.0176
  513TIP3    H123174   5.909   3.357   1.936  0.5222 -0.0751  0.0954
  513TIP3    H223175   5.917   3.380   2.086 -0.4169  0.2462  0.1045
  514TIP3   OH223176   4.098   5.649   6.192 -0.6469 -0.2193  0.1289
  514TIP3    H123177   4.047   5.635   6.113  0.8422  0.2446 -0.9402
  514TIP3    H223178   4.044   5.708   6.245 -1.9813 -1.1199 -0.1977
  515TIP3   OH223179   4.897   1.272   8.480 -0.1566  0.1156 -0.2790
  515TIP3    H123180   4.860   1.299   8.396 -1.0954 -0.4788 -0.0637
  515TIP3    H223181   4.907   1.177   8.473  1.0337  0.2090 -0.2010
  516TIP3   OH223182   6.208   6.096   7.526 -0.0767 -0.4519 -0.4647
  516TIP3    H123183   6.174   6.006   7.522 -0.5877 -0.2344 -1.2742
  516TIP3    H223184   6.251   6.109   7.441 -1.0215  0.4508 -0.8255
  517TIP3   OH223185   3.426   1.917   1.825  0.2850 -0.1423 -0.0808
  517TIP3    H123186   3.440   1.939   1.917  1.9981 -3.1014  0.5077
  517TIP3    H223187   3.499   1.959   1.779  1.0705 -0.9407  0.3866
  518TIP3   OH223188   3.278   2.591   2.420  0.2740 -0.1469 -0.0100
  518TIP3    H123189   3.341   2.532   2.377  0.8704  0.9691 -0.7341
  518TIP3    H223190   3.320   2.677   2.415 -1.2701  0.6071 -0.3972
  519TIP3   OH223191   5.333   6.771   2.055  0.1503 -0.1878 -0.3924
  519TIP3    H123192   5.342   6.861   2.025 -1.6831 -1.2002 -4.7053
  519TIP3    H223193   5.260   6.773   2.117 -0.3051  1.2340 -0.9382
  520TIP3   OH223194   1.867   6.453   7.443 -0.6597 -0.0230  0.1378
  520TIP3    H123195   1.819   6.437   7.361 -0.7402  0.5766  0.0618
  520TIP3    H223196   1.801   6.485   7.504 -0.6942 -0.9461  0.6001
  521TIP3   OH223197   6.499   2.056   0.602  0.3045  0.4015 -0.2225
  521TIP3    H123198   6.581   2.009   0.587  0.4323  0.8602 -1.0406
  521TIP3    H223199   6.431   1.996   0.572  0.5012  0.9287 -1.8250
  522TIP3   OH223200   0.089   1.854   1.161  0.3200  0.1121  0.1056
  522TIP3    H123201   0.008   1.836   1.208 -0.5114  0.9141 -0.9375
  522TIP3    H223202   0.070   1.935   1.113  2.2191  1.0940  0.9145
  523TIP3   OH223203   2.545   2.539   0.017 -0.0373 -0.3800 -0.0354
  523TIP3    H123204   2.464   2.526   0.067  0.1206 -2.3951 -0.2171
  523TIP3    H223205   2.607   2.478   0.057  1.1568  0.5382 -0.4371
  524TIP3   OH223206   2.255   5.874   8.579  0.5605 -0.0137 -0.6872
  524TIP3    H123207   2.194   5.943   8.552 -0.1501 -0.5970 -0.5938
  524TIP3    H223208   2.219   5.842   8.662  1.2861 -0.0150 -0.3635
  525TIP3   OH223209   1.552   4.454   0.900 -0.5086 -0.1119  0.4140
  525TIP3    H123210   1.515   4.467   0.812  2.5423 -0.3603 -1.0226
  525TIP3    H223211   1.488   4.399   0.945 -1.6735 -0.9094 -2.0432
  526TIP3   OH223212   6.032   3.248   1.506  0.5220 -0.3087 -0.0010
  526TIP3    H123213   6.096   3.177   1.501  2.9039  1.7009 -0.1069
  526TIP3    H223214   6.083   3.328   1.491 -1.8748  1.5294  0.8889
  527TIP3   OH223215   0.943   5.005   1.466 -0.0310  0.3444 -0.3761
  527TIP3    H123216   0.929   5.087   1.513 -1.0005 -0.0256  0.0104
  527TIP3    H223217   1.002   5.028   1.395 -0.1514  1.3392 -0.1702
  528TIP3   OH223218   3.065   4.092   0.716  0.2794  0.3424 -0.0335
  528TIP3    H123219   3.027   4.007   0.739 -2.0490  1.6516  1.4535
  528TIP3    H223220   3.075   4.137   0.801  1.6067  1.4887 -0.7626
  529TIP3   OH223221   4.434   2.027   7.384 -0.2394 -0.0561  0.1799
  529TIP3    H123222   4.362   1.982   7.428 -1.6083  1.1693 -0.6847
  529TIP3    H223223   4.426   2.001   7.293  1.4707 -1.1775  0.3055
  530TIP3   OH223224   1.383   1.747   7.751 -0.4406 -0.0405  0.5058
  530TIP3    H123225   1.341   1.666   7.722  1.6949 -1.5763  1.4338
  530TIP3    H223226   1.319   1.815   7.732 -2.1660 -1.8754 -0.6906
  531TIP3   OH223227   5.791   4.160   8.173  0.3251  0.4076 -0.6120
  531TIP3    H123228   5.712   4.198   8.211  0.6969  1.9015 -1.2399
  531TIP3    H223229   5.855   4.162   8.243  0.8426  2.6223 -1.0565
  532TIP3   OH223230   4.280   0.589   1.891  0.9364 -0.0772  0.0675
  532TIP3    H123231   4.363   0.559   1.929  0.7373  1.4145  1.8511
  532TIP3    H223232   4.215   0.573   1.960  0.4020  1.9391  0.0998
  533TIP3   OH223233   0.609   0.680   7.939  0.2367 -0.4696  0.1039
  533TIP3    H123234   0.604   0.625   8.017  0.6226 -1.3142 -0.4530
  533TIP3    H223235   0.624   0.768   7.973  0.3650 -0.8147  0.9842
  534TIP3   OH223236   1.276   3.969   0.392  0.0577  0.2308  0.0483
  534TIP3    H123237   1.207   4.017   0.439  0.9451 -0.0926  1.7391
  534TIP3    H223238   1.312   3.909   0.456  2.3615  0.8104 -0.6054
  535TIP3   OH223239   2.844   2.083   0.933 -0.1149  0.1681  0.1648
  535TIP3    H123240   2.797   2.116   0.857  1.6103  0.6157 -0.7575
  535TIP3    H223241   2.935   2.077   0.905  0.2941 -1.4464  1.6194
  536TIP3   OH223242   2.434   2.665   7.627 -0.4836  0.0153 -0.2504
  536TIP3    H123243   2.518   2.710   7.640 -0.9392  0.7752  0.1577
  536TIP3    H223244   2.417   2.623   7.712  0.8753 -2.6311 -1.1775
  537TIP3   OH223245   6.429   1.354   8.501 -0.0098 -0.0819  0.2033
  537TIP3    H123246   6.477   1.347   8.583 -0.0520 -0.3604  0.2046
  537TIP3    H223247   6.359   1.416   8.519  0.6022  0.6626  0.0837
  538TIP3   OH223248   2.678   4.378   6.117 -0.6838  0.2417  0.6614
  538TIP3    H123249   2.769   4.366   6.141 -0.9079 -0.1288  1.3489
  538TIP3    H223250   2.665   4.319   6.043 -0.4586  0.0194  0.7970
  539TIP3   OH223251   2.106   2.714   7.916 -0.2586  0.0829 -0.2759
  539TIP3    H123252   2.050   2.715   7.839 -1.3060 -2.0473  0.3602
  539TIP3    H223253   2.072   2.641   7.969  1.6735  0.2021  1.2458
  540TIP3   OH223254   0.703   0.269   1.632  0.2896 -0.0354 -0.4916
  540TIP3    H123255   0.754   0.227   1.701  1.6876  0.4563 -1.1883
  540TIP3    H223256   0.612   0.256   1.658  0.6092 -3.2270 -0.5268
  541TIP3   OH223257   3.203   5.665   8.550 -0.6603  0.1336  0.0419
  541TIP3    H123258   3.242   5.683   8.635 -2.0682  2.9497  0.2034
  541TIP3    H223259   3.127   5.610   8.570  0.3648 -1.2727  0.2521
  542TIP3   OH223260   5.914   0.816   6.825  0.2042 -0.1740 -0.1130
  542TIP3    H123261   5.987   0.830   6.885  1.1681 -0.7128 -1.0975
  542TIP3    H223262   5.956   0.802   6.740 -1.0266 -0.9033 -0.6354
  543TIP3   OH223263   2.773   4.497   8.154  0.0639 -0.5006  0.1331
  543TIP3    H123264   2.822   4.415   8.152  0.5730 -0.2414  1.1284
  543TIP3    H223265   2.839   4.564   8.137 -0.3521 -0.2805 -0.6933
  544TIP3   OH223266   1.281   3.575   8.453 -0.2908  0.6631  1.1982
  544TIP3    H123267   1.272   3.620   8.537 -0.2314  0.2832  1.4098
  544TIP3    H223268   1.327   3.494   8.474 -1.3264  0.0048  0.9859
  545TIP3   OH223269   6.134   0.491   0.405 -0.1181  0.2828 -0.3543
  545TIP3    H123270   6.148   0.399   0.383  1.8842  0.5926 -0.5045
  545TIP3    H223271   6.100   0.530   0.324 -2.3329 -0.5312  0.0878
  546TIP3   OH223272   5.584   1.108   1.520  0.0690 -0.7973 -0.1508
  546TIP3    H123273   5.538   1.127   1.439 -1.4602  0.2104  0.8804
  546TIP3    H223274   5.556   1.020   1.544  0.4053 -1.0356 -0.6168
  547TIP3   OH223275   5.658   0.128   7.681 -0.1502  0.3415  0.4347
  547TIP3    H123276   5.593   0.196   7.697 -0.9808 -0.5707  1.0196
  547TIP3    H223277   5.650   0.068   7.755  1.5227  0.3117  0.6361
  548TIP3   OH223278   1.219   0.364   2.037 -0.3098 -0.3791 -0.2353
  548TIP3    H123279   1.259   0.286   2.074  0.7734 -0.5193 -1.6213
  548TIP3    H223280   1.163   0.398   2.107  0.4329 -1.4881  0.9373
  549TIP3   OH223281   0.418   2.690   7.039 -0.0600 -0.3595  0.3012
  549TIP3    H123282   0.403   2.630   6.966  1.8201 -2.4655  1.5004
  549TIP3    H223283   0.497   2.739   7.014 -1.0756  1.0388 -0.2822
  550TIP3   OH223284   2.845   6.375   8.044  0.8338  0.3413 -0.4398
  550TIP3    H123285   2.837   6.338   7.956  0.5229 -0.9203  0.0920
  550TIP3    H223286   2.880   6.303   8.097 -0.5613  0.5467  0.8140
  551TIP3   OH223287   5.031   0.218   1.037  0.4160 -0.2678  0.4832
  551TIP3    H123288   5.009   0.253   0.951 -0.3356 -2.3054 -0.2134
  551TIP3    H223289   4.948   0.217   1.084 -0.0870 -3.0066 -0.2850
  552TIP3   OH223290   5.194   5.382   1.279  0.2056 -0.0868 -0.5610
  552TIP3    H123291   5.186   5.475   1.300  1.6475  0.2824 -1.5221
  552TIP3    H223292   5.226   5.342   1.360  0.8973  0.4857 -0.5504
  553TIP3   OH223293   0.641   5.215   1.110  0.0764  0.2650 -0.1451
  553TIP3    H123294   0.598   5.291   1.071  0.4091  0.5901  0.1240
  553TIP3    H223295   0.725   5.247   1.141 -0.8564  0.4679  2.4379
  554TIP3   OH223296   6.337   6.618   8.009 -0.3253  0.3440 -0.2059
  554TIP3    H123297   6.297   6.673   7.942 -4.7278  0.1968  1.9437
  554TIP3    H223298   6.386   6.678   8.065 -1.3582  1.3719 -0.3839
  555TIP3   OH223299   0.737   6.608   2.381  0.3183  0.4993 -0.1895
  555TIP3    H123300   0.682   6.529   2.375  0.8188  0.2427 -2.0103
  555TIP3    H223301   0.811   6.590   2.322  1.2838  1.6836  0.6184
  556TIP3   OH223302   6.446   6.831   2.247 -0.2439  0.3467  0.0590
  556TIP3    H123303   6.485   6.913   2.217  0.4445 -0.3142 -0.9079
  556TIP3    H223304   6.520   6.770   2.254 -0.5971  0.0645  1.7220
  557TIP3   OH223305   1.734   2.188   0.290 -0.2309  0.1628  0.2416
  557TIP3    H123306   1.722   2.256   0.225 -0.6130 -1.1152 -1.0838
  557TIP3    H223307   1.828   2.188   0.309  0.4178 -1.2078 -2.4131
  558TIP3   OH223308   2.324   0.132   1.746 -0.0742  0.2587 -0.0206
  558TIP3    H123309   2.404   0.084   1.728  0.4772  1.0585  0.2276
  558TIP3    H223310   2.352   0.223   1.755 -0.9585  0.5033  0.4162
  559TIP3   OH223311   1.969   2.495   8.036 -0.3740  0.2339 -0.0901
  559TIP3    H123312   1.926   2.496   8.122  1.6208  0.3379  0.9604
  559TIP3    H223313   2.003   2.406   8.028  0.2650  0.5006 -0.3479
  560TIP3   OH223314   1.611   5.953   2.478 -0.0524  0.1167 -0.1786
  560TIP3    H123315   1.584   6.045   2.476  1.5456  0.6028 -1.4124
  560TIP3    H223316   1.707   5.956   2.474 -0.0136 -1.5969 -2.2966
  561TIP3   OH223317   2.958   0.441   1.921 -0.1117  0.1811 -0.2551
  561TIP3    H123318   2.936   0.378   1.853 -0.2514 -0.4695  0.3851
  561TIP3    H223319   3.003   0.390   1.989  0.4700  0.9088 -0.0812
  562TIP3   OH223320   3.238   4.513   8.295  0.1148  0.1245  0.1267
  562TIP3    H123321   3.321   4.561   8.286  1.3345 -1.0956  3.3111
  562TIP3    H223322   3.172   4.581   8.304  1.2141  1.1758  0.5815
  563TIP3   OH223323   1.178   0.107   8.503  0.3885 -0.0307 -0.1267
  563TIP3    H123324   1.228   0.078   8.426  1.5435 -0.0656  0.6147
  563TIP3    H223325   1.214   0.056   8.575 -0.2814  0.4308  0.5404
  564TIP3   OH223326   3.642   5.626   8.487 -0.0652 -0.0610  0.4688
  564TIP3    H123327   3.620   5.558   8.552 -1.4211  1.3086  1.5124
  564TIP3    H223328   3.700   5.685   8.534  0.3242  0.0372 -0.1288
  565TIP3   OH223329   6.298   2.326   7.766  0.2368  0.3501 -0.0130
  565TIP3    H123330   6.356   2.275   7.709  1.8430  2.6663 -0.5969
  565TIP3    H223331   6.277   2.266   7.838  0.1479 -1.8499 -1.7451
  566TIP3   OH223332   0.805   1.140   7.851 -0.1379  0.5095 -0.0469
  566TIP3    H123333   0.835   1.222   7.810  1.7614 -1.1794 -2.2919
  566TIP3    H223334   0.881   1.109   7.901  0.3148 -1.4277 -1.8325
  567TIP3   OH223335   5.138   1.856   8.394  0.0879  0.1886 -0.3330
  567TIP3    H123336   5.054   1.883   8.430  0.5967  2.0646 -0.4889
  567TIP3    H223337   5.140   1.892   8.305  1.1311  0.3423 -0.2681
  568TIP3   OH223338   3.113   0.932   8.507 -0.2787  0.4763 -0.2905
  568TIP3    H123339   3.022   0.932   8.477 -1.1614 -1.5824  2.0417
  568TIP3    H223340   3.161   0.888   8.437 -1.4005  0.0246 -0.8044
  569TIP3   OH223341   6.761   4.853   0.053  0.1758 -0.5015 -0.4442
  569TIP3    H123342   6.717   4.873  -0.030  1.0822  0.3129 -0.7404
  569TIP3    H223343   6.766   4.757   0.054  0.7185 -0.5041 -1.6385
  570TIP3   OH223344   0.843   6.562   8.280  0.4177 -0.0337  0.3993
  570TIP3    H123345   0.861   6.606   8.362 -1.7436  1.2939  0.2377
  570TIP3    H223346   0.822   6.632   8.218  1.2160 -1.0474 -1.1095
  571TIP3   OH223347   0.702   1.423   7.312  0.8002 -0.0088 -0.0861
  571TIP3    H123348   0.739   1.426   7.224 -0.6433 -1.3025 -0.7797
  571TIP3    H223349   0.616   1.382   7.301 -0.6409  2.3131  1.5296
  572TIP3   OH223350   1.720   2.023   8.638 -0.0006 -0.2429  0.0193
  572TIP3    H123351   1.693   2.100   8.689  0.8327 -0.1646  0.3594
  572TIP3    H223352   1.650   2.011   8.574  0.2009  1.2157 -0.4955
  573TIP3   OH223353   1.222   1.054   0.096 -0.4201 -0.0191 -0.3203
  573TIP3    H123354   1.154   0.994   0.067  1.0280 -1.0932 -1.6059
  573TIP3    H223355   1.179   1.140   0.097 -2.1425 -0.8377  0.2426
  574TIP3   OH223356   2.909   6.850   0.580 -0.2358 -0.1562  0.3360
  574TIP3    H123357   2.921   6.894   0.496  0.3551 -0.2156  0.3904
  574TIP3    H223358   2.831   6.892   0.617  1.3375  2.2099  1.2171
  575TIP3   OH223359   2.678   0.168   2.750 -0.3454  0.4010 -0.1848
  575TIP3    H123360   2.628   0.137   2.825  0.5155 -2.2662 -0.5962
  575TIP3    H223361   2.612   0.186   2.683 -0.9169 -1.2095 -0.1019
  576TIP3   OH223362   6.244   5.807   0.882  0.0351  0.2669 -0.5131
  576TIP3    H123363   6.247   5.713   0.864  0.8018  0.2456 -0.3112
  576TIP3    H223364   6.242   5.813   0.977 -1.3348  0.4361 -0.5340
  577TIP3   OH223365   5.704   2.964   1.642  0.3575  0.1425  0.2016
  577TIP3    H123366   5.667   2.949   1.729  1.2426 -0.9215  0.4230
  577TIP3    H223367   5.691   2.882   1.596 -2.0831  1.3678 -1.4846
  578TIP3   OH223368   3.457   6.013   1.391 -0.4932 -0.1799 -0.3421
  578TIP3    H123369   3.483   5.992   1.481 -0.7629 -2.0196 -0.6636
  578TIP3    H223370   3.521   6.079   1.364 -1.0671  1.2325  1.5391
  579TIP3   OH223371   5.103   5.008   8.086  0.0658 -0.6822 -0.0309
  579TIP3    H123372   5.076   4.946   8.154 -1.5481 -0.0829 -0.0827
  579TIP3    H223373   5.146   5.079   8.133  0.8536 -1.2489  0.1347
  580TIP3   OH223374   1.048   1.289   1.391 -0.9833 -0.4282  0.1031
  580TIP3    H123375   1.143   1.302   1.380 -0.6067  0.5041  3.4752
  580TIP3    H223376   1.014   1.293   1.302  1.7869  2.3875 -1.0366
  581TIP3   OH223377   4.204   6.750   2.521 -0.2456  0.5370 -0.5115
  581TIP3    H123378   4.285   6.736   2.472  0.8234 -0.5424  1.4077
  581TIP3    H223379   4.229   6.809   2.592 -1.0929  0.1177  0.1627
  582TIP3   OH223380   4.057   1.927   1.246  0.0648 -0.2168  0.5167
  582TIP3    H123381   4.046   1.850   1.302 -2.8065  0.4493  1.0728
  582TIP3    H223382   3.983   1.983   1.269  2.2096  2.8988  0.3670
  583TIP3   OH223383   4.540   0.591   1.600 -0.0979  0.1687  0.2355
  583TIP3    H123384   4.532   0.557   1.512  2.0721 -1.6971  0.6722
  583TIP3    H223385   4.462   0.559   1.646 -1.3120  1.2771 -0.9708
  584TIP3   OH223386   4.666   5.195   8.314  0.2316  0.0113 -0.2894
  584TIP3    H123387   4.595   5.134   8.336  0.1672 -0.3843 -1.5231
  584TIP3    H223388   4.674   5.252   8.391 -0.7949 -0.5320  0.2321
  585TIP3   OH223389   5.744   1.303   2.460  0.2684  0.5651 -0.8141
  585TIP3    H123390   5.668   1.362   2.457 -0.3476 -0.2171 -0.8333
  585TIP3    H223391   5.707   1.216   2.448  1.1574  0.1558 -0.6364
  586TIP3   OH223392   2.186   0.962   0.077 -0.0816 -0.7901 -0.1557
  586TIP3    H123393   2.184   1.042   0.025 -0.9111 -0.6643  0.0659
  586TIP3    H223394   2.210   0.893   0.015  1.4450 -0.2650 -0.1942
  587TIP3   OH223395   6.747   3.142   8.038  0.6018 -0.1864  0.2018
  587TIP3    H123396   6.764   3.226   8.081 -1.7316  0.4724  0.0192
  587TIP3    H223397   6.724   3.166   7.948  0.3110 -1.0513  0.0380
  588TIP3   OH223398   2.331   3.331   1.456 -0.4580  0.2959 -0.3048
  588TIP3    H123399   2.320   3.385   1.377  2.1905  0.0669 -0.9147
  588TIP3    H223400   2.292   3.247   1.433 -1.0033  0.6824 -0.8309
  589TIP3   OH223401   1.766   2.006   1.013 -0.0994 -0.2943 -0.7709
  589TIP3    H123402   1.692   2.050   1.054 -2.3408 -2.7571 -1.8870
  589TIP3    H223403   1.743   2.001   0.921  1.2093 -1.5946 -1.0637
  590TIP3   OH223404   4.245   0.002   8.409 -0.5713 -0.3977 -0.0771
  590TIP3    H123405   4.328  -0.027   8.447  0.1622  0.3614 -1.0436
  590TIP3    H223406   4.242   0.096   8.428 -1.0326 -0.3526 -0.3589
  591TIP3   OH223407   5.983   0.739   7.210  0.1941  0.2427  0.7170
  591TIP3    H123408   6.019   0.795   7.141 -2.4641  2.9040  1.2576
  591TIP3    H223409   6.019   0.775   7.291 -0.5381  0.3586  0.9960
  592TIP3   OH223410   4.917   4.192   8.214  0.6996  0.4852 -0.0512
  592TIP3    H123411   4.977   4.210   8.286  0.4916 -0.6378  0.4329
  592TIP3    H223412   4.883   4.104   8.233 -1.5475  1.3007 -0.0044
  593TIP3   OH223413   3.343   5.792   7.610 -0.4393  0.2098  0.1519
  593TIP3    H123414   3.340   5.845   7.689 -2.8989 -1.0429  1.0036
  593TIP3    H223415   3.261   5.811   7.564 -1.1583 -2.3111  0.2076
  594TIP3   OH223416   6.605   4.424   7.811 -0.0778 -0.0061 -0.6564
  594TIP3    H123417   6.653   4.382   7.882  0.7908  2.0439  0.0542
  594TIP3    H223418   6.673   4.466   7.758 -0.9054  1.1477 -0.8529
  595TIP3   OH223419   0.452   5.704   1.766 -0.3525  0.3734 -0.6447
  595TIP3    H123420   0.468   5.775   1.828 -1.8193 -0.0522  0.2855
  595TIP3    H223421   0.457   5.624   1.819 -1.2068 -0.0334 -1.1519
  596TIP3   OH223422   0.484   5.183   7.853  0.4428  0.3048  0.1629
  596TIP3    H123423   0.517   5.211   7.938  2.4951 -1.7729  0.1534
  596TIP3    H223424   0.506   5.255   7.794  0.5223  1.0582  1.0926
  597TIP3   OH223425   4.227   4.252   6.090  0.3340 -0.0949 -0.1257
  597TIP3    H123426   4.188   4.175   6.050  1.4814  0.2380 -2.0426
  597TIP3    H223427   4.320   4.231   6.097  0.1307 -0.4169  3.2116
  598TIP3   OH223428   0.779   3.089   8.026 -0.7349 -0.3213 -0.2526
  598TIP3    H123429   0.873   3.069   8.026 -0.6913 -0.1260  0.1448
  598TIP3    H223430   0.774   3.177   8.061 -1.1119 -0.5366  0.2367
  599TIP3   OH223431   0.282   3.362   2.636  0.0114  0.4894 -0.2361
  599TIP3    H123432   0.216   3.295   2.654 -0.4550  1.1133  0.4132
  599TIP3    H223433   0.232   3.435   2.600  0.6902 -0.0284 -2.3948
  600TIP3   OH223434   3.877   5.685   0.417  0.7343  0.6495  0.3000
  600TIP3    H123435   3.848   5.752   0.355  0.0270 -0.3616 -0.5135
  600TIP3    H223436   3.954   5.646   0.376 -1.3474 -1.9883 -1.5204
  601TIP3   OH223437   5.492   2.815   1.819  0.0364  0.5623 -0.0490
  601TIP3    H123438   5.575   2.791   1.860 -0.2720  2.2637  1.7272
  601TIP3    H223439   5.436   2.841   1.892 -1.0854  2.2585 -1.4410
  602TIP3   OH223440   6.453   2.988   8.046 -0.1221 -0.9041 -0.1974
  602TIP3    H123441   6.498   2.924   7.992  0.6378  0.8245 -1.7544
  602TIP3    H223442   6.512   3.004   8.119  0.3538 -0.9639 -0.5608
  603TIP3   OH223443   6.768   1.322   7.323 -0.3817 -0.5579  0.5188
  603TIP3    H123444   6.787   1.406   7.366  0.7652 -1.1754  1.2793
  603TIP3    H223445   6.705   1.344   7.254 -1.2753  0.6671  1.6889
  604TIP3   OH223446   6.335   3.270   7.851 -0.4413  0.3736 -0.0662
  604TIP3    H123447   6.423   3.307   7.840 -0.3649  0.1491 -0.2139
  604TIP3    H223448   6.348   3.175   7.843 -0.5337  0.2661  0.9462
  605TIP3   OH223449   4.734   2.980   8.265  0.3205  0.0797 -0.8773
  605TIP3    H123450   4.745   2.976   8.360 -0.5710  3.3363 -0.5266
  605TIP3    H223451   4.667   2.915   8.246 -2.2333  1.8554  1.3293
  606TIP3   OH223452   3.971   4.777   0.452  0.3185  0.1838 -0.0815
  606TIP3    H123453   3.966   4.863   0.493 -0.5198  0.4646 -0.7566
  606TIP3    H223454   3.890   4.733   0.479 -0.8473  0.8051 -2.3631
  607TIP3   OH223455   6.915   0.558   1.013  0.1808  0.0163  0.6642
  607TIP3    H123456   6.999   0.601   1.000  0.6514 -0.4020  2.0414
  607TIP3    H223457   6.923   0.516   1.099 -1.7176  0.6145  1.1845
  608TIP3   OH223458   2.144   3.591   1.015 -0.2734  0.0788 -0.4927
  608TIP3    H123459   2.196   3.670   0.999 -0.0979 -0.1599 -1.1122
  608TIP3    H223460   2.185   3.524   0.960  0.8271 -0.9681  1.4840
  609TIP3   OH223461   0.210   4.763   8.155  0.0148  0.3479 -0.0551
  609TIP3    H123462   0.193   4.716   8.237 -1.5710  1.2123  0.1430
  609TIP3    H223463   0.126   4.802   8.132  0.0818 -0.8617 -2.7525
  610TIP3   OH223464   1.298   5.065   1.618 -0.3949  0.3196 -0.3648
  610TIP3    H123465   1.377   5.116   1.633 -0.5628  0.3799  0.3495
  610TIP3    H223466   1.281   5.074   1.524  0.9153 -0.4015 -0.6850
  611TIP3   OH223467   0.425   3.853   7.640 -0.1355 -0.3104  0.2115
  611TIP3    H123468   0.436   3.849   7.545 -1.7564 -0.4140  0.0124
  611TIP3    H223469   0.363   3.784   7.661 -0.4311  0.2399  1.2525
  612TIP3   OH223470   2.212   5.547   0.524 -0.2583 -0.0226  0.2191
  612TIP3    H123471   2.272   5.537   0.597 -0.9595 -1.5326  0.6308
  612TIP3    H223472   2.243   5.485   0.458 -0.2952  0.5143 -0.3149
  613TIP3   OH223473   3.637   2.462   1.279 -0.0481  0.1547 -0.5396
  613TIP3    H123474   3.665   2.513   1.203  0.1831  1.3415  0.3170
  613TIP3    H223475   3.547   2.439   1.260 -0.5529  1.9017 -0.4602
  614TIP3   OH223476   6.163   5.838   7.465 -0.2726  0.0367  0.4292
  614TIP3    H123477   6.208   5.831   7.380 -0.1967 -0.5827  0.5169
  614TIP3    H223478   6.076   5.803   7.448  0.3584 -1.9404  1.0654
  615TIP3   OH223479   3.562   1.926   7.407 -0.3237  0.0548 -0.3165
  615TIP3    H123480   3.543   1.913   7.500 -2.3573 -0.0109 -0.7018
  615TIP3    H223481   3.628   1.996   7.406  0.7260 -0.8528  1.2052
  616TIP3   OH223482   0.620   1.376   1.960  0.0209 -0.6034  0.1974
  616TIP3    H123483   0.715   1.375   1.958  0.0183 -0.7076  0.1072
  616TIP3    H223484   0.594   1.393   1.869 -0.0568 -1.6686  0.0029
  617TIP3   OH223485   4.606   1.692   0.212  0.4007 -0.7728  0.3472
  617TIP3    H123486   4.604   1.651   0.126 -1.3478 -0.9554  0.4360
  617TIP3    H223487   4.562   1.776   0.200 -0.2142 -0.9658  1.1171
  618TIP3   OH223488   4.093   1.833   8.235  0.1339 -0.0170 -0.0827
  618TIP3    H123489   4.076   1.898   8.167 -0.4220  0.0420  0.1065
  618TIP3    H223490   4.006   1.802   8.261  0.3815 -0.6650 -0.0053
  619TIP3   OH223491   2.101   4.722   0.908 -0.3305 -0.1059 -0.1182
  619TIP3    H123492   2.025   4.779   0.914 -0.5094 -0.3904  0.3708
  619TIP3    H223493   2.074   4.651   0.850 -1.4955 -1.8116  2.3835
  620TIP3   OH223494   0.570   4.575   2.015 -0.2701 -0.1427  0.1148
  620TIP3    H123495   0.610   4.660   1.996  1.8913 -1.2049 -0.3366
  620TIP3    H223496   0.498   4.569   1.952  0.2317  0.8808 -0.6045
  621TIP3   OH223497   4.240   0.747   8.056 -0.1479  0.3236 -0.5322
  621TIP3    H123498   4.299   0.723   7.984  1.0251  1.3802  0.0275
  621TIP3    H223499   4.285   0.716   8.134  0.1158  1.9148 -0.0204
  622TIP3   OH223500   5.563   4.276   8.299  0.5866 -0.7255  0.1584
  622TIP3    H123501   5.591   4.350   8.352 -1.0068 -1.8514  2.7619
  622TIP3    H223502   5.486   4.309   8.252  1.2461 -0.0862 -0.4924
  623TIP3   OH223503   5.986   0.567   1.323 -0.1896  0.8240 -0.9402
  623TIP3    H123504   6.001   0.629   1.395 -1.2190 -2.3934  2.3063
  623TIP3    H223505   5.893   0.577   1.301 -0.7029 -0.4239  0.5448
  624TIP3   OH223506   3.932   0.713   1.120  0.4346  0.3880  0.1076
  624TIP3    H123507   4.000   0.778   1.104 -0.9120  1.8919  0.1869
  624TIP3    H223508   3.910   0.724   1.212  0.1643 -0.1680  0.1120
  625TIP3   OH223509   2.460   1.875   1.175  0.4398  0.0303 -0.1239
  625TIP3    H123510   2.440   1.782   1.161 -0.6924  0.2614 -0.0971
  625TIP3    H223511   2.544   1.875   1.221 -0.6625 -1.0674  2.0012
  626TIP3   OH223512   0.923   2.453   2.259 -0.2335  0.3183 -0.3789
  626TIP3    H123513   0.852   2.431   2.198 -0.7332  0.3555  0.1887
  626TIP3    H223514   0.891   2.529   2.307 -0.8517 -1.0935  1.5772
  627TIP3   OH223515   2.021   6.763   8.090  0.4052 -0.0391  0.1174
  627TIP3    H123516   2.087   6.828   8.114 -0.7159  0.9924  0.5332
  627TIP3    H223517   2.069   6.698   8.039  1.6903  0.7830  0.2221
  628TIP3   OH223518   2.667   0.040   0.647  0.6377 -0.3229 -0.0882
  628TIP3    H123519   2.615   0.069   0.572  0.9775 -0.2781 -0.3097
  628TIP3    H223520   2.683   0.120   0.697  1.1132 -0.2120 -0.4105
  629TIP3   OH223521   5.862   3.376   1.032  0.0107 -0.3059  0.2179
  629TIP3    H123522   5.781   3.335   1.064  0.2858  0.6391  2.3305
  629TIP3    H223523   5.894   3.317   0.965 -1.2462 -1.8959  0.9443
  630TIP3   OH223524   3.863   6.897   7.905  0.5059 -0.3356  0.7257
  630TIP3    H123525   3.861   6.802   7.896 -1.2913 -0.3114  0.4468
  630TIP3    H223526   3.836   6.914   7.996 -1.7170 -0.0896  0.0961
  631TIP3   OH223527   6.508   2.099   8.630 -0.0785  0.0469  0.3846
  631TIP3    H123528   6.554   2.123   8.711  0.2509 -0.0911  0.2417
  631TIP3    H223529   6.510   2.178   8.577  1.5626 -0.4472 -0.3473
  632TIP3   OH223530   1.391   5.648   1.886 -0.2758  0.2064 -0.1262
  632TIP3    H123531   1.386   5.574   1.826 -1.9841  0.9940 -1.0577
  632TIP3    H223532   1.480   5.646   1.921  0.9889  0.0145 -3.1082
  633TIP3   OH223533   0.475   3.626   8.242  0.2246  0.0860 -0.1284
  633TIP3    H123534   0.508   3.543   8.206 -0.6361 -1.1173  1.7035
  633TIP3    H223535   0.385   3.632   8.209 -0.0255 -0.2045  0.4827
  634TIP3   OH223536   1.974   0.505   6.985  0.0595  0.1623  0.0748
  634TIP3    H123537   1.940   0.509   6.895  0.2695 -1.8101 -0.1295
  634TIP3    H223538   1.905   0.460   7.034 -0.1727  1.4582  1.0027
  635TIP3   OH223539   2.992   1.100   8.120  1.0069 -0.0053  0.4449
  635TIP3    H123540   2.972   1.007   8.128 -0.7084  0.2442 -0.5565
  635TIP3    H223541   3.082   1.101   8.085  0.7021 -1.3143 -0.4766
  636TIP3   OH223542   2.873   1.124   0.910 -0.1705  0.2393  0.1343
  636TIP3    H123543   2.862   1.042   0.959  0.8215  0.2136  0.3288
  636TIP3    H223544   2.932   1.102   0.838  1.3142  1.0919  1.0326
  637TIP3   OH223545   2.695   3.273   0.148 -0.1764  0.4354 -0.5855
  637TIP3    H123546   2.735   3.355   0.118  0.4794  0.4826  0.3625
  637TIP3    H223547   2.690   3.219   0.070  0.4165  0.9802 -1.0140
  638TIP3   OH223548   0.907   1.561   1.060  0.2500 -0.2934  0.3102
  638TIP3    H123549   0.914   1.562   0.965 -1.2090 -1.3424  0.1622
  638TIP3    H223550   0.897   1.469   1.083  1.0685 -0.1060  1.5375
  639TIP3   OH223551   1.074   1.090   6.685  0.0080  0.2740 -0.7182
  639TIP3    H123552   1.048   1.077   6.776 -3.4670 -0.0543 -1.6230
  639TIP3    H223553   1.069   1.185   6.672  0.0723  0.2831 -0.6755
  640TIP3   OH223554   6.896   3.697   1.100 -0.0135  0.4018 -0.0389
  640TIP3    H123555   6.954   3.716   1.174  0.5894  1.0062 -0.6505
  640TIP3    H223556   6.888   3.602   1.099  1.0311  0.3038  0.0204
  641TIP3   OH223557   3.467   0.383   7.850  0.2050  0.2420 -0.2136
  641TIP3    H123558   3.558   0.368   7.825  0.3331 -0.3597  0.5933
  641TIP3    H223559   3.416   0.327   7.792  0.3064  0.9028 -0.9601
  642TIP3   OH223560   1.925   3.522   7.160  0.3821 -0.8783 -0.4537
  642TIP3    H123561   1.877   3.474   7.093 -0.8882  1.8612 -1.6894
  642TIP3    H223562   2.009   3.542   7.119 -0.3458  0.6855 -1.3075
  643TIP3   OH223563   4.168   1.579   1.346  0.2720 -0.1475 -0.1354
  643TIP3    H123564   4.160   1.665   1.387  0.5504  1.3867 -3.0450
  643TIP3    H223565   4.078   1.548   1.338  0.1196  0.1619  0.3445
  644TIP3   OH223566   6.214   1.185   8.567  0.1425  0.2249  0.0677
  644TIP3    H123567   6.286   1.242   8.542  0.6693 -0.2847  0.3866
  644TIP3    H223568   6.233   1.162   8.658 -0.6856  0.4741  0.3166
  645TIP3   OH223569   3.311   3.543   1.695  0.0253  0.4431 -0.4633
  645TIP3    H123570   3.357   3.562   1.613  0.5511  0.9443 -0.0546
  645TIP3    H223571   3.342   3.456   1.720 -0.4635  0.1036 -1.0150
  646TIP3   OH223572   6.884   5.118   1.156 -0.3193  0.2818 -0.1720
  646TIP3    H123573   6.879   5.213   1.146 -0.7737  0.4323  1.2809
  646TIP3    H223574   6.802   5.086   1.118  0.1971  0.3831 -1.4054
  647TIP3   OH223575   3.856   1.753   8.326 -0.0840  0.4115  0.7199
  647TIP3    H123576   3.841   1.799   8.409 -0.9930 -0.1961  0.8987
  647TIP3    H223577   3.787   1.787   8.268  0.8054  1.1515  0.0669
  648TIP3   OH223578   4.879   4.029   8.606 -0.0384  0.3236 -0.0911
  648TIP3    H123579   4.970   4.032   8.635 -0.4732  1.2260  1.2795
  648TIP3    H223580   4.884   3.996   8.516  1.8496  2.6553 -0.9411
  649TIP3   OH223581   6.126   0.537   1.070 -0.1126 -0.2524  0.0663
  649TIP3    H123582   6.140   0.446   1.045 -0.3386 -0.2062 -0.2316
  649TIP3    H223583   6.066   0.533   1.144 -0.8299 -0.3097 -0.4995
  650TIP3   OH223584   3.182   4.281   7.602  0.4978 -0.4785  0.0170
  650TIP3    H123585   3.112   4.282   7.537  0.1456  2.1073  0.3430
  650TIP3    H223586   3.205   4.189   7.611  0.2031 -0.9934 -3.3728
  651TIP3   OH223587   4.608   4.120   6.853 -0.3286 -0.3183  0.2270
  651TIP3    H123588   4.687   4.124   6.905 -0.5993 -1.5479  0.7526
  651TIP3    H223589   4.592   4.211   6.827  0.7988  0.0496  0.7706
  652TIP3   OH223590   3.394   0.909   1.682 -0.1060 -0.2798 -0.1630
  652TIP3    H123591   3.426   0.829   1.639 -0.0242 -1.0407  1.2458
  652TIP3    H223592   3.428   0.980   1.628  1.2573 -1.1533 -0.5147
  653TIP3   OH223593   0.636   5.419   0.662  1.0366  0.1073 -0.0688
  653TIP3    H123594   0.574   5.354   0.695  1.2240  0.0940  0.2661
  653TIP3    H223595   0.638   5.487   0.730  1.8300 -0.1788  0.2132
  654TIP3   OH223596   2.736   0.189   6.601  0.9030  0.4307 -0.2766
  654TIP3    H123597   2.752   0.276   6.564 -1.1717  0.4433 -1.2591
  654TIP3    H223598   2.642   0.174   6.588  0.4539 -0.4881  3.0743
  655TIP3   OH223599   4.127   0.378   6.966 -0.0282  0.2591 -0.0832
  655TIP3    H123600   4.197   0.330   6.923  0.9927  0.1191  1.6612
  655TIP3    H223601   4.080   0.421   6.894  1.0811 -0.6160 -1.3827
  656TIP3   OH223602   6.267   4.955   6.393  0.0211  0.3993  0.0798
  656TIP3    H123603   6.254   5.009   6.470 -1.0999  0.2087  0.0372
  656TIP3    H223604   6.345   4.991   6.351 -1.1560  2.5072 -0.3974
  657TIP3   OH223605   0.377   5.580   0.542 -0.3308 -0.4363  0.4684
  657TIP3    H123606   0.462   5.615   0.568  1.0445 -1.9025 -1.7896
  657TIP3    H223607   0.379   5.488   0.571 -0.8433 -0.6870 -0.2708
  658TIP3   OH223608   3.307   2.682   0.442 -0.5744  0.1284  0.2818
  658TIP3    H123609   3.293   2.769   0.478 -1.0263 -0.0600  0.5678
  658TIP3    H223610   3.248   2.676   0.367 -1.2558 -0.2683  0.8331
  659TIP3   OH223611   4.402   6.614   8.085  0.7536  0.2051  0.5265
  659TIP3    H123612   4.341   6.653   8.148 -1.0003 -1.7451  0.1295
  659TIP3    H223613   4.403   6.676   8.011  0.0257  0.7470  0.9551
  660TIP3   OH223614   1.422   4.629   8.036 -0.3752 -0.3652  0.3339
  660TIP3    H123615   1.473   4.682   7.975 -0.9783  0.3084  0.3907
  660TIP3    H223616   1.419   4.542   7.996  0.4257 -0.2950  0.1134
  661TIP3   OH223617   6.843   0.911   2.577 -0.2446  0.3730 -0.4984
  661TIP3    H123618   6.839   1.007   2.580 -0.7562  0.3337  0.8460
  661TIP3    H223619   6.936   0.891   2.569 -0.0853  0.9841 -0.2607
  662TIP3   OH223620   3.034   0.535   0.922 -0.5392  0.0329 -0.4815
  662TIP3    H123621   2.957   0.492   0.961 -0.6328  2.3502  2.1803
  662TIP3    H223622   3.068   0.591   0.992  0.8638  2.5819 -3.0392
  663TIP3   OH223623   0.140   4.085   6.802  0.3532 -0.0466 -0.0570
  663TIP3    H123624   0.054   4.057   6.769 -0.4108 -0.3664  2.0219
  663TIP3    H223625   0.140   4.057   6.894  2.7587 -0.1668 -0.0310
  664TIP3   OH223626   3.186   1.708   8.061  0.2825 -0.0917 -0.3568
  664TIP3    H123627   3.098   1.713   8.099  0.0906 -2.2130 -0.4061
  664TIP3    H223628   3.175   1.739   7.972  0.1418  2.1109  0.3696
  665TIP3   OH223629   4.432   1.574   8.370 -0.1088  0.3120  0.5983
  665TIP3    H123630   4.415   1.669   8.366  0.1967  0.5443  3.2003
  665TIP3    H223631   4.520   1.564   8.335 -0.2451  0.9573  0.0544
  666TIP3   OH223632   1.116   0.401   1.524 -0.4863  0.0457 -0.0375
  666TIP3    H123633   1.099   0.307   1.517 -0.8193  0.0294  0.8292
  666TIP3    H223634   1.074   0.427   1.606  0.0569  0.8451  0.0041
  667TIP3   OH223635   1.668   2.267   1.656  0.0200 -0.6110 -0.5865
  667TIP3    H123636   1.641   2.331   1.722 -2.5089 -0.7507 -1.3769
  667TIP3    H223637   1.610   2.192   1.671  3.2422 -3.0644  0.6590
  668TIP3   OH223638   6.529   6.525   6.846 -0.4013 -0.3152  0.6443
  668TIP3    H123639   6.476   6.493   6.774 -3.4500  2.7571  1.2524
  668TIP3    H223640   6.482   6.497   6.925  0.0553  0.6105  1.2655
  669TIP3   OH223641   6.767   2.036   0.606 -0.4842  0.1880 -0.3956
  669TIP3    H123642   6.766   2.122   0.562  1.3548  0.5490  0.1844
  669TIP3    H223643   6.857   2.027   0.638 -1.0250 -1.3567  0.7704
  670TIP3   OH223644   1.755   6.739   7.595  0.2143 -0.4356  0.1119
  670TIP3    H123645   1.757   6.781   7.681  0.1508 -1.3629  0.5801
  670TIP3    H223646   1.705   6.659   7.608  0.0012 -0.4714 -0.8495
  671TIP3   OH223647   3.200   1.154   0.001  0.2579 -0.1375 -0.0400
  671TIP3    H123648   3.152   1.094  -0.057 -0.1711  0.1128  0.0445
  671TIP3    H223649   3.138   1.226   0.015  0.7705  0.3242 -0.1457
  672TIP3   OH223650   3.911   2.515   1.068 -0.1691 -0.1572  0.0129
  672TIP3    H123651   3.840   2.578   1.070  2.0128  2.4886 -0.1104
  672TIP3    H223652   3.954   2.528   0.984  1.5035 -0.3853  0.7681
  673TIP3   OH223653   2.030   0.661   7.606  0.2981 -0.4935  0.3240
  673TIP3    H123654   2.125   0.676   7.612  0.3025 -0.4416  0.1016
  673TIP3    H223655   2.017   0.619   7.521  0.3838 -2.5096  1.2478
  674TIP3   OH223656   5.453   0.289   1.068  0.3557  0.3411  0.3842
  674TIP3    H123657   5.494   0.264   0.985  1.5102  0.7395  0.8116
  674TIP3    H223658   5.367   0.247   1.066  0.2703  0.5149 -1.1081
  675TIP3   OH223659   1.956   3.385   0.946  0.0787 -0.3969 -0.6910
  675TIP3    H123660   2.007   3.460   0.977  0.1690  1.6578 -5.1142
  675TIP3    H223661   2.020   3.314   0.940  0.5339 -0.2193  1.2692
  676TIP3   OH223662   4.110   0.087   7.469  0.2595  0.3622  0.2385
  676TIP3    H123663   4.094   0.075   7.563  1.0577  2.3024  0.6668
  676TIP3    H223664   4.077   0.006   7.429 -1.1993 -0.0273  2.0534
  677TIP3   OH223665   2.254   2.555   0.693 -0.2724  0.4782 -0.3194
  677TIP3    H123666   2.319   2.575   0.625 -1.9023  2.0260 -1.5225
  677TIP3    H223667   2.294   2.586   0.774  0.4859  1.4450 -1.0384
  678TIP3   OH223668   3.913   6.391   7.587 -0.2143 -0.5215  0.0970
  678TIP3    H123669   3.821   6.393   7.560  0.3736  1.5497 -2.1059
  678TIP3    H223670   3.911   6.354   7.675 -3.2500  0.1940  0.4622
  679TIP3   OH223671   2.460   4.309   7.882  0.2245 -0.4439  0.3248
  679TIP3    H123672   2.450   4.216   7.862 -0.5292 -0.0442 -1.2932
  679TIP3    H223673   2.547   4.332   7.849  0.4674 -0.5867  0.8486
  680TIP3   OH223674   3.665   1.489   8.483  0.4665  0.2540 -0.6544
  680TIP3    H123675   3.631   1.491   8.573  0.8021  2.1453 -0.5137
  680TIP3    H223676   3.759   1.503   8.493  0.3381  1.8172 -1.3229
  681TIP3   OH223677   6.071   1.339   1.422  0.2804 -0.0572  0.1339
  681TIP3    H123678   6.030   1.261   1.385 -0.4392 -0.6362  2.0488
  681TIP3    H223679   6.000   1.404   1.425  0.5847  0.3047 -0.3915
  682TIP3   OH223680   0.176   5.438   0.122  0.3280  0.0417  0.1429
  682TIP3    H123681   0.265   5.454   0.154  0.5755  0.4371 -0.7140
  682TIP3    H223682   0.155   5.516   0.071 -1.0971  0.6354  1.5499
  683TIP3   OH223683   5.805   5.116   0.272  0.7276 -0.5772  0.0465
  683TIP3    H123684   5.774   5.199   0.235 -0.0754 -0.5662  0.7088
  683TIP3    H223685   5.879   5.092   0.218 -0.5621 -0.6975 -1.7524
  684TIP3   OH223686   5.327   5.645   6.864  0.2889  0.2751 -0.3461
  684TIP3    H123687   5.315   5.600   6.780  0.5227 -1.5942  0.5817
  684TIP3    H223688   5.269   5.721   6.858 -1.8716 -1.3247 -1.1405
  685TIP3   OH223689   3.557   6.786   7.641 -0.5643  0.5297  0.5102
  685TIP3    H123690   3.527   6.758   7.554 -1.0540 -1.5175  1.2937
  685TIP3    H223691   3.642   6.826   7.625 -0.3683 -0.3604 -0.8630
  686TIP3   OH223692   6.363   1.478   6.652 -0.2448  0.1871  0.3734
  686TIP3    H123693   6.331   1.392   6.681 -2.1160  1.2241  1.5517
  686TIP3    H223694   6.458   1.468   6.651 -0.4350 -2.1730 -0.4510
  687TIP3   OH223695   4.077   6.501   0.736 -0.0896 -0.3539 -0.0422
  687TIP3    H123696   4.146   6.534   0.792 -0.3466  0.4147 -0.1743
  687TIP3    H223697   4.016   6.574   0.726 -1.9552 -1.5929  1.6636
  688TIP3   OH223698   1.354   2.910   0.214 -0.0629  0.4034 -0.4258
  688TIP3    H123699   1.324   2.922   0.124  0.7777  1.9398 -0.5397
  688TIP3    H223700   1.448   2.893   0.205  0.1712  1.2951  0.1644
  689TIP3   OH223701   5.118   1.869   0.760  0.0921 -0.4422  0.0063
  689TIP3    H123702   5.199   1.826   0.788 -0.0094  0.0303  1.0505
  689TIP3    H223703   5.141   1.908   0.675  0.7306 -0.9433 -0.0643
  690TIP3   OH223704   6.561   0.386   2.026  0.0561 -0.2279  0.1049
  690TIP3    H123705   6.603   0.396   1.940  0.8830  0.6570  0.5982
  690TIP3    H223706   6.480   0.437   2.019  0.0730 -0.2388 -0.1842
  691TIP3   OH223707   4.878   5.571   8.168  0.1803 -0.3893  0.1447
  691TIP3    H123708   4.946   5.503   8.166  1.5715  0.9717 -1.0468
  691TIP3    H223709   4.912   5.637   8.229 -2.0898 -1.5673  2.9324
  692TIP3   OH223710   6.254   4.527   7.199  0.5852 -0.3047  0.2337
  692TIP3    H123711   6.325   4.589   7.183  0.0114 -0.0666 -1.5844
  692TIP3    H223712   6.284   4.446   7.158 -0.8564  0.2647 -2.0787
  693TIP3   OH223713   2.270   1.653   8.625 -0.0343 -0.3871 -0.5316
  693TIP3    H123714   2.250   1.563   8.599 -0.1131  0.0612 -2.1560
  693TIP3    H223715   2.203   1.675   8.689 -0.3860 -1.2841 -0.5732
  694TIP3   OH223716   2.278   2.321   0.824  0.0128 -0.2382 -0.3046
  694TIP3    H123717   2.252   2.396   0.771 -1.8611 -0.0204  0.8308
  694TIP3    H223718   2.314   2.359   0.904  1.2907 -0.5824 -0.6788
  695TIP3   OH223719   5.138   4.378   5.994  0.3843 -0.1075  0.3067
  695TIP3    H123720   5.209   4.323   6.026  0.3740  0.0575  0.6175
  695TIP3    H223721   5.133   4.450   6.057  0.0252 -0.0528  0.2202
  696TIP3   OH223722   0.276   3.280   2.101 -0.0085  0.4226  0.2021
  696TIP3    H123723   0.300   3.299   2.192  1.6923  1.8144 -0.4859
  696TIP3    H223724   0.336   3.333   2.049 -2.0079  0.9087 -1.7377
  697TIP3   OH223725   0.801   4.237   0.312  0.2531  0.5624  0.4542
  697TIP3    H123726   0.825   4.269   0.399  0.1576 -0.1590  0.7533
  697TIP3    H223727   0.754   4.155   0.329 -0.5754  0.8794 -0.2294
  698TIP3   OH223728   3.791   0.790   8.202 -0.0887 -0.0148  0.1138
  698TIP3    H123729   3.872   0.744   8.176 -0.2896  1.0333 -2.7249
  698TIP3    H223730   3.813   0.883   8.194 -1.0094  0.3332  1.3642
  699TIP3   OH223731   4.699   2.946   7.172  0.0298  0.3582  0.2764
  699TIP3    H123732   4.713   3.032   7.132 -0.9564  0.1694 -0.5026
  699TIP3    H223733   4.766   2.941   7.241  0.9026  1.2331 -0.4718
  700TIP3   OH223734   2.014   3.547   0.361  0.3653  0.1018  0.0783
  700TIP3    H123735   2.002   3.582   0.273  0.5417  0.7651  0.3139
  700TIP3    H223736   2.098   3.501   0.358  0.7007  0.7073  0.0793
  701TIP3   OH223737   2.051   5.226   7.686 -0.6786 -0.4782  0.1472
  701TIP3    H123738   1.993   5.161   7.647 -0.6932 -0.3837  0.0118
  701TIP3    H223739   2.139   5.201   7.656 -0.7436 -0.1086 -0.3647
  702TIP3   OH223740   4.092   6.417   6.328 -0.1232  0.5462 -0.2799
  702TIP3    H123741   4.017   6.363   6.351  0.2669 -0.0379 -0.3519
  702TIP3    H223742   4.081   6.498   6.378 -0.6826  0.3765 -0.1303
  703TIP3   OH223743   5.691   4.265   1.369  0.0429 -0.0963 -1.4728
  703TIP3    H123744   5.633   4.212   1.313 -2.2076  0.9746 -0.2958
  703TIP3    H223745   5.640   4.280   1.448  2.5213 -0.2126  0.2524
  704TIP3   OH223746   5.183   5.191   0.585 -0.5472 -0.1180  0.0385
  704TIP3    H123747   5.140   5.271   0.615 -1.1305 -0.5820  0.4613
  704TIP3    H223748   5.233   5.161   0.661 -0.1905 -0.0622 -0.1741
  705TIP3   OH223749   1.723   3.784   0.995 -0.5924  0.6547 -0.0186
  705TIP3    H123750   1.686   3.808   0.910  0.1554 -2.1176 -1.2147
  705TIP3    H223751   1.803   3.837   1.002 -1.1241  1.5547 -0.6188
  706TIP3   OH223752   0.717   4.944   0.783  0.6662 -1.0191  0.1457
  706TIP3    H123753   0.695   4.890   0.707 -2.6893  2.0103 -1.2928
  706TIP3    H223754   0.778   5.009   0.749  1.4584 -1.3753  0.8471
  707TIP3   OH223755   2.230   2.915   6.691 -0.2093  0.1586 -0.2484
  707TIP3    H123756   2.166   2.985   6.681 -0.7081 -0.2539  0.0418
  707TIP3    H223757   2.313   2.960   6.707 -0.5720  0.6713  0.1977
  708TIP3   OH223758   5.450   1.206   0.953  0.2887  0.2414 -0.2692
  708TIP3    H123759   5.358   1.230   0.965 -0.1089 -1.1335 -0.4515
  708TIP3    H223760   5.456   1.181   0.861  0.4782 -1.1745  0.1159
  709TIP3   OH223761   5.188   1.149   0.813  0.2701 -0.2123  0.6447
  709TIP3    H123762   5.181   1.058   0.785 -2.5266 -0.1610  0.8979
  709TIP3    H223763   5.121   1.158   0.881 -2.5000  2.9494 -2.1467
  710TIP3   OH223764   2.381   6.510   0.105 -0.3629 -0.1113  0.7614
  710TIP3    H123765   2.403   6.599   0.075 -0.5823 -0.1778  0.3878
  710TIP3    H223766   2.464   6.463   0.102 -0.6983 -0.6796 -1.7561
  711TIP3   OH223767   6.058   6.803   1.775  0.9370 -0.1742  0.1795
  711TIP3    H123768   6.061   6.877   1.713 -1.2742 -0.0298  0.1504
  711TIP3    H223769   6.081   6.842   1.859  1.7968  0.1082 -0.1789
  712TIP3   OH223770   3.421   0.219   0.541  0.2005  0.1661 -0.0649
  712TIP3    H123771   3.466   0.303   0.538  0.0195  0.2814  0.4274
  712TIP3    H223772   3.372   0.216   0.458 -0.0921  0.7126  0.0828
  713TIP3   OH223773   1.507   0.441   2.607  0.4698  0.1128  0.0533
  713TIP3    H123774   1.565   0.514   2.585 -0.0616  0.2051 -1.1489
  713TIP3    H223775   1.546   0.365   2.564 -0.2144  0.1536 -0.6671
  714TIP3   OH223776   1.336   0.563   1.490 -0.3978  0.2241  0.1210
  714TIP3    H123777   1.340   0.623   1.565 -0.3937  1.3579 -0.7602
  714TIP3    H223778   1.244   0.537   1.486  0.1217 -2.5347  2.5097
  715TIP3   OH223779   5.545   0.240   8.039  0.5501 -0.0733 -0.1856
  715TIP3    H123780   5.621   0.191   8.008  0.2730 -0.0271 -0.9710
  715TIP3    H223781   5.472   0.178   8.033  0.1511  0.4834 -1.4259
  716TIP3   OH223782   1.281   3.018   1.913  0.1173  0.0213  0.1557
  716TIP3    H123783   1.247   2.992   1.998  1.6100  2.0247  1.4709
  716TIP3    H223784   1.376   3.020   1.925  0.4799 -0.9655 -2.0015
  717TIP3   OH223785   6.580   1.942   0.966 -0.2774 -0.6714  0.3997
  717TIP3    H123786   6.501   1.962   0.916  0.3688 -1.3677 -0.9545
  717TIP3    H223787   6.618   2.027   0.987 -0.5697 -0.3641 -0.3042
  718TIP3   OH223788   6.147   5.566   0.109  0.2084 -0.7716  0.6024
  718TIP3    H123789   6.094   5.597   0.182  1.4098 -0.1850  1.2563
  718TIP3    H223790   6.156   5.642   0.051  0.6339 -0.7547  0.6850
  719TIP3   OH223791   4.955   3.790   6.205  0.2729  0.2879 -0.5658
  719TIP3    H123792   4.893   3.777   6.134  0.6812  1.0791 -1.0741
  719TIP3    H223793   4.901   3.820   6.279 -0.0889 -0.1237 -0.6553
  720TIP3   OH223794   3.874   1.867   1.799 -0.0381 -0.4548 -0.6244
  720TIP3    H123795   3.957   1.831   1.831 -0.0295 -0.3840 -0.5685
  720TIP3    H223796   3.810   1.800   1.821 -0.0086 -0.4736 -0.5947
  721TIP3   OH223797   2.450   1.403   8.049 -0.4494  0.1308  0.0574
  721TIP3    H123798   2.517   1.378   8.112 -1.3056  0.0681  0.9676
  721TIP3    H223799   2.426   1.493   8.074  1.4809  1.4062 -2.1984
  722TIP3   OH223800   6.739   1.788   7.765  0.4400 -0.5443  0.2951
  722TIP3    H123801   6.684   1.718   7.801 -0.5294  0.3732  0.6638
  722TIP3    H223802   6.818   1.743   7.734 -1.4731 -2.3001 -2.5370
  723TIP3   OH223803   3.387   2.772   1.482  0.3004  0.0940  0.3707
  723TIP3    H123804   3.403   2.786   1.576  0.0128 -0.8787  0.5724
  723TIP3    H223805   3.462   2.812   1.439 -0.6972  2.7530  0.8667
  724TIP3   OH223806   3.366   1.305   7.467 -0.0216  0.2107 -0.2199
  724TIP3    H123807   3.461   1.318   7.462 -0.0627  0.8136  0.3185
  724TIP3    H223808   3.330   1.393   7.458 -0.4055  0.3549  2.0318
  725TIP3   OH223809   6.047   3.890   2.030  0.1253 -0.2260 -0.4046
  725TIP3    H123810   6.029   3.890   2.124 -0.0488  1.2988 -0.4159
  725TIP3    H223811   5.976   3.942   1.992  0.1739 -0.8537 -1.3991
  726TIP3   OH223812   3.869   0.784   1.656 -0.3832 -0.2212 -0.0764
  726TIP3    H123813   3.872   0.839   1.578  0.8308 -0.5662 -0.2966
  726TIP3    H223814   3.868   0.845   1.729  2.3370  0.1699 -0.2667
  727TIP3   OH223815   0.592   3.205   1.081  0.3448 -0.2113  0.0845
  727TIP3    H123816   0.638   3.143   1.024  1.7069  0.5871  0.2707
  727TIP3    H223817   0.650   3.215   1.157 -0.0079  1.0002  0.2199
  728TIP3   OH223818   1.127   3.912   0.175 -0.1214  0.2380 -0.1247
  728TIP3    H123819   1.036   3.903   0.202  0.4187  0.0115  1.7322
  728TIP3    H223820   1.175   3.924   0.256  1.8007 -1.9223 -0.8332
  729TIP3   OH223821   5.849   4.040   1.935  0.0974 -0.2574 -0.1348
  729TIP3    H123822   5.837   4.111   1.998 -1.1432 -0.1987 -0.4196
  729TIP3    H223823   5.815   4.075   1.853  0.6495 -0.7407 -0.5813
  730TIP3   OH223824   3.927   6.281   8.117  0.0425  0.2324  0.5052
  730TIP3    H123825   3.832   6.292   8.127  0.0562 -0.1379  1.0617
  730TIP3    H223826   3.962   6.370   8.124 -0.2852  0.3987  0.0579
  731TIP3   OH223827   1.936   4.242   8.422 -0.2656 -0.5631 -0.1754
  731TIP3    H123828   1.984   4.324   8.433 -0.5494 -0.4546  0.3290
  731TIP3    H223829   1.910   4.240   8.330 -1.4448  0.5934  0.1084
  732TIP3   OH223830   1.644   4.524   7.700  0.0393  0.2646 -0.2884
  732TIP3    H123831   1.639   4.430   7.719  0.8370  0.3928  0.6260
  732TIP3    H223832   1.639   4.528   7.604  0.1974 -0.7293 -0.3574
  733TIP3   OH223833   6.204   1.736   7.364  0.1139  0.2648  0.1993
  733TIP3    H123834   6.162   1.804   7.417 -0.2490  1.0357 -1.0533
  733TIP3    H223835   6.277   1.706   7.418 -0.7902  0.3679  1.5279
  734TIP3   OH223836   2.206   0.588   0.246 -0.2466  0.2167  0.2374
  734TIP3    H123837   2.297   0.607   0.269 -0.3214 -0.7648  1.4088
  734TIP3    H223838   2.210   0.504   0.200 -0.7547 -0.9653  2.2372
  735TIP3   OH223839   3.766   4.675   0.638 -0.4477  0.1638 -0.0230
  735TIP3    H123840   3.701   4.693   0.569 -1.7913 -0.1504  1.1029
  735TIP3    H223841   3.733   4.597   0.681  1.2362 -0.5795 -0.0177
  736TIP3   OH223842   1.433   2.171   0.089  0.5358 -0.1011 -0.6106
  736TIP3    H123843   1.478   2.208   0.165  2.0545 -1.7735 -0.6134
  736TIP3    H223844   1.401   2.247   0.040  1.5859  1.0923  0.4873
  737TIP3   OH223845   2.305   4.666   8.221 -0.0371 -0.4977 -0.0156
  737TIP3    H123846   2.365   4.613   8.168 -0.8555 -1.3974 -0.0673
  737TIP3    H223847   2.299   4.620   8.304  2.2185  1.5565  1.4159
  738TIP3   OH223848   2.860   1.883   1.124  0.3491  0.5129 -0.8034
  738TIP3    H123849   2.839   1.823   1.053 -0.6532 -0.1051 -0.0124
  738TIP3    H223850   2.883   1.965   1.080 -3.2382  1.1550 -1.8864
  739TIP3   OH223851   0.074   6.703   1.877  0.5704 -0.2827 -0.2609
  739TIP3    H123852   0.099   6.614   1.853  2.3746 -0.1331  0.8455
  739TIP3    H223853   0.091   6.708   1.971  0.3258  1.1697 -0.2738
  740TIP3   OH223854   5.266   1.874   1.145  0.0519 -0.6277  0.0416
  740TIP3    H123855   5.359   1.897   1.142  0.1250 -0.5267  1.8320
  740TIP3    H223856   5.221   1.950   1.107  0.6410 -0.1071  0.3643
  741TIP3   OH223857   5.408   4.900   6.565  0.3116  0.0694 -0.1973
  741TIP3    H123858   5.457   4.941   6.493  1.0221 -1.4550 -0.6405
  741TIP3    H223859   5.469   4.835   6.601 -0.4389  0.0348  1.0607
  742TIP3   OH223860   5.862   1.606   2.010  0.0185 -0.3097  0.2766
  742TIP3    H123861   5.766   1.606   2.018  0.0602 -1.8452  1.3122
  742TIP3    H223862   5.878   1.577   1.920 -0.4799  0.5193 -0.0907
  743TIP3   OH223863   2.919   3.513   6.876  0.0889  0.3947 -0.1248
  743TIP3    H123864   2.894   3.520   6.783  1.2996  0.8443 -0.4326
  743TIP3    H223865   2.869   3.438   6.908 -0.8178  0.6084 -0.9778
  744TIP3   OH223866   2.963   4.033   8.470  0.2081  0.2204  0.0584
  744TIP3    H123867   3.033   4.095   8.452  0.2117 -0.2822 -1.8212
  744TIP3    H223868   2.900   4.046   8.399 -0.7537 -0.5845  0.7249
  745TIP3   OH223869   0.982   1.206   7.151  0.1663  0.0644 -0.1593
  745TIP3    H123870   0.973   1.272   7.082  0.2294 -0.6805 -0.8901
  745TIP3    H223871   1.058   1.236   7.202  0.8078  0.0412 -1.0747
  746TIP3   OH223872   5.613   6.528   8.601  0.5175 -0.6855  0.3660
  746TIP3    H123873   5.559   6.461   8.644  1.0193 -1.0673  0.4167
  746TIP3    H223874   5.691   6.534   8.656  0.3668  0.1353  0.5045
  747TIP3   OH223875   3.509   4.931   1.585 -0.2645 -0.6613 -0.2357
  747TIP3    H123876   3.473   4.907   1.671  1.0388  0.6347  0.7180
  747TIP3    H223877   3.556   4.852   1.556 -0.5610 -1.0535  0.3273
  748TIP3   OH223878   5.569   4.559   7.839  0.1933  0.0412  0.4925
  748TIP3    H123879   5.628   4.541   7.912  0.5225  1.4716  0.6129
  748TIP3    H223880   5.542   4.473   7.808  0.4253 -0.6018  1.9877
  749TIP3   OH223881   3.687   4.443   0.120  0.7339  0.1036  0.0951
  749TIP3    H123882   3.648   4.529   0.133  0.2277 -0.2526  1.0634
  749TIP3    H223883   3.642   4.386   0.183 -0.4230 -1.3389 -1.9249
  750TIP3   OH223884   5.700   0.664   7.206  0.4358 -0.3019 -0.2605
  750TIP3    H123885   5.693   0.613   7.125  2.1090 -1.7050  0.4081
  750TIP3    H223886   5.790   0.698   7.205 -0.1366  1.2925  0.1085
  751TIP3   OH223887   1.800   1.055   2.199  0.2364 -0.4835 -0.0065
  751TIP3    H123888   1.879   1.076   2.149  0.2594  0.0326  0.2402
  751TIP3    H223889   1.822   0.973   2.244  0.2593 -0.8836 -0.7276
  752TIP3   OH223890   2.891   2.039   1.541 -0.2872 -0.0660  0.0659
  752TIP3    H123891   2.857   2.110   1.595 -1.6923 -0.3629 -0.3736
  752TIP3    H223892   2.854   1.960   1.580 -0.0721 -0.4136 -0.4243
  753TIP3   OH223893   5.465   3.107   6.323 -0.6722  0.2488  0.3353
  753TIP3    H123894   5.447   3.194   6.287 -2.7408  0.3602  1.5237
  753TIP3    H223895   5.425   3.108   6.409 -1.2319 -2.0856  0.1590
  754TIP3   OH223896   5.657   5.415   7.807 -0.0448  0.2409 -0.1366
  754TIP3    H123897   5.638   5.499   7.849  2.5906  1.2871 -0.8304
  754TIP3    H223898   5.574   5.388   7.767 -0.7132  3.1670 -0.9509
  755TIP3   OH223899   5.095   4.034   1.965 -0.2537 -0.5622 -0.2459
  755TIP3    H123900   5.096   4.128   1.979 -0.7173 -0.2465 -1.9991
  755TIP3    H223901   5.156   3.998   2.029  0.2270  0.9697  0.1781
  756TIP3   OH223902   1.790   4.408   0.461 -0.4992 -0.3562 -0.4811
  756TIP3    H123903   1.720   4.471   0.446  0.4675  1.3942  1.7341
  756TIP3    H223904   1.747   4.331   0.497 -1.3505  0.4685  0.2879
  757TIP3   OH223905   4.720   1.501   0.814  0.2170  0.1309  0.2732
  757TIP3    H123906   4.649   1.458   0.862 -0.0517  0.9663  0.6482
  757TIP3    H223907   4.729   1.451   0.733 -2.2422  1.2526 -0.7810
  758TIP3   OH223908   4.998   5.004   0.768 -0.2429 -0.1194  0.3054
  758TIP3    H123909   5.068   4.964   0.716 -0.3886 -0.4384  0.3511
  758TIP3    H223910   4.935   4.933   0.781 -0.9882  0.3818 -0.4708
  759TIP3   OH223911   6.853   2.897   7.141  0.7164 -0.7890  0.1335
  759TIP3    H123912   6.942   2.923   7.115  0.2161  2.7175  1.4467
  759TIP3    H223913   6.796   2.940   7.078 -0.1584 -1.6411  0.3127
  760TIP3   OH223914   2.223   0.855   7.994 -0.4641 -0.4336  0.1450
  760TIP3    H123915   2.305   0.899   7.969 -0.5413 -1.4784 -2.2310
  760TIP3    H223916   2.161   0.927   8.006  0.3659  0.2903  0.2156
  761TIP3   OH223917   5.614   1.751   2.874  0.0326  0.2405 -0.3537
  761TIP3    H123918   5.701   1.759   2.913 -0.3524  0.3209  0.5125
  761TIP3    H223919   5.628   1.767   2.781  1.4444 -2.7205 -0.7931
  762TIP3   OH223920   1.845   6.730   1.095 -0.2091  0.0215  0.4394
  762TIP3    H123921   1.776   6.730   1.029 -0.6870 -1.0387  0.9160
  762TIP3    H223922   1.878   6.640   1.094  0.9077  0.4147  0.4970
  763TIP3   OH223923   3.851   4.200   8.624  0.1555 -0.5988 -0.0274
  763TIP3    H123924   3.817   4.278   8.580  2.1976  0.1153 -0.4651
  763TIP3    H223925   3.779   4.137   8.621 -1.7243  1.4101  0.7672
  764TIP3   OH223926   1.389   5.694   8.592  0.0659 -0.8263  0.3261
  764TIP3    H123927   1.439   5.637   8.533  1.8540 -0.4734  1.4063
  764TIP3    H223928   1.334   5.747   8.534  2.2555  0.0090 -1.1428
  765TIP3   OH223929   3.669   5.527   1.532  0.1979  0.1085 -0.6564
  765TIP3    H123930   3.679   5.484   1.448  0.5501 -0.8265 -0.1491
  765TIP3    H223931   3.644   5.456   1.592  0.4401  0.6723  0.1215
  766TIP3   OH223932   5.099   2.872   7.712 -0.0363 -0.1048 -0.1386
  766TIP3    H123933   5.118   2.837   7.799 -1.5375  0.3450  0.4080
  766TIP3    H223934   5.089   2.794   7.657 -0.0799 -0.4301  0.3192
  767TIP3   OH223935   5.214   1.284   1.088 -0.3799 -0.0805 -0.7615
  767TIP3    H123936   5.285   1.268   1.150 -0.3430 -0.8018 -0.9798
  767TIP3    H223937   5.189   1.375   1.103 -1.5152 -0.6885  1.4876
  768TIP3   OH223938   2.935   5.935   0.629  0.7147 -0.1129  0.3964
  768TIP3    H123939   2.994   6.007   0.653 -0.7379  1.2748 -0.0013
  768TIP3    H223940   2.863   5.942   0.692 -0.7568  0.5152 -1.2790
  769TIP3   OH223941   1.381   1.303   6.776  0.2067 -0.5240  0.5917
  769TIP3    H123942   1.291   1.331   6.796  0.4616  1.0426 -0.2800
  769TIP3    H223943   1.371   1.219   6.733 -1.0493  0.4890 -1.2419
  770TIP3   OH223944   2.710   2.452   0.223 -0.0103  0.1211  0.4343
  770TIP3    H123945   2.788   2.397   0.218 -0.6014 -0.7365  0.4492
  770TIP3    H223946   2.673   2.434   0.309  0.8253  2.0153  1.2518
  771TIP3   OH223947   0.437   5.875   8.184 -0.3088 -1.1111 -0.0804
  771TIP3    H123948   0.392   5.953   8.152  0.5952 -0.9999 -1.1432
  771TIP3    H223949   0.495   5.907   8.253 -0.0954 -0.8718 -0.3696
  772TIP3   OH223950   0.926   6.586   0.611  0.2034 -0.4543  0.3475
  772TIP3    H123951   0.947   6.498   0.580  2.4779  0.0000  0.4100
  772TIP3    H223952   0.909   6.576   0.705 -0.7575 -0.9785  0.1250
  773TIP3   OH223953   5.709   3.366   6.327 -0.5427 -0.0886 -0.0537
  773TIP3    H123954   5.688   3.324   6.243 -2.7190 -3.9418  2.1043
  773TIP3    H223955   5.633   3.421   6.346 -1.9482 -2.2247  0.9493
  774TIP3   OH223956   0.468   1.185   8.298  0.1278 -0.0405 -0.1318
  774TIP3    H123957   0.394   1.166   8.356  0.0512  1.3320  0.2511
  774TIP3    H223958   0.485   1.278   8.310  1.0746 -0.0489 -1.2137
  775TIP3   OH223959   5.572   1.612   6.452 -0.2509 -0.4928  0.0753
  775TIP3    H123960   5.580   1.702   6.484  0.2939 -0.5410  0.0876
  775TIP3    H223961   5.647   1.567   6.491 -1.5519 -1.4182  1.6490
  776TIP3   OH223962   3.654   1.203   0.917  0.2767 -0.0326  0.3205
  776TIP3    H123963   3.619   1.225   0.831  0.5629 -2.5122 -0.4913
  776TIP3    H223964   3.585   1.229   0.979 -1.8702 -2.1912 -1.0118
  777TIP3   OH223965   1.115   4.147   0.530  0.4522 -0.0814 -0.2803
  777TIP3    H123966   1.172   4.157   0.607  2.0631 -0.4270 -1.3634
  777TIP3    H223967   1.026   4.153   0.565  1.1380  0.7091  1.4659
  778TIP3   OH223968   3.089   5.470   1.271 -0.2664  0.5587  0.2002
  778TIP3    H123969   3.117   5.546   1.321  0.0457  1.8833 -1.8451
  778TIP3    H223970   3.000   5.452   1.302  0.4198  0.3530  2.2113
  779TIP3   OH223971   2.522   4.970   6.444 -0.5476  0.1211 -0.3762
  779TIP3    H123972   2.588   4.948   6.379 -1.2212  0.2490 -1.1149
  779TIP3    H223973   2.506   5.063   6.433 -0.5904  0.1691  0.0505
  780TIP3   OH223974   2.153   6.900   6.543 -0.5382 -0.6342 -0.5891
  780TIP3    H123975   2.248   6.897   6.548 -0.4874 -0.6725 -1.4342
  780TIP3    H223976   2.124   6.815   6.576 -0.3210 -0.3095  0.4497
  781TIP3   OH223977   4.789   0.309   8.013 -0.1296 -0.0469  0.2975
  781TIP3    H123978   4.821   0.353   8.091  0.3637 -1.7546  1.1048
  781TIP3    H223979   4.700   0.342   8.001  0.7402  2.3088 -0.0800
  782TIP3   OH223980   4.714   3.802   0.046 -0.3944  0.5415 -0.3281
  782TIP3    H123981   4.794   3.750   0.053  0.0134  1.2325  0.2046
  782TIP3    H223982   4.744   3.889   0.022 -1.0001  0.7803 -0.2280
  783TIP3   OH223983   3.713   6.552   7.319 -0.4282  0.2237  0.2914
  783TIP3    H123984   3.644   6.618   7.321 -1.7840 -1.1582  0.6644
  783TIP3    H223985   3.687   6.487   7.384  0.5846 -0.9447 -0.4155
  784TIP3   OH223986   1.256   3.364   2.511 -0.0484  0.3501  0.0817
  784TIP3    H123987   1.289   3.454   2.506  0.1703  0.2903  0.3935
  784TIP3    H223988   1.303   3.317   2.442 -2.9893  1.3086 -2.8435
  785TIP3   OH223989   2.835   4.759   6.605 -0.1016 -0.7886  0.3910
  785TIP3    H123990   2.814   4.777   6.514  0.7843 -0.6495  0.2022
  785TIP3    H223991   2.836   4.664   6.612 -0.7436 -0.8013  0.4050
  786TIP3   OH223992   3.898   6.210   2.068 -0.5676 -0.2128 -0.0568
  786TIP3    H123993   3.950   6.130   2.076 -0.2227  0.0462  0.3272
  786TIP3    H223994   3.961   6.280   2.082 -1.2634  0.0897  1.8232
  787TIP3   OH223995   3.466   4.355   1.140  0.2540  0.5574 -0.2072
  787TIP3    H123996   3.526   4.339   1.213 -0.1519  0.9373  0.2142
  787TIP3    H223997   3.445   4.269   1.106 -2.3483  0.0220  2.3637
  788TIP3   OH223998   1.293   3.502   0.566  0.0204  0.4597 -0.6228
  788TIP3    H123999   1.224   3.437   0.557 -1.1989  1.6319 -0.1278
  788TIP3    H224000   1.348   3.469   0.637 -1.2647  0.5112  0.4445
  789TIP3   OH224001   3.330   3.574   7.812  0.7310  0.1771  0.1868
  789TIP3    H124002   3.410   3.619   7.788  1.0750 -0.6255 -0.2034
  789TIP3    H224003   3.359   3.491   7.850  0.0700 -0.7295 -1.2269
  790TIP3   OH224004   3.326   6.082   6.459  0.0055 -0.6136  0.1539
  790TIP3    H124005   3.416   6.109   6.480 -0.1065 -0.7456  0.8510
  790TIP3    H224006   3.292   6.049   6.542 -0.8504 -0.1092  0.0131
  791TIP3   OH224007   3.042   6.504   1.640  0.1994  0.5814 -0.3414
  791TIP3    H124008   3.055   6.563   1.714 -0.5216 -1.4644  1.5360
  791TIP3    H224009   3.125   6.456   1.634 -0.3818 -0.5753  0.4464
  792TIP3   OH224010   0.144   5.749   2.002 -0.2268  0.0591  0.0693
  792TIP3    H124011   0.106   5.785   1.921 -0.9553  0.1412  0.4411
  792TIP3    H224012   0.221   5.804   2.018 -0.6711  0.7183 -0.0044
  793TIP3   OH224013   6.855   6.087   6.505 -0.1979 -0.3748 -0.3737
  793TIP3    H124014   6.894   6.083   6.418 -1.7625 -2.4081 -1.0491
  793TIP3    H224015   6.861   5.997   6.538 -0.6532  0.1329  1.1747
  794TIP3   OH224016   2.646   2.463   1.166 -0.3729 -0.0600  0.0166
  794TIP3    H124017   2.623   2.379   1.127  3.4467 -1.6012  0.6661
  794TIP3    H224018   2.710   2.501   1.106 -0.6872  1.5556  0.6422
  795TIP3   OH224019   4.469   5.298   6.786  0.0285 -1.2567  0.3536
  795TIP3    H124020   4.524   5.372   6.762 -0.5303 -0.8818  0.1898
  795TIP3    H224021   4.469   5.297   6.882  2.0273 -2.5731  0.4000
  796TIP3   OH224022   2.548   0.838   0.200  0.9010 -0.2118  0.1369
  796TIP3    H124023   2.484   0.781   0.244 -1.4301  1.3953 -0.9844
  796TIP3    H224024   2.554   0.915   0.256  1.1714  0.0446 -0.2401
  797TIP3   OH224025   5.341   4.404   1.490  0.2150 -1.2596  0.4127
  797TIP3    H124026   5.365   4.382   1.401  1.0084 -0.4796  0.4244
  797TIP3    H224027   5.424   4.404   1.538  0.0293  0.0348  0.7672
  798TIP3   OH224028   3.501   5.408   7.784 -0.5249 -0.1790  0.0013
  798TIP3    H124029   3.440   5.413   7.710 -1.0652 -1.8241  0.3070
  798TIP3    H224030   3.477   5.484   7.839 -1.3429  0.0131 -0.5980
  799TIP3   OH224031   4.187   1.922   7.461 -0.3076  0.4710  0.0569
  799TIP3    H124032   4.094   1.931   7.439 -0.2139  1.2983 -0.0204
  799TIP3    H224033   4.196   1.831   7.491 -1.3206  0.6425  0.9304
  800TIP3   OH224034   4.018   0.379   7.234  0.0292 -0.3833  0.3461
  800TIP3    H124035   4.049   0.380   7.143 -1.1853  0.3911 -0.0915
  800TIP3    H224036   4.097   0.367   7.286  1.2420  2.1887 -0.6793
  801TIP3   OH224037   2.746   2.616   1.764  0.0115  0.4356 -0.0883
  801TIP3    H124038   2.814   2.671   1.802 -0.4309  1.2081 -0.3974
  801TIP3    H224039   2.688   2.594   1.837  0.4468 -0.0306  0.1281
  802TIP3   OH224040   2.402   6.082   0.478 -0.3330  0.3495  0.0589
  802TIP3    H124041   2.389   6.151   0.413 -0.0997  0.1275 -0.2265
  802TIP3    H224042   2.484   6.040   0.453  0.0914  0.6787  0.8833
  803TIP3   OH224043   1.985   5.799   1.302 -0.5281  0.6260 -0.0343
  803TIP3    H124044   1.907   5.778   1.251 -0.5622 -1.6897  0.8382
  803TIP3    H224045   2.006   5.889   1.279 -1.7361  0.3423 -2.5103
  804TIP3   OH224046   2.340   3.863   0.365 -0.1019 -0.3508  0.1751
  804TIP3    H124047   2.280   3.938   0.368  0.2572 -0.0475 -0.0073
  804TIP3    H224048   2.367   3.850   0.456 -1.9566 -1.7525  0.5652
  805TIP3   OH224049   2.197   0.816   6.753  0.4952 -0.6751  0.4305
  805TIP3    H124050   2.189   0.725   6.723  1.3142 -1.0024  1.1723
  805TIP3    H224051   2.276   0.849   6.711 -0.7546  0.2926 -1.2617
  806TIP3   OH224052   0.359   6.116   7.760 -0.1964 -0.2779  0.5164
  806TIP3    H124053   0.429   6.129   7.695 -0.3042 -0.2981  0.3961
  806TIP3    H224054   0.295   6.185   7.740 -0.1712 -0.2074  0.6797
  807TIP3   OH224055   3.912   2.526   7.396  0.1167  0.4854 -0.8500
  807TIP3    H124056   3.833   2.491   7.355  0.3568  0.3139 -1.1776
  807TIP3    H224057   3.982   2.468   7.366  0.2930  0.3208 -0.1506
  808TIP3   OH224058   6.799   1.963   2.329  0.2163  0.0070  0.3481
  808TIP3    H124059   6.796   1.871   2.304 -1.5502  0.2575 -0.5232
  808TIP3    H224060   6.711   1.983   2.361 -0.3521  2.0601 -2.1441
  809TIP3   OH224061   6.803   1.595   8.613 -0.5905  0.0340 -0.5439
  809TIP3    H124062   6.762   1.682   8.616  1.3864  1.1518 -2.5977
  809TIP3    H224063   6.755   1.548   8.544  0.5454  0.8130 -1.9119
  810TIP3   OH224064   5.909   3.242   0.773 -0.0542  0.3952  0.3373
  810TIP3    H124065   5.919   3.238   0.678  1.4001  0.4694  0.4705
  810TIP3    H224066   5.938   3.156   0.804 -0.4780  0.3871  0.7192
  811TIP3   OH224067   1.366   0.937   2.492  0.3975 -0.2870  0.4765
  811TIP3    H124068   1.412   0.855   2.473  0.6177  0.2965 -1.8686
  811TIP3    H224069   1.303   0.914   2.559 -0.6367 -2.8202 -1.1941
  812TIP3   OH224070   6.578   3.599   6.965  0.0508  0.0778 -0.0306
  812TIP3    H124071   6.488   3.593   6.997  0.7073 -2.0922  1.6905
  812TIP3    H224072   6.570   3.602   6.869 -1.8583 -2.4939 -0.0580
  813TIP3   OH224073   0.049   6.908   8.424  0.2333  0.3271  0.3653
  813TIP3    H124074   0.055   6.927   8.518  0.6263 -0.9576  0.6270
  813TIP3    H224075   0.140   6.910   8.394  0.1665  0.1373  0.1503
  814TIP3   OH224076   3.094   6.157   0.634 -0.4031 -0.3384 -0.2782
  814TIP3    H124077   3.189   6.149   0.640 -0.4492  0.1775  1.8030
  814TIP3    H224078   3.079   6.248   0.611 -0.3960 -0.9009 -2.7825
  815TIP3   OH224079   3.441   1.021   1.411 -0.5006 -0.5048 -0.3096
  815TIP3    H124080   3.505   1.090   1.397 -0.3914 -0.8994 -1.9642
  815TIP3    H224081   3.357   1.067   1.412 -0.4001 -0.2972 -0.9978
  816TIP3   OH224082   5.163   1.902   2.087  0.4719  0.2644  0.1781
  816TIP3    H124083   5.082   1.941   2.120  1.8066  2.3241  1.1540
  816TIP3    H224084   5.182   1.831   2.149 -0.5445 -0.2388 -0.0600
  817TIP3   OH224085   6.143   4.233   2.032  0.0434  0.7966  0.4707
  817TIP3    H124086   6.153   4.224   2.127  0.5861 -2.0721  0.2226
  817TIP3    H224087   6.055   4.269   2.020 -1.0144 -1.0849  2.0240
  818TIP3   OH224088   5.354   0.105   7.438 -0.0757 -0.0751  0.6340
  818TIP3    H124089   5.430   0.073   7.485 -0.3919 -1.3886  0.2788
  818TIP3    H224090   5.385   0.122   7.350  0.2497  1.2995  0.9909
  819TIP3   OH224091   3.386   1.568   6.421  0.5203  0.0180  0.3563
  819TIP3    H124092   3.473   1.598   6.444  1.9591 -2.5805 -1.1639
  819TIP3    H224093   3.391   1.472   6.431  0.0713 -1.0579 -5.9586
  820TIP3   OH224094   3.157   2.613   1.875  0.0889 -0.2160  0.2951
  820TIP3    H124095   3.217   2.632   1.947 -0.4700 -1.9299  1.2527
  820TIP3    H224096   3.072   2.603   1.917 -0.4052 -0.3665 -0.7294
  821TIP3   OH224097   5.098   2.478   2.889 -0.0189  0.3506 -0.2741
  821TIP3    H124098   5.130   2.473   2.798  0.6227  0.3988 -0.0612
  821TIP3    H224099   5.173   2.511   2.938 -1.1571  2.9310 -0.1314
  822TIP3   OH224100   4.189   2.386   0.835  0.6523  1.0846 -0.4464
  822TIP3    H124101   4.237   2.348   0.908 -1.0630 -0.0117  0.1740
  822TIP3    H224102   4.133   2.315   0.804  1.4719  1.4692 -2.9817
  823TIP3   OH224103   0.827   3.012   6.616 -0.3562  0.1645 -0.4412
  823TIP3    H124104   0.735   3.030   6.638 -0.1650  0.2062  0.3647
  823TIP3    H224105   0.859   2.959   6.690  1.1354  2.7610  0.9155
  824TIP3   OH224106   6.145   3.128   1.154 -0.1834  0.3444 -0.1665
  824TIP3    H124107   6.168   3.147   1.245 -0.6384 -0.5406  0.1524
  824TIP3    H224108   6.216   3.072   1.123 -1.1276 -1.2308  0.3808
  825TIP3   OH224109   4.243   6.447   1.747  0.1927  0.0950 -0.5796
  825TIP3    H124110   4.213   6.432   1.657  0.7600 -0.2029 -0.7231
  825TIP3    H224111   4.225   6.539   1.763  1.4742  0.5431 -1.5434
  826TIP3   OH224112   3.620   4.697   0.424 -0.5755  0.2262 -0.6361
  826TIP3    H124113   3.532   4.732   0.435 -1.0277 -1.1957  0.5409
  826TIP3    H224114   3.611   4.603   0.437  1.4222  0.2411  1.7658
  827TIP3   OH224115   4.427   1.025   7.748 -0.1174 -0.6321 -0.2141
  827TIP3    H124116   4.471   0.989   7.825  0.4751  0.5634  0.0341
  827TIP3    H224117   4.377   0.952   7.713 -0.1858 -1.2739  1.1478
  828TIP3   OH224118   3.181   2.412   7.768 -0.3995  0.7117  0.2435
  828TIP3    H124119   3.181   2.334   7.825 -2.5334  1.3500  1.2551
  828TIP3    H224120   3.165   2.377   7.680  0.6467 -0.1221  0.3650
  829TIP3   OH224121   0.983   6.584   0.145 -0.3689  0.1867 -0.1971
  829TIP3    H124122   1.078   6.583   0.132 -0.3808  0.5340 -0.3265
  829TIP3    H224123   0.960   6.493   0.159 -0.3474 -0.2448 -2.5293
  830TIP3   OH224124   2.308   0.865   7.097  0.2946 -0.1139  0.2037
  830TIP3    H124125   2.240   0.931   7.096  0.0247 -0.3808  0.7691
  830TIP3    H224126   2.276   0.796   7.038 -1.0438 -1.3315  2.2352
  831TIP3   OH224127   3.258   1.257   1.681 -0.4466  0.3167  0.2735
  831TIP3    H124128   3.220   1.339   1.714 -0.9485 -0.2718  1.2067
  831TIP3    H224129   3.233   1.191   1.746  2.7263 -0.0315  1.3354
  832TIP3   OH224130   6.041   6.462   7.169  0.6716 -0.0577  0.9274
  832TIP3    H124131   5.969   6.449   7.231 -1.0636  2.2847 -0.4243
  832TIP3    H224132   6.093   6.532   7.208  1.0739 -0.3696  0.9534
  833TIP3   OH224133   2.035   6.022   1.152 -0.5296 -0.1283  0.8017
  833TIP3    H124134   2.071   6.089   1.209  0.2876 -0.8915  1.2225
  833TIP3    H224135   1.952   6.058   1.121 -0.2306  0.9529  1.2142
  834TIP3   OH224136   6.492   6.102   7.603  0.4227 -0.2080 -0.2459
  834TIP3    H124137   6.496   6.112   7.698  1.6788 -1.7816 -0.1115
  834TIP3    H224138   6.400   6.118   7.582 -0.0761 -0.7840  1.3458
  835TIP3   OH224139   0.621   1.999   7.070  0.1695  0.4890 -0.5498
  835TIP3    H124140   0.701   2.052   7.073 -0.7744  1.8900  1.4324
  835TIP3    H224141   0.592   2.005   6.979  2.1829  0.1099 -1.2660
  836TIP3   OH224142   2.035   0.387   0.782  0.1911 -0.6092  0.2048
  836TIP3    H124143   2.012   0.477   0.806  0.8042 -0.5290  0.4976
  836TIP3    H224144   2.052   0.344   0.865  1.7100 -0.5007 -0.0197
  837TIP3   OH224145   0.191   1.128   8.422  0.1450 -0.2661 -0.0799
  837TIP3    H124146   0.177   1.037   8.445 -1.3180 -0.2775 -0.9184
  837TIP3    H224147   0.189   1.175   8.505  0.7923 -0.9766  0.3410
  838TIP3   OH224148   1.404   3.740   0.494 -0.3211 -0.1512  0.2514
  838TIP3    H124149   1.489   3.702   0.471 -1.4049 -1.5946 -1.5785
  838TIP3    H224150   1.356   3.668   0.533 -1.0907  0.3704  0.2795
  839TIP3   OH224151   1.302   5.370   0.342  0.3855  0.3880  0.0353
  839TIP3    H124152   1.268   5.446   0.293 -0.6734  0.1536  0.3895
  839TIP3    H224153   1.229   5.309   0.346  0.8107 -0.0800  0.9506
  840TIP3   OH224154   3.693   3.456   8.232  0.1485 -0.3267 -0.3790
  840TIP3    H124155   3.658   3.367   8.233 -0.9940  0.1166  1.1257
  840TIP3    H224156   3.768   3.453   8.291  1.3163 -0.7171 -1.8203
  841TIP3   OH224157   5.078   6.307   8.617 -0.3588 -0.0394 -0.2829
  841TIP3    H124158   5.118   6.285   8.701 -1.1662 -0.9581 -0.1196
  841TIP3    H224159   5.124   6.386   8.588 -0.1835  0.3777  1.0943
  842TIP3   OH224160   3.931   0.019   0.829 -0.3132 -0.0023  0.2539
  842TIP3    H124161   3.977  -0.026   0.758  1.2495  3.8822 -1.4808
  842TIP3    H224162   3.986   0.006   0.906  0.5603 -0.2596 -0.4074
  843TIP3   OH224163   0.843   5.208   8.069 -0.2215  0.7323  0.1791
  843TIP3    H124164   0.871   5.116   8.077  0.5604  0.9639  0.2234
  843TIP3    H224165   0.901   5.245   8.003 -0.5580  1.1872  0.1337
  844TIP3   OH224166   4.476   4.390   7.473  0.1944  0.1563 -0.4359
  844TIP3    H124167   4.458   4.312   7.525 -2.1842  0.6285 -0.4401
  844TIP3    H224168   4.505   4.357   7.388  1.7365 -0.6478  0.3642
  845TIP3   OH224169   0.101   6.732   1.602  0.0871  0.2433  0.2230
  845TIP3    H124170   0.116   6.643   1.635  0.9570 -0.4669 -1.9042
  845TIP3    H224171   0.176   6.782   1.633  0.2793 -0.1028  0.3284
  846TIP3   OH224172   5.843   5.655   7.129  0.2364  0.7367 -0.2195
  846TIP3    H124173   5.935   5.663   7.105 -0.0334 -0.0142 -1.6118
  846TIP3    H224174   5.842   5.590   7.199  0.6612 -0.2709 -1.1148
  847TIP3   OH224175   6.169   5.614   1.378  0.3683 -0.1316 -0.2418
  847TIP3    H124176   6.130   5.582   1.459  1.5890  0.4768  0.6343
  847TIP3    H224177   6.216   5.538   1.342  1.3422  0.0389  0.6133
  848TIP3   OH224178   0.410   4.043   8.337  0.4084  0.5138  0.1677
  848TIP3    H124179   0.397   4.110   8.403 -0.9255  0.6611 -0.2182
  848TIP3    H224180   0.506   4.033   8.331  0.6301  2.3120  0.2751
  849TIP3   OH224181   4.454   0.906   2.392  0.2611 -0.2452 -0.1015
  849TIP3    H124182   4.468   0.904   2.487  0.6252  1.6428 -0.0616
  849TIP3    H224183   4.483   0.993   2.366 -2.2278  0.2592 -1.5644
  850TIP3   OH224184   6.840   1.834   0.346  0.2420  0.0829 -0.3499
  850TIP3    H124185   6.800   1.749   0.328  1.1697  0.0825 -2.7909
  850TIP3    H224186   6.922   1.833   0.296  1.3057  1.6430  1.2167
  851TIP3   OH224187   5.000   0.166   7.132  0.1974  0.4257 -0.2892
  851TIP3    H124188   4.961   0.079   7.139  1.6320 -0.1336  1.8459
  851TIP3    H224189   4.925   0.226   7.138 -0.6610 -0.6384  0.1137
  852TIP3   OH224190   5.398   1.167   7.164  0.3504 -0.7133 -0.9670
  852TIP3    H124191   5.347   1.086   7.171 -1.1201  0.1515 -1.1546
  852TIP3    H224192   5.422   1.172   7.072  2.3138 -1.9675 -0.5947
  853TIP3   OH224193   3.044   0.497   2.501 -0.6596 -0.3706 -0.1679
  853TIP3    H124194   3.003   0.479   2.417 -2.3498  0.3719  0.4532
  853TIP3    H224195   2.971   0.505   2.562  0.2200  2.9589  0.6339
  854TIP3   OH224196   2.821   0.065   7.818  0.1278  0.0402 -0.2968
  854TIP3    H124197   2.863   0.115   7.747 -1.3031 -1.7830 -2.5841
  854TIP3    H224198   2.728   0.089   7.811  0.0702  0.5177  1.6422
  855TIP3   OH224199   5.723   5.899   7.082  0.7697  0.0786 -0.2834
  855TIP3    H124200   5.728   5.806   7.106 -2.1116  0.3589  1.9875
  855TIP3    H224201   5.697   5.943   7.163 -0.3946  2.5094 -1.8530
  856TIP3   OH224202   1.265   6.230   7.784 -0.6178 -0.4097  0.3248
  856TIP3    H124203   1.295   6.315   7.816 -0.5863  0.2423 -1.3635
  856TIP3    H224204   1.346   6.181   7.767 -0.5907 -0.1495 -0.3148
  857TIP3   OH224205   0.613   0.234   6.612  0.1085 -0.2915  0.5377
  857TIP3    H124206   0.698   0.216   6.651 -0.7507 -1.1821  2.1031
  857TIP3    H224207   0.561   0.273   6.683 -1.0823 -0.6906 -0.0815
  858TIP3   OH224208   6.483   1.756   0.691 -0.0113 -0.2680  0.0317
  858TIP3    H124209   6.506   1.725   0.779 -0.1855 -3.3277 -0.9029
  858TIP3    H224210   6.567   1.767   0.647  0.0300  0.2072  0.2183
  859TIP3   OH224211   2.307   1.250   2.623  0.3754  0.1750 -0.0146
  859TIP3    H124212   2.356   1.316   2.672  0.0934  0.8221 -0.5880
  859TIP3    H224213   2.244   1.300   2.571 -0.0406 -0.5663 -0.2406
  860TIP3   OH224214   2.361   4.569   1.630 -0.1792  0.8769 -0.2706
  860TIP3    H124215   2.373   4.489   1.579 -2.1677  0.3003  0.0890
  860TIP3    H224216   2.421   4.560   1.704  1.9798  1.2479 -1.8516
  861TIP3   OH224217   5.412   1.706   2.509 -0.2954  0.1259 -0.0898
  861TIP3    H124218   5.497   1.700   2.467  0.2342 -2.6048  1.1882
  861TIP3    H224219   5.415   1.644   2.581 -2.7286  1.3384  1.2187
  862TIP3   OH224220   6.331   0.451   7.247 -0.2547 -0.1817  0.3569
  862TIP3    H124221   6.376   0.489   7.172  1.1549 -2.8561 -0.2999
  862TIP3    H224222   6.384   0.477   7.322 -0.1534  0.3251  0.1166
  863TIP3   OH224223   0.869   0.334   2.054 -0.8235  0.1093 -0.2961
  863TIP3    H124224   0.948   0.341   2.107  0.2546 -1.9779 -1.4919
  863TIP3    H224225   0.847   0.424   2.031  1.5686  0.7213 -0.4380
  864TIP3   OH224226   6.112   4.860   1.575  0.0758 -0.1775 -0.3052
  864TIP3    H124227   6.020   4.839   1.563 -0.6915  2.3142  0.5759
  864TIP3    H224228   6.130   4.839   1.667  0.5723 -1.1283 -0.5995
  865TIP3   OH224229   1.094   4.684   1.440  0.6485 -0.3469 -0.1026
  865TIP3    H124230   1.086   4.713   1.531  0.8003 -1.4796  0.2807
  865TIP3    H224231   1.168   4.735   1.405 -0.8129  1.7813 -0.3087
  866TIP3   OH224232   4.026   1.613   6.441  0.0348 -0.5514  0.1364
  866TIP3    H124233   3.977   1.532   6.458  1.0966 -1.7891 -2.1168
  866TIP3    H224234   3.959   1.676   6.416 -0.5937 -1.9266 -1.9382
  867TIP3   OH224235   5.233   1.424   8.251  0.2040  0.1115  0.2331
  867TIP3    H124236   5.323   1.407   8.278  0.8398  1.0496 -1.1727
  867TIP3    H224237   5.241   1.491   8.183 -1.4274 -0.8492 -0.9643
  868TIP3   OH224238   2.159   6.756   1.461 -0.2022  0.8055  0.0954
  868TIP3    H124239   2.165   6.847   1.431  0.1977  0.7653  0.0504
  868TIP3    H224240   2.148   6.763   1.556  0.0559  0.8982  0.1206
  869TIP3   OH224241   1.216   4.793   7.403 -0.2206 -0.5405  0.2280
  869TIP3    H124242   1.142   4.847   7.430 -0.3795 -1.6240  2.1518
  869TIP3    H224243   1.189   4.754   7.320 -2.6049 -2.2305  1.6518
  870TIP3   OH224244   5.218   1.164   6.849 -0.2094  0.3549  1.0048
  870TIP3    H124245   5.176   1.238   6.806 -1.9055 -1.2044 -0.1646
  870TIP3    H224246   5.194   1.088   6.797  2.4918 -0.9396  1.4362
  871TIP3   OH224247   2.606   3.016   7.779  0.1498  0.2753 -0.4871
  871TIP3    H124248   2.627   2.935   7.733  2.5407 -0.5044  1.7368
  871TIP3    H224249   2.665   3.081   7.741  1.1984 -0.0603  0.5249
  872TIP3   OH224250   4.686   2.816   0.760  0.0544 -0.1403  0.0248
  872TIP3    H124251   4.620   2.878   0.792  0.7231  0.5275  0.1368
  872TIP3    H224252   4.710   2.851   0.674  0.2750 -0.3756 -0.0079
  873TIP3   OH224253   1.480   2.509   6.851 -0.4953 -0.2522  0.0906
  873TIP3    H124254   1.518   2.470   6.930 -0.2781 -2.7357 -1.1585
  873TIP3    H224255   1.500   2.603   6.859 -0.7954 -0.3619  3.1057
  874TIP3   OH224256   2.904   0.237   1.748 -0.3316 -0.1771 -0.1350
  874TIP3    H124257   2.850   0.205   1.676 -0.2967 -1.4846  0.3874
  874TIP3    H224258   2.872   0.189   1.825  0.4855  0.2440  0.4882
  875TIP3   OH224259   5.901   1.134   0.496 -0.1653 -0.3106 -0.1267
  875TIP3    H124260   5.857   1.215   0.469  1.2308 -0.2126 -2.4425
  875TIP3    H224261   5.978   1.165   0.545  0.6265 -0.1570 -1.4165
  876TIP3   OH224262   3.439   2.305   1.420  0.4588 -0.1679  0.7675
  876TIP3    H124263   3.357   2.352   1.412  2.4516  3.4588 -1.0079
  876TIP3    H224264   3.445   2.281   1.513 -1.6354  1.3439  1.3467
  877TIP3   OH224265   0.601   4.055   7.323 -0.0325 -0.0705  0.3807
  877TIP3    H124266   0.680   4.009   7.352  1.0766  1.6406  0.2160
  877TIP3    H224267   0.559   3.995   7.262  0.4415 -1.5376  1.4385
  878TIP3   OH224268   4.228   0.455   1.662  0.5229  0.2593 -0.1425
  878TIP3    H124269   4.133   0.454   1.658  0.4239  3.7943 -1.4384
  878TIP3    H224270   4.249   0.496   1.746  0.9128  0.3597 -0.2871
  879TIP3   OH224271   0.790   4.278   0.922 -0.5399  0.0205  0.3338
  879TIP3    H124272   0.801   4.184   0.937  0.1234  0.3973  2.6080
  879TIP3    H224273   0.764   4.313   1.008 -3.3088  1.5973 -1.0073
  880TIP3   OH224274   3.462   3.593   8.109 -0.2021  0.4894 -0.4664
  880TIP3    H124275   3.465   3.536   8.032 -2.1927 -0.8117  0.3318
  880TIP3    H224276   3.546   3.579   8.153  0.8056  0.9528 -2.1500
  881TIP3   OH224277   0.906   5.638   1.570 -0.1847  0.3546 -0.5351
  881TIP3    H124278   0.971   5.707   1.582  0.3978 -0.1927 -0.5087
  881TIP3    H224279   0.871   5.623   1.658  1.2945 -0.9322 -0.1260
  882TIP3   OH224280   0.565   2.862   1.104 -1.0318 -0.1957 -0.3049
  882TIP3    H124281   0.568   2.900   1.016  0.4723  0.1356 -0.1369
  882TIP3    H224282   0.510   2.784   1.095 -1.7958  0.4425 -1.2922
  883TIP3   OH224283   1.651   6.482   7.617 -0.5219  0.2032  0.3894
  883TIP3    H124284   1.573   6.447   7.576  1.8446 -2.6037 -2.2006
  883TIP3    H224285   1.667   6.425   7.692 -0.7080  0.5383  0.6900
  884TIP3   OH224286   3.676   5.970   1.205  0.3236 -0.2051  0.3379
  884TIP3    H124287   3.698   5.913   1.278  1.5495 -0.5825 -0.3047
  884TIP3    H224288   3.665   5.911   1.130 -2.2816  0.0306  0.4596
  885TIP3   OH224289   0.075   1.037   1.661  0.1433 -0.0402  0.0276
  885TIP3    H124290  -0.010   1.003   1.634  0.2103 -0.5127  0.3952
  885TIP3    H224291   0.118   1.064   1.580 -0.5341  0.6209 -0.1198
  886TIP3   OH224292   6.656   1.955   7.996  0.2263 -0.2678  0.3166
  886TIP3    H124293   6.690   2.044   7.989  0.4083 -0.1378  2.3246
  886TIP3    H224294   6.680   1.913   7.913 -0.4126  1.7128 -0.9134
  887TIP3   OH224295   5.581   3.463   1.224  0.0747  0.0022  0.2469
  887TIP3    H124296   5.578   3.555   1.247  0.2858  0.3819 -1.1679
  887TIP3    H224297   5.643   3.424   1.286  0.0236  0.8042  0.8105
  888TIP3   OH224298   1.702   4.930   6.745  0.1195 -0.1319 -0.0312
  888TIP3    H124299   1.651   4.859   6.704 -0.1331  1.0043 -1.8034
  888TIP3    H224300   1.782   4.887   6.775  1.0065 -0.8917 -3.0661
  889TIP3   OH224301   1.161   4.602   6.567 -0.0518 -0.3699 -0.1126
  889TIP3    H124302   1.212   4.623   6.489 -0.4724  0.9872 -0.0595
  889TIP3    H224303   1.083   4.658   6.560 -1.3271 -2.0538  0.0313
  890TIP3   OH224304   1.277   0.378   8.246  1.2145  0.5096 -0.2058
  890TIP3    H124305   1.268   0.291   8.206 -0.0959  0.6172 -0.2152
  890TIP3    H224306   1.327   0.429   8.183 -2.3852  1.2363 -2.7961
  891TIP3   OH224307   1.631   3.230   7.911  0.2869 -0.1599 -0.3395
  891TIP3    H124308   1.643   3.251   7.818  1.5012  1.7196  0.2015
  891TIP3    H224309   1.716   3.197   7.939  0.4317  0.8519  0.4672
  892TIP3   OH224310   5.407   5.996   2.663 -0.6151  0.6210  0.2760
  892TIP3    H124311   5.400   5.928   2.597  2.3092 -0.1068  0.6047
  892TIP3    H224312   5.432   6.075   2.615  0.5068  0.3380  0.3845
  893TIP3   OH224313   3.807   5.333   2.245  0.1872  0.0503  0.3280
  893TIP3    H124314   3.761   5.332   2.329  0.5769  1.2579  0.5841
  893TIP3    H224315   3.832   5.242   2.230 -1.1788 -0.4192  0.7848
  894TIP3   OH224316   5.136   5.763   7.821 -0.3580 -0.5328 -0.3994
  894TIP3    H124317   5.204   5.830   7.829 -0.7185 -0.2410  0.3354
  894TIP3    H224318   5.136   5.740   7.728 -1.0801  1.4036 -0.9175
  895TIP3   OH224319   3.592   1.308   1.974  0.2306 -0.3068 -0.3716
  895TIP3    H124320   3.656   1.373   1.948  1.3135 -0.5165  1.5483
  895TIP3    H224321   3.508   1.353   1.968  0.4155 -0.2037 -3.4793
  896TIP3   OH224322   4.109   4.349   1.413 -0.6319 -0.0294 -0.3729
  896TIP3    H124323   4.164   4.319   1.486 -2.7864 -0.1300  1.3076
  896TIP3    H224324   4.030   4.383   1.455 -1.4580  1.0400 -2.6356
  897TIP3   OH224325   4.296   3.466   0.449  0.1352  0.1253 -0.1250
  897TIP3    H124326   4.204   3.482   0.425  0.7697  1.9342 -1.6538
  897TIP3    H224327   4.302   3.490   0.541 -1.0549 -0.6889  0.1866
  898TIP3   OH224328   2.481   1.286   2.396  0.0271 -0.2408  0.0885
  898TIP3    H124329   2.443   1.220   2.454  0.8232  0.9502  2.0255
  898TIP3    H224330   2.404   1.331   2.358 -0.5001 -0.4860  0.8493
  899TIP3   OH224331   6.666   3.592   0.175  0.4587 -0.1635  0.2093
  899TIP3    H124332   6.638   3.667   0.123 -0.6764 -0.1721  0.7921
  899TIP3    H224333   6.753   3.570   0.140 -0.3990 -0.3970 -1.9607
  900TIP3   OH224334   4.705   0.633   8.583 -0.1130  0.2131  0.5683
  900TIP3    H124335   4.656   0.700   8.630  2.5312  2.6984  0.1308
  900TIP3    H224336   4.657   0.621   8.501 -2.3002 -0.8023  1.9160
  901TIP3   OH224337   4.348   4.813   6.315 -0.2649  0.1485 -0.0981
  901TIP3    H124338   4.424   4.843   6.365 -1.0434 -0.1199  1.2903
  901TIP3    H224339   4.301   4.754   6.374 -1.1617 -0.2929 -1.1924
  902TIP3   OH224340   3.499   5.386   1.740 -0.4712 -0.3686 -0.1203
  902TIP3    H124341   3.505   5.426   1.827  0.7598 -1.2127  0.2162
  902TIP3    H224342   3.406   5.384   1.721 -0.8289 -0.7210  1.4575
  903TIP3   OH224343   2.328   5.193   0.672 -0.2979 -0.7971  0.4116
  903TIP3    H124344   2.284   5.161   0.594 -0.9171 -2.2214  1.3108
  903TIP3    H224345   2.421   5.178   0.655 -0.3154  0.0794 -0.5437
  904TIP3   OH224346   0.207   5.375   8.013 -0.8008 -0.0068 -0.1370
  904TIP3    H124347   0.281   5.433   8.034  1.4930 -3.0504  0.8875
  904TIP3    H224348   0.140   5.398   8.077  0.8044  0.2115  1.5416
  905TIP3   OH224349   2.665   5.411   8.006 -0.3705  0.4667 -0.3386
  905TIP3    H124350   2.743   5.401   7.952 -0.4913  0.2902 -0.4821
  905TIP3    H224351   2.618   5.485   7.968  0.5080  1.6109  0.7009
  906TIP3   OH224352   1.716   3.081   7.008  0.3183  0.5314  0.2573
  906TIP3    H124353   1.624   3.110   7.010 -0.0714 -0.4943 -0.8967
  906TIP3    H224354   1.712   2.988   7.031  0.9497  0.2592 -0.6694
  907TIP3   OH224355   6.197   6.263   1.544  0.1859  0.1645 -0.5848
  907TIP3    H124356   6.124   6.325   1.542 -0.5484 -0.5913  0.9321
  907TIP3    H224357   6.192   6.223   1.631  0.9565 -1.6354 -1.3172
  908TIP3   OH224358   1.258   0.263   1.775  0.0680  0.1330 -0.0390
  908TIP3    H124359   1.235   0.324   1.705  0.0292 -0.6019 -0.6821
  908TIP3    H224360   1.237   0.310   1.856 -2.5601 -0.0287 -0.5388
  909TIP3   OH224361   4.346   1.028   0.893 -0.5527 -0.2381 -0.0733
  909TIP3    H124362   4.395   0.956   0.933 -3.7798 -2.5154  0.2408
  909TIP3    H224363   4.349   1.011   0.799  0.7987  0.7687 -0.2372
  910TIP3   OH224364   5.778   1.493   1.605 -0.7957 -0.5892  0.4291
  910TIP3    H124365   5.809   1.511   1.516 -0.6017 -1.6545  0.2688
  910TIP3    H224366   5.842   1.534   1.662 -0.2257 -0.9901  0.0831
  911TIP3   OH224367   3.675   0.813   8.607  0.2521 -0.2087 -0.3390
  911TIP3    H124368   3.651   0.878   8.541  1.0467  1.9387  1.3438
  911TIP3    H224369   3.607   0.820   8.674  0.9524 -0.2678  0.3972
  912TIP3   OH224370   1.764   6.027   1.305  0.6705  0.0328 -0.4135
  912TIP3    H124371   1.794   6.093   1.366 -0.3331  0.1269  0.0017
  912TIP3    H224372   1.780   5.943   1.349  1.1495  0.0357 -0.5784
  913TIP3   OH224373   1.027   2.993   7.443  0.6847  0.1010  0.7312
  913TIP3    H124374   1.053   2.901   7.446  1.6853  0.3957  1.7569
  913TIP3    H224375   1.097   3.036   7.393 -0.0033  0.2543 -0.1306
  914TIP3   OH224376   4.563   4.406   8.068 -0.2343  0.1814  0.2794
  914TIP3    H124377   4.480   4.429   8.027 -1.3702 -1.6353  1.4730
  914TIP3    H224378   4.548   4.418   8.162  0.6088 -0.9135  0.5701
  915TIP3   OH224379   2.294   1.718   1.715  0.5439 -0.1500  0.5241
  915TIP3    H124380   2.287   1.807   1.681 -2.3592 -0.0330  1.1008
  915TIP3    H224381   2.329   1.729   1.804 -1.7865  0.7406  1.4052
  916TIP3   OH224382   4.505   4.699   6.727  0.1015  0.0812 -0.6022
  916TIP3    H124383   4.524   4.613   6.688 -0.2446 -0.6597  0.7985
  916TIP3    H224384   4.469   4.750   6.655 -0.5133 -1.2336 -1.2720
  917TIP3   OH224385   1.848   1.433   0.628  0.2684  0.2478 -0.6039
  917TIP3    H124386   1.797   1.404   0.552  0.6679 -0.0503 -0.7599
  917TIP3    H224387   1.808   1.389   0.702  0.6053 -0.3767 -0.7863
  918TIP3   OH224388   1.284   4.934   7.863  0.1041  0.4582  0.0443
  918TIP3    H124389   1.229   4.864   7.897 -0.7690  0.9168 -0.3900
  918TIP3    H224390   1.300   4.911   7.772 -0.4344  0.9649 -0.1844
  919TIP3   OH224391   3.703   5.259   7.108  0.2851  0.3042 -0.2322
  919TIP3    H124392   3.673   5.171   7.133 -0.8075  0.5697 -0.5360
  919TIP3    H224393   3.756   5.288   7.182  0.1228 -0.3625  0.1555
  920TIP3   OH224394   6.066   2.526   8.025 -0.5478  1.1094 -0.3250
  920TIP3    H124395   6.146   2.503   7.978 -0.3383  0.1075  0.4774
  920TIP3    H224396   5.996   2.510   7.961 -0.1633  1.2706 -0.7939
  921TIP3   OH224397   6.083   2.799   1.924 -0.2068  0.5000 -0.1070
  921TIP3    H124398   6.173   2.768   1.918  0.1025  1.5582 -1.2676
  921TIP3    H224399   6.055   2.774   2.012  2.1214  2.5479  1.3201
  922TIP3   OH224400   6.822   0.962   0.015 -0.5163 -0.2473  0.1738
  922TIP3    H124401   6.812   1.056  -0.001  0.5827 -0.0834  0.3730
  922TIP3    H224402   6.800   0.951   0.107  0.0950 -0.0638  0.3434
  923TIP3   OH224403   4.091   0.508   2.058  0.6955 -0.1342 -0.1635
  923TIP3    H124404   4.117   0.445   2.125  2.2270  0.5131 -0.1110
  923TIP3    H224405   3.996   0.515   2.067  0.8953  0.3173  2.3152
  924TIP3   OH224406   2.875   4.130   0.485  0.1783  0.4931  0.0644
  924TIP3    H124407   2.938   4.136   0.413 -0.0417  3.0566  0.0073
  924TIP3    H224408   2.930   4.122   0.563  0.4394 -1.0792 -0.2419
  925TIP3   OH224409   1.400   4.423   2.186  0.3118 -0.0312  0.3405
  925TIP3    H124410   1.306   4.438   2.196 -0.1676 -2.0319 -0.7045
  925TIP3    H224411   1.422   4.361   2.255  0.3343 -1.4073 -0.8607
  926TIP3   OH224412   1.306   1.489   7.678 -0.1457 -0.1051  0.0484
  926TIP3    H124413   1.345   1.490   7.590  2.1417  4.2736  0.8034
  926TIP3    H224414   1.316   1.399   7.708  1.9518 -1.0437 -2.9893
  927TIP3   OH224415   1.714   3.333   1.854 -0.6359 -0.0590  0.1221
  927TIP3    H124416   1.663   3.413   1.870 -3.1472 -1.5374  0.1207
  927TIP3    H224417   1.725   3.294   1.940 -0.4190 -0.2838 -0.0058
  928TIP3   OH224418   0.296   3.536   0.835 -0.0612 -0.0541 -0.0229
  928TIP3    H124419   0.341   3.525   0.918  0.4082  0.8476 -0.1444
  928TIP3    H224420   0.319   3.625   0.807 -1.1201  0.0643 -0.5667
  929TIP3   OH224421   5.227   1.920   6.680 -0.2957 -0.6374  0.6231
  929TIP3    H124422   5.257   1.965   6.601 -0.9024 -1.7326 -0.2664
  929TIP3    H224423   5.259   1.974   6.752 -2.3943  2.1621 -0.3411
  930TIP3   OH224424   4.193   4.206   0.776 -0.7099  0.5792 -0.3619
  930TIP3    H124425   4.227   4.158   0.851 -1.1967  2.4075  1.0967
  930TIP3    H224426   4.207   4.147   0.702  0.3456 -1.0394  1.0434
  931TIP3   OH224427   4.032   0.220   6.712 -0.4629  0.5266  0.0898
  931TIP3    H124428   3.983   0.294   6.748 -1.3473 -0.0992  0.2092
  931TIP3    H224429   4.123   0.248   6.716 -0.7815  1.6182  0.1134
  932TIP3   OH224430   5.132   1.902   7.380 -0.3749 -0.1422  0.1340
  932TIP3    H124431   5.061   1.844   7.350 -1.6549  1.8411 -0.8735
  932TIP3    H224432   5.210   1.847   7.377 -1.6250 -1.9976 -0.1404
  933TIP3   OH224433   6.007   0.318   8.360 -0.1494 -0.1128  0.4182
  933TIP3    H124434   6.013   0.328   8.455 -1.2570 -0.4568  0.5389
  933TIP3    H224435   5.996   0.224   8.346 -1.0406  0.0440  0.0227
  934TIP3   OH224436   4.338   4.978   6.799  0.2576 -0.3666  0.2168
  934TIP3    H124437   4.283   4.902   6.780  0.1007  0.3292 -2.5552
  934TIP3    H224438   4.427   4.944   6.801  0.2762 -0.5281 -1.9643
  935TIP3   OH224439   1.353   0.792   0.550 -0.1211  0.2806 -0.2660
  935TIP3    H124440   1.422   0.726   0.540  1.0712  1.5927 -1.1997
  935TIP3    H224441   1.306   0.789   0.466 -0.9374 -0.3061  0.2049
  936TIP3   OH224442   5.424   4.410   8.120  0.1249 -0.0881 -0.0577
  936TIP3    H124443   5.394   4.341   8.061 -1.3728  1.1623 -0.8213
  936TIP3    H224444   5.437   4.486   8.064 -1.6133  1.2159  1.2267
  937TIP3   OH224445   6.412   5.669   8.312 -0.2086 -0.0451  0.0323
  937TIP3    H124446   6.473   5.598   8.290 -1.1591 -0.5915 -0.9187
  937TIP3    H224447   6.431   5.737   8.247  0.2092  0.2958  0.4997
  938TIP3   OH224448   2.228   3.659   0.580  0.4914 -0.2877  0.0569
  938TIP3    H124449   2.173   3.632   0.507 -0.3533 -0.2042  0.6413
  938TIP3    H224450   2.306   3.603   0.575 -0.2015 -1.2549 -0.0740
  939TIP3   OH224451   6.214   6.240   2.302 -0.0209 -0.0880 -0.0921
  939TIP3    H124452   6.297   6.204   2.271  0.1912 -0.3217  0.7305
  939TIP3    H224453   6.148   6.200   2.245  0.3781 -0.3520 -0.3730
  940TIP3   OH224454   4.791   3.207   0.250  0.1344  0.4171 -0.0059
  940TIP3    H124455   4.835   3.139   0.301 -1.4653 -0.7001 -0.0706
  940TIP3    H224456   4.858   3.236   0.187  1.4900  0.3894  1.3588
  941TIP3   OH224457   3.666   5.555   1.146 -0.4473  0.1906  0.3329
  941TIP3    H124458   3.667   5.465   1.116 -2.0066  0.3689 -0.3307
  941TIP3    H224459   3.589   5.561   1.202 -1.1965  1.4397 -0.7688
  942TIP3   OH224460   4.084   3.991   6.772  0.8073  0.0447  0.1520
  942TIP3    H124461   4.058   4.019   6.684  1.4460 -0.4093 -0.1924
  942TIP3    H224462   4.005   3.956   6.811  0.8974 -1.4294 -0.9159
  943TIP3   OH224463   4.643   4.880   8.576 -0.7479  0.0392  0.9691
  943TIP3    H124464   4.624   4.932   8.498  3.1335 -0.6868 -0.6676
  943TIP3    H224465   4.606   4.794   8.558 -0.1833 -0.0186  0.0319
  944TIP3   OH224466   2.240   3.802   7.708 -0.2869 -0.0151 -0.4843
  944TIP3    H124467   2.243   3.744   7.632 -0.4641 -0.2406 -0.3207
  944TIP3    H224468   2.258   3.744   7.783  2.5609  0.6053 -0.5517
  945TIP3   OH224469   5.336   4.002   2.215 -0.0060 -0.1300  0.2143
  945TIP3    H124470   5.350   4.002   2.309 -1.1968  0.1376  0.4176
  945TIP3    H224471   5.323   3.910   2.192  0.2937 -0.1954  0.3127
  946TIP3   OH224472   2.927   5.828   1.851 -0.3673  0.5823 -0.0604
  946TIP3    H124473   2.851   5.886   1.848 -0.3824  0.5273 -0.8145
  946TIP3    H224474   2.977   5.858   1.928  0.5788  2.8140 -1.4412
  947TIP3   OH224475   2.947   3.604   1.428  0.0818 -0.4083 -0.0829
  947TIP3    H124476   3.038   3.574   1.440  0.9774  1.7665 -1.0257
  947TIP3    H224477   2.895   3.541   1.479  2.0998 -1.6657  0.5632
  948TIP3   OH224478   3.211   4.549   0.758  0.3429  0.0064 -0.0431
  948TIP3    H124479   3.260   4.616   0.709  0.2963  0.2227  0.2063
  948TIP3    H224480   3.120   4.562   0.731  0.4809 -0.7780 -0.9608
  949TIP3   OH224481   2.538   4.907   1.080  0.2761 -0.1364  0.1621
  949TIP3    H124482   2.548   4.893   1.174 -1.7269 -1.7727  0.2158
  949TIP3    H224483   2.450   4.944   1.070  0.3933 -0.1399 -1.0783
  950TIP3   OH224484   5.445   4.937   8.060  0.2836 -0.0436 -0.1366
  950TIP3    H124485   5.408   5.023   8.041  0.3536  0.1421  0.5701
  950TIP3    H224486   5.371   4.885   8.090  0.6108  0.3998  1.5207
  951TIP3   OH224487   5.006   6.866   0.193  0.0379 -0.1577  0.0125
  951TIP3    H124488   5.034   6.834   0.278 -0.6545 -0.1071  0.2653
  951TIP3    H224489   5.066   6.938   0.174  0.2067 -0.1789  0.4524
  952TIP3   OH224490   5.109   5.243   1.982  0.0010  0.1106 -0.1277
  952TIP3    H124491   5.120   5.317   2.042 -0.6079  1.5396 -1.7162
  952TIP3    H224492   5.188   5.190   1.995  0.4593  1.0258  1.0192
  953TIP3   OH224493   0.065   0.012   8.035 -0.1785  0.2444 -0.4419
  953TIP3    H124494   0.144  -0.001   7.983  0.2886  1.7743 -0.1611
  953TIP3    H224495   0.075   0.099   8.073 -1.7838  0.2739 -0.0111
  954TIP3   OH224496   6.332   3.887   1.614  0.2094  0.6072  0.0069
  954TIP3    H124497   6.244   3.894   1.653  0.4732 -0.3543  0.8377
  954TIP3    H224498   6.369   3.975   1.622  0.1548  0.5177  1.7753
  955TIP3   OH224499   5.518   4.684   0.760 -0.4593  0.3125  0.3099
  955TIP3    H124500   5.438   4.728   0.788 -0.7214 -0.3345  0.5942
  955TIP3    H224501   5.492   4.636   0.681  0.2481  2.0445 -1.0524
  956TIP3   OH224502   6.598   5.684   0.369  0.3729 -0.2026 -0.2074
  956TIP3    H124503   6.528   5.714   0.312 -0.6797 -1.2098  0.5107
  956TIP3    H224504   6.575   5.593   0.390  0.9737 -0.0115  1.4352
  957TIP3   OH224505   1.867   6.241   2.470  0.3511  0.1567 -0.4616
  957TIP3    H124506   1.810   6.259   2.545  1.7278 -0.9371  0.9117
  957TIP3    H224507   1.908   6.325   2.450  1.6208  0.0483  1.4728
  958TIP3   OH224508   0.067   2.287   1.106  0.5382 -0.3861  0.0053
  958TIP3    H124509   0.063   2.337   1.025 -3.3703 -0.9346 -0.3375
  958TIP3    H224510   0.069   2.196   1.078  2.0022 -0.5752  0.6120
  959TIP3   OH224511   5.425   0.513   8.098  0.0516 -0.1721  0.2332
  959TIP3    H124512   5.434   0.524   8.193  0.5291 -0.2824  0.2020
  959TIP3    H224513   5.435   0.419   8.084  0.5163 -0.0947  0.0183
  960TIP3   OH224514   6.892   5.386   7.433 -0.3150  0.7301  0.3594
  960TIP3    H124515   6.797   5.376   7.437 -0.5761  1.0567 -2.6937
  960TIP3    H224516   6.907   5.480   7.443 -0.1738  0.5999  1.6580
  961TIP3   OH224517   6.368   5.821   1.386  0.2294 -0.3309 -0.2484
  961TIP3    H124518   6.440   5.766   1.354  0.8097 -0.3201  0.9896
  961TIP3    H224519   6.308   5.760   1.428  1.1252 -0.0025  1.5832
  962TIP3   OH224520   5.788   5.102   8.080 -0.3882  0.3663  0.0043
  962TIP3    H124521   5.873   5.079   8.117  0.6642  2.6375 -0.8264
  962TIP3    H224522   5.750   5.018   8.054  2.2738 -0.6488 -1.0066
  963TIP3   OH224523   6.361   0.420   6.590 -0.4145 -0.1203 -0.2946
  963TIP3    H124524   6.437   0.369   6.562 -0.1947 -1.2733  2.1515
  963TIP3    H224525   6.286   0.376   6.550 -0.0146 -0.8504 -0.2553
  964TIP3   OH224526   6.808   4.256   6.874 -0.0392 -0.1385 -0.2777
  964TIP3    H124527   6.740   4.281   6.937  0.6353  0.8383  0.0842
  964TIP3    H224528   6.768   4.186   6.823 -1.4515  0.6297 -0.2921
  965TIP3   OH224529   4.754   5.305   1.452  0.3419 -0.0015  0.2748
  965TIP3    H124530   4.834   5.305   1.400  0.7350  0.1364  0.8752
  965TIP3    H224531   4.685   5.328   1.389  0.7193 -0.4508 -0.3136
  966TIP3   OH224532   4.483   6.298   1.739  0.0564 -0.1492 -0.0947
  966TIP3    H124533   4.521   6.381   1.710 -0.3156  0.2312  0.4791
  966TIP3    H224534   4.407   6.323   1.792 -1.0775 -0.8829 -1.2872
  967TIP3   OH224535   6.434   0.422   2.353  0.2419  0.0086  0.3982
  967TIP3    H124536   6.410   0.467   2.272 -0.2287 -0.7680  0.0900
  967TIP3    H224537   6.353   0.415   2.402  0.2662 -0.6291  0.3642
  968TIP3   OH224538   2.762   3.244   8.040  0.0674 -0.6340 -0.2639
  968TIP3    H124539   2.668   3.262   8.035 -0.1387 -1.6767 -0.3949
  968TIP3    H224540   2.774   3.201   8.125  0.3148 -1.0657 -0.5075
  969TIP3   OH224541   3.761   0.932   2.127  0.0398  0.5108  0.1108
  969TIP3    H124542   3.844   0.939   2.175  0.8734 -1.0653 -1.0137
  969TIP3    H224543   3.697   0.975   2.184  1.0549 -0.8917  2.4565
  970TIP3   OH224544   0.767   5.633   1.820 -0.0105 -0.1481 -0.3613
  970TIP3    H124545   0.682   5.589   1.821 -0.3261  0.3651 -2.0510
  970TIP3    H224546   0.746   5.725   1.834  0.4651 -0.2347  1.0831
  971TIP3   OH224547   1.447   1.819   1.599  0.2280  0.7803  0.7139
  971TIP3    H124548   1.439   1.734   1.556 -0.0090  1.2934 -0.2950
  971TIP3    H224549   1.405   1.808   1.684 -1.7591  0.4750 -0.2538
  972TIP3   OH224550   2.576   6.728   0.269 -0.2966 -0.5774  0.1737
  972TIP3    H124551   2.607   6.809   0.308 -0.1494  0.3369 -1.7587
  972TIP3    H224552   2.641   6.662   0.296  0.6503  0.3297  0.1539
  973TIP3   OH224553   6.782   3.763   8.032  0.4478  0.0153  0.0552
  973TIP3    H124554   6.852   3.747   8.095  0.7289 -1.8787 -0.6725
  973TIP3    H224555   6.716   3.696   8.051  0.2417 -0.1747 -1.2045
  974TIP3   OH224556   2.966   4.981   6.877  0.2777  0.0245  0.0825
  974TIP3    H124557   2.911   5.025   6.812  0.3440 -0.4855 -0.3247
  974TIP3    H224558   2.910   4.916   6.918  0.7828 -1.0860 -0.9335
  975TIP3   OH224559   3.496   6.611   0.559 -0.1691 -0.3910  0.2583
  975TIP3    H124560   3.588   6.604   0.583 -0.2355  0.6251  0.8422
  975TIP3    H224561   3.495   6.664   0.480 -0.3025  0.1553  0.6254
  976TIP3   OH224562   3.485   1.944   6.549 -0.0225  0.2384  0.0028
  976TIP3    H124563   3.440   1.940   6.633  0.1416  2.0633  0.2125
  976TIP3    H224564   3.544   1.869   6.549  1.5976  1.3907  2.4752
  977TIP3   OH224565   0.284   0.386   6.306  0.2927  0.8839 -0.0406
  977TIP3    H124566   0.367   0.341   6.292 -0.1710 -0.1873  0.5137
  977TIP3    H224567   0.218   0.317   6.302 -0.2206  0.9898  3.4083
  978TIP3   OH224568   4.580   0.369   6.958 -0.8025 -0.2705  0.3999
  978TIP3    H124569   4.534   0.432   6.903 -0.0260  0.6300  0.7505
  978TIP3    H224570   4.558   0.284   6.921 -0.8145  0.2808 -0.8986
  979TIP3   OH224571   2.015   0.842   1.654  0.1041 -0.2074 -0.0984
  979TIP3    H124572   2.047   0.808   1.738  0.0511 -0.6106 -0.2371
  979TIP3    H224573   2.089   0.830   1.594  0.5390  1.1105  0.1399
  980TIP3   OH224574   3.283   2.431   8.422 -0.4368  0.1207  0.3098
  980TIP3    H124575   3.378   2.442   8.419 -0.4557  0.0639 -1.8761
  980TIP3    H224576   3.252   2.511   8.464  0.4956  0.9016 -0.4322
  981TIP3   OH224577   1.658   1.098   8.474 -0.2979 -0.2770 -0.5662
  981TIP3    H124578   1.565   1.089   8.495 -0.1740 -0.4857 -0.0935
  981TIP3    H224579   1.699   1.020   8.511 -0.0522 -0.6182 -1.5184
  982TIP3   OH224580   5.203   4.187   2.571  0.2328  0.1203 -0.5306
  982TIP3    H124581   5.256   4.122   2.526  0.4799  0.6192 -0.9672
  982TIP3    H224582   5.136   4.212   2.507  0.2317  0.4037 -0.4216
  983TIP3   OH224583   5.218   0.049   1.361  0.4506  0.5522 -0.5034
  983TIP3    H124584   5.205   0.043   1.267  1.1832  0.2885 -0.5897
  983TIP3    H224585   5.247   0.139   1.376 -1.4400  1.1859 -0.2959
  984TIP3   OH224586   0.164   2.691   7.514 -0.4998 -0.1711  0.1561
  984TIP3    H124587   0.253   2.665   7.537 -1.3471 -1.3653  2.4292
  984TIP3    H224588   0.151   2.776   7.556 -0.9461 -0.7910  1.3234
  985TIP3   OH224589   5.048   2.919   8.621 -0.5635  0.1084 -0.1063
  985TIP3    H124590   5.060   2.825   8.609 -1.8046 -0.3991  2.1804
  985TIP3    H224591   5.109   2.942   8.691 -0.0790  1.0883 -0.8261
  986TIP3   OH224592   4.441   2.292   0.058 -0.7020 -0.1693  0.1409
  986TIP3    H124593   4.488   2.357   0.111 -1.5603  0.4133  0.2086
  986TIP3    H224594   4.407   2.342  -0.016  0.1248 -0.9004 -0.7567
  987TIP3   OH224595   1.172   2.148   1.201 -0.2627 -0.4218 -0.2533
  987TIP3    H124596   1.138   2.067   1.162  0.2405 -0.2499 -1.0992
  987TIP3    H224597   1.228   2.185   1.132 -2.3628  1.9033 -0.8390
  988TIP3   OH224598   1.000   3.734   1.497 -0.5904  0.1767 -0.1449
  988TIP3    H124599   1.014   3.757   1.589 -0.9795  1.1354 -0.3127
  988TIP3    H224600   1.082   3.695   1.469 -0.0468  0.9778  0.2878
  989TIP3   OH224601   4.960   4.483   1.832 -0.4258 -0.2799 -0.4740
  989TIP3    H124602   4.893   4.535   1.788 -0.5773  1.1475  1.3279
  989TIP3    H224603   5.029   4.472   1.766 -2.8165 -2.8733 -2.8278
  990TIP3   OH224604   3.505   4.630   7.041  0.2781 -0.1324  0.4769
  990TIP3    H124605   3.599   4.643   7.050 -0.0703  1.7293  2.0678
  990TIP3    H224606   3.472   4.628   7.131 -1.3404  0.5183 -0.0608
  991TIP3   OH224607   1.420   2.883   7.243  0.1851  0.1840  0.2036
  991TIP3    H124608   1.408   2.882   7.148 -0.3967 -0.4320  0.2808
  991TIP3    H224609   1.500   2.833   7.257  0.0291 -0.1001  0.0758
  992TIP3   OH224610   0.371   6.649   7.713 -0.0172  0.0925  0.2621
  992TIP3    H124611   0.298   6.612   7.663 -1.5980  2.4469  0.6923
  992TIP3    H224612   0.332   6.676   7.796  1.7271 -0.1006  1.1890
  993TIP3   OH224613   5.595   3.412   2.109  0.0541  0.0551  0.3793
  993TIP3    H124614   5.673   3.407   2.053  0.5219 -1.9564  1.1300
  993TIP3    H224615   5.569   3.321   2.123 -2.4677  0.6735  0.1593
  994TIP3   OH224616   0.064   5.200   0.003  0.1996  0.2133 -0.0225
  994TIP3    H124617   0.080   5.275   0.062  0.1101 -0.1360  0.4491
  994TIP3    H224618   0.151   5.175  -0.028  0.2931  0.0930  0.3386
  995TIP3   OH224619   2.497   0.089   1.373 -0.4573  0.2321  0.3196
  995TIP3    H124620   2.480   0.171   1.420 -0.1196 -0.2238  1.2589
  995TIP3    H224621   2.592   0.088   1.360 -0.5521  0.3762 -0.4310
  996TIP3   OH224622   2.186   6.528   1.805 -0.1707 -0.6627 -0.1629
  996TIP3    H124623   2.119   6.548   1.870  0.6518 -0.6813  0.7144
  996TIP3    H224624   2.267   6.523   1.855  0.6161  0.1119 -1.3168
  997TIP3   OH224625   5.088   4.315   2.005  0.3821  0.8363 -0.2268
  997TIP3    H124626   5.173   4.344   2.037  0.5957  0.4202 -0.4087
  997TIP3    H224627   5.053   4.391   1.958  0.3908  1.2000  0.3422
  998TIP3   OH224628   5.306   3.920   0.803 -0.2262  0.3453 -0.4251
  998TIP3    H124629   5.239   3.875   0.751  2.0091 -0.5439 -2.8018
  998TIP3    H224630   5.383   3.863   0.796  0.8318  1.3250  2.1457
  999TIP3   OH224631   6.872   6.447   7.944  0.6036  0.0006  0.2995
  999TIP3    H124632   6.796   6.402   7.908  1.0261 -0.7841  0.3722
  999TIP3    H224633   6.837   6.530   7.976 -0.1690 -0.2270  0.0749
 1000TIP3   OH224634   2.135   0.560   6.681  0.1452 -0.0539 -0.1386
 1000TIP3    H124635   2.042   0.555   6.705  0.0726 -0.6487 -0.5276
 1000TIP3    H224636   2.145   0.496   6.611  0.6659  0.6265 -0.7027
 1001TIP3   OH224637   4.221   5.453   8.254  0.2450  0.1047  0.3552
 1001TIP3    H124638   4.283   5.526   8.254  0.5920 -0.1814  0.7263
 1001TIP3    H224639   4.175   5.460   8.170 -0.6261  1.4984  0.9212
 1002TIP3   OH224640   4.324   2.209   6.574  0.1580 -0.7055  0.0951
 1002TIP3    H124641   4.380   2.232   6.649  0.6964 -0.7067 -0.2998
 1002TIP3    H224642   4.244   2.176   6.613 -0.5048  1.4716  0.7084
 1003TIP3   OH224643   0.478   2.897   7.418 -0.0914  0.3234 -0.4302
 1003TIP3    H124644   0.470   2.964   7.350  2.3831  0.8164 -0.3411
 1003TIP3    H224645   0.522   2.941   7.490  0.0919 -0.9825  0.2929
 1004TIP3   OH224646   5.185   3.425   2.791  0.2909  0.2439  0.0931
 1004TIP3    H124647   5.275   3.398   2.808  1.1974  3.4372  1.1646
 1004TIP3    H224648   5.137   3.398   2.870  1.0642  1.3432  0.9660
 1005TIP3   OH224649   3.093   5.826   7.508  0.0938 -0.3168 -0.5871
 1005TIP3    H124650   3.053   5.822   7.595  0.4418  0.8294 -0.3522
 1005TIP3    H224651   3.065   5.746   7.464 -1.7033  0.0192 -0.1191
 1006TIP3   OH224652   2.256   2.270   2.152 -0.7808 -0.1884 -0.6558
 1006TIP3    H124653   2.185   2.333   2.170  0.9358  1.8001 -0.4324
 1006TIP3    H224654   2.211   2.190   2.127 -3.1115  0.9541 -0.4194
 1007TIP3   OH224655   2.957   4.269   1.281  0.3686 -0.3767  0.1796
 1007TIP3    H124656   2.862   4.254   1.281  0.2660  0.2016  0.9519
 1007TIP3    H224657   2.994   4.192   1.324  0.2983 -0.8542 -0.6027
 1008TIP3   OH224658   2.135   5.267   6.514  0.0042 -0.4118 -0.1304
 1008TIP3    H124659   2.102   5.247   6.427 -1.0416  1.8648 -0.3367
 1008TIP3    H224660   2.230   5.275   6.503  0.0572 -1.6691 -0.7008
 1009TIP3   OH224661   4.798   0.707   0.501  0.5847 -0.6785  0.2881
 1009TIP3    H124662   4.807   0.794   0.462 -2.5983 -0.2927  0.1732
 1009TIP3    H224663   4.811   0.647   0.428  0.8271 -0.2332 -0.0446
 1010TIP3   OH224664   2.511   4.513   8.088 -0.1295 -0.0660  0.3056
 1010TIP3    H124665   2.592   4.486   8.130 -1.1711 -1.6535  1.4279
 1010TIP3    H224666   2.486   4.438   8.033  0.8670  1.6882 -2.8131
 1011TIP3   OH224667   3.537   5.269   7.512 -0.3236  0.0851  0.1267
 1011TIP3    H124668   3.563   5.362   7.513 -1.5672  0.4543  1.0252
 1011TIP3    H224669   3.464   5.266   7.450 -1.0478 -0.0517  0.9688
 1012TIP3   OH224670   2.191   3.098   1.441  0.0005 -0.9318 -0.0521
 1012TIP3    H124671   2.225   3.022   1.394 -0.3415 -0.2993 -1.3513
 1012TIP3    H224672   2.107   3.069   1.476  0.2187 -1.3807  0.1112
 1013TIP3   OH224673   2.069   2.989   1.987 -0.4702 -0.1919 -0.5324
 1013TIP3    H124674   2.026   3.054   2.043 -0.1622 -1.3820  1.1501
 1013TIP3    H224675   2.161   3.017   1.984  0.0569 -1.4744  1.7056
 1014TIP3   OH224676   4.770   0.999   0.156 -0.0039  0.1847 -0.3254
 1014TIP3    H124677   4.707   1.057   0.199  0.1427  0.1360 -0.0402
 1014TIP3    H224678   4.846   1.055   0.140 -0.0502  0.1973 -0.5053
 1015TIP3   OH224679   4.441   5.841   7.744 -0.2604  0.1260 -0.1934
 1015TIP3    H124680   4.373   5.775   7.734 -0.9691  1.0816 -2.3735
 1015TIP3    H224681   4.425   5.903   7.673  0.4007  2.6350  1.6734
 1016TIP3   OH224682   1.674   6.068   7.541 -0.1826  0.0132  0.2768
 1016TIP3    H124683   1.684   6.102   7.452  1.6330  0.3759  0.5961
 1016TIP3    H224684   1.649   5.976   7.528  0.3031 -0.0048 -0.6186
 1017TIP3   OH224685   4.628   6.256   0.882  0.5581  0.7324  0.6117
 1017TIP3    H124686   4.588   6.177   0.845  0.2577  1.1925 -0.0696
 1017TIP3    H224687   4.607   6.253   0.975  0.5745 -0.0024  0.6015
 1018TIP3   OH224688   3.056   6.440   7.412 -0.2090  0.1810  0.2225
 1018TIP3    H124689   3.152   6.441   7.415 -0.1929  0.1818 -0.2750
 1018TIP3    H224690   3.033   6.347   7.419 -0.1572  0.1441 -0.0943
 1019TIP3   OH224691   2.815   4.852   1.068  0.5466  0.6755 -0.2418
 1019TIP3    H124692   2.781   4.827   0.982  0.5392 -4.8224  0.9670
 1019TIP3    H224693   2.738   4.873   1.120 -0.6222 -3.9476  0.3306
 1020TIP3   OH224694   6.040   5.177   1.841  0.3506  0.0462  0.1680
 1020TIP3    H124695   6.086   5.118   1.902  1.5646 -0.1982 -0.9275
 1020TIP3    H224696   6.049   5.264   1.880 -0.5180 -0.3311  1.2584
 1021TIP3   OH224697   0.999   6.189   8.391  0.0709 -0.2825  0.0128
 1021TIP3    H124698   1.040   6.107   8.417 -0.5676 -1.3411 -2.0537
 1021TIP3    H224699   1.072   6.248   8.375  0.8650 -1.7702 -2.4630
 1022TIP3   OH224700   6.188   6.077   0.781  0.2980  0.1457  0.7046
 1022TIP3    H124701   6.160   6.126   0.858 -2.4898 -1.2180  0.6621
 1022TIP3    H224702   6.166   5.986   0.801 -1.9269 -0.0810 -2.1983
 1023TIP3   OH224703   2.594   1.580   8.567 -0.0040 -0.0273  0.2096
 1023TIP3    H124704   2.619   1.604   8.656 -0.6646  0.7489  0.2039
 1023TIP3    H224705   2.590   1.663   8.520 -0.6727 -0.3174 -0.2696
 1024TIP3   OH224706   5.746   6.859   0.133 -0.0845 -0.3153 -0.1040
 1024TIP3    H124707   5.755   6.818   0.046 -2.0365 -0.0200 -0.4790
 1024TIP3    H224708   5.719   6.788   0.190 -0.1404 -0.2334 -0.0293
 1025TIP3   OH224709   1.933   6.448   1.715 -0.2055  0.8416 -0.7804
 1025TIP3    H124710   2.024   6.465   1.741 -0.4441 -0.5485  1.2729
 1025TIP3    H224711   1.937   6.366   1.665 -0.3601  0.4561 -0.1784
 1026TIP3   OH224712   1.869   6.657   8.619 -0.2978 -0.3303  0.1591
 1026TIP3    H124713   1.868   6.747   8.588 -1.0135 -1.1314 -2.4026
 1026TIP3    H224714   1.952   6.649   8.666  0.4244  1.2972 -0.7526
 1027TIP3   OH224715   3.941   0.227   2.170  0.3814  0.0973 -0.4835
 1027TIP3    H124716   3.943   0.197   2.261  2.3934 -0.0223 -0.5185
 1027TIP3    H224717   3.914   0.318   2.175  0.5322  0.1092  0.2505
 1028TIP3   OH224718   6.000   5.842   1.282  0.3199  0.1558  0.1508
 1028TIP3    H124719   6.028   5.758   1.320  0.7428  0.9271  1.6281
 1028TIP3    H224720   6.070   5.902   1.303  0.6595  0.6263 -2.0917
 1029TIP3   OH224721   4.673   4.966   1.184  0.0168  0.6693 -0.1286
 1029TIP3    H124722   4.604   4.900   1.170  1.8446 -1.2995 -0.2878
 1029TIP3    H224723   4.651   5.036   1.123 -2.5268  0.7027  0.6914
 1030TIP3   OH224724   2.521   0.750   8.177  0.5933 -0.5622  0.3509
 1030TIP3    H124725   2.607   0.717   8.152  1.1456  1.6333 -0.9879
 1030TIP3    H224726   2.519   0.840   8.142 -1.7645 -0.1149  1.4297
 1031TIP3   OH224727   1.123   5.584   8.371 -0.3771  0.0962  0.1645
 1031TIP3    H124728   1.208   5.620   8.346  0.0240 -0.2250  1.0195
 1031TIP3    H224729   1.059   5.649   8.340  0.2246  0.7127  0.1920
 1032TIP3   OH224730   6.563   2.928   0.812  0.4616  0.2617 -0.3890
 1032TIP3    H124731   6.554   2.952   0.905  1.6117  0.6473 -0.3635
 1032TIP3    H224732   6.651   2.957   0.788 -0.1745  1.0858 -1.8880
 1033TIP3   OH224733   6.694   4.758   2.783 -0.2489  0.9357 -0.0944
 1033TIP3    H124734   6.719   4.719   2.699  0.8321  2.1304 -0.3487
 1033TIP3    H224735   6.605   4.791   2.769 -0.9581 -0.8244 -0.0555
 1034TIP3   OH224736   6.759   5.749   1.078  0.3524 -0.1087 -0.5384
 1034TIP3    H124737   6.688   5.729   1.017  0.3809  2.7362 -1.6754
 1034TIP3    H224738   6.738   5.836   1.112  1.0511 -1.0416  2.5908
 1035TIP3   OH224739   0.138   1.670   0.076 -0.1283  0.2756  0.1271
 1035TIP3    H124740   0.054   1.665   0.031 -0.2439  1.7534  0.1089
 1035TIP3    H224741   0.152   1.583   0.113 -2.7005  0.5176  1.9203
 1036TIP3   OH224742   2.392   6.271   1.244  0.2724 -0.0596  0.1735
 1036TIP3    H124743   2.373   6.217   1.167  1.1453 -0.4737  0.2395
 1036TIP3    H224744   2.340   6.231   1.314  1.6097 -1.4225  0.4428
 1037TIP3   OH224745   1.350   5.914   0.142  0.5321  0.2566  0.0797
 1037TIP3    H124746   1.271   5.876   0.102  1.6640 -0.2848 -1.7562
 1037TIP3    H224747   1.341   6.008   0.127 -1.0397  0.5632  2.3605
 1038TIP3   OH224748   4.946   5.812   7.583  0.0111  0.6989 -0.3199
 1038TIP3    H124749   4.914   5.901   7.566 -0.4838  0.4673 -0.6150
 1038TIP3    H224750   4.867   5.760   7.593  0.2757 -0.0088 -1.6908
 1039TIP3   OH224751   5.367   2.206   0.087 -0.0642  0.1136  0.8352
 1039TIP3    H124752   5.297   2.215   0.023  1.1741  1.3337 -0.4288
 1039TIP3    H224753   5.322   2.202   0.172 -1.6657  0.1303  0.0159
 1040TIP3   OH224754   1.500   2.601   0.161 -0.1443 -0.3586  0.0405
 1040TIP3    H124755   1.425   2.620   0.105 -0.2093 -2.9498 -0.8754
 1040TIP3    H224756   1.557   2.677   0.153 -1.0028  0.1066 -2.1034
 1041TIP3   OH224757   4.127   0.213   1.932 -0.6796  0.5978 -0.4786
 1041TIP3    H124758   4.067   0.184   1.863  0.7316  0.7311 -1.8362
 1041TIP3    H224759   4.072   0.223   2.009 -1.8160 -2.5730 -0.7303
 1042TIP3   OH224760   2.709   0.082   0.994 -0.1571 -1.2337  0.1598
 1042TIP3    H124761   2.756   0.041   1.067 -0.9360 -2.2863  0.0980
 1042TIP3    H224762   2.696   0.011   0.931 -1.4836 -0.8835  0.0151
 1043TIP3   OH224763   1.132   0.368   8.603  0.5539 -0.0888 -0.5001
 1043TIP3    H124764   1.158   0.350   8.694  0.2781 -1.0267 -0.5966
 1043TIP3    H224765   1.156   0.288   8.555 -2.0987 -0.8615 -0.6687
 1044TIP3   OH224766   2.970   1.414   7.352  0.1241  0.0465 -0.2274
 1044TIP3    H124767   2.987   1.322   7.372 -0.4137  0.0736  0.3472
 1044TIP3    H224768   3.056   1.457   7.362  0.4502 -0.4400 -0.8360
 1045TIP3   OH224769   5.310   4.985   1.301  0.1222 -0.2945  0.6165
 1045TIP3    H124770   5.321   5.062   1.245 -1.2717  0.0332  0.7512
 1045TIP3    H224771   5.243   5.012   1.365 -0.5138 -1.6627  0.5666
 1046TIP3   OH224772   2.028   1.290   1.341  0.0113 -0.4774 -0.0939
 1046TIP3    H124773   1.958   1.313   1.402  1.7388 -1.8182  2.5940
 1046TIP3    H224774   2.066   1.373   1.316 -0.1197  0.1016  1.4997
 1047TIP3   OH224775   5.417   2.779   0.827 -0.3000 -0.4427 -0.6025
 1047TIP3    H124776   5.502   2.813   0.853 -0.0802 -1.5242  0.1492
 1047TIP3    H224777   5.354   2.841   0.864  0.1632  1.4589 -2.8138
 1048TIP3   OH224778   0.258   1.099   6.638 -0.2880  0.0713 -0.0744
 1048TIP3    H124779   0.197   1.025   6.630 -2.5691  1.5676  2.0623
 1048TIP3    H224780   0.343   1.058   6.652 -1.5878 -2.2238  1.8622
 1049TIP3   OH224781   5.557   1.038   0.043  0.5558  0.7233 -0.3019
 1049TIP3    H124782   5.622   0.989   0.092  0.5162  0.3362 -0.6327
 1049TIP3    H224783   5.474   1.015   0.085  0.6816  1.6801  0.5017
 1050TIP3   OH224784   5.632   4.727   0.016  0.1840  0.7522  0.4926
 1050TIP3    H124785   5.630   4.634   0.040  2.0583  0.8253  1.1068
 1050TIP3    H224786   5.543   4.757   0.030  0.0749 -0.3808  2.7578
 1051TIP3   OH224787   4.175   3.387   8.183 -0.2544  0.1117  0.6822
 1051TIP3    H124788   4.189   3.466   8.131 -1.5079  0.7073  1.1997
 1051TIP3    H224789   4.242   3.391   8.251 -0.2714  0.7082  0.6705
 1052TIP3   OH224790   6.102   5.683   7.065  0.1914 -0.5592 -0.0855
 1052TIP3    H124791   6.143   5.748   7.122  1.2381 -0.5385 -0.8417
 1052TIP3    H224792   6.146   5.693   6.981 -1.4839 -0.4378 -0.9809
 1053TIP3   OH224793   5.443   1.181   0.369  0.5920  0.2643  0.0194
 1053TIP3    H124794   5.487   1.096   0.361  0.7164  0.1891  1.3742
 1053TIP3    H224795   5.513   1.245   0.353  0.6771  0.1274 -0.1675
 1054TIP3   OH224796   4.359   3.216   1.866  0.3794 -0.2720  0.1377
 1054TIP3    H124797   4.359   3.312   1.871  0.7825 -0.1628 -1.3883
 1054TIP3    H224798   4.278   3.194   1.821  0.6466 -0.5926 -0.1918
 1055TIP3   OH224799   6.756   1.668   1.519 -0.1632 -0.1445 -0.6105
 1055TIP3    H124800   6.742   1.710   1.604  1.0271 -1.4153  0.2718
 1055TIP3    H224801   6.694   1.596   1.517 -0.4261  0.0911 -0.9729
 1056TIP3   OH224802   1.032   6.108   7.764 -0.6681  0.0359  0.3675
 1056TIP3    H124803   0.982   6.189   7.770 -0.3708  0.1645  1.3274
 1056TIP3    H224804   1.123   6.134   7.775 -0.2345 -0.0699 -2.4329
 1057TIP3   OH224805   4.686   0.582   7.193  0.0552  0.2936 -0.1080
 1057TIP3    H124806   4.638   0.599   7.111 -0.5637 -1.0875 -0.0549
 1057TIP3    H224807   4.747   0.656   7.200 -1.6533  1.8247 -0.4790
 1058TIP3   OH224808   3.030   5.378   0.936  0.6984  0.1890 -0.2308
 1058TIP3    H124809   3.124   5.388   0.946  0.7571 -0.5252  0.0322
 1058TIP3    H224810   2.995   5.467   0.939  1.2996  0.4105  0.3745
 1059TIP3   OH224811   4.931   3.918   8.330 -0.3270 -0.0687  0.1979
 1059TIP3    H124812   5.000   3.857   8.357 -0.9157 -1.0429 -0.4542
 1059TIP3    H224813   4.869   3.865   8.281 -1.1184  0.9651  0.0351
 1060TIP3   OH224814   2.726   1.538   1.127 -0.0332  0.3078 -0.6562
 1060TIP3    H124815   2.777   1.571   1.054 -1.7980  0.7641 -1.7594
 1060TIP3    H224816   2.697   1.452   1.099  1.0192 -0.4211  0.4264
 1061TIP3   OH224817   3.785   2.836   8.005 -0.1717  0.3233  0.1431
 1061TIP3    H124818   3.836   2.776   7.951  1.9030 -0.1402  2.4518
 1061TIP3    H224819   3.702   2.791   8.020  0.7613 -1.3024  0.5591
 1062TIP3   OH224820   1.913   6.765   0.607 -0.2053 -0.0945  0.4834
 1062TIP3    H124821   1.948   6.730   0.525  2.0962  1.9561  0.4646
 1062TIP3    H224822   1.973   6.733   0.674  0.3104  1.4539  0.8027
 1063TIP3   OH224823   3.144   4.102   8.261 -0.4717 -0.0349  0.4265
 1063TIP3    H124824   3.169   4.017   8.297  0.4583 -0.0037 -0.1138
 1063TIP3    H224825   3.197   4.165   8.310 -0.3066  0.1304  0.0428
 1064TIP3   OH224826   2.061   1.860   8.459 -0.5693  0.3132  0.3376
 1064TIP3    H124827   2.050   1.772   8.496  1.0829  0.4315  1.1940
 1064TIP3    H224828   2.063   1.918   8.535 -0.9191  1.0178 -0.1797
 1065TIP3   OH224829   3.287   0.300   0.275  0.0747 -0.3662 -0.5609
 1065TIP3    H124830   3.377   0.326   0.255  0.3068 -0.2990  0.4870
 1065TIP3    H224831   3.272   0.223   0.220  0.9154 -0.6040 -0.4865
 1066TIP3   OH224832   0.296   2.999   6.726  0.3163  1.1202 -0.0171
 1066TIP3    H124833   0.226   2.935   6.732  1.3574  0.0482  1.5985
 1066TIP3    H224834   0.255   3.083   6.748 -0.4407  0.4904  1.0262
 1067TIP3   OH224835   4.175   6.125   6.788 -0.3522 -0.0996  0.0353
 1067TIP3    H124836   4.170   6.029   6.795  0.3746 -0.1938 -0.5984
 1067TIP3    H224837   4.144   6.143   6.699 -0.6392  0.2719  0.2112
 1068TIP3   OH224838   2.435   2.721   8.505  0.3215 -0.2804 -0.0232
 1068TIP3    H124839   2.506   2.660   8.524  0.1381 -1.2021 -2.0157
 1068TIP3    H224840   2.374   2.709   8.577  1.0970 -1.1832  0.5220
 1069TIP3   OH224841   2.208   1.439   7.507  0.1423  0.1144  0.1746
 1069TIP3    H124842   2.244   1.432   7.595  0.9781 -2.3488 -0.3008
 1069TIP3    H224843   2.119   1.405   7.515 -0.3878  1.4758  0.3546
 1070TIP3   OH224844   6.778   3.881   7.291  0.5986 -0.5188  0.0656
 1070TIP3    H124845   6.755   3.812   7.229 -2.3547 -0.4907  0.9889
 1070TIP3    H224846   6.857   3.848   7.334  0.3870 -2.3986 -0.8752
 1071TIP3   OH224847   6.353   3.186   8.526 -0.7203 -0.3784  0.3526
 1071TIP3    H124848   6.333   3.109   8.473 -0.4389 -0.0570 -0.2211
 1071TIP3    H224849   6.267   3.222   8.550 -0.8425 -0.2089 -0.3397
 1072TIP3   OH224850   1.396   3.173   2.312 -0.4570  0.3750  0.2811
 1072TIP3    H124851   1.379   3.083   2.339 -0.9163  0.4635  0.2890
 1072TIP3    H224852   1.360   3.179   2.224 -0.9463  0.7143  0.5023
 1073TIP3   OH224853   5.218   5.343   1.554 -0.3996  0.7715  0.2903
 1073TIP3    H124854   5.132   5.314   1.583  0.2300 -1.6142 -0.0081
 1073TIP3    H224855   5.275   5.332   1.630  0.4444 -1.8050 -0.5724
 1074TIP3   OH224856   6.071   1.591   2.761 -0.3611 -0.0026 -0.7938
 1074TIP3    H124857   6.048   1.652   2.831  0.8967 -1.0703  0.6402
 1074TIP3    H224858   6.164   1.604   2.747 -0.2752 -0.8907 -1.1510
 1075TIP3   OH224859   5.484   6.654   7.754 -0.0424  0.4725  0.9670
 1075TIP3    H124860   5.552   6.655   7.821  0.5729  1.7977  0.3371
 1075TIP3    H224861   5.524   6.609   7.679 -0.3177  0.0758  1.0532
 1076TIP3   OH224862   4.385   4.053   8.086  0.2295 -0.7195 -0.1185
 1076TIP3    H124863   4.402   4.084   8.175 -0.7613 -2.5064  0.7592
 1076TIP3    H224864   4.381   4.133   8.033  2.0920  0.3161  1.1868
 1077TIP3   OH224865   6.178   4.394   7.437 -0.0773  0.4274  0.1921
 1077TIP3    H124866   6.232   4.316   7.446  1.2678  1.2339 -0.5118
 1077TIP3    H224867   6.184   4.416   7.344 -1.3636  0.7429  0.1603
 1078TIP3   OH224868   4.337   3.948   7.727 -0.0225 -0.7689 -0.7082
 1078TIP3    H124869   4.339   4.028   7.779  1.3987 -0.4275 -1.2499
 1078TIP3    H224870   4.261   3.900   7.759 -2.0661  1.6439 -1.6642
 1079TIP3   OH224871   5.355   4.499   0.120 -0.7074 -0.3645  0.4103
 1079TIP3    H124872   5.340   4.431   0.186 -0.0493  0.7243  1.7419
 1079TIP3    H224873   5.444   4.530   0.137 -1.7026  2.3022  1.3179
 1080TIP3   OH224874   5.008   2.231   2.924 -0.1205 -0.4412  0.0491
 1080TIP3    H124875   5.036   2.207   3.013 -0.4507  2.1624  0.9384
 1080TIP3    H224876   5.038   2.321   2.913 -1.6137 -0.1137 -1.8286
 1081TIP3   OH224877   4.800   0.735   1.459 -0.3002  0.1897  0.1255
 1081TIP3    H124878   4.889   0.704   1.446 -0.2217  0.3002  0.3825
 1081TIP3    H224879   4.746   0.676   1.407  0.0298  0.8667 -1.0108
 1082TIP3   OH224880   2.924   4.498   6.628  0.5257  0.2490  0.2773
 1082TIP3    H124881   2.980   4.487   6.704  0.1973 -0.1286  0.4699
 1082TIP3    H224882   2.952   4.431   6.567  2.9406  2.5166 -1.2927
 1083TIP3   OH224883   0.594   5.296   8.077  0.0633  0.1176  0.3329
 1083TIP3    H124884   0.675   5.246   8.089 -0.7343 -1.1041  0.8185
 1083TIP3    H224885   0.569   5.323   8.166 -2.5295 -3.5911  0.9538
 1084TIP3   OH224886   0.665   6.906   1.848  0.3443 -0.4650  0.4865
 1084TIP3    H124887   0.737   6.968   1.858  1.2236 -1.6337  1.6741
 1084TIP3    H224888   0.637   6.885   1.937 -0.6826 -0.9408  0.0809
 1085TIP3   OH224889   2.061   3.874   0.054  0.5303 -0.4985  0.3544
 1085TIP3    H124890   2.131   3.938   0.048 -0.4505  0.6509  0.7864
 1085TIP3    H224891   1.988   3.922   0.093 -1.6334 -0.6554 -3.1033
 1086TIP3   OH224892   5.683   6.625   7.933 -0.3892 -0.3969 -0.3203
 1086TIP3    H124893   5.657   6.539   7.964  0.3820 -0.5663 -0.1379
 1086TIP3    H224894   5.777   6.629   7.947 -0.3673  0.3581 -0.6140
 1087TIP3   OH224895   2.320   2.953   2.384  0.3649  0.3169 -0.1544
 1087TIP3    H124896   2.292   2.972   2.473  1.5509 -0.0322  0.3152
 1087TIP3    H224897   2.393   2.892   2.395 -0.0477 -0.4267 -1.4036
 1088TIP3   OH224898   3.945   0.754   0.194  0.2525  0.2007 -0.0783
 1088TIP3    H124899   4.026   0.728   0.237 -0.5520 -2.3297  0.0549
 1088TIP3    H224900   3.965   0.753   0.101  0.8701  1.5686  0.0171
 1089TIP3   OH224901   3.890   1.824   7.681  0.1913 -0.8195 -0.2099
 1089TIP3    H124902   3.929   1.854   7.598  0.4073 -0.7743 -0.0925
 1089TIP3    H224903   3.915   1.891   7.745 -1.0516 -0.1718 -0.3604
 1090TIP3   OH224904   1.949   1.032   7.952  0.2918 -0.1306 -0.1785
 1090TIP3    H124905   1.877   0.979   7.987 -0.0278  0.4153  0.0007
 1090TIP3    H224906   1.945   1.018   7.858  1.1088 -1.5505 -0.0212
 1091TIP3   OH224907   5.680   3.283   6.061  0.6052  0.1152 -0.1009
 1091TIP3    H124908   5.593   3.317   6.038  0.0774  0.2986  1.9312
 1091TIP3    H224909   5.741   3.345   6.022 -0.0772 -0.6539 -2.5735
 1092TIP3   OH224910   0.360   3.248   1.715  0.0161 -0.0486 -0.2171
 1092TIP3    H124911   0.317   3.171   1.752 -0.8270  0.7920  0.6182
 1092TIP3    H224912   0.300   3.278   1.646  0.0478  0.1919 -0.1433
 1093TIP3   OH224913   5.741   4.540   0.808 -0.0102  0.6040 -0.4275
 1093TIP3    H124914   5.830   4.574   0.821  0.6538 -0.3965 -1.9777
 1093TIP3    H224915   5.685   4.617   0.811  0.8253  1.2006  1.0801
 1094TIP3   OH224916   6.842   2.288   7.089  0.0133 -0.6210  0.0595
 1094TIP3    H124917   6.764   2.237   7.068 -0.7559  0.7096 -0.4124
 1094TIP3    H224918   6.878   2.313   7.004  1.2490 -1.5954  0.2559
 1095TIP3   OH224919   5.778   3.542   1.888  0.0130 -0.4037 -0.7368
 1095TIP3    H124920   5.824   3.567   1.968  0.1702 -0.6367 -0.7540
 1095TIP3    H224921   5.771   3.624   1.838 -0.8640 -0.0721 -0.0989
 1096TIP3   OH224922   3.930   3.469   8.363 -0.5065  0.3104  1.1749
 1096TIP3    H124923   3.991   3.501   8.430  0.8881  0.1447  0.0428
 1096TIP3    H224924   3.983   3.412   8.308 -1.8561 -0.3264  0.4877
 1097TIP3   OH224925   5.404   2.203   8.332  0.0105  0.0752  0.7020
 1097TIP3    H124926   5.486   2.253   8.340 -0.1916  0.2299  2.2522
 1097TIP3    H224927   5.404   2.171   8.242  1.7307  0.1546  0.6346
 1098TIP3   OH224928   5.305   3.984   7.661  0.6832 -0.8846  0.3292
 1098TIP3    H124929   5.374   3.926   7.628  1.5649  0.4214 -0.2148
 1098TIP3    H224930   5.286   3.951   7.749  2.5372 -0.8472  0.7942
 1099TIP3   OH224931   2.301   3.098   1.073 -0.5719 -0.0766 -0.0612
 1099TIP3    H124932   2.387   3.094   1.032 -0.4077  0.4227  0.2248
 1099TIP3    H224933   2.272   3.189   1.060 -0.0956  0.3725  1.7554
 1100TIP3   OH224934   5.715   3.095   7.727 -0.6188 -0.0459  0.2459
 1100TIP3    H124935   5.686   3.168   7.782 -2.0371  0.7789 -1.5323
 1100TIP3    H224936   5.799   3.125   7.691 -0.7063  0.2780  0.3049
 1101TIP3   OH224937   2.699   6.905   7.468  0.6442  0.0924  0.1584
 1101TIP3    H124938   2.696   6.809   7.463  3.5268 -0.1459  1.2556
 1101TIP3    H224939   2.785   6.928   7.434 -0.1050  2.3464 -0.3292
 1102TIP3   OH224940   5.967   4.157   1.195 -0.3338  0.2306 -0.0255
 1102TIP3    H124941   5.935   4.076   1.154  1.0388 -0.0180 -0.6776
 1102TIP3    H224942   5.976   4.219   1.123  1.6772 -0.0678 -0.0969
 1103TIP3   OH224943   5.670   2.926   7.457  0.6729 -0.8741 -0.5674
 1103TIP3    H124944   5.666   3.021   7.463 -1.0966 -0.9733  0.8136
 1103TIP3    H224945   5.721   2.908   7.377  1.7693  1.1842 -0.3826
 1104TIP3   OH224946   5.372   0.900   6.873 -0.5338  0.0819 -0.7362
 1104TIP3    H124947   5.373   0.949   6.791  2.9418  1.3532 -0.1113
 1104TIP3    H224948   5.464   0.895   6.899 -1.4317 -0.6901  2.8511
 1105TIP3   OH224949   2.539   1.851   8.096 -0.4461  0.0342  0.2175
 1105TIP3    H124950   2.587   1.930   8.072 -0.4018  0.4751  1.6516
 1105TIP3    H224951   2.569   1.785   8.034  0.8933  0.6887  0.1401
 1106TIP3   OH224952   3.476   1.691   1.275 -0.1351  0.7146 -0.0174
 1106TIP3    H124953   3.488   1.779   1.309  3.1521 -1.0054  4.2833
 1106TIP3    H224954   3.399   1.657   1.321 -0.1773  0.6916 -0.1043
 1107TIP3   OH224955   6.409   1.345   8.224  0.2099  0.0876 -0.0122
 1107TIP3    H124956   6.327   1.294   8.223  0.1015  0.2310  0.8331
 1107TIP3    H224957   6.426   1.360   8.316  1.4505 -0.3350 -0.1517
 1108TIP3   OH224958   3.224   4.396   1.409  0.7328 -0.1583 -0.2125
 1108TIP3    H124959   3.225   4.327   1.343  1.5133 -0.4146  0.0540
 1108TIP3    H224960   3.184   4.355   1.486 -1.4270  0.5267 -0.8957
 1109TIP3   OH224961   1.530   5.726   6.930 -0.8223  0.0652 -0.2517
 1109TIP3    H124962   1.536   5.688   6.842 -0.1749 -1.1505  0.2967
 1109TIP3    H224963   1.575   5.810   6.923 -0.0937 -0.3685 -0.9039
 1110TIP3   OH224964   4.139   1.437   7.827 -0.5739  0.1972  0.2073
 1110TIP3    H124965   4.100   1.423   7.913  1.6777 -0.4526  1.1888
 1110TIP3    H224966   4.135   1.532   7.814  0.5474  0.4963  1.8049
 1111TIP3   OH224967   4.551   5.540   8.479  0.1884  0.6814  0.3123
 1111TIP3    H124968   4.543   5.448   8.504  0.5558  0.0868 -1.6375
 1111TIP3    H224969   4.645   5.555   8.473  0.1072  0.7656 -0.8070
 1112TIP3   OH224970   0.501   6.026   6.835 -0.1353  0.0473 -0.3421
 1112TIP3    H124971   0.465   6.018   6.747 -0.2573 -1.5612 -0.1798
 1112TIP3    H224972   0.494   5.938   6.872 -0.0745  0.6818  1.2772
 1113TIP3   OH224973   0.915   5.985   1.628 -0.5590  0.2155  0.8973
 1113TIP3    H124974   0.852   5.992   1.557 -0.1465  1.6692  0.6308
 1113TIP3    H224975   0.967   6.066   1.622 -1.0577  0.8057  3.3687
 1114TIP3   OH224976   6.817   6.187   0.892 -0.1921  0.3293 -0.2706
 1114TIP3    H124977   6.855   6.104   0.864 -0.2228  0.4367 -0.6375
 1114TIP3    H224978   6.882   6.224   0.952 -0.1288  0.0922 -0.1919
 1115TIP3   OH224979   5.307   1.630   6.516 -0.0142 -0.4518 -0.0482
 1115TIP3    H124980   5.247   1.616   6.444 -0.5832  1.6469 -0.0364
 1115TIP3    H224981   5.394   1.627   6.476 -0.3238  0.7474 -0.8407
 1116TIP3   OH224982   6.834   2.900   1.193 -0.2584 -0.3689 -0.3624
 1116TIP3    H124983   6.877   2.815   1.201 -0.3038 -0.3443  0.1287
 1116TIP3    H224984   6.897   2.954   1.145  0.0063 -0.5109 -0.1737
 1117TIP3   OH224985   4.356   0.407   8.278  0.5180 -0.5477  0.0988
 1117TIP3    H124986   4.340   0.330   8.223 -1.7243  0.7169 -1.1668
 1117TIP3    H224987   4.407   0.373   8.352 -1.4235 -3.5301  0.2569
 1118TIP3   OH224988   5.214   5.043   1.578  0.1986  0.4830 -0.2960
 1118TIP3    H124989   5.288   5.090   1.616  1.5647 -0.5109 -1.5912
 1118TIP3    H224990   5.137   5.086   1.614  1.2823 -0.5452  3.8663
 1119TIP3   OH224991   3.067   6.440   0.562 -0.3702  0.3472  0.1289
 1119TIP3    H124992   3.101   6.527   0.539 -0.5125  1.0829  2.4934
 1119TIP3    H224993   2.984   6.456   0.605 -0.9562 -1.0700 -0.4022
 1120TIP3   OH224994   0.935   5.891   6.351 -0.2309  0.3483  0.5544
 1120TIP3    H124995   0.850   5.923   6.384 -0.2168 -0.6616  1.6378
 1120TIP3    H224996   0.927   5.796   6.354  1.0854  0.2402  1.0616
 1121TIP3   OH224997   0.708   5.425   7.358 -0.1066 -0.3426 -0.1234
 1121TIP3    H124998   0.652   5.496   7.389  0.1642 -0.1745 -0.0249
 1121TIP3    H224999   0.746   5.388   7.437 -1.6038 -1.7422 -0.0026
 1122TIP3   OH225000   2.834   2.445   1.362  0.3272  0.3026 -0.1148
 1122TIP3    H125001   2.907   2.401   1.318  0.0170 -0.0802 -0.2484
 1122TIP3    H225002   2.767   2.455   1.295 -0.0850 -0.1399  0.2194
 1123TIP3   OH225003   4.367   2.876   1.859  0.3760 -0.1892  0.0726
 1123TIP3    H125004   4.288   2.915   1.896  1.0168 -0.2408  1.5451
 1123TIP3    H225005   4.427   2.949   1.846  0.9454 -0.4248  1.2242
 1124TIP3   OH225006   1.078   1.288   0.835 -0.5028  0.2080  0.3873
 1124TIP3    H125007   1.052   1.362   0.780 -2.7486 -0.3570  0.6032
 1124TIP3    H225008   1.057   1.211   0.782  1.0026 -0.3074  0.5068
 1125TIP3   OH225009   6.277   1.441   0.993  0.1120  0.6145  0.5994
 1125TIP3    H125010   6.185   1.469   0.996 -0.9292 -2.3879 -0.0275
 1125TIP3    H225011   6.287   1.384   1.069  0.7530 -0.9143 -0.5914
 1126TIP3   OH225012   4.002   3.342   7.894 -0.6356  0.1588 -0.1399
 1126TIP3    H125013   4.008   3.258   7.940  0.2743  0.3110  0.0441
 1126TIP3    H225014   4.091   3.378   7.899 -0.5230  0.2045 -1.9788
 1127TIP3   OH225015   2.609   6.275   0.005  0.1791  0.2437 -0.5999
 1127TIP3    H125016   2.634   6.316  -0.078  1.3595  0.8676  0.0409
 1127TIP3    H225017   2.670   6.202   0.014  0.4073  0.4983 -0.0366
 1128TIP3   OH225018   5.173   1.150   7.506 -0.0707  0.5679  0.7380
 1128TIP3    H125019   5.231   1.075   7.495  0.9917  1.3454  0.8244
 1128TIP3    H225020   5.107   1.121   7.569 -1.2271 -1.1241 -1.1357
 1129TIP3   OH225021   4.642   6.461   0.552 -0.2883 -0.7921 -0.0381
 1129TIP3    H125022   4.567   6.479   0.610 -0.4730 -2.4698  0.3015
 1129TIP3    H225023   4.715   6.447   0.612 -0.0174 -0.5664 -0.3144
 1130TIP3   OH225024   4.514   6.887   0.949 -0.7489 -0.0119 -0.1970
 1130TIP3    H125025   4.508   6.903   0.855  1.6710 -0.7599 -0.5616
 1130TIP3    H225026   4.548   6.970   0.984  0.8146 -0.5420 -0.3976
 1131TIP3   OH225027   5.283   4.359   7.341 -0.3640 -0.1212  0.4721
 1131TIP3    H125028   5.248   4.291   7.282  0.5658 -0.6189  0.4761
 1131TIP3    H225029   5.260   4.328   7.429 -0.7693  0.0503  0.4271
 1132TIP3   OH225030   6.663   0.322   7.011 -0.4681 -0.0323  0.1381
 1132TIP3    H125031   6.589   0.343   6.953 -0.7075 -2.3068 -0.4700
 1132TIP3    H225032   6.708   0.250   6.967  0.2273 -0.8346  2.0583
 1133TIP3   OH225033   2.876   2.421   0.793  0.3509  1.0070  0.3006
 1133TIP3    H125034   2.864   2.436   0.887  0.1604 -0.6508  0.5753
 1133TIP3    H225035   2.971   2.424   0.780  0.5871 -1.0769  1.0407
 1134TIP3   OH225036   1.987   5.349   8.243 -0.8236  0.2397  0.0551
 1134TIP3    H125037   2.061   5.343   8.182 -0.5741  1.3526  0.2336
 1134TIP3    H225038   1.910   5.330   8.189 -0.6606  1.7406 -0.7584
 1135TIP3   OH225039   0.942   2.331   0.109  0.2806  0.5040 -0.2605
 1135TIP3    H125040   1.032   2.310   0.086  0.7759 -0.1534  2.0171
 1135TIP3    H225041   0.894   2.249   0.095  0.6974 -0.0661  1.4853
 1136TIP3   OH225042   3.150   0.800   0.845  0.1137 -1.1710  0.3703
 1136TIP3    H125043   3.177   0.853   0.920  1.0865  0.1677 -0.8559
 1136TIP3    H225044   3.100   0.860   0.790 -1.3785 -2.3738  0.3471
 1137TIP3   OH225045   2.774   3.985   7.455  0.4658 -0.1145  0.2823
 1137TIP3    H125046   2.753   4.078   7.456  0.0431 -0.2116  0.6029
 1137TIP3    H225047   2.819   3.971   7.372 -1.0715  0.0159 -0.6040
 1138TIP3   OH225048   6.649   2.242   7.750  0.1260 -0.2162 -0.5049
 1138TIP3    H125049   6.678   2.179   7.684 -1.6778 -1.3588 -0.2657
 1138TIP3    H225050   6.624   2.320   7.700  0.5815 -0.3647 -0.9729
 1139TIP3   OH225051   3.364   4.582   7.333 -0.3585  0.3453  0.1203
 1139TIP3    H125052   3.358   4.488   7.320 -0.8270  0.4204 -0.2035
 1139TIP3    H225053   3.282   4.617   7.299  0.3605  1.0088 -1.0059
 1140TIP3   OH225054   0.347   4.671   7.545 -0.3262  0.1843  0.7986
 1140TIP3    H125055   0.352   4.764   7.569  0.3958  0.3449  0.0494
 1140TIP3    H225056   0.371   4.668   7.453 -0.5276 -0.7361  0.7615
 1141TIP3   OH225057   6.436   5.415   1.594 -0.2322 -0.0369 -0.3201
 1141TIP3    H125058   6.467   5.339   1.545  0.7796  0.4050 -0.4025
 1141TIP3    H225059   6.420   5.382   1.682  0.9761 -0.2023 -0.1413
 1142TIP3   OH225060   4.016   2.423   6.834  0.6652 -0.2992  0.1796
 1142TIP3    H125061   4.015   2.340   6.785  1.5534  0.1451 -0.6416
 1142TIP3    H225062   4.093   2.416   6.890  1.7586  0.6224 -1.1351
 1143TIP3   OH225063   6.895   2.210   1.377  0.5099 -0.1613 -0.3912
 1143TIP3    H125064   6.880   2.303   1.395  1.6454 -0.0465  0.0322
 1143TIP3    H225065   6.975   2.208   1.324  1.1496 -0.9446  0.5616
 1144TIP3   OH225066   6.589   4.397   6.297 -0.1837  0.6379 -0.1967
 1144TIP3    H125067   6.496   4.418   6.287 -1.3685 -3.1582  1.0000
 1144TIP3    H225068   6.602   4.320   6.240  1.9563  0.4591  0.4441
 1145TIP3   OH225069   1.757   1.375   1.553 -0.8892 -0.4361  0.1537
 1145TIP3    H125070   1.697   1.411   1.618 -1.2865 -0.7582 -0.0289
 1145TIP3    H225071   1.796   1.451   1.511 -0.5905 -0.2279  0.8077
 1146TIP3   OH225072   3.214   4.003   7.337 -0.2552  0.3996 -0.3423
 1146TIP3    H125073   3.251   4.005   7.425  0.1522  1.4219 -0.5180
 1146TIP3    H225074   3.289   4.007   7.279 -0.4489 -1.5411 -0.7855
 1147TIP3   OH225075   5.348   3.747   2.105 -0.0437  0.4104 -0.2808
 1147TIP3    H125076   5.432   3.743   2.151 -0.1275 -1.6564 -0.1697
 1147TIP3    H225077   5.345   3.665   2.055 -1.3947  1.0931 -1.3806
 1148TIP3   OH225078   2.730   0.657   0.065 -0.1401 -0.0756  0.0664
 1148TIP3    H125079   2.734   0.668  -0.030 -0.7612  0.0738  0.0547
 1148TIP3    H225080   2.670   0.725   0.094 -2.8245 -2.3006  0.1773
 1149TIP3   OH225081   2.007   5.311   7.370  0.3729 -0.5875  0.1043
 1149TIP3    H125082   1.931   5.369   7.375  1.5479  0.9699  2.4581
 1149TIP3    H225083   1.971   5.223   7.366 -1.4954  0.1862 -2.0150
 1150TIP3   OH225084   5.839   1.879   8.237 -0.2977 -0.4125  0.5098
 1150TIP3    H125085   5.812   1.941   8.305 -0.6435 -1.4841  1.3866
 1150TIP3    H225086   5.757   1.838   8.208 -0.8158  2.8472 -3.5859
 1151TIP3   OH225087   2.302   0.322   6.633  0.1247 -0.3724  0.0334
 1151TIP3    H125088   2.219   0.300   6.590  1.2583  0.1916 -2.6160
 1151TIP3    H225089   2.368   0.277   6.581  1.6588  0.9984  0.7177
 1152TIP3   OH225090   4.966   2.051   1.683 -0.2095 -0.2015  0.1108
 1152TIP3    H125091   4.965   2.126   1.624 -1.1451 -0.4375 -0.1896
 1152TIP3    H225092   5.052   2.011   1.670  0.5964  1.2184  0.8005
 1153TIP3   OH225093   5.879   4.743   0.142  0.3267  0.3139  0.1641
 1153TIP3    H125094   5.821   4.759   0.068  1.2821  0.1536 -0.6436
 1153TIP3    H225095   5.967   4.750   0.105  0.9671  3.8752  2.0171
 1154TIP3   OH225096   5.079   6.596   0.116  0.0616 -0.2735  0.2361
 1154TIP3    H125097   5.091   6.691   0.124  0.2345 -0.2432 -0.2946
 1154TIP3    H225098   5.155   6.566   0.067 -0.5129 -0.5246 -0.5344
 1155TIP3   OH225099   1.766   5.995   6.344  0.1822  0.0814 -0.2717
 1155TIP3    H125100   1.735   5.928   6.406  1.8649  0.2171  0.7620
 1155TIP3    H225101   1.855   6.014   6.372  1.2201 -0.2548 -3.1134
 1156TIP3   OH225102   2.480   4.162   8.170 -0.0995 -0.5671 -0.4134
 1156TIP3    H125103   2.389   4.147   8.144 -1.2027  1.5097  1.8233
 1156TIP3    H225104   2.517   4.214   8.098 -0.9730 -0.6064 -0.9066
 1157TIP3   OH225105   2.647   3.322   7.534  0.5599  0.2173  0.3642
 1157TIP3    H125106   2.679   3.341   7.622  2.4820 -1.0358 -0.0221
 1157TIP3    H225107   2.725   3.299   7.484 -0.6839 -0.7197 -1.2476
 1158TIP3   OH225108   6.704   5.048   8.460 -0.1554  0.2978  0.0081
 1158TIP3    H125109   6.652   5.110   8.511 -1.1288 -0.7461  0.3239
 1158TIP3    H225110   6.650   4.969   8.455  0.5013 -0.1004 -1.4775
 1159TIP3   OH225111   1.007   6.889   2.576  0.1753  0.4079  0.1781
 1159TIP3    H125112   1.020   6.940   2.495 -0.5742 -0.5457 -0.5710
 1159TIP3    H225113   0.919   6.853   2.567  0.1424  0.1732  1.3762
 1160TIP3   OH225114   3.935   0.910   8.476  0.4888 -0.1861  0.2688
 1160TIP3    H125115   3.970   0.999   8.483  0.8796 -0.3804  0.8640
 1160TIP3    H225116   3.846   0.921   8.442  1.0825  0.3262 -1.1585
 1161TIP3   OH225117   0.953   4.970   7.958 -0.2670 -0.4447  0.0196
 1161TIP3    H125118   0.986   4.886   7.926 -0.1158 -0.6938  0.8201
 1161TIP3    H225119   0.870   4.981   7.912 -1.0204 -1.7507  0.9857
 1162TIP3   OH225120   3.049   2.882   8.272  0.2539  0.2001 -0.1061
 1162TIP3    H125121   3.138   2.903   8.245  0.9934 -0.9625  1.2893
 1162TIP3    H225122   3.045   2.910   8.364 -0.4620 -0.7205  0.1601
 1163TIP3   OH225123   0.956   3.617   0.191 -0.7755 -0.0650 -0.8302
 1163TIP3    H125124   1.043   3.640   0.158 -1.5143  1.1921 -2.0087
 1163TIP3    H225125   0.960   3.638   0.284 -0.0714  0.8103 -1.0404
 1164TIP3   OH225126   6.758   5.706   2.050  0.4798 -0.5686  0.1604
 1164TIP3    H125127   6.735   5.649   2.123 -1.3228  0.9650  0.8891
 1164TIP3    H225128   6.820   5.769   2.087 -1.9976  1.5200  1.1190
 1165TIP3   OH225129   1.123   6.920   0.330 -0.1270 -0.6153  0.7605
 1165TIP3    H125130   1.151   6.846   0.384  0.8577 -0.4679  0.4776
 1165TIP3    H225131   1.027   6.914   0.329 -0.2511 -0.1827  3.1293
 1166TIP3   OH225132   3.864   0.665   2.598 -0.1840 -0.6299 -0.2143
 1166TIP3    H125133   3.793   0.667   2.662 -0.5108 -0.7583 -0.5605
 1166TIP3    H225134   3.849   0.742   2.543  0.3878 -0.2439  0.1679
 1167TIP3   OH225135   0.684   6.844   1.584 -0.9093  0.0797  0.4656
 1167TIP3    H125136   0.669   6.849   1.679 -1.5831 -1.2962  0.4493
 1167TIP3    H225137   0.690   6.751   1.565  3.0270  0.3208 -0.3103
 1168TIP3   OH225138   3.867   1.858   0.432 -0.2760  0.6967  0.6378
 1168TIP3    H125139   3.901   1.769   0.426 -1.0174  0.4717 -0.6901
 1168TIP3    H225140   3.788   1.850   0.486  0.3881  0.7988  1.6481
 1169TIP3   OH225141   2.229   4.525   6.365  0.2535 -0.6268 -0.4722
 1169TIP3    H125142   2.248   4.572   6.446 -1.4847 -2.1016  0.8808
 1169TIP3    H225143   2.144   4.484   6.381  0.0391 -1.2768 -2.9234
 1170TIP3   OH225144   4.614   3.487   7.155 -0.1293  0.2993  0.8036
 1170TIP3    H125145   4.551   3.538   7.105 -0.9296 -2.3366 -1.1272
 1170TIP3    H225146   4.610   3.523   7.244 -2.2534  2.0473  0.0744
 1171TIP3   OH225147   1.574   2.556   7.964  0.2437  0.0253  0.1983
 1171TIP3    H125148   1.626   2.635   7.959 -1.0024  0.8311 -0.9424
 1171TIP3    H225149   1.580   2.517   7.876  0.2185 -0.7383  0.5200
 1172TIP3   OH225150   3.972   4.737   7.967 -0.6094 -0.4384  0.3107
 1172TIP3    H125151   4.029   4.695   8.032  0.7430 -0.1483 -0.6486
 1172TIP3    H225152   3.984   4.831   7.982  0.1581 -0.3628 -0.7151
 1173TIP3   OH225153   0.562   2.400   8.546 -0.4469  0.3221  0.5059
 1173TIP3    H125154   0.627   2.392   8.476  1.2443  0.4600  1.9742
 1173TIP3    H225155   0.572   2.491   8.577 -0.9872  0.1928  1.0849
 1174TIP3   OH225156   0.599   6.493   7.619 -0.0841  0.0252 -0.2426
 1174TIP3    H125157   0.612   6.438   7.697 -2.1398  0.9181  0.7990
 1174TIP3    H225158   0.520   6.543   7.638  0.9370  2.3615 -1.7194
 1175TIP3   OH225159   4.314   2.248   2.737 -0.6215  0.0690 -1.0995
 1175TIP3    H125160   4.390   2.305   2.722 -0.9056  0.5391 -0.7743
 1175TIP3    H225161   4.282   2.273   2.824 -0.2855 -1.1272 -0.6092
 1176TIP3   OH225162   5.286   6.105   6.234  0.2862  0.0946  0.1653
 1176TIP3    H125163   5.338   6.117   6.314  2.0408 -0.4806 -0.8404
 1176TIP3    H225164   5.322   6.027   6.193 -1.9634 -0.8148 -0.1908
 1177TIP3   OH225165   0.447   4.320   1.540 -0.0735  0.1374  0.1979
 1177TIP3    H125166   0.505   4.394   1.522  0.2098  0.3866  1.9793
 1177TIP3    H225167   0.360   4.359   1.545 -0.2984 -0.0821 -1.4609
 1178TIP3   OH225168   1.624   1.949   7.788 -0.2222 -0.3032 -0.2466
 1178TIP3    H125169   1.583   1.863   7.790 -1.4079  0.2516 -0.0355
 1178TIP3    H225170   1.569   2.000   7.729  0.6214  0.2413 -0.5690
 1179TIP3   OH225171   1.657   2.399   0.983 -0.0813 -0.2207 -0.3466
 1179TIP3    H125172   1.674   2.322   1.037 -2.8204  0.2471  1.3657
 1179TIP3    H225173   1.609   2.365   0.908  2.1341 -0.6119 -1.6916
 1180TIP3   OH225174   0.615   2.514   7.769  0.0525  0.2092 -0.1431
 1180TIP3    H125175   0.541   2.455   7.784  0.6174 -0.5870 -0.4070
 1180TIP3    H225176   0.619   2.522   7.673  1.1435 -0.8776 -0.2167
 1181TIP3   OH225177   0.890   1.496   1.489 -0.0866  0.2449  0.0659
 1181TIP3    H125178   0.897   1.524   1.580 -2.0177 -0.9364  0.6205
 1181TIP3    H225179   0.961   1.432   1.478  2.0078  2.4559 -0.1738
 1182TIP3   OH225180   0.715   3.572   1.175 -0.8091 -0.4889  0.4165
 1182TIP3    H125181   0.730   3.503   1.239 -2.2061  0.3130  1.6635
 1182TIP3    H225182   0.800   3.585   1.133  0.2433 -0.8143  2.3370
 1183TIP3   OH225183   0.336   4.884   7.925  0.1267 -0.0982  0.3061
 1183TIP3    H125184   0.296   4.854   8.007 -0.3850 -0.1131  0.0588
 1183TIP3    H225185   0.279   4.956   7.896  0.0982 -0.3306 -0.2187
 1184TIP3   OH225186   5.338   5.886   1.726  0.1701 -0.4136 -0.1766
 1184TIP3    H125187   5.270   5.820   1.737  0.6827 -0.7328  1.3805
 1184TIP3    H225188   5.315   5.955   1.788  0.3116  0.3155 -0.9138
 1185TIP3   OH225189   2.082   3.730   6.656  0.0454 -0.2608  0.2290
 1185TIP3    H125190   2.145   3.785   6.703  0.4755  0.8110 -1.5136
 1185TIP3    H225191   2.120   3.642   6.659  0.9047  0.1034  0.4189
 1186TIP3   OH225192   0.749   3.943   0.362  0.0766  0.7591  0.3080
 1186TIP3    H125193   0.825   3.889   0.384  0.6073  1.9962  1.6054
 1186TIP3    H225194   0.699   3.949   0.443 -0.3317  1.6728  0.0031
 1187TIP3   OH225195   2.854   0.322   7.066  0.6899  1.0147  0.0830
 1187TIP3    H125196   2.865   0.390   7.132  0.0582 -0.2984  1.6134
 1187TIP3    H225197   2.867   0.367   6.982 -1.5356  3.4200  0.8924
 1188TIP3   OH225198   5.417   0.896   0.973  0.3551  0.0243  0.0127
 1188TIP3    H125199   5.473   0.940   0.909 -0.1907  0.6507 -0.0420
 1188TIP3    H225200   5.394   0.964   1.037 -0.0513 -0.3086  0.2314
 1189TIP3   OH225201   3.173   0.437   7.221  0.0670 -0.1883 -0.5400
 1189TIP3    H125202   3.260   0.405   7.196 -0.1476 -0.9962 -0.2854
 1189TIP3    H225203   3.128   0.453   7.138  0.6873  0.9262 -0.6865
 1190TIP3   OH225204   5.393   3.831   1.169 -0.4352  0.3555 -0.4636
 1190TIP3    H125205   5.391   3.780   1.250 -1.0134  1.0688 -0.0149
 1190TIP3    H225206   5.470   3.799   1.122  1.6780  1.9758  1.7090
 1191TIP3   OH225207   2.551   0.314   1.064  0.0393 -0.0003  0.0654
 1191TIP3    H125208   2.497   0.322   1.142  1.0403  0.1624  0.7592
 1191TIP3    H225209   2.599   0.232   1.076 -1.1573 -0.9470 -1.2675
 1192TIP3   OH225210   1.749   5.893   6.897  0.3131  0.6784  0.2404
 1192TIP3    H125211   1.825   5.951   6.895  0.1529  0.8889  0.1764
 1192TIP3    H225212   1.752   5.852   6.983  0.9667  0.0534 -0.0626
 1193TIP3   OH225213   2.975   4.301   6.441  0.1200 -0.1844 -0.5818
 1193TIP3    H125214   3.058   4.297   6.393  0.3528 -0.5393 -0.1640
 1193TIP3    H225215   2.947   4.209   6.446 -0.3679 -0.0508 -0.8375
 1194TIP3   OH225216   5.029   0.514   0.481 -0.0836  0.1181  0.7005
 1194TIP3    H125217   5.071   0.431   0.503  0.3043  0.2175  0.3435
 1194TIP3    H225218   5.012   0.509   0.387 -2.6047 -0.6961  1.1408
 1195TIP3   OH225219   2.219   3.520   7.750  0.5190 -0.2265  0.2712
 1195TIP3    H125220   2.286   3.470   7.797  0.5514  0.2314  0.7151
 1195TIP3    H225221   2.267   3.563   7.679  0.3138 -1.6748 -0.7880
 1196TIP3   OH225222   5.672   4.110   6.796  0.5271 -0.1161  0.2846
 1196TIP3    H125223   5.686   4.196   6.756 -2.8943  0.1677 -0.6264
 1196TIP3    H225224   5.639   4.130   6.884 -0.4012 -0.4732  0.0227
 1197TIP3   OH225225   0.117   2.383   8.152 -0.1594  0.1331  0.2179
 1197TIP3    H125226   0.204   2.353   8.177  0.3176  0.6376 -0.7665
 1197TIP3    H225227   0.133   2.461   8.099 -1.0395 -0.9521 -1.7809
 1198TIP3   OH225228   4.598   6.913   0.637  0.2273 -0.7010  0.2219
 1198TIP3    H125229   4.653   6.855   0.584 -1.7206 -2.0199 -0.4560
 1198TIP3    H225230   4.572   6.982   0.576  0.5824 -0.4278  0.3727
 1199TIP3   OH225231   4.341   5.921   8.469  0.1904 -0.0316 -0.3897
 1199TIP3    H125232   4.266   5.889   8.518  0.4783  1.7196  1.3093
 1199TIP3    H225233   4.417   5.883   8.513  0.4165  0.7461 -0.0982
 1200TIP3   OH225234   1.777   1.741   8.498 -0.1420 -0.2640 -0.1687
 1200TIP3    H125235   1.840   1.673   8.522  0.0135 -1.6482 -3.9057
 1200TIP3    H225236   1.826   1.823   8.504  0.6725 -0.8070  1.1082
 1201TIP3   OH225237   1.924   1.112   1.016 -0.0085 -0.2656 -0.0483
 1201TIP3    H125238   1.864   1.065   0.958  0.2343 -1.4408  0.6310
 1201TIP3    H225239   1.882   1.110   1.102  1.0585 -1.2693  0.4799
 1202TIP3   OH225240   3.720   2.303   1.035  0.2024 -0.1779  0.3566
 1202TIP3    H125241   3.667   2.244   1.088  0.3899 -2.3654 -1.7220
 1202TIP3    H225242   3.798   2.320   1.087 -0.0276 -1.4733  1.1541
 1203TIP3   OH225243   4.597   4.574   0.707 -0.2577 -0.3472 -0.0331
 1203TIP3    H125244   4.598   4.647   0.770 -0.0092  0.7965 -1.3289
 1203TIP3    H225245   4.529   4.516   0.740 -0.6710  0.6159  0.8742
 1204TIP3   OH225246   6.760   5.099   2.188  0.9450 -0.2235  0.4678
 1204TIP3    H125247   6.763   5.025   2.248 -1.5875 -0.6335  0.1844
 1204TIP3    H225248   6.708   5.068   2.114  0.0812  1.7028  0.1880
 1205TIP3   OH225249   5.164   4.218   0.363  0.1133 -0.0850  0.2301
 1205TIP3    H125250   5.072   4.223   0.340  0.2851  1.4290 -0.2521
 1205TIP3    H225251   5.167   4.158   0.437 -1.2873  0.0544  0.4263
 1206TIP3   OH225252   5.865   0.221   7.234 -0.1931  0.2313 -0.0013
 1206TIP3    H125253   5.897   0.194   7.148  0.2685 -0.4447  0.3687
 1206TIP3    H225254   5.900   0.309   7.246 -1.0879  0.7203 -0.9173
 1207TIP3   OH225255   0.694   1.974   8.193  0.1529  0.2639  0.2197
 1207TIP3    H125256   0.712   2.049   8.136  1.1050 -0.5004 -0.5242
 1207TIP3    H225257   0.603   1.951   8.175  0.6042 -0.3594 -1.5117
 1208TIP3   OH225258   1.021   1.014   6.954  0.2899  0.1838 -0.0409
 1208TIP3    H125259   1.017   1.083   7.021 -2.0094 -0.8523  1.0105
 1208TIP3    H225260   1.013   0.933   7.004 -1.0490 -0.6409 -1.5255
 1209TIP3   OH225261   5.159   3.642   0.088  0.0641  0.3809 -0.0422
 1209TIP3    H125262   5.220   3.569   0.093  0.0694  0.3574 -0.4379
 1209TIP3    H225263   5.214   3.718   0.070 -0.0822  0.2470 -1.1713
 1210TIP3   OH225264   6.385   1.990   0.341 -0.4414 -0.9342  0.3877
 1210TIP3    H125265   6.478   2.010   0.352 -0.9226  2.1391 -0.2060
 1210TIP3    H225266   6.378   1.898   0.364  2.6532 -1.1527  0.9632
 1211TIP3   OH225267   0.249   1.738   1.377 -0.1861 -0.5297 -0.0980
 1211TIP3    H125268   0.216   1.773   1.294 -0.3283 -1.9907 -0.6833
 1211TIP3    H225269   0.339   1.770   1.381  0.2985 -1.5954 -1.5457
 1212TIP3   OH225270   3.039   1.357   0.882  0.1923 -0.5867  0.3525
 1212TIP3    H125271   2.989   1.438   0.886  0.4310 -0.4201  0.0353
 1212TIP3    H225272   2.976   1.289   0.906  0.0612 -0.2833  0.8890
 1213TIP3   OH225273   1.013   3.302   2.437  0.1321 -0.2637 -0.3323
 1213TIP3    H125274   1.104   3.312   2.464  0.2262 -1.3075 -0.2456
 1213TIP3    H225275   0.966   3.370   2.485  0.7177 -0.3145  0.3182
 1214TIP3   OH225276   0.955   3.422   1.452  0.2524 -0.5352  0.0670
 1214TIP3    H125277   0.881   3.406   1.394  1.1274 -1.2012 -0.9115
 1214TIP3    H225278   1.022   3.459   1.394  1.5519 -2.2568  0.3975
 1215TIP3   OH225279   3.497   6.549   1.891 -0.2002  0.1358  0.0320
 1215TIP3    H125280   3.530   6.634   1.864  3.5659 -1.1661 -0.0422
 1215TIP3    H225281   3.478   6.559   1.985  0.5512  0.9472  0.1054
 1216TIP3   OH225282   4.798   4.427   7.897 -0.3879 -0.4338  0.1043
 1216TIP3    H125283   4.726   4.418   7.959  0.1894 -1.7491  0.6152
 1216TIP3    H225284   4.863   4.362   7.925  2.1316  2.3177  1.1445
 1217TIP3   OH225285   0.039   0.173   0.025  0.3505  0.0655 -0.1574
 1217TIP3    H125286  -0.034   0.187   0.084  0.2397 -0.1393 -0.2455
 1217TIP3    H225287   0.014   0.217  -0.056  0.3070 -0.0401 -0.2012
 1218TIP3   OH225288   4.254   0.147   0.922  0.1900 -0.4379 -0.3423
 1218TIP3    H125289   4.165   0.114   0.906 -0.3851  0.4972  0.8162
 1218TIP3    H225290   4.268   0.133   1.015  1.0799 -0.1275 -0.4256
 1219TIP3   OH225291   0.662   5.863   1.890  0.2110  0.3769 -0.4670
 1219TIP3    H125292   0.709   5.944   1.872 -0.2403  0.2588 -2.5026
 1219TIP3    H225293   0.620   5.876   1.975  3.0847  0.8421  0.9693
 1220TIP3   OH225294   3.724   4.356   8.047 -0.2026  0.3276  0.1397
 1220TIP3    H125295   3.637   4.321   8.027  0.6706 -0.3397 -3.1291
 1220TIP3    H225296   3.784   4.286   8.022  1.3486  1.5031  0.4628
 1221TIP3   OH225297   0.448   6.043   0.917 -0.3651 -0.0205 -0.1018
 1221TIP3    H125298   0.447   6.048   1.012 -0.8274  2.0158 -0.1783
 1221TIP3    H225299   0.385   5.973   0.896 -0.4170 -0.3379  1.0633
 1222TIP3   OH225300   0.336   3.152   8.278 -0.0083  0.0488 -0.1955
 1222TIP3    H125301   0.369   3.115   8.196  1.5927 -0.0699  0.4784
 1222TIP3    H225302   0.316   3.244   8.256 -0.6356 -0.2538 -0.9647
 1223TIP3   OH225303   0.166   2.143   7.757  0.4418 -0.1657 -0.3889
 1223TIP3    H125304   0.198   2.053   7.768  1.8080  0.5393  2.0177
 1223TIP3    H225305   0.118   2.162   7.838 -1.1401  0.8114 -1.4935
 1224TIP3   OH225306   6.284   5.823   7.229  0.0656  0.4420  0.5137
 1224TIP3    H125307   6.372   5.806   7.194  0.5149  1.6009  1.0029
 1224TIP3    H225308   6.274   5.918   7.223 -1.2539  0.3053  0.2742
 1225TIP3   OH225309   0.620   1.734   0.639 -0.4975 -0.0902 -0.5005
 1225TIP3    H125310   0.698   1.689   0.669 -0.1725 -0.7066 -2.2040
 1225TIP3    H225311   0.557   1.722   0.711  1.3756  1.7693  1.6263
 1226TIP3   OH225312   3.646   2.791   0.622  0.0007  0.4937  0.0224
 1226TIP3    H125313   3.592   2.834   0.688  0.1128 -0.9553  1.0976
 1226TIP3    H225314   3.705   2.734   0.671  0.5401 -0.1301 -1.2830
 1227TIP3   OH225315   4.473   0.668   7.844 -0.4031 -0.4572 -0.0488
 1227TIP3    H125316   4.500   0.711   7.763 -0.6378 -3.1010 -1.6492
 1227TIP3    H225317   4.554   0.657   7.894  0.0375 -0.4219 -0.7497
 1228TIP3   OH225318   1.181   0.591   0.942 -0.0935  0.4503 -0.4104
 1228TIP3    H125319   1.096   0.618   0.908 -0.4060 -0.8610 -0.7307
 1228TIP3    H225320   1.212   0.525   0.879  0.5102 -0.0921  0.4365
 1229TIP3   OH225321   2.129   6.632   0.102 -0.7485  0.0028  0.1261
 1229TIP3    H125322   2.214   6.592   0.120 -0.0083 -0.2375 -3.3188
 1229TIP3    H225323   2.148   6.726   0.099 -1.3206  0.2484  2.4448
 1230TIP3   OH225324   0.203   0.543   7.574 -0.0295  0.1134  0.4883
 1230TIP3    H125325   0.164   0.456   7.576 -0.8448  0.1608 -3.7480
 1230TIP3    H225326   0.293   0.531   7.603 -0.2560 -2.0277  0.4125
 1231TIP3   OH225327   1.135   3.116   0.339  0.1667  0.2834 -0.0049
 1231TIP3    H125328   1.219   3.120   0.294  0.5794  1.3424  0.8112
 1231TIP3    H225329   1.105   3.026   0.326  0.7862  0.2433 -1.4202
 1232TIP3   OH225330   2.505   2.043   2.420 -0.4851  0.4697 -0.3196
 1232TIP3    H125331   2.498   1.974   2.354 -0.1487 -0.2241  0.3656
 1232TIP3    H225332   2.592   2.033   2.457 -0.8003  0.6285  0.4797
 1233TIP3   OH225333   1.205   5.625   8.003  0.4106  0.4585  0.0585
 1233TIP3    H125334   1.279   5.676   8.037  0.8268  0.5066 -0.8748
 1233TIP3    H225335   1.127   5.668   8.039  0.8386 -0.3453  2.0869
 1234TIP3   OH225336   6.812   4.030   2.197  0.0650 -0.0420 -0.0050
 1234TIP3    H125337   6.774   4.065   2.278  0.5912 -0.6528  0.5142
 1234TIP3    H225338   6.902   4.010   2.220 -0.0549 -1.1511 -0.4605
 1235TIP3   OH225339   1.675   1.240   7.419  0.2799 -1.1013  0.5046
 1235TIP3    H125340   1.614   1.179   7.379 -0.1834  0.4153 -1.2337
 1235TIP3    H225341   1.645   1.326   7.390  3.5832 -0.3104 -1.0019
 1236TIP3   OH225342   1.744   0.554   1.728 -0.1164  0.1639  0.8578
 1236TIP3    H125343   1.663   0.508   1.706 -0.5053  0.5148  1.5276
 1236TIP3    H225344   1.786   0.498   1.794  0.3104 -0.1290  0.3553
 1237TIP3   OH225345   2.324   3.066   6.951 -0.3653 -0.4040  0.4280
 1237TIP3    H125346   2.296   3.157   6.943  0.2492 -0.1066  1.4583
 1237TIP3    H225347   2.393   3.056   6.885  0.6815  0.3635  1.3550
 1238TIP3   OH225348   5.890   6.057   6.947  0.0676 -0.0371  0.4046
 1238TIP3    H125349   5.835   5.978   6.954  0.2169 -0.2680 -0.9293
 1238TIP3    H225350   5.835   6.120   6.900  1.0980 -0.4369 -1.3992
 1239TIP3   OH225351   0.368   0.005   1.180  0.4074 -0.0192  0.1665
 1239TIP3    H125352   0.310   0.019   1.255  0.6266 -0.2081  0.3754
 1239TIP3    H225353   0.443   0.062   1.197  0.8347 -0.6733  0.5082
 1240TIP3   OH225354   1.530   3.338   8.158  0.6410  0.1730  0.4002
 1240TIP3    H125355   1.444   3.299   8.148  0.0267  1.4908  0.3449
 1240TIP3    H225356   1.573   3.322   8.074 -0.2905  1.2164 -0.3031
 1241TIP3   OH225357   0.560   1.822   6.476  0.7814 -0.7362 -1.1136
 1241TIP3    H125358   0.596   1.842   6.390 -1.1397 -1.2599 -2.1043
 1241TIP3    H225359   0.469   1.852   6.472  0.1336 -2.3667  0.0894
 1242TIP3   OH225360   4.312   0.648   2.478  0.1392  0.3502 -0.2622
 1242TIP3    H125361   4.322   0.735   2.517 -0.3543 -0.0880  0.8839
 1242TIP3    H225362   4.382   0.595   2.518 -1.3421 -0.5182  1.3078
 1243TIP3   OH225363   3.561   5.616   6.438 -0.0422  0.5072  0.7777
 1243TIP3    H125364   3.533   5.707   6.444 -3.0578 -0.2932  0.3094
 1243TIP3    H225365   3.625   5.616   6.367 -2.5366  1.8220 -1.6740
 1244TIP3   OH225366   1.545   6.577   6.756  0.4951 -0.2350 -0.2731
 1244TIP3    H125367   1.517   6.519   6.685  1.2699 -0.8202 -0.1144
 1244TIP3    H225368   1.640   6.581   6.747  0.5966 -0.2577  0.6845
 1245TIP3   OH225369   1.281   3.583   2.076  0.1080  0.6631  0.3807
 1245TIP3    H125370   1.189   3.560   2.081 -0.1333  1.6352  0.6650
 1245TIP3    H225371   1.283   3.658   2.016  0.7999  0.2192 -0.1693
 1246TIP3   OH225372   0.281   5.639   8.167 -0.2644  0.0105 -0.5257
 1246TIP3    H125373   0.361   5.671   8.126  0.6072  0.2473  1.2724
 1246TIP3    H225374   0.273   5.689   8.248 -1.1920 -1.3206  0.2547
 1247TIP3   OH225375   4.747   0.517   0.696 -0.6218  0.0407 -0.2500
 1247TIP3    H125376   4.810   0.558   0.638  1.6204  0.1667  2.0998
 1247TIP3    H225377   4.662   0.535   0.656  0.5657  3.0037 -1.7129
 1248TIP3   OH225378   6.622   3.863   8.291  0.6967  0.1077  0.1235
 1248TIP3    H125379   6.586   3.881   8.205  1.8783  1.3147 -0.1569
 1248TIP3    H225380   6.547   3.836   8.344  0.2094 -2.4327 -1.7033
 1249TIP3   OH225381   1.266   1.666   7.261  0.7518 -0.9269 -0.0486
 1249TIP3    H125382   1.202   1.594   7.264 -0.1038 -0.2009 -0.4934
 1249TIP3    H225383   1.283   1.679   7.168 -1.9222  1.8417 -0.2994
 1250TIP3   OH225384   4.622   4.145   0.541  0.1336  0.1560 -0.2952
 1250TIP3    H125385   4.552   4.184   0.489  1.4910  2.2131 -0.6512
 1250TIP3    H225386   4.631   4.056   0.506  0.1631  1.0661 -2.7648
 1251TIP3   OH225387   0.667   5.180   0.105  0.3591 -0.7704 -0.3271
 1251TIP3    H125388   0.602   5.113   0.085 -1.4720  1.3484 -1.9469
 1251TIP3    H225389   0.663   5.190   0.200 -2.3842 -0.1328 -0.4336
 1252TIP3   OH225390   2.971   2.795   2.336 -0.1213  0.0185 -0.3801
 1252TIP3    H125391   2.981   2.731   2.407  1.3786  1.3476  0.6834
 1252TIP3    H225392   3.019   2.872   2.366  0.3601  0.7300 -2.7552
 1253TIP3   OH225393   3.376   3.606   7.253 -0.6488 -0.1046  0.0700
 1253TIP3    H125394   3.394   3.515   7.274 -0.4104 -0.2515 -0.7403
 1253TIP3    H225395   3.422   3.656   7.320  1.0524 -0.5318 -0.7214
 1254TIP3   OH225396   5.575   3.821   8.390 -0.2890  0.5486 -0.2424
 1254TIP3    H125397   5.629   3.778   8.325 -0.1227 -0.7145  0.7037
 1254TIP3    H225398   5.635   3.877   8.439 -0.0053 -0.1170  0.1816
 1255TIP3   OH225399   1.659   1.695   1.022 -0.5138 -0.2521 -0.1657
 1255TIP3    H125400   1.603   1.772   1.009  0.3751  0.4735  0.2061
 1255TIP3    H225401   1.645   1.642   0.944 -0.8035  0.5046 -0.6410
 1256TIP3   OH225402   4.185   0.106   2.223 -0.2817 -0.5618 -0.2834
 1256TIP3    H125403   4.128   0.102   2.147  0.9174  1.0243 -1.3206
 1256TIP3    H225404   4.228   0.020   2.225  2.3533  0.4804 -3.6361
 1257TIP3   OH225405   6.266   5.111   1.190  0.7022  0.4832 -0.3913
 1257TIP3    H125406   6.230   5.023   1.205  0.5678  0.6159  0.0870
 1257TIP3    H225407   6.306   5.106   1.103  1.0113 -0.1587 -0.2185
 1258TIP3   OH225408   0.814   6.065   1.382 -0.1430  0.3166 -0.1280
 1258TIP3    H125409   0.767   5.987   1.410 -0.8506  1.2810  1.5789
 1258TIP3    H225410   0.852   6.042   1.298 -0.1146 -1.9325  0.4471
 1259TIP3   OH225411   2.330   5.114   1.694  0.5599  0.4531 -0.0826
 1259TIP3    H125412   2.237   5.090   1.695  0.3505  0.8913 -2.6684
 1259TIP3    H225413   2.330   5.206   1.667  1.7560  0.3791 -0.3759
 1260TIP3   OH225414   0.915   4.844   1.223  0.2233  0.5316 -0.8090
 1260TIP3    H125415   0.840   4.893   1.256  0.4265  0.8956 -0.8836
 1260TIP3    H225416   0.953   4.802   1.300 -0.0450  0.3609 -0.7685
 1261TIP3   OH225417   4.234   5.440   2.002  0.0180 -1.1013  0.2620
 1261TIP3    H125418   4.161   5.435   2.063  0.0484 -1.2950  0.2848
 1261TIP3    H225419   4.299   5.380   2.038  0.3465 -0.6396  0.4495
 1262TIP3   OH225420   1.177   5.454   7.205  0.1501  0.8768 -0.2018
 1262TIP3    H125421   1.258   5.413   7.236 -1.2716 -0.7344  1.6251
 1262TIP3    H225422   1.130   5.478   7.285 -2.7209 -1.4746 -1.0152
 1263TIP3   OH225423   3.662   6.735   0.813 -0.1413  0.4235 -0.6338
 1263TIP3    H125424   3.635   6.794   0.742  0.6272 -0.2725 -1.5277
 1263TIP3    H225425   3.621   6.773   0.891 -3.0193 -0.0829 -1.7454
 1264TIP3   OH225426   6.835   2.978   0.772 -0.6467 -0.1411  0.4251
 1264TIP3    H125427   6.889   2.899   0.772  0.0193  0.3140  0.5887
 1264TIP3    H225428   6.833   3.005   0.680 -1.4936 -0.7569  0.2463
 1265TIP3   OH225429   1.335   1.813   1.869 -0.0239 -0.6977  0.3658
 1265TIP3    H125430   1.343   1.894   1.919 -0.2087  0.2903 -1.1269
 1265TIP3    H225431   1.420   1.770   1.877 -0.5300 -1.3848  2.7817
 1266TIP3   OH225432   6.867   5.396   1.207 -0.1747  0.5485  0.1180
 1266TIP3    H125433   6.894   5.360   1.292  0.0817 -0.6317 -0.4322
 1266TIP3    H225434   6.800   5.460   1.228 -0.1266  0.2617  1.2143
 1267TIP3   OH225435   4.824   2.102   7.605 -0.5139  0.0296  0.4614
 1267TIP3    H125436   4.816   2.039   7.533  0.6537  0.5765 -0.1801
 1267TIP3    H225437   4.790   2.184   7.568 -0.4506  0.1776  0.7322
 1268TIP3   OH225438   5.071   1.288   8.040 -0.2435  0.4915 -0.1038
 1268TIP3    H125439   5.116   1.326   8.116 -0.4832 -0.8583  0.7372
 1268TIP3    H225440   5.081   1.194   8.051 -1.0672  0.2492 -1.2829
 1269TIP3   OH225441   4.812   4.354   2.580 -0.3874  0.5685  0.4494
 1269TIP3    H125442   4.836   4.262   2.585 -0.5304  0.2680 -2.6832
 1269TIP3    H225443   4.722   4.354   2.547 -0.8413  1.8354  1.5882
 1270TIP3   OH225444   1.412   2.653   1.492 -0.0834 -0.1713  0.2953
 1270TIP3    H125445   1.407   2.579   1.432  0.2349  0.5402 -0.6389
 1270TIP3    H225446   1.334   2.705   1.473  0.1430  0.1840  0.3330
 1271TIP3   OH225447   3.004   0.434   1.458  0.1001  0.5345  0.3063
 1271TIP3    H125448   3.091   0.419   1.496  0.9457  1.2570 -1.2387
 1271TIP3    H225449   2.956   0.481   1.526  1.5261  1.7294  0.5412
 1272TIP3   OH225450   0.820   2.239   7.541 -0.0935  0.3485  0.1493
 1272TIP3    H125451   0.770   2.176   7.594 -0.2803 -0.5304 -1.0199
 1272TIP3    H225452   0.753   2.288   7.493  0.1140 -0.7854 -1.3709
 1273TIP3   OH225453   1.524   1.478   8.339 -0.0893  0.2824  0.3595
 1273TIP3    H125454   1.526   1.571   8.363  1.1179  0.0491  1.2585
 1273TIP3    H225455   1.438   1.447   8.370  0.2222  0.6957  1.6943
 1274TIP3   OH225456   2.695   2.291   6.704 -0.0735  0.2766 -0.2693
 1274TIP3    H125457   2.720   2.320   6.791 -1.7791  1.4613 -0.1244
 1274TIP3    H225458   2.741   2.208   6.692  0.8464  0.5034  1.4044
 1275TIP3   OH225459   4.224   5.901   6.432  0.0399 -0.4797  0.5124
 1275TIP3    H125460   4.234   5.984   6.386  0.1221 -0.3285  0.7953
 1275TIP3    H225461   4.307   5.891   6.480 -1.3380  1.2020  3.5759
 1276TIP3   OH225462   3.504   0.288   1.980  0.6815  0.4110  0.1121
 1276TIP3    H125463   3.417   0.251   1.962  0.6959  1.0485 -1.3658
 1276TIP3    H225464   3.565   0.231   1.933  0.9694  0.5794  0.2769
 1277TIP3   OH225465   3.846   3.363   1.211  0.0508 -0.4106  0.1105
 1277TIP3    H125466   3.826   3.292   1.272  1.6051 -0.9559  0.0107
 1277TIP3    H225467   3.884   3.320   1.135  1.7202  0.5713  0.3474
 1278TIP3   OH225468   5.345   6.258   6.740 -0.0963  0.5399 -0.2898
 1278TIP3    H125469   5.368   6.242   6.831  0.6515 -1.3254 -0.7730
 1278TIP3    H225470   5.380   6.346   6.722  0.0715  0.7826  1.0961
 1279TIP3   OH225471   1.950   3.145   0.364  0.2022 -0.0918  0.3336
 1279TIP3    H125472   2.034   3.130   0.407 -0.6109 -0.2419  1.9174
 1279TIP3    H225473   1.886   3.145   0.435 -1.2430 -0.7231 -0.9151
 1280TIP3   OH225474   6.615   1.400   1.495 -0.5867  0.0456 -0.3349
 1280TIP3    H125475   6.697   1.358   1.469 -0.4757  0.5127 -0.7727
 1280TIP3    H225476   6.547   1.338   1.470 -0.3588 -0.4289  0.2112
 1281TIP3   OH225477   5.585   4.241   2.030 -0.4166  0.4148 -0.0909
 1281TIP3    H125478   5.518   4.238   1.962 -1.0821  0.7898  0.5298
 1281TIP3    H225479   5.540   4.211   2.109  1.0029 -2.5384 -0.2771
 1282TIP3   OH225480   5.175   5.769   8.109  0.5586 -0.1923 -0.8364
 1282TIP3    H125481   5.270   5.779   8.110  0.3790  2.1030 -1.7848
 1282TIP3    H225482   5.151   5.772   8.016 -0.3399 -2.4196 -0.7440
 1283TIP3   OH225483   0.248   0.787   7.716  0.5518  0.5589  0.0910
 1283TIP3    H125484   0.185   0.718   7.736  0.9232  0.2108  0.0732
 1283TIP3    H225485   0.212   0.865   7.758  0.5811  0.1602  0.8856
 1284TIP3   OH225486   0.414   4.565   1.741  0.2441  0.2692 -0.7142
 1284TIP3    H125487   0.349   4.517   1.690  0.2745 -0.2933 -0.2181
 1284TIP3    H225488   0.400   4.657   1.716 -1.9922  0.3896  0.7760
 1285TIP3   OH225489   2.612   4.541   7.588  0.0532  0.3453  0.9149
 1285TIP3    H125490   2.683   4.582   7.538  0.3735 -0.5531  0.6042
 1285TIP3    H225491   2.549   4.611   7.602  0.5004  0.8995  0.2504
 1286TIP3   OH225492   4.929   5.335   1.209  0.0579  0.5231  0.4611
 1286TIP3    H125493   5.021   5.342   1.237  0.3504  1.0999 -0.5759
 1286TIP3    H225494   4.929   5.263   1.146 -0.1742  0.6131  0.3581
 1287TIP3   OH225495   0.159   1.565   7.157 -0.0059 -0.2702 -0.2614
 1287TIP3    H125496   0.097   1.518   7.212  0.4392 -0.0564  0.4493
 1287TIP3    H225497   0.214   1.613   7.219  1.3125 -1.0019 -0.8157
 1288TIP3   OH225498   0.007   1.286   8.270 -0.0986 -0.2389 -0.4562
 1288TIP3    H125499  -0.061   1.219   8.258 -2.4724  1.7792  0.6845
 1288TIP3    H225500   0.080   1.239   8.311 -1.5999 -2.1549  0.1834
 1289TIP3   OH225501   2.436   4.268   1.147  0.3101 -0.2617  0.1083
 1289TIP3    H125502   2.347   4.234   1.140  0.3170  0.0097 -1.8901
 1289TIP3    H225503   2.427   4.361   1.125  1.0879 -0.2697 -0.2846
 1290TIP3   OH225504   3.770   5.835   8.551 -0.4513 -0.1374 -0.1255
 1290TIP3    H125505   3.828   5.889   8.606  0.0408 -0.0235 -0.7400
 1290TIP3    H225506   3.687   5.883   8.550 -1.3554 -1.4162  2.6155
 1291TIP3   OH225507   3.849   2.054   1.336 -0.1402  0.2127  0.5054
 1291TIP3    H125508   3.851   2.021   1.426 -2.8214  1.4960  1.1638
 1291TIP3    H225509   3.784   2.125   1.339 -1.4899 -0.7209 -2.7696
 1292TIP3   OH225510   0.120   4.014   7.093 -0.1762 -0.6408 -0.2472
 1292TIP3    H125511   0.162   3.957   7.158  0.3456  1.0396  0.9631
 1292TIP3    H225512   0.054   4.062   7.143 -0.0863  0.3528 -1.0594
 1293TIP3   OH225513   2.327   6.860   0.293 -0.6337 -0.3490  0.5846
 1293TIP3    H125514   2.390   6.789   0.281 -0.0985 -0.2007  2.3225
 1293TIP3    H225515   2.349   6.899   0.377 -1.8672  0.9332  0.3608
 1294TIP3   OH225516   6.052   1.447   0.446  0.5516 -0.0059  0.0485
 1294TIP3    H125517   6.079   1.392   0.519 -0.1064 -0.9727 -0.4143
 1294TIP3    H225518   5.957   1.436   0.442  0.4612  0.8298 -0.3286
 1295TIP3   OH225519   5.741   5.597   6.750 -0.3797  0.1607  0.1042
 1295TIP3    H125520   5.724   5.511   6.711 -0.9466 -0.0707  0.8211
 1295TIP3    H225521   5.811   5.634   6.697  0.3854 -1.0481  0.2248
 1296TIP3   OH225522   2.482   4.626   7.102 -0.5421  0.0194  0.0108
 1296TIP3    H125523   2.539   4.616   7.178 -0.6883 -1.2960 -0.0265
 1296TIP3    H225524   2.531   4.683   7.043 -0.8294  1.8361  1.4583
 1297TIP3   OH225525   6.351   4.165   0.443  0.0944 -0.2381  0.1641
 1297TIP3    H125526   6.405   4.088   0.462  0.9448 -0.2366 -1.9555
 1297TIP3    H225527   6.285   4.134   0.382  0.0362  0.5814 -0.2051
 1298TIP3   OH225528   4.217   3.210   1.184 -0.0435 -0.9146 -0.1958
 1298TIP3    H125529   4.210   3.158   1.264 -1.4856  1.6457  1.4796
 1298TIP3    H225530   4.131   3.251   1.174  0.7942  0.5909 -1.8132
 1299TIP3   OH225531   6.266   4.199   8.545 -0.2910  0.2103  0.4747
 1299TIP3    H125532   6.259   4.286   8.506  2.5591 -0.8321 -2.9208
 1299TIP3    H225533   6.191   4.151   8.508 -1.7174  1.0472  2.1498
 1300TIP3   OH225534   4.664   4.010   0.912  0.2535  0.3407 -0.0561
 1300TIP3    H125535   4.591   4.007   0.850  0.1597 -1.1308  0.1045
 1300TIP3    H225536   4.650   3.935   0.969  0.8944  1.0968  1.1409
 1301TIP3   OH225537   6.782   4.599   1.768 -0.2528 -0.1783  0.4351
 1301TIP3    H125538   6.803   4.689   1.744 -1.9434  0.3229  0.7088
 1301TIP3    H225539   6.846   4.546   1.721  0.6600  1.1569  0.1395
 1302TIP3   OH225540   3.334   2.773   1.207  0.2794 -0.1255  0.0457
 1302TIP3    H125541   3.382   2.774   1.290 -1.9337 -1.1275  1.4480
 1302TIP3    H225542   3.348   2.684   1.173  1.1414  0.2678 -0.6794
 1303TIP3   OH225543   6.534   4.326   2.144  0.6956 -0.1014  0.1876
 1303TIP3    H125544   6.455   4.373   2.170 -0.1884 -1.8782  0.8668
 1303TIP3    H225545   6.530   4.243   2.190  2.0943 -0.9548 -1.0995
 1304TIP3   OH225546   2.471   3.368   7.322  0.3107  0.2560  0.1913
 1304TIP3    H125547   2.516   3.339   7.402 -1.6895  2.2497  2.1914
 1304TIP3    H225548   2.435   3.288   7.284  0.6618 -0.6645  1.7266
 1305TIP3   OH225549   2.514   4.849   8.206  0.4277 -0.4600 -0.5278
 1305TIP3    H125550   2.451   4.776   8.210 -1.1692  0.7918 -1.4519
 1305TIP3    H225551   2.471   4.920   8.253  2.1811 -0.2256  0.7865
 1306TIP3   OH225552   3.129   1.679   0.493  0.2705 -0.3724  0.0590
 1306TIP3    H125553   3.218   1.685   0.527  0.6631 -1.8602 -0.6072
 1306TIP3    H225554   3.128   1.735   0.415  0.3926  0.2408  0.4947
 1307TIP3   OH225555   5.241   0.312   1.317 -0.5466 -0.3240 -0.2376
 1307TIP3    H125556   5.169   0.356   1.272 -1.4592  0.5920  1.9623
 1307TIP3    H225557   5.313   0.376   1.314 -0.1153 -0.8363 -1.5578
 1308TIP3   OH225558   6.272   6.056   7.990  0.0765  0.3131  0.0083
 1308TIP3    H125559   6.250   6.128   8.049  0.1125  0.1117  0.2676
 1308TIP3    H225560   6.188   6.022   7.961  0.0607  0.7507 -0.4707
 1309TIP3   OH225561   1.323   3.797   1.659 -0.6324 -1.1217 -0.4713
 1309TIP3    H125562   1.282   3.820   1.742 -1.3745 -1.1806 -0.8054
 1309TIP3    H225563   1.339   3.703   1.664 -0.0986 -1.0177 -0.1580
 1310TIP3   OH225564   4.150   4.140   7.315  0.4967  0.6102  0.0164
 1310TIP3    H125565   4.073   4.152   7.259  0.5108 -0.0750 -0.1548
 1310TIP3    H225566   4.136   4.199   7.389  0.0704  0.8895 -0.2847
 1311TIP3   OH225567   1.893   2.364   1.930 -0.3012  0.2512  0.1702
 1311TIP3    H125568   1.899   2.447   1.882  2.3237 -0.1483 -0.3129
 1311TIP3    H225569   1.894   2.391   2.022  1.2942  0.7671  0.0279
 1312TIP3   OH225570   2.678   1.918   1.319  0.0591 -0.3932 -0.7659
 1312TIP3    H125571   2.718   1.985   1.374 -1.7938  0.0398  0.1099
 1312TIP3    H225572   2.749   1.889   1.261  1.1214  1.7046 -0.6052
 1313TIP3   OH225573   5.546   3.863   7.741  0.7152 -0.1379 -0.8557
 1313TIP3    H125574   5.578   3.927   7.805  0.8378 -1.4416  0.4310
 1313TIP3    H225575   5.624   3.836   7.693  0.3922  2.0840 -2.7996
 1314TIP3   OH225576   3.576   2.977   0.308  0.2870 -0.9647  0.0206
 1314TIP3    H125577   3.482   2.963   0.321  0.1348  1.2429  1.8881
 1314TIP3    H225578   3.610   2.995   0.396  2.6539 -2.4967 -0.4867
 1315TIP3   OH225579   2.577   6.434   0.726 -0.4706 -0.1269 -0.4229
 1315TIP3    H125580   2.641   6.483   0.779 -0.7587  0.8512 -0.9480
 1315TIP3    H225581   2.513   6.500   0.699 -2.0651 -1.1917  0.6007
 1316TIP3   OH225582   6.408   3.495   6.704 -0.1213  0.2609 -0.1559
 1316TIP3    H125583   6.383   3.402   6.712  2.2301 -0.2898  2.0447
 1316TIP3    H225584   6.339   3.542   6.750 -1.4904 -0.2892 -1.5228
 1317TIP3   OH225585   2.674   4.938   1.324 -0.4268 -0.9703  0.2958
 1317TIP3    H125586   2.741   5.001   1.349 -1.6197  0.3053  0.3742
 1317TIP3    H225587   2.669   4.877   1.398 -0.3706 -0.2063  0.9431
 1318TIP3   OH225588   0.572   6.417   1.876 -0.0350  0.4225  0.0900
 1318TIP3    H125589   0.555   6.507   1.846  1.7963  1.3951  1.6840
 1318TIP3    H225590   0.504   6.399   1.940 -1.6382 -0.1782 -1.6945
 1319TIP3   OH225591   2.295   3.921   2.196  0.0412 -0.4096 -0.5259
 1319TIP3    H125592   2.339   4.004   2.216 -0.4748 -0.1616 -0.4187
 1319TIP3    H225593   2.366   3.863   2.168  0.4502 -0.0305 -0.2923
 1320TIP3   OH225594   4.223   1.974   7.724 -0.4339 -0.0058 -0.0190
 1320TIP3    H125595   4.317   1.993   7.718 -0.7685  1.6421 -0.6073
 1320TIP3    H225596   4.190   1.988   7.635 -1.4494  0.8171  0.4559
 1321TIP3   OH225597   0.490   5.702   1.017 -0.4293 -0.6401  0.4877
 1321TIP3    H125598   0.422   5.696   1.085 -0.9531  1.5331  0.2354
 1321TIP3    H225599   0.441   5.707   0.935  0.1457 -1.6227  0.0705
 1322TIP3   OH225600   1.945   0.501   1.539 -0.1001  0.2517 -0.6346
 1322TIP3    H125601   2.021   0.482   1.594 -2.1802 -0.8844  2.0693
 1322TIP3    H225602   1.872   0.504   1.599 -2.5639 -0.8042 -3.3421
 1323TIP3   OH225603   2.092   1.421   1.719  0.0407 -0.2386  1.0404
 1323TIP3    H125604   2.080   1.328   1.698  1.0732 -0.4579  1.3763
 1323TIP3    H225605   2.036   1.436   1.795 -0.5158 -0.4491  0.6844
 1324TIP3   OH225606   6.415   1.670   2.053  0.7165 -0.4844  0.0985
 1324TIP3    H125607   6.373   1.756   2.049  3.7489  1.0913 -0.2051
 1324TIP3    H225608   6.415   1.648   2.146 -2.0277 -1.3307  0.0147
 1325TIP3   OH225609   0.930   1.126   7.502 -0.1661 -0.2859 -0.2072
 1325TIP3    H125610   0.854   1.086   7.544 -1.2537  0.0436 -1.7419
 1325TIP3    H225611   0.926   1.095   7.411  2.8543 -2.0774  0.1562
 1326TIP3   OH225612   0.389   2.611   7.350 -0.7889 -0.1721  0.3817
 1326TIP3    H125613   0.407   2.550   7.421  2.1204 -0.0845 -0.1780
 1326TIP3    H225614   0.391   2.697   7.390 -0.9132 -0.2232  0.4971
 1327TIP3   OH225615   6.646   4.355   2.498  0.0568  0.2190  0.9176
 1327TIP3    H125616   6.551   4.351   2.500 -0.1098  2.4259  2.8946
 1327TIP3    H225617   6.667   4.435   2.547  2.9681 -0.7820  1.4945
 1328TIP3   OH225618   0.128   5.951   7.331  0.1042 -0.8712 -0.5413
 1328TIP3    H125619   0.137   6.002   7.412  0.6533 -1.5830 -0.1418
 1328TIP3    H225620   0.045   5.905   7.341 -2.2896  2.5765 -2.4501
 1329TIP3   OH225621   5.652   1.281   0.229  0.7029  0.0712  0.2950
 1329TIP3    H125622   5.598   1.349   0.189  1.2199  1.0857  1.2616
 1329TIP3    H225623   5.658   1.213   0.163  1.7106  1.7660 -1.4797
 1330TIP3   OH225624   6.248   5.528   0.481  0.4275 -0.1771  0.3354
 1330TIP3    H125625   6.340   5.510   0.501  0.0930 -3.4779 -0.5243
 1330TIP3    H225626   6.199   5.459   0.525 -1.6509  1.2253  0.3932
 1331TIP3   OH225627   5.315   0.650   7.891 -0.1746 -0.1324  0.1374
 1331TIP3    H125628   5.359   0.589   7.950 -1.2323 -0.5913  0.4698
 1331TIP3    H225629   5.325   0.611   7.804 -0.9919 -0.8998  0.3679
 1332TIP3   OH225630   2.238   4.368   7.501  0.0975 -0.5373  0.0123
 1332TIP3    H125631   2.265   4.441   7.446  0.3325 -1.1067 -0.6486
 1332TIP3    H225632   2.244   4.401   7.590  2.0496 -0.3285 -0.1553
 1333TIP3   OH225633   5.423   0.881   1.983 -0.3561  0.1806 -0.0633
 1333TIP3    H125634   5.481   0.957   1.988 -0.9846  0.5833  2.0289
 1333TIP3    H225635   5.450   0.836   1.903  3.0932  0.1515  0.9427
 1334TIP3   OH225636   2.811   0.849   1.026 -0.1143  1.3159  0.3205
 1334TIP3    H125637   2.903   0.832   1.043  0.3367  3.2120 -0.0844
 1334TIP3    H225638   2.770   0.762   1.026  1.6140  0.4766  0.7352
 1335TIP3   OH225639   5.227   3.778   6.233  0.0154  0.7436 -0.5003
 1335TIP3    H125640   5.132   3.780   6.224  0.1541  1.5612 -2.2706
 1335TIP3    H225641   5.252   3.869   6.247  0.6083  0.7499 -1.4409
 1336TIP3   OH225642   5.399   3.901   0.383 -0.1756 -0.7112 -0.2317
 1336TIP3    H125643   5.416   3.820   0.431 -0.6225  0.4915  2.1541
 1336TIP3    H225644   5.328   3.880   0.323  0.7051 -2.4299 -0.7098
 1337TIP3   OH225645   0.465   1.421   7.683 -0.0684 -0.4130  0.4776
 1337TIP3    H125646   0.560   1.423   7.669 -0.1270  2.0625 -0.1178
 1337TIP3    H225647   0.446   1.330   7.706  2.4503 -0.9670  0.7090
 1338TIP3   OH225648   4.982   4.602   1.419  0.0033 -0.4417 -0.0693
 1338TIP3    H125649   4.918   4.659   1.376  0.7361 -0.6361 -1.4659
 1338TIP3    H225650   5.067   4.633   1.388  0.6531  0.0596  2.0656
 1339TIP3   OH225651   3.281   4.559   1.036  0.4277  0.7446  0.4499
 1339TIP3    H125652   3.210   4.604   0.989  0.2320 -0.9333 -0.9578
 1339TIP3    H225653   3.253   4.468   1.041  0.8521  0.6726  3.1721
 1340TIP3   OH225654   5.699   0.097   1.836  0.4256 -0.0174  0.4071
 1340TIP3    H125655   5.751   0.025   1.874  1.5612  0.4730 -0.1598
 1340TIP3    H225656   5.616   0.094   1.884 -0.2573 -2.7878 -0.7790
 1341TIP3   OH225657   6.756   4.325   8.004 -0.1484 -0.4268  0.7888
 1341TIP3    H125658   6.812   4.356   8.074  3.1220 -2.0985 -0.8631
 1341TIP3    H225659   6.737   4.234   8.027 -2.6342  0.1868  1.4794
 1342TIP3   OH225660   1.202   0.057   7.572  0.0971  0.1161  0.2849
 1342TIP3    H125661   1.231  -0.034   7.579  1.6491  0.6015  0.6746
 1342TIP3    H225662   1.242   0.100   7.648  0.9345  1.4898 -0.8769
 1343TIP3   OH225663   5.857   3.653   1.231  0.0861  0.5350 -0.2791
 1343TIP3    H125664   5.852   3.557   1.225 -0.1721  0.5096  0.2641
 1343TIP3    H225665   5.890   3.669   1.319 -0.8246  0.9671 -0.0089
 1344TIP3   OH225666   6.796   2.655   0.215  0.1710  0.1174  0.0145
 1344TIP3    H125667   6.782   2.741   0.175 -0.2329 -0.1379 -0.3983
 1344TIP3    H225668   6.821   2.598   0.142 -0.2171 -0.2692  0.1775
 1345TIP3   OH225669   2.095   3.986   8.364  0.2238  0.2059 -0.0647
 1345TIP3    H125670   2.004   4.014   8.349  0.5686  0.6430 -1.4362
 1345TIP3    H225671   2.114   4.015   8.453 -0.9901  0.0931  0.2507
 1346TIP3   OH225672   5.080   4.440   1.039 -0.0302  0.2846 -0.1678
 1346TIP3    H125673   5.163   4.486   1.050  1.6794 -2.3376 -1.1012
 1346TIP3    H225674   5.047   4.470   0.955  1.0624 -0.1258 -0.7665
 1347TIP3   OH225675   1.337   0.922   0.834 -0.1290  0.4623 -0.0332
 1347TIP3    H125676   1.344   1.015   0.854  1.0474  0.6903 -1.4152
 1347TIP3    H225677   1.386   0.910   0.754  0.0642 -1.4398  0.3157
 1348TIP3   OH225678   5.870   5.685   8.004  0.1424  0.4837 -0.1588
 1348TIP3    H125679   5.857   5.667   7.911 -1.0798 -0.1240  0.1086
 1348TIP3    H225680   5.824   5.767   8.018 -2.6250 -1.0521  0.5345
 1349TIP3   OH225681   0.982   3.652   2.237 -0.3435 -0.2035 -0.3802
 1349TIP3    H125682   0.921   3.639   2.310 -1.3255 -0.8912 -1.2911
 1349TIP3    H225683   0.958   3.584   2.174 -0.0677  0.8945 -1.7056
 1350TIP3   OH225684   1.892   5.941   2.514 -0.1099  0.8305  0.6208
 1350TIP3    H125685   1.913   6.033   2.529  0.2167  1.1122 -1.2209
 1350TIP3    H225686   1.969   5.894   2.545  0.4089  1.3265  0.1227
 1351TIP3   OH225687   2.344   4.054   6.930  0.1640 -0.5875  0.0903
 1351TIP3    H125688   2.302   3.991   6.988  0.1815  0.3785  1.1792
 1351TIP3    H225689   2.297   4.045   6.847  0.2067 -2.0567  0.2094
 1352TIP3   OH225690   4.790   6.592   0.113 -0.2001  0.4312  0.5275
 1352TIP3    H125691   4.765   6.523   0.174 -0.6275 -0.1295 -0.2676
 1352TIP3    H225692   4.884   6.605   0.128 -0.3994  0.6808  1.6625
 1353TIP3   OH225693   0.762   2.052   7.713 -0.1466  0.5983  0.2443
 1353TIP3    H125694   0.689   2.019   7.764  0.4077 -0.1936  0.5379
 1353TIP3    H225695   0.806   1.974   7.680  1.6522  0.9825  1.6159
 1354TIP3   OH225696   2.039   3.907   6.302 -0.6752 -0.3980  0.4386
 1354TIP3    H125697   2.126   3.881   6.332  0.0696 -0.9666 -1.9422
 1354TIP3    H225698   2.034   4.000   6.321  0.5408 -0.3184  0.4787
 1355TIP3   OH225699   5.642   2.160   7.738 -0.4194 -0.2423 -0.1121
 1355TIP3    H125700   5.558   2.203   7.754  0.8700  2.1317  0.7947
 1355TIP3    H225701   5.693   2.225   7.689  1.0139 -1.4736 -0.3303
 1356TIP3   OH225702   3.799   5.677   8.121  0.4388  0.1651 -0.4215
 1356TIP3    H125703   3.778   5.591   8.157 -0.5070  0.8960  0.8723
 1356TIP3    H225704   3.757   5.739   8.181  0.0983  1.5047 -1.9561
 1357TIP3   OH225705   0.035   6.427   0.526 -0.1603 -0.5338 -0.2703
 1357TIP3    H125706  -0.054   6.450   0.498  0.6741 -0.8278 -3.5707
 1357TIP3    H225707   0.071   6.510   0.557 -0.7323  0.2644 -1.6000
 1358TIP3   OH225708   6.810   5.598   2.794  0.1170 -0.2642  0.3336
 1358TIP3    H125709   6.825   5.579   2.702 -1.2537 -0.7457  0.1948
 1358TIP3    H225710   6.716   5.584   2.807  0.2152  0.1964  1.7063
 1359TIP3   OH225711   1.367   3.193   0.162  0.9717  0.3471 -0.0917
 1359TIP3    H125712   1.428   3.127   0.196  2.3530  0.7014 -1.8057
 1359TIP3    H225713   1.389   3.273   0.210 -0.5249 -0.2820  1.7940
 1360TIP3   OH225714   0.902   4.514   0.424 -0.0640  0.8691 -0.9564
 1360TIP3    H125715   0.989   4.478   0.405  0.7774  2.3518 -0.1127
 1360TIP3    H225716   0.880   4.478   0.510 -0.5766  0.0029 -1.4413
 1361TIP3   OH225717   2.815   6.175   1.347  0.0828  0.2847 -0.7482
 1361TIP3    H125718   2.875   6.101   1.347 -1.9653 -1.4833  0.7088
 1361TIP3    H225719   2.763   6.164   1.267  0.7969  1.0928 -1.3468
 1362TIP3   OH225720   3.178   1.800   0.210  0.2468 -0.2990 -0.2366
 1362TIP3    H125721   3.226   1.839   0.137 -0.5436  1.6587  0.2313
 1362TIP3    H225722   3.088   1.829   0.198  0.5256  2.4020  2.8981
 1363TIP3   OH225723   6.838   4.503   7.662 -0.0865 -0.2482  0.0814
 1363TIP3    H125724   6.929   4.472   7.661  0.2594  0.6549  1.1861
 1363TIP3    H225725   6.845   4.597   7.681 -1.3270 -0.6668  3.1278
 1364TIP3   OH225726   3.884   5.842   2.099  0.5463 -0.2826 -0.2226
 1364TIP3    H125727   3.815   5.778   2.080  0.1679  0.3038 -0.8590
 1364TIP3    H225728   3.964   5.803   2.063  0.5956 -1.0278  0.6364
 1365TIP3   OH225729   1.247   4.866   0.543  0.2754 -0.7307  0.3033
 1365TIP3    H125730   1.167   4.919   0.550  1.4224  1.0726  0.3917
 1365TIP3    H225731   1.231   4.808   0.468 -0.4617  0.7955 -0.7666
 1366TIP3   OH225732   4.685   2.062   6.977  0.2090 -0.0536 -0.0075
 1366TIP3    H125733   4.776   2.033   6.986 -0.2663 -1.3985  0.7515
 1366TIP3    H225734   4.686   2.153   7.006  0.8399 -0.8707  2.8914
 1367TIP3   OH225735   1.798   1.118   1.263 -0.1138  0.1715 -0.1338
 1367TIP3    H125736   1.827   1.106   1.353 -1.0864  0.1653  0.1886
 1367TIP3    H225737   1.770   1.210   1.258 -1.0762 -0.1065 -0.1168
 1368TIP3   OH225738   6.003   5.619   6.605  0.0927 -0.9208 -0.0506
 1368TIP3    H125739   6.024   5.527   6.591  2.6835 -0.5695  1.0479
 1368TIP3    H225740   6.048   5.665   6.534  0.4359 -0.3599  0.5247
 1369TIP3   OH225741   5.338   0.690   1.746  0.6210  0.1617 -0.6672
 1369TIP3    H125742   5.243   0.704   1.751  0.7579  1.3086 -0.8775
 1369TIP3    H225743   5.353   0.608   1.793 -0.4075  0.2549 -0.1437
 1370TIP3   OH225744   6.002   2.541   6.863 -0.2533 -0.0602  0.4083
 1370TIP3    H125745   6.040   2.472   6.809 -0.1096  0.6588 -0.4321
 1370TIP3    H225746   5.943   2.588   6.804 -0.8071  0.1729  1.1305
 1371TIP3   OH225747   2.271   1.073   0.301  0.1510 -0.1185 -0.1680
 1371TIP3    H125748   2.365   1.071   0.279  0.0652  1.0831 -0.7127
 1371TIP3    H225749   2.230   1.027   0.228  0.2440  0.1421 -0.3882
 1372TIP3   OH225750   3.749   4.514   1.864  0.1365 -0.0002 -0.7423
 1372TIP3    H125751   3.753   4.606   1.889  0.8039  0.4517 -2.4181
 1372TIP3    H225752   3.820   4.503   1.801 -0.7134 -1.3768 -1.5005
 1373TIP3   OH225753   5.458   3.054   2.488  0.2468 -0.7558 -0.3806
 1373TIP3    H125754   5.477   3.090   2.575 -2.8569  0.4641 -0.0727
 1373TIP3    H225755   5.411   2.973   2.505  0.5848 -1.0888 -0.9796
 1374TIP3   OH225756   3.889   3.031   0.337 -0.0832 -0.0444  0.0183
 1374TIP3    H125757   3.853   3.099   0.281  1.2135  0.9586  0.3490
 1374TIP3    H225758   3.943   3.078   0.400  2.7756 -1.4740 -1.1614
 1375TIP3   OH225759   6.079   2.740   1.265  0.3494  0.2492 -0.1939
 1375TIP3    H125760   6.051   2.683   1.194  0.7299 -0.0761 -0.0873
 1375TIP3    H225761   6.134   2.685   1.320  0.3482  0.5958  0.1601
 1376TIP3   OH225762   2.984   4.698   8.062 -0.4394  0.2335 -0.0932
 1376TIP3    H125763   2.971   4.675   7.970 -0.6973  1.2454 -0.3197
 1376TIP3    H225764   3.046   4.770   8.060  0.0475 -0.1610  0.5781
 1377TIP3   OH225765   4.417   1.002   1.368 -0.1727 -0.1637 -0.1844
 1377TIP3    H125766   4.322   1.007   1.378 -0.0403  1.6058  0.5344
 1377TIP3    H225767   4.452   1.067   1.429  1.5075 -0.7052 -0.4970
 1378TIP3   OH225768   6.322   2.853   7.160 -0.3253  0.2889  0.2168
 1378TIP3    H125769   6.354   2.896   7.080 -1.1981 -1.8327 -1.3648
 1378TIP3    H225770   6.243   2.902   7.183 -1.0130 -0.0785 -1.2395
 1379TIP3   OH225771   0.049   5.281   0.353  0.0033 -0.1100 -0.1897
 1379TIP3    H125772   0.057   5.356   0.295  0.1646 -0.5522 -0.7387
 1379TIP3    H225773   0.005   5.316   0.431  0.6041  0.6781 -0.2001
 1380TIP3   OH225774   0.342   2.680   2.202  0.4851 -0.0222  0.4207
 1380TIP3    H125775   0.432   2.708   2.183  0.8236 -0.7779  0.8867
 1380TIP3    H225776   0.294   2.696   2.121  1.4522 -1.3322 -0.4477
 1381TIP3   OH225777   4.197   4.423   7.367  0.1736  0.3995 -0.3390
 1381TIP3    H125778   4.249   4.429   7.447  2.2278  1.2117 -1.6505
 1381TIP3    H225779   4.248   4.366   7.310 -0.7221  0.6888 -1.4621
 1382TIP3   OH225780   3.998   3.824   8.266 -0.3364 -0.4278 -0.0921
 1382TIP3    H125781   4.033   3.838   8.354  0.1717 -1.3201 -0.1443
 1382TIP3    H225782   4.074   3.796   8.214 -0.4709  0.8168 -1.0018
 1383TIP3   OH225783   5.316   2.603   3.002  0.1015 -0.9361  0.6877
 1383TIP3    H125784   5.375   2.539   3.043  1.0207 -0.5679 -0.0363
 1383TIP3    H225785   5.368   2.683   2.995 -0.5833 -0.5130  0.2872
 1384TIP3   OH225786   1.491   2.713   2.476  0.2766 -0.3002 -0.8015
 1384TIP3    H125787   1.467   2.709   2.569 -2.1135  0.6987 -1.3142
 1384TIP3    H225788   1.443   2.788   2.442  1.5418 -0.3155 -2.7606
 1385TIP3   OH225789   5.686   0.192   8.515 -0.2486  0.0495  0.3215
 1385TIP3    H125790   5.744   0.120   8.492  0.8106  0.0033  2.8089
 1385TIP3    H225791   5.610   0.150   8.556 -1.2409  0.2093 -1.2865
 1386TIP3   OH225792   2.356   0.969   0.830  1.1124  0.2917  0.1764
 1386TIP3    H125793   2.389   1.036   0.890 -2.6608  0.7990  1.9427
 1386TIP3    H225794   2.324   1.018   0.754  1.9129  0.0715 -0.3113
 1387TIP3   OH225795   6.648   5.158   7.128  0.0884  0.5306 -0.4647
 1387TIP3    H125796   6.707   5.099   7.082  0.8821  0.0876  1.0394
 1387TIP3    H225797   6.608   5.103   7.196 -0.4763  1.3108 -0.1522
 1388TIP3   OH225798   6.844   2.660   7.422  0.1059  0.3311 -0.6928
 1388TIP3    H125799   6.936   2.657   7.446 -0.1998 -0.5287  0.4160
 1388TIP3    H225800   6.797   2.639   7.502 -1.0648  0.7409 -1.2456
 1389TIP3   OH225801   2.685   4.298   7.452  0.3559 -0.0082  0.1822
 1389TIP3    H125802   2.599   4.286   7.413  0.1130 -0.2047  0.7598
 1389TIP3    H225803   2.679   4.382   7.498  0.2670 -0.2983  0.7190
 1390TIP3   OH225804   1.668   0.428   0.136  0.0213  0.4879 -0.1110
 1390TIP3    H125805   1.597   0.363   0.131 -1.2284  1.6396  1.5881
 1390TIP3    H225806   1.740   0.381   0.176 -0.6155 -0.0624  0.4121
 1391TIP3   OH225807   5.120   5.596   2.062 -0.5042 -0.1962 -0.9853
 1391TIP3    H125808   5.203   5.588   2.109 -1.0510 -0.3607 -0.0127
 1391TIP3    H225809   5.087   5.683   2.086 -0.4464  0.0238 -1.6682
 1392TIP3   OH225810   3.021   6.018   7.884 -0.6180  0.4352 -0.2574
 1392TIP3    H125811   2.934   5.978   7.888 -1.2480  1.7251 -0.5530
 1392TIP3    H225812   3.011   6.091   7.823  0.7189  0.5160 -0.4103
 1393TIP3   OH225813   5.899   4.728   6.809 -0.2318  0.0201  0.1014
 1393TIP3    H125814   5.957   4.729   6.886 -0.3392  1.5857  0.2090
 1393TIP3    H225815   5.822   4.778   6.837  0.4668  2.1817 -1.5100
 1394TIP3   OH225816   5.908   1.840   2.829  0.1552 -0.2982  0.4881
 1394TIP3    H125817   5.957   1.919   2.850 -0.3967 -0.2610  1.7312
 1394TIP3    H225818   5.859   1.862   2.750  0.1684  0.5397  0.7053
 1395TIP3   OH225819   3.740   5.305   1.029 -0.1183  0.0500  0.2983
 1395TIP3    H125820   3.813   5.280   1.086  0.1967 -0.4056 -0.2913
 1395TIP3    H225821   3.779   5.309   0.942 -0.4980  1.1499  0.1690
 1396TIP3   OH225822   3.602   1.016   8.455  0.1275  0.4549  0.3416
 1396TIP3    H125823   3.565   1.038   8.369 -0.5901  0.5930  0.6757
 1396TIP3    H225824   3.577   1.090   8.511  0.7713  0.4656  0.6204
 1397TIP3   OH225825   6.058   5.064   8.169  0.2206 -0.0757 -0.2281
 1397TIP3    H125826   6.136   5.027   8.209 -0.9452 -1.3104  1.0228
 1397TIP3    H225827   6.067   5.043   8.076  0.8935 -1.1363  0.0529
 1398TIP3   OH225828   0.333   1.367   6.934 -0.6738 -0.0173 -0.5724
 1398TIP3    H125829   0.341   1.340   6.842  0.2702  1.1572 -0.8735
 1398TIP3    H225830   0.423   1.369   6.966 -0.9835 -0.2355  0.3315
 1399TIP3   OH225831   5.458   4.188   1.753 -0.4587  0.3482 -0.0968
 1399TIP3    H125832   5.464   4.118   1.819 -0.4399  0.4122 -0.0309
 1399TIP3    H225833   5.368   4.184   1.722 -0.5842  0.5865  0.2283
 1400TIP3   OH225834   3.126   2.198   6.704  0.0438 -0.8149  0.5963
 1400TIP3    H125835   3.167   2.138   6.767 -0.6577 -1.1192  0.7809
 1400TIP3    H225836   3.173   2.183   6.622 -0.2055 -1.7302  0.6099
 1401TIP3   OH225837   5.953   2.190   7.394 -0.6492 -0.7523  0.0880
 1401TIP3    H125838   5.895   2.217   7.323  0.7473  0.1279 -0.7606
 1401TIP3    H225839   6.035   2.235   7.376 -0.2337 -0.5548  2.2488
 1402TIP3   OH225840   0.388   0.998   1.417 -0.2126  0.5134 -0.3536
 1402TIP3    H125841   0.371   0.963   1.505 -0.7972 -1.1219 -1.0834
 1402TIP3    H225842   0.459   0.943   1.383  0.0853  1.2096 -0.8695
 1403TIP3   OH225843   5.464   5.973   6.927 -0.5417 -0.3417  0.0148
 1403TIP3    H125844   5.522   5.953   7.001 -0.4767  2.1992  0.7421
 1403TIP3    H225845   5.418   6.052   6.953 -0.0830  1.0278 -2.9024
 1404TIP3   OH225846   5.014   5.469   7.640 -0.1368  0.0925  0.1852
 1404TIP3    H125847   4.954   5.539   7.614 -0.6268 -0.9130 -1.6322
 1404TIP3    H225848   4.957   5.398   7.670  0.0571 -0.8742 -1.5616
 1405TIP3   OH225849   1.835   2.526   8.278  0.2352  0.2415  0.3557
 1405TIP3    H125850   1.781   2.602   8.296 -0.5218 -0.4415  1.0452
 1405TIP3    H225851   1.808   2.461   8.343  0.5135 -0.7844 -0.5223
 1406TIP3   OH225852   1.485   3.461   0.791  0.0931  0.7401  0.0012
 1406TIP3    H125853   1.506   3.371   0.764 -1.1497 -0.0230  1.4317
 1406TIP3    H225854   1.565   3.493   0.832 -0.2539 -0.7459  1.9701
 1407TIP3   OH225855   0.341   6.864   7.935  0.3400  0.6053  0.1848
 1407TIP3    H125856   0.370   6.955   7.940  0.7851  0.5909 -1.4239
 1407TIP3    H225857   0.414   6.814   7.971  0.2966  0.8648  0.6284
 1408TIP3   OH225858   1.838   3.272   0.637  0.2977  0.2265 -0.0457
 1408TIP3    H125859   1.742   3.272   0.643  0.0957  0.0213 -2.4599
 1408TIP3    H225860   1.864   3.189   0.678 -0.2797  1.3650  2.9004
 1409TIP3   OH225861   2.513   5.779   7.554  0.2101 -0.4101  0.2877
 1409TIP3    H125862   2.494   5.710   7.490  1.6368 -0.9516  0.4067
 1409TIP3    H225863   2.445   5.844   7.540 -0.6556 -1.4384 -0.4339
 1410TIP3   OH225864   4.153   4.645   6.410  0.5319  0.2232 -0.4131
 1410TIP3    H125865   4.059   4.635   6.423  0.5586  0.8141  0.2736
 1410TIP3    H225866   4.170   4.602   6.327 -0.6596  1.8215 -1.5392
 1411TIP3   OH225867   4.757   4.881   0.856 -0.8299  0.1164 -0.5150
 1411TIP3    H125868   4.752   4.866   0.950 -0.3051 -1.5990 -0.7316
 1411TIP3    H225869   4.666   4.880   0.827 -0.9428 -0.2460 -0.1537
 1412TIP3   OH225870   5.459   0.789   1.346 -0.5600  0.3761 -0.1665
 1412TIP3    H125871   5.464   0.805   1.440  0.7998  2.7582 -0.5699
 1412TIP3    H225872   5.410   0.863   1.311  3.0920  2.3085 -1.7795
 1413TIP3   OH225873   3.451   2.028   2.093 -0.5251 -0.1369 -0.4480
 1413TIP3    H125874   3.471   1.971   2.167  1.1900  0.1208 -0.6767
 1413TIP3    H225875   3.447   2.116   2.131  2.9643  0.3641 -0.9552
 1414TIP3   OH225876   0.464   2.960   1.447 -0.0323 -0.4505 -0.0980
 1414TIP3    H125877   0.436   3.042   1.406  0.5508  0.5294  1.3364
 1414TIP3    H225878   0.413   2.892   1.405 -0.4820  0.6505 -1.3899
 1415TIP3   OH225879   2.837   4.084   8.028  0.0457 -0.1170  0.2915
 1415TIP3    H125880   2.851   3.991   8.013 -1.8554 -0.2518 -0.9315
 1415TIP3    H225881   2.871   4.126   7.948  0.1321  0.1719  0.4774
 1416TIP3   OH225882   0.508   2.592   0.110 -0.3649 -0.1690  0.0396
 1416TIP3    H125883   0.416   2.567   0.104 -0.4334 -0.2231  1.1888
 1416TIP3    H225884   0.506   2.688   0.111 -0.2723 -0.1180 -1.7230
 1417TIP3   OH225885   3.098   0.551   8.600  0.5860 -0.0279  0.6789
 1417TIP3    H125886   3.068   0.466   8.631  1.2137 -0.2360  0.7416
 1417TIP3    H225887   3.194   0.547   8.609  0.6701  0.4408  0.0700
 1418TIP3   OH225888   0.543   0.531   8.138 -0.4233 -0.4671  0.1225
 1418TIP3    H125889   0.488   0.603   8.168 -0.5330 -0.4961 -0.0088
 1418TIP3    H225890   0.606   0.518   8.209  1.4967  1.6642 -1.0719
 1419TIP3   OH225891   5.567   5.754   7.301 -0.2726  0.9050 -0.4870
 1419TIP3    H125892   5.544   5.712   7.384  2.4127  1.1775  0.4766
 1419TIP3    H225893   5.611   5.685   7.251 -0.0510  1.2948 -0.8380
 1420TIP3   OH225894   3.126   3.039   0.207  0.2324 -0.5681 -0.1422
 1420TIP3    H125895   3.063   3.012   0.274 -0.6219 -1.5117 -1.2930
 1420TIP3    H225896   3.196   3.081   0.256 -0.4997 -0.9937  1.3243
 1421TIP3   OH225897   0.897   4.006   1.075  0.0190 -0.5425  0.6279
 1421TIP3    H125898   0.838   3.931   1.067  2.0371 -2.1120 -0.4140
 1421TIP3    H225899   0.917   4.010   1.169 -1.6896  0.0417  1.0058
 1422TIP3   OH225900   4.109   5.346   5.885  0.0070 -0.7046  0.1851
 1422TIP3    H125901   4.028   5.297   5.873 -0.0125 -0.1730 -2.3796
 1422TIP3    H225902   4.082   5.438   5.884  0.6072 -0.5244 -0.5178
 1423TIP3   OH225903   0.786   4.479   0.158  0.2285  0.5140 -0.5569
 1423TIP3    H125904   0.813   4.528   0.236 -2.1535  1.1837 -0.0633
 1423TIP3    H225905   0.826   4.393   0.169  0.3440  0.7438  1.1629
 1424TIP3   OH225906   1.330   6.610   1.610 -0.1352  0.0831 -0.0701
 1424TIP3    H125907   1.330   6.705   1.619 -1.3718  0.0707  0.1831
 1424TIP3    H225908   1.330   6.577   1.700  0.7948 -0.1745 -0.1531
 1425TIP3   OH225909   5.676   4.095   0.211  0.4201 -0.1346  0.4142
 1425TIP3    H125910   5.628   4.022   0.249 -0.5879  0.4502  0.2880
 1425TIP3    H225911   5.692   4.067   0.121 -1.1868  0.3469 -0.0535
 1426TIP3   OH225912   1.945   2.681   8.638 -0.0744 -0.0393  0.2619
 1426TIP3    H125913   1.981   2.633   8.712  1.4906 -0.3654 -0.6622
 1426TIP3    H225914   2.011   2.747   8.617 -1.5555  1.6346  0.6218
 1427TIP3   OH225915   1.982   1.309   7.563 -0.1138 -0.0847  0.4332
 1427TIP3    H125916   1.986   1.324   7.658 -0.9070 -0.1160  0.4856
 1427TIP3    H225917   1.939   1.224   7.555 -3.9260  1.6456  0.0306
 1428TIP3   OH225918   3.571   2.627   0.409 -0.3284 -0.0624  0.5119
 1428TIP3    H125919   3.614   2.684   0.472 -0.9160 -0.0062  0.8663
 1428TIP3    H225920   3.480   2.623   0.438 -0.3001 -1.1685  0.4875
 1429TIP3   OH225921   0.681   3.354   2.080  0.4275 -0.2129 -0.1183
 1429TIP3    H125922   0.733   3.410   2.138  0.2753 -0.8096  0.6020
 1429TIP3    H225923   0.641   3.414   2.017 -1.3039  0.7549  1.8023
 1430TIP3   OH225924   5.858   1.661   0.275  0.2885 -0.5770  0.0818
 1430TIP3    H125925   5.818   1.575   0.286  0.3196 -0.7780 -1.2131
 1430TIP3    H225926   5.865   1.672   0.180 -2.4997  2.1145  0.0382
 1431TIP3   OH225927   2.694   1.253   1.607  0.1759  0.4183  0.0618
 1431TIP3    H125928   2.718   1.336   1.648 -1.4445  1.2300 -0.5360
 1431TIP3    H225929   2.658   1.277   1.522 -0.5620 -0.8661 -0.0221
 1432TIP3   OH225930   1.948   6.418   0.199  0.0796  0.3153  0.1712
 1432TIP3    H125931   1.855   6.433   0.184 -0.1736 -1.7124 -0.5759
 1432TIP3    H225932   1.990   6.499   0.169 -1.3204  0.6146 -1.1389
 1433TIP3   OH225933   6.421   4.655   7.420  0.3497  0.0605  0.2668
 1433TIP3    H125934   6.447   4.653   7.328  0.1212  1.2211  0.1696
 1433TIP3    H225935   6.470   4.582   7.460  0.9618 -0.0333 -0.6294
 1434TIP3   OH225936   3.676   6.889   0.549  0.1293  0.0993 -0.0113
 1434TIP3    H125937   3.614   6.857   0.484  0.3495  0.7283 -0.5427
 1434TIP3    H225938   3.745   6.931   0.497  0.6391  0.0299  0.5999
 1435TIP3   OH225939   2.960   0.900   7.296  0.7606  0.3271  0.5096
 1435TIP3    H125940   2.876   0.860   7.320  0.5728 -0.2196 -0.9665
 1435TIP3    H225941   2.954   0.912   7.201  1.8043  1.5934  0.5865
 1436TIP3   OH225942   2.893   3.399   1.576 -0.0504 -0.3518  0.0753
 1436TIP3    H125943   2.926   3.310   1.589  0.5512  0.0122  1.2741
 1436TIP3    H225944   2.839   3.415   1.654  0.3950  0.5510  0.2086
 1437TIP3   OH225945   4.740   0.971   1.332  0.0709  0.1848 -0.3881
 1437TIP3    H125946   4.765   0.897   1.387  1.7801  0.9228 -0.1274
 1437TIP3    H225947   4.644   0.971   1.335  0.0050  0.8594  3.6046
 1438TIP3   OH225948   2.546   0.787   0.798  0.7516 -0.1198  0.4908
 1438TIP3    H125949   2.559   0.766   0.890  0.2561  1.3208  0.9115
 1438TIP3    H225950   2.461   0.831   0.794  0.8770  0.0670 -0.6105
 1439TIP3   OH225951   5.128   5.356   8.621  0.3779 -0.2550  0.1723
 1439TIP3    H125952   5.187   5.372   8.694  2.8616  2.1398 -2.0827
 1439TIP3    H225953   5.173   5.291   8.567 -0.1453 -0.1082 -0.4590
 1440TIP3   OH225954   2.224   1.496   8.346  0.7815  0.2591 -0.0691
 1440TIP3    H125955   2.318   1.479   8.349  0.5488 -2.0033 -2.1593
 1440TIP3    H225956   2.209   1.532   8.259 -0.3849 -0.0550 -0.0088
 1441TIP3   OH225957   2.803   6.236   6.743 -0.0375  0.2413  0.2174
 1441TIP3    H125958   2.876   6.186   6.707 -0.4248 -0.3919  0.2792
 1441TIP3    H225959   2.725   6.197   6.702 -0.3497  0.8133  0.2543
 1442TIP3   OH225960   3.885   3.239   0.129 -0.2012 -0.9429  0.0487
 1442TIP3    H125961   3.877   3.257   0.035 -0.1442 -1.0915  0.0141
 1442TIP3    H225962   3.980   3.231   0.143 -0.2201 -1.1102  0.0825
 1443TIP3   OH225963   6.458   5.897   8.143  0.7492  0.0079 -0.1815
 1443TIP3    H125964   6.386   5.940   8.098 -0.4340  0.9620  2.3924
 1443TIP3    H225965   6.536   5.944   8.115 -0.2528  2.3635  0.7274
 1444TIP3   OH225966   4.083   0.449   0.119  0.2354  0.0562 -0.2250
 1444TIP3    H125967   4.134   0.528   0.134 -0.4548  0.3760  0.4889
 1444TIP3    H225968   4.092   0.433   0.025 -0.4491  1.5688 -0.5822
 1445TIP3   OH225969   3.531   4.956   8.133  0.6507  0.2704 -0.2520
 1445TIP3    H125970   3.488   5.028   8.180  0.4674  1.4369 -2.0925
 1445TIP3    H225971   3.623   4.962   8.159  0.7835  1.6867 -0.9304
 1446TIP3   OH225972   1.005   5.002   0.545  0.5143  0.2913 -0.7290
 1446TIP3    H125973   0.949   4.930   0.518 -0.0869 -0.2917  1.7968
 1446TIP3    H225974   0.946   5.063   0.590  1.4379  1.0819 -0.5478
 1447TIP3   OH225975   1.979   1.882   0.416 -0.3858 -0.1142  0.4181
 1447TIP3    H125976   1.964   1.968   0.455  1.2215  0.0766  0.7065
 1447TIP3    H225977   2.044   1.841   0.473 -0.4952 -1.1792 -0.1933
 1448TIP3   OH225978   3.307   3.012   8.248  0.1975  0.2415  0.5377
 1448TIP3    H125979   3.346   3.055   8.324  0.1646  0.4472  0.4365
 1448TIP3    H225980   3.303   3.079   8.181  0.9337 -0.1371  0.1004
 1449TIP3   OH225981   6.640   6.169   6.622  0.1313 -0.2888 -0.0377
 1449TIP3    H125982   6.708   6.103   6.609  1.0399  0.8288 -1.3575
 1449TIP3    H225983   6.653   6.231   6.550 -1.2782  0.8292  0.6080
 1450TIP3   OH225984   1.247   5.582   0.183  0.1532 -0.6650  0.4347
 1450TIP3    H125985   1.306   5.595   0.109  1.2537 -2.7336  0.8517
 1450TIP3    H225986   1.181   5.520   0.152 -0.4519 -0.1487  0.6646
 1451TIP3   OH225987   0.935   6.676   8.508  0.0918  0.6009 -0.0014
 1451TIP3    H125988   0.919   6.646   8.597 -1.2114  1.8315  0.2023
 1451TIP3    H225989   1.020   6.638   8.485  0.9139  1.0398  2.1067
 1452TIP3   OH225990   1.022   4.137   1.861 -0.0621  0.6346 -0.3950
 1452TIP3    H125991   1.000   4.181   1.943  3.5000  1.5000  0.2542
 1452TIP3    H225992   1.048   4.049   1.887  1.2766  0.9730 -0.5212
 1453TIP3   OH225993   4.439   1.027   6.723  0.1733  0.0143  0.2327
 1453TIP3    H125994   4.444   1.107   6.671  2.1344  0.4284  0.9701
 1453TIP3    H225995   4.518   0.978   6.701 -1.0744 -1.8819 -0.3604
 1454TIP3   OH225996   6.195   2.862   0.773 -0.5944 -0.5124 -0.2425
 1454TIP3    H125997   6.236   2.783   0.807  2.0171  0.9428  0.2805
 1454TIP3    H225998   6.229   2.870   0.684 -1.2217 -0.2301 -0.4615
 1455TIP3   OH225999   5.925   1.898   1.306  0.0436  0.3043 -0.3084
 1455TIP3    H126000   5.988   1.951   1.355  0.5175  0.2816 -0.8764
 1455TIP3    H226001   5.840   1.926   1.338  0.3539  0.0298  0.7841
 1456TIP3   OH226002   3.560   6.784   0.315 -0.0336 -0.0640 -0.1479
 1456TIP3    H126003   3.477   6.821   0.347  0.8791  0.3347  1.9473
 1456TIP3    H226004   3.609   6.859   0.282  0.6959  0.2602  1.5311
 1457TIP3   OH226005   4.122   4.421   7.693  0.2817  0.4349 -0.2992
 1457TIP3    H126006   4.035   4.383   7.707 -0.5635  2.4778  0.4315
 1457TIP3    H226007   4.110   4.514   7.711  2.7200  0.7153  0.1532
 1458TIP3   OH226008   4.308   3.976   6.928  0.2365  0.0670 -0.2329
 1458TIP3    H126009   4.248   3.954   6.856 -0.6672  1.7165 -0.0212
 1458TIP3    H226010   4.362   4.047   6.894  1.0223 -0.3364  0.1381
 1459TIP3   OH226011   4.863   1.655   1.463 -0.2822 -0.1194  0.1141
 1459TIP3    H126012   4.829   1.737   1.427  0.4243 -0.3681 -1.1623
 1459TIP3    H226013   4.952   1.648   1.427 -0.5812 -1.8046 -0.3825
 1460TIP3   OH226014   3.675   0.557   7.423 -0.0164 -0.8370  0.3867
 1460TIP3    H126015   3.584   0.542   7.399 -0.1462 -0.4942  0.6606
 1460TIP3    H226016   3.682   0.651   7.434  0.9240 -0.5763 -1.8234
 1461TIP3   OH226017   0.396   2.860   0.112  0.9714 -0.4396 -0.2350
 1461TIP3    H126018   0.348   2.846   0.030 -0.2568 -1.6184  0.6494
 1461TIP3    H226019   0.453   2.935   0.094  1.9764 -1.6799 -2.7043
 1462TIP3   OH226020   0.192   5.033   1.051 -0.5658  0.3547  0.5444
 1462TIP3    H126021   0.109   5.039   1.098 -2.3546 -1.1380 -2.1278
 1462TIP3    H226022   0.201   4.940   1.029  0.5357  0.8444 -1.3135
 1463TIP3   OH226023   4.962   0.147   2.230 -0.1292 -0.2618  0.2123
 1463TIP3    H126024   4.899   0.118   2.296 -0.5146 -0.2638 -0.1539
 1463TIP3    H226025   5.045   0.156   2.278 -0.1990 -1.1219  0.5090
 1464TIP3   OH226026   6.245   4.695   8.009 -0.0099 -0.1448  0.2161
 1464TIP3    H126027   6.257   4.620   8.067  1.1304 -1.2471 -1.3610
 1464TIP3    H226028   6.150   4.705   8.000 -0.3674  1.6089  4.0986
 1465TIP3   OH226029   6.346   4.912   0.985 -0.0261 -0.3401 -0.5913
 1465TIP3    H126030   6.303   4.896   0.901 -0.3647  0.4410 -0.5700
 1465TIP3    H226031   6.295   4.860   1.047  0.9993 -1.9454 -1.0502
 1466TIP3   OH226032   3.521   0.757   2.621 -0.1042 -0.8009 -0.3394
 1466TIP3    H126033   3.493   0.843   2.654 -0.5447 -0.3566 -1.8172
 1466TIP3    H226034   3.441   0.716   2.590  0.2351 -1.4145 -0.4143
 1467TIP3   OH226035   0.783   3.122   7.408 -0.0926  0.9968  0.0858
 1467TIP3    H126036   0.786   3.145   7.501 -0.3142  2.0286 -0.1435
 1467TIP3    H226037   0.853   3.058   7.397 -0.1198  0.7947  0.9791
 1468TIP3   OH226038   6.060   6.282   0.140 -0.1624  0.0395  0.1578
 1468TIP3    H126039   6.101   6.321   0.218 -0.0106 -1.3123  0.7818
 1468TIP3    H226040   5.966   6.300   0.152  0.0373  1.6410 -0.4172
 1469TIP3   OH226041   6.229   6.154   1.797  0.5686  0.5561 -0.1529
 1469TIP3    H126042   6.284   6.182   1.871  1.1250 -0.2987 -0.2168
 1469TIP3    H226043   6.165   6.094   1.837  1.1515 -0.2624 -0.4082
 1470TIP3   OH226044   0.839   2.938   8.364  0.3741 -0.6509  0.3746
 1470TIP3    H126045   0.747   2.962   8.353  0.2562 -1.1221  0.2834
 1470TIP3    H226046   0.886   2.989   8.299 -0.0097 -1.5451 -0.6472
 1471TIP3   OH226047   0.011   5.912   1.815 -0.4424 -0.0572  0.4235
 1471TIP3    H126048   0.012   6.005   1.838  0.1086 -0.2679  1.2819
 1471TIP3    H226049   0.083   5.901   1.753 -0.7896  0.1634 -0.0284
 1472TIP3   OH226050   6.916   3.831   6.872 -0.7132 -0.2346  0.0704
 1472TIP3    H126051   7.008   3.818   6.895 -0.9970 -0.1980  1.2668
 1472TIP3    H226052   6.916   3.837   6.776  0.4162 -1.1112 -0.0089
 1473TIP3   OH226053   6.428   5.160   6.893 -0.3405  0.2475 -0.2024
 1473TIP3    H126054   6.350   5.210   6.869 -0.0856  1.1060  0.6895
 1473TIP3    H226055   6.458   5.122   6.810 -1.4852  0.2000 -0.6195
 1474TIP3   OH226056   0.703   1.495   8.132  0.0929 -0.4226  0.3526
 1474TIP3    H126057   0.695   1.522   8.040  0.1856 -2.3695 -0.2685
 1474TIP3    H226058   0.797   1.493   8.148  0.0750 -0.0255  0.5186
 1475TIP3   OH226059   3.435   5.369   8.296  0.0940 -0.0800 -0.1258
 1475TIP3    H126060   3.436   5.465   8.300  0.3246 -0.1127  0.9669
 1475TIP3    H226061   3.356   5.348   8.246 -1.3607  0.6468  1.7218
 1476TIP3   OH226062   6.458   3.390   7.422 -0.2048 -0.1749  0.2181
 1476TIP3    H126063   6.401   3.322   7.387 -0.9884  0.5809 -0.0095
 1476TIP3    H226064   6.538   3.344   7.448 -0.2317 -1.0013 -1.0567
 1477TIP3   OH226065   5.829   6.284   8.584 -0.2229 -0.0470  0.1642
 1477TIP3    H126066   5.816   6.190   8.569 -0.9267  0.0926 -0.1334
 1477TIP3    H226067   5.808   6.297   8.676  0.9599 -0.3605  0.4952
 1478TIP3   OH226068   0.062   5.288   1.408  0.0507 -0.0939 -0.2655
 1478TIP3    H126069   0.088   5.196   1.395 -0.4532 -0.3956  0.7515
 1478TIP3    H226070   0.019   5.288   1.493  1.9948  1.5206  0.7870
 1479TIP3   OH226071   0.250   1.613   7.555  0.5132 -0.3495 -0.1785
 1479TIP3    H126072   0.303   1.556   7.610 -0.9599 -2.0503 -0.4149
 1479TIP3    H226073   0.186   1.651   7.614  0.9748  0.4427 -0.1721
 1480TIP3   OH226074   2.100   3.063   8.035  0.0974 -0.8120 -0.3386
 1480TIP3    H126075   2.176   3.121   8.043 -0.4773 -0.1245  0.3441
 1480TIP3    H226076   2.093   3.046   7.941  0.2026  0.3496 -0.5734
 1481TIP3   OH226077   1.311   1.508   0.663 -0.2695 -0.4352 -0.4984
 1481TIP3    H126078   1.353   1.550   0.588  2.7689  1.5943  2.0411
 1481TIP3    H226079   1.363   1.428   0.678  0.1216 -0.0441  0.2882
 1482TIP3   OH226080   1.145   5.021   2.247  0.4225  0.3866  0.4580
 1482TIP3    H126081   1.077   5.055   2.306  1.5653 -0.1315  2.1741
 1482TIP3    H226082   1.192   4.956   2.300  1.2740 -0.4117 -1.1887
 1483TIP3   OH226083   5.078   2.684   0.182  0.2405 -0.5826 -0.2083
 1483TIP3    H126084   5.127   2.707   0.261  0.5412  0.7805 -0.7575
 1483TIP3    H226085   5.006   2.748   0.180  0.5207 -0.2921 -1.2799
 1484TIP3   OH226086   6.084   3.196   6.191 -0.5048  0.4113 -0.1049
 1484TIP3    H126087   5.996   3.184   6.153 -0.2673 -1.3307 -0.2140
 1484TIP3    H226088   6.110   3.108   6.218  0.2521  1.2597  2.1323
 1485TIP3   OH226089   3.859   4.641   1.508 -0.4066  0.1338 -0.8493
 1485TIP3    H126090   3.946   4.614   1.537 -1.2533  1.4396  3.7844
 1485TIP3    H226091   3.875   4.714   1.448  1.7070 -0.2836 -0.8433
 1486TIP3   OH226092   4.962   1.585   0.846 -0.4509  0.0692  0.4109
 1486TIP3    H126093   4.868   1.567   0.847 -0.7593  1.2861 -1.4547
 1486TIP3    H226094   4.994   1.538   0.769  0.0233  1.5137 -0.3013
 1487TIP3   OH226095   6.139   0.815   0.534 -0.0030  0.1755  0.6964
 1487TIP3    H126096   6.230   0.844   0.527 -0.1815  0.9880  1.5191
 1487TIP3    H226097   6.144   0.720   0.537  1.0253  0.2463  2.9257
 1488TIP3   OH226098   4.576   4.842   1.944 -0.1337 -0.1476 -0.0369
 1488TIP3    H126099   4.647   4.882   1.894 -1.1676  1.2104 -0.5046
 1488TIP3    H226100   4.559   4.904   2.015 -0.4456 -0.7521  0.4273
 1489TIP3   OH226101   1.868   3.016   1.191  0.5565  0.1877 -0.3331
 1489TIP3    H126102   1.920   2.995   1.113 -0.5153 -0.2670 -0.9486
 1489TIP3    H226103   1.814   3.091   1.164 -0.3560 -0.4374 -0.2839
 1490TIP3   OH226104   0.197   0.911   2.488 -0.1884  0.5503 -0.5419
 1490TIP3    H126105   0.204   0.984   2.427  0.6478 -1.6809 -3.2917
 1490TIP3    H226106   0.278   0.861   2.476  0.2356  0.1898  2.7750
 1491TIP3   OH226107   0.013   2.740   2.662  0.0391 -0.5949 -0.1336
 1491TIP3    H126108  -0.017   2.792   2.587 -0.3459 -0.5590  0.0405
 1491TIP3    H226109  -0.065   2.730   2.716  0.5680  0.3297  0.8263
 1492TIP3   OH226110   0.661   0.153   8.084  0.6180 -0.5265  0.5831
 1492TIP3    H126111   0.593   0.140   8.151  0.4410 -1.7590  0.1764
 1492TIP3    H226112   0.743   0.140   8.131  0.6015  0.9007  1.0623
 1493TIP3   OH226113   6.395   3.764   8.458 -0.1015  0.2015 -0.2346
 1493TIP3    H126114   6.374   3.671   8.450  0.0158  0.0721  0.7815
 1493TIP3    H226115   6.345   3.806   8.388 -2.5900 -0.2696  1.1475
 1494TIP3   OH226116   1.976   3.807   7.493 -0.2144  0.2896  0.0655
 1494TIP3    H126117   1.958   3.715   7.512  2.9015 -0.5153 -0.3811
 1494TIP3    H226118   1.944   3.854   7.570 -0.5434 -1.3086  0.9535
 1495TIP3   OH226119   2.218   1.517   0.769 -0.2038  0.1277  0.7317
 1495TIP3    H126120   2.158   1.446   0.792 -0.8283  0.4064  0.0184
 1495TIP3    H226121   2.257   1.488   0.686  0.2919  0.1624  0.9555
 1496TIP3   OH226122   6.574   1.070   7.171  0.1949  0.2348  0.3794
 1496TIP3    H126123   6.491   1.027   7.155  0.7060  0.1553 -2.7383
 1496TIP3    H226124   6.560   1.160   7.142  1.5792 -0.2045 -1.9053
 1497TIP3   OH226125   1.526   1.042   7.063 -0.3220  0.4781 -0.0973
 1497TIP3    H126126   1.579   1.119   7.046 -2.5265  2.2608  0.6299
 1497TIP3    H226127   1.487   1.021   6.978 -1.9000  1.9537  0.2120
 1498TIP3   OH226128   2.537   0.078   7.648 -0.5867 -0.2529 -0.2310
 1498TIP3    H126129   2.523   0.171   7.629 -1.3241 -0.4243 -0.5364
 1498TIP3    H226130   2.596   0.048   7.579 -0.5131 -0.0670 -0.2519
 1499TIP3   OH226131   0.210   1.589   1.088 -0.2852 -0.2262  0.0111
 1499TIP3    H126132   0.239   1.678   1.068 -0.3362  0.0110  0.9551
 1499TIP3    H226133   0.249   1.569   1.173  1.8190 -2.0718 -1.2841
 1500TIP3   OH226134   5.918   2.483   1.622  0.1706 -0.2093  0.0435
 1500TIP3    H126135   5.839   2.449   1.580 -0.7939  1.5508  0.3580
 1500TIP3    H226136   5.897   2.485   1.715  1.4291 -1.8243  0.4083
 1501TIP3   OH226137   3.907   0.124   0.449  0.1682  0.3059  0.0062
 1501TIP3    H126138   3.986   0.160   0.410  0.9300 -1.1648  0.0912
 1501TIP3    H226139   3.845   0.196   0.449  0.9248  1.0107 -1.6951
 1502TIP3   OH226140   2.473   2.049   7.740 -0.2496  0.0234 -0.3096
 1502TIP3    H126141   2.450   2.052   7.647 -1.1367  0.2611 -0.0897
 1502TIP3    H226142   2.391   2.063   7.786  0.3181  0.7977  0.5134
 1503TIP3   OH226143   6.895   0.313   7.854 -0.7089  0.1131  0.1328
 1503TIP3    H126144   6.975   0.319   7.906 -1.1632  1.0654  0.7590
 1503TIP3    H226145   6.853   0.398   7.865 -0.7238  0.4542 -1.9950
 1504TIP3   OH226146   2.916   3.176   1.955  0.2113 -0.1688  0.4211
 1504TIP3    H126147   2.827   3.181   1.921 -0.5200  1.4497  2.3995
 1504TIP3    H226148   2.929   3.084   1.977 -0.3495 -0.7035 -1.3517
 1505TIP3   OH226149   6.227   0.755   0.137  0.1333  0.2681  0.3333
 1505TIP3    H126150   6.195   0.774   0.049  0.5901 -0.1247  0.0754
 1505TIP3    H226151   6.157   0.706   0.178  0.6096 -1.0786 -0.4185
 1506TIP3   OH226152   6.459   0.843   1.659  0.2545 -0.5037 -0.3566
 1506TIP3    H126153   6.505   0.818   1.579  0.3423 -0.3872 -0.3421
 1506TIP3    H226154   6.367   0.845   1.634  0.3244  0.0402 -0.5863
 1507TIP3   OH226155   4.913   3.790   2.012  0.2183 -0.1559 -0.2152
 1507TIP3    H126156   4.869   3.857   1.959 -0.4002  1.3319  2.0228
 1507TIP3    H226157   4.947   3.728   1.948 -0.1435  1.7045 -2.3673
 1508TIP3   OH226158   6.025   3.977   2.543  0.4501 -0.4639  0.0017
 1508TIP3    H126159   6.014   3.894   2.590  0.2648  0.3027  1.3402
 1508TIP3    H226160   5.952   4.032   2.572  1.8735  0.9947  0.9572
 1509TIP3   OH226161   4.167   5.415   7.437  0.0594  0.0914 -0.3948
 1509TIP3    H126162   4.190   5.503   7.467 -2.4144 -0.1032  2.5236
 1509TIP3    H226163   4.129   5.372   7.514 -2.0408 -2.3373 -2.5851
 1510TIP3   OH226164   0.293   3.173   0.959  0.0654  0.1563  0.5900
 1510TIP3    H126165   0.388   3.171   0.973  0.4765 -1.7201 -1.7622
 1510TIP3    H226166   0.282   3.224   0.879 -0.4602 -2.3941 -1.1073
 1511TIP3   OH226167   6.570   6.568   7.873  0.0584  0.2611  0.2651
 1511TIP3    H126168   6.590   6.659   7.851  1.5812  0.0157  0.4873
 1511TIP3    H226169   6.482   6.571   7.909 -0.1662  1.5556 -0.3226
 1512TIP3   OH226170   4.976   3.902   2.284 -0.2918 -0.3881 -0.1036
 1512TIP3    H126171   4.987   3.899   2.189 -0.8531  1.1660 -0.2413
 1512TIP3    H226172   4.965   3.811   2.309 -0.0519 -0.8354 -1.5159
 1513TIP3   OH226173   4.848   2.146   0.624 -0.3534  0.7097  0.0870
 1513TIP3    H126174   4.911   2.202   0.669  1.3906 -1.1534  0.1178
 1513TIP3    H226175   4.807   2.095   0.695  2.7487 -2.5863 -0.1823
 1514TIP3   OH226176   1.621   3.045   0.296  0.5826 -0.3539  0.0831
 1514TIP3    H126177   1.666   3.122   0.264  2.3120 -0.6607  1.6077
 1514TIP3    H226178   1.560   3.079   0.362 -0.3193 -0.1061 -0.8452
 1515TIP3   OH226179   3.972   1.138   7.255 -0.1997  0.2657 -0.1015
 1515TIP3    H126180   3.915   1.072   7.216  1.8253 -1.7140  0.0563
 1515TIP3    H226181   3.927   1.221   7.240 -2.1663 -0.9829 -1.6252
 1516TIP3   OH226182   3.201   1.534   8.608 -0.3875 -0.3421 -0.1268
 1516TIP3    H126183   3.190   1.539   8.703 -0.1363 -0.5938 -0.0848
 1516TIP3    H226184   3.296   1.536   8.594 -0.2982 -2.7723 -0.2144
 1517TIP3   OH226185   0.868   5.824   0.492  0.1857 -0.1870  0.5202
 1517TIP3    H126186   0.923   5.841   0.416  1.0939  0.6480  1.3394
 1517TIP3    H226187   0.893   5.891   0.555 -0.8275 -0.6267  1.4175
 1518TIP3   OH226188   3.050   2.235   1.399  0.0416 -0.2060  0.2035
 1518TIP3    H126189   2.973   2.191   1.435  0.4676  0.1954  1.6752
 1518TIP3    H226190   3.026   2.256   1.309 -1.5273 -0.1928  0.6032
 1519TIP3   OH226191   0.379   3.314   7.350  0.1257  0.4761  0.0752
 1519TIP3    H126192   0.425   3.249   7.297  0.9143  1.2666 -0.2243
 1519TIP3    H226193   0.291   3.319   7.312 -0.0866 -0.7281  0.3826
 1520TIP3   OH226194   1.801   4.854   1.393  0.1554 -0.0763 -0.1254
 1520TIP3    H126195   1.719   4.833   1.438 -0.0175 -0.4758 -0.6173
 1520TIP3    H226196   1.774   4.878   1.304  0.3168  2.5347  0.4599
 1521TIP3   OH226197   2.473   2.896   8.070 -0.0477  0.0168  0.2214
 1521TIP3    H126198   2.530   2.898   7.994 -0.6084  0.2950 -0.2035
 1521TIP3    H226199   2.528   2.865   8.142  1.0764  1.8189  0.1904
 1522TIP3   OH226200   2.898   5.319   7.171 -0.9556  0.1531 -0.0506
 1522TIP3    H126201   2.839   5.248   7.146 -0.7157 -0.9375  2.2743
 1522TIP3    H226202   2.985   5.281   7.169 -0.4227  1.3577 -2.0235
 1523TIP3   OH226203   2.866   1.008   8.414 -0.1062 -1.1997 -0.0455
 1523TIP3    H126204   2.886   1.078   8.352 -0.5333 -1.7128 -0.7747
 1523TIP3    H226205   2.809   1.049   8.479 -0.9554 -1.0426 -0.8750
 1524TIP3   OH226206   6.380   4.031   1.344  0.2509  0.1891  0.6084
 1524TIP3    H126207   6.308   4.080   1.383  0.3074 -0.3044  1.3431
 1524TIP3    H226208   6.404   3.966   1.410  1.1649  0.1459  0.2465
 1525TIP3   OH226209   1.924   2.910   0.228 -0.2973  0.5912 -0.4358
 1525TIP3    H126210   1.949   2.993   0.268  2.7779 -1.0799  1.4847
 1525TIP3    H226211   1.976   2.906   0.147 -1.3865  1.0218 -1.1787
 1526TIP3   OH226212   3.921   4.944   4.932  0.8632 -0.4306  0.7851
 1526TIP3    H126213   3.937   4.867   4.987 -1.0586 -0.8945  0.7843
 1526TIP3    H226214   3.892   5.012   4.993 -1.3325 -0.9640  0.4302
 1527TIP3   OH226215   4.189   5.262   0.500  0.0477 -0.2553 -0.2319
 1527TIP3    H126216   4.265   5.290   0.550  0.8072 -0.2570 -1.3522
 1527TIP3    H226217   4.225   5.218   0.423 -1.0733 -0.1929 -0.8201
 1528TIP3   OH226218   5.410   5.162   1.712  0.3073 -0.4068 -0.0305
 1528TIP3    H126219   5.473   5.158   1.639  0.2926  1.2689 -0.1608
 1528TIP3    H226220   5.464   5.178   1.789  0.0504  1.3965 -0.1920
 1529TIP3   OH226221   5.553   0.329   0.498  0.1074  0.1429 -0.4971
 1529TIP3    H126222   5.569   0.407   0.445 -0.1717  1.9417  1.8874
 1529TIP3    H226223   5.629   0.325   0.557 -1.2829  0.4042  1.3881
 1530TIP3   OH226224   1.937   0.787   1.312  0.0674  0.2068  0.1568
 1530TIP3    H126225   1.913   0.820   1.225  1.0726 -1.1866 -0.6874
 1530TIP3    H226226   1.995   0.855   1.347  1.4248 -0.2028 -1.2005
 1531TIP3   OH226227   2.992   3.026   7.117  0.2621  0.0255 -0.5268
 1531TIP3    H126228   2.949   3.111   7.106 -0.3064  0.1133  1.7847
 1531TIP3    H226229   2.934   2.964   7.072 -0.9764  0.5041  0.3308
 1532TIP3   OH226230   4.833   5.038   7.267  0.1704 -0.5345 -0.6989
 1532TIP3    H126231   4.917   5.072   7.300 -0.6698 -0.2619  1.3213
 1532TIP3    H226232   4.767   5.090   7.313 -1.1359 -2.7785  0.0853
 1533TIP3   OH226233   5.438   5.866   1.426  0.5080  0.4662  0.6191
 1533TIP3    H126234   5.467   5.802   1.491  0.5466 -0.3724 -0.1903
 1533TIP3    H226235   5.346   5.883   1.449  0.8795  1.1669  1.6470
 1534TIP3   OH226236   6.518   1.453   0.817 -0.3005 -0.6218 -0.2123
 1534TIP3    H126237   6.425   1.428   0.816 -1.0092  1.7293 -1.3856
 1534TIP3    H226238   6.542   1.456   0.724 -0.3005  2.6748 -0.2322
 1535TIP3   OH226239   5.851   0.970   7.669 -0.4388  0.3248 -0.1027
 1535TIP3    H126240   5.809   0.927   7.594 -1.8219  1.7098 -0.1626
 1535TIP3    H226241   5.899   1.042   7.631 -2.4484  2.0320  0.3981
 1536TIP3   OH226242   0.954   2.786   7.837 -0.0095  0.3244  0.4702
 1536TIP3    H126243   1.032   2.842   7.831  0.7575 -0.7936 -0.5033
 1536TIP3    H226244   0.959   2.747   7.924 -0.5761  1.7626  1.1789
 1537TIP3   OH226245   4.487   1.428   7.214 -0.5064  0.1854 -0.0918
 1537TIP3    H126246   4.416   1.408   7.152 -0.7742  1.2548 -0.1560
 1537TIP3    H226247   4.539   1.495   7.169  1.0581 -1.1584 -0.4018
 1538TIP3   OH226248   1.941   4.131   7.588  0.4316  0.4555  0.9292
 1538TIP3    H126249   1.920   4.221   7.565  0.0870  0.2176  0.2586
 1538TIP3    H226250   1.887   4.113   7.665 -2.5592 -0.3448 -1.1288
 1539TIP3   OH226251   0.067   0.632   8.370  0.3239  0.1706  0.7571
 1539TIP3    H126252   0.162   0.634   8.355  0.1611  0.8667 -0.2427
 1539TIP3    H226253   0.056   0.668   8.458  1.1585 -2.3363  1.9928
 1540TIP3   OH226254   1.018   2.631   1.041  0.2059 -0.0467  0.7875
 1540TIP3    H126255   0.955   2.695   1.073  0.6666 -0.0185  1.6625
 1540TIP3    H226256   0.975   2.547   1.049 -0.3511  0.1199 -0.2360
 1541TIP3   OH226257   3.455   4.008   1.589 -0.3944  0.5171 -0.3375
 1541TIP3    H126258   3.453   4.046   1.501 -2.7541  0.9493 -0.1595
 1541TIP3    H226259   3.368   4.025   1.624  0.4128  0.1418  2.0150
 1542TIP3   OH226260   2.338   2.395   7.582 -0.6026  0.4251 -0.2000
 1542TIP3    H126261   2.296   2.365   7.502 -2.4542  1.5905  0.2957
 1542TIP3    H226262   2.390   2.471   7.555 -1.9546  1.3827 -0.1616
 1543TIP3   OH226263   2.756   6.844   8.137 -0.2435  0.2078  0.0443
 1543TIP3    H126264   2.795   6.912   8.081  0.6065 -1.4516 -1.4678
 1543TIP3    H226265   2.677   6.817   8.089  0.0037 -0.6118  0.0993
 1544TIP3   OH226266   5.715   6.492   0.657 -0.2280 -0.2923  0.3853
 1544TIP3    H126267   5.620   6.491   0.667 -0.2482  1.2249  0.5325
 1544TIP3    H226268   5.749   6.453   0.738 -0.6836  1.8474  1.6927
 1545TIP3   OH226269   2.431   1.337   1.429  0.6699 -0.1802  0.2292
 1545TIP3    H126270   2.408   1.321   1.338  2.1531 -0.5514 -0.1045
 1545TIP3    H226271   2.478   1.420   1.428 -0.2656  0.3620  0.8221
 1546TIP3   OH226272   0.971   4.237   0.116  0.4583  0.0959  0.8942
 1546TIP3    H126273   1.061   4.263   0.136  0.6849  0.4963 -0.5205
 1546TIP3    H226274   0.923   4.254   0.196  1.6847 -0.3512  1.7559
 1547TIP3   OH226275   2.837   2.232   8.524  0.1569  0.7395 -0.1387
 1547TIP3    H126276   2.850   2.148   8.569  1.0672 -0.7513 -2.9217
 1547TIP3    H226277   2.745   2.232   8.500  0.1440  0.5494 -0.0915
 1548TIP3   OH226278   5.180   0.465   0.818 -0.7587  0.0747  0.2046
 1548TIP3    H126279   5.257   0.413   0.796 -0.8944  0.3150 -0.9300
 1548TIP3    H226280   5.183   0.475   0.913  0.0658 -0.7508  0.2736
 1549TIP3   OH226281   1.296   4.381   7.577 -0.0165 -0.7267 -0.2178
 1549TIP3    H126282   1.284   4.286   7.574 -0.3749 -0.7207  0.6292
 1549TIP3    H226283   1.365   4.399   7.513  1.6654 -1.8342  1.1804
 1550TIP3   OH226284   6.713   5.671   8.332 -0.3532 -0.0422 -0.1397
 1550TIP3    H126285   6.776   5.599   8.327  0.7174  0.7834  0.9530
 1550TIP3    H226286   6.696   5.681   8.426  1.2403  2.5291 -0.0221
 1551TIP3   OH226287   2.673   1.124   1.886 -0.7206 -0.5421 -0.4814
 1551TIP3    H126288   2.685   1.187   1.815  0.1711  0.0215  0.1687
 1551TIP3    H226289   2.716   1.044   1.854  0.2177 -0.1057 -0.3295
 1552TIP3   OH226290   0.175   0.901   8.546 -0.2640 -0.3465 -0.0943
 1552TIP3    H126291   0.088   0.881   8.581  0.7975  0.3080  3.3180
 1552TIP3    H226292   0.230   0.827   8.575  0.5802 -0.1220 -1.0734
 1553TIP3   OH226293   2.128   3.860   0.766  0.1174  0.0803 -0.4563
 1553TIP3    H126294   2.073   3.883   0.691 -0.7763 -1.4221 -0.2979
 1553TIP3    H226295   2.184   3.790   0.735  1.1279  0.7710 -0.2502
 1554TIP3   OH226296   1.172   2.293   8.007 -0.3925  0.0206  0.0114
 1554TIP3    H126297   1.212   2.352   7.943  0.2208  0.9385  1.2027
 1554TIP3    H226298   1.149   2.215   7.956  3.0818 -0.6846 -0.8027
 1555TIP3   OH226299   6.778   5.459   0.155 -0.1525  0.1287  0.6296
 1555TIP3    H126300   6.852   5.507   0.193  0.7320 -0.3720 -0.4152
 1555TIP3    H226301   6.713   5.456   0.225  1.7916 -1.6577  2.5150
 1556TIP3   OH226302   3.385   6.219   8.175  0.0634  0.3826 -0.4343
 1556TIP3    H126303   3.306   6.191   8.129  1.6000 -1.4059 -2.1083
 1556TIP3    H226304   3.432   6.139   8.195  1.4665  1.4045  0.5971
 1557TIP3   OH226305   0.944   5.645   6.929  0.2264  0.1121  0.3281
 1557TIP3    H126306   0.853   5.660   6.904  0.2877 -1.5780 -1.0808
 1557TIP3    H226307   0.939   5.614   7.020 -0.8086 -1.5722 -0.2431
 1558TIP3   OH226308   0.367   5.127   7.311  0.7640  0.3017  0.3417
 1558TIP3    H126309   0.304   5.106   7.242  1.5323 -0.0224 -0.2828
 1558TIP3    H226310   0.331   5.204   7.354 -0.3467 -0.2115  0.3755
 1559TIP3   OH226311   5.482   2.713   1.365  0.5367  0.4564 -0.0750
 1559TIP3    H126312   5.574   2.707   1.392  0.4898 -2.1336 -0.3044
 1559TIP3    H226313   5.442   2.768   1.432  1.7090 -0.6721  1.6335
 1560TIP3   OH226314   3.421   5.702   6.936 -0.0619  0.0274  0.0109
 1560TIP3    H126315   3.385   5.789   6.920 -0.1862 -0.0237  0.0126
 1560TIP3    H226316   3.432   5.696   7.030  1.1717  0.5305 -0.0860
 1561TIP3   OH226317   3.428   0.129   7.416 -0.0871  0.2532  0.3027
 1561TIP3    H126318   3.436   0.216   7.377  0.6252  0.5035  0.9802
 1561TIP3    H226319   3.356   0.088   7.368  0.1683  0.8768 -0.6528
 1562TIP3   OH226320   1.946   4.155   0.053 -0.0301 -0.0531 -0.4480
 1562TIP3    H126321   1.926   4.173  -0.039  0.4876  1.1721 -0.3461
 1562TIP3    H226322   2.031   4.197   0.067 -0.4831  0.4940  0.7972
 1563TIP3   OH226323   0.703   6.590   1.447  0.0027 -0.3032  0.3889
 1563TIP3    H126324   0.695   6.593   1.352  1.8347 -0.6975  0.1813
 1563TIP3    H226325   0.652   6.513   1.473  1.0643 -1.3433 -0.4994
 1564TIP3   OH226326   5.417   0.101   0.368 -0.2547  0.6015 -0.0310
 1564TIP3    H126327   5.452   0.166   0.429  4.3578 -1.2153 -0.3699
 1564TIP3    H226328   5.454   0.018   0.397 -1.3481 -1.0329 -2.8725
 1565TIP3   OH226329   5.790   1.373   0.438 -0.1327 -1.3309 -0.1223
 1565TIP3    H126330   5.732   1.360   0.513 -0.7572  0.6482 -0.1976
 1565TIP3    H226331   5.745   1.331   0.365 -1.0788 -0.5551 -0.0042
 1566TIP3   OH226332   3.024   0.479   0.651 -0.0099 -0.3135  0.5363
 1566TIP3    H126333   2.986   0.564   0.630 -0.1616  0.0204  2.1009
 1566TIP3    H226334   3.044   0.483   0.744 -0.4407 -2.1589  0.7522
 1567TIP3   OH226335   3.434   5.757   1.490  0.5173  0.4960  0.0515
 1567TIP3    H126336   3.421   5.824   1.424  1.8955 -0.1395 -0.9119
 1567TIP3    H226337   3.519   5.777   1.529  0.2803  0.1416  0.7727
 1568TIP3   OH226338   6.485   0.887   0.549 -0.2613 -0.6599  0.0969
 1568TIP3    H126339   6.553   0.954   0.558  1.0009 -1.5844 -1.9046
 1568TIP3    H226340   6.453   0.897   0.459 -1.9096 -1.0752  0.6096
 1569TIP3   OH226341   1.171   0.787   1.802  0.5292 -0.0899  0.4599
 1569TIP3    H126342   1.211   0.701   1.798  1.3405  0.2329  1.4246
 1569TIP3    H226343   1.145   0.798   1.893 -1.4595 -0.1347 -0.0503
 1570TIP3   OH226344   1.042   0.658   2.024  0.1444 -0.0828 -0.5040
 1570TIP3    H126345   1.051   0.673   2.118  2.2947 -2.0225 -0.3099
 1570TIP3    H226346   0.949   0.641   2.011 -0.1871  0.2494  1.2581
 1571TIP3   OH226347   2.876   6.470   2.034  0.3882 -0.5644  0.2180
 1571TIP3    H126348   2.909   6.385   2.005  0.7390 -0.7545  1.1448
 1571TIP3    H226349   2.912   6.482   2.122 -3.1975 -1.4798  1.9852
 1572TIP3   OH226350   4.521   2.591   8.230 -0.5580  0.2919  0.5860
 1572TIP3    H126351   4.546   2.579   8.138 -2.7659  1.0459 -0.1759
 1572TIP3    H226352   4.447   2.531   8.243 -0.9803  0.9838  1.5377
 1573TIP3   OH226353   3.594   6.518   1.495 -0.2571 -0.0359  0.1393
 1573TIP3    H126354   3.671   6.512   1.551 -0.3836  2.5586  0.7519
 1573TIP3    H226355   3.629   6.534   1.408  0.0267  2.9065  0.6843
 1574TIP3   OH226356   4.648   3.244   8.103  0.2951  0.4115 -0.4803
 1574TIP3    H126357   4.588   3.230   8.030 -1.2447  0.2177  0.7672
 1574TIP3    H226358   4.700   3.164   8.107  0.2712  0.3506 -1.2471
 1575TIP3   OH226359   3.573   2.658   0.137  0.1793  0.6891 -0.2865
 1575TIP3    H126360   3.527   2.585   0.094  1.3594  0.4104 -1.1323
 1575TIP3    H226361   3.569   2.637   0.230  0.7214 -0.6130 -0.5273
 1576TIP3   OH226362   6.282   2.163   1.981  0.2431  0.0505  0.2583
 1576TIP3    H126363   6.213   2.225   2.006  1.4970  1.7404 -0.2376
 1576TIP3    H226364   6.345   2.216   1.933  1.5476 -1.5823  0.0690
 1577TIP3   OH226365   4.424   5.655   6.645 -0.6308 -0.6312 -0.8600
 1577TIP3    H126366   4.411   5.627   6.554 -1.0878  0.0193 -0.9993
 1577TIP3    H226367   4.500   5.714   6.642  0.3996 -1.8960 -0.5495
 1578TIP3   OH226368   0.587   2.692   1.335  0.9664  0.2028 -0.2216
 1578TIP3    H126369   0.605   2.764   1.275  1.9675 -1.8599 -2.5925
 1578TIP3    H226370   0.673   2.657   1.358  0.5330  0.1363  1.3895
 1579TIP3   OH226371   4.136   3.853   0.056  0.1560 -0.1517  0.5048
 1579TIP3    H126372   4.125   3.945   0.029  2.1500  0.0621  0.3198
 1579TIP3    H226373   4.183   3.812  -0.016 -0.5588 -1.3060  0.6701
 1580TIP3   OH226374   5.973   1.909   7.450  0.6278 -0.3119  0.0496
 1580TIP3    H126375   5.956   1.995   7.488  0.2642  0.9271 -2.6394
 1580TIP3    H226376   6.042   1.925   7.385 -1.3971 -1.3425 -2.5860
 1581TIP3   OH226377   4.976   4.693   8.437 -0.7273 -0.9544  0.0631
 1581TIP3    H126378   5.040   4.652   8.495  0.2436 -0.5965 -0.7336
 1581TIP3    H226379   4.920   4.621   8.408 -0.0312 -1.4637 -0.0549
 1582TIP3   OH226380   1.824   3.280   1.596 -0.5220 -0.1575  0.5476
 1582TIP3    H126381   1.910   3.236   1.597 -0.1256  0.6092  1.2987
 1582TIP3    H226382   1.804   3.295   1.688 -1.2492  0.0946  0.3494
 1583TIP3   OH226383   5.990   4.625   0.879  0.3728  0.3850 -0.1881
 1583TIP3    H126384   5.942   4.675   0.945 -0.6797  1.0688 -1.4280
 1583TIP3    H226385   6.053   4.688   0.842 -0.4438  0.6188 -1.2314
 1584TIP3   OH226386   3.096   6.885   1.158  0.2098 -0.9448  0.0315
 1584TIP3    H126387   3.015   6.876   1.209  0.4214 -0.5429  0.4508
 1584TIP3    H226388   3.147   6.807   1.178  0.2142 -0.8736  0.3061
 1585TIP3   OH226389   5.669   0.463   7.796  0.6190  0.3351 -0.3284
 1585TIP3    H126390   5.751   0.430   7.834  0.8987  1.1824 -0.1605
 1585TIP3    H226391   5.616   0.487   7.872  1.2629  2.2377 -0.4116
 1586TIP3   OH226392   0.734   4.341   1.932 -0.4665 -0.0901 -0.5695
 1586TIP3    H126393   0.659   4.282   1.934 -0.4072 -0.1498  1.5273
 1586TIP3    H226394   0.700   4.425   1.963  0.2945 -0.1057  0.3535
 1587TIP3   OH226395   0.768   3.289   8.213  0.0532 -0.2250 -0.0639
 1587TIP3    H126396   0.852   3.279   8.257 -0.0077 -0.0066  0.1108
 1587TIP3    H226397   0.761   3.384   8.197  0.0725 -0.3038 -0.5452
 1588TIP3   OH226398   3.012   3.063   1.114 -0.1870  0.1263 -0.1644
 1588TIP3    H126399   3.065   3.021   1.046  0.3542 -0.6845  0.7361
 1588TIP3    H226400   3.073   3.079   1.186 -0.9878 -0.1408  0.6012
 1589TIP3   OH226401   2.072   2.485   0.444 -0.1345  0.0118 -0.3393
 1589TIP3    H126402   2.080   2.430   0.522 -0.6151 -0.1700 -0.4156
 1589TIP3    H226403   2.092   2.573   0.475 -1.8586  0.2039  0.3459
 1590TIP3   OH226404   5.336   6.103   0.519 -0.0219 -0.0267 -0.7446
 1590TIP3    H126405   5.419   6.139   0.487 -0.4501  0.4231 -1.3667
 1590TIP3    H226406   5.270   6.137   0.459 -0.5848 -0.9066 -0.6431
 1591TIP3   OH226407   0.927   2.946   1.388 -0.3358  0.6838  0.0354
 1591TIP3    H126408   0.892   2.929   1.301 -0.0507  0.1362  0.0220
 1591TIP3    H226409   0.898   3.035   1.409  0.8966  1.4357 -1.2682
 1592TIP3   OH226410   6.680   2.406   0.894  0.0630 -0.2343 -0.1137
 1592TIP3    H126411   6.724   2.482   0.931  0.4899 -1.2475  1.5477
 1592TIP3    H226412   6.629   2.441   0.820  1.6122  1.3527 -0.4820
 1593TIP3   OH226413   5.201   6.888   8.281  0.2132 -0.1951  0.1434
 1593TIP3    H126414   5.294   6.904   8.298  0.3806  0.2540 -1.1016
 1593TIP3    H226415   5.162   6.877   8.368  1.4055 -0.2684  0.6812
 1594TIP3   OH226416   2.612   2.688   1.550 -0.1129  0.0666 -0.1019
 1594TIP3    H126417   2.540   2.688   1.613  1.7600 -0.8395  2.1608
 1594TIP3    H226418   2.688   2.660   1.600  2.0990  2.0467 -2.1235
 1595TIP3   OH226419   1.588   2.779   0.765 -0.7412  0.2707 -0.1880
 1595TIP3    H126420   1.666   2.724   0.761 -0.9563 -0.1648  1.0160
 1595TIP3    H226421   1.516   2.717   0.774 -0.8059  0.6678  3.7032
 1596TIP3   OH226422   5.240   4.718   0.027  0.4220 -0.2413  0.1825
 1596TIP3    H126423   5.257   4.625   0.044 -2.8163 -1.3311 -1.6195
 1596TIP3    H226424   5.169   4.741   0.088 -0.7247  0.1877 -1.2538
 1597TIP3   OH226425   5.221   3.866   8.221 -0.2789 -0.2423  0.3913
 1597TIP3    H126426   5.163   3.815   8.166 -0.7594  1.4525 -0.7624
 1597TIP3    H226427   5.265   3.802   8.277 -1.0690 -1.8350 -0.7581
 1598TIP3   OH226428   2.907   5.094   1.384 -0.2547  0.1511 -0.0703
 1598TIP3    H126429   2.965   5.019   1.371  0.8349  0.4512  2.3995
 1598TIP3    H226430   2.895   5.131   1.296  3.7441  0.3577 -0.7409
 1599TIP3   OH226431   5.893   6.368   8.321 -0.8441  1.0675  0.1452
 1599TIP3    H126432   5.952   6.444   8.312  2.2314 -1.1319  0.2401
 1599TIP3    H226433   5.891   6.351   8.415  1.2752 -0.8641 -0.0737
 1600TIP3   OH226434   5.960   0.019   8.416  0.1974 -0.2483  0.2678
 1600TIP3    H126435   6.034  -0.035   8.388 -0.3028 -0.6476 -0.2906
 1600TIP3    H226436   5.909  -0.038   8.474  1.0782  0.4832  1.8465
 1601TIP3   OH226437   5.629   3.554   7.832  0.9127  0.3875 -0.0948
 1601TIP3    H126438   5.587   3.625   7.880  1.9310  0.9941 -0.0934
 1601TIP3    H226439   5.681   3.597   7.764 -0.4763 -0.4440 -1.7758
 1602TIP3   OH226440   6.191   2.175   2.694 -0.1615  0.1637 -0.3424
 1602TIP3    H126441   6.243   2.130   2.627  1.2213 -0.4656  1.0668
 1602TIP3    H226442   6.237   2.258   2.709 -0.2201  0.1256  0.0820
 1603TIP3   OH226443   6.829   6.168   0.525 -0.0516 -0.6975  0.4810
 1603TIP3    H126444   6.919   6.201   0.524  0.3566 -1.7054 -1.0125
 1603TIP3    H226445   6.800   6.179   0.615  0.5209  2.3041  0.4073
 1604TIP3   OH226446   1.095   4.086   6.661  0.3314 -0.2665 -0.4033
 1604TIP3    H126447   1.135   4.173   6.664 -0.8700  0.3643 -1.8643
 1604TIP3    H226448   1.020   4.092   6.721  0.0475 -0.1925 -0.7668
 1605TIP3   OH226449   3.677   4.198   7.001  0.0660 -0.7492  0.1822
 1605TIP3    H126450   3.680   4.108   7.033 -0.5858 -0.5270  0.9304
 1605TIP3    H226451   3.728   4.248   7.064  1.2956 -0.7282 -0.7961
 1606TIP3   OH226452   6.519   3.329   2.703  0.2299  0.0590  0.3442
 1606TIP3    H126453   6.459   3.393   2.664  0.5300  0.2276  0.1593
 1606TIP3    H226454   6.568   3.379   2.768  1.3294  0.3245 -0.6479
 1607TIP3   OH226455   6.549   4.229   8.261 -0.4464 -0.1728 -0.1033
 1607TIP3    H126456   6.514   4.163   8.201 -0.5264 -0.7807  0.5832
 1607TIP3    H226457   6.568   4.180   8.341  2.6396 -0.0262 -0.6182
 1608TIP3   OH226458   5.506   1.415   2.544  0.2092  0.1602  0.2550
 1608TIP3    H126459   5.502   1.441   2.636 -4.0351  2.1112 -0.2140
 1608TIP3    H226460   5.465   1.329   2.542 -0.8225  0.6290  0.1616
 1609TIP3   OH226461   6.756   5.688   1.767  0.1935 -0.1256 -0.2669
 1609TIP3    H126462   6.818   5.756   1.744  0.2393  0.5024  1.5844
 1609TIP3    H226463   6.775   5.667   1.859 -1.1732 -1.1602 -0.1799
 1610TIP3   OH226464   4.919   6.562   0.644  0.2375  0.4690  0.2677
 1610TIP3    H126465   5.008   6.526   0.643  0.0751 -0.0451  1.8407
 1610TIP3    H226466   4.879   6.526   0.723 -1.4899  0.4296 -0.5661
 1611TIP3   OH226467   6.529   2.069   2.119  0.4934  0.0424  1.0336
 1611TIP3    H126468   6.435   2.083   2.109  0.3706 -0.9883  0.6207
 1611TIP3    H226469   6.544   2.068   2.213  0.0750  0.0957  1.0989
 1612TIP3   OH226470   6.705   0.791   7.982  0.0176 -0.9576  0.1833
 1612TIP3    H126471   6.780   0.803   8.040  0.4561  0.2848 -0.5844
 1612TIP3    H226472   6.638   0.850   8.017 -0.1118 -1.0425  0.0778
 1613TIP3   OH226473   6.078   2.841   8.351  0.4652  0.5626  0.1922
 1613TIP3    H126474   6.034   2.763   8.385  0.6141  0.6866  0.6712
 1613TIP3    H226475   6.006   2.901   8.330  0.3140  0.0323 -0.8460
 1614TIP3   OH226476   5.410   3.462   7.409  0.3274 -0.0112 -0.5960
 1614TIP3    H126477   5.467   3.451   7.333 -0.3384 -0.5369 -1.0262
 1614TIP3    H226478   5.454   3.413   7.479  0.7594  0.1791 -0.7300
 1615TIP3   OH226479   4.024   0.366   7.820 -0.0850  0.5756 -0.1505
 1615TIP3    H126480   4.101   0.423   7.827  0.8797 -0.6740 -0.1261
 1615TIP3    H226481   3.990   0.382   7.732  0.7043  0.5369 -0.4702
 1616TIP3   OH226482   1.344   1.210   2.507 -0.2521  0.1297 -0.3242
 1616TIP3    H126483   1.365   1.127   2.464  1.6679  0.7377 -0.6691
 1616TIP3    H226484   1.270   1.190   2.564 -0.0365 -1.7427 -0.6383
 1617TIP3   OH226485   3.410   1.966   1.397 -0.2337 -0.0918  0.2091
 1617TIP3    H126486   3.437   1.979   1.488 -1.1126  2.3867  0.1897
 1617TIP3    H226487   3.331   1.912   1.403 -0.4508  0.2829  0.9574
 1618TIP3   OH226488   6.436   4.670   8.281  1.0388  0.7507 -0.4757
 1618TIP3    H126489   6.510   4.626   8.323  0.4461 -1.1165 -1.3051
 1618TIP3    H226490   6.385   4.599   8.242 -0.1459  2.1668 -1.5911
 1619TIP3   OH226491   4.479   0.745   1.366  0.1520  0.2652  0.0956
 1619TIP3    H126492   4.461   0.740   1.460  1.4280  1.5166  0.4476
 1619TIP3    H226493   4.445   0.831   1.339  1.4542  0.7287 -0.1574
 1620TIP3   OH226494   0.703   2.191   0.577  0.2236 -0.8478  0.5838
 1620TIP3    H126495   0.636   2.259   0.565  1.4673  0.4572  0.7872
 1620TIP3    H226496   0.668   2.115   0.530 -0.9811  0.0812 -0.0851
 1621TIP3   OH226497   3.889   5.355   6.909 -0.1237 -0.4022  0.1618
 1621TIP3    H126498   3.941   5.337   6.988 -0.8816  2.1535  1.3555
 1621TIP3    H226499   3.798   5.342   6.937 -0.3486 -0.7095 -0.6862
 1622TIP3   OH226500   5.936   5.292   7.908  0.0740  0.0173  0.1000
 1622TIP3    H126501   5.863   5.273   7.967  0.1332  0.2234  0.2414
 1622TIP3    H226502   5.898   5.287   7.820  0.2460 -1.4428  0.0869
 1623TIP3   OH226503   3.848   2.498   0.274 -0.4363 -0.4173  0.2447
 1623TIP3    H126504   3.788   2.571   0.262  0.8766  0.6058 -0.3151
 1623TIP3    H226505   3.890   2.516   0.358 -0.9939 -1.2138  0.7125
 1624TIP3   OH226506   3.796   4.374   7.191  0.3581 -0.0527  0.0851
 1624TIP3    H126507   3.716   4.410   7.229  1.7739  2.1804  1.2010
 1624TIP3    H226508   3.853   4.358   7.266  2.0432  1.3382 -0.8173
 1625TIP3   OH226509   4.874   0.925   8.543  0.5793  0.2057 -0.3836
 1625TIP3    H126510   4.886   0.951   8.635 -1.9158  0.1235  0.0242
 1625TIP3    H226511   4.904   0.835   8.540 -0.7585 -0.3180  0.7741
 1626TIP3   OH226512   5.956   5.472   1.189  0.2464 -0.6188 -0.0942
 1626TIP3    H126513   5.966   5.519   1.106  1.1121 -1.7047 -0.6410
 1626TIP3    H226514   5.977   5.537   1.256  4.9962 -0.9278 -0.9087
 1627TIP3   OH226515   2.302   3.597   6.968  0.5165  0.6454 -0.0360
 1627TIP3    H126516   2.323   3.661   6.900  0.6129  0.5514 -0.0955
 1627TIP3    H226517   2.332   3.637   7.049  1.6865  0.1650 -0.2150
 1628TIP3   OH226518   0.638   3.321   0.274 -0.6135  0.1372 -0.1690
 1628TIP3    H126519   0.543   3.312   0.281 -0.5403 -0.9214 -0.3352
 1628TIP3    H226520   0.668   3.322   0.365 -0.7428 -0.0770 -0.1230
 1629TIP3   OH226521   5.641   6.727   1.747  0.2260 -0.2134  0.2216
 1629TIP3    H126522   5.712   6.700   1.805  0.2575 -0.5293  0.0385
 1629TIP3    H226523   5.677   6.719   1.659  0.2501  0.4732  0.1609
 1630TIP3   OH226524   3.727   4.124   2.224 -0.3643  0.3998  0.1077
 1630TIP3    H126525   3.778   4.044   2.235 -0.9449  0.1079  0.7391
 1630TIP3    H226526   3.781   4.179   2.167  0.3815 -0.1409  0.2745
 1631TIP3   OH226527   1.715   2.882   7.991  0.5445 -0.5310 -0.2217
 1631TIP3    H126528   1.759   2.869   7.908  0.3997  1.3113 -0.6239
 1631TIP3    H226529   1.745   2.967   8.022 -1.1818 -0.1139  0.4606
 1632TIP3   OH226530   1.525   6.025   7.068 -0.7344 -0.0447  0.2324
 1632TIP3    H126531   1.452   6.073   7.027 -1.7503 -2.0836 -0.5237
 1632TIP3    H226532   1.482   5.955   7.118  0.6877 -0.7202  0.5512
 1633TIP3   OH226533   1.887   1.401   8.053 -0.0304 -0.4306 -0.0005
 1633TIP3    H126534   1.950   1.464   8.089 -0.0765 -0.6917  0.5444
 1633TIP3    H226535   1.871   1.339   8.124 -2.9367  1.0880  0.8144
 1634TIP3   OH226536   5.013   0.800   6.470  0.3860  0.4280  0.4683
 1634TIP3    H126537   5.014   0.706   6.488 -0.8682  0.1592 -0.7369
 1634TIP3    H226538   4.920   0.822   6.460  0.5484  2.0878  2.0799
 1635TIP3   OH226539   5.490   5.943   7.529  0.5067 -0.5663 -0.3153
 1635TIP3    H126540   5.500   5.854   7.560  2.5549  0.0450  1.0053
 1635TIP3    H226541   5.580   5.976   7.523 -0.1948  1.4135 -0.7326
 1636TIP3   OH226542   3.088   0.692   7.865 -0.5337 -0.0389 -0.2887
 1636TIP3    H126543   3.140   0.752   7.811 -1.9104  1.2798 -0.2479
 1636TIP3    H226544   3.099   0.725   7.954 -0.1463 -0.7501 -0.0739
 1637TIP3   OH226545   0.577   3.890   2.600 -0.2085 -0.3247  0.0513
 1637TIP3    H126546   0.665   3.909   2.569 -0.2152 -1.5007 -0.7396
 1637TIP3    H226547   0.520   3.943   2.544 -0.1778 -1.9462 -1.6082
 1638TIP3   OH226548   5.389   4.999   0.655  0.0341 -0.1607  0.2055
 1638TIP3    H126549   5.413   4.964   0.741 -0.6486 -0.9016  0.1051
 1638TIP3    H226550   5.467   4.987   0.602 -0.1739 -1.5580  0.1778
 1639TIP3   OH226551   2.121   2.791   1.810 -0.0140  0.5362 -0.7514
 1639TIP3    H126552   2.094   2.859   1.872  1.2540  0.6905 -0.3354
 1639TIP3    H226553   2.176   2.837   1.747  1.8948 -0.2703  0.2453
 1640TIP3   OH226554   0.576   4.940   7.759  0.0665  0.2641  0.9643
 1640TIP3    H126555   0.521   4.939   7.681 -0.4148 -1.3330  1.2883
 1640TIP3    H226556   0.566   5.029   7.794  0.2313  0.9810 -0.7194
 1641TIP3   OH226557   4.669   3.644   7.534 -0.1266  0.6001 -0.2701
 1641TIP3    H126558   4.665   3.733   7.569 -0.2269 -0.1000  1.6494
 1641TIP3    H226559   4.614   3.646   7.456  0.4118  2.3691 -0.6347
 1642TIP3   OH226560   5.224   1.426   0.765  0.7456  0.4422 -0.3553
 1642TIP3    H126561   5.199   1.337   0.789  0.1653  1.3113  2.6720
 1642TIP3    H226562   5.171   1.447   0.688  0.5746 -1.6204 -0.8551
 1643TIP3   OH226563   2.518   3.183   0.936  0.0580 -0.1025  0.6424
 1643TIP3    H126564   2.451   3.209   0.873 -0.0611  1.7683  1.4671
 1643TIP3    H226565   2.541   3.094   0.911 -0.7407  0.2027 -1.3648
 1644TIP3   OH226566   4.622   5.077   6.730 -0.5992  0.8764 -0.1582
 1644TIP3    H126567   4.586   5.158   6.767  1.1615  1.4972  0.3221
 1644TIP3    H226568   4.717   5.091   6.731 -0.3526 -0.1323 -2.5210
 1645TIP3   OH226569   0.801   4.352   7.820  0.1477 -0.0641 -0.3397
 1645TIP3    H126570   0.759   4.398   7.748 -0.5268 -0.6395 -0.3289
 1645TIP3    H226571   0.828   4.268   7.783  0.7441  0.0566 -0.1862
 1646TIP3   OH226572   4.337   6.651   1.191  0.5826 -0.0100  0.7449
 1646TIP3    H126573   4.242   6.645   1.188  0.4839  1.3078  0.8429
 1646TIP3    H226574   4.356   6.700   1.271  1.4120 -1.3377  1.4033
 1647TIP3   OH226575   6.138   6.797   7.942  0.3219  0.1003 -0.0364
 1647TIP3    H126576   6.110   6.865   8.004 -2.2238  0.2470 -1.2169
 1647TIP3    H226577   6.126   6.836   7.856  1.4486 -0.9478 -0.7067
 1648TIP3   OH226578   1.691   5.764   0.479 -0.3363  0.5705 -0.2315
 1648TIP3    H126579   1.604   5.740   0.447  0.3881 -0.9319 -1.1173
 1648TIP3    H226580   1.709   5.701   0.549 -0.0717  1.0749  0.1631
 1649TIP3   OH226581   0.442   6.240   8.235 -0.1121 -0.1017  0.3814
 1649TIP3    H126582   0.372   6.221   8.173  0.0031  1.1297 -0.1607
 1649TIP3    H226583   0.500   6.300   8.188 -0.5546  1.6766  1.9863
 1650TIP3   OH226584   6.124   2.053   1.427 -0.1046  0.0693  0.6190
 1650TIP3    H126585   6.186   2.080   1.360 -0.9136  0.1620 -0.1165
 1650TIP3    H226586   6.126   2.124   1.491  0.0704  0.3842  0.2719
 1651TIP3   OH226587   3.628   4.174   6.043  0.1842 -0.5383 -0.1350
 1651TIP3    H126588   3.708   4.203   6.087 -0.1536  1.3259 -0.6866
 1651TIP3    H226589   3.557   4.221   6.087 -0.3965 -0.5459 -1.0298
 1652TIP3   OH226590   1.613   4.637   2.475 -0.0421  0.4297 -0.1138
 1652TIP3    H126591   1.544   4.571   2.481  0.0969  0.3975  1.5195
 1652TIP3    H226592   1.693   4.589   2.498  0.2795  0.8374 -0.3801
 1653TIP3   OH226593   5.758   2.847   0.581  0.2739 -0.1579  0.3092
 1653TIP3    H126594   5.804   2.770   0.615 -0.1068 -0.0393  1.1103
 1653TIP3    H226595   5.829   2.908   0.560  0.5072  0.1856  1.9362
 1654TIP3   OH226596   2.588   1.026   1.096  0.1538 -0.1273  0.5761
 1654TIP3    H126597   2.624   1.000   1.181  0.9935 -2.3238 -0.3716
 1654TIP3    H226598   2.648   0.988   1.032 -1.4134 -0.0387 -1.0236
 1655TIP3   OH226599   0.744   5.083   1.890  0.5033  0.1454 -0.5118
 1655TIP3    H126600   0.665   5.029   1.881 -0.0909  0.7482  0.8059
 1655TIP3    H226601   0.715   5.160   1.938  2.1272 -0.1386  1.0166
 1656TIP3   OH226602   2.805   5.252   0.053 -0.4218 -0.7243  0.0090
 1656TIP3    H126603   2.717   5.245   0.015 -0.7009 -1.9310  0.8117
 1656TIP3    H226604   2.827   5.162   0.078  1.4617 -0.6060 -1.0674
 1657TIP3   OH226605   4.969   2.459   0.610 -0.0513  0.2424  0.0673
 1657TIP3    H126606   4.938   2.482   0.698  0.0420 -0.9018  0.4092
 1657TIP3    H226607   4.892   2.421   0.567 -0.7632  2.8381 -1.1741
 1658TIP3   OH226608   3.903   1.609   7.408  0.0845 -0.4308  1.1491
 1658TIP3    H126609   3.966   1.617   7.480  1.2696  0.5423  0.0270
 1658TIP3    H226610   3.928   1.676   7.345 -2.4705  0.4313  0.9274
 1659TIP3   OH226611   3.409   1.545   2.618 -0.1447 -0.3764 -0.3628
 1659TIP3    H126612   3.479   1.591   2.571  0.4889 -1.1451 -0.1946
 1659TIP3    H226613   3.396   1.597   2.697  0.0402 -0.0703 -0.5304
 1660TIP3   OH226614   3.483   4.307   0.320 -0.2779 -0.0553  0.4946
 1660TIP3    H126615   3.429   4.369   0.269 -0.1204 -0.0673  0.3124
 1660TIP3    H226616   3.463   4.328   0.411 -1.1672 -0.5540  0.4327
 1661TIP3   OH226617   4.272   2.496   8.560 -0.0225 -0.1860  0.1303
 1661TIP3    H126618   4.183   2.475   8.589 -0.3054 -0.2152 -0.7347
 1661TIP3    H226619   4.266   2.497   8.465  0.8569  0.0454  0.0744
 1662TIP3   OH226620   0.370   6.764   1.591  0.5176  0.3690  0.2017
 1662TIP3    H126621   0.415   6.836   1.548  0.1161  1.5392  1.6646
 1662TIP3    H226622   0.336   6.711   1.519  1.4254  1.2299 -0.9076
 1663TIP3   OH226623   1.557   2.434   2.100  0.0181  0.7693 -0.1364
 1663TIP3    H126624   1.625   2.419   2.165 -1.7895 -0.3433  1.6280
 1663TIP3    H226625   1.535   2.347   2.068 -0.5998  1.0992 -0.6235
 1664TIP3   OH226626   1.356   6.455   0.545  0.3747 -0.2216  0.2942
 1664TIP3    H126627   1.350   6.416   0.458  1.7017 -1.7474  0.8387
 1664TIP3    H226628   1.429   6.516   0.540  0.9017 -0.8175  0.4844
 1665TIP3   OH226629   3.336   5.441   6.329 -0.0822  0.3721 -0.0007
 1665TIP3    H126630   3.329   5.534   6.350 -1.6413  0.2297  0.2560
 1665TIP3    H226631   3.346   5.439   6.233 -0.4603  0.8111 -0.0569
 1666TIP3   OH226632   1.647   6.425   7.256  0.1163  0.1181 -0.8431
 1666TIP3    H126633   1.568   6.456   7.301  0.7397  0.1522  0.2487
 1666TIP3    H226634   1.621   6.419   7.164 -1.0418  0.5139 -0.5567
 1667TIP3   OH226635   3.153   6.704   7.323  0.5977  0.5288 -0.1788
 1667TIP3    H126636   3.101   6.737   7.397 -1.9084 -1.7146 -0.7771
 1667TIP3    H226637   3.206   6.634   7.361  2.2634  1.9173  0.1618
 1668TIP3   OH226638   4.192   1.168   1.623 -0.1833  0.2083  0.1011
 1668TIP3    H126639   4.261   1.202   1.565 -1.7616  2.5522 -0.5415
 1668TIP3    H226640   4.168   1.084   1.584  1.5695 -0.1897 -0.2411
 1669TIP3   OH226641   6.435   0.462   1.708  0.1453 -0.8058  0.4324
 1669TIP3    H126642   6.394   0.522   1.771  0.3575 -0.6800  0.4543
 1669TIP3    H226643   6.389   0.379   1.720  0.7928 -1.0450  1.4132
 1670TIP3   OH226644   2.826   1.587   7.160  0.2326 -0.1372 -0.4035
 1670TIP3    H126645   2.849   1.677   7.183 -0.4170 -0.2474  0.8203
 1670TIP3    H226646   2.859   1.535   7.233 -0.3933 -0.7464 -0.5435
 1671TIP3   OH226647   4.130   3.739   7.798 -0.2561 -0.7727 -0.1313
 1671TIP3    H126648   4.048   3.760   7.844  0.3948 -0.3799  0.8816
 1671TIP3    H226649   4.108   3.663   7.744 -1.5575 -0.0464 -0.6710
 1672TIP3   OH226650   4.567   0.865   8.206  0.4391 -0.3397  0.0047
 1672TIP3    H126651   4.603   0.945   8.244  1.6368 -1.4119  1.2195
 1672TIP3    H226652   4.570   0.801   8.277 -1.3019 -1.2473 -0.6963
 1673TIP3   OH226653   1.331   0.177   2.445 -0.0293  0.2004  0.0329
 1673TIP3    H126654   1.315   0.213   2.533  2.2730 -1.3686  1.2167
 1673TIP3    H226655   1.410   0.222   2.415  1.6891 -2.1735  0.6784
 1674TIP3   OH226656   5.650   1.640   1.355  0.0755 -0.0988 -0.1041
 1674TIP3    H126657   5.609   1.648   1.268 -0.2429  1.0698  0.1361
 1674TIP3    H226658   5.671   1.730   1.380 -2.8742  0.0809  2.4532
 1675TIP3   OH226659   0.225   5.498   1.477  0.3601 -0.2749 -0.7712
 1675TIP3    H126660   0.168   5.424   1.457 -0.0381  0.3519 -2.0753
 1675TIP3    H226661   0.176   5.575   1.448  1.2411  0.3985 -0.5201
 1676TIP3   OH226662   1.817   3.672   8.313 -0.5515 -0.4320 -0.4673
 1676TIP3    H126663   1.898   3.621   8.316 -0.5654 -0.4630 -0.6196
 1676TIP3    H226664   1.815   3.720   8.397 -0.8087 -1.0931 -0.0892
 1677TIP3   OH226665   2.544   2.724   1.151 -0.1882  0.3221 -0.4631
 1677TIP3    H126666   2.512   2.759   1.233 -0.6428  0.1505 -0.5624
 1677TIP3    H226667   2.593   2.645   1.176  1.7095  1.5313 -0.1416
 1678TIP3   OH226668   1.664   6.840   7.299  0.6419 -0.0298  0.1813
 1678TIP3    H126669   1.638   6.789   7.376  0.7392 -0.5412 -0.1199
 1678TIP3    H226670   1.598   6.909   7.292  0.3601 -0.2717  0.4381
 1679TIP3   OH226671   6.458   5.398   0.636  0.3622  0.4399  0.0038
 1679TIP3    H126672   6.508   5.378   0.716  2.4732  0.6194 -1.2202
 1679TIP3    H226673   6.489   5.335   0.572 -0.4513  1.0668 -1.0329
 1680TIP3   OH226674   5.455   4.452   6.706 -0.1194  0.7964 -0.0756
 1680TIP3    H126675   5.539   4.412   6.686  0.0695  0.4997  1.2241
 1680TIP3    H226676   5.474   4.545   6.719 -0.1299  0.8664 -0.5374
 1681TIP3   OH226677   3.563   0.597   2.263  0.1391 -0.2878 -0.5021
 1681TIP3    H126678   3.586   0.673   2.317 -3.2649  1.1546 -0.8552
 1681TIP3    H226679   3.515   0.539   2.321 -2.0692  0.4963 -1.4276
 1682TIP3   OH226680   5.679   4.626   7.077 -0.1502 -0.5510 -0.0426
 1682TIP3    H126681   5.723   4.572   7.012 -0.1725 -0.5850 -0.0293
 1682TIP3    H226682   5.609   4.571   7.111  0.6118 -0.9838  0.8892
 1683TIP3   OH226683   4.683   4.126   7.715  0.2765 -0.0528 -0.0564
 1683TIP3    H126684   4.748   4.189   7.684  0.8126 -0.3894  0.3603
 1683TIP3    H226685   4.687   4.133   7.811  0.4391 -0.8118 -0.0037
 1684TIP3   OH226686   6.134   5.015   7.858  0.2713  0.3433 -0.7417
 1684TIP3    H126687   6.101   5.080   7.796 -0.3664 -1.6203 -2.5906
 1684TIP3    H226688   6.135   4.933   7.809  0.8759 -1.1122  1.5253
 1685TIP3   OH226689   0.464   4.041   6.917 -0.1305 -0.6310  0.0018
 1685TIP3    H126690   0.431   3.997   6.839  0.5623 -0.9680 -0.1069
 1685TIP3    H226691   0.515   4.115   6.883 -3.3279  1.9014  0.1739
 1686TIP3   OH226692   4.194   2.678   7.712 -0.1682 -0.3918 -0.2126
 1686TIP3    H126693   4.193   2.769   7.682 -1.1826 -1.1057 -2.4832
 1686TIP3    H226694   4.285   2.651   7.701  0.2601  0.4542  0.9706
 1687TIP3   OH226695   0.942   0.309   0.254 -0.1567 -0.3370 -0.3039
 1687TIP3    H126696   0.931   0.216   0.232  0.1877 -0.0207 -1.9381
 1687TIP3    H226697   0.958   0.309   0.348 -2.7349 -1.7198  0.2300
 1688TIP3   OH226698   2.934   2.931   0.388  0.0407  0.3199 -0.0963
 1688TIP3    H126699   2.853   2.898   0.425 -1.8184  1.4407 -2.8044
 1688TIP3    H226700   2.963   2.999   0.448 -1.3934  0.3289  0.6115
 1689TIP3   OH226701   4.818   5.471   1.732 -0.0964  0.0407 -0.2424
 1689TIP3    H126702   4.858   5.551   1.697 -1.3031  0.4588 -0.7255
 1689TIP3    H226703   4.789   5.423   1.655  0.8064 -0.9914  0.0372
 1690TIP3   OH226704   3.567   5.017   6.789 -0.1916 -0.4115 -0.1211
 1690TIP3    H126705   3.519   4.943   6.752  0.3686 -2.7466  3.3169
 1690TIP3    H226706   3.655   5.010   6.750  0.1910 -2.3649  0.9541
 1691TIP3   OH226707   3.360   2.223   8.119 -0.7467  0.0598 -0.0263
 1691TIP3    H126708   3.444   2.261   8.144 -0.6549  0.4662 -0.9203
 1691TIP3    H226709   3.315   2.206   8.203  0.3285 -0.4248  0.4623
 1692TIP3   OH226710   5.260   5.911   2.215  0.0594 -0.5255 -0.8758
 1692TIP3    H126711   5.229   5.988   2.166 -2.0573  0.0988  1.2299
 1692TIP3    H226712   5.304   5.857   2.150 -1.4682  0.8422 -3.1857
 1693TIP3   OH226713   5.908   1.156   8.169 -0.2466 -0.1266  0.1107
 1693TIP3    H126714   5.826   1.110   8.153 -0.7570  0.6902  0.3305
 1693TIP3    H226715   5.882   1.243   8.199  0.6918 -0.1175  0.9797
 1694TIP3   OH226716   4.690   5.357   8.093 -0.2940  0.5146 -0.0523
 1694TIP3    H126717   4.699   5.289   8.159 -0.2297  0.1560 -0.4208
 1694TIP3    H226718   4.741   5.430   8.126  0.0596  0.1967  0.1122
 1695TIP3   OH226719   1.058   0.135   1.588 -0.1584 -0.1197  0.3008
 1695TIP3    H126720   0.976   0.153   1.635 -0.3032  0.3640 -0.1279
 1695TIP3    H226721   1.125   0.136   1.657 -0.5612 -0.9776  0.7200
 1696TIP3   OH226722   3.558   2.279   1.668 -0.2002 -0.1829 -0.3300
 1696TIP3    H126723   3.509   2.344   1.719  0.1971  1.2437 -1.6954
 1696TIP3    H226724   3.606   2.229   1.734 -1.8563 -0.2427  0.8770
 1697TIP3   OH226725   0.534   3.459   2.677 -0.1726 -0.0985  0.4719
 1697TIP3    H126726   0.450   3.416   2.686 -1.4250  1.7043 -1.5869
 1697TIP3    H226727   0.537   3.488   2.585  1.6195  1.9992  1.0988
 1698TIP3   OH226728   1.957   4.529   7.995  0.1811  0.0514  0.2136
 1698TIP3    H126729   2.008   4.610   7.994  0.2996 -0.0271 -0.1662
 1698TIP3    H226730   1.998   4.474   7.928  0.9194 -0.8355  1.3579
 1699TIP3   OH226731   6.203   4.767   0.783  0.3283  0.9638  0.1505
 1699TIP3    H126732   6.153   4.783   0.703  1.2536  2.3422 -0.1931
 1699TIP3    H226733   6.288   4.736   0.752  0.5429  1.0824  0.6107
 1700TIP3   OH226734   4.240   6.643   7.805 -0.4421  0.4467  0.1226
 1700TIP3    H126735   4.290   6.561   7.810  0.2847  0.9596  2.1475
 1700TIP3    H226736   4.305   6.712   7.816 -1.1211  1.3074 -1.0628
 1701TIP3   OH226737   4.522   4.296   7.213  0.0366 -0.2459 -0.7079
 1701TIP3    H126738   4.603   4.280   7.164 -0.3758 -2.5759 -0.7347
 1701TIP3    H226739   4.453   4.257   7.159 -0.9312  0.3693  0.0377
 1702TIP3   OH226740   3.049   4.168   1.539 -0.2615  0.1131  0.1310
 1702TIP3    H126741   3.036   4.077   1.567 -0.3379 -0.0785 -0.5245
 1702TIP3    H226742   3.134   4.168   1.496 -0.0950  0.4360  0.4566
 1703TIP3   OH226743   1.366   6.762   0.741 -0.4794  0.1990  0.4221
 1703TIP3    H126744   1.401   6.846   0.713 -1.4431  0.7082  0.7064
 1703TIP3    H226745   1.443   6.706   0.752  0.1397  0.9286 -0.1323
 1704TIP3   OH226746   4.885   5.739   0.308 -0.5006  0.6598 -0.4169
 1704TIP3    H126747   4.849   5.697   0.386 -0.1089 -0.2514 -0.7075
 1704TIP3    H226748   4.907   5.827   0.336  4.6026 -1.0000  2.1455
 1705TIP3   OH226749   6.296   5.781   6.859 -0.3107  0.4580  0.0544
 1705TIP3    H126750   6.318   5.720   6.788  2.6596 -0.4526  1.6110
 1705TIP3    H226751   6.337   5.864   6.833 -0.3400  0.4974  0.1315
 1706TIP3   OH226752   1.038   3.519   6.812 -0.1590  0.0169 -0.1819
 1706TIP3    H126753   1.066   3.601   6.772  2.6101 -0.1196  1.1709
 1706TIP3    H226754   1.055   3.453   6.745 -1.1330  0.3851 -0.8073
 1707TIP3   OH226755   6.629   3.742   1.435 -0.0309  0.7999  0.5390
 1707TIP3    H126756   6.535   3.728   1.430 -0.1375  1.4393  0.6761
 1707TIP3    H226757   6.654   3.772   1.348  0.3872 -1.2412 -0.1082
 1708TIP3   OH226758   6.020   4.937   7.278  0.4640  0.4321 -0.1695
 1708TIP3    H126759   5.970   4.861   7.248 -0.7573 -0.0857  2.8884
 1708TIP3    H226760   6.088   4.901   7.334 -0.2061  1.5511  1.4226
 1709TIP3   OH226761   3.517   2.818   8.545 -0.2992 -0.4979  0.0383
 1709TIP3    H126762   3.531   2.776   8.630  0.7497 -2.7625 -1.1801
 1709TIP3    H226763   3.603   2.818   8.503 -0.7726  0.7002 -1.0112
 1710TIP3   OH226764   6.364   0.418   1.371  0.1541  0.0801  0.3885
 1710TIP3    H126765   6.435   0.399   1.432  1.1230 -0.7817 -0.9560
 1710TIP3    H226766   6.400   0.397   1.285 -1.3026  0.8856 -0.4584
 1711TIP3   OH226767   3.562   3.061   8.446 -0.1391  0.2066 -0.1331
 1711TIP3    H126768   3.530   3.108   8.523 -1.4972  0.4656 -0.8182
 1711TIP3    H226769   3.561   2.969   8.472  1.2648  0.4219  0.7756
 1712TIP3   OH226770   2.118   2.886   7.028 -0.5484  0.3373 -0.6471
 1712TIP3    H126771   2.184   2.945   6.991  0.8812 -1.3545 -0.9407
 1712TIP3    H226772   2.064   2.862   6.953 -1.2822  1.4092 -0.4837
 1713TIP3   OH226773   4.173   0.650   7.067  0.3460  0.3566  0.0098
 1713TIP3    H126774   4.194   0.572   7.016  1.0376 -0.4586  1.4745
 1713TIP3    H226775   4.258   0.687   7.092  0.1173 -0.5165  2.3664
 1714TIP3   OH226776   2.785   2.971   2.209  0.5395 -0.0907 -0.1032
 1714TIP3    H126777   2.823   2.891   2.247 -0.4754  0.0090  1.1927
 1714TIP3    H226778   2.846   3.041   2.236  0.7661 -0.2628 -0.1662
 1715TIP3   OH226779   4.906   1.099   0.656  0.0165 -0.4976 -0.5238
 1715TIP3    H126780   4.900   1.021   0.710 -1.3956 -0.3958 -0.5050
 1715TIP3    H226781   4.958   1.160   0.708 -0.9314 -0.5712  0.5418
 1716TIP3   OH226782   1.635   1.238   2.325  0.0887  0.0031 -0.0151
 1716TIP3    H126783   1.675   1.233   2.412  0.5924 -0.3976 -0.2592
 1716TIP3    H226784   1.688   1.178   2.271 -1.1474 -0.9315 -0.2297
 1717TIP3   OH226785   6.089   2.543   0.110 -0.3835 -0.4540  0.0841
 1717TIP3    H126786   6.161   2.526   0.050  1.1371  1.4909  1.2482
 1717TIP3    H226787   6.121   2.514   0.196 -1.0101  0.3284  0.6046
 1718TIP3   OH226788   1.320   0.514   7.496  0.5439  0.1959 -0.1109
 1718TIP3    H126789   1.351   0.486   7.582  2.5285 -2.6191 -1.5787
 1718TIP3    H226790   1.227   0.488   7.495  1.5120 -4.0465 -0.2148
 1719TIP3   OH226791   2.741   4.073   8.298 -0.4296 -0.1127 -0.0105
 1719TIP3    H126792   2.760   4.087   8.205  1.6126 -2.2841 -0.0054
 1719TIP3    H226793   2.676   4.002   8.299  1.1691 -1.6432  0.1834
 1720TIP3   OH226794   6.099   3.013   7.964  0.3502 -0.4627 -0.3506
 1720TIP3    H126795   6.162   2.950   7.930 -0.6611 -0.6537 -1.9546
 1720TIP3    H226796   6.035   3.024   7.894 -0.2807  1.2861  0.4317
 1721TIP3   OH226797   3.871   5.718   0.682 -0.1265 -0.0540 -0.2469
 1721TIP3    H126798   3.869   5.705   0.588 -0.7094 -1.9900 -0.0204
 1721TIP3    H226799   3.871   5.813   0.694  2.3396  0.3046 -2.2041
 1722TIP3   OH226800   4.377   5.733   7.281 -0.1733 -0.6944 -0.3330
 1722TIP3    H126801   4.461   5.776   7.297  0.3442 -1.6150 -0.4842
 1722TIP3    H226802   4.338   5.783   7.209 -0.7720  1.0870  1.1534
 1723TIP3   OH226803   6.108   3.762   2.284  0.0152 -0.1250 -0.0249
 1723TIP3    H126804   6.165   3.818   2.337  0.4707 -0.8901  0.3140
 1723TIP3    H226805   6.117   3.675   2.324 -0.8006 -0.4083 -0.4424
 1724TIP3   OH226806   4.982   0.638   8.314 -0.2806 -0.2373  0.2826
 1724TIP3    H126807   4.898   0.613   8.275  0.7334 -2.4253 -0.6130
 1724TIP3    H226808   5.010   0.560   8.362  1.1803  0.5249  0.7121
 1725TIP3   OH226809   2.602   2.176   8.150  0.1598 -0.1343 -0.3194
 1725TIP3    H126810   2.639   2.177   8.062 -1.5244  0.9345 -1.0605
 1725TIP3    H226811   2.604   2.268   8.177 -0.5388 -0.2697  0.2228
 1726TIP3   OH226812   4.067   3.602   7.572 -0.4655  0.2989 -0.3835
 1726TIP3    H126813   4.113   3.585   7.490 -0.0732 -0.8571  0.0537
 1726TIP3    H226814   4.011   3.525   7.585 -0.9224  0.7098  0.1732
 1727TIP3   OH226815   4.720   1.393   0.014  0.4665 -0.0435 -0.7070
 1727TIP3    H126816   4.729   1.481  -0.024  2.7743  0.6091  1.1419
 1727TIP3    H226817   4.765   1.335  -0.047 -0.7289  0.0556 -1.7364
 1728TIP3   OH226818   1.230   6.113   6.376  0.0151  0.4827  0.0900
 1728TIP3    H126819   1.161   6.114   6.443  0.2110  1.2771  0.3003
 1728TIP3    H226820   1.197   6.056   6.307  0.1473 -1.0153  1.2128
 1729TIP3   OH226821   4.767   0.303   7.165  0.4132  0.4330  0.0777
 1729TIP3    H126822   4.717   0.306   7.083 -0.6823  0.4489  0.7246
 1729TIP3    H226823   4.769   0.394   7.195 -0.2415  0.2572  0.6732
 1730TIP3   OH226824   6.905   3.112   7.467 -0.1356 -0.0447 -0.4677
 1730TIP3    H126825   6.967   3.071   7.528  0.2447 -0.2467 -0.9834
 1730TIP3    H226826   6.957   3.178   7.421 -0.7724  1.1336  0.4401
 1731TIP3   OH226827   6.552   6.741   1.951  0.0709 -0.2800  0.0329
 1731TIP3    H126828   6.533   6.834   1.959 -0.6009 -0.1751 -2.0573
 1731TIP3    H226829   6.547   6.707   2.040 -1.6060  1.3318  0.6082
 1732TIP3   OH226830   1.406   3.852   0.969  0.0243 -0.4795  0.0982
 1732TIP3    H126831   1.444   3.865   1.056 -0.3150 -2.0235  0.5084
 1732TIP3    H226832   1.472   3.802   0.921  0.2564  0.4538 -0.5944
 1733TIP3   OH226833   1.967   5.526   0.404  0.2650  0.3751 -0.4326
 1733TIP3    H126834   2.036   5.523   0.471 -0.5261  0.2956  0.4105
 1733TIP3    H226835   1.958   5.619   0.384  0.4872  0.4040 -0.4024
 1734TIP3   OH226836   6.732   2.396   0.488  0.1205 -0.4351 -0.7902
 1734TIP3    H126837   6.705   2.465   0.427  1.0760  0.2806 -0.4264
 1734TIP3    H226838   6.659   2.388   0.548 -0.0215  0.2493 -0.8564
 1735TIP3   OH226839   3.925   1.749   7.174 -0.0326  0.0839 -0.0614
 1735TIP3    H126840   4.019   1.734   7.179 -0.0635 -0.1792 -0.2078
 1735TIP3    H226841   3.893   1.678   7.118 -0.3841 -0.1415  0.4166
 1736TIP3   OH226842   0.498   0.969   7.232 -0.2988 -0.1416 -0.4838
 1736TIP3    H126843   0.534   0.957   7.320 -0.5657 -0.6294 -0.4384
 1736TIP3    H226844   0.482   0.880   7.200 -0.2631  0.0327 -1.0039
 1737TIP3   OH226845   1.410   2.819   1.738 -0.2857 -0.3709  0.6466
 1737TIP3    H126846   1.473   2.891   1.740 -1.2602  0.5059  1.8552
 1737TIP3    H226847   1.431   2.770   1.658  0.5863  1.0804 -0.0499
 1738TIP3   OH226848   5.487   3.641   0.177 -0.6990  0.2008  0.1167
 1738TIP3    H126849   5.548   3.656   0.249 -0.2216  2.0202 -0.6017
 1738TIP3    H226850   5.499   3.548   0.155  3.6971  0.8970 -1.5189
 1739TIP3   OH226851   5.117   1.575   2.642  0.0530  0.7818  0.4679
 1739TIP3    H126852   5.048   1.641   2.654 -2.3891 -1.1476 -1.8035
 1739TIP3    H226853   5.084   1.498   2.688 -0.5782 -0.9073 -2.5890
 1740TIP3   OH226854   2.615   0.652   7.549 -0.1976 -0.8373 -0.0157
 1740TIP3    H126855   2.702   0.666   7.585  0.0027  0.1797 -0.8466
 1740TIP3    H226856   2.555   0.689   7.614  0.0003 -1.3465  0.4588
 1741TIP3   OH226857   2.863   0.644   0.307  0.4289  0.0843 -0.3896
 1741TIP3    H126858   2.928   0.575   0.296  0.3623  0.1394 -1.1569
 1741TIP3    H226859   2.800   0.629   0.237  1.2729  1.8945 -1.6284
 1742TIP3   OH226860   3.877   6.362   0.882 -0.0749 -0.1265  0.0824
 1742TIP3    H126861   3.941   6.372   0.811  1.2076 -0.5114  1.1417
 1742TIP3    H226862   3.801   6.320   0.841  0.9873 -1.1627 -0.8864
 1743TIP3   OH226863   1.171   1.282   7.420  0.2240 -0.1579  0.3470
 1743TIP3    H126864   1.240   1.279   7.486  0.5850 -2.0487 -0.0564
 1743TIP3    H226865   1.105   1.220   7.452 -0.6010  0.5105 -0.0251
 1744TIP3   OH226866   4.683   4.814   8.298  0.6128 -0.2923 -0.0693
 1744TIP3    H126867   4.763   4.826   8.247 -0.5767  0.6628 -1.8155
 1744TIP3    H226868   4.629   4.755   8.245 -1.7057  2.6956 -1.3500
 1745TIP3   OH226869   6.276   3.684   1.075  0.1670  0.1837 -0.2904
 1745TIP3    H126870   6.304   3.775   1.083 -1.1010  0.5228  0.5695
 1745TIP3    H226871   6.263   3.655   1.165 -1.2809 -0.2322 -0.6072
 1746TIP3   OH226872   5.931   1.404   7.408  0.1610 -0.0772  0.8003
 1746TIP3    H126873   5.917   1.494   7.436 -0.7042 -0.1279  0.5606
 1746TIP3    H226874   6.011   1.407   7.355  0.9042  0.2931  1.9157
 1747TIP3   OH226875   0.002   3.492   0.833 -0.0094 -0.4919  0.4284
 1747TIP3    H126876  -0.041   3.546   0.766  0.8923 -2.9963 -2.3972
 1747TIP3    H226877   0.095   3.508   0.820  0.1704 -0.7144  1.3860
 1748TIP3   OH226878   3.717   5.779   1.393 -0.4854 -0.2043 -0.6405
 1748TIP3    H126879   3.801   5.753   1.355  1.0423  0.6646  1.9014
 1748TIP3    H226880   3.684   5.699   1.434 -0.7962 -0.4838 -1.4168
 1749TIP3   OH226881   3.264   5.886   7.858  0.3602  0.5353 -0.1941
 1749TIP3    H126882   3.255   5.830   7.936  0.9157 -0.1325 -0.5902
 1749TIP3    H226883   3.178   5.924   7.845  0.4068  1.1146  1.0917
 1750TIP3   OH226884   6.315   4.393   1.813  0.4106  0.5587 -0.1580
 1750TIP3    H126885   6.406   4.416   1.829  0.4406 -0.2863  1.0144
 1750TIP3    H226886   6.264   4.455   1.865  0.2422  1.5726 -1.4551
 1751TIP3   OH226887   4.168   3.560   7.315  0.6683 -0.2447  0.4502
 1751TIP3    H126888   4.184   3.629   7.250 -0.2362 -0.9755 -0.5863
 1751TIP3    H226889   4.163   3.480   7.264 -0.2560 -0.8184  1.4045
 1752TIP3   OH226890   6.132   3.417   1.236 -0.7052 -0.4336  0.3367
 1752TIP3    H126891   6.089   3.482   1.181 -0.8959 -1.4312 -0.7110
 1752TIP3    H226892   6.104   3.332   1.201 -1.7409 -1.1305  2.6461
 1753TIP3   OH226893   6.311   2.314   8.113  0.2433 -0.6362  0.2505
 1753TIP3    H126894   6.390   2.366   8.106  0.1344 -0.5765 -0.5881
 1753TIP3    H226895   6.258   2.360   8.178 -1.0584  1.9442 -2.3724
 1754TIP3   OH226896   1.775   1.965   7.268 -0.0593  0.0367 -0.0908
 1754TIP3    H126897   1.773   1.952   7.363  1.1391  2.6435  0.3851
 1754TIP3    H226898   1.700   2.021   7.250  0.1707  0.1963 -0.5535
 1755TIP3   OH226899   5.638   0.539   6.957 -0.2440  0.8856 -0.6078
 1755TIP3    H126900   5.673   0.481   6.889  1.4952  2.3152 -1.0013
 1755TIP3    H226901   5.552   0.502   6.978  0.6335 -1.6217 -1.0577
 1756TIP3   OH226902   6.827   0.381   0.820  0.0303  0.0817 -0.6252
 1756TIP3    H126903   6.765   0.333   0.876  0.9621 -0.3880  0.0441
 1756TIP3    H226904   6.864   0.448   0.878  0.0434  0.4403 -1.0524
 1757TIP3   OH226905   1.269   3.149   8.425 -0.1469  0.1862  0.4305
 1757TIP3    H126906   1.279   3.110   8.338  1.7789 -0.6546  0.9893
 1757TIP3    H226907   1.255   3.074   8.483  1.4600  0.4587  1.2176
 1758TIP3   OH226908   3.719   1.359   6.777 -0.5379  0.2572 -0.1252
 1758TIP3    H126909   3.668   1.422   6.828 -0.4227  1.1419 -1.0576
 1758TIP3    H226910   3.788   1.412   6.738  1.6588 -1.0494  1.7681
 1759TIP3   OH226911   3.245   2.345   0.950  0.1514  0.1031  0.1673
 1759TIP3    H126912   3.196   2.266   0.973 -1.0264  0.8486  0.3243
 1759TIP3    H226913   3.314   2.315   0.891  0.0699 -1.1149  0.6755
 1760TIP3   OH226914   2.143   5.843   7.797 -0.2568 -0.1011  0.3139
 1760TIP3    H126915   2.110   5.882   7.716  0.5013  1.1000  0.5552
 1760TIP3    H226916   2.185   5.762   7.769  1.3806  1.0425 -0.7480
 1761TIP3   OH226917   4.630   5.092   7.988  0.1534 -0.1107 -0.1538
 1761TIP3    H126918   4.614   5.186   7.977 -1.7297 -0.4054 -0.3101
 1761TIP3    H226919   4.563   5.064   8.050 -0.0741 -1.5667 -1.0224
 1762TIP3   OH226920   3.386   2.915   1.749  0.1931 -0.0720 -0.2527
 1762TIP3    H126921   3.347   2.858   1.815  0.9369 -0.4965 -0.1561
 1762TIP3    H226922   3.357   3.003   1.772 -0.3131 -0.3216  0.0812
 1763TIP3   OH226923   2.355   4.874   2.159 -0.3345  0.1937  0.5373
 1763TIP3    H126924   2.327   4.789   2.126 -0.9401  0.6408 -0.1295
 1763TIP3    H226925   2.280   4.931   2.145  0.3835  1.0619  0.1150
 1764TIP3   OH226926   2.674   5.159   7.704  0.2072 -0.3362  0.4467
 1764TIP3    H126927   2.743   5.171   7.770 -0.7165 -0.1967  1.4152
 1764TIP3    H226928   2.635   5.246   7.695 -1.1243 -0.8011  1.3876
 1765TIP3   OH226929   1.656   0.651   1.438 -0.3517 -0.3583 -0.6229
 1765TIP3    H126930   1.602   0.670   1.514 -1.3828 -0.0984 -1.3992
 1765TIP3    H226931   1.670   0.736   1.396  1.1140 -0.3403 -0.1635
 1766TIP3   OH226932   4.568   0.843   0.009  0.3590 -0.6892  0.0525
 1766TIP3    H126933   4.650   0.885   0.037  1.0188 -2.0215  0.2138
 1766TIP3    H226934   4.507   0.860   0.080  0.5807  0.0682  0.0716
 1767TIP3   OH226935   0.475   5.416   0.935  0.1250  0.3041 -0.3879
 1767TIP3    H126936   0.429   5.391   0.856  1.2763 -0.7741 -0.7555
 1767TIP3    H226937   0.458   5.510   0.945 -0.0695  0.4399 -1.8751
 1768TIP3   OH226938   5.133   0.174   6.347  0.3724  0.3314 -0.2084
 1768TIP3    H126939   5.080   0.094   6.344 -0.0557  0.5937  0.2337
 1768TIP3    H226940   5.134   0.198   6.439  0.7976  0.6439 -0.2937
 1769TIP3   OH226941   6.554   4.513   1.866  0.0705 -0.2903 -0.4693
 1769TIP3    H126942   6.633   4.546   1.823 -1.1220  2.9175 -0.4909
 1769TIP3    H226943   6.585   4.481   1.951  1.3000  2.0115  0.0302
 1770TIP3   OH226944   5.477   6.577   8.203 -0.2647  0.0687 -0.4954
 1770TIP3    H126945   5.424   6.552   8.127 -0.2602  1.8547 -1.1349
 1770TIP3    H226946   5.495   6.494   8.248  0.7827 -1.2251 -3.0880
 1771TIP3   OH226947   2.560   2.912   6.518 -0.1835 -0.2379 -0.1114
 1771TIP3    H126948   2.469   2.882   6.513 -0.2141 -0.0947 -0.4209
 1771TIP3    H226949   2.605   2.865   6.448  0.3829 -1.6678  1.1507
 1772TIP3   OH226950   6.176   3.880   8.639 -0.1356  0.1101 -0.5808
 1772TIP3    H126951   6.223   3.843   8.564  0.5989  1.1864 -0.6773
 1772TIP3    H226952   6.101   3.925   8.600 -0.8684 -1.0055 -0.4872
 1773TIP3   OH226953   6.740   4.476   0.658 -0.5684 -0.7148 -0.3005
 1773TIP3    H126954   6.673   4.433   0.712 -0.5725 -0.7379 -0.3240
 1773TIP3    H226955   6.728   4.570   0.676 -0.7988 -0.6984 -0.5253
 1774TIP3   OH226956   2.835   0.574   7.249 -0.0349 -0.2014 -0.2512
 1774TIP3    H126957   2.785   0.653   7.270  1.1552  0.5897 -0.3027
 1774TIP3    H226958   2.902   0.604   7.187  1.2960 -0.9682  0.7815
 1775TIP3   OH226959   4.969   3.017   1.827 -0.5371 -0.3572  0.4247
 1775TIP3    H126960   4.968   2.922   1.840 -0.0291 -0.2607  1.1848
 1775TIP3    H226961   5.043   3.033   1.769 -0.3397 -0.3866  0.6646
 1776TIP3   OH226962   1.487   5.378   6.810 -0.1560 -0.2245 -0.2161
 1776TIP3    H126963   1.517   5.457   6.765  0.6623 -1.0168 -1.1282
 1776TIP3    H226964   1.404   5.356   6.767  0.1429 -0.4368 -0.6993
 1777TIP3   OH226965   5.528   5.860   0.423 -0.3018 -0.0227 -0.2649
 1777TIP3    H126966   5.446   5.853   0.375 -1.9296  0.6881  2.2494
 1777TIP3    H226967   5.508   5.917   0.498  2.8191  1.2350 -0.2205
 1778TIP3   OH226968   2.450   1.234   7.504 -0.3279  0.1545 -0.5574
 1778TIP3    H126969   2.413   1.176   7.570  0.8520  0.9293  0.8376
 1778TIP3    H226970   2.380   1.298   7.487 -0.6487 -0.0584 -0.0678
 1779TIP3   OH226971   6.563   1.371   7.150  0.2112 -0.7636  0.3141
 1779TIP3    H126972   6.570   1.332   7.063  1.7877 -1.1911  0.5966
 1779TIP3    H226973   6.469   1.370   7.170 -0.5755  1.7112 -2.4293
 1780TIP3   OH226974   4.205   2.585   7.043 -0.1597  0.2197  0.4307
 1780TIP3    H126975   4.181   2.603   7.134 -0.2514  0.6388  0.3232
 1780TIP3    H226976   4.275   2.646   7.024  0.9113 -0.8777  0.6826
 1781TIP3   OH226977   4.835   2.431   8.186  0.0931 -0.0330 -0.1391
 1781TIP3    H126978   4.763   2.391   8.234  0.4457 -1.9406 -1.1004
 1781TIP3    H226979   4.889   2.472   8.253  0.5842 -2.6257  1.1581
 1782TIP3   OH226980   4.376   3.131   0.945 -0.0015 -0.1842  0.3129
 1782TIP3    H126981   4.298   3.179   0.918 -0.3197 -0.7983  0.1332
 1782TIP3    H226982   4.371   3.129   1.041 -0.7843 -1.1607  0.2670
 1783TIP3   OH226983   3.602   2.336   8.084  0.5827 -0.2173  0.0926
 1783TIP3    H126984   3.693   2.322   8.060  0.4170  1.3278 -1.6397
 1783TIP3    H226985   3.557   2.353   8.001 -0.7056  1.9351  1.1248
 1784TIP3   OH226986   4.020   3.326   6.714  0.3926 -0.4022  0.3846
 1784TIP3    H126987   3.965   3.381   6.657 -1.6175 -2.8274 -0.2215
 1784TIP3    H226988   3.966   3.311   6.792 -0.2455 -3.4166 -0.5133
 1785TIP3   OH226989   4.780   0.069   7.329 -0.0190  0.0032 -0.1978
 1785TIP3    H126990   4.800   0.074   7.423 -1.6538  0.5903  0.1449
 1785TIP3    H226991   4.781   0.160   7.300  0.6752 -0.1902 -0.8158
 1786TIP3   OH226992   2.028   0.806   6.526 -0.3971  0.4111 -0.4988
 1786TIP3    H126993   2.106   0.827   6.577 -0.2685 -0.6057 -0.2447
 1786TIP3    H226994   2.033   0.711   6.514 -2.4894  0.0467  1.0142
 1787TIP3   OH226995   0.029   3.112   8.394  0.3151 -0.2064  0.3874
 1787TIP3    H126996  -0.005   3.167   8.324 -0.3178 -1.7802 -0.5907
 1787TIP3    H226997   0.087   3.050   8.350  0.1900 -1.0025  1.3074
 1788TIP3   OH226998   4.271   6.197   7.943  0.3671 -0.0844 -0.2757
 1788TIP3    H126999   4.198   6.178   7.885 -1.6252  0.0243  2.0186
 1788TIP3    H227000   4.307   6.111   7.964 -0.0319 -0.2661 -0.3196
 1789TIP3   OH227001   3.864   4.466   0.454  0.3568  0.5184 -0.3633
 1789TIP3    H127002   3.941   4.462   0.510 -0.0801 -0.5491  0.1868
 1789TIP3    H227003   3.893   4.433   0.369  0.5904  0.4954 -0.2742
 1790TIP3   OH227004   4.312   3.769   0.458  0.1121  0.1910 -0.0114
 1790TIP3    H127005   4.318   3.762   0.363  1.0897 -1.5778  0.1341
 1790TIP3    H227006   4.240   3.711   0.482 -0.0418  0.5213  0.3413
 1791TIP3   OH227007   2.057   4.212   6.383 -0.5886  0.4483  0.7670
 1791TIP3    H127008   2.033   4.288   6.436 -2.2163  0.2930  0.2945
 1791TIP3    H227009   2.152   4.207   6.390 -0.6315  1.3308  2.4437
 1792TIP3   OH227010   3.285   2.320   7.098  0.4770 -0.5823 -0.1643
 1792TIP3    H127011   3.349   2.388   7.120 -0.2551  0.0327  0.1026
 1792TIP3    H227012   3.227   2.361   7.034  0.1796 -1.0459 -0.1967
 1793TIP3   OH227013   4.477   4.810   7.213 -0.0958 -0.3710 -0.5249
 1793TIP3    H127014   4.512   4.738   7.266 -0.5906 -0.4412 -0.2813
 1793TIP3    H227015   4.515   4.797   7.126  1.3205  0.1717 -0.0189
 1794TIP3   OH227016   5.021   3.121   0.411 -0.2767  0.2083  0.1041
 1794TIP3    H127017   5.082   3.132   0.484 -0.4808 -1.7364  0.6205
 1794TIP3    H227018   4.943   3.084   0.451  0.0448 -2.0707 -1.2037
 1795TIP3   OH227019   3.339   0.178   7.705  0.2429  0.4870  0.4608
 1795TIP3    H127020   3.355   0.159   7.613 -0.1979 -0.0946  0.4960
 1795TIP3    H227021   3.245   0.161   7.717  0.9710 -3.7452  1.9474
 1796TIP3   OH227022   2.126   1.737   1.097 -0.2026  0.3619  0.3740
 1796TIP3    H127023   2.160   1.657   1.137  0.8517  1.6267  2.1844
 1796TIP3    H227024   2.037   1.745   1.132 -1.3632 -1.3082 -1.8994
 1797TIP3   OH227025   6.572   0.411   7.448  0.4700 -0.0347 -0.1590
 1797TIP3    H127026   6.618   0.344   7.396  0.5612 -0.9595  1.0711
 1797TIP3    H227027   6.641   0.451   7.500  0.2890  0.4841 -0.3171
 1798TIP3   OH227028   4.121   2.836   1.232  0.4028  0.0176 -0.1646
 1798TIP3    H127029   4.189   2.801   1.175  0.2511 -0.3853 -0.0990
 1798TIP3    H227030   4.147   2.809   1.320  0.7087  0.7530 -0.0232
 1799TIP3   OH227031   5.182   1.924   2.757 -0.2720 -0.0143  0.5745
 1799TIP3    H127032   5.223   1.905   2.673  0.8851 -0.0018  1.1122
 1799TIP3    H227033   5.251   1.908   2.821 -0.3475  2.3697  1.3512
 1800TIP3   OH227034   5.099   2.518   8.340 -0.0034 -0.3135  0.5124
 1800TIP3    H127035   5.190   2.547   8.348 -0.8653  3.0237 -0.3698
 1800TIP3    H227036   5.057   2.545   8.421 -0.7857  0.7324 -0.2152
 1801TIP3   OH227037   0.304   1.626   7.882 -0.2365  0.1376  0.1144
 1801TIP3    H127038   0.326   1.535   7.904  0.6896 -0.0534 -1.3706
 1801TIP3    H227039   0.375   1.653   7.823 -2.3091  0.6368 -2.3121
 1802TIP3   OH227040   3.903   6.024   8.037 -0.7712 -0.2631  0.3979
 1802TIP3    H127041   3.922   6.111   8.072  0.1524 -0.9450  1.6690
 1802TIP3    H227042   3.858   6.040   7.954 -1.7732  1.4216  1.2277
 1803TIP3   OH227043   3.692   1.189   2.212 -0.0674  0.6325  0.1440
 1803TIP3    H127044   3.669   1.211   2.121 -1.1721 -2.7386 -0.5649
 1803TIP3    H227045   3.787   1.187   2.213 -0.0218 -0.3479 -1.3468
 1804TIP3   OH227046   4.843   1.253   7.856 -0.1200 -0.6346  0.0942
 1804TIP3    H127047   4.857   1.185   7.791  1.0429  0.9874 -1.4529
 1804TIP3    H227048   4.927   1.263   7.900  0.4528  1.2978 -1.2911
 1805TIP3   OH227049   0.163   6.201   1.477  0.0676  0.1198  0.0689
 1805TIP3    H127050   0.070   6.223   1.466 -0.0816 -1.2700 -2.1655
 1805TIP3    H227051   0.178   6.129   1.416  2.8647  0.9615 -0.4168
 1806TIP3   OH227052   1.985   4.783   0.078  0.4935  0.3340 -0.3290
 1806TIP3    H127053   1.926   4.719   0.118  1.2513 -0.3940 -0.3464
 1806TIP3    H227054   2.061   4.731   0.050  0.6344  1.0752 -1.3423
 1807TIP3   OH227055   3.189   6.899   7.897 -0.0958 -0.5283  1.1047
 1807TIP3    H127056   3.274   6.854   7.895 -0.3384 -1.0028 -1.1119
 1807TIP3    H227057   3.125   6.830   7.879 -0.7835  0.1196  1.0258
 1808TIP3   OH227058   4.809   2.881   7.928  0.5797  0.6397  0.3388
 1808TIP3    H127059   4.823   2.805   7.872  1.8999  2.0402 -1.3665
 1808TIP3    H227060   4.836   2.853   8.016 -2.0096 -1.7667  0.4609
 1809TIP3   OH227061   4.707   6.078   6.579 -0.2997  0.0956 -0.1343
 1809TIP3    H127062   4.624   6.036   6.561  0.1653 -1.0543  0.3352
 1809TIP3    H227063   4.688   6.172   6.575 -1.5492 -0.1546 -0.2860
 1810TIP3   OH227064   3.960   4.443   2.262  0.1376  0.6060  0.3045
 1810TIP3    H127065   3.908   4.392   2.200  1.5876 -0.1499 -0.3298
 1810TIP3    H227066   4.006   4.507   2.208 -1.2434  2.3266  1.0313
 1811TIP3   OH227067   1.897   2.068   1.335 -0.7705 -0.0044 -0.6106
 1811TIP3    H127068   1.946   2.008   1.393  0.1548  1.6211  0.3711
 1811TIP3    H227069   1.915   2.036   1.247  1.7206  0.2051 -0.2621
 1812TIP3   OH227070   6.504   0.178   2.200  0.1356 -0.1692  0.5396
 1812TIP3    H127071   6.498   0.229   2.281  0.3278 -0.0421  0.4746
 1812TIP3    H227072   6.536   0.240   2.134 -1.3603  0.0952  0.0296
 1813TIP3   OH227073   3.008   2.113   7.856  0.6131  0.0266 -0.2524
 1813TIP3    H127074   2.960   2.169   7.918  1.1839 -0.0022  0.2272
 1813TIP3    H227075   2.955   2.114   7.777 -1.0235 -1.2942  0.7606
 1814TIP3   OH227076   0.312   0.504   0.309  0.5030  0.2700 -0.3260
 1814TIP3    H127077   0.222   0.490   0.339  0.5628  2.6385  1.2917
 1814TIP3    H227078   0.365   0.492   0.388  1.2858  1.6063 -0.6234
 1815TIP3   OH227079   3.446   4.436   0.548  0.0763 -0.4169  0.1900
 1815TIP3    H127080   3.371   4.494   0.561 -0.2898 -1.0984  1.2277
 1815TIP3    H227081   3.484   4.426   0.635  0.6489 -1.0597 -0.1227
 1816TIP3   OH227082   4.874   4.290   7.583 -0.3434  0.2097  0.0690
 1816TIP3    H127083   4.914   4.329   7.505  0.3406  0.0811  0.3416
 1816TIP3    H227084   4.940   4.302   7.651 -0.5601 -0.4911  0.4057
 1817TIP3   OH227085   3.342   1.481   2.047  0.5609 -0.4093  0.2370
 1817TIP3    H127086   3.281   1.444   2.111 -0.3953 -0.1605 -0.5051
 1817TIP3    H227087   3.401   1.535   2.099 -0.2720 -0.1208  0.9132
 1818TIP3   OH227088   3.775   4.515   7.620  0.4149 -0.0644 -0.5376
 1818TIP3    H127089   3.715   4.551   7.686 -0.1450  0.2887 -1.2359
 1818TIP3    H227090   3.833   4.588   7.599 -0.5405  0.3847 -1.7428
 1819TIP3   OH227091   2.104   0.474   1.746  0.1367 -0.0545  0.7204
 1819TIP3    H127092   2.096   0.489   1.840  1.2846  1.2546  0.6475
 1819TIP3    H227093   2.198   0.465   1.732  0.0914  1.1103 -0.4741
 1820TIP3   OH227094   6.620   6.216   8.463 -0.1484  0.2935  0.0301
 1820TIP3    H127095   6.594   6.124   8.462  0.2801  0.1159  1.5783
 1820TIP3    H227096   6.707   6.216   8.505 -0.1713  1.3945  0.1101
 1821TIP3   OH227097   6.760   0.924   1.609  0.0617 -0.0787  0.2094
 1821TIP3    H127098   6.752   0.840   1.563  0.8535  0.1909 -0.4229
 1821TIP3    H227099   6.673   0.937   1.648 -0.4282 -0.6267 -0.6504
 1822TIP3   OH227100   2.780   1.765   1.549 -0.1204  0.5894 -0.6203
 1822TIP3    H127101   2.761   1.674   1.523  1.6328  0.2960 -0.9780
 1822TIP3    H227102   2.742   1.818   1.479 -0.8421  0.1199 -0.5985
 1823TIP3   OH227103   6.725   0.525   7.894  0.0002  0.1432 -0.2815
 1823TIP3    H127104   6.717   0.600   7.954  0.0885 -1.2525  1.5589
 1823TIP3    H227105   6.635   0.496   7.880  0.0531 -0.1336 -0.0385
 1824TIP3   OH227106   2.196   4.612   7.086  0.0078 -0.5623  0.0928
 1824TIP3    H127107   2.292   4.617   7.090  0.0745 -1.5812  0.2470
 1824TIP3    H227108   2.174   4.646   6.999  0.4825  0.0123  0.1940
 1825TIP3   OH227109   1.953   3.955   0.966 -0.3534  0.6043  0.5226
 1825TIP3    H127110   1.986   4.045   0.964  3.1781 -0.5457  0.0226
 1825TIP3    H227111   2.021   3.904   0.922 -2.2030 -2.3458  0.8482
 1826TIP3   OH227112   4.535   4.910   6.548 -0.0731 -0.0773  0.0690
 1826TIP3    H127113   4.596   4.878   6.481  0.9342  0.8025  0.5243
 1826TIP3    H227114   4.592   4.937   6.621 -1.0101  0.7939  0.5002
 1827TIP3   OH227115   2.162   4.354   1.279  0.6723 -0.3418 -0.0010
 1827TIP3    H127116   2.137   4.443   1.256  3.1785 -0.4350 -4.0737
 1827TIP3    H227117   2.082   4.303   1.261 -0.6099  0.9109  1.8163
 1828TIP3   OH227118   0.678   2.034   1.548  0.5817  0.7862 -0.0738
 1828TIP3    H127119   0.587   2.059   1.562 -0.2948 -2.2281  0.2048
 1828TIP3    H227120   0.704   1.992   1.630  1.8077  0.4727 -0.5994
 1829TIP3   OH227121   6.071   0.060   8.128 -0.1786 -0.3372 -0.2528
 1829TIP3    H127122   6.013   0.112   8.073  1.3046  0.2452 -1.3098
 1829TIP3    H227123   6.148   0.115   8.141  0.2219 -1.1519  0.9987
 1830TIP3   OH227124   5.881   3.665   0.956  0.1955  0.2951  0.2288
 1830TIP3    H127125   5.890   3.570   0.952 -1.1988  0.0979  1.1460
 1830TIP3    H227126   5.900   3.687   1.048 -1.5040  0.6458  0.5178
 1831TIP3   OH227127   2.185   5.793   0.189  0.3035  0.1191  0.9060
 1831TIP3    H127128   2.251   5.730   0.218  2.5769  2.0401  0.2017
 1831TIP3    H227129   2.131   5.809   0.266  1.3530 -0.6913  1.8316
 1832TIP3   OH227130   0.213   4.610   8.386  0.2343  0.2211 -0.1074
 1832TIP3    H127131   0.192   4.601   8.479 -0.5853  1.6044 -0.1299
 1832TIP3    H227132   0.306   4.587   8.380  0.1714 -0.3859  0.9613
 1833TIP3   OH227133   1.016   0.009   7.851 -0.4122 -0.1726 -0.3843
 1833TIP3    H127134   0.922   0.017   7.868 -0.0080 -0.8010  2.7364
 1833TIP3    H227135   1.029  -0.083   7.829 -0.4889 -0.1147 -0.6799
 1834TIP3   OH227136   4.231   5.247   1.252  0.2397  0.2433 -0.2066
 1834TIP3    H127137   4.314   5.294   1.252  0.7544 -0.6532 -0.2091
 1834TIP3    H227138   4.255   5.155   1.251 -0.7083 -0.0853 -3.2960
 1835TIP3   OH227139   5.398   3.808   7.190  0.4171 -0.3057  0.2212
 1835TIP3    H127140   5.404   3.749   7.265  3.1092 -0.6618 -0.1638
 1835TIP3    H227141   5.475   3.864   7.198  1.4565 -1.0966 -2.8332
 1836TIP3   OH227142   4.888   2.678   6.665  0.5924 -0.2637 -0.1274
 1836TIP3    H127143   4.907   2.769   6.689  2.0321 -0.9428  1.5735
 1836TIP3    H227144   4.859   2.682   6.574  1.7737  1.7808 -0.4751
 1837TIP3   OH227145   4.893   2.262   7.015  0.3487  0.1789  0.5362
 1837TIP3    H127146   4.823   2.315   6.975 -0.5797  0.2874  2.2245
 1837TIP3    H227147   4.938   2.222   6.940 -1.4068  0.2406 -0.6197
 1838TIP3   OH227148   4.898   3.138   7.707  0.6243  0.4263 -0.3184
 1838TIP3    H127149   4.941   3.078   7.768  0.6605 -1.1035 -1.7508
 1838TIP3    H227150   4.950   3.132   7.627 -1.3238 -0.2994 -1.6037
 1839TIP3   OH227151   1.370   4.246   1.005  0.4841 -0.2412  0.3980
 1839TIP3    H127152   1.352   4.180   1.072  0.4534  0.5047  1.1485
 1839TIP3    H227153   1.287   4.294   0.995  0.4395 -0.4532 -0.3026
 1840TIP3   OH227154   3.440   4.566   1.619  0.1153 -0.1529  0.2437
 1840TIP3    H127155   3.379   4.626   1.661 -1.8216  0.3907 -3.0032
 1840TIP3    H227156   3.485   4.523   1.692 -0.2658  3.2773  2.7469
 1841TIP3   OH227157   6.110   3.225   8.318  0.2343  0.0315  0.0274
 1841TIP3    H127158   6.061   3.242   8.238 -0.2618  0.6157  0.4477
 1841TIP3    H227159   6.200   3.210   8.288 -0.1940 -1.1274 -0.7579
 1842TIP3   OH227160   5.769   5.779   0.330  0.0657  0.4021  0.2202
 1842TIP3    H127161   5.796   5.870   0.316  0.1138  0.2743 -0.5372
 1842TIP3    H227162   5.679   5.785   0.362  0.3144  0.7417  0.8935
 1843TIP3   OH227163   1.922   1.527   7.392 -0.6686  0.2266 -0.5516
 1843TIP3    H127164   1.933   1.443   7.437 -3.8709  0.0804  0.2324
 1843TIP3    H227165   1.911   1.504   7.300  1.1812  0.1090 -0.7877
 1844TIP3   OH227166   4.100   3.282   1.532 -0.1814 -0.2753 -0.0791
 1844TIP3    H127167   4.090   3.232   1.613  1.7796 -0.3325  0.1666
 1844TIP3    H227168   4.153   3.226   1.476  0.1919  0.6056 -0.6274
 1845TIP3   OH227169   3.855   0.900   1.336 -0.1345  0.1467 -0.3862
 1845TIP3    H127170   3.827   0.947   1.257 -1.9232  0.4753  0.4024
 1845TIP3    H227171   3.860   0.968   1.403 -0.2397 -0.3921  0.1681
 1846TIP3   OH227172   5.758   4.422   6.940  0.4321  0.4107 -0.6920
 1846TIP3    H127173   5.737   4.419   6.846 -1.1084 -1.6583 -0.3463
 1846TIP3    H227174   5.822   4.353   6.953 -1.0468 -0.8770  0.0970
 1847TIP3   OH227175   5.555   5.683   7.901  0.1330  0.4616  0.0831
 1847TIP3    H127176   5.591   5.771   7.911  0.5893  0.1995  0.8147
 1847TIP3    H227177   5.507   5.667   7.982 -1.1688  0.5750 -0.6263
 1848TIP3   OH227178   2.318   3.108   0.280  0.1728 -0.0682  0.0559
 1848TIP3    H127179   2.280   3.026   0.248 -0.8119  0.3716  0.0485
 1848TIP3    H227180   2.270   3.126   0.361 -0.8132  1.3504 -0.8071
 1849TIP3   OH227181   4.106   6.022   2.127  0.2287 -0.1125  0.0385
 1849TIP3    H127182   4.197   6.011   2.155 -0.0435 -1.2927  0.5102
 1849TIP3    H227183   4.062   5.942   2.154 -0.7554  0.0415 -1.0152
 1850TIP3   OH227184   0.281   4.926   7.078  0.5279 -0.1545  0.2568
 1850TIP3    H127185   0.248   4.878   7.002 -0.0249 -2.0967  1.6689
 1850TIP3    H227186   0.375   4.937   7.060  0.3301 -0.1440 -0.8904
 1851TIP3   OH227187   3.157   6.671   0.386 -0.4349 -0.4371  0.6288
 1851TIP3    H127188   3.182   6.760   0.407 -3.3182  0.5702  0.2391
 1851TIP3    H227189   3.097   6.679   0.312 -2.6932 -2.4083  2.0903
 1852TIP3   OH227190   3.288   6.146   0.410  0.4684  0.0860 -0.4717
 1852TIP3    H127191   3.312   6.151   0.318  1.1909  2.0298 -0.2301
 1852TIP3    H227192   3.245   6.061   0.420 -0.0819  0.0595 -2.6954
 1853TIP3   OH227193   1.278   5.885   7.574  0.4488 -0.0325 -0.1131
 1853TIP3    H127194   1.273   5.826   7.649 -0.2831 -0.1892 -0.2776
 1853TIP3    H227195   1.186   5.902   7.550  0.6644  0.3809 -0.6846
 1854TIP3   OH227196   6.443   0.781   7.796 -0.2638 -0.4863  1.0371
 1854TIP3    H127197   6.487   0.786   7.881  1.0490 -0.7820  0.4135
 1854TIP3    H227198   6.403   0.694   7.796 -1.1943 -0.0747  1.7600
 1855TIP3   OH227199   2.205   2.224   7.101 -0.4725  0.1109 -0.1953
 1855TIP3    H127200   2.187   2.239   7.193 -2.4491  0.9087 -0.6752
 1855TIP3    H227201   2.136   2.165   7.072  0.2477 -0.3005 -1.1376
 1856TIP3   OH227202   4.396   6.346   6.573 -0.1079 -0.5260 -0.0699
 1856TIP3    H127203   4.371   6.404   6.645 -1.8103 -1.2268 -0.0391
 1856TIP3    H227204   4.492   6.348   6.572 -0.0930  0.7563  1.1602
 1857TIP3   OH227205   6.209   6.790   8.405  0.3614 -0.5440  0.6677
 1857TIP3    H127206   6.283   6.847   8.381  0.7599 -0.8871  1.0664
 1857TIP3    H227207   6.196   6.806   8.499 -0.2068 -0.3344  0.5590
 1858TIP3   OH227208   2.511   1.111   6.857 -0.2247 -0.5555  0.2262
 1858TIP3    H127209   2.467   1.119   6.773 -1.9862  2.0943  1.2692
 1858TIP3    H227210   2.474   1.181   6.910  4.6937  1.5119  1.4923
 1859TIP3   OH227211   0.687   5.776   1.473 -0.8000 -0.2174  0.4303
 1859TIP3    H127212   0.771   5.767   1.517 -0.1712  0.9063 -0.4968
 1859TIP3    H227213   0.650   5.687   1.474  0.2828 -0.6805  1.0322
 1860TIP3   OH227214   4.264   3.804   1.848  0.4335 -0.3133 -0.7965
 1860TIP3    H127215   4.302   3.873   1.903  1.7399 -1.9065  0.4218
 1860TIP3    H227216   4.287   3.829   1.759 -0.2334  1.4472 -0.5155
 1861TIP3   OH227217   1.200   4.357   6.715 -0.4993  0.1251  0.2570
 1861TIP3    H127218   1.185   4.442   6.674 -0.1137  0.5983  1.0844
 1861TIP3    H227219   1.195   4.374   6.809  0.7061 -0.5468  0.4667
 1862TIP3   OH227220   0.913   6.889   2.236  0.5881 -0.0520  0.8176
 1862TIP3    H127221   0.829   6.930   2.218  1.2059  0.4230 -1.2205
 1862TIP3    H227222   0.958   6.950   2.295 -0.3438 -0.1672  1.6745
 1863TIP3   OH227223   5.194   3.319   6.629  0.1171 -0.2495 -0.2618
 1863TIP3    H127224   5.100   3.317   6.643 -0.0520  2.4601 -0.5161
 1863TIP3    H227225   5.205   3.339   6.537  0.9419 -0.0162 -0.1231
 1864TIP3   OH227226   0.299   3.727   1.081  0.2754 -0.0305 -0.1948
 1864TIP3    H127227   0.363   3.790   1.115 -0.5441  0.1824  1.0380
 1864TIP3    H227228   0.251   3.776   1.014  0.4991  0.2492 -0.1523
 1865TIP3   OH227229   2.626   4.319   7.069  0.9762  0.6350  0.6552
 1865TIP3    H127230   2.632   4.391   7.132  0.8188 -0.3522  1.8388
 1865TIP3    H227231   2.710   4.321   7.022  0.9092  1.6764  0.5562
 1866TIP3   OH227232   0.883   1.846   0.372  0.7140  0.2368 -0.0138
 1866TIP3    H127233   0.953   1.781   0.365  1.1785  0.6839  0.4610
 1866TIP3    H227234   0.923   1.928   0.345  0.1815  0.3742 -0.4079
 1867TIP3   OH227235   3.308   0.902   8.168  0.6291 -0.1240  0.2539
 1867TIP3    H127236   3.391   0.927   8.128  0.6472  0.2444  0.5172
 1867TIP3    H227237   3.332   0.842   8.239  0.4460 -3.0864 -1.9674
 1868TIP3   OH227238   1.568   0.541   1.979  0.1758 -0.0668  0.0425
 1868TIP3    H127239   1.605   0.456   2.004  0.9830  0.6402  1.3785
 1868TIP3    H227240   1.642   0.602   1.984 -0.6929  0.9910  0.5922
 1869TIP3   OH227241   5.462   1.397   8.410 -0.4752  0.7451  0.0431
 1869TIP3    H127242   5.537   1.351   8.448  0.6028  1.5073 -1.1126
 1869TIP3    H227243   5.441   1.465   8.475  2.0230  2.7248 -1.0457
 1870TIP3   OH227244   2.244   4.056   1.209  0.3015 -0.0744  0.2328
 1870TIP3    H127245   2.173   4.078   1.269 -0.5485 -1.9485 -0.0296
 1870TIP3    H227246   2.317   4.032   1.266 -0.6804 -2.4231  0.6230
 1871TIP3   OH227247   5.696   1.919   1.461 -0.4913 -0.2210  0.1647
 1871TIP3    H127248   5.734   1.994   1.508  0.7571 -0.7122 -0.0056
 1871TIP3    H227249   5.602   1.928   1.473 -0.3322  1.0807  0.5993
 1872TIP3   OH227250   3.063   2.479   2.592  0.7683 -0.1008  0.0931
 1872TIP3    H127251   3.117   2.517   2.522  2.0717 -3.0061 -0.6478
 1872TIP3    H227252   3.126   2.434   2.649 -0.5354 -0.1190  1.5923
 1873TIP3   OH227253   2.757   2.414   2.190 -0.5589  0.5756  0.1694
 1873TIP3    H127254   2.694   2.342   2.184 -0.2567  0.3915 -1.3403
 1873TIP3    H227255   2.783   2.416   2.282 -0.8743 -0.9843  0.3169
 1874TIP3   OH227256   6.207   6.618   6.479  0.2245 -0.6740  0.1135
 1874TIP3    H127257   6.291   6.573   6.487  0.2912 -0.7609 -0.9180
 1874TIP3    H227258   6.164   6.604   6.563  1.7959  0.5254  1.1674
 1875TIP3   OH227259   3.155   1.917   1.746 -0.2752  0.1459 -0.3775
 1875TIP3    H127260   3.164   1.991   1.685 -0.7756  0.6875  0.1894
 1875TIP3    H227261   3.240   1.911   1.790 -0.1429  0.2021 -0.6244
 1876TIP3   OH227262   3.083   0.246   1.099 -0.2430 -0.1830 -0.1629
 1876TIP3    H127263   3.081   0.235   1.004 -0.5349 -0.0029 -0.1784
 1876TIP3    H227264   3.096   0.157   1.133 -1.5005 -0.4433 -0.3234
 1877TIP3   OH227265   3.468   3.576   8.541  0.2428 -0.3194 -0.3210
 1877TIP3    H127266   3.550   3.542   8.577 -1.5394 -3.2736  1.3360
 1877TIP3    H227267   3.451   3.521   8.464  0.3315  1.0692 -1.3767
 1878TIP3   OH227268   4.544   0.997   0.591  0.0742 -0.4328  0.3546
 1878TIP3    H127269   4.635   1.014   0.616  0.0229 -0.2287  0.4052
 1878TIP3    H227270   4.518   0.922   0.644  0.4078 -0.8822 -0.1054
 1879TIP3   OH227271   5.106   3.406   2.513 -0.1971 -0.6411  0.2955
 1879TIP3    H127272   5.150   3.409   2.598 -1.6249 -2.1425  1.1394
 1879TIP3    H227273   5.114   3.314   2.486  0.1555 -0.2025 -1.1742
 1880TIP3   OH227274   1.519   5.458   2.432  0.4632  0.0131  0.9619
 1880TIP3    H127275   1.613   5.452   2.449  0.6463  0.7459  0.2832
 1880TIP3    H227276   1.505   5.550   2.409 -0.4777 -0.0149  1.3857
 1881TIP3   OH227277   0.280   6.612   0.124  0.4340  0.1986 -0.1914
 1881TIP3    H127278   0.286   6.707   0.125 -1.6318  0.3794  0.1171
 1881TIP3    H227279   0.289   6.586   0.216  0.2887  0.1570 -0.1887
 1882TIP3   OH227280   6.839   2.436   8.641 -0.3708  0.0542 -0.3778
 1882TIP3    H127281   6.891   2.363   8.608  0.6568 -0.4115  2.1040
 1882TIP3    H227282   6.823   2.490   8.564  2.2166 -0.7346 -1.5834
 1883TIP3   OH227283   3.953   4.347   7.427  0.1699 -0.1753  0.4327
 1883TIP3    H127284   4.039   4.388   7.420  0.6015 -0.7255  2.0313
 1883TIP3    H227285   3.909   4.396   7.497 -0.5850 -0.3005  0.0531
 1884TIP3   OH227286   0.719   0.506   8.337 -0.0258 -0.2966  0.3163
 1884TIP3    H127287   0.704   0.567   8.409 -2.7372 -1.2798  0.6961
 1884TIP3    H227288   0.726   0.420   8.378  2.1885 -0.5285 -0.3528
 1885TIP3   OH227289   3.302   6.471   2.094 -0.4379 -0.5412 -1.3560
 1885TIP3    H127290   3.260   6.406   2.150  3.6419 -0.2998  2.5903
 1885TIP3    H227291   3.281   6.555   2.135  1.8619 -0.2669 -0.5847
 1886TIP3   OH227292   2.242   4.299   8.047  0.7127  0.6261 -0.2885
 1886TIP3    H127293   2.159   4.290   8.000 -0.4049  0.8181  1.5413
 1886TIP3    H227294   2.302   4.340   7.984 -0.5731  0.4905 -1.6412
 1887TIP3   OH227295   6.153   4.502   1.581  0.0009 -0.4181  0.3432
 1887TIP3    H127296   6.204   4.460   1.651 -1.0756 -2.1747  0.1497
 1887TIP3    H227297   6.212   4.502   1.505  0.5923 -0.0677  0.7954
 1888TIP3   OH227298   5.749   4.128   7.360 -0.5072  0.0197 -0.3688
 1888TIP3    H127299   5.789   4.093   7.281 -1.5090  0.4318 -1.0859
 1888TIP3    H227300   5.691   4.058   7.391 -0.2301 -0.0849 -0.0822
 1889TIP3   OH227301   4.831   1.812   1.708 -0.1317 -0.8906 -0.7422
 1889TIP3    H127302   4.888   1.889   1.705 -1.1579  0.2254  2.7763
 1889TIP3    H227303   4.876   1.746   1.656  0.5837  2.1179 -4.3595
 1890TIP3   OH227304   3.793   4.162   0.877 -0.2920 -0.3155 -0.0738
 1890TIP3    H127305   3.785   4.255   0.856 -2.3977 -0.4463 -0.0755
 1890TIP3    H227306   3.711   4.141   0.921  1.3308 -1.5421  2.5509
 1891TIP3   OH227307   1.417   5.246   6.515 -0.4697 -0.0987  0.2953
 1891TIP3    H127308   1.512   5.252   6.511 -0.5231  0.0309 -0.9971
 1891TIP3    H227309   1.397   5.253   6.609  0.7468  0.4137  0.5354
 1892TIP3   OH227310   0.559   5.424   8.634 -0.1874  0.1135 -0.2983
 1892TIP3    H127311   0.533   5.469   8.714 -2.6773  1.4842 -1.7370
 1892TIP3    H227312   0.596   5.341   8.664  0.7595  1.3569  2.3032
 1893TIP3   OH227313   6.784   3.688   0.702 -0.7447  0.2015 -0.3754
 1893TIP3    H127314   6.708   3.722   0.749 -1.6425  0.6909 -2.0969
 1893TIP3    H227315   6.753   3.675   0.612  0.6160 -1.6659 -0.6360
 1894TIP3   OH227316   1.862   3.717   1.746  0.0753 -0.3408  0.1750
 1894TIP3    H127317   1.845   3.652   1.677  0.3220 -1.5093  1.1850
 1894TIP3    H227318   1.931   3.772   1.709  0.8486 -1.5057 -0.1859
 1895TIP3   OH227319   1.694   3.164   1.379 -0.0835  0.0152 -0.0742
 1895TIP3    H127320   1.755   3.211   1.436 -0.3572 -0.6959  0.8353
 1895TIP3    H227321   1.717   3.192   1.290  1.4420 -0.0967  0.2569
 1896TIP3   OH227322   2.927   0.132   7.466  0.2183 -0.2540 -0.3424
 1896TIP3    H127323   2.867   0.194   7.424 -1.3095 -1.4267  0.0098
 1896TIP3    H227324   2.960   0.179   7.542  0.8996  0.9241 -1.3266
 1897TIP3   OH227325   1.627   6.079   0.370  0.1888  0.3972 -0.4913
 1897TIP3    H127326   1.642   5.984   0.371  0.5420  0.4370  0.9757
 1897TIP3    H227327   1.540   6.089   0.332 -0.4063 -0.6360  0.5451
 1898TIP3   OH227328   2.734   6.267   8.328 -0.1024 -0.2211  0.3906
 1898TIP3    H127329   2.717   6.341   8.387  2.1290 -0.2021  1.1326
 1898TIP3    H227330   2.780   6.203   8.383  3.0053  0.2117 -1.4294
 1899TIP3   OH227331   3.419   6.398   6.879 -0.5761  0.2768  0.0400
 1899TIP3    H127332   3.433   6.401   6.974 -0.1795 -0.4319  0.0126
 1899TIP3    H227333   3.414   6.490   6.853 -1.0994  0.4771  0.8020
 1900TIP3   OH227334   0.692   4.486   6.294  0.4992 -0.8850 -0.0054
 1900TIP3    H127335   0.605   4.475   6.255  1.0996 -1.9757 -1.0817
 1900TIP3    H227336   0.683   4.563   6.350 -0.2569  1.2185 -2.7758
 1901TIP3   OH227337   6.533   5.366   2.199  0.3066 -0.1136 -0.0106
 1901TIP3    H127338   6.586   5.440   2.231 -0.2414 -0.3321  1.4713
 1901TIP3    H227339   6.571   5.345   2.114  0.1477  2.2167 -0.7317
 1902TIP3   OH227340   0.107   1.776   8.407 -0.1041  0.3272  0.2944
 1902TIP3    H127341   0.180   1.824   8.447 -0.1409  0.7599 -0.1476
 1902TIP3    H227342   0.053   1.845   8.368 -1.2748  0.1038  1.4644
 1903TIP3   OH227343   1.165   3.101   7.175 -0.2038  0.7804  0.5671
 1903TIP3    H127344   1.186   3.169   7.111 -1.5026  2.1565  1.5502
 1903TIP3    H227345   1.087   3.058   7.140 -0.7400  1.3372  1.0666
 1904TIP3   OH227346   0.835   4.696   0.983 -0.1026  0.2020  0.3338
 1904TIP3    H127347   0.758   4.719   0.931  0.6181  0.1313 -0.8067
 1904TIP3    H227348   0.839   4.763   1.051 -0.0587  1.3960 -0.7964
 1905TIP3   OH227349   3.338   0.565   7.451  0.2683 -0.0202 -0.2559
 1905TIP3    H127350   3.271   0.607   7.397  0.5656  0.6970 -0.0702
 1905TIP3    H227351   3.371   0.493   7.397  0.5321  0.6642 -1.0114
 1906TIP3   OH227352   3.022   0.079   8.063 -0.3127  0.3048 -0.2374
 1906TIP3    H127353   3.112   0.047   8.056 -1.2680 -2.2820 -1.9760
 1906TIP3    H227354   3.002   0.115   7.977 -1.4950 -0.8445 -0.4783
 1907TIP3   OH227355   4.167   6.231   1.549 -0.2201 -0.5109 -1.0214
 1907TIP3    H127356   4.246   6.182   1.524 -0.3115 -1.3606  0.2405
 1907TIP3    H227357   4.130   6.180   1.621 -1.6206  0.1895 -1.2248
 1908TIP3   OH227358   5.494   2.445   2.152 -0.0646 -0.7552 -0.2962
 1908TIP3    H127359   5.518   2.384   2.221 -1.4407  0.0707  0.9627
 1908TIP3    H227360   5.426   2.399   2.102 -0.0735 -0.8129 -0.2304
 1909TIP3   OH227361   3.969   0.545   1.562 -0.4706  0.8530  0.6974
 1909TIP3    H127362   3.950   0.632   1.599 -1.3988  0.2655  1.6630
 1909TIP3    H227363   3.903   0.488   1.601  0.2377 -0.3271  0.2047
 1910TIP3   OH227364   2.348   5.117   6.140  0.3497  0.4833 -0.2944
 1910TIP3    H127365   2.368   5.026   6.117  0.6936  1.0647 -2.6257
 1910TIP3    H227366   2.427   5.149   6.184 -0.0846 -0.5342  1.3109
 1911TIP3   OH227367   3.543   3.400   0.788 -0.3528 -0.4431  0.4913
 1911TIP3    H127368   3.536   3.358   0.702 -0.6676  1.1225 -0.2733
 1911TIP3    H227369   3.636   3.424   0.796 -0.7397  1.6434 -0.5551
 1912TIP3   OH227370   6.419   5.141   7.751  0.3888 -0.0349  0.5604
 1912TIP3    H127371   6.390   5.053   7.727  1.1393 -0.0883 -0.2148
 1912TIP3    H227372   6.412   5.144   7.846 -2.5637  0.1231  0.4452
 1913TIP3   OH227373   0.212   6.527   7.398  0.1433 -0.3869  0.0841
 1913TIP3    H127374   0.185   6.611   7.434  1.0387  0.1937 -0.5399
 1913TIP3    H227375   0.276   6.549   7.331 -2.9495 -1.1967 -3.5090
 1914TIP3   OH227376   2.994   0.337   0.106  0.0128  0.2103  0.3734
 1914TIP3    H127377   3.022   0.246   0.111 -0.9167 -0.0922  0.3124
 1914TIP3    H227378   3.005   0.371   0.195  2.3259  0.6692 -0.0283
 1915TIP3   OH227379   5.050   6.225   0.845  0.5470 -0.6461  0.0695
 1915TIP3    H127380   4.998   6.205   0.923 -1.8245  2.9183 -0.3398
 1915TIP3    H227381   5.005   6.180   0.774  0.6947 -1.1716  0.3057
 1916TIP3   OH227382   6.273   1.445   2.510 -0.5159  0.1574  0.0384
 1916TIP3    H127383   6.295   1.502   2.584 -0.8232 -0.9952  1.0439
 1916TIP3    H227384   6.314   1.362   2.531  1.8929  0.5672 -2.4973
 1917TIP3   OH227385   3.003   4.004   2.147 -0.2153 -0.5105  0.5504
 1917TIP3    H127386   3.092   4.038   2.156 -0.1661  0.0559 -1.6369
 1917TIP3    H227387   2.976   3.986   2.237  1.9601 -0.3526  1.3066
 1918TIP3   OH227388   5.271   1.178   8.580 -0.0910  0.0157  0.0270
 1918TIP3    H127389   5.312   1.241   8.639  0.4918 -0.3933  0.0648
 1918TIP3    H227390   5.182   1.210   8.569  0.1856  0.8200  0.0848
 1919TIP3   OH227391   5.586   4.707   6.664  0.4517 -0.1184 -0.3051
 1919TIP3    H127392   5.628   4.756   6.734  0.8797  0.6109 -1.0601
 1919TIP3    H227393   5.658   4.665   6.618  0.0644 -2.0235  0.7042
 1920TIP3   OH227394   2.911   6.580   7.202 -0.2149 -0.2658  0.4797
 1920TIP3    H127395   2.945   6.495   7.230 -0.9730 -1.1377 -1.1016
 1920TIP3    H227396   2.973   6.644   7.236  1.0086 -1.5466  0.7133
 1921TIP3   OH227397   1.113   0.481   7.786 -0.2020 -0.5116  0.2762
 1921TIP3    H127398   1.160   0.525   7.857 -0.9259  0.7049  0.0233
 1921TIP3    H227399   1.022   0.506   7.798 -0.3355 -0.2846 -1.0781
 1922TIP3   OH227400   1.092   0.801   1.439  0.2604 -0.3269  0.2491
 1922TIP3    H127401   1.136   0.886   1.443  0.6038 -0.4654 -0.4801
 1922TIP3    H227402   1.133   0.756   1.366  0.4881 -1.3611  0.9858
 1923TIP3   OH227403   4.043   4.715   0.737  0.0236  0.0233 -0.0315
 1923TIP3    H127404   3.985   4.686   0.667  0.2332  1.3086 -0.7583
 1923TIP3    H227405   4.126   4.735   0.693 -0.4315  2.7399  0.2255
 1924TIP3   OH227406   5.602   5.201   1.459  0.7950  0.3362 -0.4703
 1924TIP3    H127407   5.607   5.287   1.418  3.1251 -0.2419 -1.5649
 1924TIP3    H227408   5.670   5.203   1.527  0.1159 -0.2988  0.2508
 1925TIP3   OH227409   3.937   5.721   6.379  0.3179  0.4693  0.1967
 1925TIP3    H127410   3.897   5.777   6.446 -1.1225  0.6691 -0.7945
 1925TIP3    H227411   3.864   5.694   6.324  1.4749  0.3661 -1.3478
 1926TIP3   OH227412   5.689   0.817   1.831  0.1104  0.2007 -0.0712
 1926TIP3    H127413   5.785   0.812   1.837  0.1571  2.0318  1.5518
 1926TIP3    H227414   5.659   0.798   1.920 -1.0511 -0.3473 -0.5700
 1927TIP3   OH227415   3.061   4.722   0.962 -0.3727 -0.7539  0.3215
 1927TIP3    H127416   2.983   4.775   0.975 -0.1145 -0.6290  1.4345
 1927TIP3    H227417   3.042   4.639   1.007  0.3441 -0.5143  1.0901
 1928TIP3   OH227418   3.795   3.787   0.175  0.8314  0.0159 -0.2972
 1928TIP3    H127419   3.752   3.758   0.256  2.0004 -2.0360 -0.3434
 1928TIP3    H227420   3.739   3.752   0.105  2.5198 -2.9085 -0.3626
 1929TIP3   OH227421   1.954   3.946   0.568 -0.2368 -0.0828  0.4115
 1929TIP3    H127422   1.916   3.975   0.486 -0.0143  1.5135  0.8439
 1929TIP3    H227423   1.884   3.896   0.610 -0.6615 -0.1347 -0.3319
 1930TIP3   OH227424   5.421   1.595   2.775  0.5967  0.1811 -0.1803
 1930TIP3    H127425   5.499   1.629   2.819  1.2471  1.4671 -2.1737
 1930TIP3    H227426   5.351   1.655   2.801  0.3536 -0.6196  1.1271
 1931TIP3   OH227427   5.503   5.408   1.025  0.6817 -0.0584 -0.6675
 1931TIP3    H127428   5.458   5.331   1.062  0.3181  0.2058 -0.5491
 1931TIP3    H227429   5.493   5.475   1.093 -0.2001  0.5077 -1.3337
 1932TIP3   OH227430   5.689   2.520   0.861  0.3100  0.1716  0.2415
 1932TIP3    H127431   5.687   2.594   0.922  0.7405 -1.5796  2.5168
 1932TIP3    H227432   5.605   2.524   0.816 -0.1851  1.3334  1.2127
 1933TIP3   OH227433   6.789   4.400   7.135 -0.0242  0.1712 -0.6618
 1933TIP3    H127434   6.800   4.306   7.118  0.7839 -0.2594  1.8877
 1933TIP3    H227435   6.877   4.432   7.151 -0.5756  0.6378  1.7167
 1934TIP3   OH227436   1.220   0.295   0.218 -0.1386  0.0586  0.5073
 1934TIP3    H127437   1.199   0.204   0.197 -1.8881  1.0641 -2.7538
 1934TIP3    H227438   1.145   0.325   0.269 -0.0975 -0.0199  0.6146
 1935TIP3   OH227439   1.856   6.439   1.155  0.2415 -0.2713  0.0259
 1935TIP3    H127440   1.797   6.385   1.103 -1.0638  2.0041 -0.9816
 1935TIP3    H227441   1.807   6.457   1.235  0.6429 -0.5038  0.3260
 1936TIP3   OH227442   6.857   2.606   1.045  0.3346 -0.1429 -0.7843
 1936TIP3    H127443   6.929   2.618   1.107  1.4530 -2.3015 -1.5718
 1936TIP3    H227444   6.894   2.630   0.960 -0.6092  0.9566 -0.9074
 1937TIP3   OH227445   0.904   2.647   0.486  0.2865 -0.0555  0.0802
 1937TIP3    H127446   0.955   2.679   0.412 -2.1306  2.0095 -0.8241
 1937TIP3    H227447   0.855   2.572   0.452  0.1687  0.0781 -0.0456
 1938TIP3   OH227448   5.281   3.705   1.395 -0.0332 -0.5032  0.8865
 1938TIP3    H127449   5.205   3.649   1.379 -1.4696  1.2112  1.3451
 1938TIP3    H227450   5.326   3.665   1.469 -0.6713 -1.3546  0.8305
 1939TIP3   OH227451   3.968   2.160   7.598 -0.8332  0.3860 -0.5475
 1939TIP3    H127452   4.023   2.234   7.621  1.9271 -1.8977  0.9493
 1939TIP3    H227453   3.938   2.126   7.683 -0.7187 -1.0958 -1.0739
 1940TIP3   OH227454   1.877   2.991   0.720 -0.2508 -0.4734  0.0010
 1940TIP3    H127455   1.857   2.927   0.652 -0.9386 -1.7449  1.3378
 1940TIP3    H227456   1.800   2.992   0.776 -0.2605  1.5735  0.0246
 1941TIP3   OH227457   0.546   3.864   6.218 -0.8516  0.2366 -0.4517
 1941TIP3    H127458   0.457   3.831   6.225 -0.3165 -0.8943  2.1357
 1941TIP3    H227459   0.597   3.810   6.279  0.6838  3.8102  1.7447
 1942TIP3   OH227460   4.995   6.553   1.383 -0.3526 -0.1970  0.0347
 1942TIP3    H127461   4.975   6.623   1.445 -1.2809 -0.7632  0.3944
 1942TIP3    H227462   4.944   6.576   1.305  1.1243  0.7313 -0.7036
 1943TIP3   OH227463   5.190   4.741   1.264  0.3332  0.2116 -0.0365
 1943TIP3    H127464   5.254   4.680   1.227  0.4055  0.5456 -0.4740
 1943TIP3    H227465   5.236   4.825   1.267  0.2432  0.2428  0.5891
 1944TIP3   OH227466   2.416   4.862   0.429  0.3603 -0.0766  0.1495
 1944TIP3    H127467   2.425   4.949   0.468 -0.3090 -0.7324  1.8777
 1944TIP3    H227468   2.322   4.851   0.418  0.5397  0.5933 -3.0391
 1945TIP3   OH227469   2.812   5.415   1.284  0.4907 -0.2374 -0.3094
 1945TIP3    H127470   2.839   5.389   1.372 -0.5994 -0.7813 -0.1153
 1945TIP3    H227471   2.717   5.409   1.286  0.4106  0.5202 -1.2987
 1946TIP3   OH227472   5.752   6.629   0.313  0.1065 -0.0511 -0.0076
 1946TIP3    H127473   5.724   6.537   0.309  1.6300 -0.5180 -0.7657
 1946TIP3    H227474   5.812   6.632   0.387  2.9028 -0.5696 -2.1017
 1947TIP3   OH227475   0.943   6.435   7.321  0.4039 -0.2045  0.0627
 1947TIP3    H127476   0.983   6.359   7.363  1.6176 -0.3944 -1.3842
 1947TIP3    H227477   1.011   6.472   7.265 -0.0212  2.1838  0.9559
 1948TIP3   OH227478   6.301   5.341   0.157  0.3403  0.2684  0.1165
 1948TIP3    H127479   6.286   5.283   0.082 -1.2465 -0.4658  0.9333
 1948TIP3    H227480   6.233   5.408   0.148 -2.2534 -1.7793  2.6700
 1949TIP3   OH227481   4.545   4.594   0.434  0.0082 -0.0779  0.2104
 1949TIP3    H127482   4.578   4.576   0.522 -0.6350  0.7390  0.6303
 1949TIP3    H227483   4.518   4.686   0.436 -0.4801 -0.1826 -0.6929
 1950TIP3   OH227484   5.385   6.837   1.741 -0.6131 -0.1459 -0.1891
 1950TIP3    H127485   5.478   6.831   1.763 -0.9823  0.0588  1.6190
 1950TIP3    H227486   5.382   6.889   1.660  0.8297  0.0168 -0.1538
 1951TIP3   OH227487   6.281   2.034   0.098 -0.2872  0.2101 -0.2652
 1951TIP3    H127488   6.315   2.016   0.185  0.9610 -0.8225 -0.9260
 1951TIP3    H227489   6.359   2.055   0.046 -0.8297 -0.6593 -1.4687
 1952TIP3   OH227490   1.406   6.641   8.282  0.7555 -0.0439  0.3372
 1952TIP3    H127491   1.376   6.570   8.225 -0.9953 -1.0404  2.3304
 1952TIP3    H227492   1.500   6.630   8.288  0.7342 -1.0580 -0.8218
 1953TIP3   OH227493   4.086   5.463   0.821 -0.1758 -0.0760 -0.5964
 1953TIP3    H127494   4.152   5.518   0.778 -0.0059 -0.9075 -1.4256
 1953TIP3    H227495   4.013   5.462   0.759 -1.5166  1.8401  0.8392
 1954TIP3   OH227496   4.598   1.771   6.890  0.0192 -0.1042 -0.4715
 1954TIP3    H127497   4.625   1.719   6.815  1.1984  0.1321 -0.2333
 1954TIP3    H227498   4.648   1.852   6.882 -1.2209  0.6990 -0.4255
 1955TIP3   OH227499   2.576   1.570   0.251  0.0322 -0.5374 -0.1229
 1955TIP3    H127500   2.565   1.476   0.266 -0.1052 -0.2308  2.0695
 1955TIP3    H227501   2.495   1.609   0.285 -1.1419  0.2656 -3.4149
 1956TIP3   OH227502   3.835   6.305   0.236  0.0069  0.6323  0.8866
 1956TIP3    H127503   3.923   6.303   0.274  0.5211  1.3859 -0.2016
 1956TIP3    H227504   3.810   6.398   0.237 -0.1024  0.6348 -0.2553
 1957TIP3   OH227505   6.168   3.757   7.613  0.3778  0.0786  0.4657
 1957TIP3    H127506   6.231   3.747   7.542 -0.0987 -0.8976  0.1670
 1957TIP3    H227507   6.111   3.828   7.584  0.4989  0.0297  0.0978
 1958TIP3   OH227508   3.917   1.632   1.009  0.1536 -0.3961  0.5876
 1958TIP3    H127509   3.946   1.587   1.088 -0.5895 -0.4534  0.8274
 1958TIP3    H227510   3.887   1.562   0.951  0.0911 -0.3000  0.5031
 1959TIP3   OH227511   5.424   4.937   0.936  0.0016  0.6748 -0.6163
 1959TIP3    H127512   5.446   4.857   0.985 -0.3722  0.1513 -1.2893
 1959TIP3    H227513   5.470   5.007   0.983  0.7855 -0.0117 -0.3353
 1960TIP3   OH227514   1.466   5.011   8.042 -0.1594 -0.6186 -0.1689
 1960TIP3    H127515   1.546   4.975   8.002 -0.7404 -0.2104 -1.7480
 1960TIP3    H227516   1.395   4.977   7.988 -0.9211  0.5932  0.0522
 1961TIP3   OH227517   5.135   1.045   0.360  0.7839 -0.5642  0.2162
 1961TIP3    H127518   5.194   0.996   0.303 -0.4165 -1.1304 -0.5981
 1961TIP3    H227519   5.138   0.998   0.443  1.6232 -0.4615  0.2507
 1962TIP3   OH227520   4.472   5.301   7.045 -0.6055 -0.3380 -0.1625
 1962TIP3    H127521   4.491   5.378   7.099 -2.0087 -0.9907  1.3605
 1962TIP3    H227522   4.380   5.280   7.065  0.0171 -3.0109  0.2634
 1963TIP3   OH227523   3.628   0.409   0.822 -0.5728  0.1297 -0.4982
 1963TIP3    H127524   3.669   0.424   0.907 -0.1672  0.1662 -0.7016
 1963TIP3    H227525   3.639   0.315   0.806  0.1876  0.2820 -0.9384
 1964TIP3   OH227526   4.695   5.744   1.057 -0.1271 -0.3876  0.4956
 1964TIP3    H127527   4.668   5.659   1.094  0.3903 -0.9601 -0.4007
 1964TIP3    H227528   4.623   5.768   0.999  0.9203 -1.6028 -1.4015
 1965TIP3   OH227529   4.870   4.827   7.068  0.2706 -0.7207  0.2159
 1965TIP3    H127530   4.778   4.839   7.043  0.2900 -2.3418 -0.7104
 1965TIP3    H227531   4.887   4.900   7.128 -1.1240  0.5915 -0.8892
 1966TIP3   OH227532   1.517   3.815   8.484 -0.3433  0.0151 -0.2665
 1966TIP3    H127533   1.431   3.833   8.522 -1.1320 -0.4940 -1.7224
 1966TIP3    H227534   1.524   3.720   8.486 -0.2438  0.0013 -1.0307
 1967TIP3   OH227535   4.367   3.651   8.259  0.1811  0.4479 -0.5175
 1967TIP3    H127536   4.321   3.704   8.193 -0.2393  0.2608 -0.3755
 1967TIP3    H227537   4.436   3.606   8.209 -0.3259  0.0718 -0.8943
 1968TIP3   OH227538   6.914   2.846   1.567 -0.0850  0.0441  0.1245
 1968TIP3    H127539   6.887   2.838   1.475  1.8157  0.5235 -0.5271
 1968TIP3    H227540   6.863   2.920   1.600 -0.4650  0.1564 -0.6697
 1969TIP3   OH227541   6.625   4.300   0.446 -0.3869 -0.1598  0.8022
 1969TIP3    H127542   6.536   4.269   0.464 -0.1431 -0.1492  2.1444
 1969TIP3    H227543   6.666   4.307   0.533  0.9846 -0.3478  0.2014
 1970TIP3   OH227544   1.601   5.097   0.140  0.0823 -0.6091 -0.0039
 1970TIP3    H127545   1.541   5.134   0.075 -1.3763 -2.5903  0.1260
 1970TIP3    H227546   1.560   5.015   0.167  1.8131 -0.9915  1.7135
 1971TIP3   OH227547   3.412   4.892   7.064  0.2953 -0.0522 -0.8418
 1971TIP3    H127548   3.394   4.804   7.032  0.2413  0.0471 -1.0813
 1971TIP3    H227549   3.373   4.951   6.999  0.9384  0.1578 -1.0486
 1972TIP3   OH227550   6.755   6.448   1.986  0.8982 -0.4850 -0.0140
 1972TIP3    H127551   6.678   6.410   2.030 -0.5188  1.1353 -0.9441
 1972TIP3    H227552   6.802   6.493   2.056  0.8617 -1.2578  0.5254
 1973TIP3   OH227553   1.127   3.170   1.287 -0.3221 -0.4066  0.1458
 1973TIP3    H127554   1.193   3.228   1.249 -1.2080  0.2831 -0.3764
 1973TIP3    H227555   1.078   3.226   1.347  0.2752 -1.1911  1.4080
 1974TIP3   OH227556   4.610   3.019   1.101 -0.1538  0.7380  0.3093
 1974TIP3    H127557   4.607   3.097   1.155 -3.1249  0.8897  0.0824
 1974TIP3    H227558   4.662   3.045   1.025  1.6831  1.3897  1.7063
 1975TIP3   OH227559   5.613   0.953   0.805  0.1885 -0.2302  0.2233
 1975TIP3    H127560   5.708   0.956   0.789  0.1636  0.9597  0.2352
 1975TIP3    H227561   5.575   1.002   0.732 -0.4369 -0.7377  0.1938
 1976TIP3   OH227562   5.503   0.869   1.625 -0.2482 -0.3652  0.3451
 1976TIP3    H127563   5.452   0.792   1.651  1.4292 -0.8895  2.2975
 1976TIP3    H227564   5.583   0.864   1.676  1.9727  0.2827 -2.7578
 1977TIP3   OH227565   5.019   0.197   8.256 -0.0183 -0.8099 -0.3504
 1977TIP3    H127566   5.070   0.246   8.192 -0.7460 -2.2058 -2.0583
 1977TIP3    H227567   5.077   0.126   8.284 -0.1742 -0.9820 -0.4652
 1978TIP3   OH227568   2.850   5.434   2.027  0.1323  0.2864 -0.4170
 1978TIP3    H127569   2.835   5.520   2.068 -0.7464 -0.4520  0.8886
 1978TIP3    H227570   2.764   5.393   2.026  0.4701 -0.4273 -1.4297
 1979TIP3   OH227571   1.073   1.559   7.904 -0.5186  0.1651 -0.2058
 1979TIP3    H127572   1.054   1.473   7.941  0.2193  0.1639  0.1825
 1979TIP3    H227573   1.146   1.544   7.844 -0.0206  0.6033  0.2765
 1980TIP3   OH227574   2.309   6.006   6.276 -0.6871 -0.3699 -0.1832
 1980TIP3    H127575   2.241   6.057   6.233  0.7562  1.4669 -0.3981
 1980TIP3    H227576   2.266   5.970   6.354 -1.5382  2.0480  0.5388
 1981TIP3   OH227577   1.144   2.374   0.907 -0.2383 -0.5884 -0.4509
 1981TIP3    H127578   1.113   2.423   0.831 -1.0701  2.4179  1.6375
 1981TIP3    H227579   1.072   2.314   0.927 -1.4339  0.8456 -0.2298
 1982TIP3   OH227580   4.395   1.688   1.080  0.1861 -0.0088  0.2112
 1982TIP3    H127581   4.435   1.684   1.166  2.0738 -1.4814 -0.6750
 1982TIP3    H227582   4.354   1.775   1.077  1.7664  0.8690  1.8508
 1983TIP3   OH227583   3.076   1.545   8.336 -0.2025 -0.1953  0.0383
 1983TIP3    H127584   3.054   1.638   8.332  1.3700  0.1811 -0.7380
 1983TIP3    H227585   3.110   1.532   8.424 -0.8618 -0.1599  0.3065
 1984TIP3   OH227586   6.650   3.081   7.748  0.0978 -0.4875 -0.5224
 1984TIP3    H127587   6.559   3.052   7.740  0.0647 -0.2878 -0.8792
 1984TIP3    H227588   6.658   3.152   7.685  0.7136 -1.0184 -1.0542
 1985TIP3   OH227589   2.569   6.089   6.329  0.2038 -0.0402  0.0220
 1985TIP3    H127590   2.564   6.166   6.272 -1.2767  0.0742  0.2513
 1985TIP3    H227591   2.495   6.034   6.301  0.2744 -0.6144  0.9262
 1986TIP3   OH227592   5.251   3.110   7.688  0.2920 -1.0174 -0.3019
 1986TIP3    H127593   5.242   3.124   7.782  0.6452 -0.0823 -0.3898
 1986TIP3    H227594   5.201   3.031   7.670 -0.7257 -0.5741  0.4887
 1987TIP3   OH227595   0.446   2.684   6.675 -0.0834  0.5639 -0.3052
 1987TIP3    H127596   0.481   2.741   6.743 -1.3326 -0.0944  0.9562
 1987TIP3    H227597   0.508   2.612   6.670  0.0502  0.6455  0.1118
 1988TIP3   OH227598   2.559   6.445   8.044 -0.1164  0.1987  0.2143
 1988TIP3    H127599   2.650   6.419   8.059  0.2036  0.7367 -0.7012
 1988TIP3    H227600   2.537   6.408   7.958 -0.5627  0.5581  0.1679
 1989TIP3   OH227601   0.061   0.063   1.759  0.6127  0.4480 -0.7166
 1989TIP3    H127602   0.070  -0.024   1.797 -0.2906  0.9780  0.8142
 1989TIP3    H227603   0.071   0.050   1.665  0.9791 -1.2195 -0.4727
 1990TIP3   OH227604   3.686   0.212   7.552 -0.5965 -0.2946 -0.2623
 1990TIP3    H127605   3.594   0.204   7.529 -1.9543  0.9209  3.7379
 1990TIP3    H227606   3.718   0.122   7.560 -2.1641 -0.8115  0.4937
 1991TIP3   OH227607   2.405   1.156   8.411  0.3117 -0.2065  0.0654
 1991TIP3    H127608   2.498   1.172   8.394  0.7048 -1.9243  0.4207
 1991TIP3    H227609   2.402   1.070   8.452 -1.2694  0.6803  2.0100
 1992TIP3   OH227610   5.546   6.018   0.099 -0.0055 -0.2457  1.2170
 1992TIP3    H127611   5.545   6.015   0.195 -4.4241  0.4654  1.4034
 1992TIP3    H227612   5.553   6.111   0.078 -0.9752 -0.2152  0.9757
 1993TIP3   OH227613   5.371   2.724   8.139  0.0480 -1.1203  0.1435
 1993TIP3    H127614   5.376   2.660   8.209 -2.3402 -0.1333  1.2979
 1993TIP3    H227615   5.414   2.802   8.174  0.4842 -1.1882 -0.2190
 1994TIP3   OH227616   1.293   6.317   1.083  0.5823  0.3257  0.1760
 1994TIP3    H127617   1.246   6.267   1.149  0.8567  2.6373  2.3027
 1994TIP3    H227618   1.243   6.306   1.003 -1.3475 -0.4332  1.4269
 1995TIP3   OH227619   0.197   4.313   0.117 -0.1033 -0.3694  0.2768
 1995TIP3    H127620   0.124   4.321   0.178 -0.0758 -0.7622  0.3663
 1995TIP3    H227621   0.159   4.269   0.040 -0.1970  0.3524 -0.0945
 1996TIP3   OH227622   2.092   1.147   8.172 -0.0085 -0.4218  0.3655
 1996TIP3    H127623   2.033   1.101   8.113  0.7751 -0.6212 -0.2891
 1996TIP3    H227624   2.035   1.188   8.237 -0.8526 -0.6189 -0.2366
 1997TIP3   OH227625   5.431   6.744   0.098 -0.3703  0.0166  0.4124
 1997TIP3    H127626   5.407   6.704   0.181  0.7965 -0.8871  0.3285
 1997TIP3    H227627   5.455   6.671   0.041 -0.6289  0.6606 -0.5609
 1998TIP3   OH227628   6.693   5.045   0.729 -0.5619 -0.1539  0.3523
 1998TIP3    H127629   6.779   5.032   0.689 -0.2785 -0.5224  1.0784
 1998TIP3    H227630   6.637   4.979   0.688 -0.3833 -0.2415  0.2506
 1999TIP3   OH227631   4.917   5.229   2.232  0.3478  0.0595 -0.4820
 1999TIP3    H127632   4.953   5.166   2.295 -0.2126 -0.1444 -0.3528
 1999TIP3    H227633   4.987   5.244   2.170  1.5087  1.5165  1.0878
 2000TIP3   OH227634   5.299   4.133   8.186  0.0504 -0.6650  0.2478
 2000TIP3    H127635   5.292   4.040   8.210 -1.0694 -0.4663  0.7406
 2000TIP3    H227636   5.218   4.172   8.219  0.0784  0.3093 -0.7965
 2001TIP3   OH227637   3.044   0.442   0.352  0.3496 -0.0680 -0.3589
 2001TIP3    H127638   3.030   0.471   0.442  1.7763 -0.9886  0.1941
 2001TIP3    H227639   3.139   0.434   0.344  0.2070 -0.6111 -1.7540
 2002TIP3   OH227640   0.093   4.548   7.201 -0.2891  0.3159  0.2867
 2002TIP3    H127641   0.066   4.636   7.176 -1.0425  0.3060  1.0184
 2002TIP3    H227642   0.079   4.544   7.296 -1.3047 -0.9406  0.1120
 2003TIP3   OH227643   0.290   1.367   8.034  0.0221 -0.2040  0.8667
 2003TIP3    H127644   0.342   1.431   8.083  1.9530 -0.1754 -1.0116
 2003TIP3    H227645   0.199   1.394   8.047  0.5729  0.9595  2.7208
 2004TIP3   OH227646   0.862   1.621   0.790  0.0130 -0.2424 -0.0623
 2004TIP3    H127647   0.912   1.567   0.729  0.1575  0.2666 -0.4035
 2004TIP3    H227648   0.782   1.571   0.806  0.7603 -1.2212  0.7447
 2005TIP3   OH227649   3.891   2.994   7.023 -0.5884  0.0683  0.3919
 2005TIP3    H127650   3.882   3.025   6.933  0.0467  1.4581  0.7825
 2005TIP3    H227651   3.930   2.907   7.014 -2.0052 -0.5068 -0.7154
 2006TIP3   OH227652   5.595   3.705   1.009  0.4053  0.1600  0.4224
 2006TIP3    H127653   5.547   3.716   0.927  0.8291 -0.1973  0.1210
 2006TIP3    H227654   5.687   3.706   0.983  0.5446  0.1737  0.9100
 2007TIP3   OH227655   5.203   1.302   0.396 -0.3934 -0.0046 -0.1065
 2007TIP3    H127656   5.175   1.211   0.384 -1.1235  0.3327 -1.0859
 2007TIP3    H227657   5.296   1.301   0.375 -0.1624 -0.7018  0.8773
 2008TIP3   OH227658   2.123   6.458   8.516 -0.0282 -0.0941  0.4198
 2008TIP3    H127659   2.138   6.513   8.593 -0.2862 -0.8889  1.0468
 2008TIP3    H227660   2.195   6.395   8.516 -0.9265 -1.1584  0.9780
 2009TIP3   OH227661   1.003   3.047   1.742 -0.4840  0.7089  0.2153
 2009TIP3    H127662   1.039   2.958   1.742 -2.3419 -0.2975  4.2383
 2009TIP3    H227663   1.078   3.102   1.764  0.4295  0.0259 -1.0444
 2010TIP3   OH227664   3.482   5.117   0.953 -0.1519  0.3584 -0.0765
 2010TIP3    H127665   3.563   5.165   0.971  0.0402 -0.5390  1.6380
 2010TIP3    H227666   3.426   5.135   1.028 -0.9571 -0.2688 -0.5057
 2011TIP3   OH227667   1.981   0.027   8.491  0.2761  0.1044 -0.1676
 2011TIP3    H127668   1.929   0.102   8.519  0.6212  0.4806 -0.5211
 2011TIP3    H227669   2.048   0.018   8.559  0.9030  0.8044 -0.6720
 2012TIP3   OH227670   4.558   1.201   7.371 -0.0716  0.0037  0.0107
 2012TIP3    H127671   4.532   1.288   7.340  0.8666  0.5204  0.6461
 2012TIP3    H227672   4.540   1.202   7.465 -2.0110 -1.2355 -0.2687
 2013TIP3   OH227673   6.575   4.803   8.477 -0.0877 -0.2756 -0.0656
 2013TIP3    H127674   6.536   4.776   8.394 -1.5927  0.3862  0.3966
 2013TIP3    H227675   6.532   4.748   8.543  2.4475 -2.1557  0.1674
 2014TIP3   OH227676   3.662   0.108   0.791 -0.3717 -0.0654  0.3590
 2014TIP3    H127677   3.742   0.063   0.819 -0.8081 -0.7470  0.5171
 2014TIP3    H227678   3.645   0.074   0.703 -0.5256  0.0372  0.3488
 2015TIP3   OH227679   5.468   0.383   7.433 -0.2089  0.5179  0.2541
 2015TIP3    H127680   5.520   0.311   7.398  0.2034  0.1345  1.5937
 2015TIP3    H227681   5.390   0.385   7.378  0.0821 -0.5209 -0.2229
 2016TIP3   OH227682   4.598   6.615   7.077  0.2897  0.2815  0.1211
 2016TIP3    H127683   4.590   6.710   7.080  0.7537  0.3031  1.3007
 2016TIP3    H227684   4.536   6.588   7.009 -0.0382  1.3992 -0.0471
 2017TIP3   OH227685   1.563   2.444   7.371  0.5100  0.2341  0.2740
 2017TIP3    H127686   1.503   2.463   7.442  0.5169 -1.6535  0.8376
 2017TIP3    H227687   1.625   2.381   7.408  0.9747 -0.2002 -1.1715
 2018TIP3   OH227688   4.648   5.514   7.846  0.1925 -0.3059 -0.0742
 2018TIP3    H127689   4.706   5.581   7.883 -0.6043  0.6388 -0.4918
 2018TIP3    H227690   4.667   5.435   7.897  0.2212  0.5715  1.3300
 2019TIP3   OH227691   6.296   0.205   7.375 -0.2245 -0.2597 -0.5749
 2019TIP3    H127692   6.225   0.235   7.431  0.1222  0.0467 -0.2928
 2019TIP3    H227693   6.300   0.270   7.304  2.0910  1.8274  1.2978
 2020TIP3   OH227694   2.231   0.615   6.995 -0.4359  0.3906  0.3517
 2020TIP3    H127695   2.249   0.555   7.068  0.7572  1.2875  0.8338
 2020TIP3    H227696   2.138   0.602   6.976 -0.5502 -0.5466  1.4087
 2021TIP3   OH227697   4.985   2.498   7.210  0.0777  0.0609 -0.1924
 2021TIP3    H127698   4.998   2.409   7.180 -2.5982 -1.3033  2.1789
 2021TIP3    H227699   4.943   2.543   7.137  0.4635 -0.9213 -1.0323
 2022TIP3   OH227700   1.141   2.521   7.822 -0.3052  0.0671  0.0250
 2022TIP3    H127701   1.065   2.484   7.867  0.7818  0.7341  2.5204
 2022TIP3    H227702   1.104   2.588   7.764 -1.5739  1.0352  1.8736
 2023TIP3   OH227703   5.498   1.211   6.907 -0.4932  0.1277 -0.0974
 2023TIP3    H127704   5.406   1.209   6.880 -0.9115 -0.9526  1.2698
 2023TIP3    H227705   5.546   1.236   6.828 -2.1103  2.7618 -0.3433
 2024TIP3   OH227706   4.785   5.558   7.485 -0.0608 -0.2150 -0.1661
 2024TIP3    H127707   4.811   5.612   7.410  0.4235 -0.6097 -0.2875
 2024TIP3    H227708   4.716   5.608   7.528 -1.1747 -0.4921 -1.5402
 2025TIP3   OH227709   0.958   5.549   7.813  0.5274 -0.3833 -0.4468
 2025TIP3    H127710   0.919   5.533   7.899  1.4524  1.4020  0.3623
 2025TIP3    H227711   0.960   5.645   7.805  0.4718 -0.4913 -2.4728
 2026TIP3   OH227712   1.548   5.203   1.228  0.0731 -0.2136  0.1704
 2026TIP3    H127713   1.614   5.270   1.246  1.6608 -1.1918 -1.5826
 2026TIP3    H227714   1.599   5.125   1.208 -1.3799 -0.3376 -3.9730
 2027TIP3   OH227715   6.878   1.395   7.649  0.0806  0.1953  0.4343
 2027TIP3    H127716   6.810   1.381   7.714  0.6017  2.5375  1.6033
 2027TIP3    H227717   6.835   1.443   7.579  0.1153  0.0400  0.3063
 2028TIP3   OH227718   5.694   4.362   2.843  0.1168 -0.0592 -0.1720
 2028TIP3    H127719   5.608   4.348   2.804  0.2695 -1.3496 -0.0879
 2028TIP3    H227720   5.718   4.277   2.880  1.8058  0.0340 -0.9450
 2029TIP3   OH227721   2.125   0.459   8.223 -0.8812 -0.2849  0.6328
 2029TIP3    H127722   2.173   0.502   8.152 -3.0270 -0.1239 -0.8191
 2029TIP3    H227723   2.192   0.417   8.276  0.8305 -0.3091 -1.4339
 2030TIP3   OH227724   0.900   4.782   0.461 -0.1870 -0.0769 -0.1035
 2030TIP3    H127725   0.810   4.791   0.492 -1.2494 -2.2545 -2.2436
 2030TIP3    H227726   0.912   4.688   0.448  1.4630  0.3733 -2.4582
 2031TIP3   OH227727   6.072   5.782   8.167 -0.2203 -0.1405 -0.5022
 2031TIP3    H127728   6.080   5.852   8.102 -1.0449  1.2508  0.8296
 2031TIP3    H227729   6.002   5.726   8.134  1.6947 -1.4949 -2.5436
 2032TIP3   OH227730   0.444   0.790   0.773 -0.1823  0.4958 -0.2956
 2032TIP3    H127731   0.362   0.835   0.754  0.4267  1.8147  0.0634
 2032TIP3    H227732   0.502   0.814   0.700  0.7141  1.8409  0.7906
 2033TIP3   OH227733   5.782   2.778   1.864  0.3467 -0.0556  1.0063
 2033TIP3    H127734   5.742   2.692   1.879  0.5865 -0.5441 -0.9431
 2033TIP3    H227735   5.875   2.760   1.853  0.2224  0.2403 -0.7953
 2034TIP3   OH227736   1.905   5.424   0.693 -0.7969  0.2639  0.5454
 2034TIP3    H127737   1.902   5.378   0.609 -0.7332 -0.2499  0.8165
 2034TIP3    H227738   1.979   5.483   0.686 -0.8357  0.2731  0.2144
 2035TIP3   OH227739   2.425   4.280   0.273  0.3554  0.2978 -0.5054
 2035TIP3    H127740   2.435   4.292   0.368 -0.6839 -0.6880 -0.2458
 2035TIP3    H227741   2.514   4.278   0.239  0.7274  1.7032  0.3031
 2036TIP3   OH227742   0.385   3.849   7.095  0.3000 -0.0590  0.1171
 2036TIP3    H127743   0.456   3.894   7.049  1.4571 -1.0327  0.8790
 2036TIP3    H227744   0.338   3.803   7.026  0.9115 -0.0543 -0.3150
 2037TIP3   OH227745   0.501   2.504   2.345  0.1052 -0.3833 -0.5609
 2037TIP3    H127746   0.442   2.553   2.288 -1.7910 -1.4065  0.4198
 2037TIP3    H227747   0.507   2.417   2.304 -2.0678 -1.4548  1.1763
 2038TIP3   OH227748   4.170   2.908   8.488  0.3750  0.0412  0.6908
 2038TIP3    H127749   4.219   2.956   8.555 -0.2786 -0.8763  1.8887
 2038TIP3    H227750   4.113   2.849   8.539 -0.0257 -0.8020 -0.6926
 2039TIP3   OH227751   1.354   6.763   7.219 -0.2128  0.1163 -0.2815
 2039TIP3    H127752   1.360   6.855   7.196  0.2978  0.4779  1.2058
 2039TIP3    H227753   1.423   6.720   7.168  0.0975  0.6894 -0.3484
 2040TIP3   OH227754   4.485   5.997   8.252 -0.0389  0.4789 -0.3109
 2040TIP3    H127755   4.418   5.979   8.318 -0.8518  1.1832 -0.9164
 2040TIP3    H227756   4.448   5.965   8.170  1.2250 -0.9527 -0.3636
 2041TIP3   OH227757   0.026   4.761   6.833  0.0294  0.3471  0.4925
 2041TIP3    H127758  -0.014   4.721   6.756 -1.0828 -0.4766  1.4500
 2041TIP3    H227759   0.118   4.733   6.830 -0.3473 -0.9381  0.2499
 2042TIP3   OH227760   0.508   6.506   8.604  0.6725  0.3522 -0.1159
 2042TIP3    H127761   0.577   6.515   8.670  1.9219  0.7744 -1.4161
 2042TIP3    H227762   0.427   6.524   8.650  1.5395  0.9259  1.2312
 2043TIP3   OH227763   6.415   6.542   7.613 -0.1836 -0.0549  0.0981
 2043TIP3    H127764   6.452   6.538   7.701 -1.0331  0.3269  0.4819
 2043TIP3    H227765   6.483   6.586   7.561  0.9359 -1.5891  0.2141
 2044TIP3   OH227766   5.727   4.542   8.121  0.2611 -0.1160  0.3612
 2044TIP3    H127767   5.708   4.462   8.170  0.3582 -0.7347 -0.5845
 2044TIP3    H227768   5.667   4.608   8.157 -1.3137 -1.1512 -0.2585
 2045TIP3   OH227769   2.363   5.295   0.030  0.2481  0.8647  0.4356
 2045TIP3    H127770   2.437   5.236   0.045 -1.4015 -1.1731  1.0405
 2045TIP3    H227771   2.324   5.306   0.116 -1.5834 -0.1497 -0.2153
 2046TIP3   OH227772   2.865   1.486   1.844 -0.1308  0.4636  0.1228
 2046TIP3    H127773   2.882   1.570   1.887  0.0758 -0.6088  2.2986
 2046TIP3    H227774   2.779   1.496   1.803 -1.0819  1.1125  2.1424
 2047TIP3   OH227775   5.406   3.779   6.799 -0.1539  0.0447  0.1616
 2047TIP3    H127776   5.427   3.732   6.718  1.6524 -0.1498  0.6950
 2047TIP3    H227777   5.358   3.715   6.852  0.8847 -0.7237  0.2284
 2048TIP3   OH227778   1.601   0.082   2.602 -0.1124  0.2625 -0.4552
 2048TIP3    H127779   1.690   0.080   2.638 -0.4375 -1.5489  0.3291
 2048TIP3    H227780   1.613   0.066   2.508  0.3371 -0.8600 -0.2169
 2049TIP3   OH227781   0.904   6.116   0.571 -0.1996 -0.2026  0.0530
 2049TIP3    H127782   0.988   6.155   0.596 -1.3075  1.4417  1.4281
 2049TIP3    H227783   0.864   6.182   0.514 -1.1853 -0.3013  0.6164
 2050TIP3   OH227784   2.923   5.055   7.854  0.0714  0.1341 -0.8285
 2050TIP3    H127785   2.958   5.100   7.931  1.0724 -0.3048 -1.0118
 2050TIP3    H227786   2.849   5.004   7.887 -0.6530  1.3695 -0.5008
 2051TIP3   OH227787   3.220   6.650   1.222  0.0563  0.2358  0.3999
 2051TIP3    H127788   3.306   6.676   1.190 -0.3695  0.8764 -0.2458
 2051TIP3    H227789   3.222   6.555   1.221  1.2323  0.2061  1.6858
 2052TIP3   OH227790   3.046   3.605   1.866 -0.1308 -0.0252 -0.6568
 2052TIP3    H127791   3.110   3.606   1.795 -1.0961 -0.1107 -1.5463
 2052TIP3    H227792   3.049   3.515   1.900  1.4259  0.4047  0.4622
 2053TIP3   OH227793   6.277   4.832   1.280 -0.0461  0.0448 -0.3277
 2053TIP3    H127794   6.239   4.845   1.366  0.5910  0.9794 -0.1715
 2053TIP3    H227795   6.367   4.804   1.297  0.0589  0.1595 -0.6821
 2054TIP3   OH227796   6.092   6.033   0.418  0.1383  0.1362  0.3518
 2054TIP3    H127797   6.104   5.988   0.334 -1.7900 -0.6415  0.4345
 2054TIP3    H227798   6.080   5.962   0.482 -0.7200  0.7360  0.8735
 2055TIP3   OH227799   0.364   6.743   2.393  0.0381 -0.6658 -0.0415
 2055TIP3    H127800   0.291   6.711   2.446 -0.0039 -1.1843 -0.4126
 2055TIP3    H227801   0.370   6.682   2.320  1.2743 -1.0218  0.3346
 2056TIP3   OH227802   4.070   0.090   7.763 -0.0386 -0.6390  0.0089
 2056TIP3    H127803   4.068   0.180   7.796 -1.2093  0.0074 -1.6612
 2056TIP3    H227804   4.032   0.038   7.834 -0.9661  0.4548  0.3577
 2057TIP3   OH227805   3.213   1.117   1.452  0.0438  0.1959  1.2535
 2057TIP3    H127806   3.226   1.158   1.538  1.5120  0.4168  0.9515
 2057TIP3    H227807   3.142   1.055   1.466 -0.5513  1.0698  2.3356
 2058TIP3   OH227808   0.412   3.074   6.980 -0.1794 -0.7439  0.2658
 2058TIP3    H127809   0.505   3.078   7.005 -0.0161  1.7975 -0.4467
 2058TIP3    H227810   0.410   3.109   6.891 -2.1279  2.8790  1.5179
 2059TIP3   OH227811   0.215   4.291   0.994 -0.3363 -0.2484 -0.0457
 2059TIP3    H127812   0.168   4.277   1.077 -3.2065 -0.0653 -1.5062
 2059TIP3    H227813   0.221   4.204   0.955 -2.0027  0.0433 -1.0626
 2060TIP3   OH227814   4.658   4.896   1.558 -0.6222 -0.0690  0.4201
 2060TIP3    H127815   4.574   4.859   1.533 -0.7473 -1.0073  2.0947
 2060TIP3    H227816   4.636   4.975   1.608 -0.5436 -0.4331  1.0478
 2061TIP3   OH227817   5.325   0.458   7.648  0.4476 -0.5442  0.1507
 2061TIP3    H127818   5.392   0.429   7.586 -0.9136 -1.3324 -1.0188
 2061TIP3    H227819   5.283   0.377   7.678 -0.9617 -0.0131 -0.3100
 2062TIP3   OH227820   4.509   3.754   0.659  1.0007  0.0038 -0.2913
 2062TIP3    H127821   4.438   3.742   0.596  0.7873  0.5781 -0.1656
 2062TIP3    H227822   4.536   3.665   0.682 -0.2888 -0.2473  0.3313
 2063TIP3   OH227823   0.330   0.312   8.255 -0.2989  0.8821 -0.0482
 2063TIP3    H127824   0.390   0.386   8.268 -0.0385  0.4846  1.1637
 2063TIP3    H227825   0.324   0.270   8.341 -2.2170  0.8192 -0.1667
 2064TIP3   OH227826   5.014   2.291   0.171  0.1331 -0.3741  0.2620
 2064TIP3    H127827   4.979   2.210   0.207 -0.0834 -0.0649  0.7572
 2064TIP3    H227828   5.047   2.339   0.247 -0.5975  0.4186  0.0959
 2065TIP3   OH227829   1.534   2.640   1.015 -0.0887 -0.1493 -0.0152
 2065TIP3    H127830   1.610   2.680   1.058 -0.8174  2.1311 -0.7261
 2065TIP3    H227831   1.567   2.556   0.982  1.9768  0.5222  0.1815
 2066TIP3   OH227832   3.141   3.363   0.697  0.3474 -0.2196 -0.5427
 2066TIP3    H127833   3.091   3.397   0.771 -2.2535 -2.1483 -1.2548
 2066TIP3    H227834   3.194   3.293   0.734  1.7287  1.0850  0.0257
 2067TIP3   OH227835   0.642   3.906   0.101  0.2700  0.1631  0.5360
 2067TIP3    H127836   0.648   3.812   0.119  1.4982  0.3794  1.3220
 2067TIP3    H227837   0.681   3.948   0.178  1.3972  1.2661 -0.6025
 2068TIP3   OH227838   2.417   0.413   7.881 -0.2728  0.3346  0.5587
 2068TIP3    H127839   2.497   0.374   7.917  0.0983  1.5083  1.0444
 2068TIP3    H227840   2.393   0.481   7.944  0.4261  2.5281 -1.4085
 2069TIP3   OH227841   0.007   1.983   2.044 -0.9504  0.1966 -0.5817
 2069TIP3    H127842  -0.030   2.064   2.010 -1.2662  0.7306  0.9702
 2069TIP3    H227843  -0.001   1.990   2.139  0.0942 -1.1372 -0.3537
 2070TIP3   OH227844   5.886   6.626   7.519  0.8604 -0.0599 -0.2924
 2070TIP3    H127845   5.939   6.650   7.443  1.4038 -3.1431 -1.0519
 2070TIP3    H227846   5.949   6.617   7.590  0.7671  0.1109 -0.1887
 2071TIP3   OH227847   1.235   4.043   8.249 -0.4816 -0.0911 -0.3682
 2071TIP3    H127848   1.165   3.981   8.271 -0.5266 -0.4334 -1.4115
 2071TIP3    H227849   1.310   3.987   8.227 -0.0063  0.2669  0.2974
 2072TIP3   OH227850   4.142   3.760   6.499  0.3902 -0.3634 -0.3030
 2072TIP3    H127851   4.113   3.724   6.415 -0.9471  0.0970 -0.0665
 2072TIP3    H227852   4.209   3.699   6.529  1.4718 -0.1304 -2.0580
 2073TIP3   OH227853   4.268   5.652   0.130 -0.1621  0.1308 -0.2508
 2073TIP3    H127854   4.309   5.595   0.196 -1.9700 -1.7739 -0.6594
 2073TIP3    H227855   4.342   5.687   0.080  1.0662 -2.3428 -0.3341
 2074TIP3   OH227856   3.189   1.860   7.835 -0.2404 -0.3516 -0.1658
 2074TIP3    H127857   3.236   1.918   7.895  0.8198 -0.4357 -0.8736
 2074TIP3    H227858   3.113   1.910   7.807  0.2262  0.3868 -0.1384
 2075TIP3   OH227859   3.671   4.093   8.245  0.1658  0.2211  0.0902
 2075TIP3    H127860   3.636   4.170   8.289 -0.7025  0.3318 -0.7533
 2075TIP3    H227861   3.638   4.100   8.155  0.0251 -1.1643  0.0142
 2076TIP3   OH227862   3.529   5.779   0.495  0.0584 -0.6754 -0.2448
 2076TIP3    H127863   3.567   5.782   0.407  0.5208 -0.3093 -0.0443
 2076TIP3    H227864   3.451   5.725   0.486 -0.3822  0.0663 -1.0679
 2077TIP3   OH227865   4.753   3.715   2.212 -0.7438  0.0614 -0.1770
 2077TIP3    H127866   4.789   3.751   2.131 -0.7589  1.8527  0.5858
 2077TIP3    H227867   4.829   3.675   2.256 -0.8615 -1.5598 -1.3489
 2078TIP3   OH227868   4.050   5.161   6.715 -0.1175  0.0545  0.3538
 2078TIP3    H127869   4.002   5.118   6.786 -0.2047  2.1688  1.6585
 2078TIP3    H227870   4.003   5.243   6.702  1.4101  0.8276 -0.4041
 2079TIP3   OH227871   5.603   6.370   8.342  0.1169  0.4633  0.2505
 2079TIP3    H127872   5.690   6.375   8.304 -0.4093  2.2646 -0.8443
 2079TIP3    H227873   5.612   6.409   8.428  0.7849 -1.2901  1.0235
 2080TIP3   OH227874   1.542   0.656   0.171 -0.4639 -0.3627  0.5600
 2080TIP3    H127875   1.575   0.566   0.174 -2.3345 -1.0625  1.5826
 2080TIP3    H227876   1.452   0.647   0.139 -0.0049  1.3990 -1.4586
 2081TIP3   OH227877   5.564   5.226   8.177  0.1237  0.0209 -0.3082
 2081TIP3    H127878   5.505   5.157   8.147  1.1640 -0.0280 -2.3889
 2081TIP3    H227879   5.651   5.186   8.175  0.5934  1.0128 -0.3465
 2082TIP3   OH227880   5.274   2.497   0.174  0.1001  0.0113  0.2227
 2082TIP3    H127881   5.239   2.467   0.258  0.0923  0.7058  0.4713
 2082TIP3    H227882   5.210   2.561   0.143  0.8105  0.7814  0.3476
 2083TIP3   OH227883   4.520   4.271   0.802 -0.1498  0.3295  0.2370
 2083TIP3    H127884   4.435   4.231   0.822  0.2257 -0.6143 -0.0169
 2083TIP3    H227885   4.567   4.205   0.751  0.4778  1.1114 -0.2286
 2084TIP3   OH227886   2.143   4.089   0.347  0.4987  0.2819  0.0269
 2084TIP3    H127887   2.065   4.040   0.374  1.4865 -0.4019  1.8261
 2084TIP3    H227888   2.131   4.177   0.383  0.1932  0.4122 -0.3945
 2085TIP3   OH227889   3.871   4.259   6.131 -0.9098 -0.2356 -0.2175
 2085TIP3    H127890   3.867   4.354   6.132 -0.6034 -0.2262  0.0453
 2085TIP3    H227891   3.959   4.239   6.100 -0.7862 -0.4295  0.2482
 2086TIP3   OH227892   2.873   2.164   7.645  0.0193  0.8016  0.1269
 2086TIP3    H127893   2.941   2.184   7.581  0.7434  0.1446  0.6679
 2086TIP3    H227894   2.796   2.212   7.614  0.9487  2.2534 -0.0439
 2087TIP3   OH227895   5.706   3.540   2.984  0.2734 -0.0046 -0.0151
 2087TIP3    H127896   5.614   3.565   2.979  0.7625  1.7659 -0.7424
 2087TIP3    H227897   5.704   3.449   3.014 -1.7323 -0.3360 -0.9817
 2088TIP3   OH227898   2.958   2.288   0.147  0.3084  0.4105  0.2093
 2088TIP3    H127899   3.034   2.336   0.179  1.2865 -1.1134  0.2974
 2088TIP3    H227900   2.995   2.224   0.086 -1.0326  0.3293 -0.5408
 2089TIP3   OH227901   6.711   0.259   1.048  0.2107  0.0762  0.0183
 2089TIP3    H127902   6.619   0.247   1.073  0.2647 -0.4523 -0.0271
 2089TIP3    H227903   6.748   0.314   1.118 -0.0434 -0.0316  0.2392
 2090TIP3   OH227904   3.623   6.900   6.529 -0.0556 -0.5020 -0.4618
 2090TIP3    H127905   3.664   6.838   6.589  0.4674  0.2049 -0.0819
 2090TIP3    H227906   3.685   6.972   6.522  0.0083 -0.6863 -2.0642
 2091TIP3   OH227907   1.513   1.663   7.972  0.1043  0.0568  0.3024
 2091TIP3    H127908   1.537   1.735   8.030  0.4352  0.7109 -0.6077
 2091TIP3    H227909   1.457   1.704   7.905  1.4440 -0.2177 -1.0377
 2092TIP3   OH227910   5.345   3.843   0.081  0.4585  0.0414 -0.1909
 2092TIP3    H127911   5.414   3.884   0.028  2.3361 -1.2713  1.0994
 2092TIP3    H227912   5.388   3.768   0.122 -1.6601 -0.5977  1.0036
 2093TIP3   OH227913   1.737   0.821   0.300 -0.5891  0.0232 -0.2379
 2093TIP3    H127914   1.820   0.776   0.283 -1.2136 -1.2881  0.0844
 2093TIP3    H227915   1.672   0.770   0.253 -0.9562  2.4722 -2.6520
 2094TIP3   OH227916   0.134   2.625   7.116  0.3380  0.0817 -0.1095
 2094TIP3    H127917   0.040   2.633   7.101  0.4736 -0.2791 -1.2423
 2094TIP3    H227918   0.167   2.715   7.109  0.2974  0.0129 -1.4345
 2095TIP3   OH227919   3.964   5.955   0.056  1.0926 -0.1491  0.3306
 2095TIP3    H127920   4.037   5.902   0.087 -0.4348 -1.4240  1.9065
 2095TIP3    H227921   4.006   6.032   0.017  3.2692 -0.9706  0.8867
 2096TIP3   OH227922   3.207   3.376   2.651 -0.4133  0.5617 -0.2615
 2096TIP3    H127923   3.269   3.448   2.640 -1.6255  1.6974 -0.0235
 2096TIP3    H227924   3.256   3.297   2.626  1.3131  1.3052  0.6138
 2097TIP3   OH227925   1.131   4.339   0.346 -0.2782 -0.2943 -0.1063
 2097TIP3    H127926   1.126   4.266   0.407 -0.7584 -1.8831 -1.9660
 2097TIP3    H227927   1.219   4.376   0.360 -0.5455 -0.2935  1.8298
 2098TIP3   OH227928   1.420   0.833   8.167 -0.0039 -0.5581  0.1138
 2098TIP3    H127929   1.395   0.754   8.216  0.9540 -1.4939 -0.8622
 2098TIP3    H227930   1.514   0.843   8.184  0.8187 -1.9966 -2.9027
 2099TIP3   OH227931   0.746   0.395   7.636 -0.1328 -0.0346 -0.4706
 2099TIP3    H127932   0.817   0.331   7.627 -0.6946 -0.7980  0.2939
 2099TIP3    H227933   0.717   0.385   7.726 -0.8600  0.6550 -0.6189
 2100TIP3   OH227934   6.104   5.429   1.922 -0.0259 -0.6052  0.2716
 2100TIP3    H127935   6.167   5.473   1.979 -0.2921  0.3038 -0.1122
 2100TIP3    H227936   6.033   5.492   1.911 -0.3215 -1.0494 -0.4644
 2101TIP3   OH227937   0.011   1.754   1.875 -0.1220  0.3200  0.1103
 2101TIP3    H127938  -0.008   1.805   1.953 -1.0520  1.6672 -0.9362
 2101TIP3    H227939   0.105   1.738   1.878 -0.3636 -1.0366  2.2641
 2102TIP3   OH227940   2.198   3.115   0.522  0.4596 -0.0308  0.1521
 2102TIP3    H127941   2.243   3.064   0.590  2.9381  1.8900  0.1362
 2102TIP3    H227942   2.143   3.176   0.571 -2.5805 -2.5238  0.1699
 2103TIP3   OH227943   5.591   5.631   0.694  1.1584  0.1110  0.9358
 2103TIP3    H127944   5.589   5.536   0.681  0.9538  0.1660  0.5331
 2103TIP3    H227945   5.676   5.648   0.735  0.7289 -0.3635  2.0325
 2104TIP3   OH227946   0.284   5.391   1.751 -0.0890  0.4171  0.2672
 2104TIP3    H127947   0.256   5.450   1.681 -1.2341 -2.0618 -1.4991
 2104TIP3    H227948   0.209   5.386   1.810 -0.8158 -0.8735 -0.7358
 2105TIP3   OH227949   3.881   3.721   6.623  0.2405 -0.4170  0.4908
 2105TIP3    H127950   3.898   3.631   6.596 -0.7723 -0.2112 -0.9752
 2105TIP3    H227951   3.968   3.763   6.624  0.8642 -1.6556  2.3079
 2106TIP3   OH227952   4.695   2.001   0.785 -0.2022 -0.1248 -0.2041
 2106TIP3    H127953   4.751   1.925   0.772  0.5784  0.7302 -2.4214
 2106TIP3    H227954   4.615   1.966   0.825  0.5771 -1.9109 -0.1240
 2107TIP3   OH227955   6.623   2.488   7.288  0.2711 -0.2303 -0.1762
 2107TIP3    H127956   6.638   2.542   7.365  0.3587  0.0113 -0.3624
 2107TIP3    H227957   6.635   2.398   7.319 -0.5585 -0.1838  0.2881
 2108TIP3   OH227958   2.899   3.571   7.699  0.0749 -0.1154 -0.3361
 2108TIP3    H127959   2.869   3.492   7.655 -2.6367  0.6553 -0.0581
 2108TIP3    H227960   2.903   3.548   7.792 -1.7292  0.2666 -0.1196
 2109TIP3   OH227961   5.510   2.874   7.681  0.1811  0.3635  0.1327
 2109TIP3    H127962   5.556   2.885   7.598  1.7168  0.2053  0.9115
 2109TIP3    H227963   5.490   2.963   7.709 -1.3550  0.3723 -0.9175
 2110TIP3   OH227964   3.946   6.620   1.906 -0.2646  0.9535  0.0782
 2110TIP3    H127965   3.901   6.694   1.945 -1.5102  0.5674 -0.5816
 2110TIP3    H227966   4.039   6.637   1.923 -0.4678  2.9250 -0.4858
 2111TIP3   OH227967   5.682   3.123   0.377  0.6399  0.1169  0.6809
 2111TIP3    H127968   5.666   3.132   0.283 -0.6569  1.1533  0.9674
 2111TIP3    H227969   5.709   3.032   0.389  0.8580 -0.0149 -0.6913
 2112TIP3   OH227970   3.595   5.730   0.774  0.4613 -0.0056 -0.0233
 2112TIP3    H127971   3.688   5.708   0.762  0.4677 -0.0728  0.1497
 2112TIP3    H227972   3.568   5.767   0.690  0.5458 -0.3422 -0.2016
 2113TIP3   OH227973   5.231   4.497   6.538 -0.1846 -0.1188 -0.5637
 2113TIP3    H127974   5.196   4.585   6.552 -0.3343 -0.4241  1.1663
 2113TIP3    H227975   5.295   4.485   6.608 -0.9580 -1.7840 -0.0877
 2114TIP3   OH227976   0.448   3.735   1.404  0.2791  0.1849  0.0609
 2114TIP3    H127977   0.417   3.736   1.495  0.3311  0.6124  0.0759
 2114TIP3    H227978   0.472   3.644   1.388  0.7581  0.2059  0.6411
 2115TIP3   OH227979   1.795   3.762   6.912  0.6088  0.2656 -0.5787
 2115TIP3    H127980   1.724   3.712   6.953  0.3578  2.1512  1.4973
 2115TIP3    H227981   1.756   3.802   6.835 -0.1308 -0.0455 -0.3683
 2116TIP3   OH227982   1.626   4.652   0.082  0.7592 -0.0049  0.1015
 2116TIP3    H127983   1.679   4.703   0.143 -0.2710 -0.6784  1.5934
 2116TIP3    H227984   1.575   4.718   0.034  1.2948  0.5068  0.2245
 2117TIP3   OH227985   1.416   4.551   1.201 -0.0966  0.1573 -0.3073
 2117TIP3    H127986   1.358   4.541   1.125  0.2113  0.2978 -0.5627
 2117TIP3    H227987   1.414   4.466   1.244 -1.2280  0.4347  0.2184
 2118TIP3   OH227988   2.402   5.917   1.191 -0.2866  0.2476 -0.0426
 2118TIP3    H127989   2.335   5.959   1.245 -0.1539  0.3159  0.0691
 2118TIP3    H227990   2.354   5.851   1.141 -0.1943 -0.7642  1.1660
 2119TIP3   OH227991   6.562   3.641   6.507  0.1393 -0.5034 -0.2255
 2119TIP3    H127992   6.532   3.589   6.582  0.6193 -0.7938 -0.2346
 2119TIP3    H227993   6.520   3.726   6.519 -0.7655 -0.9304 -0.2857
 2120TIP3   OH227994   3.411   6.567   1.010  0.2175  0.2032  0.3161
 2120TIP3    H127995   3.389   6.484   1.053  1.9203  0.5004  1.8669
 2120TIP3    H227996   3.455   6.618   1.078 -0.3588  2.2042 -0.7486
 2121TIP3   OH227997   2.689   6.433   0.245 -0.0081 -0.1405  0.0687
 2121TIP3    H127998   2.673   6.416   0.152 -3.9956  1.0124  0.3621
 2121TIP3    H227999   2.674   6.348   0.288  0.9269 -0.4566 -0.1920
 2122TIP3   OH228000   3.934   6.323   1.792 -0.0544 -0.1970  0.2517
 2122TIP3    H128001   3.884   6.322   1.873 -0.9724  0.6031 -0.2848
 2122TIP3    H228002   4.014   6.371   1.814  0.2082 -0.9280  0.9458
 2123TIP3   OH228003   4.654   5.908   1.307 -0.5992 -0.3957 -0.2073
 2123TIP3    H128004   4.610   5.892   1.224  0.1185 -1.0037 -0.4835
 2123TIP3    H228005   4.745   5.928   1.283 -0.2881 -0.9688  0.4436
 2124TIP3   OH228006   3.412   1.678   1.691 -0.1740 -0.1420 -0.5666
 2124TIP3    H128007   3.503   1.686   1.664 -0.0428 -0.1109 -0.1217
 2124TIP3    H228008   3.398   1.752   1.750  0.0131 -1.0924  0.7322
 2125TIP3   OH228009   1.231   2.993   0.723 -0.0289 -0.3532  0.5517
 2125TIP3    H128010   1.170   2.936   0.768 -3.2674  2.2144 -0.2046
 2125TIP3    H228011   1.265   3.051   0.792 -0.5237 -0.0927  0.5778
 2126TIP3   OH228012   4.994   2.836   1.152 -0.4080 -0.3751 -0.1243
 2126TIP3    H128013   5.072   2.782   1.161 -0.6391 -0.6081  0.5226
 2126TIP3    H228014   4.931   2.799   1.214 -0.8997  0.0540 -0.3498
 2127TIP3   OH228015   5.054   4.951   8.365  0.3054  0.1086 -0.4757
 2127TIP3    H128016   5.024   4.997   8.443  2.7583 -0.9791  1.2306
 2127TIP3    H228017   5.037   4.858   8.383 -1.3754 -0.0332 -2.3743
 2128TIP3   OH228018   2.769   6.198   6.996  0.0739 -0.2666 -0.4455
 2128TIP3    H128019   2.791   6.226   6.907 -1.6468  0.3315 -0.7235
 2128TIP3    H228020   2.742   6.106   6.986 -0.9142  0.0383 -0.7062
 2129TIP3   OH228021   3.575   3.132   1.919 -0.1708  0.0846  0.4201
 2129TIP3    H128022   3.668   3.110   1.917 -0.3484 -0.7063  0.5369
 2129TIP3    H228023   3.532   3.055   1.957 -1.1017 -0.3920 -1.4559
 2130TIP3   OH228024   3.954   2.019   1.604 -0.1086  0.3528  0.0757
 2130TIP3    H128025   4.036   1.971   1.604 -0.5871 -0.4724 -0.4421
 2130TIP3    H228026   3.915   2.000   1.689  0.9872  2.1083  1.0511
 2131TIP3   OH228027   2.015   0.825   0.692 -0.2041 -0.3850  0.2117
 2131TIP3    H128028   1.960   0.882   0.746  1.8391 -0.7986  2.9761
 2131TIP3    H228029   2.056   0.883   0.628 -0.3831  0.7172  1.0804
 2132TIP3   OH228030   1.941   5.580   7.545  0.2101  0.5599 -0.1852
 2132TIP3    H128031   1.889   5.511   7.505  0.5308  0.0017  0.3428
 2132TIP3    H228032   1.941   5.651   7.481 -0.2415  0.1239 -0.6728
 2133TIP3   OH228033   3.456   5.721   6.168  0.2694  1.1816  0.2971
 2133TIP3    H128034   3.428   5.638   6.129  1.0506  1.8787 -1.9013
 2133TIP3    H228035   3.376   5.758   6.204 -0.2156 -0.2143  0.7412
 2134TIP3   OH228036   4.255   5.847   7.077 -0.0586  0.6732  0.0069
 2134TIP3    H128037   4.318   5.817   7.012 -1.5038  1.2949 -1.7634
 2134TIP3    H228038   4.174   5.860   7.028 -0.9105  2.3037  1.7080
 2135TIP3   OH228039   6.376   3.057   6.943 -0.9475 -0.8189  0.5144
 2135TIP3    H128040   6.374   3.087   6.853  0.0686 -0.8034  0.4815
 2135TIP3    H228041   6.345   3.131   6.995 -0.1228 -0.2994  0.2896
 2136TIP3   OH228042   0.498   3.717   2.788  0.1053  0.3677 -0.8681
 2136TIP3    H128043   0.521   3.783   2.722  1.5516 -0.8404 -1.6368
 2136TIP3    H228044   0.531   3.635   2.752 -1.0511 -0.6851  0.3720
 2137TIP3   OH228045   6.643   6.865   0.685  0.1320  0.2357  0.2709
 2137TIP3    H128046   6.594   6.870   0.602  0.6384  2.4131  0.0350
 2137TIP3    H228047   6.589   6.810   0.741  0.3232 -2.2935 -1.8429
 2138TIP3   OH228048   4.312   4.972   1.225  0.2409 -0.5537 -0.2658
 2138TIP3    H128049   4.323   4.970   1.320 -0.3441 -3.1920 -0.1700
 2138TIP3    H228050   4.361   4.896   1.193  4.1513  2.5694 -2.6853
 2139TIP3   OH228051   3.045   0.692   1.984  0.4601 -0.3017  0.1671
 2139TIP3    H128052   3.023   0.601   1.962  1.3498 -0.4309 -0.2273
 2139TIP3    H228053   3.139   0.699   1.966  0.4598  0.6192  0.4720
 2140TIP3   OH228054   0.362   6.472   6.362 -0.4690  0.4655 -0.2589
 2140TIP3    H128055   0.344   6.564   6.343  1.6033  0.8125 -0.8344
 2140TIP3    H228056   0.453   6.471   6.393  0.0999 -1.5492 -1.7323
 2141TIP3   OH228057   2.558   2.471   7.307  0.4928 -0.2381 -0.2882
 2141TIP3    H128058   2.625   2.521   7.261 -0.1717  0.1593 -0.8385
 2141TIP3    H228059   2.557   2.386   7.263  1.5169 -0.7062  0.5502
 2142TIP3   OH228060   5.874   5.333   0.864 -0.1213 -0.0186  0.6273
 2142TIP3    H128061   5.804   5.334   0.799 -0.1562 -2.6991  0.4830
 2142TIP3    H228062   5.858   5.252   0.914  2.0421  0.0583  1.5413
 2143TIP3   OH228063   2.744   5.268   0.359 -0.0235 -0.3754  0.7681
 2143TIP3    H128064   2.699   5.352   0.359 -2.3416 -1.5500  0.4906
 2143TIP3    H228065   2.784   5.262   0.273 -1.1465 -0.2068  0.2240
 2144TIP3   OH228066   6.575   4.844   0.600 -0.2456  0.0431  0.4294
 2144TIP3    H128067   6.528   4.761   0.609  2.8207 -1.7784  0.9598
 2144TIP3    H228068   6.604   4.846   0.508  1.0227 -0.3072  0.8009
 2145TIP3   OH228069   3.465   6.862   0.987 -0.2289  0.0419 -0.3591
 2145TIP3    H128070   3.400   6.805   0.945  1.6596 -0.8723 -2.2014
 2145TIP3    H228071   3.470   6.939   0.931 -0.1261  0.3743  0.1007
 2146TIP3   OH228072   6.537   0.708   1.362  0.1831  0.4666 -0.1712
 2146TIP3    H128073   6.445   0.683   1.354  0.2843 -0.7477  1.7704
 2146TIP3    H228074   6.573   0.695   1.274 -1.3549  0.4160 -0.8254
 2147TIP3   OH228075   0.615   3.011   0.879 -0.2502  0.3843 -0.8143
 2147TIP3    H128076   0.540   2.997   0.822  0.2331 -1.4794 -1.0476
 2147TIP3    H228077   0.691   3.010   0.821  0.2594 -1.6950 -0.2140
 2148TIP3   OH228078   5.602   4.364   0.629 -0.1022 -0.1023  0.5818
 2148TIP3    H128079   5.509   4.346   0.644 -0.6086  1.9652  0.1733
 2148TIP3    H228080   5.623   4.434   0.690  0.9412  0.0845  0.0295
 2149TIP3   OH228081   0.025   6.293   7.302  0.4687 -0.2869  0.3000
 2149TIP3    H128082   0.031   6.220   7.363  1.2743 -0.1469  0.3877
 2149TIP3    H228083   0.085   6.359   7.336  0.4016  0.0742 -0.2609
 2150TIP3   OH228084   5.387   5.346   7.030  0.5822  0.0309 -0.7486
 2150TIP3    H128085   5.389   5.305   6.943  0.5140  0.6780 -1.0644
 2150TIP3    H228086   5.452   5.416   7.024  0.9672 -0.2627 -0.0981
 2151TIP3   OH228087   2.825   3.374   0.397 -0.2018 -0.1906  0.0613
 2151TIP3    H128088   2.750   3.351   0.452 -0.4451 -2.5672 -1.1629
 2151TIP3    H228089   2.799   3.457   0.356 -1.6305 -0.3485  0.5726
 2152TIP3   OH228090   4.785   6.783   7.608  0.0515  0.6287 -0.7642
 2152TIP3    H128091   4.751   6.711   7.554 -1.7040  1.4278 -0.7901
 2152TIP3    H228092   4.747   6.768   7.695  1.9800 -0.0341  0.0361
 2153TIP3   OH228093   2.688   3.461   6.523  0.3857  0.1844 -0.1339
 2153TIP3    H128094   2.613   3.431   6.574  0.7324 -0.7981 -0.1776
 2153TIP3    H228095   2.660   3.453   6.432  0.4478  0.1044 -0.1448
 2154TIP3   OH228096   0.042   2.218   2.793 -0.0510 -0.4467 -0.6276
 2154TIP3    H128097  -0.010   2.137   2.790  1.4839 -1.4637 -1.4516
 2154TIP3    H228098   0.101   2.211   2.718  1.1596  0.7250  0.1659
 2155TIP3   OH228099   6.368   1.924   7.953  0.6121  0.3152  0.0846
 2155TIP3    H128100   6.453   1.964   7.970 -0.0867  1.6187  0.7453
 2155TIP3    H228101   6.313   1.997   7.923 -0.8568 -0.0117  1.7730
 2156TIP3   OH228102   1.762   1.299   0.836  0.2989 -0.0875 -0.4023
 2156TIP3    H128103   1.689   1.252   0.877  0.2945 -0.1369 -0.4666
 2156TIP3    H228104   1.831   1.298   0.902 -0.1812  1.0554  0.1617
 2157TIP3   OH228105   6.284   2.062   8.274 -0.1798  0.3794  0.0463
 2157TIP3    H128106   6.308   2.131   8.213 -0.0699 -0.5428 -0.9974
 2157TIP3    H228107   6.237   2.107   8.345 -0.0741  1.5070 -0.5805
 2158TIP3   OH228108   5.859   3.891   0.426 -0.5307 -0.2785  0.7363
 2158TIP3    H128109   5.905   3.811   0.451  0.3783  0.3155  1.0010
 2158TIP3    H228110   5.891   3.957   0.486 -1.6732  0.1791  0.8611
 2159TIP3   OH228111   2.838   0.362   8.516  0.6381 -0.1686 -0.6062
 2159TIP3    H128112   2.897   0.375   8.590  0.4862 -0.1540 -0.4867
 2159TIP3    H228113   2.788   0.283   8.539 -1.4080  1.3809  0.6423
 2160TIP3   OH228114   0.383   3.380   8.583  0.4528  0.2929 -0.4047
 2160TIP3    H128115   0.354   3.471   8.588  0.9389  0.6188 -2.5395
 2160TIP3    H228116   0.457   3.381   8.522  0.8903 -1.4478  0.0251
 2161TIP3   OH228117   4.539   6.857   0.239  0.2800 -0.2710 -0.4518
 2161TIP3    H128118   4.593   6.825   0.311  0.6152  0.6856 -0.2556
 2161TIP3    H228119   4.508   6.778   0.194 -1.1400 -0.9511  1.5964
 2162TIP3   OH228120   2.088   2.919   1.095 -0.4926  0.0157  0.3380
 2162TIP3    H128121   2.169   2.967   1.113  1.0168 -0.6146 -3.8046
 2162TIP3    H228122   2.076   2.863   1.172  3.5025 -0.5117  0.7921
 2163TIP3   OH228123   2.092   3.580   2.525 -0.5081  0.8117  0.3848
 2163TIP3    H128124   2.087   3.662   2.475 -0.4685  0.0614 -0.9023
 2163TIP3    H228125   2.186   3.560   2.530 -0.5181  0.8302  0.6837
 2164TIP3   OH228126   3.090   5.457   0.431 -0.2239 -0.2292  0.6773
 2164TIP3    H128127   3.118   5.533   0.481 -0.0593  0.9916 -1.1743
 2164TIP3    H228128   3.141   5.462   0.350 -2.1114 -0.8158 -0.6119
 2165TIP3   OH228129   5.835   0.840   1.094  0.1727 -0.0670  0.1389
 2165TIP3    H128130   5.915   0.835   1.041 -0.5896 -0.4046 -1.0403
 2165TIP3    H228131   5.798   0.752   1.089  0.0237 -0.0652  1.1607
 2166TIP3   OH228132   5.049   4.106   7.359  0.7411 -0.1694  0.0917
 2166TIP3    H128133   5.024   4.114   7.267  0.3473  0.2164  0.2254
 2166TIP3    H228134   4.968   4.124   7.408  1.2031  0.8094  0.5305
 2167TIP3   OH228135   1.449   2.989   7.849 -0.1239  0.3058 -0.1960
 2167TIP3    H128136   1.515   2.923   7.866  0.0197  1.0761  2.6806
 2167TIP3    H228137   1.487   3.071   7.882 -2.4622  0.7514  1.7204
 2168TIP3   OH228138   0.432   3.997   0.256 -0.0594  0.1659 -0.1405
 2168TIP3    H128139   0.483   3.945   0.194 -0.1524  0.0710 -0.1382
 2168TIP3    H228140   0.377   3.933   0.302  0.2217  0.2013  0.2493
 2169TIP3   OH228141   6.087   1.280   0.664  0.1825 -0.2592 -0.5384
 2169TIP3    H128142   6.175   1.263   0.700  0.2243  2.3045  0.7852
 2169TIP3    H228143   6.028   1.263   0.737  0.0888  2.9380  0.2715
 2170TIP3   OH228144   1.738   6.284   7.763  0.5487  0.0971 -0.2018
 2170TIP3    H128145   1.758   6.204   7.811 -2.4473 -0.8138 -0.2429
 2170TIP3    H228146   1.820   6.309   7.722  1.8774 -2.2500  0.8432
 2171TIP3   OH228147   5.974   5.400   0.435  0.5633  0.1805 -0.1716
 2171TIP3    H128148   6.029   5.477   0.420 -0.1296  0.5122 -1.0411
 2171TIP3    H228149   5.964   5.361   0.349  0.2300 -0.4340  0.1417
 2172TIP3   OH228150   0.764   6.515   7.108 -0.2082 -0.5806  0.7222
 2172TIP3    H128151   0.844   6.473   7.075 -0.3419 -0.0527 -0.3395
 2172TIP3    H228152   0.702   6.507   7.036 -0.2973  1.2321  0.5416
 2173TIP3   OH228153   5.153   1.857   0.247 -0.2387 -0.4633 -0.2610
 2173TIP3    H128154   5.087   1.868   0.179 -0.2512 -0.7762 -0.2990
 2173TIP3    H228155   5.134   1.771   0.285 -1.4680  0.5057  1.4576
 2174TIP3   OH228156   0.681   2.022   7.378 -0.4715  0.5237 -0.3115
 2174TIP3    H128157   0.638   2.082   7.317 -1.7818  0.3098  0.3643
 2174TIP3    H228158   0.609   1.977   7.422  0.4425  0.2997  1.0201
 2175TIP3   OH228159   5.997   3.770   6.934 -0.0576 -0.4271  0.0583
 2175TIP3    H128160   5.993   3.780   7.030 -1.7008 -0.9538  0.0748
 2175TIP3    H228161   5.970   3.855   6.900  2.4538  0.4226 -0.0080
 2176TIP3   OH228162   2.175   6.269   2.208 -0.0154 -0.1748 -0.1409
 2176TIP3    H128163   2.098   6.258   2.152 -0.8809 -0.1707  1.0159
 2176TIP3    H228164   2.163   6.356   2.248  1.2208  0.3616 -0.8768
 2177TIP3   OH228165   5.504   2.990   7.948  0.1924 -0.1486 -0.2671
 2177TIP3    H128166   5.572   3.056   7.934  0.0834  0.2768  1.0609
 2177TIP3    H228167   5.436   3.035   7.999 -0.3088 -1.0300 -0.1229
 2178TIP3   OH228168   0.512   1.873   0.924  0.0365 -0.0546 -0.2153
 2178TIP3    H128169   0.568   1.915   0.989  0.3789 -0.0660 -0.4985
 2178TIP3    H228170   0.423   1.895   0.951  0.1409 -0.6700  0.6737
 2179TIP3   OH228171   1.528   6.202   1.376 -0.2940 -0.4187  0.1627
 2179TIP3    H128172   1.612   6.174   1.337 -0.7517 -0.8088 -0.5764
 2179TIP3    H228173   1.511   6.287   1.336 -1.1754 -1.1891 -1.1828
 2180TIP3   OH228174   0.996   2.076   0.344 -0.1444  0.2130 -0.3347
 2180TIP3    H128175   0.992   2.167   0.375 -0.2438  0.3694 -0.7975
 2180TIP3    H228176   1.082   2.069   0.303  1.1500 -0.7723  2.3213
 2181TIP3   OH228177   2.928   5.376   8.282  0.2826  0.3406  0.7704
 2181TIP3    H128178   2.927   5.282   8.266  0.1827  0.4705  0.0018
 2181TIP3    H228179   2.836   5.402   8.279  0.3338  0.5136  0.6825
 2182TIP3   OH228180   1.880   2.287   1.480  0.0784 -0.0660 -0.7208
 2182TIP3    H128181   1.867   2.199   1.445  0.6943 -0.2851 -0.4137
 2182TIP3    H228182   1.844   2.284   1.569  1.3610 -0.4127 -0.2034
 2183TIP3   OH228183   6.438   3.907   6.542  0.2635  0.4049 -0.5525
 2183TIP3    H128184   6.468   3.998   6.531 -1.7358  1.3558  1.0764
 2183TIP3    H228185   6.432   3.896   6.637  0.2299 -1.3763 -0.7378
 2184TIP3   OH228186   0.879   2.012   1.319 -0.0286 -0.3783  0.4270
 2184TIP3    H128187   0.886   1.917   1.307 -0.1694 -0.3713  0.2790
 2184TIP3    H228188   0.807   2.023   1.382 -0.3310 -0.3509  0.0791
 2185TIP3   OH228189   5.365   1.259   1.340 -0.5250 -0.0031 -0.5038
 2185TIP3    H128190   5.308   1.330   1.370 -1.0392 -0.2752 -0.8293
 2185TIP3    H228191   5.454   1.293   1.352 -0.7619  0.5892 -0.4012
 2186TIP3   OH228192   4.797   5.596   8.493 -0.0055 -0.1741 -0.0990
 2186TIP3    H128193   4.873   5.603   8.435 -0.4193  2.3852 -0.4883
 2186TIP3    H228194   4.826   5.636   8.575 -0.9500  1.0105 -0.3165
 2187TIP3   OH228195   0.764   6.681   2.062  0.5426 -0.4451  0.1128
 2187TIP3    H128196   0.770   6.596   2.105  1.1487  0.1832  1.3094
 2187TIP3    H228197   0.830   6.735   2.105 -0.9951  1.1475  0.6035
 2188TIP3   OH228198   5.868   1.674   0.013 -0.2350 -0.2727  0.3487
 2188TIP3    H128199   5.891   1.609  -0.052  1.9357  0.5265  0.2218
 2188TIP3    H228200   5.923   1.750  -0.008 -2.4168  1.5205  0.6739
 2189TIP3   OH228201   6.699   3.047   1.597  0.0984  0.5904  0.0357
 2189TIP3    H128202   6.731   3.130   1.632  1.6819  0.0088  0.0357
 2189TIP3    H228203   6.637   3.073   1.528 -1.0125  1.7367  1.4103
 2190TIP3   OH228204   6.718   3.365   7.255 -0.5872  0.6177  0.3985
 2190TIP3    H128205   6.755   3.366   7.167 -2.0357 -1.7698 -0.3202
 2190TIP3    H228206   6.698   3.457   7.274  2.4074  1.5737 -0.5131
 2191TIP3   OH228207   4.823   0.409   8.276  0.2111 -0.3515  0.4535
 2191TIP3    H128208   4.887   0.354   8.323  0.3829 -0.9312 -0.4414
 2191TIP3    H228209   4.740   0.363   8.287  0.1209 -0.1249  0.7566
 2192TIP3   OH228210   1.012   2.946   8.130  0.2109  0.3472  0.1285
 2192TIP3    H128211   1.103   2.932   8.156  0.2800  2.6322  1.3292
 2192TIP3    H228212   0.963   2.876   8.174  1.1768  0.1655  0.9319
 2193TIP3   OH228213   0.176   6.845   1.008 -0.3020  0.2194 -0.5838
 2193TIP3    H128214   0.149   6.756   0.985 -0.9316  0.5258 -1.0916
 2193TIP3    H228215   0.263   6.836   1.045  0.1459 -0.4886 -1.7626
 2194TIP3   OH228216   6.651   1.078   0.608 -0.7480 -0.4590 -0.2284
 2194TIP3    H128217   6.664   1.094   0.701 -1.6799  2.5657 -0.5217
 2194TIP3    H228218   6.738   1.091   0.569 -0.6089 -0.4649  0.0796
 2195TIP3   OH228219   5.950   6.303   7.765 -0.1520 -0.2329 -0.1985
 2195TIP3    H128220   5.991   6.270   7.845 -0.5393 -1.2546 -0.4042
 2195TIP3    H228221   5.867   6.257   7.760  1.1204 -2.5462 -2.7488
 2196TIP3   OH228222   6.678   3.828   1.008 -0.4406 -0.2621 -0.0517
 2196TIP3    H128223   6.769   3.798   1.017  0.0444  1.4366  0.9775
 2196TIP3    H228224   6.627   3.747   1.003  1.0891 -1.2503 -0.3588
 2197TIP3   OH228225   2.482   6.561   1.302 -0.3255 -0.2305 -0.1505
 2197TIP3    H128226   2.576   6.549   1.297 -0.3960 -1.7669  1.1329
 2197TIP3    H228227   2.446   6.476   1.275 -1.2583 -0.1664  0.7982
 2198TIP3   OH228228   0.111   1.275   7.056 -0.1407  0.5009 -0.7819
 2198TIP3    H128229   0.186   1.303   7.004 -0.2334  0.4131 -0.9626
 2198TIP3    H228230   0.142   1.279   7.147 -0.2411  1.4590 -0.7836
 2199TIP3   OH228231   1.393   1.606   6.655  0.5612 -0.0797 -0.4883
 2199TIP3    H128232   1.354   1.549   6.722  1.5495 -1.7550 -1.2774
 2199TIP3    H228233   1.338   1.593   6.578  0.3623  0.6092 -0.4618
 2200TIP3   OH228234   1.699   2.758   8.230 -0.3557  0.2065 -0.0124
 2200TIP3    H128235   1.715   2.776   8.137  2.6451 -0.0684  0.3483
 2200TIP3    H228236   1.615   2.799   8.248 -1.4115 -0.3459 -2.9995
 2201TIP3   OH228237   2.842   0.027   0.201  0.0037  0.5859  0.2752
 2201TIP3    H128238   2.891   0.047   0.122 -1.0480 -0.6749 -0.7400
 2201TIP3    H228239   2.764   0.083   0.197 -0.7634 -0.4868 -0.3463
 2202TIP3   OH228240   4.266   5.597   0.608 -0.0703  0.3318 -0.2667
 2202TIP3    H128241   4.297   5.541   0.537  0.6428 -0.4391  0.6200
 2202TIP3    H228242   4.267   5.685   0.572  2.7421  0.3125 -0.4500
 2203TIP3   OH228243   2.803   2.884   1.557 -0.2546 -0.6076 -0.7896
 2203TIP3    H128244   2.744   2.818   1.523  1.3863 -2.1060 -0.8960
 2203TIP3    H228245   2.872   2.834   1.602  1.7673  0.9235 -2.0014
 2204TIP3   OH228246   4.085   4.515   1.662  0.0149 -0.1339 -0.5102
 2204TIP3    H128247   4.177   4.494   1.673 -0.1467 -0.6245 -0.0017
 2204TIP3    H228248   4.063   4.568   1.740  0.4532  2.1468 -1.8381
 2205TIP3   OH228249   3.503   1.410   1.559  0.4507 -0.2225 -0.4705
 2205TIP3    H128250   3.446   1.482   1.583 -1.0452 -2.2097  2.5721
 2205TIP3    H228251   3.444   1.339   1.533  1.7417 -1.1247 -1.0980
 2206TIP3   OH228252   2.081   2.434   7.476  0.1831  0.0735  0.0550
 2206TIP3    H128253   2.076   2.410   7.384 -0.8835 -2.0003  0.5906
 2206TIP3    H228254   2.122   2.358   7.518  1.1655  1.2141  1.2348
 2207TIP3   OH228255   6.534   3.321   8.347  0.6155  0.2088 -0.3794
 2207TIP3    H128256   6.517   3.279   8.430 -0.6540 -0.8650 -1.1501
 2207TIP3    H228257   6.458   3.300   8.293  1.6151  0.4895 -1.9623
 2208TIP3   OH228258   4.211   5.488   1.064  0.7702  0.1372  0.3958
 2208TIP3    H128259   4.191   5.420   1.127 -0.0962  1.1794  1.2827
 2208TIP3    H228260   4.153   5.470   0.989  1.4237 -0.7915  0.1002
 2209TIP3   OH228261   2.575   6.180   6.581 -0.1064 -0.3953 -0.4918
 2209TIP3    H128262   2.583   6.181   6.485 -2.0354  4.2529 -0.8318
 2209TIP3    H228263   2.489   6.140   6.597 -0.0425 -0.6307 -0.7212
 2210TIP3   OH228264   1.122   3.772   8.328  0.2463 -0.1139 -0.3498
 2210TIP3    H128265   1.051   3.776   8.393  1.3139  3.0076  0.8028
 2210TIP3    H228266   1.183   3.708   8.363 -0.4208 -0.3583  0.3972
 2211TIP3   OH228267   3.416   3.380   8.368 -0.2169  0.1111 -0.2347
 2211TIP3    H128268   3.344   3.318   8.382 -0.3984  0.5915  1.1673
 2211TIP3    H228269   3.476   3.334   8.310 -0.3679 -1.3955  0.7351
 2212TIP3   OH228270   3.974   3.764   1.479 -0.3433  0.2255  0.1357
 2212TIP3    H128271   4.048   3.708   1.506  0.0438 -0.8064 -2.7667
 2212TIP3    H228272   3.897   3.707   1.488 -0.0843 -0.4955 -1.7366
 2213TIP3   OH228273   4.873   5.201   0.936 -0.5732  0.4952  0.3457
 2213TIP3    H128274   4.779   5.190   0.919 -0.6886 -0.1524  1.3799
 2213TIP3    H228275   4.915   5.131   0.886 -0.7003  0.3138  0.4932
 2214TIP3   OH228276   0.354   0.900   1.689 -0.2581 -0.5363  0.4901
 2214TIP3    H128277   0.369   0.830   1.625  0.3221  2.2440 -2.7101
 2214TIP3    H228278   0.440   0.915   1.728  0.6895  1.0226 -1.9296
 2215TIP3   OH228279   6.637   6.660   7.484 -0.0151  0.0178  0.3095
 2215TIP3    H128280   6.705   6.593   7.496  0.4445  0.5487  0.7120
 2215TIP3    H228281   6.659   6.728   7.547 -0.7324  0.3550  0.2058
 2216TIP3   OH228282   1.901   4.287   8.149  0.3965  0.4938  0.7053
 2216TIP3    H128283   1.921   4.296   8.056 -1.0719 -1.0104  0.1702
 2216TIP3    H228284   1.869   4.373   8.175  1.2681  1.0646 -0.0482
 2217TIP3   OH228285   4.711   1.443   7.467 -0.6218  0.2118  0.5955
 2217TIP3    H128286   4.677   1.370   7.519 -0.6121  0.7594  1.3840
 2217TIP3    H228287   4.783   1.479   7.519  1.6910 -1.3050 -1.2865
 2218TIP3   OH228288   1.449   2.835   8.347 -0.3051 -0.4633  0.4442
 2218TIP3    H128289   1.492   2.885   8.416  0.5176  0.2868 -0.5795
 2218TIP3    H228290   1.413   2.758   8.391  0.5891 -0.2205  1.6262
 2219TIP3   OH228291   4.484   1.508   6.753 -0.0993 -0.1377  0.1682
 2219TIP3    H128292   4.501   1.550   6.669 -0.0007 -2.5530 -1.0932
 2219TIP3    H228293   4.388   1.505   6.760 -0.1118 -0.5259 -0.1759
 2220TIP3   OH228294   4.034   4.998   6.929 -0.3866  0.0587  0.3163
 2220TIP3    H128295   4.110   4.942   6.946 -0.6570 -0.2710  0.4620
 2220TIP3    H228296   3.969   4.970   6.993  0.0233  1.6553  1.4958
 2221TIP3   OH228297   1.019   1.372   0.383 -0.7042 -0.5910  0.2240
 2221TIP3    H128298   0.945   1.341   0.331  0.2128 -1.2805 -0.7035
 2221TIP3    H228299   1.075   1.295   0.395  1.1761  0.4289 -1.3579
 2222TIP3   OH228300   6.853   4.686   6.588 -0.0878  0.0615  0.1977
 2222TIP3    H128301   6.935   4.732   6.570 -0.4256  0.9444  0.8166
 2222TIP3    H228302   6.786   4.738   6.545 -0.3355 -0.6735 -0.3307
 2223TIP3   OH228303   5.084   6.674   8.148 -0.0530 -0.0144  0.4834
 2223TIP3    H128304   5.114   6.752   8.196 -0.4497  1.4497 -1.4969
 2223TIP3    H228305   4.990   6.671   8.165 -0.3074  0.8798 -0.6161
 2224TIP3   OH228306   5.920   2.341   0.026 -0.1829 -0.6703  0.0940
 2224TIP3    H128307   5.899   2.355  -0.066  0.1554 -2.3990 -0.2775
 2224TIP3    H228308   5.972   2.418   0.051  1.8192 -1.3119 -1.8358
 2225TIP3   OH228309   5.023   3.881   0.417  0.3457  0.3782 -0.7641
 2225TIP3    H128310   4.985   3.962   0.380 -0.3339  1.1148  1.3800
 2225TIP3    H228311   5.074   3.911   0.492  0.1442 -1.1827  0.0344
 2226TIP3   OH228312   3.002   0.600   7.015  0.8382 -0.1607  0.0852
 2226TIP3    H128313   2.944   0.667   6.980  0.8918  0.2873  0.8140
 2226TIP3    H228314   3.036   0.554   6.939  0.4731  0.3741 -0.4046
 2227TIP3   OH228315   2.694   0.904   2.481 -0.1032 -0.4805  0.7656
 2227TIP3    H128316   2.764   0.956   2.444 -2.1807  1.0656 -1.2317
 2227TIP3    H228317   2.684   0.937   2.570 -0.2135  1.3815  0.1035
 2228TIP3   OH228318   2.309   0.212   0.575  0.2953 -0.3517 -0.2001
 2228TIP3    H128319   2.290   0.146   0.642  0.2478 -0.6164 -0.4715
 2228TIP3    H228320   2.306   0.296   0.622 -0.5240 -0.4682 -0.0241
 2229TIP3   OH228321   5.654   0.807   6.909 -0.0240 -0.4864 -0.2170
 2229TIP3    H128322   5.635   0.715   6.927 -0.0699 -0.2963  0.7993
 2229TIP3    H228323   5.743   0.807   6.874 -0.0133 -0.9166 -0.1944
 2230TIP3   OH228324   1.926   2.017   2.635 -0.1375 -0.9946  0.4792
 2230TIP3    H128325   1.842   2.012   2.679 -0.5024 -2.1817 -0.3022
 2230TIP3    H228326   1.988   1.975   2.695 -0.7294 -3.0983 -0.2970
 2231TIP3   OH228327   5.779   5.069   0.642 -0.0115  0.5966  0.1271
 2231TIP3    H128328   5.780   5.082   0.737  1.4138  0.0924  0.1971
 2231TIP3    H228329   5.777   4.974   0.631 -0.8043  0.6567 -0.3714
 2232TIP3   OH228330   6.660   6.345   7.187 -0.1551  0.2189  0.1314
 2232TIP3    H128331   6.741   6.348   7.238 -0.9982  0.5238  1.5156
 2232TIP3    H228332   6.631   6.436   7.182 -3.6451 -0.1473  5.2501
 2233TIP3   OH228333   0.872   4.157   6.823  0.2767  0.4333 -0.4448
 2233TIP3    H128334   0.870   4.218   6.897 -0.1220 -0.9564  0.7278
 2233TIP3    H228335   0.781   4.150   6.796  0.4689  1.2433 -1.3624
 2234TIP3   OH228336   2.388   0.506   0.940  0.2825 -0.4171 -0.0347
 2234TIP3    H128337   2.452   0.437   0.956  0.0028 -0.3527  1.5137
 2234TIP3    H228338   2.325   0.497   1.011 -0.6335  0.4341 -0.7171
 2235TIP3   OH228339   2.275   2.405   6.557 -0.2413 -0.8273 -0.2716
 2235TIP3    H128340   2.277   2.324   6.608 -0.1614 -0.3088  0.5609
 2235TIP3    H228341   2.363   2.413   6.522  0.2738 -0.2155  1.0828
 2236TIP3   OH228342   4.864   6.919   8.020  0.3931 -0.0423  0.3161
 2236TIP3    H128343   4.956   6.919   7.994  0.5055  1.3315  0.6091
 2236TIP3    H228344   4.838   7.011   8.013 -1.0037 -0.4457  0.0825
 2237TIP3   OH228345   3.364   1.315   8.257  0.4199  0.1713  0.5404
 2237TIP3    H128346   3.372   1.234   8.207  1.1780  0.8336 -0.4383
 2237TIP3    H228347   3.396   1.293   8.344 -0.0238 -0.7507  0.4845
 2238TIP3   OH228348   0.681   6.212   0.031  0.5939  0.3779 -0.5146
 2238TIP3    H128349   0.654   6.269  -0.041  1.2421  0.6557 -0.5436
 2238TIP3    H228350   0.612   6.222   0.097 -0.2828 -0.2816 -1.3002
 2239TIP3   OH228351   4.498   2.051   7.714  0.0889  0.0090 -0.4191
 2239TIP3    H128352   4.525   2.128   7.664  1.7441 -0.9170 -1.0340
 2239TIP3    H228353   4.551   1.980   7.679  0.1711 -0.9970  1.5758
 2240TIP3   OH228354   1.940   0.612   0.509  0.7003  0.0460  0.0891
 2240TIP3    H128355   1.954   0.680   0.574 -0.0294  0.9312 -0.6532
 2240TIP3    H228356   1.958   0.655   0.425 -1.3639 -0.1798 -0.5136
 2241TIP3   OH228357   5.501   6.761   0.746 -0.1030  0.1675 -0.4680
 2241TIP3    H128358   5.481   6.668   0.734  0.1450  0.0684 -0.1459
 2241TIP3    H228359   5.540   6.788   0.663  2.6421 -0.7833  0.3857
 2242TIP3   OH228360   4.249   6.150   1.930  0.2116  0.5010  0.0042
 2242TIP3    H128361   4.193   6.104   1.992 -0.5697  2.5112  0.9121
 2242TIP3    H228362   4.203   6.144   1.846 -0.2494  0.2697  0.2689
 2243TIP3   OH228363   6.003   0.346   8.638 -0.2298 -0.5436 -0.2688
 2243TIP3    H128364   5.980   0.263   8.681  0.8581 -0.0107  1.4636
 2243TIP3    H228365   5.927   0.402   8.654 -1.0366 -1.2267 -1.5836
 2244TIP3   OH228366   0.260   5.157   1.636  0.1627  0.8504 -0.3610
 2244TIP3    H128367   0.265   5.250   1.661  0.8480  0.7110  0.0489
 2244TIP3    H228368   0.286   5.156   1.544 -0.3815  1.1268 -0.5211
 2245TIP3   OH228369   3.534   0.482   1.208 -0.1277  0.0341 -0.0450
 2245TIP3    H128370   3.468   0.431   1.161 -0.2032  0.0501  0.0442
 2245TIP3    H228371   3.568   0.423   1.274  2.1874 -1.0607 -2.0526
 2246TIP3   OH228372   2.512   1.073   1.447 -0.0618 -0.5459 -0.0639
 2246TIP3    H128373   2.500   1.168   1.443 -0.4368 -0.6351 -2.1293
 2246TIP3    H228374   2.436   1.042   1.495 -0.4989  0.1232 -0.3015
 2247TIP3   OH228375   4.652   1.609   8.081 -0.2530  0.2929  0.3147
 2247TIP3    H128376   4.644   1.545   8.010 -3.3906 -0.8684  1.5617
 2247TIP3    H228377   4.627   1.693   8.041 -1.1787 -0.2064 -0.1919
 2248TIP3   OH228378   1.875   1.080   7.320 -0.2589 -0.0355 -0.4298
 2248TIP3    H128379   1.834   1.166   7.332 -0.9703 -0.1729 -1.7101
 2248TIP3    H228380   1.836   1.026   7.388 -0.3909  0.4602 -0.1040
 2249TIP3   OH228381   3.197   5.976   1.691  0.1709 -0.1879 -0.2317
 2249TIP3    H128382   3.219   5.981   1.784 -1.4095  1.2935  0.1095
 2249TIP3    H228383   3.137   5.903   1.684 -3.3158  2.3029  0.8246
 2250TIP3   OH228384   1.236   3.592   0.235  0.1275  0.3257  0.7035
 2250TIP3    H128385   1.293   3.515   0.242 -0.5217 -0.1139  1.2996
 2250TIP3    H228386   1.215   3.615   0.326 -0.5533  0.5469  0.4980
 2251TIP3   OH228387   4.492   5.829   6.952  0.1261  0.2014 -0.0166
 2251TIP3    H128388   4.571   5.869   6.915 -0.3198  0.3067 -0.8704
 2251TIP3    H228389   4.515   5.814   7.044  0.8707  0.9353 -0.0599
 2252TIP3   OH228390   1.384   6.861   6.542 -0.2548 -0.1176  0.0048
 2252TIP3    H128391   1.341   6.929   6.594 -0.9836 -0.6964  0.1869
 2252TIP3    H228392   1.364   6.780   6.588 -0.3188 -0.5702 -0.7957
 2253TIP3   OH228393   1.511   5.475   0.887 -0.2590 -0.0880  0.4625
 2253TIP3    H128394   1.532   5.510   0.973  0.8228  2.2818 -0.6660
 2253TIP3    H228395   1.442   5.532   0.854  0.0095 -0.3403 -0.5915
 2254TIP3   OH228396   5.118   4.228   0.865  0.0537  0.2468  0.2326
 2254TIP3    H128397   5.027   4.198   0.865  0.7114 -2.0222 -1.4206
 2254TIP3    H228398   5.130   4.270   0.951 -1.3137 -3.4863  2.4687
 2255TIP3   OH228399   5.900   4.451   7.747 -0.2591 -0.3805 -0.1252
 2255TIP3    H128400   5.885   4.379   7.809  0.5307  1.0598  1.8430
 2255TIP3    H228401   5.939   4.520   7.800 -1.6238  1.7881 -1.8044
 2256TIP3   OH228402   4.135   4.560   0.326  0.4454  0.4073 -0.3222
 2256TIP3    H128403   4.077   4.518   0.263  1.2728 -1.0856 -0.1233
 2256TIP3    H228404   4.088   4.640   0.352 -1.2144 -0.4120 -0.6459
 2257TIP3   OH228405   2.055   3.112   0.893 -0.3671  0.1291  0.0448
 2257TIP3    H128406   2.096   3.036   0.933 -0.7132 -0.9820 -1.5881
 2257TIP3    H228407   1.990   3.076   0.833  0.4742  1.6087 -1.9133
 2258TIP3   OH228408   2.138   4.919   7.652  0.2837  0.1594  0.2181
 2258TIP3    H128409   2.155   4.852   7.718  0.9588 -0.4365 -0.5453
 2258TIP3    H228410   2.042   4.929   7.653  0.1671 -0.8442  0.3108
 2259TIP3   OH228411   2.414   3.037   7.455  0.4298 -0.4852  0.5129
 2259TIP3    H128412   2.379   3.022   7.367  0.1515 -1.7234  0.8141
 2259TIP3    H228413   2.502   2.999   7.453  0.6579  0.0259  0.6002
 2260TIP3   OH228414   0.312   3.375   8.123  0.6896  0.7313  0.4676
 2260TIP3    H128415   0.229   3.359   8.077  1.9898 -2.5651 -0.9835
 2260TIP3    H228416   0.367   3.420   8.059  0.3513  2.2527  1.1905
 2261TIP3   OH228417   3.263   3.861   8.376 -0.0498 -0.1375  0.4032
 2261TIP3    H128418   3.264   3.883   8.469  0.0386 -1.0434  0.6267
 2261TIP3    H228419   3.354   3.873   8.348 -0.3320  1.4664  0.0904
 2262TIP3   OH228420   5.998   3.542   8.299 -0.9676  0.3776  0.1319
 2262TIP3    H128421   6.086   3.581   8.302 -0.6692 -0.2828  0.1627
 2262TIP3    H228422   5.950   3.588   8.368 -0.5501  0.5314  0.3277
 2263TIP3   OH228423   0.888   2.853   0.684 -0.0325  0.2433  0.5621
 2263TIP3    H128424   0.846   2.782   0.733 -0.3226 -0.2684 -0.3796
 2263TIP3    H228425   0.900   2.817   0.596 -0.3572  1.4262  0.0048
 2264TIP3   OH228426   4.227   5.606   2.407  0.5373  0.2655  0.4933
 2264TIP3    H128427   4.231   5.694   2.370  1.9192  0.2449  0.5466
 2264TIP3    H228428   4.319   5.581   2.420  0.4381 -2.5451 -2.6892
 2265TIP3   OH228429   2.346   6.696   8.277  0.4713 -0.1485 -0.6283
 2265TIP3    H128430   2.297   6.640   8.216 -0.9658 -1.1074  1.2917
 2265TIP3    H228431   2.314   6.785   8.260  0.1899 -0.3838 -1.3434
 2266TIP3   OH228432   4.607   1.266   7.639  0.1517 -0.0847  0.1504
 2266TIP3    H128433   4.674   1.208   7.676  0.8372  1.5494  1.5972
 2266TIP3    H228434   4.535   1.263   7.702  0.6097  1.3689  0.7855
 2267TIP3   OH228435   4.134   5.853   0.248  0.2449  0.5690 -0.5223
 2267TIP3    H128436   4.190   5.778   0.227  0.2911  0.3327  0.3731
 2267TIP3    H228437   4.128   5.851   0.344 -1.1398  0.7005 -0.5902
 2268TIP3   OH228438   1.583   4.250   2.029  0.0505  0.5161 -0.2287
 2268TIP3    H128439   1.495   4.244   1.992  0.5415  0.1783 -1.3704
 2268TIP3    H228440   1.633   4.299   1.964  0.6147  1.0646  0.6049
 2269TIP3   OH228441   2.925   6.448   0.031  0.0589  0.1557  0.0668
 2269TIP3    H128442   2.944   6.529   0.079  0.0529 -0.9915  2.1462
 2269TIP3    H228443   2.967   6.379   0.083  1.8695 -1.0279 -2.7609
 2270TIP3   OH228444   5.701   3.497   0.629  0.4836  0.2145 -0.6857
 2270TIP3    H128445   5.632   3.483   0.694  0.0013  0.3626 -1.1555
 2270TIP3    H228446   5.753   3.569   0.665  1.3887 -0.9660  0.4605
 2271TIP3   OH228447   1.350   6.211   1.782  0.3649 -0.5801 -0.0526
 2271TIP3    H128448   1.390   6.179   1.863  0.9992  1.9535  0.7264
 2271TIP3    H228449   1.296   6.138   1.752  0.8475 -1.9476  2.1313
 2272TIP3   OH228450   5.924   5.304   8.284  0.0958  0.5077  0.2579
 2272TIP3    H128451   6.013   5.317   8.316  0.6684  0.6634 -1.3254
 2272TIP3    H228452   5.932   5.237   8.216 -0.5491  2.2907 -1.6858
 2273TIP3   OH228453   5.303   3.683   8.439  0.4911  0.2905  0.1836
 2273TIP3    H128454   5.383   3.734   8.426  1.0830 -0.4476  0.8600
 2273TIP3    H228455   5.333   3.599   8.474 -0.7149  0.8818  2.9211
 2274TIP3   OH228456   0.296   6.142   0.634  0.0723  0.4751  0.0941
 2274TIP3    H128457   0.316   6.065   0.581 -0.0256  0.8269 -0.4578
 2274TIP3    H228458   0.259   6.106   0.715  0.8965 -0.0978  0.2389
 2275TIP3   OH228459   4.776   2.345   1.455 -0.0992 -1.1426  0.2400
 2275TIP3    H128460   4.729   2.370   1.375 -0.6530 -2.2288  0.2140
 2275TIP3    H228461   4.734   2.396   1.524 -0.0732 -0.7103 -0.0587
 2276TIP3   OH228462   4.866   6.667   1.138 -0.5952  0.0531 -0.1059
 2276TIP3    H128463   4.863   6.760   1.160 -1.8265 -0.5867  2.8605
 2276TIP3    H228464   4.776   6.643   1.119 -0.0804 -0.2835 -2.5122
 2277TIP3   OH228465   5.526   0.589   8.345 -0.3681  0.2636 -0.0865
 2277TIP3    H128466   5.565   0.674   8.326  0.8459  0.3574  2.4988
 2277TIP3    H228467   5.597   0.526   8.330 -0.5692 -0.0467  0.2509
 2278TIP3   OH228468   6.108   6.512   8.122  0.3113 -0.1288 -0.2052
 2278TIP3    H128469   6.176   6.557   8.071 -0.2902  0.3689 -0.5873
 2278TIP3    H228470   6.148   6.498   8.208  1.2281 -0.6932 -0.7071
 2279TIP3   OH228471   6.204   2.202   8.485 -0.1871  0.2500 -0.2976
 2279TIP3    H128472   6.215   2.167   8.573 -0.9166  0.0570 -0.2734
 2279TIP3    H228473   6.135   2.267   8.493 -0.8356 -0.3429 -0.8643
 2280TIP3   OH228474   0.425   0.264   6.834 -0.4523 -0.1232  0.1266
 2280TIP3    H128475   0.449   0.357   6.838 -0.9372 -0.0232  1.7196
 2280TIP3    H228476   0.329   0.265   6.835 -0.4844 -0.6210 -1.2411
 2281TIP3   OH228477   0.430   4.493   0.956 -0.4102 -0.1121 -0.5497
 2281TIP3    H128478   0.352   4.441   0.976  0.7244 -1.1591  1.5172
 2281TIP3    H228479   0.503   4.433   0.972  0.8629  0.7174 -2.7781
 2282TIP3   OH228480   5.094   5.770   6.803 -0.2821 -0.4924  0.3511
 2282TIP3    H128481   5.136   5.832   6.744 -0.3244 -1.9076 -1.2371
 2282TIP3    H228482   5.007   5.756   6.764 -0.0664 -1.9539  0.3554
 2283TIP3   OH228483   3.789   5.066   2.232  0.1415  0.0770  0.0686
 2283TIP3    H128484   3.717   5.052   2.295 -0.7660 -1.8534 -1.3058
 2283TIP3    H228485   3.830   4.980   2.223  0.2465  0.3100 -1.9731
 2284TIP3   OH228486   2.210   2.839   8.168  0.4055 -0.7810  0.2990
 2284TIP3    H128487   2.157   2.916   8.147  3.9342  1.8706  0.2434
 2284TIP3    H228488   2.291   2.850   8.118  2.2472 -3.0012  2.5091
 2285TIP3   OH228489   6.116   2.950   1.674  0.4605 -0.2224  0.5248
 2285TIP3    H128490   6.122   2.888   1.747  3.1837 -1.9047 -0.9580
 2285TIP3    H228491   6.119   3.036   1.715  0.5518 -1.0994  2.4746
 2286TIP3   OH228492   5.079   6.777   2.137  0.0783  0.0824  0.4716
 2286TIP3    H128493   5.009   6.713   2.123 -0.0754  0.5522 -1.0751
 2286TIP3    H228494   5.034   6.859   2.155  0.2357  0.3008 -0.1207
 2287TIP3   OH228495   5.503   3.984   1.923 -0.3201 -0.1460  0.0679
 2287TIP3    H128496   5.561   3.919   1.882 -1.0787 -1.6978  1.3201
 2287TIP3    H228497   5.515   3.970   2.017 -1.5154  0.6072  0.3488
 2288TIP3   OH228498   1.142   2.820   1.727  0.2087  0.2127  0.0969
 2288TIP3    H128499   1.229   2.848   1.754 -0.7262  1.4324  2.0898
 2288TIP3    H228500   1.135   2.729   1.756  0.4652  0.4335  0.8644
 2289TIP3   OH228501   1.545   0.343   2.337  0.1496 -0.4426  0.4215
 2289TIP3    H128502   1.623   0.396   2.352  1.2072 -2.2996  1.9765
 2289TIP3    H228503   1.568   0.287   2.262 -1.3244  1.8181 -1.8628
 2290TIP3   OH228504   0.610   1.730   1.155 -0.1879 -0.0588 -0.6957
 2290TIP3    H128505   0.627   1.771   1.071 -0.9526  1.6680 -0.0380
 2290TIP3    H228506   0.690   1.745   1.206 -0.8577  1.6266 -0.0902
 2291TIP3   OH228507   5.952   3.346   6.514 -0.8479 -0.3618 -0.1214
 2291TIP3    H128508   5.901   3.375   6.439  0.8880  0.0983 -1.1573
 2291TIP3    H228509   5.931   3.409   6.583 -2.4736 -0.8044 -0.1608
 2292TIP3   OH228510   5.617   3.232   0.749 -0.1103 -0.2349  0.4957
 2292TIP3    H128511   5.575   3.297   0.804  0.3662  0.3589  0.1690
 2292TIP3    H228512   5.711   3.247   0.762  0.0157  0.2522 -0.8591
 2293TIP3   OH228513   2.204   5.920   6.500  0.0962  0.1238  0.5226
 2293TIP3    H128514   2.119   5.961   6.516 -0.3360 -0.7015  0.3424
 2293TIP3    H228515   2.261   5.958   6.568 -0.1303  1.4769 -0.0083
 2294TIP3   OH228516   1.965   1.234   6.983 -0.0050 -1.0449  0.0619
 2294TIP3    H128517   1.975   1.141   6.964 -0.9885 -1.0281 -0.6286
 2294TIP3    H228518   1.987   1.278   6.900 -1.3460 -0.7855 -0.1815
 2295TIP3   OH228519   6.309   4.478   2.260 -0.2918 -0.3802  0.6168
 2295TIP3    H128520   6.216   4.493   2.248  0.0649  1.1815 -0.5884
 2295TIP3    H228521   6.317   4.442   2.348 -1.9310  0.5504  1.1853
 2296TIP3   OH228522   4.396   4.893   7.580  0.0389 -0.5865 -0.2587
 2296TIP3    H128523   4.447   4.858   7.508 -2.5225 -0.9943 -2.0241
 2296TIP3    H228524   4.412   4.834   7.653  2.3028 -0.4652 -0.6066
 2297TIP3   OH228525   2.359   1.473   0.482 -0.5637  0.6100 -0.1738
 2297TIP3    H128526   2.266   1.451   0.477 -0.4762  0.3204 -0.5694
 2297TIP3    H228527   2.396   1.412   0.545 -0.4947  0.2209 -0.5909
 2298TIP3   OH228528   6.754   1.753   0.621  0.1500 -0.0491  0.7678
 2298TIP3    H128529   6.792   1.741   0.534  0.2841 -0.4679  0.8847
 2298TIP3    H228530   6.772   1.845   0.642  0.7254 -0.1327  0.6433
 2299TIP3   OH228531   1.320   5.430   1.322  0.3519 -0.1868 -1.3018
 2299TIP3    H128532   1.293   5.428   1.230  1.8043  4.2283 -2.0757
 2299TIP3    H228533   1.241   5.458   1.369 -0.2266 -1.8603 -1.2048
 2300TIP3   OH228534   4.243   0.822   6.545  0.5593 -0.8412  0.4025
 2300TIP3    H128535   4.269   0.910   6.517  2.0068 -0.7199  1.9154
 2300TIP3    H228536   4.167   0.801   6.492  1.2798  0.5832 -1.2978
 2301TIP3   OH228537   6.253   1.199   1.591 -0.5449  0.4868  0.1436
 2301TIP3    H128538   6.186   1.256   1.553 -0.7955 -0.4692 -0.9063
 2301TIP3    H228539   6.203   1.127   1.631 -0.1598 -0.1753 -0.5505
 2302TIP3   OH228540   5.057   2.431   1.847  0.1651 -0.0262 -0.0549
 2302TIP3    H128541   5.005   2.508   1.867  2.8150  2.2469 -1.3047
 2302TIP3    H228542   5.147   2.456   1.866  1.0443 -3.3842  0.9710
 2303TIP3   OH228543   0.571   2.063   0.204  0.5396  0.2906  0.0890
 2303TIP3    H128544   0.524   2.138   0.241  0.2910 -0.6355  1.7056
 2303TIP3    H228545   0.646   2.102   0.160  0.0214  1.5396  0.2626
 2304TIP3   OH228546   4.442   6.806   7.850  0.1179 -0.2926  0.3750
 2304TIP3    H128547   4.528   6.773   7.873 -0.0840 -1.4989 -0.5240
 2304TIP3    H228548   4.460   6.882   7.794  0.6370 -1.3959 -1.0128
 2305TIP3   OH228549   1.322   2.401   1.392  0.5792  0.3391  0.4592
 2305TIP3    H128550   1.296   2.411   1.300  2.5712  1.4700 -0.0450
 2305TIP3    H228551   1.240   2.409   1.441 -0.7077 -1.3841 -1.2378
 2306TIP3   OH228552   2.701   2.582   8.445 -0.0238 -0.2111 -0.1501
 2306TIP3    H128553   2.663   2.506   8.489 -1.3569  0.1774 -0.6031
 2306TIP3    H228554   2.778   2.604   8.499 -0.3112 -1.1225  0.6736
 2307TIP3   OH228555   3.162   2.927   1.555 -0.1287 -0.2119 -0.1732
 2307TIP3    H128556   3.224   2.857   1.536 -0.4280 -0.5704  0.1408
 2307TIP3    H228557   3.111   2.894   1.629 -0.1896  0.3931  0.0570
 2308TIP3   OH228558   1.654   0.242   6.986 -0.5356  0.5749  0.0489
 2308TIP3    H128559   1.654   0.313   6.921 -2.0686  1.4368  0.9307
 2308TIP3    H228560   1.589   0.180   6.954 -1.6017  1.2055  0.9297
 2309TIP3   OH228561   4.125   5.244   7.058 -0.0767 -0.0294 -0.1109
 2309TIP3    H128562   4.157   5.208   7.141  0.9075 -1.4386 -1.0603
 2309TIP3    H228563   4.084   5.170   7.014 -1.7007  0.9854 -0.3936
 2310TIP3   OH228564   6.014   0.443   7.297  0.2523 -0.2059  0.1296
 2310TIP3    H128565   6.010   0.533   7.264 -0.8315 -0.5894 -0.8355
 2310TIP3    H228566   6.097   0.439   7.345  1.1206  0.8291 -1.2011
 2311TIP3   OH228567   4.592   6.624   1.049  0.8456  0.3292  0.9820
 2311TIP3    H128568   4.522   6.571   1.086  0.5837 -1.1200 -1.3957
 2311TIP3    H228569   4.551   6.706   1.025  0.5340  0.4306  1.8471
 2312TIP3   OH228570   5.279   5.896   0.282  0.0769  0.1295 -0.3163
 2312TIP3    H128571   5.210   5.851   0.235  0.6611 -0.0263 -1.0339
 2312TIP3    H228572   5.251   5.987   0.286 -0.0696  0.1027 -0.7857
 2313TIP3   OH228573   6.274   5.384   2.261 -0.2472 -0.1273 -0.3717
 2313TIP3    H128574   6.363   5.390   2.226  0.1013 -0.7313  0.3778
 2313TIP3    H228575   6.229   5.459   2.224  0.3029 -0.3288 -1.5237
 2314TIP3   OH228576   2.908   3.269   1.282  0.2108 -0.4550  0.2929
 2314TIP3    H128577   2.905   3.179   1.251 -0.0278 -0.0593 -0.8723
 2314TIP3    H228578   2.917   3.261   1.377  5.3362 -1.8077  0.0012
 2315TIP3   OH228579   2.468   3.988   1.400  0.4524  0.4082 -0.0125
 2315TIP3    H128580   2.541   3.925   1.398 -0.3308 -0.5220  0.1301
 2315TIP3    H228581   2.509   4.071   1.424  1.8649  0.4423 -2.2521
 2316TIP3   OH228582   3.468   5.212   1.214 -0.3098  0.4325  0.4527
 2316TIP3    H128583   3.547   5.266   1.203 -0.3820  0.1912 -1.5089
 2316TIP3    H228584   3.454   5.210   1.309  0.1722  3.1637  0.6669
 2317TIP3   OH228585   4.112   6.398   2.036  0.4979 -0.6902 -0.1240
 2317TIP3    H128586   4.175   6.349   1.984  1.2990  1.8211 -1.7161
 2317TIP3    H228587   4.130   6.490   2.015 -2.9324  0.2107  0.2178
 2318TIP3   OH228588   2.925   2.673   2.022 -0.1521 -0.4625 -0.7168
 2318TIP3    H128589   2.865   2.747   2.029  1.1390  0.6716 -1.1381
 2318TIP3    H228590   2.944   2.649   2.113 -0.1287  0.1262 -0.5613
 2319TIP3   OH228591   1.509   6.255   0.821  0.0880 -0.4916  0.3411
 2319TIP3    H128592   1.427   6.211   0.799 -1.5671  2.8244 -0.8225
 2319TIP3    H228593   1.544   6.283   0.737  0.1035  1.8501  1.0667
 2320TIP3   OH228594   5.706   2.706   1.053 -0.0837  0.3456 -0.6400
 2320TIP3    H128595   5.765   2.717   1.128  0.5529 -0.2594 -1.0396
 2320TIP3    H228596   5.695   2.795   1.018  0.6197  0.4640 -0.5723
 2321TIP3   OH228597   1.016   4.649   0.748  0.3229 -0.1207 -0.1778
 2321TIP3    H128598   0.953   4.694   0.805 -0.1344  0.2499 -0.9613
 2321TIP3    H228599   0.975   4.564   0.729 -0.3118  0.4044 -1.2819
 2322TIP3   OH228600   0.060   3.603   0.355 -0.0785  0.5793  0.4673
 2322TIP3    H128601   0.051   3.513   0.323  0.1537  0.6093  0.3135
 2322TIP3    H228602  -0.024   3.623   0.395  0.1333  0.0116  1.2150
 2323TIP3   OH228603   5.974   4.371   7.216  0.0570 -0.0582  0.6922
 2323TIP3    H128604   5.883   4.395   7.234 -0.4455 -2.0874  1.0778
 2323TIP3    H228605   5.977   4.357   7.122 -0.2079 -0.6436  0.7682
 2324TIP3   OH228606   3.160   5.397   7.800  0.8309  0.1996 -0.1128
 2324TIP3    H128607   3.196   5.443   7.723 -1.6408  1.1706 -0.7979
 2324TIP3    H228608   3.152   5.306   7.772  0.2236  0.4934 -0.9507
 2325TIP3   OH228609   2.526   5.677   0.185 -0.1901 -0.1423  0.0584
 2325TIP3    H128610   2.529   5.753   0.243 -1.2889  0.1555 -0.2666
 2325TIP3    H228611   2.539   5.602   0.244 -1.3648  0.1501  0.7127
 2326TIP3   OH228612   4.989   2.229   1.366 -0.4728  0.2710 -0.3361
 2326TIP3    H128613   4.924   2.285   1.407 -0.1406  1.5874 -1.5171
 2326TIP3    H228614   5.057   2.289   1.334  0.4369 -0.8977 -0.7018
 2327TIP3   OH228615   6.040   2.302   2.072 -0.8253 -0.2664 -0.2553
 2327TIP3    H128616   5.975   2.341   2.131 -1.7022 -1.8338 -0.1435
 2327TIP3    H228617   6.111   2.366   2.071 -0.5542 -0.3243  2.8652
 2328TIP3   OH228618   1.316   3.342   7.620 -0.9444  0.6206  0.5737
 2328TIP3    H128619   1.285   3.310   7.536 -4.0802  2.6550  0.8099
 2328TIP3    H228620   1.397   3.293   7.636 -1.4632 -1.4900 -2.4848
 2329TIP3   OH228621   1.735   0.347   0.927 -0.7726  0.1099 -0.0659
 2329TIP3    H128622   1.769   0.367   0.840  0.2297  1.8182  0.6716
 2329TIP3    H228623   1.640   0.352   0.917 -0.6911 -0.2776 -1.1741
 2330TIP3   OH228624   6.453   0.883   7.377  0.3302  0.4875 -0.0738
 2330TIP3    H128625   6.435   0.794   7.407  1.9655 -0.5749 -1.9924
 2330TIP3    H228626   6.424   0.884   7.286 -1.0442  2.4326  0.3109
 2331TIP3   OH228627   0.597   0.925   8.054 -0.6440 -0.3352  0.0111
 2331TIP3    H128628   0.564   0.896   8.139  1.1804 -0.3285  0.7579
 2331TIP3    H228629   0.541   0.999   8.031 -1.2780 -0.4561  1.1147
 2332TIP3   OH228630   4.292   2.928   7.189  0.1484 -0.5898 -0.2686
 2332TIP3    H128631   4.314   2.890   7.104  1.4858 -3.3080  1.1720
 2332TIP3    H228632   4.368   2.981   7.213 -0.4732  0.6603 -0.9697
 2333TIP3   OH228633   1.413   1.984   0.424 -0.2773  0.8468 -0.3109
 2333TIP3    H128634   1.370   1.930   0.491 -1.1813  1.2587 -0.5361
 2333TIP3    H228635   1.343   2.005   0.363  0.1809  1.8325 -0.5125
 2334TIP3   OH228636   1.709   4.902   7.936  0.2601 -0.0109  0.2412
 2334TIP3    H128637   1.704   4.807   7.936 -1.0007  0.0339 -0.9558
 2334TIP3    H228638   1.767   4.923   8.010  1.3197 -1.7219 -0.0569
 2335TIP3   OH228639   0.604   5.732   0.576  0.4068  0.0808  0.2167
 2335TIP3    H128640   0.694   5.758   0.554  0.1338  0.6139 -0.2840
 2335TIP3    H228641   0.588   5.769   0.662  0.7973 -0.3469  0.4807
 2336TIP3   OH228642   0.045   0.649   0.013 -0.4990 -0.3718  0.0043
 2336TIP3    H128643   0.076   0.559   0.017 -0.3663 -0.2780  1.7532
 2336TIP3    H228644   0.066   0.686   0.099  1.6063  2.0555 -1.3820
 2337TIP3   OH228645   3.828   2.450   7.664 -0.0274  1.1143 -0.4566
 2337TIP3    H128646   3.865   2.518   7.608 -0.9726  1.4077 -0.7425
 2337TIP3    H228647   3.805   2.379   7.604  1.5706  0.2331 -0.0851
 2338TIP3   OH228648   4.075   1.091   7.500 -0.3281 -0.2019 -0.1410
 2338TIP3    H128649   4.045   1.123   7.415 -0.0675 -0.1856 -0.2276
 2338TIP3    H228650   4.139   1.156   7.529 -0.0068 -0.4987 -0.1880
 2339TIP3   OH228651   2.782   1.118   0.023  0.1364 -0.3756 -0.0947
 2339TIP3    H128652   2.835   1.193   0.051  0.8480 -0.3731 -1.3922
 2339TIP3    H228653   2.793   1.054   0.093 -0.5215  0.7143  1.0667
 2340TIP3   OH228654   4.253   2.656   0.195 -0.0261  0.0791  0.1907
 2340TIP3    H128655   4.327   2.698   0.237  0.4088  0.1309 -0.5999
 2340TIP3    H228656   4.241   2.574   0.243  0.8219 -0.1287  0.0680
 2341TIP3   OH228657   1.466   4.584   1.814 -0.2092 -1.5662 -0.2107
 2341TIP3    H128658   1.426   4.575   1.728  0.0552 -2.7290 -0.2311
 2341TIP3    H228659   1.544   4.529   1.810  0.1920 -1.0772  0.5447
 2342TIP3   OH228660   1.965   1.729   1.846 -0.0747 -0.3922  0.6645
 2342TIP3    H128661   2.003   1.669   1.910  0.9772  0.5414  0.9360
 2342TIP3    H228662   1.911   1.789   1.898 -2.6059 -2.1041  0.2287
 2343TIP3   OH228663   0.723   2.530   0.275 -0.3958  0.4490 -0.0215
 2343TIP3    H128664   0.784   2.483   0.218  0.1128  1.5692 -0.4366
 2343TIP3    H228665   0.652   2.557   0.217 -0.6311  0.2906  0.1921
 2344TIP3   OH228666   4.670   1.450   7.862  0.0114  0.6077  0.0691
 2344TIP3    H128667   4.593   1.395   7.847  0.7414  0.1930 -2.6447
 2344TIP3    H228668   4.744   1.389   7.857  0.7270  1.5320 -1.1458
 2345TIP3   OH228669   6.610   5.225   0.459 -0.2051 -0.0423  0.1732
 2345TIP3    H128670   6.691   5.252   0.501  1.0068 -0.0094 -2.0425
 2345TIP3    H228671   6.618   5.131   0.449 -1.1473 -0.2661  1.2656
 2346TIP3   OH228672   5.297   4.167   7.125  0.4750  0.4612 -0.1180
 2346TIP3    H128673   5.262   4.090   7.170 -1.7630  1.1994 -0.4751
 2346TIP3    H228674   5.290   4.145   7.032 -2.0997  1.7838 -0.3117
 2347TIP3   OH228675   3.136   3.716   7.173 -0.3450 -0.1895 -0.3644
 2347TIP3    H128676   3.217   3.678   7.208 -0.4253 -1.4662 -1.4873
 2347TIP3    H228677   3.165   3.786   7.114 -0.1783  1.1993  1.2932
 2348TIP3   OH228678   4.219   4.880   8.510 -0.3150 -0.2246  0.5692
 2348TIP3    H128679   4.165   4.804   8.533  0.9885 -0.6823  2.4430
 2348TIP3    H228680   4.269   4.852   8.434 -1.8249 -0.2123 -0.4569
 2349TIP3   OH228681   0.236   5.421   8.409  0.3000 -0.2840 -0.1064
 2349TIP3    H128682   0.205   5.480   8.477  3.0081  1.3517 -0.1288
 2349TIP3    H228683   0.204   5.459   8.327 -0.4529 -0.5469  0.0649
 2350TIP3   OH228684   6.677   2.183   1.036 -0.6172  0.3081  0.4992
 2350TIP3    H128685   6.707   2.257   0.983 -1.5772 -0.5686 -1.3445
 2350TIP3    H228686   6.615   2.222   1.098 -1.6617  0.9716 -0.9237
 2351TIP3   OH228687   3.818   0.173   1.222 -0.1952 -0.0048  0.0884
 2351TIP3    H128688   3.802   0.247   1.163 -0.5507  1.1677  1.5606
 2351TIP3    H228689   3.733   0.131   1.231 -0.0949 -0.3143 -0.3873
 2352TIP3   OH228690   2.020   5.018   7.434  0.5832  0.3095  0.7517
 2352TIP3    H128691   2.093   5.016   7.497  0.7108 -1.7525  0.6238
 2352TIP3    H228692   2.062   5.008   7.349  0.3026  1.6610  0.4341
 2353TIP3   OH228693   2.944   2.823   1.278 -0.2709  0.0254 -0.7114
 2353TIP3    H128694   2.917   2.914   1.263  0.0096 -0.0761 -1.9631
 2353TIP3    H228695   2.935   2.782   1.192  2.3924 -0.3886 -0.8700
 2354TIP3   OH228696   3.774   6.205   0.625 -0.4401  0.5675  0.5014
 2354TIP3    H128697   3.736   6.289   0.600  0.0185  0.4328 -0.7662
 2354TIP3    H228698   3.700   6.145   0.628 -0.4621  0.4370 -1.3430
 2355TIP3   OH228699   6.253   5.712   7.906 -0.1598  0.1473  0.2004
 2355TIP3    H128700   6.348   5.706   7.914 -0.1662 -0.2524 -0.0049
 2355TIP3    H228701   6.222   5.623   7.926 -0.4512  0.1380 -0.2935
 2356TIP3   OH228702   2.641   2.643   0.815 -0.0884 -0.7250  0.7172
 2356TIP3    H128703   2.592   2.570   0.853 -1.2795 -0.9129 -1.0471
 2356TIP3    H228704   2.691   2.604   0.743 -1.0048  0.2207 -0.4661
 2357TIP3   OH228705   1.400   0.102   0.382  0.1267 -0.2218  0.0175
 2357TIP3    H128706   1.305   0.091   0.379 -0.1781  2.0081 -2.4851
 2357TIP3    H228707   1.423   0.087   0.474 -2.9631  1.2614  1.1791
 2358TIP3   OH228708   4.643   4.084   7.991  0.0941 -0.1688 -0.1655
 2358TIP3    H128709   4.553   4.061   8.011 -0.7522  2.1971 -0.8631
 2358TIP3    H228710   4.653   4.173   8.024  1.0098  0.9682 -3.1585
 2359TIP3   OH228711   1.956   6.040   6.592  0.1732  0.1631 -0.5406
 2359TIP3    H128712   1.865   6.067   6.608 -0.8400 -2.3543 -1.5565
 2359TIP3    H228713   1.999   6.051   6.677 -1.8981 -1.4476  0.8357
 2360TIP3   OH228714   0.904   4.911   0.174  0.2093  0.0366 -0.1456
 2360TIP3    H128715   0.816   4.912   0.138 -0.1022 -0.9146  0.5418
 2360TIP3    H228716   0.892   4.886   0.266  1.2089 -0.3597 -0.1141
 2361TIP3   OH228717   3.032   2.671   0.304 -0.3085  0.3577 -0.3307
 2361TIP3    H128718   3.032   2.757   0.346 -0.7039 -0.0042  0.4178
 2361TIP3    H228719   3.070   2.687   0.217  0.2913  1.1541  0.0641
 2362TIP3   OH228720   6.802   3.316   8.241  0.3964 -0.1092 -0.5095
 2362TIP3    H128721   6.843   3.392   8.282  0.0687 -0.5912  0.7503
 2362TIP3    H228722   6.723   3.300   8.292  1.4927 -2.5304  0.6418
 2363TIP3   OH228723   3.186   5.562   2.528  0.2816 -0.0715  0.4475
 2363TIP3    H128724   3.101   5.604   2.530 -0.1184 -0.7911 -0.4329
 2363TIP3    H228725   3.177   5.493   2.462  1.1218 -1.0690  1.3395
 2364TIP3   OH228726   2.592   2.539   1.979 -0.2669 -0.5371 -0.3276
 2364TIP3    H128727   2.661   2.507   2.037 -2.3440 -0.9107  2.1456
 2364TIP3    H228728   2.563   2.462   1.931  1.8556 -0.1199 -2.4722
 2365TIP3   OH228729   5.473   2.737   2.143 -0.0556 -0.1695  0.1187
 2365TIP3    H128730   5.403   2.751   2.207  0.6857  2.5190  0.4472
 2365TIP3    H228731   5.486   2.642   2.143 -1.4264 -0.4380  2.4886
 2366TIP3   OH228732   3.217   4.438   8.575  0.2472 -0.4881 -0.0835
 2366TIP3    H128733   3.228   4.435   8.480 -1.1205  1.4293 -0.3504
 2366TIP3    H228734   3.260   4.520   8.602 -1.6890  0.3787  0.5447
 2367TIP3   OH228735   1.091   1.670   0.332 -0.0389 -0.0739  0.0381
 2367TIP3    H128736   1.143   1.710   0.263 -1.0251  2.1106  0.4707
 2367TIP3    H228737   1.087   1.577   0.309  1.4795  0.2226 -1.6115
 2368TIP3   OH228738   4.122   4.583   8.155 -0.1375 -0.3400  0.4470
 2368TIP3    H128739   4.187   4.610   8.220 -0.9035 -2.0348  2.0060
 2368TIP3    H228740   4.057   4.534   8.205 -0.7329 -1.7833 -1.5980
 2369TIP3   OH228741   2.149   1.603   2.029 -0.1368 -0.1601 -0.2954
 2369TIP3    H128742   2.231   1.648   2.008 -0.1571 -0.5650 -1.3309
 2369TIP3    H228743   2.176   1.513   2.049  0.0186  0.4633  2.7543
 2370TIP3   OH228744   0.397   2.283   0.344 -0.2368 -0.4150  0.0254
 2370TIP3    H128745   0.349   2.200   0.352 -0.3479 -0.3864 -0.3304
 2370TIP3    H228746   0.334   2.344   0.306 -0.3377  0.0007  0.8431
 2371TIP3   OH228747   1.647   3.827   6.662  0.1120  0.0073 -0.2734
 2371TIP3    H128748   1.708   3.814   6.589  0.5695  0.2180  0.0627
 2371TIP3    H228749   1.570   3.775   6.639  0.8461 -1.1441 -0.2062
 2372TIP3   OH228750   4.984   3.594   6.497  0.3885  0.1014 -0.3656
 2372TIP3    H128751   5.063   3.577   6.445 -0.9479 -0.9524 -2.1675
 2372TIP3    H228752   4.983   3.526   6.564  0.0956 -1.0252 -1.4859
 2373TIP3   OH228753   4.258   6.773   7.153  0.4424 -0.1037 -0.5777
 2373TIP3    H128754   4.303   6.718   7.088  1.0070  0.0846 -0.3588
 2373TIP3    H228755   4.328   6.801   7.212 -0.1391 -0.6803  0.4157
 2374TIP3   OH228756   1.864   4.945   7.714 -0.3855 -0.2383 -0.2391
 2374TIP3    H128757   1.814   4.872   7.678  0.3299 -1.5048  1.2325
 2374TIP3    H228758   1.816   4.969   7.794 -1.2078  1.6472 -1.2260
 2375TIP3   OH228759   0.202   3.833   0.267  0.7263  0.5245 -0.5270
 2375TIP3    H128760   0.140   3.875   0.208  1.1905  0.6232 -0.9550
 2375TIP3    H228761   0.168   3.850   0.355  0.1852  0.6279 -0.7555
 2376TIP3   OH228762   3.802   0.483   2.178 -0.8250 -0.1930 -0.6147
 2376TIP3    H128763   3.721   0.481   2.229 -0.9786  1.1383 -0.7756
 2376TIP3    H228764   3.806   0.571   2.142  2.6226  1.1934  2.4792
 2377TIP3   OH228765   5.754   6.851   0.937  0.2904 -0.3998  0.1249
 2377TIP3    H128766   5.834   6.799   0.939  0.6004  0.0607 -0.2259
 2377TIP3    H228767   5.697   6.806   0.874  0.2106 -0.8094  0.4836
 2378TIP3   OH228768   3.689   2.055   0.808  0.4034 -0.0782 -0.2419
 2378TIP3    H128769   3.744   1.996   0.859 -0.9950 -1.4614 -0.2318
 2378TIP3    H228770   3.720   2.045   0.718  0.8038 -0.0995 -0.1017
 2379TIP3   OH228771   1.898   2.919   7.438  0.0578  0.1194  0.1636
 2379TIP3    H128772   1.855   2.992   7.392 -0.6848  0.0862  0.7680
 2379TIP3    H228773   1.982   2.909   7.394 -0.9587 -0.4861 -1.7613
 2380TIP3   OH228774   2.678   3.043   7.113  0.1707 -0.5914  0.1613
 2380TIP3    H128775   2.728   2.984   7.056  1.9903  0.0272  1.0529
 2380TIP3    H228776   2.738   3.114   7.133 -1.3265  0.5647  0.7343
 2381TIP3   OH228777   5.720   6.796   8.496 -0.0250  0.0282  0.0382
 2381TIP3    H128778   5.717   6.804   8.401 -0.3125  0.0293  0.0463
 2381TIP3    H228779   5.695   6.705   8.513  0.2081 -0.0233  0.1029
 2382TIP3   OH228780   5.265   2.093   1.899  0.2367  0.1443 -0.3626
 2382TIP3    H128781   5.227   2.036   1.966  0.3199  0.1513 -0.3090
 2382TIP3    H228782   5.266   2.038   1.820  0.6652 -0.0587 -0.2192
 2383TIP3   OH228783   4.228   0.721   1.146 -0.6806 -0.3308 -0.9033
 2383TIP3    H128784   4.184   0.636   1.150  0.6895 -1.0263  0.3762
 2383TIP3    H228785   4.238   0.748   1.237  1.4891 -0.2251 -1.1178
 2384TIP3   OH228786   3.314   2.168   0.245  0.0790 -0.3592 -0.9165
 2384TIP3    H128787   3.261   2.240   0.210 -2.2293 -1.5141 -0.0202
 2384TIP3    H228788   3.331   2.192   0.336 -1.5732 -1.2922 -0.2996
 2385TIP3   OH228789   6.471   0.530   0.915 -0.3705  0.3495  0.2856
 2385TIP3    H128790   6.532   0.543   0.843 -0.8768  2.4519  0.1713
 2385TIP3    H228791   6.426   0.614   0.924 -1.9653 -0.5698  1.5442
 2386TIP3   OH228792   0.879   4.829   6.782  0.4508 -0.1161  0.6111
 2386TIP3    H128793   0.812   4.894   6.762  0.1968 -0.0690  1.5541
 2386TIP3    H228794   0.859   4.755   6.725  0.2181  0.3003  0.1513
 2387TIP3   OH228795   1.759   0.913   1.760 -0.0645 -0.1025  0.2618
 2387TIP3    H128796   1.735   0.986   1.703  1.0507 -0.5306 -0.7952
 2387TIP3    H228797   1.845   0.885   1.728  0.4049 -0.6463  1.8790
 2388TIP3   OH228798   1.791   0.162   1.793  0.3907  0.2313  0.2915
 2388TIP3    H128799   1.697   0.159   1.774  0.4576 -1.5907  0.0906
 2388TIP3    H228800   1.833   0.158   1.707  0.6575  0.7436  0.3962
 2389TIP3   OH228801   2.318   2.056   8.122  1.0353 -0.0793 -0.2745
 2389TIP3    H128802   2.413   2.062   8.111  1.1464 -0.5429  0.4228
 2389TIP3    H228803   2.305   1.988   8.187  0.2269  0.1248 -0.2101
 2390TIP3   OH228804   1.031   0.428   7.477  0.2659 -0.1319  0.2859
 2390TIP3    H128805   1.002   0.507   7.522  0.5046  0.6118 -0.8189
 2390TIP3    H228806   0.989   0.356   7.524 -1.2861  0.7546  0.3006
 2391TIP3   OH228807   0.258   5.099   0.462  0.1776 -0.3100  0.1585
 2391TIP3    H128808   0.261   5.083   0.367  0.9908 -0.4252  0.1915
 2391TIP3    H228809   0.201   5.176   0.472  0.0594 -0.3195 -0.4214
 2392TIP3   OH228810   3.093   6.112   7.443 -0.0156  0.2605 -0.0321
 2392TIP3    H128811   3.081   6.020   7.420 -0.8731  0.5143 -0.6415
 2392TIP3    H228812   3.187   6.126   7.438  0.2120 -0.7886  0.8952
 2393TIP3   OH228813   0.493   1.462   1.129 -0.5376  0.1113  0.5007
 2393TIP3    H128814   0.469   1.431   1.216 -1.8052  0.4034  0.2713
 2393TIP3    H228815   0.541   1.544   1.146 -1.6718  0.7179  0.9039
 2394TIP3   OH228816   0.307   0.842   0.503 -0.4957 -0.1956  0.1680
 2394TIP3    H128817   0.280   0.760   0.545 -0.4497 -0.5633 -0.5140
 2394TIP3    H228818   0.261   0.910   0.553  0.7613 -0.4818  1.8199
 2395TIP3   OH228819   5.626   0.457   0.257  0.2165  0.4810  0.4444
 2395TIP3    H128820   5.707   0.499   0.286  2.9241 -0.9624 -3.9633
 2395TIP3    H228821   5.648   0.364   0.248 -2.0542 -0.0465 -0.5152
 2396TIP3   OH228822   1.087   2.104   1.460  0.4566 -0.2524 -0.4555
 2396TIP3    H128823   1.141   2.130   1.386  0.7794  1.0463  0.2132
 2396TIP3    H228824   1.008   2.068   1.420  0.1555  1.4010 -1.4465
 2397TIP3   OH228825   1.495   0.019   1.532 -0.2721  0.2403 -0.0009
 2397TIP3    H128826   1.451   0.089   1.484 -3.4805 -0.1710  2.0727
 2397TIP3    H228827   1.544   0.064   1.601 -0.0504  0.5485 -0.3540
 2398TIP3   OH228828   4.051   5.671   1.374  0.0213  0.0080  0.3524
 2398TIP3    H128829   4.090   5.742   1.424  0.1213 -0.2294  0.6143
 2398TIP3    H228830   3.989   5.714   1.315  0.7954  0.4036 -0.1850
 2399TIP3   OH228831   0.705   6.356   8.443  0.3588 -0.1075 -0.5291
 2399TIP3    H128832   0.754   6.425   8.398  1.2765 -1.0433 -0.9912
 2399TIP3    H228833   0.614   6.385   8.439  0.3662 -0.2031 -3.1505
 2400TIP3   OH228834   2.254   3.617   1.739  0.2597 -0.0933 -0.1122
 2400TIP3    H128835   2.178   3.671   1.716  1.2686  1.1093 -0.7061
 2400TIP3    H228836   2.318   3.679   1.773  1.7329 -0.8152 -1.4856
 2401TIP3   OH228837   6.077   0.904   7.422  0.1594 -0.2020  0.1618
 2401TIP3    H128838   6.157   0.902   7.475  1.0849  0.1246 -1.1629
 2401TIP3    H228839   6.033   0.985   7.448  1.8531  1.2493 -1.2833
 2402TIP3   OH228840   6.176   2.121   0.495  0.4914 -0.2591  0.2077
 2402TIP3    H128841   6.221   2.055   0.443  0.8336 -2.0665  2.5921
 2402TIP3    H228842   6.244   2.154   0.555 -0.5728 -0.6379  1.6655
 2403TIP3   OH228843   0.345   4.242   0.354  0.1924  0.1828 -0.2402
 2403TIP3    H128844   0.390   4.160   0.334 -0.0416 -0.0201  0.0492
 2403TIP3    H228845   0.304   4.268   0.272 -0.3109 -0.3556 -0.1630
 2404TIP3   OH228846   5.624   4.535   7.539 -0.3106  0.6198 -0.1387
 2404TIP3    H128847   5.541   4.582   7.531 -1.3646 -1.2901 -0.8423
 2404TIP3    H228848   5.618   4.490   7.623  0.2199  0.8337  0.0172
 2405TIP3   OH228849   0.858   0.010   8.435  0.0064  0.0011 -0.1465
 2405TIP3    H128850   0.877   0.019   8.342 -0.8931  0.2456 -0.3093
 2405TIP3    H228851   0.878  -0.081   8.455  0.2717 -0.0332 -0.5560
 2406TIP3   OH228852   2.440   3.995   7.811 -0.3240 -0.6100  0.1324
 2406TIP3    H128853   2.523   3.967   7.851 -1.5955 -0.1124  3.5179
 2406TIP3    H228854   2.402   3.915   7.776  1.6094 -0.8062 -1.6949
 2407TIP3   OH228855   4.028   0.091   1.085 -0.3630  0.4263 -0.4280
 2407TIP3    H128856   3.951   0.099   1.141 -1.0825 -1.0706 -1.1583
 2407TIP3    H228857   4.100   0.076   1.146 -1.1247 -1.1122  0.1517
 2408TIP3   OH228858   1.740   2.197   6.919 -0.1336 -0.1440 -0.1180
 2408TIP3    H128859   1.667   2.135   6.914  1.1495 -1.6169 -1.8914
 2408TIP3    H228860   1.814   2.145   6.950  0.3970  1.1412  0.8881
 2409TIP3   OH228861   2.051   5.503   1.300 -0.2270 -0.0160  0.0611
 2409TIP3    H128862   2.073   5.589   1.336 -0.7030  0.1480 -0.0335
 2409TIP3    H228863   2.073   5.442   1.369 -1.0739  0.2906  0.6251
 2410TIP3   OH228864   4.700   6.335   2.280 -0.6139 -0.2060 -0.6728
 2410TIP3    H128865   4.769   6.386   2.322 -0.5115 -0.2552 -0.7830
 2410TIP3    H228866   4.677   6.386   2.202 -1.2164  0.1920 -0.2448
 2411TIP3   OH228867   4.282   4.424   1.171  0.2160 -0.1678  0.3883
 2411TIP3    H128868   4.207   4.482   1.188  1.3025  0.6751  2.8251
 2411TIP3    H228869   4.265   4.347   1.226  0.3059 -0.7932 -0.4354
 2412TIP3   OH228870   3.136   4.779   6.964  0.7354  0.2030 -0.3021
 2412TIP3    H128871   3.110   4.696   6.923 -1.1518 -0.5450  2.1250
 2412TIP3    H228872   3.103   4.846   6.905 -2.0372 -0.8050 -0.0842
 2413TIP3   OH228873   4.201   6.254   7.581 -0.2844  0.1544 -0.1944
 2413TIP3    H128874   4.130   6.236   7.644  0.5784 -0.3173  0.6633
 2413TIP3    H228875   4.237   6.338   7.610 -1.3265  1.0690 -1.4323
 2414TIP3   OH228876   0.084   0.625   7.900 -0.1858  0.0177  0.3783
 2414TIP3    H128877   0.074   0.677   7.980 -1.6044  0.9405 -0.3587
 2414TIP3    H228878  -0.004   0.592   7.882  0.2607 -0.7679 -0.4057
 2415TIP3   OH228879   3.181   2.880   0.998 -0.3087  0.0152  0.1600
 2415TIP3    H128880   3.226   2.842   1.074  0.3217 -0.2322 -0.3337
 2415TIP3    H228881   3.250   2.900   0.936 -0.3443  3.6022  1.0117
 2416TIP3   OH228882   3.763   6.634   1.277 -0.3373  0.4156 -0.2410
 2416TIP3    H128883   3.762   6.723   1.311  0.2451  1.0403 -1.7811
 2416TIP3    H228884   3.774   6.644   1.183  0.9957 -1.2932 -0.3284
 2417TIP3   OH228885   6.020   1.820   1.944 -0.0829 -0.2852  0.0243
 2417TIP3    H128886   5.945   1.860   1.900  0.0992 -1.2868 -1.2466
 2417TIP3    H228887   5.989   1.734   1.971  0.8562 -1.1199 -1.4111
 2418TIP3   OH228888   4.261   6.701   0.353 -0.1961  0.5725 -0.6121
 2418TIP3    H128889   4.294   6.618   0.389 -1.5532  0.1562 -0.2713
 2418TIP3    H228890   4.328   6.765   0.376  0.3752 -0.2326  0.0480
 2419TIP3   OH228891   0.679   2.446   7.456  0.2001 -0.5104  0.2801
 2419TIP3    H128892   0.676   2.541   7.471  1.9059 -0.3123 -0.3513
 2419TIP3    H228893   0.688   2.438   7.361  3.9662 -1.0634  0.5235
 2420TIP3   OH228894   3.970   4.689   6.768  0.6390 -0.5178 -0.3499
 2420TIP3    H128895   3.998   4.615   6.823 -0.7866 -1.3294 -0.6621
 2420TIP3    H228896   3.951   4.650   6.683 -2.4440 -0.3099  0.1062
 2421TIP3   OH228897   4.588   3.004   7.834  0.2235 -0.2678 -0.5705
 2421TIP3    H128898   4.674   2.967   7.857 -0.5884 -1.1517  1.2471
 2421TIP3    H228899   4.527   2.932   7.847 -0.7267  0.0529 -2.8106
 2422TIP3   OH228900   2.406   2.584   2.667 -0.6341 -0.2947  0.3869
 2422TIP3    H128901   2.359   2.656   2.625  2.0332  1.3693  0.0744
 2422TIP3    H228902   2.492   2.619   2.687  0.5291 -3.1859  0.9805
 2423TIP3   OH228903   1.776   2.977   6.751 -0.1927  0.7159  0.0433
 2423TIP3    H128904   1.725   3.015   6.822 -1.2661 -0.9030  0.1775
 2423TIP3    H228905   1.717   2.914   6.709  1.3012 -0.3637 -0.5371
 2424TIP3   OH228906   1.611   6.581   0.470  0.3398  0.2239  0.4032
 2424TIP3    H128907   1.624   6.535   0.387 -3.7019  3.7543 -2.6237
 2424TIP3    H228908   1.663   6.661   0.462  0.1114  0.4920  1.4393
 2425TIP3   OH228909   4.249   2.782   1.474 -0.3901 -0.4483  0.2886
 2425TIP3    H128910   4.221   2.754   1.561 -0.4785 -0.8637  0.1302
 2425TIP3    H228911   4.284   2.703   1.433  2.0549  0.2560  0.8578
 2426TIP3   OH228912   0.274   2.760   8.521 -0.0605 -0.4528  0.0738
 2426TIP3    H128913   0.222   2.833   8.485  0.5603  0.0704  0.2221
 2426TIP3    H228914   0.279   2.697   8.449 -0.0846 -0.0726 -0.2646
 2427TIP3   OH228915   3.559   2.437   8.387 -0.4690 -0.1255 -0.3436
 2427TIP3    H128916   3.608   2.366   8.428 -1.1567 -1.2699 -1.4517
 2427TIP3    H228917   3.573   2.426   8.293 -0.0663  1.6089 -0.5269
 2428TIP3   OH228918   4.452   5.032   2.128  0.1073  0.2580  0.1725
 2428TIP3    H128919   4.372   5.001   2.085 -0.3952  0.4652  0.9397
 2428TIP3    H228920   4.421   5.088   2.200  0.9244  0.0148  0.7332
 2429TIP3   OH228921   1.236   2.268   8.289  0.3106  1.0320  0.5280
 2429TIP3    H128922   1.319   2.220   8.294 -0.2242  0.0928  0.6832
 2429TIP3    H228923   1.224   2.286   8.196  1.2253  2.1645  0.6124
 2430TIP3   OH228924   5.923   5.973   0.953 -0.0665 -0.4970  0.7430
 2430TIP3    H128925   5.918   5.901   1.016 -0.3124 -2.1450 -1.0771
 2430TIP3    H228926   5.952   5.932   0.872 -3.7854  0.7004 -1.4097
 2431TIP3   OH228927   5.119   6.548   7.217  0.0982  0.1035 -0.3345
 2431TIP3    H128928   5.153   6.636   7.234  2.1255 -0.3999 -1.4916
 2431TIP3    H228929   5.024   6.557   7.228  0.3733  2.0606  1.0430
 2432TIP3   OH228930   6.180   2.950   6.322 -0.0096 -0.0171  0.2317
 2432TIP3    H128931   6.256   2.941   6.380  1.0232 -1.6111 -1.2675
 2432TIP3    H228932   6.110   2.903   6.367  1.1430 -2.4378 -0.3334
 2433TIP3   OH228933   5.043   3.959   1.056  0.0911  0.2102  0.2577
 2433TIP3    H128934   4.977   4.026   1.076  1.4793  1.7978 -0.1970
 2433TIP3    H228935   5.127   4.001   1.078  0.9777 -1.7678  0.9099
 2434TIP3   OH228936   4.649   3.896   0.379  0.3034 -0.5418  0.5697
 2434TIP3    H128937   4.705   3.844   0.436 -0.5500 -0.2594  1.7110
 2434TIP3    H228938   4.576   3.838   0.356  1.3409 -1.1430 -1.4838
 2435TIP3   OH228939   2.524   4.037   1.004  0.2240 -0.2334 -0.2799
 2435TIP3    H128940   2.502   4.103   1.069  0.3402 -1.1548  0.7399
 2435TIP3    H228941   2.557   3.963   1.055 -0.1818 -1.1956 -1.3470
 2436TIP3   OH228942   3.775   0.076   7.238 -0.1119 -0.2167  0.1702
 2436TIP3    H128943   3.685   0.045   7.224 -0.0174 -0.2506 -0.4132
 2436TIP3    H228944   3.828  -0.004   7.231 -0.1619 -0.4437  2.0342
 2437TIP3   OH228945   2.720   4.748   0.842  0.2866 -0.2349  0.5912
 2437TIP3    H128946   2.653   4.767   0.776 -1.0138  0.5974  2.0620
 2437TIP3    H228947   2.705   4.656   0.865  0.8569 -0.5791 -0.3586
 2438TIP3   OH228948   1.491   2.049   6.865  0.6397  0.1370 -0.7458
 2438TIP3    H128949   1.492   2.108   6.791 -0.9182 -0.1408 -1.0300
 2438TIP3    H228950   1.489   1.961   6.826  2.0452 -0.1016 -0.3388
 2439TIP3   OH228951   4.886   3.981   6.676 -0.4883  0.0581 -0.3572
 2439TIP3    H128952   4.913   4.061   6.630  0.9757 -0.1464  0.1197
 2439TIP3    H228953   4.790   3.987   6.679 -0.4037  1.7833 -0.3351
 2440TIP3   OH228954   2.629   3.763   6.229  0.2084 -0.4319 -0.1255
 2440TIP3    H128955   2.677   3.846   6.229  0.6695 -0.6835 -0.9185
 2440TIP3    H228956   2.696   3.696   6.212 -0.4001 -0.7989 -1.2015
 2441TIP3   OH228957   2.009   3.626   1.317  0.1741 -0.0938 -0.0087
 2441TIP3    H128958   1.999   3.717   1.288 -0.4689 -0.2629 -0.3305
 2441TIP3    H228959   2.099   3.603   1.294 -0.3845 -0.3149 -2.1885
 2442TIP3   OH228960   6.534   1.023   7.979  0.1353 -0.3448  0.3150
 2442TIP3    H128961   6.456   1.045   7.928  2.0516  2.3925 -1.8330
 2442TIP3    H228962   6.508   1.034   8.070 -2.0743  0.1397 -0.3207
 2443TIP3   OH228963   4.710   4.881   6.336 -0.2780 -0.4823 -0.1430
 2443TIP3    H128964   4.672   4.803   6.295  0.0804  0.8447 -3.3314
 2443TIP3    H228965   4.791   4.850   6.377 -0.9158 -2.0069  0.0592
 2444TIP3   OH228966   5.425   0.707   7.276 -0.1764 -0.5640 -0.1846
 2444TIP3    H128967   5.509   0.662   7.264 -0.0808 -0.8307  1.3165
 2444TIP3    H228968   5.361   0.650   7.233  0.3935 -0.3447 -1.3607
 2445TIP3   OH228969   1.377   4.003   1.247  0.2663  0.1763 -0.1045
 2445TIP3    H128970   1.347   4.011   1.337 -0.3067 -1.6057 -0.0947
 2445TIP3    H228971   1.472   4.008   1.253  0.1630  2.7647  0.2388
 2446TIP3   OH228972   1.389   5.256   7.902 -0.4289  0.6809  0.7767
 2446TIP3    H128973   1.458   5.191   7.888 -2.8883 -1.5637 -2.3578
 2446TIP3    H228974   1.376   5.258   7.997  2.5102 -0.2686  1.2965
 2447TIP3   OH228975   2.802   3.646   0.596 -0.0864  0.1537 -0.0933
 2447TIP3    H128976   2.773   3.682   0.680 -0.1368  0.2719 -0.1613
 2447TIP3    H228977   2.725   3.654   0.539 -0.0983 -0.0607 -0.1094
 2448TIP3   OH228978   0.226   6.893   0.113  1.0328  0.3179 -0.1118
 2448TIP3    H128979   0.162   6.957   0.082 -1.4114 -1.4744  0.8526
 2448TIP3    H228980   0.278   6.940   0.178  0.5222  1.7641 -0.7110
 2449TIP3   OH228981   0.709   3.839   7.137  0.1985  0.0161 -0.3382
 2449TIP3    H128982   0.660   3.821   7.057  1.3654  0.6694 -1.2217
 2449TIP3    H228983   0.797   3.862   7.107  0.4429  1.0552  1.0715
 2450TIP3   OH228984   2.010   1.917   0.772  0.1075 -0.0920  0.4977
 2450TIP3    H128985   2.051   1.929   0.857 -0.0723  1.9456  0.3339
 2450TIP3    H228986   1.959   1.997   0.758  0.1629 -0.3629 -1.5391
 2451TIP3   OH228987   5.332   6.117   0.802  0.6099  0.6233  0.2096
 2451TIP3    H128988   5.349   6.126   0.708  1.7194 -1.2292  0.1804
 2451TIP3    H228989   5.244   6.150   0.814  0.0276 -0.1115 -1.6958
 2452TIP3   OH228990   1.566   1.735   7.255 -0.7892  0.2349  0.5544
 2452TIP3    H128991   1.647   1.777   7.229 -0.2520 -0.0724  1.7079
 2452TIP3    H228992   1.533   1.695   7.174 -0.6121  1.6685 -0.2510
 2453TIP3   OH228993   3.897   4.734   7.536  0.4211 -0.2051 -0.0555
 2453TIP3    H128994   3.907   4.829   7.530 -0.7051  0.0207  1.0608
 2453TIP3    H228995   3.947   4.700   7.462  0.0589  1.3027 -1.0525
 2454TIP3   OH228996   4.156   5.499   6.945 -0.6188  0.4752 -0.1753
 2454TIP3    H128997   4.129   5.407   6.935 -1.3113  0.7237 -0.7101
 2454TIP3    H228998   4.181   5.507   7.037  0.9370 -0.6264 -0.4601
 2455TIP3   OH228999   4.302   1.429   6.480 -0.5447  0.0390  0.0882
 2455TIP3    H129000   4.236   1.405   6.545  1.1603 -0.1188  1.8578
 2455TIP3    H229001   4.281   1.519   6.457 -1.7801 -0.2329  0.0813
 2456TIP3   OH229002   1.433   1.998   1.147 -0.6568 -0.4258 -0.1100
 2456TIP3    H129003   1.451   2.068   1.084 -1.1959  1.1054  1.3589
 2456TIP3    H229004   1.491   1.926   1.121 -0.4097  0.3784 -1.9369
 2457TIP3   OH229005   6.895   2.608   7.840 -0.1509  0.3521  0.2310
 2457TIP3    H129006   6.874   2.700   7.820 -0.0764  0.5753  1.1329
 2457TIP3    H229007   6.834   2.558   7.787 -2.4737  0.9718  2.1184
 2458TIP3   OH229008   5.792   4.764   8.415  0.0275  0.5628  0.2234
 2458TIP3    H129009   5.779   4.822   8.490  0.7292 -0.1796  0.9421
 2458TIP3    H229010   5.705   4.755   8.376 -0.0913  2.0993  0.0760
 2459TIP3   OH229011   4.734   3.719   8.247  0.4404 -0.6594  0.6402
 2459TIP3    H129012   4.800   3.660   8.284  0.7364 -0.5359  0.3040
 2459TIP3    H229013   4.695   3.669   8.175  1.8002  0.1326 -0.6975
 2460TIP3   OH229014   4.508   1.198   1.533 -0.0980  0.8042  0.3819
 2460TIP3    H129015   4.487   1.285   1.499  0.3905  0.3616 -1.1108
 2460TIP3    H229016   4.582   1.213   1.593  1.1854  1.2089 -1.2432
 2461TIP3   OH229017   2.820   2.902   8.525 -0.5811  0.0113  0.4487
 2461TIP3    H129018   2.859   2.972   8.578  1.2075  0.0312 -0.8142
 2461TIP3    H229019   2.865   2.822   8.554 -0.6988 -0.2064  0.0390
 2462TIP3   OH229020   5.158   2.769   7.955  0.6329 -0.3559 -0.0780
 2462TIP3    H129021   5.231   2.772   8.018  0.9126  0.8607 -0.4302
 2462TIP3    H229022   5.080   2.777   8.009  0.7733 -1.0484  0.2493
 2463TIP3   OH229023   0.829   6.279   1.565  0.1006 -0.1387 -0.0145
 2463TIP3    H129024   0.852   6.213   1.500 -0.1652  0.4718 -0.7456
 2463TIP3    H229025   0.817   6.360   1.515  0.3199  0.4470  0.8495
 2464TIP3   OH229026   4.823   2.023   1.368 -0.1264  0.3585 -0.1651
 2464TIP3    H129027   4.741   2.061   1.400 -0.0336  1.2546 -0.9589
 2464TIP3    H229028   4.880   2.098   1.353  0.6257 -0.2167 -0.2126
 2465TIP3   OH229029   4.690   0.086   8.480  0.0742 -0.5257  0.2884
 2465TIP3    H129030   4.745   0.048   8.549 -0.8437 -1.0209  0.7615
 2465TIP3    H229031   4.711   0.180   8.482  2.3006 -0.9416 -0.8487
 2466TIP3   OH229032   6.823   4.017   0.721 -0.3431 -0.6799  0.0189
 2466TIP3    H129033   6.737   3.979   0.706 -0.6755 -1.0933  2.5366
 2466TIP3    H229034   6.812   4.073   0.798  1.0811  1.3464 -1.1435
 2467TIP3   OH229035   6.377   3.216   6.705  0.6138  0.5678  0.3772
 2467TIP3    H129036   6.450   3.196   6.646  0.1337 -0.6919  0.1804
 2467TIP3    H229037   6.299   3.194   6.654  0.1861 -0.3518  1.3888
 2468TIP3   OH229038   1.350   6.463   8.614 -0.0349  0.0612 -0.3092
 2468TIP3    H129039   1.337   6.475   8.708 -0.8815 -1.1198 -0.2561
 2468TIP3    H229040   1.444   6.477   8.602  0.1293 -0.0029  0.7417
 2469TIP3   OH229041   2.862   2.261   8.048 -0.4799 -0.0426  0.7419
 2469TIP3    H129042   2.938   2.301   8.091  0.4320 -0.6410 -0.2574
 2469TIP3    H229043   2.830   2.328   7.988  0.7331 -0.5807 -0.5573
 2470TIP3   OH229044   4.042   3.073   2.339  0.2116  0.8057  0.1233
 2470TIP3    H129045   4.003   3.014   2.275 -0.7390  0.3345  1.1019
 2470TIP3    H229046   4.055   3.019   2.417  2.3462  1.0913  0.0310
 2471TIP3   OH229047   0.124   1.480   1.971 -0.0307 -0.6572  0.1383
 2471TIP3    H129048   0.122   1.468   2.066 -0.5018  0.3882  0.2682
 2471TIP3    H229049   0.206   1.527   1.955 -0.2580 -0.2781  0.0923
 2472TIP3   OH229050   2.912   0.948   1.900  0.3514 -0.8212 -0.1091
 2472TIP3    H129051   2.863   0.877   1.941  0.5823 -0.4812  0.7716
 2472TIP3    H229052   2.980   0.903   1.850 -0.0824 -1.2506 -0.3295
 2473TIP3   OH229053   1.041   6.192   0.899  0.2411 -0.0848  0.0076
 2473TIP3    H129054   1.042   6.142   0.980 -3.0548 -1.1225 -0.4618
 2473TIP3    H229055   1.028   6.283   0.927 -2.9952 -0.6525  0.7181
 2474TIP3   OH229056   2.559   0.956   7.111  0.0889  0.8110  0.6613
 2474TIP3    H129057   2.470   0.923   7.102 -0.7315  2.0850  3.1048
 2474TIP3    H229058   2.582   0.987   7.023 -1.3510 -0.6894 -0.3062
 2475TIP3   OH229059   3.897   4.462   8.256 -0.5829  0.9501 -0.1718
 2475TIP3    H129060   3.826   4.444   8.319 -0.2555  0.6631  0.1208
 2475TIP3    H229061   3.857   4.449   8.170 -0.7437  0.2662  0.0051
 2476TIP3   OH229062   2.887   3.181   0.882 -0.2681  0.3192  0.1473
 2476TIP3    H129063   2.923   3.213   0.965 -1.0503 -1.2362  1.1205
 2476TIP3    H229064   2.920   3.243   0.817  3.8869 -0.6832  0.9655
 2477TIP3   OH229065   2.710   2.776   7.706 -0.2969 -0.0689 -0.0865
 2477TIP3    H129066   2.670   2.716   7.768  1.3682 -0.5046  0.6105
 2477TIP3    H229067   2.804   2.772   7.725 -0.1421  3.2699  0.4578
 2478TIP3   OH229068   0.410   4.018   8.067 -0.0397  0.1291  0.9343
 2478TIP3    H129069   0.486   3.961   8.058 -1.1702 -1.5045  1.2995
 2478TIP3    H229070   0.398   4.028   8.161 -1.6227 -1.6265  0.9983
 2479TIP3   OH229071   5.076   0.227   0.518 -0.5319  0.0304  0.5614
 2479TIP3    H129072   5.091   0.133   0.507 -1.8262  0.0739 -2.4185
 2479TIP3    H229073   4.985   0.233   0.548 -0.6486  0.3254  0.1605
 2480TIP3   OH229074   2.324   2.554   1.675 -0.5318  0.0876  0.1073
 2480TIP3    H129075   2.366   2.622   1.728 -1.8011  0.0644  1.1757
 2480TIP3    H229076   2.239   2.541   1.715 -0.9556 -0.9909 -1.0753
 2481TIP3   OH229077   2.739   4.781   8.347 -0.4204 -0.3694 -0.0049
 2481TIP3    H129078   2.702   4.700   8.382 -0.8703  0.2797  1.1035
 2481TIP3    H229079   2.670   4.817   8.292 -0.2598 -0.6848 -0.4138
 2482TIP3   OH229080   4.480   2.840   8.303 -0.7156 -0.5770 -0.2427
 2482TIP3    H129081   4.464   2.871   8.392 -0.9690  0.2480 -0.5751
 2482TIP3    H229082   4.487   2.745   8.312 -0.5396 -0.4800  0.6871
 2483TIP3   OH229083   3.253   5.206   6.174  0.3355  0.9154 -0.8379
 2483TIP3    H129084   3.233   5.258   6.252  2.0986  1.8927 -0.9755
 2483TIP3    H229085   3.337   5.166   6.194  0.6195  0.8625 -2.0707
 2484TIP3   OH229086   4.365   2.877   2.146 -0.1331  0.7041  0.8146
 2484TIP3    H129087   4.351   2.881   2.051  0.6055  0.9078  0.7043
 2484TIP3    H229088   4.284   2.839   2.181  0.2417 -0.9934 -0.0580
 2485TIP3   OH229089   4.235   3.616   2.142 -0.2247 -0.0547 -0.5040
 2485TIP3    H129090   4.202   3.652   2.224  0.5683  1.0834 -0.6518
 2485TIP3    H229091   4.330   3.623   2.149 -0.1532  0.4950 -1.6961
 2486TIP3   OH229092   2.907   4.276   7.002 -0.1116 -0.2358  0.3334
 2486TIP3    H129093   2.945   4.251   7.086 -0.2097  0.2297  0.5217
 2486TIP3    H229094   2.959   4.230   6.937 -0.8861 -1.6962  0.7040
 2487TIP3   OH229095   4.318   3.495   1.314 -0.1216 -0.0719  0.3445
 2487TIP3    H129096   4.277   3.415   1.346 -1.2109 -0.0478 -0.9025
 2487TIP3    H229097   4.280   3.509   1.228  0.7098  1.3176  0.1627
 2488TIP3   OH229098   1.431   0.480   6.863 -0.0118  0.5918 -0.1788
 2488TIP3    H129099   1.518   0.447   6.843  0.4848  0.9621  1.2617
 2488TIP3    H229100   1.382   0.471   6.781  0.5023 -2.2915 -0.2566
 2489TIP3   OH229101   4.053   1.165   1.870 -0.0859  0.4182  0.0451
 2489TIP3    H129102   3.998   1.243   1.870 -1.1376 -0.3079  0.0285
 2489TIP3    H229103   4.110   1.175   1.794 -0.3079  1.1041 -0.0296
 2490TIP3   OH229104   1.712   4.985   1.146  0.6239 -0.0421  0.3303
 2490TIP3    H129105   1.776   5.008   1.079 -0.3451  2.3921  0.1606
 2490TIP3    H229106   1.633   4.961   1.097 -0.3960  2.6648  0.4879
 2491TIP3   OH229107   1.896   6.225   1.457  0.0996 -0.6204 -0.2273
 2491TIP3    H129108   1.863   6.311   1.483  0.6577 -0.5067  0.1404
 2491TIP3    H229109   1.981   6.244   1.416 -0.5848 -0.8315 -1.8022
 2492TIP3   OH229110   2.140   1.055   1.357  0.0043 -0.0404  1.1687
 2492TIP3    H129111   2.176   1.045   1.269  0.8196 -0.4829  1.5393
 2492TIP3    H229112   2.086   1.133   1.353  0.4884  0.2604  0.4160
 2493TIP3   OH229113   6.512   5.011   7.335 -0.2660 -0.2583  0.2866
 2493TIP3    H129114   6.582   4.948   7.349  1.1615  1.3312  0.6400
 2493TIP3    H229115   6.444   4.987   7.398  0.8879 -0.5317  1.4453
 2494TIP3   OH229116   4.853   3.371   7.373  0.2961  0.0413 -0.5320
 2494TIP3    H129117   4.827   3.378   7.281 -0.4149  0.2230 -0.3232
 2494TIP3    H229118   4.935   3.419   7.379 -0.6238  1.7020 -0.6867
 2495TIP3   OH229119   2.115   3.339   0.032 -0.2627  0.3307 -0.0993
 2495TIP3    H129120   2.182   3.271   0.028  0.2639  0.8314  0.0337
 2495TIP3    H229121   2.123   3.385  -0.051 -0.4137  0.4226 -0.0637
 2496TIP3   OH229122   5.287   5.582   1.803 -0.2494 -0.3424 -0.9275
 2496TIP3    H129123   5.362   5.562   1.859 -0.2772  0.1871 -0.6989
 2496TIP3    H229124   5.211   5.565   1.859 -0.2635  0.9643 -0.5369
 2497TIP3   OH229125   5.745   0.072   0.631  0.0989  0.7800 -0.1939
 2497TIP3    H129126   5.710   0.093   0.545  0.6185  0.3061 -0.5307
 2497TIP3    H229127   5.772  -0.020   0.624 -1.2596  0.2560  0.9454
 2498TIP3   OH229128   5.844   2.150   1.581 -0.2743  0.0144  0.6150
 2498TIP3    H129129   5.815   2.240   1.567  0.8773  0.1494 -1.3522
 2498TIP3    H229130   5.936   2.158   1.605 -0.4826 -0.6094  1.6849
 2499TIP3   OH229131   1.746   3.998   7.315  0.7140 -0.4493 -0.3992
 2499TIP3    H129132   1.824   4.010   7.368  0.9923 -0.3259 -0.8334
 2499TIP3    H229133   1.744   3.904   7.297 -0.1468 -0.7223  0.9850
 2500TIP3   OH229134   0.363   2.775   1.908  0.7662  0.0305 -0.0781
 2500TIP3    H129135   0.428   2.827   1.860  1.1777  0.2748  0.7320
 2500TIP3    H229136   0.322   2.837   1.967  0.1216 -0.2310 -0.2435
 2501TIP3   OH229137   6.501   1.563   1.279  1.0653  0.1818 -0.3025
 2501TIP3    H129138   6.409   1.549   1.305  1.0293  0.3441 -0.3440
 2501TIP3    H229139   6.549   1.497   1.329  0.9991  0.5043  0.1966
 2502TIP3   OH229140   4.974   3.070   1.396  0.3229  0.0362 -0.4429
 2502TIP3    H129141   4.945   3.042   1.309  1.5456 -2.7520 -0.0441
 2502TIP3    H229142   4.893   3.082   1.446 -0.3815  1.3899 -1.8130
 2503TIP3   OH229143   0.286   3.100   8.548  0.1165  0.0827  0.4227
 2503TIP3    H129144   0.291   3.192   8.574 -0.9409  0.0996  0.6278
 2503TIP3    H229145   0.297   3.100   8.453  1.3091  0.2881  0.5432
 2504TIP3   OH229146   4.931   4.798   6.434  0.4949  1.0584  0.2459
 2504TIP3    H129147   5.003   4.810   6.373  0.7660  1.0352  0.5571
 2504TIP3    H229148   4.972   4.799   6.520  0.0191  1.8652  0.4754
 2505TIP3   OH229149   3.526   0.573   2.003  0.2220 -0.2112 -0.2769
 2505TIP3    H129150   3.525   0.602   2.095 -4.1174 -0.3109 -0.1015
 2505TIP3    H229151   3.527   0.477   2.008 -0.6863 -0.2245 -0.2958
 2506TIP3   OH229152   1.289   3.769   0.024  0.2020  0.1604  0.4928
 2506TIP3    H129153   1.212   3.818   0.054  2.7480  2.4577  3.9411
 2506TIP3    H229154   1.309   3.708   0.095  4.8433  3.8432  2.8761
 2507TIP3   OH229155   3.655   6.094   2.052  0.1197  0.9156 -0.4302
 2507TIP3    H129156   3.658   6.031   2.123  1.2960 -0.2720 -1.4727
 2507TIP3    H229157   3.718   6.162   2.077  2.3380 -0.6816 -1.3182
 2508TIP3   OH229158   3.381   0.509   8.222  0.2952 -0.5873  0.3579
 2508TIP3    H129159   3.401   0.586   8.275 -1.1884 -0.3992  0.7048
 2508TIP3    H229160   3.363   0.544   8.134  2.4136 -0.8642 -0.2406
 2509TIP3   OH229161   0.124   3.360   1.824  0.9028  0.2355  0.1466
 2509TIP3    H129162   0.202   3.352   1.769  0.7149 -0.5810 -0.0086
 2509TIP3    H229163   0.150   3.323   1.908  1.7163  2.9729  1.1965
 2510TIP3   OH229164   4.785   1.044   7.675  0.6566  0.4267 -0.1994
 2510TIP3    H129165   4.767   1.007   7.761  0.7590  0.8433  0.0060
 2510TIP3    H229166   4.822   0.972   7.625 -2.9320 -0.9989 -1.1739
 2511TIP3   OH229167   3.377   4.686   8.621 -0.0210 -0.0868  0.2865
 2511TIP3    H129168   3.444   4.710   8.685 -1.3484  0.4242  1.5435
 2511TIP3    H229169   3.385   4.752   8.552  0.3610  0.3416  0.7371
 2512TIP3   OH229170   1.951   6.464   2.339  0.0297  0.0766  0.1920
 2512TIP3    H129171   2.025   6.523   2.324 -0.4451  0.2171 -1.8257
 2512TIP3    H229172   1.876   6.509   2.301 -1.0694 -0.1871  1.9704
 2513TIP3   OH229173   6.080   1.601   8.232 -0.7412  0.0777  0.3564
 2513TIP3    H129174   6.008   1.591   8.169  0.6929 -0.9317 -1.2164
 2513TIP3    H229175   6.121   1.684   8.208  0.2743 -0.6680 -0.6217
 2514TIP3   OH229176   3.387   0.616   7.957  0.2837 -0.3885 -0.2071
 2514TIP3    H129177   3.399   0.541   7.900 -0.8552  0.7339 -2.0263
 2514TIP3    H229178   3.471   0.662   7.954  0.1375 -0.1613 -1.2971
 2515TIP3   OH229179   6.230   2.176   6.956 -1.1332 -0.1596 -0.1781
 2515TIP3    H129180   6.165   2.106   6.950 -1.4313  0.1634 -0.8160
 2515TIP3    H229181   6.232   2.214   6.869 -0.3743  0.0993 -0.0557
 2516TIP3   OH229182   0.970   2.915   8.603 -0.3017 -0.4843 -0.4567
 2516TIP3    H129183   0.955   2.956   8.518 -0.9996  0.0110 -0.0978
 2516TIP3    H229184   0.899   2.853   8.613  0.5936 -1.6106 -0.8708
 2517TIP3   OH229185   5.438   4.181   7.966  0.6733  0.1807  0.0180
 2517TIP3    H129186   5.523   4.138   7.968  0.3043 -0.6773 -1.4548
 2517TIP3    H229187   5.381   4.123   8.018  0.9747  0.7500  0.9957
 2518TIP3   OH229188   4.159   3.324   2.077 -0.4201 -0.5900 -0.0788
 2518TIP3    H129189   4.205   3.396   2.035 -0.0467 -1.2321 -0.7863
 2518TIP3    H229190   4.146   3.353   2.167 -1.0024  0.6941 -0.5574
 2519TIP3   OH229191   4.357   4.566   1.439  0.3379  0.2506 -0.1396
 2519TIP3    H129192   4.363   4.510   1.517 -0.6163  1.0229  0.5152
 2519TIP3    H229193   4.301   4.516   1.379  2.3531 -1.0720 -1.0232
 2520TIP3   OH229194   6.363   4.185   6.742  0.2479  0.0617 -0.0170
 2520TIP3    H129195   6.296   4.125   6.711 -0.1727 -0.6747  2.1453
 2520TIP3    H229196   6.314   4.263   6.770  0.2542 -0.4165  1.4191
 2521TIP3   OH229197   4.507   2.635   2.254 -0.4030  0.4465 -0.3859
 2521TIP3    H129198   4.560   2.643   2.333 -0.3754  0.5514 -0.4145
 2521TIP3    H229199   4.470   2.723   2.241 -0.4129  0.4279 -0.4859
 2522TIP3   OH229200   6.131   4.206   1.430 -0.5736 -0.1294  0.3006
 2522TIP3    H129201   6.083   4.161   1.500  0.4582 -1.4728  0.1736
 2522TIP3    H229202   6.072   4.203   1.355 -1.2129  0.2871  0.7716
 2523TIP3   OH229203   3.113   0.401   7.905 -0.2733  0.5481  0.3948
 2523TIP3    H129204   3.199   0.375   7.936 -0.0293  2.1301  1.1482
 2523TIP3    H229205   3.122   0.494   7.884 -0.7556 -0.0772 -3.3007
 2524TIP3   OH229206   4.178   0.988   0.420  0.1047 -0.3477  0.0364
 2524TIP3    H129207   4.141   0.899   0.422 -0.6837 -0.0309 -0.0357
 2524TIP3    H229208   4.186   1.012   0.512  1.6021 -0.9983  0.1006
 2525TIP3   OH229209   0.276   0.425   7.330  0.8191 -0.7079  0.2918
 2525TIP3    H129210   0.232   0.501   7.369  0.3920 -0.6596 -0.2713
 2525TIP3    H229211   0.308   0.375   7.406 -1.5426 -1.5519  0.8344
 2526TIP3   OH229212   3.046   4.885   1.218 -0.5344  0.1190  0.3082
 2526TIP3    H129213   2.970   4.875   1.160 -1.9373  1.4097  1.8273
 2526TIP3    H229214   3.068   4.795   1.245  0.5571 -0.6012 -2.5823
 2527TIP3   OH229215   4.781   5.827   0.045  0.2077  0.3867  0.1740
 2527TIP3    H129216   4.851   5.884   0.013  1.8072 -2.5136 -1.9451
 2527TIP3    H229217   4.812   5.796   0.130  1.8650 -1.2598 -0.9574
 2528TIP3   OH229218   6.425   3.277   1.533  0.3646 -0.8642 -0.0444
 2528TIP3    H129219   6.485   3.239   1.469  0.8297 -1.1775  0.5601
 2528TIP3    H229220   6.478   3.289   1.612 -0.4804 -1.6543  0.6742
 2529TIP3   OH229221   4.104   4.129   0.199 -0.1740  0.2665  0.1930
 2529TIP3    H129222   4.043   4.116   0.127 -0.8572  2.4741  0.2728
 2529TIP3    H229223   4.051   4.120   0.278 -0.3543  1.6956  0.2750
 2530TIP3   OH229224   0.067   3.006   8.015  0.2583  0.1161  0.1730
 2530TIP3    H129225  -0.020   3.046   8.014  0.3607  0.3995  1.1897
 2530TIP3    H229226   0.058   2.931   8.073  0.2054 -1.0613 -1.3076
 2531TIP3   OH229227   0.485   0.489   7.601 -0.1477  0.5164  0.2394
 2531TIP3    H129228   0.562   0.437   7.580  0.8114  1.9352  0.0775
 2531TIP3    H229229   0.462   0.465   7.690  1.5500  1.2942  0.9273
 2532TIP3   OH229230   3.680   4.994   1.173 -0.1012  0.0780 -0.3844
 2532TIP3    H129231   3.615   4.925   1.164  0.2595 -0.4436  0.8524
 2532TIP3    H229232   3.629   5.075   1.176 -0.8007 -0.3886  1.5058
 2533TIP3   OH229233   0.298   4.489   7.028  0.1777 -0.3977 -0.0498
 2533TIP3    H129234   0.240   4.479   7.103  0.1034  1.2065  0.1472
 2533TIP3    H229235   0.282   4.578   6.997  1.0475 -0.6338 -1.2668
 2534TIP3   OH229236   1.509   1.957   0.692 -0.2974  0.0897  0.2902
 2534TIP3    H129237   1.552   1.910   0.620 -0.4740  0.9500 -0.3865
 2534TIP3    H229238   1.457   2.025   0.649  0.4684  1.3391  1.2569
 2535TIP3   OH229239   5.159   4.832   0.576 -0.2526  0.3340 -0.4657
 2535TIP3    H129240   5.245   4.875   0.581 -0.1781  0.3749 -1.7870
 2535TIP3    H229241   5.122   4.863   0.493 -0.3712 -1.8432 -1.2773
 2536TIP3   OH229242   2.584   3.454   8.451  0.2550  0.0127  0.1990
 2536TIP3    H129243   2.498   3.489   8.474 -0.0723 -0.3640 -0.4397
 2536TIP3    H229244   2.567   3.364   8.425  0.4581  0.6593 -2.4447
 2537TIP3   OH229245   2.653   5.840   7.795 -0.1614 -0.5081  0.3811
 2537TIP3    H129246   2.610   5.823   7.712 -0.1290  1.0734  0.0053
 2537TIP3    H229247   2.746   5.849   7.773 -0.0883 -0.5531  0.6610
 2538TIP3   OH229248   0.093   2.584   2.306  0.6619 -0.2117  0.1303
 2538TIP3    H129249   0.022   2.548   2.252 -0.5705  0.6371  1.1105
 2538TIP3    H229250   0.165   2.597   2.245  0.3754 -2.1027 -0.7103
 2539TIP3   OH229251   6.811   5.026   7.540  0.1978 -0.2181 -0.0011
 2539TIP3    H129252   6.779   4.940   7.568  2.2832 -1.4793 -1.2462
 2539TIP3    H229253   6.858   5.060   7.616 -0.0631 -0.4626  0.2709
 2540TIP3   OH229254   3.932   1.517   8.577 -0.1162 -0.1118 -0.3136
 2540TIP3    H129255   3.947   1.515   8.672 -0.4709 -2.8497 -0.2300
 2540TIP3    H229256   4.012   1.554   8.540 -0.8822  3.3388  1.0941
 2541TIP3   OH229257   2.885   5.406   7.853 -0.2025 -0.5896  0.1664
 2541TIP3    H129258   2.978   5.394   7.875  0.1802  1.1095 -0.4197
 2541TIP3    H229259   2.886   5.449   7.767 -1.5578 -1.0706 -0.1100
 2542TIP3   OH229260   0.585   0.847   0.499  0.0182 -0.6198 -0.0643
 2542TIP3    H129261   0.576   0.785   0.427 -3.0011  1.9515 -2.2185
 2542TIP3    H229262   0.497   0.882   0.511  1.5319  3.6718  0.4473
 2543TIP3   OH229263   0.460   6.555   7.040  0.2616  0.2935 -0.2540
 2543TIP3    H129264   0.502   6.505   6.970  0.4892  1.5235 -1.0356
 2543TIP3    H229265   0.367   6.537   7.030  0.4597 -1.5548  0.7715
 2544TIP3   OH229266   0.139   2.223   8.554  0.3607  0.2399 -0.4610
 2544TIP3    H129267   0.115   2.196   8.466  1.9364  3.3251 -2.0063
 2544TIP3    H229268   0.191   2.150   8.589 -1.1661 -1.4712 -1.5961
 2545TIP3   OH229269   3.229   2.732   0.136  0.0741  0.4252  0.3011
 2545TIP3    H129270   3.297   2.797   0.156  0.9043 -0.2777 -0.2015
 2545TIP3    H229271   3.216   2.739   0.042  0.3400 -0.3001  0.2069
 2546TIP3   OH229272   0.912   3.398   8.560 -0.1424 -0.2820  0.2801
 2546TIP3    H129273   0.963   3.476   8.538 -0.3234 -0.2913 -0.1751
 2546TIP3    H229274   0.974   3.341   8.605  0.5041 -0.6800 -1.0752
 2547TIP3   OH229275   3.648   5.440   0.644 -0.1339  0.0871 -0.2350
 2547TIP3    H129276   3.686   5.523   0.674  0.8222 -0.5279  0.2902
 2547TIP3    H229277   3.563   5.436   0.688  0.4145  0.1370  0.8808
 2548TIP3   OH229278   6.048   0.133   7.461  0.2980 -0.0665  0.1820
 2548TIP3    H129279   6.055   0.093   7.374  1.8726  3.0751 -1.2760
 2548TIP3    H229280   5.963   0.178   7.460  0.5392  0.3879  0.0699
 2549TIP3   OH229281   2.522   0.096   8.099  0.4216 -0.4225 -0.3512
 2549TIP3    H129282   2.516   0.100   8.194  0.5190 -0.2954 -0.3499
 2549TIP3    H229283   2.515   0.003   8.079 -0.7100 -0.3661 -0.3001
 2550TIP3   OH229284   6.528   5.411   0.292 -0.0968 -0.0287 -0.2460
 2550TIP3    H129285   6.541   5.336   0.351 -0.2095  0.4837  0.4507
 2550TIP3    H229286   6.462   5.382   0.230  0.2713 -0.7024 -0.3327
 2551TIP3   OH229287   6.034   4.528   8.614  0.1138 -0.0206 -0.2702
 2551TIP3    H129288   5.984   4.447   8.618 -0.0941  0.0982 -0.4334
 2551TIP3    H229289   6.111   4.506   8.561  1.0816 -0.6470  1.3366
 2552TIP3   OH229290   2.413   1.253   1.947  0.2645 -0.2281  0.5875
 2552TIP3    H129291   2.490   1.198   1.930 -0.1798 -0.5824 -0.3316
 2552TIP3    H229292   2.394   1.295   1.864  0.1877  0.8092  1.1193
 2553TIP3   OH229293   4.362   0.930   0.213 -0.3027 -0.1516  0.2746
 2553TIP3    H129294   4.303   0.970   0.149 -1.1517 -2.8232 -0.7233
 2553TIP3    H229295   4.318   0.942   0.297 -0.0955  1.6967  0.1727
 2554TIP3   OH229296   6.840   0.632   0.720  0.3472  0.1712 -0.0179
 2554TIP3    H129297   6.763   0.651   0.668 -0.2459 -1.1020  0.3544
 2554TIP3    H229298   6.827   0.542   0.751  2.4591 -0.4708 -0.8147
 2555TIP3   OH229299   1.709   4.172   1.707  0.6625  0.0477 -0.0627
 2555TIP3    H129300   1.706   4.109   1.635 -1.3903 -0.7481  0.6532
 2555TIP3    H229301   1.770   4.134   1.770  0.8739 -0.2881 -0.4666
 2556TIP3   OH229302   1.592   1.306   8.111  0.1016  0.4671 -0.1669
 2556TIP3    H129303   1.557   1.363   8.180 -1.0033  1.2026 -1.2672
 2556TIP3    H229304   1.514   1.268   8.071  0.7822 -0.8696 -0.2544
 2557TIP3   OH229305   4.415   0.256   8.500  0.2516 -0.9281  0.2431
 2557TIP3    H129306   4.500   0.297   8.514 -0.0058 -0.1868 -0.2733
 2557TIP3    H229307   4.399   0.205   8.579  1.2678 -1.2447  0.2474
 2558TIP3   OH229308   0.808   2.095   0.052  0.8767  1.0037 -0.1978
 2558TIP3    H129309   0.891   2.049   0.067 -0.1369 -1.5802 -1.8568
 2558TIP3    H229310   0.783   2.070  -0.037 -2.2497  0.6712  0.6695
 2559TIP3   OH229311   6.363   6.486   1.871  0.1504 -0.0574 -0.2771
 2559TIP3    H129312   6.434   6.539   1.908  0.7598 -0.1807 -1.2145
 2559TIP3    H229313   6.381   6.397   1.901  0.6394 -0.1568 -0.8409
 2560TIP3   OH229314   4.482   0.738   6.658 -0.6308  0.0890 -0.5522
 2560TIP3    H129315   4.409   0.787   6.620 -0.6745  1.5464  1.2579
 2560TIP3    H229316   4.448   0.649   6.671 -0.5789 -0.5288 -3.8348
 2561TIP3   OH229317   4.017   6.369   1.349  0.1851  0.1453 -0.0420
 2561TIP3    H129318   4.073   6.300   1.385  1.2276  0.8516 -0.2450
 2561TIP3    H229319   3.948   6.322   1.303 -1.5449 -0.8099  3.2457
 2562TIP3   OH229320   6.248   6.546   1.107  0.4725  0.1150  0.8771
 2562TIP3    H129321   6.160   6.507   1.108  1.3006 -1.9739 -0.7687
 2562TIP3    H229322   6.235   6.634   1.141 -2.5540  0.4501 -0.8092
 2563TIP3   OH229323   4.856   3.735   7.158  0.6196 -0.3194  0.2518
 2563TIP3    H129324   4.891   3.652   7.128  0.6469 -0.4572  0.6586
 2563TIP3    H229325   4.765   3.736   7.127  0.4774 -0.7109  0.6600
 2564TIP3   OH229326   0.077   4.170   8.553 -0.3126  0.2842 -0.7291
 2564TIP3    H129327   0.109   4.165   8.462 -1.8869 -0.9645 -1.2606
 2564TIP3    H229328   0.005   4.233   8.549 -2.2716 -1.8503 -1.0161
 2565TIP3   OH229329   2.516   1.685   0.608 -0.4757 -0.0593 -0.5651
 2565TIP3    H129330   2.481   1.634   0.536 -3.6444 -0.0582  0.8250
 2565TIP3    H229331   2.526   1.622   0.679  0.1366  0.3987 -0.2355
 2566TIP3   OH229332   6.392   5.316   7.170  0.0561 -0.0223  0.1025
 2566TIP3    H129333   6.442   5.245   7.132  0.1531 -0.7244  1.4817
 2566TIP3    H229334   6.362   5.283   7.255 -1.1741  1.0381  0.1306
 2567TIP3   OH229335   0.506   3.449   1.462  0.8126 -0.1528  0.7293
 2567TIP3    H129336   0.517   3.377   1.401 -1.6290 -0.1431  0.1551
 2567TIP3    H229337   0.595   3.476   1.485  1.7940 -2.7126  0.2482
 2568TIP3   OH229338   2.829   6.732   1.156 -0.2212  0.7260  0.0173
 2568TIP3    H129339   2.882   6.699   1.083  0.7323 -0.1265  1.0659
 2568TIP3    H229340   2.825   6.659   1.218  3.3989  2.8864  3.2220
 2569TIP3   OH229341   3.001   0.330   8.256  0.5596 -0.0333  0.0362
 2569TIP3    H129342   2.998   0.255   8.197  2.3383 -0.5979  0.6136
 2569TIP3    H229343   2.924   0.319   8.312  0.6372 -1.2667 -0.0747
 2570TIP3   OH229344   6.260   1.805   8.179  1.2954 -0.4429 -0.5143
 2570TIP3    H129345   6.295   1.826   8.092  0.1956  1.6486 -0.5248
 2570TIP3    H229346   6.271   1.886   8.229 -2.4603  0.0443 -0.2300
 2571TIP3   OH229347   2.235   2.859   7.582 -0.4829 -0.2245 -0.4115
 2571TIP3    H129348   2.239   2.907   7.500 -1.9297 -2.5783 -1.9767
 2571TIP3    H229349   2.302   2.791   7.574 -0.6784 -0.5189  0.3488
 2572TIP3   OH229350   2.537   5.088   0.203  0.0260 -0.9720 -0.2699
 2572TIP3    H129351   2.561   5.111   0.293  0.4496  2.2928 -1.0797
 2572TIP3    H229352   2.617   5.048   0.167  0.2754 -1.1101  0.4097
 2573TIP3   OH229353   5.077   5.131   7.391 -0.4827  0.0143  0.1423
 2573TIP3    H129354   5.114   5.057   7.438 -0.3505  0.3998  0.6479
 2573TIP3    H229355   5.064   5.199   7.458 -1.8672 -0.0242 -0.0629
 2574TIP3   OH229356   3.369   6.358   0.628 -0.2694  0.4570  0.4899
 2574TIP3    H129357   3.413   6.440   0.604 -1.5579  1.2365  0.7015
 2574TIP3    H229358   3.364   6.309   0.546  0.2817  0.7010  0.3052
 2575TIP3   OH229359   3.387   5.068   7.343  0.2090  0.4235  0.1320
 2575TIP3    H129360   3.376   5.023   7.427  1.1633  1.4044  0.8155
 2575TIP3    H229361   3.331   5.020   7.282 -1.3731  0.3524  1.5728
 2576TIP3   OH229362   3.739   0.337   0.453 -0.4669 -0.5027 -0.9411
 2576TIP3    H129363   3.765   0.388   0.377  1.1463 -0.4424 -0.4035
 2576TIP3    H229364   3.720   0.402   0.520 -0.1204 -0.5703 -0.7728
 2577TIP3   OH229365   3.511   4.877   1.870  0.4241 -0.0144 -0.7024
 2577TIP3    H129366   3.432   4.824   1.884  0.8932 -0.5251  0.0923
 2577TIP3    H229367   3.500   4.953   1.928  1.8687 -1.5918  1.8197
 2578TIP3   OH229368   0.932   4.488   6.765 -0.2614 -0.1930  0.4845
 2578TIP3    H129369   0.943   4.454   6.676  0.2852  1.9043 -0.3063
 2578TIP3    H229370   0.838   4.482   6.781 -0.5065  0.2933 -0.6497
 2579TIP3   OH229371   5.651   6.509   7.570  0.3982 -0.2553 -0.0580
 2579TIP3    H129372   5.664   6.439   7.634  1.4628  1.0720  1.2695
 2579TIP3    H229373   5.737   6.549   7.561 -0.3929  1.6131  0.1680
 2580TIP3   OH229374   0.064   2.961   8.636  0.2264 -0.1832 -0.6976
 2580TIP3    H129375   0.076   2.973   8.731  1.7222 -1.6117 -0.6495
 2580TIP3    H229376   0.136   3.009   8.596 -0.7288  0.8929 -1.1780
 2581TIP3   OH229377   6.516   5.874   0.105 -0.3336  0.4386  0.6233
 2581TIP3    H129378   6.560   5.937   0.162  0.3300  0.6875 -0.1436
 2581TIP3    H229379   6.464   5.820   0.164 -2.0646  2.5939  1.1836
 2582TIP3   OH229380   4.708   5.911   6.809 -0.5298  0.1544 -1.3793
 2582TIP3    H129381   4.694   5.970   6.734 -3.4097 -1.2033 -2.0445
 2582TIP3    H229382   4.760   5.839   6.773  2.6075  1.9011 -0.6734
 2583TIP3   OH229383   5.600   3.168   7.207 -0.4706 -0.2204 -0.1658
 2583TIP3    H129384   5.682   3.122   7.185 -1.1084 -1.4330 -0.1004
 2583TIP3    H229385   5.531   3.105   7.186 -1.4536  1.1230 -1.0955
 2584TIP3   OH229386   0.001   5.822   6.617  0.1898  0.1816 -0.1742
 2584TIP3    H129387   0.075   5.807   6.559 -0.6117  0.5394 -1.3128
 2584TIP3    H229388   0.040   5.837   6.703  1.4576  0.8434 -0.8474
 2585TIP3   OH229389   2.443   0.336   7.573  0.0929 -0.5235  0.1628
 2585TIP3    H129390   2.360   0.357   7.528 -0.4186 -0.6031  1.0479
 2585TIP3    H229391   2.433   0.373   7.660  0.4375 -1.7134  0.7288
 2586TIP3   OH229392   0.372   3.905   0.651 -0.0213  0.7402  0.1824
 2586TIP3    H129393   0.290   3.897   0.603 -0.7104 -0.6526  1.5026
 2586TIP3    H229394   0.346   3.929   0.740  0.8682 -1.0001  0.9643
 2587TIP3   OH229395   2.920   3.561   6.617 -0.7117 -0.3798 -0.5356
 2587TIP3    H129396   2.915   3.657   6.619 -0.8928 -0.4065  0.9527
 2587TIP3    H229397   2.831   3.533   6.596 -0.8732 -0.2479 -0.0293
 2588TIP3   OH229398   5.547   5.551   6.972  0.4895  0.1368  0.4414
 2588TIP3    H129399   5.636   5.572   6.944  0.8820 -2.2923 -0.3317
 2588TIP3    H229400   5.491   5.603   6.915  1.3979  0.1455 -0.4626
 2589TIP3   OH229401   1.552   4.034   0.349  0.0487 -0.1381 -0.1722
 2589TIP3    H129402   1.505   3.958   0.383  1.9027 -0.4074  2.0182
 2589TIP3    H229403   1.497   4.066   0.277 -1.8861 -2.2015  0.2792
 2590TIP3   OH229404   4.390   3.594   1.564 -0.0835 -0.0402 -0.0649
 2590TIP3    H129405   4.475   3.554   1.582  1.1314  1.9130 -1.2006
 2590TIP3    H229406   4.382   3.592   1.469 -0.8117  0.7880 -0.0315
 2591TIP3   OH229407   0.889   1.728   1.284  0.0198 -0.1139  0.0474
 2591TIP3    H129408   0.916   1.668   1.354  1.9080 -0.8303 -1.2190
 2591TIP3    H229409   0.892   1.675   1.204 -0.2234  1.1677 -0.8451
 2592TIP3   OH229410   1.942   0.869   7.157  0.5046  0.6096 -0.0377
 2592TIP3    H129411   1.896   0.876   7.073  2.1526  1.1631 -0.9277
 2592TIP3    H229412   1.902   0.937   7.212  0.4201  1.2518 -0.8766
 2593TIP3   OH229413   2.931   1.698   0.051 -0.0646 -0.6245 -0.6498
 2593TIP3    H129414   2.873   1.698  -0.026 -0.3886 -1.1296 -0.4100
 2593TIP3    H229415   3.015   1.730   0.017 -0.3021 -0.4958 -1.1377
 2594TIP3   OH229416   2.149   0.017   7.521 -0.4998  0.3969  0.6427
 2594TIP3    H129417   2.239   0.043   7.542 -0.6204  0.8315  0.6258
 2594TIP3    H229418   2.099   0.034   7.601 -0.5890  0.2463  0.6205
 2595TIP3   OH229419   4.392   4.844   1.505 -0.3883  0.0756  0.6206
 2595TIP3    H129420   4.349   4.760   1.487 -0.3594  0.5222 -1.9799
 2595TIP3    H229421   4.322   4.901   1.536 -0.9126 -0.2557  0.0610
 2596TIP3   OH229422   3.778   3.604   2.338  0.0280  0.5867  0.1126
 2596TIP3    H129423   3.868   3.611   2.369 -0.2845  0.5630  1.0456
 2596TIP3    H229424   3.780   3.645   2.251  1.0645  0.0258 -0.1543
 2597TIP3   OH229425   1.441   1.038   7.450  0.0475  0.1637 -0.0116
 2597TIP3    H129426   1.406   0.954   7.482  2.3561 -1.2687 -0.9849
 2597TIP3    H229427   1.390   1.058   7.372  0.8812 -1.5769 -1.0713
 2598TIP3   OH229428   1.414   4.258   8.175  0.5169  0.3899 -0.0218
 2598TIP3    H129429   1.344   4.199   8.149 -1.6970  2.2043  1.4973
 2598TIP3    H229430   1.399   4.275   8.268  1.1303  3.1641 -0.3393
 2599TIP3   OH229431   0.954   0.398   0.783 -1.0047  0.2707 -0.3320
 2599TIP3    H129432   0.907   0.375   0.863  1.7423  0.3412  1.4439
 2599TIP3    H229433   0.925   0.487   0.763 -0.1312  1.1690  1.9888
 2600TIP3   OH229434   1.704   6.287   6.984 -0.0787  0.2366  0.1650
 2600TIP3    H129435   1.672   6.206   7.024 -0.5407  0.7157  0.7779
 2600TIP3    H229436   1.651   6.297   6.904  0.3954 -0.3766 -0.2318
 2601TIP3   OH229437   4.093   6.015   1.302  0.3059 -0.0439 -0.3108
 2601TIP3    H129438   4.155   5.992   1.371 -0.4220 -0.5727  0.1835
 2601TIP3    H229439   4.011   6.031   1.349  0.1144  0.8508 -0.9294
 2602TIP3   OH229440   2.554   5.399   1.373  0.3600 -0.3162  0.1430
 2602TIP3    H129441   2.503   5.406   1.293  2.9362  0.5842 -1.5574
 2602TIP3    H229442   2.525   5.317   1.414 -0.4894 -1.1993 -2.1129
 2603TIP3   OH229443   6.373   2.702   1.967 -0.3052 -0.2426  0.7532
 2603TIP3    H129444   6.406   2.713   1.878 -1.3315  2.3226  0.5970
 2603TIP3    H229445   6.449   2.719   2.023 -0.2055  0.6704  0.3623
 2604TIP3   OH229446   4.293   1.240   7.619  0.5201  0.1824  0.3590
 2604TIP3    H129447   4.350   1.188   7.676  2.2398  1.7683  0.1548
 2604TIP3    H229448   4.254   1.305   7.678  0.4444  0.3417  0.1319
 2605TIP3   OH229449   4.996   1.554   8.416  0.0016 -0.5262  0.3847
 2605TIP3    H129450   5.044   1.472   8.402  0.9233  0.4678 -3.0465
 2605TIP3    H229451   5.018   1.609   8.341 -1.9212  2.2801  1.6849
 2606TIP3   OH229452   3.988   2.991   7.822  0.1356 -0.5572 -0.5447
 2606TIP3    H129453   3.917   2.955   7.875  0.0307  0.0546 -0.2682
 2606TIP3    H229454   4.068   2.962   7.866  0.0478  0.3948  0.2570
 2607TIP3   OH229455   6.652   4.482   7.441  0.6529  0.2941 -0.1893
 2607TIP3    H129456   6.724   4.501   7.501  1.1643 -0.2121 -0.6254
 2607TIP3    H229457   6.695   4.463   7.358  0.1194 -1.4322 -0.1060
 2608TIP3   OH229458   4.840   2.401   8.600 -0.4499 -0.2958 -0.4735
 2608TIP3    H129459   4.922   2.357   8.625  0.8701  1.6622 -1.1193
 2608TIP3    H229460   4.798   2.339   8.541  1.7679 -0.4275 -2.0601
 2609TIP3   OH229461   0.716   5.242   2.243 -0.1123 -0.1143  0.0160
 2609TIP3    H129462   0.663   5.255   2.322  0.4207 -1.6870  0.6757
 2609TIP3    H229463   0.706   5.149   2.223 -0.7830  0.3905 -2.2025
 2610TIP3   OH229464   4.818   0.569   7.746  0.3284 -0.1989 -0.3183
 2610TIP3    H129465   4.744   0.559   7.686  0.0258  0.0651  0.0004
 2610TIP3    H229466   4.885   0.510   7.712  0.3571  0.3237 -1.2038
 2611TIP3   OH229467   1.582   1.804   6.715  0.5808  0.3274 -0.2424
 2611TIP3    H129468   1.522   1.737   6.683 -0.3400 -0.6143  3.0593
 2611TIP3    H229469   1.665   1.785   6.671  0.2924 -2.8967  0.4235
 2612TIP3   OH229470   0.485   0.038   8.280 -0.0737  0.4066  0.6122
 2612TIP3    H129471   0.467  -0.049   8.314  1.8801  0.2038  1.1976
 2612TIP3    H229472   0.401   0.067   8.243 -0.7835 -1.6553  0.4992
 2613TIP3   OH229473   0.998   4.495   1.053  0.2445  0.0883  0.2984
 2613TIP3    H129474   0.935   4.565   1.033 -0.8094 -0.7360  0.6505
 2613TIP3    H229475   0.963   4.454   1.131  1.2032 -0.4416  0.4589
 2614TIP3   OH229476   6.618   2.505   8.207  0.4734 -0.0740  0.8890
 2614TIP3    H129477   6.688   2.489   8.271  0.6625  1.0056  0.9701
 2614TIP3    H229478   6.661   2.554   8.137 -0.4994  2.0862  1.7077
 2615TIP3   OH229479   2.231   2.091   7.862  0.8282 -0.0549 -0.7378
 2615TIP3    H129480   2.197   2.176   7.834  0.9054 -0.6597 -2.7831
 2615TIP3    H229481   2.241   2.100   7.957  0.7796  2.1958 -0.8850
 2616TIP3   OH229482   3.989   2.206   0.755 -0.3342 -0.1271  0.2005
 2616TIP3    H129483   3.979   2.112   0.769 -1.1769 -0.1101 -0.2306
 2616TIP3    H229484   3.899   2.238   0.745 -0.0569  0.7368  0.4205
 2617TIP3   OH229485   1.716   4.650   0.706  0.3850 -0.1698 -0.4330
 2617TIP3    H129486   1.632   4.683   0.738  0.5773  0.1559 -0.2626
 2617TIP3    H229487   1.697   4.616   0.619  0.4356  1.5772 -1.1701
 2618TIP3   OH229488   6.216   4.995   1.952  0.1788  0.1061  0.1462
 2618TIP3    H129489   6.263   4.978   2.033 -0.1314 -0.9843  0.1124
 2618TIP3    H229490   6.149   4.927   1.948  0.4375 -0.0955 -1.2162
 2619TIP3   OH229491   4.778   6.411   0.318  0.0970  0.2860  0.2708
 2619TIP3    H129492   4.859   6.442   0.358 -0.0652  1.9332 -0.6097
 2619TIP3    H229493   4.708   6.450   0.371 -0.1532 -1.1307  1.0332
 2620TIP3   OH229494   2.941   4.040   1.008  0.2954  0.2230 -0.0136
 2620TIP3    H129495   2.955   4.043   1.103 -1.5570 -1.2287  0.3698
 2620TIP3    H229496   2.925   3.948   0.989 -0.3747  0.6236 -1.5859
 2621TIP3   OH229497   3.624   2.053   0.008 -0.3383  0.2090  0.0315
 2621TIP3    H129498   3.534   2.022   0.010 -0.5342  0.6855 -0.9476
 2621TIP3    H229499   3.659   2.031   0.095 -1.5040  0.3663  0.5601
 2622TIP3   OH229500   5.444   0.007   7.840 -0.1593 -0.1680 -0.2108
 2622TIP3    H129501   5.447  -0.072   7.785 -1.9076 -1.1308  0.9763
 2622TIP3    H229502   5.353   0.034   7.838 -0.0953  0.2862  1.4883
 2623TIP3   OH229503   6.114   6.191   7.084 -0.0763  0.1243  0.1196
 2623TIP3    H129504   6.087   6.187   6.993  1.5486  0.4069 -0.4177
 2623TIP3    H229505   6.128   6.284   7.100 -0.6260  0.1030  0.7507
 2624TIP3   OH229506   1.572   3.561   1.901  0.4751 -0.0859  0.0856
 2624TIP3    H129507   1.591   3.655   1.911 -0.1261 -0.1617  2.6286
 2624TIP3    H229508   1.480   3.553   1.928  0.2034 -1.2932 -1.1057
 2625TIP3   OH229509   4.449   3.023   6.529  0.1079  0.1018  0.1061
 2625TIP3    H129510   4.373   2.992   6.480 -0.8406  0.4434  1.3006
 2625TIP3    H229511   4.420   3.023   6.620  0.6670  2.7075  0.3482
 2626TIP3   OH229512   2.247   5.013   1.371 -0.3168  0.0407  0.1674
 2626TIP3    H129513   2.180   5.015   1.302  1.0749  0.1864 -1.2285
 2626TIP3    H229514   2.267   4.919   1.382 -0.6732  0.0032  0.5261
 2627TIP3   OH229515   6.272   1.009   7.885  0.2889 -0.6999 -0.1703
 2627TIP3    H129516   6.259   0.932   7.830  1.1398  0.4457 -2.0476
 2627TIP3    H229517   6.192   1.061   7.874  0.3918 -0.5440 -0.1861
 2628TIP3   OH229518   6.012   5.095   0.026  0.8786 -0.0006  0.1371
 2628TIP3    H129519   6.059   5.068   0.105 -0.7259 -0.5564  0.9498
 2628TIP3    H229520   6.068   5.161  -0.015  3.5472 -2.3532 -0.3151
 2629TIP3   OH229521   4.978   3.169   0.827  0.1965  0.2175 -0.8236
 2629TIP3    H129522   4.965   3.075   0.820  3.5871 -0.8915  3.3432
 2629TIP3    H229523   5.044   3.190   0.762  1.0000 -0.7974 -0.3607
 2630TIP3   OH229524   0.605   5.937   8.617 -0.0070  0.6487  0.1772
 2630TIP3    H129525   0.634   6.018   8.659 -1.2326  0.6101  1.1782
 2630TIP3    H229526   0.530   5.963   8.563 -0.3460  0.2053  0.4273
 2631TIP3   OH229527   4.994   5.962   1.776  0.2098 -0.4909 -0.0459
 2631TIP3    H129528   4.927   6.030   1.772 -1.7925 -2.1798  1.9733
 2631TIP3    H229529   5.061   5.997   1.834 -1.7213 -0.8408  2.5652
 2632TIP3   OH229530   3.237   1.495   1.792  0.6593  0.0341 -0.2679
 2632TIP3    H129531   3.281   1.498   1.878  0.6712  0.1628 -0.2777
 2632TIP3    H229532   3.275   1.568   1.744  0.2908  0.2700 -0.2071
 2633TIP3   OH229533   3.872   5.369   6.605  0.0145 -0.6881  0.0860
 2633TIP3    H129534   3.784   5.348   6.636 -0.4559 -0.9582 -1.3506
 2633TIP3    H229535   3.894   5.450   6.650 -1.3809 -0.0847 -0.2495
 2634TIP3   OH229536   4.217   4.486   6.199  0.4876 -0.0771 -0.3906
 2634TIP3    H129537   4.222   4.401   6.155  0.1667 -0.7203  0.7848
 2634TIP3    H229538   4.295   4.490   6.254 -0.2282 -0.2680  0.6734
 2635TIP3   OH229539   3.188   4.014   7.651 -0.0738  0.2626 -0.4129
 2635TIP3    H129540   3.111   3.958   7.637 -0.1361  0.3421 -0.3927
 2635TIP3    H229541   3.210   4.001   7.743 -0.7733  1.1206 -0.1086
 2636TIP3   OH229542   4.526   2.707   7.172  0.5939 -0.2727  0.1062
 2636TIP3    H129543   4.577   2.788   7.175  0.7485 -0.3894  2.7888
 2636TIP3    H229544   4.465   2.720   7.099  1.0012  2.0096  0.1001
 2637TIP3   OH229545   5.658   6.162   6.840  0.5465  0.5653  0.4682
 2637TIP3    H129546   5.699   6.123   6.763  0.0181  2.5552 -0.9251
 2637TIP3    H229547   5.572   6.120   6.846  1.1436 -0.6304  0.8753
 2638TIP3   OH229548   4.992   5.071   0.229  0.4796  0.0997 -0.4665
 2638TIP3    H129549   4.993   5.056   0.135 -0.8422  0.7152 -0.5941
 2638TIP3    H229550   4.945   4.996   0.265 -4.1604  2.4101 -0.9053
 2639TIP3   OH229551   2.906   1.724   8.083 -0.1880 -0.0195 -0.0281
 2639TIP3    H129552   2.856   1.795   8.123 -1.5309 -0.3968 -0.9633
 2639TIP3    H229553   2.861   1.707   8.000  1.7204 -0.1401 -1.1050
 2640TIP3   OH229554   2.980   5.821   1.578 -0.1389 -0.0336  0.5188
 2640TIP3    H129555   2.949   5.802   1.666 -0.6043 -1.3648  0.0816
 2640TIP3    H229556   2.904   5.807   1.522  0.6856 -1.3637 -0.3343
 2641TIP3   OH229557   2.771   5.737   1.426 -0.2805  0.0075 -0.3862
 2641TIP3    H129558   2.762   5.644   1.445  1.7942  0.0555  1.2247
 2641TIP3    H229559   2.749   5.746   1.334 -0.9734 -1.9926 -0.4505
 2642TIP3   OH229560   0.764   0.490   6.553 -0.0663 -0.1867  0.2260
 2642TIP3    H129561   0.779   0.425   6.622 -0.0289 -0.9070 -0.4440
 2642TIP3    H229562   0.815   0.458   6.479  1.4292  1.5646  0.4262
 2643TIP3   OH229563   3.212   3.957   1.712  0.4477  0.5121  0.0815
 2643TIP3    H129564   3.261   3.948   1.794  1.3090  1.6456 -0.2735
 2643TIP3    H229565   3.120   3.946   1.737  0.6724  1.1494  1.2640
 2644TIP3   OH229566   3.976   2.521   0.524 -0.0338  0.1496  0.2393
 2644TIP3    H129567   3.979   2.616   0.518  1.4771  0.1017 -0.2820
 2644TIP3    H229568   3.930   2.503   0.607 -0.5362  1.3093  0.2226
 2645TIP3   OH229569   2.014   0.860   2.384 -0.0612  0.4222  0.3060
 2645TIP3    H129570   2.007   0.883   2.292  1.2580 -0.1561  0.0368
 2645TIP3    H229571   1.924   0.859   2.416 -0.4870  1.1988 -0.8242
 2646TIP3   OH229572   5.846   3.301   0.509 -0.0593  0.3875 -0.0198
 2646TIP3    H129573   5.769   3.253   0.477 -0.9603  0.2175  2.2221
 2646TIP3    H229574   5.810   3.380   0.549  1.0174  0.7275  0.3042
 2647TIP3   OH229575   6.276   4.002   2.459 -0.5825 -0.6525 -0.6005
 2647TIP3    H129576   6.297   3.909   2.457 -1.3143 -0.9277  1.9622
 2647TIP3    H229577   6.185   4.006   2.487  0.2289  0.8571  2.2053
 2648TIP3   OH229578   3.464   6.664   8.194 -0.6054 -0.2820 -0.3372
 2648TIP3    H129579   3.394   6.632   8.137  0.1122  2.5210 -3.0821
 2648TIP3    H229580   3.429   6.745   8.231  0.7405  0.5573 -0.8498
 2649TIP3   OH229581   0.235   0.978   0.735 -0.3818  0.2678  0.0564
 2649TIP3    H129582   0.243   1.070   0.760 -2.6340  0.7753 -0.8433
 2649TIP3    H229583   0.163   0.945   0.790 -1.6965 -0.0608 -1.7622
 2650TIP3   OH229584   6.694   1.480   8.398 -0.1195  0.8273 -0.9142
 2650TIP3    H129585   6.618   1.524   8.360 -1.6696 -2.5843 -2.1672
 2650TIP3    H229586   6.747   1.454   8.322 -1.1521 -2.4994 -0.6451
 2651TIP3   OH229587   4.579   6.383   7.252 -0.7196 -0.2514 -0.0064
 2651TIP3    H129588   4.578   6.332   7.171 -2.1142  0.4358 -0.4454
 2651TIP3    H229589   4.519   6.455   7.236 -0.6294  0.1800  1.4748
 2652TIP3   OH229590   1.826   2.685   0.353  0.3373 -0.4631  0.4029
 2652TIP3    H129591   1.918   2.670   0.371  0.1249 -0.2354  1.7353
 2652TIP3    H229592   1.823   2.774   0.318  0.7413 -0.8885 -0.7721
 2653TIP3   OH229593   4.747   1.691   6.664  0.0191  0.0449  0.1564
 2653TIP3    H129594   4.771   1.599   6.677  0.8071  0.2666  0.3680
 2653TIP3    H229595   4.828   1.732   6.635 -0.2993  0.6959  0.1836
 2654TIP3   OH229596   1.528   5.448   7.745 -0.0819 -0.4293  0.1851
 2654TIP3    H129597   1.572   5.391   7.682 -1.4468 -0.3099 -0.9288
 2654TIP3    H229598   1.474   5.388   7.796  0.3479 -0.4150  0.6633
 2655TIP3   OH229599   0.090   5.469   1.940 -0.9768  0.7097 -0.1622
 2655TIP3    H129600   0.097   5.564   1.946 -2.4594  0.7994  0.6626
 2655TIP3    H229601   0.038   5.444   2.016 -1.0495 -0.7164 -0.6507
 2656TIP3   OH229602   3.011   0.150   1.442  0.3085  0.0053  0.1293
 2656TIP3    H129603   3.090   0.121   1.397 -1.4824 -0.6470 -2.8469
 2656TIP3    H229604   3.014   0.246   1.437  0.8416 -0.0187 -0.0497
 2657TIP3   OH229605   0.129   6.436   2.488  0.3992 -0.4259  0.4587
 2657TIP3    H129606   0.172   6.406   2.408  0.7626  0.9762  0.1054
 2657TIP3    H229607   0.200   6.449   2.550  0.1616 -1.0699  0.8770
 2658TIP3   OH229608   5.943   5.394   0.151  0.2570  0.2994  0.1178
 2658TIP3    H129609   5.861   5.441   0.136 -0.9023 -1.2223  1.2809
 2658TIP3    H229610   6.010   5.450   0.113 -0.9528  3.1331  1.8155
 2659TIP3   OH229611   0.755   5.745   7.398  0.6611  0.0634  0.7375
 2659TIP3    H129612   0.829   5.698   7.360  0.0526  0.6109 -1.2329
 2659TIP3    H229613   0.762   5.833   7.362 -1.5344 -0.1658 -0.3957
 2660TIP3   OH229614   2.426   5.070   8.363  0.0557  0.4214  0.3124
 2660TIP3    H129615   2.475   5.150   8.385 -1.1228  1.2551 -0.0223
 2660TIP3    H229616   2.421   5.022   8.446  0.7911  0.6747  0.5104
 2661TIP3   OH229617   6.740   4.295   8.593  0.0372  0.2655  0.2673
 2661TIP3    H129618   6.689   4.218   8.569 -1.0610  1.3030 -0.8187
 2661TIP3    H229619   6.701   4.325   8.675  0.1865 -0.0620  0.4620
 2662TIP3   OH229620   0.526   3.009   1.838 -0.7137 -0.0896 -0.0546
 2662TIP3    H129621   0.600   3.070   1.835 -0.5343 -0.2809  0.3533
 2662TIP3    H229622   0.483   3.027   1.921 -1.1453  0.0422 -0.3076
 2663TIP3   OH229623   2.735   0.110   1.590  0.2943 -0.4178 -0.6360
 2663TIP3    H129624   2.784   0.030   1.571  0.6604 -1.4211  3.5055
 2663TIP3    H229625   2.660   0.080   1.642  0.2076  1.8654  0.6876
 2664TIP3   OH229626   6.324   5.640   6.612  0.0669 -0.5841 -0.2448
 2664TIP3    H129627   6.304   5.704   6.544  0.8898 -2.0410 -1.9229
 2664TIP3    H229628   6.295   5.556   6.577 -0.1853 -1.3002  1.5270
 2665TIP3   OH229629   1.040   1.552   7.593  0.2498  0.1599 -0.2394
 2665TIP3    H129630   1.118   1.549   7.649 -0.6858  1.3199  1.1980
 2665TIP3    H229631   1.072   1.585   7.509  1.4629 -0.3120  0.0222
 2666TIP3   OH229632   6.787   2.204   6.533 -0.1621  0.1081 -0.7222
 2666TIP3    H129633   6.859   2.147   6.507  0.9626  1.3902 -0.5409
 2666TIP3    H229634   6.729   2.207   6.456  0.2704 -0.4974 -1.0692
 2667TIP3   OH229635   3.951   3.271   6.986 -0.1647 -0.2344 -0.4577
 2667TIP3    H129636   3.917   3.181   6.990 -0.3652 -0.1132  1.3541
 2667TIP3    H229637   4.021   3.273   7.052  1.2688  0.3974 -1.9365
 2668TIP3   OH229638   0.439   4.930   2.135 -0.3391 -0.4757 -0.2556
 2668TIP3    H129639   0.381   4.908   2.062  0.1626 -1.9290 -0.2588
 2668TIP3    H229640   0.404   5.011   2.170  0.3016  1.1580 -3.0649
 2669TIP3   OH229641   6.308   0.692   8.414  0.1246  0.6191 -0.1069
 2669TIP3    H129642   6.255   0.768   8.388  2.5191  2.0537 -1.1507
 2669TIP3    H229643   6.293   0.628   8.345 -1.1930  0.4751  0.2809
 2670TIP3   OH229644   5.459   0.503   1.929  0.0597 -0.3550 -0.2828
 2670TIP3    H129645   5.525   0.554   1.975 -0.3400  1.1559 -1.3320
 2670TIP3    H229646   5.508   0.452   1.865  0.2386  0.5895 -0.9061
 2671TIP3   OH229647   1.602   1.531   0.812 -0.2159  0.2668 -0.7299
 2671TIP3    H129648   1.647   1.563   0.733 -0.4611 -0.8704 -1.3560
 2671TIP3    H229649   1.646   1.448   0.832 -0.1615  0.5499  0.3383
 2672TIP3   OH229650   1.819   5.257   0.186  0.5726 -0.2505  0.1228
 2672TIP3    H129651   1.753   5.322   0.209  1.3761  0.6867 -0.1298
 2672TIP3    H229652   1.772   5.189   0.138  0.1838  1.7246 -2.5098
 2673TIP3   OH229653   0.754   6.605   7.425 -0.1564  0.2166 -0.2372
 2673TIP3    H129654   0.809   6.538   7.386  1.2973  1.4014 -0.2889
 2673TIP3    H229655   0.703   6.558   7.491  0.8798 -0.9177 -0.2035
 2674TIP3   OH229656   0.922   4.367   6.491  0.3767 -0.3440  0.3260
 2674TIP3    H129657   1.005   4.319   6.485  0.9284  0.7408 -1.5236
 2674TIP3    H229658   0.939   4.449   6.444 -1.3436  0.5148  1.1218
 2675TIP3   OH229659   1.779   4.453   8.627 -0.5817 -0.3224 -0.2427
 2675TIP3    H129660   1.740   4.388   8.568 -0.0642 -1.9758  1.1416
 2675TIP3    H229661   1.706   4.510   8.651 -0.8683  0.1959 -2.1770
 2676TIP3   OH229662   4.688   3.286   8.389  0.4467 -0.7140  0.0667
 2676TIP3    H129663   4.663   3.247   8.305 -2.4347 -0.0969  0.5074
 2676TIP3    H229664   4.728   3.215   8.438 -0.3761 -1.8552 -0.8504
 2677TIP3   OH229665   4.675   0.341   8.604  0.7521  0.3941 -0.8721
 2677TIP3    H129666   4.664   0.419   8.659  2.0831 -0.3537  0.5267
 2677TIP3    H229667   4.732   0.284   8.654 -1.0407 -2.0000 -1.3643
 2678TIP3   OH229668   3.497   0.819   0.703  0.2127 -0.7272  0.0197
 2678TIP3    H129669   3.434   0.755   0.737 -0.6808 -0.1605 -0.5390
 2678TIP3    H229670   3.578   0.799   0.750 -0.5694 -0.9937  1.3218
 2679TIP3   OH229671   1.364   5.840   1.152 -0.4013  0.6718  0.0823
 2679TIP3    H129672   1.445   5.891   1.159  2.1424 -2.6870 -1.7463
 2679TIP3    H229673   1.349   5.805   1.240  1.8562 -0.8708 -0.0766
 2680TIP3   OH229674   5.099   1.155   1.630 -0.4470 -0.1059  0.5019
 2680TIP3    H129675   5.023   1.125   1.581  0.3526 -2.0310  0.3736
 2680TIP3    H229676   5.125   1.236   1.586 -1.0687 -0.6196 -0.8589
 2681TIP3   OH229677   0.551   6.628   1.189 -0.0191  0.0462  0.0193
 2681TIP3    H129678   0.505   6.705   1.155 -0.5202  0.6653  1.9825
 2681TIP3    H229679   0.482   6.566   1.212  0.3180 -0.4373 -0.2275
 2682TIP3   OH229680   2.675   4.494   0.181 -0.3328 -0.4990 -0.3170
 2682TIP3    H129681   2.716   4.410   0.161 -1.0975 -1.4822  1.8887
 2682TIP3    H229682   2.607   4.504   0.114  1.5185 -0.2434 -2.2574
 2683TIP3   OH229683   5.714   0.840   7.451  0.4617 -0.3086 -0.6218
 2683TIP3    H129684   5.698   0.766   7.511  2.0736 -0.5205 -0.4137
 2683TIP3    H229685   5.676   0.811   7.368 -1.8414 -0.0014  0.2311
 2684TIP3   OH229686   6.303   3.518   8.416  0.0071  0.3463 -0.6562
 2684TIP3    H129687   6.315   3.458   8.490  1.5159  1.5482  0.1298
 2684TIP3    H229688   6.322   3.464   8.339  2.1370 -0.0676  0.0759
 2685TIP3   OH229689   6.828   1.456   0.453 -0.2115 -0.3887  0.0259
 2685TIP3    H129690   6.894   1.486   0.516 -0.6093 -0.8165  0.6471
 2685TIP3    H229691   6.800   1.536   0.408 -1.3103  0.2018  1.7058
 2686TIP3   OH229692   0.793   4.639   8.570  0.2164 -0.1474 -0.7433
 2686TIP3    H129693   0.789   4.564   8.630  0.1570 -1.0642 -1.8668
 2686TIP3    H229694   0.867   4.620   8.512  1.7911  1.8720  0.4772
 2687TIP3   OH229695   3.794   0.428   1.855 -0.6842 -0.0664  0.1156
 2687TIP3    H129696   3.717   0.388   1.895 -0.8075  1.0757  1.0855
 2687TIP3    H229697   3.856   0.440   1.927 -0.6020  1.3113 -0.1477
 2688TIP3   OH229698   4.161   2.709   7.287 -0.2040 -0.1819 -0.1352
 2688TIP3    H129699   4.205   2.787   7.253  0.3216 -0.2599  0.3541
 2688TIP3    H229700   4.091   2.743   7.343  1.6574  0.0212  2.2578
 2689TIP3   OH229701   2.627   1.047   0.648  1.0520  0.8093 -0.6344
 2689TIP3    H129702   2.682   0.973   0.622  0.5065  0.0722  0.2569
 2689TIP3    H229703   2.568   1.012   0.715 -1.0656  1.3515 -2.1047
 2690TIP3   OH229704   0.334   2.484   6.457 -0.0195 -0.6914  0.0873
 2690TIP3    H129705   0.348   2.557   6.518 -2.6254 -0.4871  0.5260
 2690TIP3    H229706   0.418   2.438   6.455  0.7969  0.6013  2.0780
 2691TIP3   OH229707   4.355   6.640   7.398 -0.0413 -0.5500  0.3921
 2691TIP3    H129708   4.362   6.735   7.391  1.5310 -0.5700  1.3396
 2691TIP3    H229709   4.304   6.626   7.478 -2.1685 -0.5359 -0.8680
 2692TIP3   OH229710   4.281   2.427   0.352 -0.1485  0.2857  0.1846
 2692TIP3    H129711   4.249   2.403   0.439 -0.7731  0.9910  0.1511
 2692TIP3    H229712   4.314   2.344   0.316  0.4862  0.0600  1.2369
 2693TIP3   OH229713   1.238   0.446   0.688 -0.2367 -0.2828  0.5062
 2693TIP3    H129714   1.170   0.381   0.705 -1.0226  0.7335  1.4118
 2693TIP3    H229715   1.221   0.476   0.599 -0.3483 -0.7468  0.3676
 2694TIP3   OH229716   3.925   1.397   7.207 -0.1988  0.3691  0.3831
 2694TIP3    H129717   3.863   1.436   7.146 -1.1910 -2.2178 -0.4060
 2694TIP3    H229718   3.915   1.448   7.287  0.3485  3.1550 -1.1991
 2695TIP3   OH229719   5.081   4.164   6.265  0.1247  0.1573 -0.5552
 2695TIP3    H129720   5.051   4.165   6.356 -0.4412 -0.6146 -0.7133
 2695TIP3    H229721   5.127   4.247   6.253 -1.0884  0.9354  0.0033
 2696TIP3   OH229722   2.163   4.576   0.175 -0.8597  0.1517 -0.0887
 2696TIP3    H129723   2.080   4.532   0.193 -0.3788 -0.4230  0.8092
 2696TIP3    H229724   2.211   4.572   0.258  1.3290 -2.2739 -1.3110
 2697TIP3   OH229725   3.301   0.680   0.516 -0.2477 -0.1722  0.1736
 2697TIP3    H129726   3.283   0.658   0.608 -0.3219 -0.5838  0.0629
 2697TIP3    H229727   3.393   0.705   0.515  0.3086 -2.0907  0.0251
 2698TIP3   OH229728   3.012   2.825   1.748 -0.4919 -0.2150  0.1959
 2698TIP3    H129729   3.036   2.740   1.783  3.3648  0.7814  0.4876
 2698TIP3    H229730   2.997   2.880   1.825 -2.6484 -0.4976  0.0160
 2699TIP3   OH229731   4.898   4.834   6.123  0.6220 -0.2386 -0.3164
 2699TIP3    H129732   4.850   4.759   6.157  1.7864 -1.1354 -0.5939
 2699TIP3    H229733   4.981   4.834   6.172  0.4553  1.1302 -0.0049
 2700TIP3   OH229734   2.380   3.723   6.736 -0.2219 -0.7195 -0.1672
 2700TIP3    H129735   2.419   3.649   6.691  1.5866  0.2327 -0.2537
 2700TIP3    H229736   2.370   3.790   6.668  3.3270  1.0512  0.8129
 2701TIP3   OH229737   4.448   2.790   7.995 -0.2478  0.0377  0.0251
 2701TIP3    H129738   4.444   2.798   8.090  0.2426  0.9129 -0.0217
 2701TIP3    H229739   4.511   2.719   7.980 -0.1112  0.0881  0.3420
 2702TIP3   OH229740   2.070   6.358   7.261 -0.4705  0.4576  0.0432
 2702TIP3    H129741   2.016   6.382   7.336 -0.5100 -0.3949  0.3026
 2702TIP3    H229742   2.158   6.389   7.284 -0.0648 -1.4717  1.3410
 2703TIP3   OH229743   3.604   0.154   6.867  0.0001  0.1281 -0.3730
 2703TIP3    H129744   3.637   0.242   6.850 -0.5404  0.1340 -1.4874
 2703TIP3    H229745   3.683   0.100   6.873  0.4594  0.9647  2.3227
 2704TIP3   OH229746   2.463   4.237   7.276  0.2133 -0.8603  0.3627
 2704TIP3    H129747   2.500   4.268   7.193  1.0813  0.4292  1.1902
 2704TIP3    H229748   2.369   4.240   7.262  0.3607 -2.1301 -1.0740
 2705TIP3   OH229749   6.885   3.601   2.239  0.5328 -0.3021  0.0464
 2705TIP3    H129750   6.883   3.598   2.143  0.7819  0.4364  0.0132
 2705TIP3    H229751   6.836   3.524   2.266 -0.3395 -0.0145 -0.6755
 2706TIP3   OH229752   3.857   3.423   7.298 -0.2349 -0.1885 -0.1528
 2706TIP3    H129753   3.931   3.442   7.355 -0.7526  0.0837  0.4476
 2706TIP3    H229754   3.850   3.327   7.299 -0.4332 -0.1769  0.5134
 2707TIP3   OH229755   2.238   1.058   6.902 -0.2742  0.5553 -0.4567
 2707TIP3    H129756   2.287   1.087   6.826  2.0682 -2.3377 -0.2450
 2707TIP3    H229757   2.168   1.004   6.867  0.7696 -0.7280 -0.6654
 2708TIP3   OH229758   2.777   3.773   8.000  0.8218 -0.3486  0.1435
 2708TIP3    H129759   2.726   3.719   7.941 -0.3980  1.8500 -0.9441
 2708TIP3    H229760   2.712   3.814   8.058  1.4535  1.2920 -0.2435
 2709TIP3   OH229761   5.469   3.249   0.508 -0.5028 -0.5506  0.1386
 2709TIP3    H129762   5.536   3.209   0.453  0.2370  2.4632 -1.3050
 2709TIP3    H229763   5.512   3.261   0.593  0.3397  0.0700 -0.3635
 2710TIP3   OH229764   5.091   4.188   2.279 -0.3789 -0.4194 -0.0104
 2710TIP3    H129765   5.147   4.114   2.256 -0.4957 -0.2472 -0.9165
 2710TIP3    H229766   5.127   4.261   2.229  0.2241  0.3409  1.4961
 2711TIP3   OH229767   2.150   1.784   0.582  0.0248  0.0543 -0.1645
 2711TIP3    H129768   2.099   1.812   0.657  0.7780 -0.5697  0.5960
 2711TIP3    H229769   2.204   1.712   0.614  0.3040 -0.2810 -1.3184
 2712TIP3   OH229770   6.325   1.633   2.707 -0.8058 -0.0133 -0.2002
 2712TIP3    H129771   6.334   1.687   2.785  1.1641 -0.0923 -0.3240
 2712TIP3    H229772   6.369   1.683   2.638  2.3242 -2.2211 -0.0448
 2713TIP3   OH229773   3.773   0.827   6.586  0.1585 -0.4269 -0.0977
 2713TIP3    H129774   3.741   0.904   6.632  0.2468 -0.0765 -0.6158
 2713TIP3    H229775   3.764   0.756   6.650 -0.5677 -0.1242  0.1512
 2714TIP3   OH229776   0.309   2.781   0.367 -0.6236  0.2774 -0.6794
 2714TIP3    H129777   0.327   2.806   0.276  1.2478 -0.7385 -0.6505
 2714TIP3    H229778   0.394   2.752   0.401 -0.9041  2.1044  1.9014
 2715TIP3   OH229779   1.317   3.520   1.660  0.2698  0.5195  0.0702
 2715TIP3    H129780   1.286   3.431   1.642 -0.6376  0.6460  0.9415
 2715TIP3    H229781   1.409   3.518   1.634  0.4044 -0.8272  0.5329
 2716TIP3   OH229782   4.733   5.381   6.744 -0.5205 -0.4848 -0.4503
 2716TIP3    H129783   4.794   5.310   6.725  1.7952  1.0873  0.7105
 2716TIP3    H229784   4.755   5.450   6.682  1.2292  1.3435  1.9864
 2717TIP3   OH229785   5.412   1.927   8.410 -0.1206 -0.5510 -0.1969
 2717TIP3    H129786   5.388   2.015   8.380  0.5343 -0.5594 -0.7540
 2717TIP3    H229787   5.328   1.883   8.424 -0.4903 -0.7056 -2.4953
 2718TIP3   OH229788   1.898   2.519   1.075 -0.0592 -0.0356  0.1805
 2718TIP3    H129789   1.819   2.510   1.021  0.2172  1.1737 -0.4448
 2718TIP3    H229790   1.940   2.433   1.069 -1.4094 -0.7631  0.6866
 2719TIP3   OH229791   5.262   6.784   0.870 -0.4754  0.7605  0.0823
 2719TIP3    H129792   5.340   6.791   0.815 -0.9293 -0.0362 -0.6896
 2719TIP3    H229793   5.192   6.823   0.818 -0.7550  0.7424  0.4400
 2720TIP3   OH229794   0.860   0.951   0.811 -0.0539 -0.2319 -0.1842
 2720TIP3    H129795   0.766   0.969   0.810 -0.0673 -0.1689  0.8836
 2720TIP3    H229796   0.890   0.987   0.894  0.7023 -1.2784  0.0174
 2721TIP3   OH229797   4.609   3.822   6.957 -0.3389 -0.2864  0.0947
 2721TIP3    H129798   4.614   3.880   6.881 -2.1926 -0.3798 -0.1491
 2721TIP3    H229799   4.588   3.880   7.030  2.1428 -0.0950  0.7358
 2722TIP3   OH229800   1.086   6.468   0.885 -0.0006 -0.3789 -0.2071
 2722TIP3    H129801   1.037   6.550   0.891  0.0496 -0.2499 -1.3038
 2722TIP3    H229802   1.175   6.492   0.914  0.4999  0.4350 -2.2126
 2723TIP3   OH229803   0.944   1.007   0.018 -0.6860  0.5955  0.6952
 2723TIP3    H129804   0.934   0.938   0.084  0.6589  0.5861  0.9169
 2723TIP3    H229805   0.934   0.962  -0.066  0.6326  0.0041  0.8232
 2724TIP3   OH229806   1.137   3.935   7.225 -0.1335 -0.1619  0.3099
 2724TIP3    H129807   1.103   3.889   7.148 -1.2572 -0.3634  0.9084
 2724TIP3    H229808   1.122   4.028   7.206 -1.6954 -0.2720  0.8396
 2725TIP3   OH229809   2.832   3.695   2.258  0.3865  0.0926  0.3290
 2725TIP3    H129810   2.839   3.606   2.292 -0.8930 -0.3256 -0.4361
 2725TIP3    H229811   2.792   3.745   2.330  2.9197  0.5692  1.5220
 2726TIP3   OH229812   4.461   1.349   0.923  0.0888 -0.4044  0.3300
 2726TIP3    H129813   4.420   1.396   0.996  0.5724  1.2059 -0.4134
 2726TIP3    H229814   4.404   1.273   0.909 -1.0726  0.2899  1.1342
 2727TIP3   OH229815   5.786   2.261   8.020 -0.1588  0.2112  0.2145
 2727TIP3    H129816   5.867   2.240   8.067  0.3261  1.4598 -0.0323
 2727TIP3    H229817   5.766   2.181   7.972 -1.1408 -1.4336  3.1132
 2728TIP3   OH229818   6.549   3.063   7.238 -0.1539 -0.6967  0.2656
 2728TIP3    H129819   6.571   3.018   7.156 -1.1856  1.1540 -1.1187
 2728TIP3    H229820   6.562   3.156   7.218  1.1520 -0.2700  2.7575
 2729TIP3   OH229821   4.475   3.225   7.152  0.0730 -0.1069  0.3402
 2729TIP3    H129822   4.490   3.202   7.244  1.1172  0.2387  0.2664
 2729TIP3    H229823   4.513   3.312   7.143 -0.9659  0.3063 -0.1739
 2730TIP3   OH229824   0.115   1.351   8.624  0.4474  0.5387 -0.9032
 2730TIP3    H129825   0.143   1.415   8.559 -1.7363  3.4049  0.7632
 2730TIP3    H229826   0.156   1.380   8.705 -1.3120  0.4188  0.0681
 2731TIP3   OH229827   1.200   1.729   0.819  0.5250 -0.1593  0.1564
 2731TIP3    H129828   1.122   1.683   0.850 -0.0220  2.0929  2.4312
 2731TIP3    H229829   1.236   1.671   0.751 -2.4365 -1.8341 -0.1831
 2732TIP3   OH229830   3.266   3.117   1.904  0.3170  0.0719 -0.4882
 2732TIP3    H129831   3.225   3.183   1.962 -0.5172 -1.2094  0.4329
 2732TIP3    H229832   3.253   3.151   1.816  1.1019  1.8013  0.0122
 2733TIP3   OH229833   0.443   4.792   8.577  0.3545  0.0895 -0.1877
 2733TIP3    H129834   0.423   4.700   8.597  1.3916 -0.5556 -1.9270
 2733TIP3    H229835   0.359   4.837   8.583 -0.0627 -0.8172  1.3718
 2734TIP3   OH229836   5.786   2.902   0.140  0.0917 -0.2211  0.4042
 2734TIP3    H129837   5.763   2.809   0.144  0.3653 -0.2626  1.3922
 2734TIP3    H229838   5.874   2.906   0.176 -1.0478  0.7476  3.4062
 2735TIP3   OH229839   4.911   5.710   1.651  0.0772  0.0383  0.0196
 2735TIP3    H129840   4.837   5.767   1.630  0.9743  0.5713 -1.8957
 2735TIP3    H229841   4.964   5.762   1.712 -0.1159  0.4479 -0.1599
 2736TIP3   OH229842   1.634   6.387   0.247 -0.5428  0.5826 -0.3921
 2736TIP3    H129843   1.547   6.368   0.211  0.4915 -0.0696 -2.7653
 2736TIP3    H229844   1.692   6.324   0.204  1.4998  2.6558 -0.8958
 2737TIP3   OH229845   6.109   0.860   8.567 -0.0655 -0.4487  0.2972
 2737TIP3    H129846   6.136   0.912   8.491 -1.6671 -2.2386 -1.6018
 2737TIP3    H229847   6.016   0.845   8.555 -0.2268 -1.4176  2.2660
 2738TIP3   OH229848   5.897   4.360   1.675 -0.2742  0.0591  0.8133
 2738TIP3    H129849   5.858   4.438   1.714 -0.0819 -0.6594  2.5377
 2738TIP3    H229850   5.948   4.393   1.601 -1.5963  1.3476  0.4309
 2739TIP3   OH229851   6.873   6.772   0.062 -0.7180 -0.4933  0.3862
 2739TIP3    H129852   6.959   6.788   0.101 -0.8417  0.2290  0.3745
 2739TIP3    H229853   6.818   6.844   0.094 -2.0913 -2.3655  2.6362
 2740TIP3   OH229854   4.712   2.215   8.443 -0.7256  0.0275 -0.3343
 2740TIP3    H129855   4.709   2.226   8.348  1.4185 -1.6211 -0.6473
 2740TIP3    H229856   4.637   2.158   8.462 -0.5165 -0.5544 -1.1851
 2741TIP3   OH229857   5.827   1.549   8.061  0.0099 -0.4704 -0.4024
 2741TIP3    H129858   5.793   1.582   7.978 -1.1819 -1.4145 -0.3119
 2741TIP3    H229859   5.759   1.569   8.125  0.3650 -0.8599  0.1065
 2742TIP3   OH229860   2.783   2.657   7.217  0.0952 -0.1325  0.3651
 2742TIP3    H129861   2.847   2.590   7.239 -1.0442 -1.5289 -0.4249
 2742TIP3    H229862   2.778   2.656   7.122 -1.2307 -0.1789  0.4209
 2743TIP3   OH229863   2.482   5.622   7.871 -0.2667  0.2530 -0.1255
 2743TIP3    H129864   2.486   5.563   7.796  0.9960 -0.7814  0.7078
 2743TIP3    H229865   2.546   5.690   7.850 -0.9724  0.7807 -0.6192
 2744TIP3   OH229866   5.201   4.164   1.709 -0.0819  0.0789  0.0776
 2744TIP3    H129867   5.144   4.239   1.693  1.9192  2.1532  2.0920
 2744TIP3    H229868   5.151   4.108   1.769 -1.4607 -0.1130 -1.1974
 2745TIP3   OH229869   5.450   2.262   8.034  0.0928  0.3524 -0.1170
 2745TIP3    H129870   5.427   2.269   7.942 -0.4906 -0.6100 -0.0595
 2745TIP3    H229871   5.541   2.293   8.039 -0.3981  1.9932 -0.7215
 2746TIP3   OH229872   4.482   4.775   1.098  0.0554 -0.6540  0.4729
 2746TIP3    H129873   4.416   4.766   1.029 -0.8360 -0.0577  1.2147
 2746TIP3    H229874   4.501   4.686   1.126 -2.6088 -0.8134  2.1896
 2747TIP3   OH229875   4.673   2.923   0.082 -0.6481 -0.1204  0.0764
 2747TIP3    H129876   4.735   2.858   0.112 -0.4763  0.4726  1.0461
 2747TIP3    H229877   4.594   2.873   0.062 -0.1247 -0.7762 -0.4039
 2748TIP3   OH229878   2.627   2.751   0.262 -0.2319  0.3052 -0.2751
 2748TIP3    H129879   2.665   2.679   0.212 -0.9021  0.0069 -0.3714
 2748TIP3    H229880   2.665   2.830   0.224  1.7773 -0.0331  0.8815
 2749TIP3   OH229881   2.075   1.005   2.750  0.5708  0.2209 -0.2102
 2749TIP3    H129882   2.009   1.074   2.748  0.2809 -0.0303  0.4884
 2749TIP3    H229883   2.137   1.032   2.818  1.8402  1.0245 -1.6104
 2750TIP3   OH229884   4.462   1.305   0.538 -0.6420  0.4048  0.2242
 2750TIP3    H129885   4.530   1.364   0.570 -1.5241  1.1806  0.6980
 2750TIP3    H229886   4.504   1.219   0.540  0.3080  0.8537  0.5756
 2751TIP3   OH229887   2.179   3.729   8.484 -0.1655  0.1681 -0.0492
 2751TIP3    H129888   2.209   3.794   8.421 -0.9329 -0.7347 -1.3740
 2751TIP3    H229889   2.155   3.780   8.561  0.7325  1.2920 -0.4809
 2752TIP3   OH229890   4.166   1.636   0.831 -0.0577  0.0549 -0.0812
 2752TIP3    H129891   4.127   1.598   0.909 -1.5996 -0.2760 -0.9745
 2752TIP3    H229892   4.247   1.588   0.818 -0.2357 -0.4995  0.8010
 2753TIP3   OH229893   3.293   5.871   0.827 -0.0442  0.2925 -0.7242
 2753TIP3    H129894   3.275   5.942   0.889  1.8184  0.3947 -0.2485
 2753TIP3    H229895   3.252   5.794   0.867  0.2411  0.5695  0.1134
 2754TIP3   OH229896   4.783   3.760   0.695  0.0209  0.4038 -0.0225
 2754TIP3    H129897   4.786   3.677   0.648  0.4748 -1.2485  2.7349
 2754TIP3    H229898   4.691   3.786   0.690 -0.1509 -0.3209 -0.8416
 2755TIP3   OH229899   5.629   1.376   1.320 -0.5348  0.3428  0.0689
 2755TIP3    H129900   5.631   1.464   1.358  1.1609  0.2412  0.2855
 2755TIP3    H229901   5.642   1.389   1.227  1.8560  0.2511  0.3353
 2756TIP3   OH229902   0.503   0.255   6.340  0.2695 -0.6221  0.7842
 2756TIP3    H129903   0.546   0.274   6.423  1.6913  1.6557 -0.3505
 2756TIP3    H229904   0.560   0.190   6.298  0.0599 -1.0607  1.1628
 2757TIP3   OH229905   3.870   5.611   7.282  0.2413 -0.2409 -0.0321
 2757TIP3    H129906   3.893   5.633   7.372 -1.2864 -1.0235  0.5911
 2757TIP3    H229907   3.878   5.693   7.233  0.3957  0.3424  0.9609
 2758TIP3   OH229908   5.060   3.369   2.214  0.3550 -0.0452  0.3147
 2758TIP3    H129909   5.117   3.362   2.290 -1.2682 -0.1309  1.5821
 2758TIP3    H229910   5.081   3.293   2.161 -0.1061 -1.3147  1.8640
 2759TIP3   OH229911   5.932   3.687   1.494  0.4398 -1.0081 -0.1207
 2759TIP3    H129912   6.002   3.636   1.534 -0.5854 -1.4674  1.1894
 2759TIP3    H229913   5.927   3.767   1.547  0.6842 -0.4834 -0.8806
 2760TIP3   OH229914   2.428   5.645   1.423  0.7804  0.2729  0.2146
 2760TIP3    H129915   2.479   5.564   1.426 -0.9773 -0.9033  0.1280
 2760TIP3    H229916   2.412   5.661   1.330  0.0411 -0.0333  0.2771
 2761TIP3   OH229917   3.646   0.836   6.928 -0.1519 -0.7472  1.0001
 2761TIP3    H129918   3.657   0.752   6.885 -1.3425 -0.7552  0.6689
 2761TIP3    H229919   3.572   0.877   6.883  0.3206  0.4233  1.2349
 2762TIP3   OH229920   3.757   1.242   0.472  0.0525 -0.6648 -0.3037
 2762TIP3    H129921   3.843   1.238   0.515  0.1089 -0.7953 -0.4278
 2762TIP3    H229922   3.762   1.320   0.417 -0.1594 -0.2722  0.2224
 2763TIP3   OH229923   3.306   5.338   1.419 -0.4475 -0.2108 -0.4325
 2763TIP3    H129924   3.225   5.358   1.372 -0.4114  0.7860 -0.0965
 2763TIP3    H229925   3.301   5.244   1.438 -2.6471  0.2378  1.6647
 2764TIP3   OH229926   6.457   0.669   7.098 -0.4217 -0.0341  0.7240
 2764TIP3    H129927   6.432   0.761   7.108 -0.2819  0.0537  0.2606
 2764TIP3    H229928   6.551   0.667   7.115 -0.3448 -0.0238  0.2966
 2765TIP3   OH229929   2.220   0.767   2.652 -0.1708 -0.7671 -0.2742
 2765TIP3    H129930   2.309   0.803   2.653  0.5783 -2.5144 -0.3363
 2765TIP3    H229931   2.166   0.838   2.687  1.3575  0.0530  0.5633
 2766TIP3   OH229932   3.479   5.608   7.976 -0.0427 -0.0991  0.4850
 2766TIP3    H129933   3.427   5.634   8.052 -0.6094 -0.9202  0.3909
 2766TIP3    H229934   3.546   5.676   7.969 -2.7451  2.7266 -1.0543
 2767TIP3   OH229935   2.676   1.510   1.419 -0.3567 -0.2282 -0.4163
 2767TIP3    H129936   2.721   1.540   1.340  0.9409  0.1084  0.4061
 2767TIP3    H229937   2.603   1.570   1.430  0.4185  0.7596 -0.4832
 2768TIP3   OH229938   6.118   0.369   7.653 -0.0747  0.3619  0.2355
 2768TIP3    H129939   6.043   0.320   7.619  1.3180 -1.3889 -0.4550
 2768TIP3    H229940   6.135   0.436   7.587 -0.0533 -0.2557 -0.3940
 2769TIP3   OH229941   4.105   4.690   7.716 -0.5852 -0.1180 -0.2423
 2769TIP3    H129942   4.036   4.707   7.653  0.1110  2.2368 -0.4695
 2769TIP3    H229943   4.079   4.738   7.795  0.1573 -0.3061  0.1321
 2770TIP3   OH229944   2.374   2.722   7.893  0.1368 -0.3265  0.4289
 2770TIP3    H129945   2.281   2.712   7.871 -0.2382 -0.0397  1.7790
 2770TIP3    H229946   2.381   2.811   7.927  0.6339 -0.7734  1.5448
 2771TIP3   OH229947   4.544   1.263   6.973  0.3050 -0.3192 -0.1479
 2771TIP3    H129948   4.568   1.306   6.891  0.3324  0.3331  0.1921
 2771TIP3    H229949   4.579   1.321   7.041 -1.0512 -0.0412  0.3497
 2772TIP3   OH229950   2.779   0.056   1.908  0.0983  0.0456  0.1588
 2772TIP3    H129951   2.701   0.067   1.963 -1.0164  1.3409 -1.5748
 2772TIP3    H229952   2.852   0.060   1.969 -1.0341  2.1164  1.5030
 2773TIP3   OH229953   1.806   6.819   1.614 -0.0999  0.1422  0.0730
 2773TIP3    H129954   1.878   6.869   1.576 -0.3065 -0.7513 -1.5459
 2773TIP3    H229955   1.729   6.846   1.565 -0.6780  0.1847  0.9753
 2774TIP3   OH229956   3.870   4.785   5.152  0.0406 -0.1295 -0.4441
 2774TIP3    H129957   3.870   4.780   5.248 -0.1711 -0.9063 -0.4790
 2774TIP3    H229958   3.779   4.765   5.127  0.3218 -0.9527 -0.8493
 2775TIP3   OH229959   5.168   2.604   0.727  0.2043 -0.1263  0.2731
 2775TIP3    H129960   5.113   2.551   0.669  1.2595 -0.3419 -0.5626
 2775TIP3    H229961   5.160   2.693   0.694 -0.4337  0.0203  0.7921
 2776TIP3   OH229962   4.333   5.312   8.449  0.1889 -0.5882 -0.3738
 2776TIP3    H129963   4.322   5.360   8.367  0.8770 -1.2284 -0.8537
 2776TIP3    H229964   4.296   5.226   8.432 -0.3115 -0.4966  0.2250
 2777TIP3   OH229965   1.883   2.123   8.279  0.2522 -0.1202  0.0638
 2777TIP3    H129966   1.943   2.192   8.250 -0.5209  0.9923  1.0030
 2777TIP3    H229967   1.819   2.116   8.207 -0.1067  0.7139  0.2827
 2778TIP3   OH229968   4.602   3.303   7.772  0.8375  0.6413  0.0959
 2778TIP3    H129969   4.521   3.334   7.733  1.6216 -0.0339 -2.2655
 2778TIP3    H229970   4.577   3.222   7.818  0.1301  0.5373 -0.4521
 2779TIP3   OH229971   4.947   1.187   0.103  0.0505  0.0337 -0.0224
 2779TIP3    H129972   4.928   1.242   0.027  1.0241  0.6738  0.1805
 2779TIP3    H229973   4.997   1.245   0.162  1.6368 -1.2466 -0.0575
 2780TIP3   OH229974   0.400   3.197   1.283  0.0706 -0.0128 -0.8588
 2780TIP3    H129975   0.437   3.208   1.195  1.7203  0.4309 -0.1469
 2780TIP3    H229976   0.334   3.265   1.290 -0.6009 -0.5227 -2.0093
 2781TIP3   OH229977   5.248   0.069   1.083 -0.1126 -0.5256 -0.0038
 2781TIP3    H129978   5.243   0.008   1.009 -2.1568 -0.3536 -0.0628
 2781TIP3    H229979   5.174   0.128   1.070 -0.0842 -0.0439  1.7980
 2782TIP3   OH229980   6.546   5.550   7.619  0.6688 -0.5984  0.4934
 2782TIP3    H129981   6.488   5.478   7.643 -0.0830 -0.1896 -0.0632
 2782TIP3    H229982   6.495   5.629   7.638  2.0978 -0.1205  2.7697
 2783TIP3   OH229983   2.273   6.314   7.695 -0.0731  0.0310  0.2299
 2783TIP3    H129984   2.207   6.382   7.678 -1.2442 -1.2662 -0.7319
 2783TIP3    H229985   2.224   6.244   7.738  0.7202 -0.8967 -0.3460
 2784TIP3   OH229986   3.744   3.149   6.433  0.1993 -0.4797  0.4690
 2784TIP3    H129987   3.731   3.173   6.341  0.3241 -2.2472 -0.0548
 2784TIP3    H229988   3.816   3.085   6.430 -1.3844 -2.4231  1.4646
 2785TIP3   OH229989   6.501   6.804   8.166  0.4321 -0.1838  0.3296
 2785TIP3    H129990   6.567   6.735   8.175  0.2970 -0.3122  0.3593
 2785TIP3    H229991   6.551   6.885   8.155  0.6108 -0.4945 -1.4124
 2786TIP3   OH229992   2.476   6.681   8.518  0.4215  0.1436 -0.6397
 2786TIP3    H129993   2.440   6.662   8.431  2.7368  1.5117 -1.9733
 2786TIP3    H229994   2.421   6.752   8.551  1.0245  1.3552 -2.1128
 2787TIP3   OH229995   1.421   5.359   7.341  0.0613  0.3675  0.1407
 2787TIP3    H129996   1.410   5.300   7.415  0.1590  0.8478  0.5443
 2787TIP3    H229997   1.422   5.302   7.265 -0.9908 -0.0510  0.4253
 2788TIP3   OH229998   5.764   6.654   1.254  0.1520 -0.4625  0.1484
 2788TIP3    H129999   5.783   6.748   1.246 -0.4878 -0.3624 -0.2674
 2788TIP3    H230000   5.694   6.638   1.191  1.9235 -1.7340 -1.6486
 2789TIP3   OH230001   5.802   3.793   8.278 -0.0602  0.3171  0.1356
 2789TIP3    H130002   5.857   3.849   8.332 -1.8024  1.4499  0.8344
 2789TIP3    H230003   5.841   3.796   8.191 -0.0658  2.6359  0.1620
 2790TIP3   OH230004   4.856   4.743   6.803  0.2599  0.1022 -0.4804
 2790TIP3    H130005   4.882   4.792   6.881  0.6282  1.5489 -1.4710
 2790TIP3    H230006   4.870   4.804   6.731  0.6955 -1.4596 -1.7788
 2791TIP3   OH230007   3.567   6.805   1.811 -0.0842  0.3902  0.4487
 2791TIP3    H130008   3.551   6.879   1.752 -1.3863 -0.5567 -0.4498
 2791TIP3    H230009   3.646   6.829   1.859  0.0049  1.9794 -0.4255
 2792TIP3   OH230010   5.172   2.213   7.158 -0.4106  0.1280 -0.4468
 2792TIP3    H130011   5.185   2.282   7.092  1.6724 -1.1257 -1.4405
 2792TIP3    H230012   5.120   2.147   7.113  0.1495 -0.2801 -0.4941
 2793TIP3   OH230013   3.001   5.588   0.161 -0.2616 -0.1026  0.3048
 2793TIP3    H130014   2.968   5.550   0.080  1.7239 -1.4875  0.0931
 2793TIP3    H230015   2.954   5.671   0.169 -0.5450  0.0434 -2.2206
 2794TIP3   OH230016   5.547   3.444   0.889  0.9089 -0.0567 -0.1950
 2794TIP3    H130017   5.466   3.493   0.875 -0.1287 -1.8463 -0.7194
 2794TIP3    H230018   5.576   3.471   0.977  1.2212  2.5655 -1.0060
 2795TIP3   OH230019   5.011   6.212   8.062 -0.1821 -0.6027  0.1675
 2795TIP3    H130020   5.076   6.207   7.992  0.2118  0.5137  0.4287
 2795TIP3    H230021   5.038   6.144   8.124  1.2657  0.4117  0.6902
 2796TIP3   OH230022   3.564   2.125   1.150 -0.3486  0.5304  0.0548
 2796TIP3    H130023   3.510   2.162   1.220  0.7929  2.1832  0.1235
 2796TIP3    H230024   3.528   2.037   1.135  0.5977 -0.7232  4.0706
 2797TIP3   OH230025   0.999   6.188   7.406  0.6548 -0.5345  0.0966
 2797TIP3    H130026   1.089   6.164   7.385  0.1080 -1.8180 -0.8973
 2797TIP3    H230027   0.949   6.108   7.395 -0.8906  0.5201 -1.1066
 2798TIP3   OH230028   6.832   4.551   0.241  0.2793 -0.2118  0.3321
 2798TIP3    H130029   6.821   4.484   0.308 -0.1275  0.4059  0.9038
 2798TIP3    H230030   6.746   4.558   0.199 -0.5154  1.7886  2.0780
 2799TIP3   OH230031   4.872   4.508   6.633  0.2282 -0.0112 -0.0981
 2799TIP3    H130032   4.880   4.572   6.704  0.6042  0.5232 -0.6140
 2799TIP3    H230033   4.777   4.500   6.619  0.0135 -1.7229  1.8801
 2800TIP3   OH230034   4.411   2.950   7.495 -0.0052 -0.1395 -0.1923
 2800TIP3    H130035   4.315   2.948   7.497 -0.0669  1.0739 -1.2309
 2800TIP3    H230036   4.436   2.864   7.461 -0.5879 -1.4930  2.5118
 2801TIP3   OH230037   3.756   5.875   7.523 -0.1820 -0.0369 -0.5910
 2801TIP3    H130038   3.680   5.919   7.484 -0.5027 -0.5660 -0.5735
 2801TIP3    H230039   3.728   5.785   7.534 -0.8692  0.4350  2.7683
 2802TIP3   OH230040   2.713   4.512   1.055 -0.0297  1.1792  0.4654
 2802TIP3    H130041   2.619   4.522   1.073 -0.2284 -1.0178  0.9765
 2802TIP3    H230042   2.720   4.426   1.013  1.8105  1.0743  0.9011
 2803TIP3   OH230043   5.550   4.731   8.229 -0.6663 -0.4894  0.2026
 2803TIP3    H130044   5.552   4.807   8.171  0.4145 -0.6325  0.0298
 2803TIP3    H230045   5.472   4.744   8.283 -1.0377  0.2361 -0.4935
 2804TIP3   OH230046   1.206   3.414   1.005  0.0707  0.7488  0.2103
 2804TIP3    H130047   1.147   3.373   0.942 -0.8156  2.1550  0.1073
 2804TIP3    H230048   1.258   3.475   0.953  0.5693  0.6312  0.5612
 2805TIP3   OH230049   6.523   1.881   8.428  0.3672 -0.0310  0.0726
 2805TIP3    H130050   6.468   1.955   8.453 -0.8802 -0.7556 -0.4084
 2805TIP3    H230051   6.486   1.806   8.474  1.7011 -0.3587  0.6708
 2806TIP3   OH230052   4.595   2.256   8.197 -0.2184 -0.4067  0.1023
 2806TIP3    H130053   4.509   2.297   8.184  0.1587  0.5170  0.3868
 2806TIP3    H230054   4.617   2.220   8.111 -0.4665  0.2059 -0.2258
 2807TIP3   OH230055   3.125   1.782   7.291 -0.0505 -0.0177 -0.2670
 2807TIP3    H130056   3.088   1.834   7.219  0.2930  1.4773  0.5833
 2807TIP3    H230057   3.056   1.780   7.357  0.5614  0.9600  0.4459
 2808TIP3   OH230058   3.792   1.771   0.757 -0.1284  0.3803  0.0251
 2808TIP3    H130059   3.718   1.712   0.766  0.8253 -0.8006  0.4875
 2808TIP3    H230060   3.830   1.776   0.845  1.6506 -0.8700 -0.6116
 2809TIP3   OH230061   1.909   6.132   1.704 -0.6504 -0.0980 -0.3330
 2809TIP3    H130062   1.928   6.150   1.612 -0.0075 -1.0271 -0.3946
 2809TIP3    H230063   1.814   6.116   1.707 -0.9109  1.3178 -0.5858
 2810TIP3   OH230064   0.918   0.089   8.183  0.2446 -0.1854  0.4756
 2810TIP3    H130065   0.926   0.185   8.188 -1.1331  0.0256 -0.7000
 2810TIP3    H230066   1.008   0.058   8.177  0.7440  0.9836  1.5508
 2811TIP3   OH230067   0.888   0.676   1.615  0.2185 -0.2535 -0.3123
 2811TIP3    H130068   0.948   0.723   1.557 -0.9511  1.0880 -0.4730
 2811TIP3    H230069   0.850   0.743   1.671  0.1285 -1.3198  0.9463
 2812TIP3   OH230070   1.111   5.809   1.693  0.3293 -0.0775 -0.2866
 2812TIP3    H130071   1.185   5.839   1.747  0.2171  1.7722 -1.0635
 2812TIP3    H230072   1.053   5.886   1.689 -0.3013 -0.6129 -1.9271
 2813TIP3   OH230073   6.371   4.400   1.438 -0.0323  0.0105  0.4893
 2813TIP3    H130074   6.319   4.421   1.360 -0.6478  1.4923  1.2501
 2813TIP3    H230075   6.352   4.308   1.456  0.8289 -0.6330 -1.6011
 2814TIP3   OH230076   6.180   3.184   1.803  0.1585  0.0246  0.4210
 2814TIP3    H130077   6.105   3.235   1.835 -0.1835  1.3718 -2.2556
 2814TIP3    H230078   6.220   3.240   1.737  2.9704 -1.0944  1.0617
 2815TIP3   OH230079   2.026   2.654   7.661  0.2676  0.2308  0.2143
 2815TIP3    H130080   2.089   2.727   7.656  2.1491 -1.3304 -0.1127
 2815TIP3    H230081   2.045   2.601   7.584 -0.4335 -1.0814  0.9208
 2816TIP3   OH230082   3.446   1.501   0.985 -0.3364 -0.1497  0.0541
 2816TIP3    H130083   3.470   1.428   1.042 -0.5535 -0.8355 -0.7279
 2816TIP3    H230084   3.371   1.541   1.029 -0.1727 -0.3421  0.5204
 2817TIP3   OH230085   0.131   0.303   1.468  0.1185  0.1876  0.5406
 2817TIP3    H130086   0.070   0.234   1.442 -1.6963  2.0264 -0.3418
 2817TIP3    H230087   0.077   0.367   1.514  1.6496  1.2636  0.9226
 2818TIP3   OH230088   2.441   3.390   7.848  0.0999 -0.1581 -0.4317
 2818TIP3    H130089   2.432   3.337   7.770  1.4526 -1.5240  0.2820
 2818TIP3    H230090   2.443   3.327   7.920 -0.6632  1.0250  0.6691
 2819TIP3   OH230091   1.292   4.159   0.719  0.0994  0.2481  0.5798
 2819TIP3    H130092   1.274   4.219   0.792  3.5594  2.0603  0.1445
 2819TIP3    H230093   1.387   4.151   0.718 -0.0735 -4.1642 -0.4044
 2820TIP3   OH230094   1.310   0.574   1.863 -0.1665  0.2165  0.3973
 2820TIP3    H130095   1.304   0.511   1.934  0.1149  0.5635  0.7321
 2820TIP3    H230096   1.404   0.581   1.845 -0.3270 -2.0908 -2.0180
 2821TIP3   OH230097   6.125   0.607   7.542  0.6263  0.4200  0.6837
 2821TIP3    H130098   6.067   0.682   7.530  1.3554  1.0314  0.8822
 2821TIP3    H230099   6.213   0.643   7.527  1.0385 -0.2431  1.4599
 2822TIP3   OH230100   0.207   3.924   2.073 -0.2153  0.4361  0.4234
 2822TIP3    H130101   0.189   3.854   2.136  0.1756  0.6887  0.8228
 2822TIP3    H230102   0.302   3.938   2.079  0.0751 -0.5257 -1.2632
 2823TIP3   OH230103   0.190   6.689   2.118 -0.4560  0.1328  0.2935
 2823TIP3    H130104   0.113   6.658   2.167  0.1146 -1.1485  0.4281
 2823TIP3    H230105   0.263   6.638   2.154  0.4434  1.2170  0.0608
 2824TIP3   OH230106   6.773   1.271   8.638  0.0475  0.3070  0.6990
 2824TIP3    H130107   6.865   1.297   8.641  0.4341 -1.0612  1.3905
 2824TIP3    H230108   6.740   1.309   8.557  0.8778  1.8746  1.0485
 2825TIP3   OH230109   0.614   6.244   1.019 -0.1997  0.2469  0.3550
 2825TIP3    H130110   0.570   6.203   0.946 -2.0904  0.4859  1.3066
 2825TIP3    H230111   0.571   6.208   1.097 -0.1024  1.9878  1.2729
 2826TIP3   OH230112   1.058   5.478   1.096  0.1094 -0.1284  0.1070
 2826TIP3    H130113   1.137   5.433   1.064  2.4981  2.6642  1.5948
 2826TIP3    H230114   1.050   5.555   1.040 -2.1642 -0.7374 -0.5248
 2827TIP3   OH230115   4.522   5.964   7.282 -0.4192 -0.1675 -0.2973
 2827TIP3    H130116   4.613   5.995   7.293 -0.1889 -1.4275  1.8743
 2827TIP3    H230117   4.470   6.024   7.335 -0.4435 -1.2403  0.9209
 2828TIP3   OH230118   6.544   5.690   7.909  0.3387  0.4575 -0.3406
 2828TIP3    H130119   6.578   5.731   7.829  1.9657  0.7996  0.4797
 2828TIP3    H230120   6.605   5.718   7.978 -0.5269 -0.5337  0.8679
 2829TIP3   OH230121   4.187   0.369   2.294  0.1795 -0.2992 -0.1531
 2829TIP3    H130122   4.189   0.273   2.297 -1.7620 -0.3773  0.3855
 2829TIP3    H230123   4.147   0.394   2.378 -0.5844  0.8934 -0.8430
 2830TIP3   OH230124   0.227   4.086   1.609  0.1257  0.5094  0.9246
 2830TIP3    H130125   0.313   4.059   1.640 -0.1072 -1.3174  0.1439
 2830TIP3    H230126   0.165   4.053   1.674 -0.1124 -0.1092  0.3988
 2831TIP3   OH230127   0.016   4.166   1.370 -0.0681 -0.2325  0.3037
 2831TIP3    H130128  -0.050   4.231   1.392  1.5969  1.6245  0.0777
 2831TIP3    H230129   0.069   4.157   1.449  0.2699 -0.6246  0.0364
 2832TIP3   OH230130   1.702   1.474   0.167 -0.4757  0.1964  0.3499
 2832TIP3    H130131   1.670   1.564   0.176  0.0457  0.6067 -1.3740
 2832TIP3    H230132   1.662   1.443   0.085 -1.5717 -1.5908  1.4820
 2833TIP3   OH230133   1.240   1.307   7.132 -0.5287  0.0605 -0.2169
 2833TIP3    H130134   1.180   1.339   7.064 -0.7285  0.3572  0.0937
 2833TIP3    H230135   1.218   1.359   7.210 -0.5241 -0.4935  0.1643
 2834TIP3   OH230136   1.410   4.359   6.965 -0.3295  0.2697  0.2963
 2834TIP3    H130137   1.504   4.346   6.951 -0.1876  1.3505  0.0840
 2834TIP3    H230138   1.391   4.441   6.918 -1.4184 -0.0387  0.1767
 2835TIP3   OH230139   3.302   5.647   0.406  0.0441  0.0265 -0.1704
 2835TIP3    H130140   3.337   5.561   0.431 -3.1014 -1.0747  0.9210
 2835TIP3    H230141   3.279   5.637   0.313 -0.4686 -0.4067 -0.0048
 2836TIP3   OH230142   2.394   3.344   1.774 -0.0262  0.4942  0.2837
 2836TIP3    H130143   2.364   3.435   1.780  0.3082  0.6693 -0.4493
 2836TIP3    H230144   2.403   3.329   1.680 -0.3230 -0.3870  0.3871
 2837TIP3   OH230145   4.546   3.752   1.144  0.1499  0.5640  0.0818
 2837TIP3    H130146   4.628   3.800   1.154 -0.2274  1.1333  0.4906
 2837TIP3    H230147   4.553   3.710   1.058  1.3709 -0.3717  0.5972
 2838TIP3   OH230148   1.290   4.270   1.852 -0.0261 -0.2045  0.5593
 2838TIP3    H130149   1.240   4.340   1.896  0.5860  0.8237 -0.3371
 2838TIP3    H230150   1.228   4.197   1.846 -0.7943  0.3683  1.2177
 2839TIP3   OH230151   6.371   2.598   8.291 -0.1836  0.3156  0.3587
 2839TIP3    H130152   6.456   2.577   8.254 -0.7904 -3.1800  0.5811
 2839TIP3    H230153   6.325   2.646   8.222  0.3338 -1.9759 -1.6893
 2840TIP3   OH230154   1.574   5.220   0.487  0.1487 -0.3250  0.1229
 2840TIP3    H130155   1.551   5.273   0.411 -0.4285 -0.0260  0.4903
 2840TIP3    H230156   1.669   5.224   0.492  0.2359 -0.9040 -0.9647
 2841TIP3   OH230157   5.255   0.380   2.070  0.0664 -0.4206  0.0145
 2841TIP3    H130158   5.328   0.416   2.020 -0.2432  1.1103  0.6342
 2841TIP3    H230159   5.295   0.342   2.148  0.4596 -2.0751 -0.9424
 2842TIP3   OH230160   3.966   6.623   7.902 -0.7707  0.0738 -0.2790
 2842TIP3    H130161   3.962   6.616   7.997 -2.1418 -0.2288 -0.3339
 2842TIP3    H230162   4.059   6.616   7.881 -0.4921 -0.3582  0.9990
 2843TIP3   OH230163   1.869   5.282   0.470  0.3110  0.1977  0.2460
 2843TIP3    H130164   1.912   5.355   0.426  3.3108 -0.7623  1.3124
 2843TIP3    H230165   1.844   5.222   0.400 -0.3346  1.2958 -0.4851
 2844TIP3   OH230166   0.754   0.567   0.599 -0.2777  0.5577 -0.0982
 2844TIP3    H130167   0.664   0.549   0.573  0.2981 -1.0776 -1.1559
 2844TIP3    H230168   0.748   0.597   0.690 -1.8403 -0.0344  0.0165
 2845TIP3   OH230169   5.610   6.005   1.051  0.4745 -0.0970 -0.0963
 2845TIP3    H130170   5.637   6.096   1.049 -1.6702  0.5895 -0.2724
 2845TIP3    H230171   5.670   5.961   0.990  1.5128  1.1759 -0.0284
 2846TIP3   OH230172   5.138   4.432   6.294  0.2132 -0.6121  0.5846
 2846TIP3    H130173   5.196   4.472   6.359 -0.4744  1.6442 -0.1122
 2846TIP3    H230174   5.055   4.478   6.305 -0.0150 -0.3896 -1.6581
 2847TIP3   OH230175   5.114   0.436   8.012  0.2959  0.4611  0.5224
 2847TIP3    H130176   5.207   0.451   8.000 -0.0716  0.7263 -2.9831
 2847TIP3    H230177   5.077   0.523   8.029  0.6142  0.3998  1.5845
 2848TIP3   OH230178   1.231   0.835   7.161  0.3801 -0.0083 -0.5010
 2848TIP3    H130179   1.248   0.929   7.152  1.7835 -0.1237  0.5073
 2848TIP3    H230180   1.195   0.826   7.250 -0.3359 -0.3723 -0.8174
 2849TIP3   OH230181   3.748   2.121   7.415 -0.3953 -0.3560  0.3029
 2849TIP3    H130182   3.827   2.140   7.465  0.5279 -0.4055 -1.0762
 2849TIP3    H230183   3.726   2.204   7.373 -0.7037 -0.5031  0.1704
 2850TIP3   OH230184   0.072   2.764   0.804  0.4429 -0.0570  0.8210
 2850TIP3    H130185   0.168   2.766   0.806  0.5703 -0.4126 -1.5111
 2850TIP3    H230186   0.051   2.697   0.739 -1.4065  0.0728  1.2261
 2851TIP3   OH230187   0.720   6.910   7.867 -0.5337  0.1727  0.0343
 2851TIP3    H130188   0.688   6.975   7.930  1.4933  0.7217  0.5544
 2851TIP3    H230189   0.685   6.941   7.783 -2.5656 -0.1037  0.7039
 2852TIP3   OH230190   3.763   4.139   6.358 -0.0151 -0.6936 -0.6030
 2852TIP3    H130191   3.783   4.186   6.276  0.8085 -0.3180 -0.1877
 2852TIP3    H230192   3.669   4.120   6.351 -0.5623  1.6582 -0.4810
 2853TIP3   OH230193   0.764   6.218   7.153  0.1770 -0.0733 -0.8136
 2853TIP3    H130194   0.849   6.260   7.136  0.6663 -0.6220  0.1414
 2853TIP3    H230195   0.706   6.290   7.178  1.2550  0.0298  1.7643
 2854TIP3   OH230196   3.767   0.494   1.057 -0.0415 -0.3113  0.0709
 2854TIP3    H130197   3.707   0.488   1.131  0.5758  1.1294  0.7240
 2854TIP3    H230198   3.813   0.577   1.071 -0.2343  0.2200 -2.1816
 2855TIP3   OH230199   4.557   2.772   1.207  0.3616 -0.2618 -0.5790
 2855TIP3    H130200   4.573   2.855   1.162 -0.9107  1.1910  1.4843
 2855TIP3    H230201   4.474   2.741   1.171 -0.2450  0.4786  0.1651
 2856TIP3   OH230202   2.148   2.923   0.074 -0.2252  0.6699 -0.1115
 2856TIP3    H130203   2.201   2.988   0.028  0.1782  0.1814 -0.3527
 2856TIP3    H230204   2.211   2.874   0.127 -0.5358  0.5287  0.1316
 2857TIP3   OH230205   5.920   4.587   7.439 -0.4539 -0.8109 -0.2869
 2857TIP3    H130206   5.991   4.524   7.428 -0.4809 -0.6607 -1.5596
 2857TIP3    H230207   5.849   4.537   7.480 -0.3682 -1.5396 -0.9957
 2858TIP3   OH230208   6.089   4.164   1.725  0.4152 -0.2409  0.3162
 2858TIP3    H130209   6.035   4.243   1.727  1.2933  0.4341 -1.0437
 2858TIP3    H230210   6.175   4.193   1.755  0.3489 -1.0465  1.3271
 2859TIP3   OH230211   4.252   0.846   7.637 -0.0252  0.2613 -0.2015
 2859TIP3    H130212   4.224   0.888   7.556  0.7471 -0.1634 -0.6897
 2859TIP3    H230213   4.170   0.833   7.686 -0.7576 -1.0870 -1.6664
 2860TIP3   OH230214   0.493   3.522   7.921 -0.4425 -0.7004  0.2172
 2860TIP3    H130215   0.471   3.483   7.836 -0.1924  1.3536 -0.8588
 2860TIP3    H230216   0.420   3.581   7.940  0.2116 -0.0100  0.6613
 2861TIP3   OH230217   4.109   3.132   1.750  0.3119 -0.1907 -0.1669
 2861TIP3    H130218   4.078   3.053   1.706 -1.7040  0.4527 -0.0130
 2861TIP3    H230219   4.093   3.116   1.843  1.5093 -0.2572  0.0454
 2862TIP3   OH230220   5.654   1.230   8.513  0.2296  0.1504  0.6951
 2862TIP3    H130221   5.744   1.233   8.545  0.6592 -0.9977 -0.3157
 2862TIP3    H230222   5.616   1.153   8.554  0.5139 -0.8238 -0.7964
 2863TIP3   OH230223   6.864   1.830   7.297 -0.0713 -0.0814 -0.4019
 2863TIP3    H130224   6.887   1.879   7.218 -0.0454 -0.9480 -0.9470
 2863TIP3    H230225   6.771   1.809   7.285  0.1794 -1.0769 -0.6877
 2864TIP3   OH230226   0.248   0.065   0.673 -0.0190  0.4388 -0.2066
 2864TIP3    H130227   0.229  -0.017   0.719 -0.3671  0.5896 -0.0782
 2864TIP3    H230228   0.317   0.042   0.611 -0.5004 -0.0934 -0.5687
 2865TIP3   OH230229   3.718   5.631   6.221  0.2254  0.1987  0.0328
 2865TIP3    H130230   3.649   5.680   6.177  1.1127  0.2152 -1.3813
 2865TIP3    H230231   3.746   5.565   6.158  2.1360  0.7841  0.2050
 2866TIP3   OH230232   5.243   4.730   8.144 -0.0911  0.0931  0.1329
 2866TIP3    H130233   5.152   4.730   8.115  0.1152  3.7676 -1.0125
 2866TIP3    H230234   5.241   4.770   8.231  0.5317  2.5827 -0.9128
 2867TIP3   OH230235   1.286   2.718   8.022 -0.5582  0.0161  0.5484
 2867TIP3    H130236   1.304   2.664   7.945 -1.6908 -0.1797  0.4077
 2867TIP3    H230237   1.334   2.675   8.092  0.4123  0.1451 -0.0159
 2868TIP3   OH230238   1.624   2.956   8.504  0.4643 -0.2457  0.1970
 2868TIP3    H130239   1.675   3.035   8.487  1.6964 -1.1456 -0.5142
 2868TIP3    H230240   1.662   2.919   8.583  0.9068 -0.8896 -0.3021
 2869TIP3   OH230241   5.969   4.012   6.815 -0.3526  0.0123 -0.0587
 2869TIP3    H130242   5.876   4.027   6.801 -1.5284 -2.0007  4.1750
 2869TIP3    H230243   5.995   4.077   6.880  0.5924 -0.8702  0.4824
 2870TIP3   OH230244   2.008   2.166   0.339 -0.2798  0.1282  0.0419
 2870TIP3    H130245   2.062   2.202   0.410  0.1798  1.2708 -0.8617
 2870TIP3    H230246   2.067   2.108   0.291 -0.8977 -1.5657  1.2241
 2871TIP3   OH230247   1.708   2.072   8.034  0.1167 -0.6619  0.0553
 2871TIP3    H130248   1.661   2.154   8.016  1.4718 -0.0442 -0.8078
 2871TIP3    H230249   1.672   2.010   7.970 -0.0249 -0.4028 -0.1173
 2872TIP3   OH230250   0.346   5.329   0.680 -0.3088 -0.3542 -0.0278
 2872TIP3    H130251   0.344   5.234   0.696  0.4855 -0.6469 -1.4457
 2872TIP3    H230252   0.254   5.354   0.674 -0.5244 -1.1887 -0.3900
 2873TIP3   OH230253   3.461   3.380   7.956  0.2191 -0.4704  0.0301
 2873TIP3    H130254   3.481   3.316   7.887 -0.4927 -0.0711 -0.5665
 2873TIP3    H230255   3.412   3.331   8.021 -2.1229 -0.1535 -1.3742
 2874TIP3   OH230256   6.735   0.665   7.293 -0.0639  0.2080  0.4239
 2874TIP3    H130257   6.751   0.759   7.279 -0.3028  0.1654 -0.1853
 2874TIP3    H230258   6.766   0.648   7.382 -1.6575  1.2247  1.2029
 2875TIP3   OH230259   3.484   6.731   7.381 -0.4875 -0.2008  0.7469
 2875TIP3    H130260   3.503   6.820   7.352  1.7425 -0.9701 -0.3319
 2875TIP3    H230261   3.414   6.702   7.322 -0.3257  0.3859  0.2540
 2876TIP3   OH230262   5.091   3.714   7.983  0.0661 -0.0087  0.6469
 2876TIP3    H130263   5.185   3.717   7.964  0.4945 -1.5198  2.3388
 2876TIP3    H230264   5.052   3.772   7.917  2.2106  1.0301  0.1922
 2877TIP3   OH230265   6.762   1.833   1.288 -0.0501  0.1007  0.2819
 2877TIP3    H130266   6.760   1.777   1.365 -3.0751 -0.7628 -0.3026
 2877TIP3    H230267   6.727   1.917   1.318  1.0465  0.5446  0.3538
 2878TIP3   OH230268   3.255   3.045   1.302  0.3715  0.7274 -0.2030
 2878TIP3    H130269   3.279   2.965   1.254  0.4354  0.1525  0.7781
 2878TIP3    H230270   3.265   3.022   1.394 -1.3175  1.3250  0.1609
 2879TIP3   OH230271   3.497   4.471   0.830 -0.4590 -0.2081  0.3587
 2879TIP3    H130272   3.412   4.515   0.831 -0.1133  0.4714  0.6291
 2879TIP3    H230273   3.542   4.505   0.907  0.4547  0.2200 -0.3544
 2880TIP3   OH230274   5.800   0.103   8.025  0.3247  0.0705 -0.7562
 2880TIP3    H130275   5.785   0.016   8.062  0.7899  0.2743 -0.0686
 2880TIP3    H230276   5.839   0.086   7.939 -0.0520 -0.4029 -0.8361
 2881TIP3   OH230277   2.770   0.583   8.372 -0.2824  0.2912 -0.2192
 2881TIP3    H130278   2.764   0.502   8.423 -1.8843 -0.2032 -1.1400
 2881TIP3    H230279   2.864   0.601   8.368 -0.0259 -0.1889  2.0259
 2882TIP3   OH230280   2.040   2.732   0.616 -0.2195  0.2025  0.6509
 2882TIP3    H130281   2.116   2.711   0.671  0.0344  1.5880  0.8648
 2882TIP3    H230282   1.965   2.725   0.675 -0.2008 -0.5947  0.5856
 2883TIP3   OH230283   3.813   6.606   1.001 -0.3393 -0.1816 -0.2093
 2883TIP3    H130284   3.746   6.644   0.943 -0.4197 -1.4013 -0.9376
 2883TIP3    H230285   3.828   6.519   0.966  0.8041 -0.3453  0.6561
 2884TIP3   OH230286   0.665   4.457   6.925  0.6127 -0.2046  0.0367
 2884TIP3    H130287   0.612   4.530   6.891  1.0486  0.4841  0.7953
 2884TIP3    H230288   0.645   4.384   6.867  2.5188  1.3027 -2.7573
 2885TIP3   OH230289   3.958   0.788   7.722  0.2316  0.4093 -0.2636
 2885TIP3    H130290   3.866   0.816   7.722 -0.1895 -0.9037 -0.3492
 2885TIP3    H230291   3.963   0.722   7.653  0.4941 -1.8055  1.7463
 2886TIP3   OH230292   3.505   3.570   0.464 -0.3413  0.3936  0.6956
 2886TIP3    H130293   3.429   3.514   0.451 -0.7183  0.6695  1.5799
 2886TIP3    H230294   3.571   3.512   0.502  0.9501 -0.5409 -2.6274
 2887TIP3   OH230295   5.144   5.603   1.431  0.1916 -0.3323  0.4782
 2887TIP3    H130296   5.193   5.570   1.507 -1.2842 -0.1745  1.5416
 2887TIP3    H230297   5.052   5.600   1.458 -0.1996  2.7720 -0.0646
 2888TIP3   OH230298   6.072   1.217   2.395  0.0108  0.4214  0.2771
 2888TIP3    H130299   6.151   1.271   2.395 -0.9486  1.8941  0.3175
 2888TIP3    H230300   6.102   1.130   2.370  1.6353  0.9502  0.2672
 2889TIP3   OH230301   6.437   3.663   7.736  0.0166 -0.7540 -0.0749
 2889TIP3    H130302   6.468   3.747   7.772  2.4735 -0.7937 -1.8472
 2889TIP3    H230303   6.371   3.687   7.672 -0.2634 -0.2803  0.3850
 2890TIP3   OH230304   3.670   5.192   0.053 -0.4664 -0.0189 -0.1410
 2890TIP3    H130305   3.723   5.262   0.014  0.1303 -0.6140 -0.4096
 2890TIP3    H230306   3.648   5.225   0.141  2.4235 -0.7613  0.9445
 2891TIP3   OH230307   4.138   4.953   1.570  0.0950 -0.5831  0.6460
 2891TIP3    H130308   4.047   4.981   1.555 -0.2894 -1.8510  0.4281
 2891TIP3    H230309   4.174   5.018   1.629 -0.2636  1.1890 -0.9851
 2892TIP3   OH230310   4.874   3.882   8.003  0.1796  0.3809 -0.1825
 2892TIP3    H130311   4.857   3.810   8.064  0.4570  0.8976  0.5293
 2892TIP3    H230312   4.791   3.931   7.999  0.6595  1.3939  1.2378
 2893TIP3   OH230313   0.086   4.572   8.629  0.4970  0.2447  0.1071
 2893TIP3    H130314  -0.000   4.572   8.589  0.4042  0.6136  0.3058
 2893TIP3    H230315   0.072   4.538   8.718  0.6643 -0.3413 -0.0826
 2894TIP3   OH230316   3.098   5.086   0.017  0.1095  0.1557  0.0184
 2894TIP3    H130317   3.106   4.991   0.016 -0.5218  0.0995 -0.3587
 2894TIP3    H230318   3.024   5.105  -0.040  2.0179  1.0543 -2.3832
 2895TIP3   OH230319   4.763   2.233   2.129 -0.1981 -0.2499  0.2547
 2895TIP3    H130320   4.809   2.219   2.047  0.7199 -0.7838  0.8507
 2895TIP3    H230321   4.743   2.327   2.129 -0.2158 -0.2454 -0.5728
 2896TIP3   OH230322   1.911   4.898   7.034 -0.5184  0.2782  0.6289
 2896TIP3    H130323   1.910   4.845   6.954  0.1947 -1.2470  1.5831
 2896TIP3    H230324   1.968   4.850   7.094  0.3011  2.2513  1.5069
 2897TIP3   OH230325   1.974   6.032   8.235  0.3502  0.5962 -0.4517
 2897TIP3    H130326   1.879   6.022   8.228  0.0696  2.8049 -0.6162
 2897TIP3    H230327   2.006   5.947   8.264 -1.7186 -0.0987 -0.0928
 2898TIP3   OH230328   3.435   0.673   1.596  0.3337  0.5386 -0.5606
 2898TIP3    H130329   3.428   0.665   1.501  0.4459 -1.1139 -0.4616
 2898TIP3    H230330   3.521   0.637   1.617  0.8869  2.1149  0.0725
 2899TIP3   OH230331   6.684   2.917   0.163 -0.1872  0.6195  0.0104
 2899TIP3    H130332   6.650   2.946   0.078 -0.0702  2.0762  0.4338
 2899TIP3    H230333   6.620   2.950   0.227 -0.1135 -0.1956  0.5231
 2900TIP3   OH230334   1.146   5.257   1.744 -0.5857 -0.3093 -0.2316
 2900TIP3    H130335   1.194   5.184   1.706  0.6483  0.9342 -1.2054
 2900TIP3    H230336   1.057   5.248   1.711 -0.1604 -0.7318 -1.2969
 2901TIP3   OH230337   2.403   0.730   2.088 -0.5433 -0.2337 -0.2303
 2901TIP3    H130338   2.480   0.773   2.127 -0.1195  0.8161 -2.1167
 2901TIP3    H230339   2.357   0.692   2.163  2.1303 -1.4899  0.9119
 2902TIP3   OH230340   4.929   2.902   7.317 -0.2555 -0.2571  0.6678
 2902TIP3    H130341   4.973   2.829   7.361  2.6987 -0.1045 -1.7646
 2902TIP3    H230342   4.954   2.979   7.367  1.1522 -0.3421  0.1310
 2903TIP3   OH230343   4.459   1.510   0.018 -0.1357  0.1657  0.0987
 2903TIP3    H130344   4.427   1.493  -0.070  0.2281  1.0139 -0.2109
 2903TIP3    H230345   4.519   1.437   0.036  0.0230  0.1465 -0.4802
 2904TIP3   OH230346   3.292   2.724   2.095 -0.0256 -0.4894  0.3177
 2904TIP3    H130347   3.321   2.646   2.143  0.3248  0.4295  1.6639
 2904TIP3    H230348   3.306   2.796   2.156 -1.5447  0.4858 -0.4165
 2905TIP3   OH230349   2.969   1.346   1.254  0.1071 -0.2772  0.6030
 2905TIP3    H130350   2.903   1.277   1.241  0.7672 -0.7356 -0.4694
 2905TIP3    H230351   2.959   1.372   1.345 -0.4981 -1.4531  0.8941
 2906TIP3   OH230352   4.364   3.872   1.608 -0.3801 -0.2327  0.2453
 2906TIP3    H130353   4.420   3.923   1.549 -1.0402  0.6708  0.3797
 2906TIP3    H230354   4.374   3.782   1.578  2.2661 -0.3360  1.1456
 2907TIP3   OH230355   4.052   3.603   0.447  0.2879  0.3508 -0.5436
 2907TIP3    H130356   4.019   3.647   0.526 -0.4001 -1.3025  0.1364
 2907TIP3    H230357   4.054   3.672   0.381 -3.2053  0.9352 -0.2398
 2908TIP3   OH230358   4.221   1.757   6.536  0.0613 -0.5284 -0.0592
 2908TIP3    H130359   4.131   1.726   6.520 -0.6076 -0.6087  3.1822
 2908TIP3    H230360   4.237   1.820   6.466 -1.8948 -1.7083 -1.6905
 2909TIP3   OH230361   1.829   0.392   8.205  0.5089  0.6362 -0.1509
 2909TIP3    H130362   1.873   0.370   8.123  0.2435  0.1272 -0.1634
 2909TIP3    H230363   1.744   0.348   8.199  1.4512 -1.5918  1.4670
 2910TIP3   OH230364   6.314   0.425   0.180 -0.2085 -0.1840 -0.1050
 2910TIP3    H130365   6.274   0.349   0.222 -0.4737  0.2439  0.4234
 2910TIP3    H230366   6.253   0.447   0.109  0.3840 -1.0797 -0.9269
 2911TIP3   OH230367   5.590   0.679   0.719 -0.0369  0.4035 -0.7918
 2911TIP3    H130368   5.607   0.756   0.773  0.2585  0.0786 -0.4185
 2911TIP3    H230369   5.542   0.713   0.643 -1.5122  0.7080  0.2342
 2912TIP3   OH230370   2.344   1.142   6.644 -0.0113 -0.3334 -0.1211
 2912TIP3    H130371   2.336   1.126   6.550  2.6567 -0.6718 -0.3558
 2912TIP3    H230372   2.416   1.204   6.652  0.8679 -1.5153  1.7738
 2913TIP3   OH230373   1.476   0.242   0.091 -0.1768  0.0829  0.3935
 2913TIP3    H130374   1.455   0.152   0.067 -1.1799  0.3303  0.2854
 2913TIP3    H230375   1.400   0.272   0.141 -0.4944  1.3153 -0.7642
 2914TIP3   OH230376   6.474   0.404   6.841 -0.3031  0.1608 -0.3720
 2914TIP3    H130377   6.422   0.383   6.764 -1.0806 -0.9205  0.4067
 2914TIP3    H230378   6.491   0.498   6.835 -1.4944  0.3357 -1.1698
 2915TIP3   OH230379   3.050   0.236   7.682 -0.3689  0.2333  0.4600
 2915TIP3    H130380   3.079   0.286   7.758 -2.1176  2.7323 -0.4244
 2915TIP3    H230381   3.077   0.288   7.607 -0.1935 -1.3376 -0.6091
 2916TIP3   OH230382   3.107   4.665   7.240 -0.5098  0.1683  0.1687
 2916TIP3    H130383   3.088   4.645   7.148  1.1456 -1.0704  0.0551
 2916TIP3    H230384   3.024   4.651   7.285 -1.2979  0.5864 -1.1012
 2917TIP3   OH230385   5.474   2.552   7.191 -0.6831 -0.2863  0.4624
 2917TIP3    H130386   5.465   2.560   7.096 -2.9533  1.5003  0.7336
 2917TIP3    H230387   5.551   2.605   7.213 -0.9101  0.3700 -0.2750
 2918TIP3   OH230388   3.776   1.467   0.793  0.1210 -0.0586 -0.0795
 2918TIP3    H130389   3.762   1.385   0.841  1.3613 -0.7837 -0.9211
 2918TIP3    H230390   3.688   1.503   0.782 -0.5732 -1.7854 -0.5667
 2919TIP3   OH230391   3.616   1.949   1.625  0.7919  0.0492  0.1675
 2919TIP3    H130392   3.657   1.864   1.605  0.0638  0.1845 -2.1649
 2919TIP3    H230393   3.686   2.001   1.663  1.5312 -1.2473  0.6399
 2920TIP3   OH230394   4.287   0.617   7.360  0.3708  0.2287 -0.9662
 2920TIP3    H130395   4.236   0.653   7.433 -1.1252 -1.0257 -1.3062
 2920TIP3    H230396   4.305   0.691   7.304 -0.2615  0.8790 -0.3346
 2921TIP3   OH230397   5.653   1.113   7.387  0.3291 -0.3699 -0.2920
 2921TIP3    H130398   5.562   1.100   7.358 -0.4034 -0.8350  2.0111
 2921TIP3    H230399   5.674   1.033   7.436  2.4066 -0.7415 -1.6664
 2922TIP3   OH230400   4.872   0.873   0.800  1.3894  0.6536 -0.1942
 2922TIP3    H130401   4.881   0.835   0.887  1.1728 -0.9617 -0.8454
 2922TIP3    H230402   4.868   0.798   0.741  1.0358  1.7021 -1.5613
 2923TIP3   OH230403   0.348   0.168   8.507 -0.0139 -0.5501 -0.5569
 2923TIP3    H130404   0.285   0.187   8.577  1.1952 -1.6012  0.8759
 2923TIP3    H230405   0.431   0.156   8.552  1.2063  0.5971 -2.3903
 2924TIP3   OH230406   5.323   2.882   7.400 -0.0156  0.2655  0.3602
 2924TIP3    H130407   5.323   2.872   7.495  0.9973  1.2255  0.4843
 2924TIP3    H230408   5.270   2.810   7.368 -0.2678 -0.1421  1.6508
 2925TIP3   OH230409   6.053   2.763   7.449  0.5377 -0.4478 -0.2147
 2925TIP3    H130410   5.971   2.730   7.485  0.3983  0.3009  0.1685
 2925TIP3    H230411   6.100   2.799   7.524  0.9215 -0.2533 -0.5408
 2926TIP3   OH230412   3.872   4.956   1.639 -0.0237 -0.2905 -0.3306
 2926TIP3    H130413   3.796   4.900   1.653  0.6718 -1.2454 -0.3420
 2926TIP3    H230414   3.917   4.957   1.724  1.7510 -2.4562 -1.1521
 2927TIP3   OH230415   0.075   1.805   8.077 -0.9601  0.0465 -0.3362
 2927TIP3    H130416   0.019   1.770   8.007  0.3500 -1.3261 -0.7493
 2927TIP3    H230417   0.097   1.728   8.130 -1.4378  0.9685  1.2720
 2928TIP3   OH230418   5.960   0.415   1.742 -0.0879  0.4290  0.0462
 2928TIP3    H130419   6.041   0.459   1.715 -0.2098  2.2184  2.2955
 2928TIP3    H230420   5.891   0.475   1.716 -0.7440 -0.9582 -1.5917
 2929TIP3   OH230421   5.684   1.000   8.117 -0.3332  0.2240 -0.3025
 2929TIP3    H130422   5.683   0.905   8.133  0.9430  0.3055  0.3918
 2929TIP3    H230423   5.649   1.009   8.028  1.1519 -1.0707 -1.0872
 2930TIP3   OH230424   4.561   4.456   8.339  0.2860  0.2727  0.3348
 2930TIP3    H130425   4.644   4.503   8.348  0.8994 -0.6590 -0.2531
 2930TIP3    H230426   4.564   4.388   8.406  1.3584 -1.6424 -1.5236
 2931TIP3   OH230427   5.115   6.201   7.794  0.4167 -0.2915  0.0788
 2931TIP3    H130428   5.124   6.158   7.710 -0.2815 -0.5749  0.1408
 2931TIP3    H230429   5.022   6.225   7.799  0.6263  0.5079  0.3880
 2932TIP3   OH230430   5.098   2.946   8.334  0.7886 -0.2100 -0.5553
 2932TIP3    H130431   5.184   2.988   8.328  0.1402  1.0634 -1.3646
 2932TIP3    H230432   5.074   2.955   8.427  0.0734  2.5842 -0.9010
 2933TIP3   OH230433   6.774   2.621   7.104  0.3374 -0.3890 -0.1444
 2933TIP3    H130434   6.738   2.564   7.172 -1.3594  0.6034 -0.1468
 2933TIP3    H230435   6.765   2.709   7.141  1.4970  0.0127 -0.7624
 2934TIP3   OH230436   2.135   4.117   7.396 -0.0982 -0.8479  0.6237
 2934TIP3    H130437   2.193   4.184   7.433  0.2450 -0.1887 -1.0007
 2934TIP3    H230438   2.064   4.109   7.460 -1.0450  2.2905  0.1713
 2935TIP3   OH230439   6.921   2.057   0.965  0.0477  0.1354  0.2404
 2935TIP3    H130440   6.830   2.081   0.984  0.4248  2.3222 -0.4973
 2935TIP3    H230441   6.916   2.011   0.881 -0.5166 -1.1042  0.9243
 2936TIP3   OH230442   6.742   4.586   8.607  0.3827  0.2311  0.1592
 2936TIP3    H130443   6.714   4.497   8.630  0.4856  0.1321 -0.0989
 2936TIP3    H230444   6.698   4.604   8.524  0.1261  0.5339  0.3625
 2937TIP3   OH230445   0.625   6.000   0.682  0.3980  0.0442 -0.0150
 2937TIP3    H130446   0.550   6.050   0.714  0.9348  0.1954  1.0635
 2937TIP3    H230447   0.637   6.030   0.591  0.1230  1.1800  0.3035
 2938TIP3   OH230448   4.674   4.403   8.629 -0.0519 -0.4986  0.1549
 2938TIP3    H130449   4.761   4.366   8.640 -0.7429 -2.5144 -0.6822
 2938TIP3    H230450   4.674   4.482   8.684  1.8611 -1.1350  1.1555
 2939TIP3   OH230451   0.332   0.472   0.880 -0.1024  0.5352 -0.1163
 2939TIP3    H130452   0.400   0.450   0.943 -0.6015  1.0176  0.5990
 2939TIP3    H230453   0.306   0.388   0.842  0.3734  0.2741  0.1358
 2940TIP3   OH230454   3.573   0.624   0.365  0.2929  0.2270  0.5873
 2940TIP3    H130455   3.557   0.562   0.435  1.6221  0.0158  0.7141
 2940TIP3    H230456   3.619   0.696   0.406  0.2565  0.5311  0.1076
 2941TIP3   OH230457   2.524   2.372   6.492 -0.2445  0.1584 -0.7436
 2941TIP3    H130458   2.525   2.282   6.459  0.2054  0.6915 -2.2644
 2941TIP3    H230459   2.586   2.372   6.564 -2.3761 -1.4048  1.2288
 2942TIP3   OH230460   6.754   4.040   8.107 -0.6753 -0.4202  0.4627
 2942TIP3    H130461   6.828   4.049   8.167 -0.6485 -1.2983  0.5756
 2942TIP3    H230462   6.741   3.945   8.099  0.7586 -0.4827 -2.6798
 2943TIP3   OH230463   3.772   1.345   1.664 -0.4301  0.0653 -0.0198
 2943TIP3    H130464   3.788   1.373   1.754 -1.6204  0.2703  0.1538
 2943TIP3    H230465   3.676   1.345   1.656 -0.3383  1.4762 -1.7323
 2944TIP3   OH230466   0.839   2.640   8.306  0.8758 -0.6766  0.1390
 2944TIP3    H130467   0.891   2.609   8.380 -0.4886  0.5455  1.6634
 2944TIP3    H230468   0.799   2.721   8.336 -1.1781 -1.0791 -1.2811
 2945TIP3   OH230469   3.009   3.948   1.268 -0.4499  0.5006 -0.4085
 2945TIP3    H130470   2.942   3.944   1.336  1.5941  0.7268  1.7685
 2945TIP3    H230471   3.042   3.858   1.261 -0.2201  0.6001 -0.6369
 2946TIP3   OH230472   5.533   1.590   8.028  0.9156  0.3585  0.1571
 2946TIP3    H130473   5.497   1.502   8.041  1.9155 -0.3061 -1.2185
 2946TIP3    H230474   5.541   1.598   7.933 -0.6769  2.6002  0.1490
 2947TIP3   OH230475   3.866   4.692   0.951 -0.6006  0.1450  0.6421
 2947TIP3    H130476   3.953   4.671   0.918 -0.5750  0.7642  0.3125
 2947TIP3    H230477   3.863   4.787   0.955 -1.8209  0.2098 -0.8875
 2948TIP3   OH230478   3.607   2.745   7.002  0.0432  0.1849 -0.2499
 2948TIP3    H130479   3.692   2.709   6.978  0.0483  0.3682 -0.5218
 2948TIP3    H230480   3.549   2.669   7.007  0.4990 -0.0926  1.1987
 2949TIP3   OH230481   3.765   2.589   0.747  0.0061 -0.1611  0.5553
 2949TIP3    H130482   3.745   2.496   0.747 -0.4971 -0.0650  0.0478
 2949TIP3    H230483   3.858   2.595   0.767  0.4798 -0.8893 -1.2223
 2950TIP3   OH230484   3.803   6.304   1.544  0.1022  0.3475  0.0642
 2950TIP3    H130485   3.803   6.244   1.470 -1.1083  1.3436 -0.8074
 2950TIP3    H230486   3.859   6.263   1.609 -0.2805 -1.4603 -0.6836
 2951TIP3   OH230487   1.380   3.309   1.449 -0.3916 -0.4214 -0.4672
 2951TIP3    H130488   1.455   3.274   1.498  1.3431  1.7227 -1.4302
 2951TIP3    H230489   1.396   3.283   1.358 -0.1883  0.9738 -0.8557
 2952TIP3   OH230490   5.366   5.789   0.868  0.1002  0.2281  0.5301
 2952TIP3    H130491   5.328   5.848   0.803 -1.7567  1.2993  2.4445
 2952TIP3    H230492   5.436   5.743   0.822 -0.0563  2.1032 -1.7405
 2953TIP3   OH230493   4.616   0.257   8.258  0.0341  0.2122  0.7212
 2953TIP3    H130494   4.610   0.202   8.335 -0.5178  0.8391  1.1389
 2953TIP3    H230495   4.615   0.196   8.184  0.6193 -0.3929  1.2063
 2954TIP3   OH230496   1.916   2.133   1.749  0.2114  0.0255  0.4918
 2954TIP3    H130497   1.821   2.125   1.738  0.3354  0.5338 -1.3311
 2954TIP3    H230498   1.927   2.189   1.826 -0.9426 -0.5514  1.0982
 2955TIP3   OH230499   6.078   3.667   1.758  0.3442  0.1531  0.3742
 2955TIP3    H130500   6.047   3.756   1.745 -1.4544 -0.1309  2.2519
 2955TIP3    H230501   6.079   3.655   1.853  0.8328 -1.7438  0.1861
 2956TIP3   OH230502   6.185   0.219   0.318  0.4723  0.0651 -0.1094
 2956TIP3    H130503   6.218   0.148   0.372  1.1227 -2.2009 -3.1828
 2956TIP3    H230504   6.105   0.183   0.278 -0.0621  1.6647 -0.5524
 2957TIP3   OH230505   4.424   3.171   1.591 -0.3298  0.0085  0.0326
 2957TIP3    H130506   4.471   3.254   1.600 -0.0148 -0.3090  1.7379
 2957TIP3    H230507   4.422   3.135   1.680 -1.6510 -1.1716 -0.4340
 2958TIP3   OH230508   2.357   4.845   7.382 -0.4982  0.2097  0.1907
 2958TIP3    H130509   2.311   4.917   7.424 -0.8627 -0.6230  1.2856
 2958TIP3    H230510   2.417   4.887   7.320 -1.7416  1.3641 -0.2696
 2959TIP3   OH230511   4.265   1.615   2.501  0.7486  0.0766  0.1154
 2959TIP3    H130512   4.314   1.698   2.504  1.2369 -0.2399  1.0725
 2959TIP3    H230513   4.330   1.548   2.522  0.1771 -0.4755  0.1435
 2960TIP3   OH230514   6.835   6.471   7.517 -0.5972  0.1546 -0.1419
 2960TIP3    H130515   6.816   6.380   7.495  2.8772 -1.6867  3.0532
 2960TIP3    H230516   6.895   6.501   7.449 -0.3034 -0.6712 -0.2526
 2961TIP3   OH230517   1.987   5.639   0.043  0.3683 -0.1668  0.2130
 2961TIP3    H130518   2.052   5.571   0.023 -0.5181 -1.7391  2.2514
 2961TIP3    H230519   2.026   5.691   0.112  0.4954  0.5583 -0.3970
 2962TIP3   OH230520   3.314   5.275   0.003  0.1544 -0.3765 -0.3332
 2962TIP3    H130521   3.381   5.209  -0.011  0.5882  0.1800 -0.9687
 2962TIP3    H230522   3.232   5.231  -0.021  0.3392 -0.9295  0.0419
 2963TIP3   OH230523   5.882   1.653   7.514  0.1707  0.6206  0.3741
 2963TIP3    H130524   5.875   1.655   7.609 -0.8360  0.8393  0.3045
 2963TIP3    H230525   5.923   1.736   7.491 -2.4953  2.0397  0.4256
 2964TIP3   OH230526   2.940   1.319   7.771  0.0943  0.4297  0.1048
 2964TIP3    H130527   2.917   1.282   7.686 -1.5739  2.2125 -0.2965
 2964TIP3    H230528   2.871   1.290   7.830  0.6378  0.1139  0.5939
 2965TIP3   OH230529   2.454   2.312   1.906 -0.1271  0.4440  1.0329
 2965TIP3    H130530   2.415   2.270   1.983  1.4035  0.3914  1.8019
 2965TIP3    H230531   2.381   2.319   1.844 -1.1086 -0.6316  2.0103
 2966TIP3   OH230532   2.991   1.107   0.377 -0.2434  0.2537 -0.7268
 2966TIP3    H130533   2.964   1.026   0.334 -0.4943  0.2254 -0.5149
 2966TIP3    H230534   2.923   1.170   0.354  0.4064  0.6505 -1.6358
 2967TIP3   OH230535   4.858   3.506   7.649  0.1947 -0.1661 -0.3338
 2967TIP3    H130536   4.934   3.554   7.680  0.1792  0.8791 -1.8206
 2967TIP3    H230537   4.808   3.569   7.597 -1.3866 -0.9879  0.0908
 2968TIP3   OH230538   4.701   2.192   7.940  0.0719 -0.2195 -0.4232
 2968TIP3    H130539   4.698   2.120   7.877  1.2560 -1.2546  0.6513
 2968TIP3    H230540   4.767   2.251   7.906  0.4429 -0.5868 -0.3475
 2969TIP3   OH230541   2.026   4.305   1.560 -0.0560 -0.2675  0.4868
 2969TIP3    H130542   2.037   4.380   1.501 -0.7935 -1.2431 -0.9533
 2969TIP3    H230543   2.023   4.344   1.648 -1.9665  1.5706 -0.3061
 2970TIP3   OH230544   0.369   4.538   0.023 -0.4449  0.7940  0.1373
 2970TIP3    H130545   0.275   4.524   0.013 -0.5158 -2.0971  3.1474
 2970TIP3    H230546   0.408   4.450   0.013  1.8621  1.7886 -0.3135
 2971TIP3   OH230547   4.145   5.712   2.091 -0.3859  0.7300 -0.0666
 2971TIP3    H130548   4.232   5.733   2.123 -0.0614  0.4589 -0.7438
 2971TIP3    H230549   4.124   5.628   2.131 -0.5960  1.0816  0.5750
 2972TIP3   OH230550   3.548   4.130   7.505  0.5780 -0.4881 -0.5602
 2972TIP3    H130551   3.543   4.219   7.471 -0.9049 -0.2554  0.1727
 2972TIP3    H230552   3.635   4.098   7.478  0.5123  0.6026 -2.1852
 2973TIP3   OH230553   6.881   1.197   0.530  0.1162 -0.6167  0.1115
 2973TIP3    H130554   6.867   1.281   0.487 -0.0239 -0.6099  0.1714
 2973TIP3    H230555   6.908   1.219   0.619  0.5885 -0.6288 -0.0292
 2974TIP3   OH230556   2.987   3.389   8.565 -0.3846  0.3806 -0.3771
 2974TIP3    H130557   3.059   3.445   8.594  0.0073 -0.7537  0.9944
 2974TIP3    H230558   2.908   3.441   8.582 -0.0609  0.4046  1.2861
 2975TIP3   OH230559   6.279   4.003   1.950 -0.1109  0.2083  0.9161
 2975TIP3    H130560   6.205   3.947   1.973 -1.1447  1.2399  0.2346
 2975TIP3    H230561   6.245   4.092   1.959  1.0128  0.7054  0.4461
 2976TIP3   OH230562   5.778   2.632   2.424  0.6057  0.3013  0.3177
 2976TIP3    H130563   5.685   2.618   2.441  0.4380 -0.3952 -1.0588
 2976TIP3    H230564   5.788   2.727   2.421 -0.2720  0.3743 -0.5873
 2977TIP3   OH230565   6.354   0.773   2.388 -0.1388 -0.2198  0.6042
 2977TIP3    H130566   6.448   0.779   2.403 -0.2583 -0.1128  1.3217
 2977TIP3    H230567   6.319   0.735   2.468 -0.5871 -1.2720 -0.0718
 2978TIP3   OH230568   5.799   3.817   7.669  0.2647 -0.3499 -0.0157
 2978TIP3    H130569   5.851   3.863   7.603  1.5453  0.1191  1.2685
 2978TIP3    H230570   5.857   3.750   7.704 -0.0979 -0.0371  1.2276
 2979TIP3   OH230571   3.763   5.404   7.694 -0.0805 -0.3575  0.5024
 2979TIP3    H130572   3.671   5.415   7.718  0.0167 -0.3651  0.8793
 2979TIP3    H230573   3.763   5.330   7.633 -0.6066  1.0069 -1.2557
 2980TIP3   OH230574   6.558   6.678   1.362  0.1900 -0.1304 -0.6566
 2980TIP3    H130575   6.643   6.684   1.406 -1.0841  0.4576  1.9356
 2980TIP3    H230576   6.541   6.584   1.356  0.1904 -0.2219  0.5855
 2981TIP3   OH230577   4.941   4.839   0.376 -0.6336 -0.3670  1.0177
 2981TIP3    H130578   4.917   4.798   0.459 -0.1270 -0.3839  1.1611
 2981TIP3    H230579   4.936   4.769   0.311 -0.5254 -0.4776  1.1283
 2982TIP3   OH230580   4.850   4.161   1.059 -0.0007 -0.4688 -0.2175
 2982TIP3    H130581   4.833   4.255   1.065 -1.4939 -0.7442  0.3987
 2982TIP3    H230582   4.789   4.131   0.990 -0.6548 -1.2052  0.6597
 2983TIP3   OH230583   2.298   0.005   7.810 -0.1920  0.1708  0.4597
 2983TIP3    H130584   2.393   0.005   7.820 -0.2006 -2.7535  1.4708
 2983TIP3    H230585   2.278  -0.083   7.778 -2.5382  0.9203 -0.3227
 2984TIP3   OH230586   5.022   0.663   0.705 -0.2066 -0.5481  0.5545
 2984TIP3    H130587   5.022   0.634   0.614 -0.1532  1.2289 -0.0407
 2984TIP3    H230588   5.077   0.599   0.750  0.0311 -1.2698 -0.7161
 2985TIP3   OH230589   6.658   1.574   1.018 -0.2777 -0.7222 -0.4472
 2985TIP3    H130590   6.664   1.518   1.095 -0.6397 -0.2058 -0.0345
 2985TIP3    H230591   6.646   1.513   0.945  0.7546 -1.2498 -0.1921
 2986TIP3   OH230592   2.967   4.574   0.228 -0.0340  0.0722 -0.7887
 2986TIP3    H130593   2.872   4.563   0.233 -0.2214  0.7042 -2.2532
 2986TIP3    H230594   2.997   4.498   0.178  0.2873 -0.2788 -0.0795
 2987TIP3   OH230595   1.266   1.915   7.008  0.1978 -0.2858 -0.2480
 2987TIP3    H130596   1.264   1.946   6.918 -2.0622  0.3937 -0.0223
 2987TIP3    H230597   1.177   1.928   7.040  1.4534  1.7525  2.8644
 2988TIP3   OH230598   4.319   4.737   0.202 -0.0088  0.5003  0.1352
 2988TIP3    H130599   4.244   4.678   0.213  0.3470  0.3348  1.9347
 2988TIP3    H230600   4.359   4.742   0.289  2.4164  0.1273 -0.8569
 2989TIP3   OH230601   4.943   3.140   8.161 -0.0202 -0.2698  0.2608
 2989TIP3    H130602   4.886   3.064   8.173  0.1690 -1.2060 -3.4315
 2989TIP3    H230603   5.028   3.111   8.194  0.4314 -2.4147 -2.3856
 2990TIP3   OH230604   1.513   2.287   8.033 -0.6725  0.1379 -0.4662
 2990TIP3    H130605   1.449   2.287   7.962 -0.6470  1.7748 -0.5323
 2990TIP3    H230606   1.569   2.363   8.015 -2.4760  2.5209  2.8518
 2991TIP3   OH230607   6.597   5.778   0.785 -0.1343 -0.3901 -0.3773
 2991TIP3    H130608   6.582   5.821   0.869 -0.7828 -1.6464  0.1873
 2991TIP3    H230609   6.590   5.848   0.720  0.8438  0.6857  0.6331
 2992TIP3   OH230610   4.505   6.296   6.299 -0.1068  0.0035  0.0136
 2992TIP3    H130611   4.546   6.344   6.370 -0.7243 -0.1969  0.5098
 2992TIP3    H230612   4.528   6.205   6.315  1.2203  0.1142 -1.0285
 2993TIP3   OH230613   2.536   6.656   2.390 -0.1511 -0.2351 -0.1480
 2993TIP3    H130614   2.599   6.697   2.449  0.7705  1.0455 -1.9005
 2993TIP3    H230615   2.453   6.701   2.408  0.2036  0.4044 -0.0658
 2994TIP3   OH230616   1.876   0.651   7.270  0.3158 -0.5443  0.2668
 2994TIP3    H130617   1.867   0.583   7.203 -0.3499 -0.3187  0.1206
 2994TIP3    H230618   1.902   0.729   7.221 -0.5838 -0.2710  0.2015
 2995TIP3   OH230619   1.574   6.784   6.381 -0.0520 -0.3105  0.1272
 2995TIP3    H130620   1.506   6.821   6.437  0.4299  0.4627  0.2055
 2995TIP3    H230621   1.584   6.847   6.310  1.0951 -0.0493  0.5036
 2996TIP3   OH230622   2.558   1.905   1.823 -0.5426  0.3032  0.3112
 2996TIP3    H130623   2.612   1.854   1.883  0.0364  1.2072  0.5847
 2996TIP3    H230624   2.593   1.994   1.829 -0.8469  0.5271 -0.9523
 2997TIP3   OH230625   2.145   0.619   7.346  0.3612 -0.3982  0.3736
 2997TIP3    H130626   2.066   0.624   7.292  0.7336  0.4506 -0.1043
 2997TIP3    H230627   2.203   0.559   7.299  1.1212  1.1867 -0.7667
 2998TIP3   OH230628   6.852   6.730   7.917 -0.2789 -0.0880  0.0516
 2998TIP3    H130629   6.784   6.720   7.984  0.4020  0.3494  0.8185
 2998TIP3    H230630   6.916   6.788   7.956  1.0901 -1.3526 -0.2390
 2999TIP3   OH230631   2.840   0.379   1.009  0.0449  0.0922  0.0664
 2999TIP3    H130632   2.894   0.300   1.005 -0.4995 -0.2497 -1.6027
 2999TIP3    H230633   2.762   0.357   0.958 -0.7422  1.2620  0.7078
 3000TIP3   OH230634   0.266   5.603   1.154  0.1705 -0.1627  0.0218
 3000TIP3    H130635   0.208   5.621   1.228  0.1898 -0.3574  0.0843
 3000TIP3    H230636   0.280   5.509   1.157  1.5162  0.0452  0.7622
 3001TIP3   OH230637   0.468   5.214   1.974 -0.1071  0.0629 -0.0758
 3001TIP3    H130638   0.430   5.173   2.052  0.3822 -0.2030  0.0279
 3001TIP3    H230639   0.475   5.143   1.910 -0.9336  0.3763 -0.5319
 3002TIP3   OH230640   3.310   3.699   2.322  0.2381  0.1857  0.2100
 3002TIP3    H130641   3.361   3.747   2.257  0.9096  0.3746  0.8716
 3002TIP3    H230642   3.327   3.744   2.404 -0.7254  0.0367  0.5024
 3003TIP3   OH230643   4.079   6.612   1.168 -0.4543 -0.3098  0.4148
 3003TIP3    H130644   4.067   6.526   1.207  1.5648 -0.9266 -0.2106
 3003TIP3    H230645   4.003   6.623   1.110  0.1342 -2.4741 -0.8714
 3004TIP3   OH230646   6.695   3.339   2.018  0.1450  0.0793 -0.1217
 3004TIP3    H130647   6.743   3.419   1.999  0.2974 -0.2581 -1.1976
 3004TIP3    H230648   6.748   3.294   2.084 -0.7336  1.5781  1.6920
 3005TIP3   OH230649   2.507   6.740   8.026 -0.2281 -0.1343 -0.2529
 3005TIP3    H130650   2.494   6.734   7.931 -1.9465 -0.2544 -0.0510
 3005TIP3    H230651   2.522   6.650   8.054 -0.1041 -0.1488 -0.3663
 3006TIP3   OH230652   5.428   2.005   7.979 -0.6506  0.6116 -0.2624
 3006TIP3    H130653   5.439   2.083   8.033 -1.6703  0.2578  0.4969
 3006TIP3    H230654   5.333   1.995   7.969 -0.5027  0.1287 -1.3360
 3007TIP3   OH230655   2.468   4.036   8.431  0.2667 -0.0082  0.2719
 3007TIP3    H130656   2.468   4.099   8.359 -2.0100 -0.4028 -0.1442
 3007TIP3    H230657   2.513   3.959   8.396 -0.8301 -0.1983 -0.7627
 3008TIP3   OH230658   4.136   0.981   1.389  0.5399  0.4934  0.5477
 3008TIP3    H130659   4.052   0.955   1.353  0.0580  1.6531  0.7909
 3008TIP3    H230660   4.168   0.903   1.434 -0.0765 -0.1632 -0.1378
 3009TIP3   OH230661   4.748   6.400   1.258  0.5777  0.3648  0.2275
 3009TIP3    H130662   4.745   6.482   1.306 -1.0226 -0.1189  1.0262
 3009TIP3    H230663   4.841   6.377   1.256  1.7457  4.1293 -3.5809
 3010TIP3   OH230664   2.879   3.425   0.769  0.0152 -0.2601  0.1883
 3010TIP3    H130665   2.784   3.427   0.775 -0.2337 -3.1688 -1.0544
 3010TIP3    H230666   2.898   3.472   0.687 -0.6307 -1.8209 -0.9091
 3011TIP3   OH230667   6.808   5.564   6.595 -0.0363  0.2724 -0.6200
 3011TIP3    H130668   6.840   5.654   6.595  0.1328  0.2165 -0.9469
 3011TIP3    H230669   6.727   5.567   6.645  0.8659  0.2783  0.9241
 3012TIP3   OH230670   5.115   2.512   7.824  0.0271  0.0777 -0.5192
 3012TIP3    H130671   5.203   2.505   7.787 -0.0551  1.4621 -1.0312
 3012TIP3    H230672   5.111   2.600   7.862 -1.1646  0.0791 -0.6111
 3013TIP3   OH230673   5.103   0.581   7.482  0.3172 -0.3740 -0.0325
 3013TIP3    H130674   5.073   0.500   7.440 -0.3476 -0.8363  1.2882
 3013TIP3    H230675   5.175   0.553   7.538  0.3092  0.0103  0.1721
 3014TIP3   OH230676   2.100   4.392   6.885 -0.6358  0.5404  0.7227
 3014TIP3    H130677   2.121   4.391   6.979 -0.6028  3.7369  0.8620
 3014TIP3    H230678   2.126   4.479   6.856  0.5082 -0.7722 -2.6027
 3015TIP3   OH230679   4.801   1.520   1.139  0.1670 -0.2639 -0.1714
 3015TIP3    H130680   4.764   1.499   1.225 -0.5244 -1.0272 -0.6350
 3015TIP3    H230681   4.827   1.612   1.146  0.5203 -0.4264  0.9872
 3016TIP3   OH230682   5.085   0.508   1.169  0.2579 -0.2372 -0.7192
 3016TIP3    H130683   5.017   0.482   1.107  0.2039 -2.1572  0.0805
 3016TIP3    H230684   5.101   0.600   1.149 -1.6860 -0.0622 -1.7494
 3017TIP3   OH230685   1.725   1.915   0.298  0.4340 -0.4438  0.2434
 3017TIP3    H130686   1.821   1.909   0.306  0.4813  0.5445  0.6520
 3017TIP3    H230687   1.711   2.000   0.255 -0.2342 -0.9650 -0.5827
 3018TIP3   OH230688   0.925   2.632   7.626  0.4653  0.6690 -0.1237
 3018TIP3    H130689   0.857   2.666   7.568  0.0499 -0.7367 -0.5097
 3018TIP3    H230690   0.918   2.685   7.705 -0.7952  0.8344 -0.3192
 3019TIP3   OH230691   4.416   4.579   7.681  0.5678  0.0426  0.0390
 3019TIP3    H130692   4.321   4.587   7.696  0.6850  1.8612  0.0347
 3019TIP3    H230693   4.425   4.504   7.624 -0.9529  0.2877 -0.5730
 3020TIP3   OH230694   3.106   6.137   8.132  0.2789 -0.1242 -0.3106
 3020TIP3    H130695   3.082   6.121   8.041 -1.7781  0.0614  0.1359
 3020TIP3    H230696   3.082   6.056   8.178  1.5455 -0.3172  0.0555
 3021TIP3   OH230697   4.668   2.241   0.423 -0.6627  0.5501 -0.1783
 3021TIP3    H130698   4.641   2.171   0.363 -1.0428  1.1890 -0.7687
 3021TIP3    H230699   4.722   2.197   0.489 -0.0436 -0.1411 -1.1174
 3022TIP3   OH230700   1.815   0.420   0.650 -0.8632 -0.0370  0.2352
 3022TIP3    H130701   1.892   0.399   0.702 -0.5757  0.6773  0.1161
 3022TIP3    H230702   1.849   0.474   0.578 -1.4576  0.2027  0.1271
 3023TIP3   OH230703   1.478   0.801   8.501  0.5149  0.1071 -0.2368
 3023TIP3    H130704   1.557   0.847   8.529  0.7452 -0.3349 -0.1413
 3023TIP3    H230705   1.503   0.708   8.502 -0.7362 -0.2780  2.2309
 3024TIP3   OH230706   0.484   5.431   7.687  0.2213 -0.3399  0.3137
 3024TIP3    H130707   0.472   5.526   7.688  0.6473 -0.2334  2.8003
 3024TIP3    H230708   0.423   5.400   7.620 -0.0438  1.6590 -0.4532
 3025TIP3   OH230709   2.758   0.356   7.717  0.2745  0.3974 -0.5446
 3025TIP3    H130710   2.796   0.349   7.629 -1.1581 -2.9385 -1.0533
 3025TIP3    H230711   2.666   0.375   7.702 -0.4329 -2.1780  0.0042
 3026TIP3   OH230712   3.316   0.624   2.494 -0.0709 -0.4153  0.6283
 3026TIP3    H130713   3.318   0.531   2.518  1.0348 -0.2702  1.1464
 3026TIP3    H230714   3.223   0.646   2.492 -0.5020 -2.0151 -1.4405
 3027TIP3   OH230715   1.698   5.599   0.713  0.0399 -1.2322  0.2082
 3027TIP3    H130716   1.758   5.535   0.677  1.4461  0.5706 -0.8495
 3027TIP3    H230717   1.633   5.548   0.762  1.0054 -3.4063 -0.6902
 3028TIP3   OH230718   1.856   4.506   2.531 -0.2601 -0.2549  0.3094
 3028TIP3    H130719   1.910   4.544   2.601  1.0697  0.4786 -1.0410
 3028TIP3    H230720   1.910   4.515   2.453 -0.8121 -3.0155 -0.4659
 3029TIP3   OH230721   2.550   2.975   8.599 -0.4837  0.0294 -0.0748
 3029TIP3    H130722   2.531   2.889   8.561 -1.3472  1.0248 -2.0261
 3029TIP3    H230723   2.646   2.976   8.610 -0.3473 -0.7644 -1.0780
 3030TIP3   OH230724   3.548   5.837   0.215  0.1212  0.7090  0.2875
 3030TIP3    H130725   3.595   5.918   0.197  0.7195  0.0614 -1.1673
 3030TIP3    H230726   3.455   5.862   0.209  0.2749  1.4941  0.9317
 3031TIP3   OH230727   2.706   6.472   8.486 -0.5803 -0.0511 -0.1703
 3031TIP3    H130728   2.782   6.474   8.543  0.3491 -0.9170 -1.3191
 3031TIP3    H230729   2.686   6.564   8.469 -0.5417  0.2018  1.0948
 3032TIP3   OH230730   2.141   5.067   0.820  0.3595 -0.0311 -0.2897
 3032TIP3    H130731   2.200   5.026   0.883 -0.5416 -1.4083 -0.2940
 3032TIP3    H230732   2.197   5.124   0.768  1.5898 -0.8684  0.0761
 3033TIP3   OH230733   5.629   2.378   0.459 -0.2720 -0.3723  0.1584
 3033TIP3    H130734   5.655   2.301   0.509 -1.4337 -0.4091  0.7405
 3033TIP3    H230735   5.580   2.432   0.521  0.4155  0.7890 -0.2784
 3034TIP3   OH230736   0.396   1.077   0.204  0.0147 -0.3101  0.5036
 3034TIP3    H130737   0.418   1.169   0.195 -1.9580  0.0631 -1.1741
 3034TIP3    H230738   0.481   1.032   0.208  1.0009  1.4801  0.4020
 3035TIP3   OH230739   1.310   4.642   6.800  0.0112  0.2225 -0.0694
 3035TIP3    H130740   1.277   4.625   6.711  2.0355  0.8154 -0.9841
 3035TIP3    H230741   1.246   4.702   6.837  0.1902  1.6670 -1.9283
 3036TIP3   OH230742   5.393   3.118   6.600  0.7700 -0.2197  0.2403
 3036TIP3    H130743   5.402   3.060   6.676  0.0590 -0.4393  0.1595
 3036TIP3    H230744   5.347   3.194   6.633 -0.8152 -0.9225 -0.2626
 3037TIP3   OH230745   3.706   2.303   8.576  0.6048 -0.3957  0.1706
 3037TIP3    H130746   3.795   2.335   8.591  0.1642  1.2092 -0.5093
 3037TIP3    H230747   3.704   2.217   8.620  2.0105  0.2134  1.5072
 3038TIP3   OH230748   4.406   2.021   6.853 -0.1735 -0.4298 -0.0334
 3038TIP3    H130749   4.407   2.115   6.836  0.9975 -1.0635 -4.7460
 3038TIP3    H230750   4.498   1.997   6.865 -0.4286 -1.0796  0.7975
 3039TIP3   OH230751   2.967   3.826   7.588  0.2057  0.3525  0.6278
 3039TIP3    H130752   2.885   3.861   7.555 -0.3768 -0.0625  1.5670
 3039TIP3    H230753   2.941   3.751   7.642  1.3656 -1.3233 -1.0191
 3040TIP3   OH230754   3.097   4.451   0.439 -0.0064  0.3708  0.2145
 3040TIP3    H130755   3.183   4.469   0.401 -0.1408 -0.5512 -0.5784
 3040TIP3    H230756   3.035   4.495   0.380 -0.1283  0.1654  0.1856
 3041TIP3   OH230757   6.437   1.624   0.200 -0.1380 -0.8244 -0.6521
 3041TIP3    H130758   6.396   1.668   0.274  1.3139 -2.8746  1.5034
 3041TIP3    H230759   6.397   1.538   0.197 -0.3363 -0.7167 -2.4672
 3042TIP3   OH230760   1.614   0.761   7.083  0.0251  0.0561  0.0880
 3042TIP3    H130761   1.538   0.715   7.120  0.4031 -0.4570  0.2497
 3042TIP3    H230762   1.601   0.852   7.107 -0.1685 -0.1411  0.7617
 3043TIP3   OH230763   1.721   0.178   7.818  0.1328 -0.1872 -0.0836
 3043TIP3    H130764   1.802   0.151   7.773 -0.4420 -1.8131 -0.2219
 3043TIP3    H230765   1.735   0.151   7.909  1.2048  2.8960  0.7777
 3044TIP3   OH230766   3.188   2.460   0.155  0.3094 -0.3590 -0.4740
 3044TIP3    H130767   3.193   2.543   0.201 -0.4679 -0.1056 -0.8399
 3044TIP3    H230768   3.268   2.457   0.102  0.4794  0.0137 -0.2432
 3045TIP3   OH230769   3.803   2.028   0.226 -0.2456  0.0469  0.1551
 3045TIP3    H130770   3.826   1.947   0.272 -0.0463 -0.1635 -0.3020
 3045TIP3    H230771   3.878   2.085   0.239 -0.3414  0.1199  0.3900
 3046TIP3   OH230772   1.992   6.162   0.266  0.3107 -0.1813  0.2987
 3046TIP3    H130773   1.970   6.088   0.209 -0.2398 -0.6380  1.0732
 3046TIP3    H230774   1.965   6.239   0.217  1.0915 -0.4728 -0.6163
 3047TIP3   OH230775   2.663   4.473   1.498 -0.2566  0.8126  0.2034
 3047TIP3    H130776   2.715   4.414   1.553 -1.9290 -0.0506  0.9193
 3047TIP3    H230777   2.574   4.437   1.501 -0.8115  1.9439 -1.4016
 3048TIP3   OH230778   2.853   0.939   0.202 -0.0778  0.0890 -0.1602
 3048TIP3    H130779   2.819   0.898   0.282 -1.4314  1.6784  0.1345
 3048TIP3    H230780   2.914   0.874   0.167 -1.4494 -1.7979  0.7203
 3049TIP3   OH230781   4.791   2.726   1.603 -0.2017  0.1639 -0.2495
 3049TIP3    H130782   4.787   2.725   1.507  2.4916 -1.6424 -0.4761
 3049TIP3    H230783   4.709   2.766   1.631 -1.2442  0.3914 -3.2943
 3050TIP3   OH230784   2.677   4.751   0.034  0.5973 -0.2536  0.1586
 3050TIP3    H130785   2.594   4.742   0.080 -0.2199  0.6712 -1.0927
 3050TIP3    H230786   2.664   4.705  -0.049  1.1074  0.4513 -0.3241
 3051TIP3   OH230787   1.364   3.613   7.374 -0.3428  0.3925  0.1955
 3051TIP3    H130788   1.421   3.583   7.303  1.0946  2.2643  0.5009
 3051TIP3    H230789   1.414   3.596   7.454 -0.7785  0.8090  0.5630
 3052TIP3   OH230790   0.047   3.081   1.039 -0.1003  0.4242  0.5051
 3052TIP3    H130791   0.014   3.038   0.961 -0.5980  1.1328  0.3158
 3052TIP3    H230792   0.119   3.136   1.008  0.0236  0.3339  0.6264
 3053TIP3   OH230793   2.102   1.255   0.827 -0.4552 -0.6383 -0.2534
 3053TIP3    H130794   2.125   1.200   0.752 -0.6337 -2.8184  1.1816
 3053TIP3    H230795   2.040   1.202   0.877 -1.6740  1.4504  0.5915
 3054TIP3   OH230796   6.866   3.739   7.737  0.1022  0.8512 -0.0720
 3054TIP3    H130797   6.808   3.793   7.683  1.3699  1.3033 -1.0269
 3054TIP3    H230798   6.829   3.744   7.825 -3.3134 -1.6640 -1.1586
 3055TIP3   OH230799   5.881   2.415   0.382  0.5544  0.0466 -0.2441
 3055TIP3    H130800   5.918   2.327   0.376  1.0551  0.1963  0.4748
 3055TIP3    H230801   5.788   2.401   0.395  0.3455 -0.3428 -1.8994
 3056TIP3   OH230802   2.965   1.228   1.789  0.1230 -0.1320  0.6237
 3056TIP3    H130803   2.970   1.163   1.858  0.8894 -0.2643  0.4465
 3056TIP3    H230804   2.934   1.307   1.833  3.3954  0.6701  1.7865
 3057TIP3   OH230805   0.909   3.495   7.667  0.5228 -0.1668  0.2843
 3057TIP3    H130806   0.992   3.533   7.639  1.2639 -1.6662  0.2986
 3057TIP3    H230807   0.842   3.540   7.615  1.3018  1.2871  0.5018
 3058TIP3   OH230808   3.769   3.500   7.992 -0.3325  0.1739 -0.2979
 3058TIP3    H130809   3.864   3.493   7.998 -0.0394 -2.2646 -4.2938
 3058TIP3    H230810   3.737   3.467   8.076  2.2191  2.0427  1.5731
 3059TIP3   OH230811   2.891   3.896   7.215  0.0544  0.3420 -0.3342
 3059TIP3    H130812   2.981   3.871   7.238  0.2295 -0.2673 -1.5585
 3059TIP3    H230813   2.852   3.814   7.183 -0.4614  0.9245 -1.2149
 3060TIP3   OH230814   5.521   3.639   1.681 -0.7870 -0.4735  0.3291
 3060TIP3    H130815   5.599   3.683   1.717 -0.3407 -1.0040  0.0314
 3060TIP3    H230816   5.534   3.546   1.703 -0.5317 -0.8031 -1.1312
 3061TIP3   OH230817   3.069   6.593   6.367 -1.0170 -0.5833 -0.3262
 3061TIP3    H130818   3.117   6.511   6.382 -0.1567  0.1657  1.3760
 3061TIP3    H230819   2.979   6.573   6.393 -0.7549 -0.9365  0.3515
 3062TIP3   OH230820   0.080   6.596   8.429  0.1531 -0.3392 -0.6162
 3062TIP3    H130821   0.115   6.577   8.342  1.5344  1.0614 -0.4163
 3062TIP3    H230822   0.023   6.672   8.415  0.7646  0.1984 -0.2401
 3063TIP3   OH230823   4.197   0.877   7.359 -0.0593  0.0155 -0.5096
 3063TIP3    H130824   4.233   0.961   7.328  0.1638 -0.0555 -0.4487
 3063TIP3    H230825   4.106   0.897   7.382  0.4874  0.6992  1.2920
 3064TIP3   OH230826   3.328   5.926   1.131  0.1053 -0.2338 -0.7219
 3064TIP3    H130827   3.383   5.936   1.209  0.0065  0.7998 -0.7766
 3064TIP3    H230828   3.386   5.890   1.065  0.2496 -0.8965 -0.2518
 3065TIP3   OH230829   1.069   6.436   8.109 -0.0081 -0.4188  0.4884
 3065TIP3    H130830   1.014   6.487   8.169 -1.4855 -0.8023 -0.4680
 3065TIP3    H230831   1.017   6.359   8.088  0.6035 -0.4759 -0.9835
 3066TIP3   OH230832   4.113   1.909   2.499 -0.0100 -0.1333 -0.0593
 3066TIP3    H130833   4.146   1.998   2.510 -0.3800  0.2538 -1.7355
 3066TIP3    H230834   4.092   1.879   2.587  2.6773  0.4155  0.8529
 3067TIP3   OH230835   4.509   1.645   7.441 -0.1457 -0.4156  0.3233
 3067TIP3    H130836   4.530   1.657   7.534  0.0342  0.4226  0.1815
 3067TIP3    H230837   4.543   1.558   7.421  2.2081  0.4072  0.4059
 3068TIP3   OH230838   4.648   3.405   0.362 -0.6139  0.7776  0.0566
 3068TIP3    H130839   4.658   3.485   0.310 -1.1533  1.3489  0.8058
 3068TIP3    H230840   4.694   3.338   0.312  1.2789  1.8935  0.2016
 3069TIP3   OH230841   3.715   4.186   0.627 -0.0160 -0.6032  0.2722
 3069TIP3    H130842   3.763   4.133   0.691 -0.1043  0.5004  1.2813
 3069TIP3    H230843   3.624   4.184   0.657 -0.2234 -0.8755 -0.3727
 3070TIP3   OH230844   6.244   5.873   1.146 -0.0035  0.6642 -0.4844
 3070TIP3    H130845   6.178   5.942   1.143 -0.7591 -0.0824 -2.0122
 3070TIP3    H230846   6.263   5.862   1.239  0.5442  3.2708 -0.1961
 3071TIP3   OH230847   3.534   3.157   1.407 -0.4411  0.4319  0.4353
 3071TIP3    H130848   3.587   3.162   1.487 -0.3150  0.6210  0.3403
 3071TIP3    H230849   3.463   3.220   1.421  1.1997  2.7033 -0.8013
 3072TIP3   OH230850   6.881   5.651   7.547  0.4680  0.6599  0.0611
 3072TIP3    H130851   6.810   5.715   7.550  1.1588  1.4717 -0.2087
 3072TIP3    H230852   6.883   5.613   7.635 -0.4324  0.4679  0.0035
 3073TIP3   OH230853   1.945   1.818   8.189  0.3431 -0.2694 -0.1183
 3073TIP3    H130854   1.949   1.888   8.124  1.0489 -0.3513 -0.1738
 3073TIP3    H230855   1.949   1.863   8.273 -3.0221  0.0333  0.0007
 3074TIP3   OH230856   1.191   2.777   7.363  0.7481  0.1330 -0.4027
 3074TIP3    H130857   1.210   2.729   7.443  0.4473  1.1237  0.2832
 3074TIP3    H230858   1.275   2.813   7.336  0.7626  0.1911 -0.2773
 3075TIP3   OH230859   4.694   1.847   7.912  0.6209  0.2092  0.3303
 3075TIP3    H130860   4.784   1.865   7.885  1.0298 -0.2300  1.3755
 3075TIP3    H230861   4.677   1.907   7.984 -0.7048  1.8495 -1.2283
 3076TIP3   OH230862   2.556   5.694   1.943  0.0245 -0.2006  0.3585
 3076TIP3    H130863   2.466   5.677   1.971  0.4001 -0.4345  1.4321
 3076TIP3    H230864   2.580   5.775   1.988 -0.5523  1.4295 -2.0347
 3077TIP3   OH230865   0.613   6.442   6.838  0.3657  0.2298 -0.3851
 3077TIP3    H130866   0.658   6.518   6.799 -0.5782  0.9484 -0.1257
 3077TIP3    H230867   0.680   6.374   6.843  1.6722  1.5369  0.8122
 3078TIP3   OH230868   1.725   6.863   7.047 -0.0247  0.0462  0.2240
 3078TIP3    H130869   1.706   6.957   7.043 -2.9295 -0.4167  1.0044
 3078TIP3    H230870   1.719   6.841   7.140 -1.8155 -1.3009 -0.1658
 3079TIP3   OH230871   6.867   3.881   8.390 -0.0297 -0.9975 -0.6997
 3079TIP3    H130872   6.779   3.883   8.354  0.0884 -1.9585 -1.0724
 3079TIP3    H230873   6.856   3.902   8.483 -0.5132 -0.0750 -0.9465
 3080TIP3   OH230874   6.005   1.471   2.527  0.0491 -0.0685 -0.4179
 3080TIP3    H130875   5.991   1.482   2.621 -2.4898 -0.1203 -0.7418
 3080TIP3    H230876   6.100   1.461   2.519  0.6639  2.6367  1.8322
 3081TIP3   OH230877   2.920   0.238   2.629  0.0600  0.2530  0.3082
 3081TIP3    H130878   2.932   0.333   2.637 -0.5019  0.2980  0.6254
 3081TIP3    H230879   2.845   0.218   2.685  1.3905 -0.6737  1.8624
 3082TIP3   OH230880   1.289   1.331   8.386 -0.1308  0.1424  0.0951
 3082TIP3    H130881   1.197   1.313   8.402 -0.4880  1.9404  0.2394
 3082TIP3    H230882   1.297   1.333   8.290 -0.6153  1.6408  0.0692
 3083TIP3   OH230883   0.692   4.876   8.137 -0.1691 -0.4946  0.2435
 3083TIP3    H130884   0.647   4.912   8.213 -0.9091  0.4587 -0.6295
 3083TIP3    H230885   0.731   4.794   8.169  2.0518  1.2639  2.4525
 3084TIP3   OH230886   1.495   2.356   0.745 -0.4337 -0.0439  0.0305
 3084TIP3    H130887   1.488   2.289   0.677 -1.3012 -1.0689  1.0846
 3084TIP3    H230888   1.428   2.420   0.722 -1.6510 -1.0554  0.5900
 3085TIP3   OH230889   0.011   2.032   1.589  0.0092  0.0882  0.4933
 3085TIP3    H130890   0.010   2.055   1.497  0.0413  2.6032  1.0472
 3085TIP3    H230891  -0.081   2.016   1.611 -0.0285 -0.2574  0.0984
 3086TIP3   OH230892   2.982   4.147   0.247 -0.1970 -0.4823 -0.3163
 3086TIP3    H130893   2.978   4.217   0.182 -0.9153  0.3763  0.6139
 3086TIP3    H230894   2.972   4.066   0.197 -2.2944  0.2134 -1.1523
 3087TIP3   OH230895   5.013   5.027   1.371  0.4191  0.1494 -0.2908
 3087TIP3    H130896   4.972   4.941   1.356  1.8349 -0.4030 -1.1499
 3087TIP3    H230897   5.055   5.018   1.457 -1.0391  0.6622  0.5160
 3088TIP3   OH230898   0.025   0.847   7.507 -0.2696  0.1676 -0.2215
 3088TIP3    H130899  -0.039   0.893   7.452  0.5259  2.0259  0.3390
 3088TIP3    H230900  -0.024   0.827   7.587 -0.4997  0.4329 -0.2924
 3089TIP3   OH230901   4.095   3.202   0.426 -0.2914  0.0202  0.3415
 3089TIP3    H130902   4.124   3.223   0.337 -0.6087 -1.7262 -0.2082
 3089TIP3    H230903   4.173   3.167   0.468  0.3129  2.3746  1.3481
 3090TIP3   OH230904   3.202   5.737   8.066 -0.1679  0.1761  0.4922
 3090TIP3    H130905   3.215   5.698   8.153  1.1394  0.2034  0.3298
 3090TIP3    H230906   3.116   5.778   8.071 -0.1988  0.0071  1.7149
 3091TIP3   OH230907   0.149   3.938   7.376 -0.1419  0.0854 -0.0903
 3091TIP3    H130908   0.087   3.962   7.444 -1.2610  0.2079 -1.1250
 3091TIP3    H230909   0.197   4.019   7.357 -0.3157  0.2201  0.0480
 3092TIP3   OH230910   3.651   5.315   6.396 -0.3713 -0.0844  0.1627
 3092TIP3    H130911   3.677   5.289   6.308  0.9400  3.1906 -0.5523
 3092TIP3    H230912   3.728   5.358   6.433 -1.1650 -0.5902  2.6004
 3093TIP3   OH230913   1.680   2.196   1.180  0.0230 -0.0208  0.2165
 3093TIP3    H130914   1.647   2.269   1.232 -2.0840 -0.7477  0.0075
 3093TIP3    H230915   1.726   2.140   1.243  1.2784  1.2216  0.4493
 3094TIP3   OH230916   5.618   1.971   8.579  0.8316  0.2798  0.2077
 3094TIP3    H130917   5.550   1.941   8.519 -0.6340  1.7944  1.0169
 3094TIP3    H230918   5.681   2.017   8.524 -0.0188  0.8508 -0.3144
 3095TIP3   OH230919   4.433   6.448   0.754 -0.5025  0.6938 -0.1391
 3095TIP3    H130920   4.404   6.503   0.827 -1.8174 -1.8590  1.4112
 3095TIP3    H230921   4.496   6.387   0.794 -0.9233 -0.4804 -1.1965
 3096TIP3   OH230922   4.878   3.440   8.247 -0.1267 -0.0637 -0.0609
 3096TIP3    H130923   4.824   3.379   8.297 -1.3762 -0.5937 -1.9164
 3096TIP3    H230924   4.920   3.385   8.180  0.9889  0.6901  0.0027
 3097TIP3   OH230925   0.018   1.267   0.782  0.4160  0.0724  0.1378
 3097TIP3    H130926  -0.075   1.245   0.791  0.5754 -1.4308 -1.4316
 3097TIP3    H230927   0.049   1.279   0.872 -1.4350  1.3675  0.6626
 3098TIP3   OH230928   5.073   5.449   0.571 -0.0070 -0.2390  0.2172
 3098TIP3    H130929   5.040   5.390   0.503 -1.0431  1.8189 -1.1503
 3098TIP3    H230930   5.036   5.535   0.549  1.7801  1.0422  1.8784
 3099TIP3   OH230931   4.434   4.105   1.811 -0.0084  0.3266 -0.0162
 3099TIP3    H130932   4.390   4.094   1.727 -0.3979 -1.5038  0.3829
 3099TIP3    H230933   4.369   4.076   1.876  0.7510  0.4239  0.8030
 3100TIP3   OH230934   1.500   0.167   7.617  0.2474 -0.3273 -0.1758
 3100TIP3    H130935   1.562   0.212   7.673  1.1388 -0.8021 -0.7622
 3100TIP3    H230936   1.495   0.078   7.652 -1.0440  0.0131  0.6044
 3101TIP3   OH230937   5.582   3.355   0.136 -0.5527 -0.4927 -0.3547
 3101TIP3    H130938   5.642   3.330   0.065  0.4688  0.2663  0.2172
 3101TIP3    H230939   5.537   3.273   0.158 -0.2963 -0.9157 -1.3217
 3102TIP3   OH230940   1.487   0.549   0.610  0.1895  0.4442  0.2776
 3102TIP3    H130941   1.514   0.489   0.540 -2.3551 -0.3145 -0.1611
 3102TIP3    H230942   1.394   0.529   0.623  0.1240  1.9565  2.5212
 3103TIP3   OH230943   5.968   2.662   0.493 -0.3058 -0.6742 -0.2788
 3103TIP3    H130944   5.952   2.623   0.579  0.0369  0.2937  0.2435
 3103TIP3    H230945   5.941   2.595   0.430 -3.8472 -0.1760  0.5280
 3104TIP3   OH230946   1.227   2.958   8.602 -0.0347 -0.4121  1.2320
 3104TIP3    H130947   1.270   2.881   8.567 -0.6416  0.0973 -0.7808
 3104TIP3    H230948   1.135   2.932   8.613 -0.1379 -0.1392  1.0388
 3105TIP3   OH230949   2.777   6.640   0.446  0.6545  0.0062  0.5190
 3105TIP3    H130950   2.841   6.580   0.407  1.0385  0.7182  0.0308
 3105TIP3    H230951   2.829   6.705   0.493  0.4153  1.4418 -1.0866
 3106TIP3   OH230952   0.042   3.818   6.620  0.0649  0.5764  0.4384
 3106TIP3    H130953   0.011   3.762   6.548  0.4234 -0.3492  0.9802
 3106TIP3    H230954   0.127   3.850   6.590 -0.5939  1.7043 -0.3124
 3107TIP3   OH230955   4.722   3.865   2.456 -0.4072  0.5790  0.4719
 3107TIP3    H130956   4.714   3.822   2.371 -0.4150  0.2207  0.6526
 3107TIP3    H230957   4.646   3.923   2.460 -0.1529  0.9529  0.0369
 3108TIP3   OH230958   4.981   0.048   7.641  0.6814  0.0153 -0.1154
 3108TIP3    H130959   4.896   0.006   7.626  0.9747 -0.5369 -0.2489
 3108TIP3    H230960   4.965   0.108   7.714 -0.2552  1.2300 -1.2753
 3109TIP3   OH230961   1.890   4.594   1.459  0.1312  0.4761  0.5974
 3109TIP3    H130962   1.829   4.530   1.421 -0.0237 -0.3748  2.1811
 3109TIP3    H230963   1.859   4.678   1.426  0.7065 -0.2637 -2.0380
 3110TIP3   OH230964   5.608   6.451   7.296 -0.1718 -0.5149 -0.9778
 3110TIP3    H130965   5.634   6.476   7.384 -1.7708  0.3027 -0.6971
 3110TIP3    H230966   5.513   6.439   7.301 -0.1772 -1.3147 -2.3881
 3111TIP3   OH230967   5.080   2.686   7.485 -0.0159 -0.2404 -0.7011
 3111TIP3    H130968   5.120   2.657   7.403 -1.0288 -0.8871 -1.0045
 3111TIP3    H230969   5.042   2.605   7.522  1.5189 -0.2140  1.0673
 3112TIP3   OH230970   5.189   6.043   1.101 -0.0134  0.1070 -0.3607
 3112TIP3    H130971   5.162   6.058   1.010 -0.3649  2.1296  0.0297
 3112TIP3    H230972   5.242   5.964   1.097  1.5443  1.1527 -2.6762
 3113TIP3   OH230973   3.481   4.811   1.027 -0.6514 -0.1276 -0.0918
 3113TIP3    H130974   3.542   4.857   0.969  0.3750 -0.6010  0.5741
 3113TIP3    H230975   3.407   4.871   1.036  0.7928  1.6114  1.0247
 3114TIP3   OH230976   3.933   1.654   0.164  0.2987 -0.0113 -0.7226
 3114TIP3    H130977   3.963   1.646   0.254  0.1058  0.2302 -0.6346
 3114TIP3    H230978   3.992   1.718   0.125 -0.6812  1.2045 -0.2780
 3115TIP3   OH230979   3.375   4.752   8.253 -0.4090  0.0916 -0.4323
 3115TIP3    H130980   3.400   4.792   8.337 -1.6947 -0.7155  0.3777
 3115TIP3    H230981   3.421   4.804   8.187  1.1485  0.3584  0.7924
 3116TIP3   OH230982   2.303   1.775   7.939 -0.5611  0.2222 -0.6264
 3116TIP3    H130983   2.368   1.843   7.951 -0.5123  0.2645 -1.1429
 3116TIP3    H230984   2.220   1.822   7.932 -0.9436  0.0940  1.9811
 3117TIP3   OH230985   4.933   2.726   2.755 -0.3505 -0.5580 -0.2172
 3117TIP3    H130986   4.850   2.677   2.755  0.2186 -1.5738  0.8517
 3117TIP3    H230987   4.985   2.685   2.824  0.2020  1.5168  0.6716
 3118TIP3   OH230988   0.492   3.560   2.435  0.2210  0.0920  0.8845
 3118TIP3    H130989   0.431   3.612   2.487  1.6217  0.5364  2.1444
 3118TIP3    H230990   0.476   3.588   2.345 -1.2743  0.3356  1.1987
 3119TIP3   OH230991   6.463   0.297   8.312 -0.2034  0.0117 -0.0550
 3119TIP3    H130992   6.392   0.347   8.353  1.1851  2.1823 -0.1328
 3119TIP3    H230993   6.533   0.361   8.298  0.1825 -1.0108 -3.9976
 3120TIP3   OH230994   4.768   1.392   0.286 -0.3358  0.2473  0.1300
 3120TIP3    H130995   4.751   1.414   0.195  0.8409  0.8450  0.0321
 3120TIP3    H230996   4.740   1.300   0.294 -0.1784  0.0929 -0.9065
 3121TIP3   OH230997   2.691   5.754   1.175  0.0690 -0.2665  0.5480
 3121TIP3    H130998   2.680   5.846   1.150  1.3334 -0.1081  0.5449
 3121TIP3    H230999   2.602   5.719   1.172 -0.2434  0.5439 -1.0529
 3122TIP3   OH231000   1.985   5.026   0.588  0.3705 -0.2365 -0.7477
 3122TIP3    H131001   2.028   5.040   0.672 -0.4018  1.8151 -0.6622
 3122TIP3    H231002   1.935   5.106   0.572 -0.3294 -1.0014 -2.6742
 3123TIP3   OH231003   1.924   4.294   0.713 -0.4526  0.2198  0.6631
 3123TIP3    H131004   1.844   4.241   0.712  0.3882 -1.0892  0.6540
 3123TIP3    H231005   1.977   4.256   0.783  0.5195  0.5016  0.1010
 3124TIP3   OH231006   3.405   6.670   6.822  0.8448 -0.3926 -0.0950
 3124TIP3    H131007   3.370   6.716   6.746  0.4680 -2.1963 -1.0933
 3124TIP3    H231008   3.350   6.699   6.895 -1.7309 -1.7942 -1.3067
 3125TIP3   OH231009   2.697   2.677   7.989  0.0459  0.4363 -0.0620
 3125TIP3    H131010   2.617   2.626   8.003  0.3729  0.0278  0.3335
 3125TIP3    H231011   2.765   2.612   7.975  0.8127  0.6673  2.1951
 3126TIP3   OH231012   6.086   1.454   2.182 -0.0796 -0.0758 -0.6442
 3126TIP3    H131013   6.181   1.440   2.184 -0.0437 -0.0751 -1.6865
 3126TIP3    H231014   6.061   1.433   2.092 -1.2194 -0.9913 -0.1352
 3127TIP3   OH231015   2.866   0.914   7.748 -0.1130  0.2463 -0.1281
 3127TIP3    H131016   2.946   0.920   7.696  0.5407  0.0003  0.8311
 3127TIP3    H231017   2.830   0.827   7.727 -0.6799  0.7344 -1.3065
 3128TIP3   OH231018   0.980   0.493   1.774  0.2364 -0.1253  0.1079
 3128TIP3    H131019   0.941   0.576   1.748  0.1199 -0.3418 -0.4301
 3128TIP3    H231020   1.015   0.509   1.862 -2.7042 -0.4305  1.4620
 3129TIP3   OH231021   2.482   4.197   0.612 -0.5002 -0.0660  0.3586
 3129TIP3    H131022   2.528   4.113   0.615  0.1274  0.1438 -1.8874
 3129TIP3    H231023   2.392   4.176   0.638 -0.2285 -1.3200  0.3544
 3130TIP3   OH231024   4.923   1.885   6.893 -0.0421 -0.4616 -0.5331
 3130TIP3    H131025   4.932   1.790   6.879  0.2978 -0.5085 -0.0148
 3130TIP3    H231026   5.009   1.913   6.922 -0.0543  0.0687 -1.0042
 3131TIP3   OH231027   4.139   1.907   0.092 -0.7033  0.0446 -0.3395
 3131TIP3    H131028   4.205   1.837   0.092  0.7781  1.3604  0.7119
 3131TIP3    H231029   4.122   1.923   0.185 -3.0662 -0.7044 -0.5717
 3132TIP3   OH231030   0.803   1.082   1.350 -0.2942  0.2879  0.4405
 3132TIP3    H131031   0.861   1.152   1.381  0.9666  0.0562 -1.2469
 3132TIP3    H231032   0.778   1.035   1.429  0.4463  1.4411  1.4010
 3133TIP3   OH231033   4.143   1.772   1.532 -0.1586  0.1364 -0.0208
 3133TIP3    H131034   4.179   1.839   1.591 -0.3563  1.2063 -1.0684
 3133TIP3    H231035   4.102   1.708   1.590  0.0273  0.9282  1.0177
 3134TIP3   OH231036   4.230   4.546   8.591  0.0477 -0.1054 -0.5067
 3134TIP3    H131037   4.194   4.467   8.550  1.2010 -0.4192 -0.9571
 3134TIP3    H231038   4.261   4.516   8.677 -1.4571  0.3399  0.2294
 3135TIP3   OH231039   1.244   4.103   7.603 -0.1754  0.8304  0.0509
 3135TIP3    H131040   1.222   4.013   7.628 -0.4766  0.7626 -0.4425
 3135TIP3    H231041   1.176   4.128   7.541  0.2095  1.2149 -0.2202
 3136TIP3   OH231042   2.159   6.906   0.052 -0.8857  0.2739  0.8899
 3136TIP3    H131043   2.250   6.933   0.042 -1.2361  0.7678 -2.0965
 3136TIP3    H231044   2.133   6.938   0.138  1.8501 -0.3119  2.0309
 3137TIP3   OH231045   2.859   6.536   0.833 -0.0469 -0.1809  1.1024
 3137TIP3    H131046   2.812   6.613   0.802  1.1563  0.6914  1.3996
 3137TIP3    H231047   2.925   6.570   0.894  1.4254 -1.2829  0.1950
 3138TIP3   OH231048   3.923   2.623   8.445  0.7618 -0.1569  0.0794
 3138TIP3    H131049   3.869   2.685   8.396 -1.4067 -1.3414  0.8110
 3138TIP3    H231050   3.949   2.671   8.524 -1.0199 -0.1565  0.7127
 3139TIP3   OH231051   5.316   6.523   7.459 -0.5824 -0.0891 -0.0834
 3139TIP3    H131052   5.226   6.547   7.482 -0.9980 -0.9641 -0.7682
 3139TIP3    H231053   5.342   6.588   7.393 -1.1612 -0.5734 -0.8037
 3140TIP3   OH231054   1.045   5.347   2.300  0.3448 -0.0597 -0.3099
 3140TIP3    H131055   0.990   5.347   2.378 -0.7256  1.6403 -1.0127
 3140TIP3    H231056   0.988   5.314   2.231  0.1189  1.8208 -1.0701
 3141TIP3   OH231057   1.112   5.037   0.287  0.2010  0.4814 -0.2021
 3141TIP3    H131058   1.084   5.043   0.378  2.1076  2.4870  0.3359
 3141TIP3    H231059   1.033   5.011   0.239 -1.5956  2.1927  1.6357
 3142TIP3   OH231060   2.776   2.190   0.688  0.6269 -0.3899  0.5073
 3142TIP3    H131061   2.807   2.277   0.712 -1.0202  0.2477  0.4661
 3142TIP3    H231062   2.682   2.193   0.703  0.4037 -1.8778 -0.3766
 3143TIP3   OH231063   3.699   1.081   6.673  0.4416  0.0693 -0.0086
 3143TIP3    H131064   3.693   1.164   6.721  1.8702  0.0429  0.2830
 3143TIP3    H231065   3.614   1.072   6.630 -0.2551  0.9698  1.1026
 3144TIP3   OH231066   5.114   3.109   2.149  0.4329 -0.7042 -0.0506
 3144TIP3    H131067   5.047   3.065   2.202  0.8419 -1.0477  0.1791
 3144TIP3    H231068   5.196   3.090   2.194  0.4926  1.5324  0.9292
 3145TIP3   OH231069   6.646   4.504   8.360  0.5799 -0.0982 -0.4514
 3145TIP3    H131070   6.719   4.500   8.298 -0.3570 -2.0964 -1.5304
 3145TIP3    H231071   6.593   4.427   8.339 -1.0441  0.4723  1.2981
 3146TIP3   OH231072   0.065   6.336   1.101 -0.4372  0.5434  0.0250
 3146TIP3    H131073   0.101   6.269   1.160 -0.9335 -0.0945 -0.3900
 3146TIP3    H231074  -0.023   6.352   1.135  0.5210  2.8483  1.6643
 3147TIP3   OH231075   5.866   0.869   0.434  0.2382 -0.2901 -0.1793
 3147TIP3    H131076   5.959   0.850   0.446  0.5680  0.1921 -1.7592
 3147TIP3    H231077   5.858   0.962   0.453  0.2355 -0.1485 -0.8710
 3148TIP3   OH231078   4.828   0.010   0.846  0.0415 -0.3871 -0.2539
 3148TIP3    H131079   4.809   0.074   0.915  1.2914  0.0907 -0.3225
 3148TIP3    H231080   4.742  -0.024   0.820 -0.4564 -0.8133  1.7549
 3149TIP3   OH231081   0.896   1.727   1.763 -0.2869 -1.1072 -0.0386
 3149TIP3    H131082   0.930   1.705   1.850 -0.6725 -1.0004  0.1402
 3149TIP3    H231083   0.826   1.790   1.780  0.4811 -0.0962 -0.5102
 3150TIP3   OH231084   0.894   6.063   1.987  0.3512 -0.0520 -0.0502
 3150TIP3    H131085   0.838   6.106   1.923 -0.5120  0.0568  0.7480
 3150TIP3    H231086   0.842   6.061   2.067  0.3803 -2.4681 -0.0040
 3151TIP3   OH231087   6.577   1.308   6.871 -0.3604  0.1198  0.1281
 3151TIP3    H131088   6.524   1.262   6.805 -0.8430  1.9209 -0.8179
 3151TIP3    H231089   6.660   1.261   6.872 -1.5801 -2.1858  0.9350
 3152TIP3   OH231090   0.367   4.791   1.577 -0.0543  0.5264 -0.8109
 3152TIP3    H131091   0.461   4.811   1.571 -0.0387  0.3449 -1.1926
 3152TIP3    H231092   0.329   4.833   1.500 -0.6201  2.4459  0.4343
 3153TIP3   OH231093   0.391   1.306   1.339  0.3842 -0.0378 -0.3670
 3153TIP3    H131094   0.469   1.308   1.394 -0.5678  0.8977  1.0061
 3153TIP3    H231095   0.335   1.238   1.379 -0.7524  1.3546  0.5113
 3154TIP3   OH231096   0.723   2.239   0.847  0.0640 -0.1614 -0.0015
 3154TIP3    H131097   0.629   2.250   0.836  0.1899  0.4837 -0.5151
 3154TIP3    H231098   0.752   2.201   0.764  0.2392 -0.5072  0.2146
 3155TIP3   OH231099   1.588   2.794   0.483 -0.1213 -0.5130  0.1751
 3155TIP3    H131100   1.670   2.761   0.445  1.5503  1.8856  1.4250
 3155TIP3    H231101   1.605   2.794   0.578 -2.5719 -2.3120  0.6993
 3156TIP3   OH231102   1.244   3.744   1.276 -0.3386  0.3452  0.1169
 3156TIP3    H131103   1.269   3.797   1.352 -2.2111 -0.8041  1.6496
 3156TIP3    H231104   1.196   3.805   1.219 -0.1866  0.8968  0.5669
 3157TIP3   OH231105   5.731   5.931   7.971  0.5119 -0.3883  0.4151
 3157TIP3    H131106   5.667   5.967   7.909 -0.9287 -2.1756  0.7933
 3157TIP3    H231107   5.744   6.002   8.034  1.3392  1.1524 -1.3594
 3158TIP3   OH231108   6.311   4.455   0.877 -0.0899 -0.6819  0.4735
 3158TIP3    H131109   6.248   4.509   0.925  0.8065  0.4101  0.4490
 3158TIP3    H231110   6.308   4.370   0.921 -0.6698 -0.2668  1.2619
 3159TIP3   OH231111   0.496   5.874   7.483 -0.3116 -0.4711 -0.5688
 3159TIP3    H131112   0.425   5.885   7.420 -0.3341  1.1167 -0.3009
 3159TIP3    H231113   0.551   5.806   7.444 -0.0014  0.8623 -2.6150
 3160TIP3   OH231114   6.848   1.161   2.661  0.3196  0.0363 -0.0347
 3160TIP3    H131115   6.832   1.241   2.712  0.6328  0.3179 -0.3755
 3160TIP3    H231116   6.944   1.155   2.657  0.3029 -0.6465  0.4405
 3161TIP3   OH231117   0.981   0.941   0.444 -0.1871  0.5745  0.4722
 3161TIP3    H131118   0.894   0.950   0.405 -0.2639 -0.3164  0.4141
 3161TIP3    H231119   0.994   1.022   0.493 -1.5010  0.2795  1.3510
 3162TIP3   OH231120   6.136   0.583   7.856  0.1804 -0.2876  0.1232
 3162TIP3    H131121   6.090   0.666   7.872 -0.5646 -0.6825  0.0496
 3162TIP3    H231122   6.072   0.529   7.810 -0.0379 -1.6387  1.9371
 3163TIP3   OH231123   6.153   4.734   1.829 -0.2010 -0.0150 -0.6173
 3163TIP3    H131124   6.244   4.758   1.849  0.0251 -0.3040 -1.2512
 3163TIP3    H231125   6.143   4.647   1.867  0.3105 -0.6766 -1.9176
 3164TIP3   OH231126   4.863   2.235   1.871  0.7124  0.0587  0.6758
 3164TIP3    H131127   4.938   2.292   1.854  1.1998 -0.5783  0.6635
 3164TIP3    H231128   4.875   2.161   1.812 -2.5312  2.1631 -3.0822
 3165TIP3   OH231129   1.191   4.562   0.559 -0.0940  0.3899 -0.1898
 3165TIP3    H131130   1.179   4.603   0.473  0.1378  0.4432 -0.1983
 3165TIP3    H231131   1.129   4.607   0.616 -0.2146  0.3883 -0.3202
 3166TIP3   OH231132   2.110   4.783   8.097  0.0894  0.3740  0.0500
 3166TIP3    H131133   2.133   4.872   8.125  0.1408  0.1380  0.7849
 3166TIP3    H231134   2.164   4.727   8.152 -1.3612 -0.1637  0.9707
 3167TIP3   OH231135   0.713   6.226   7.481 -0.2034  0.1990  0.0378
 3167TIP3    H131136   0.802   6.261   7.479  0.1430 -0.4551  1.8561
 3167TIP3    H231137   0.664   6.288   7.534 -0.3694 -0.4047  0.5950
 3168TIP3   OH231138   5.815   6.201   2.040 -0.1363 -0.3600 -0.1865
 3168TIP3    H131139   5.740   6.196   1.981 -1.6057 -2.4728  1.7155
 3168TIP3    H231140   5.826   6.112   2.073  3.3080 -0.1693 -0.4347
 3169TIP3   OH231141   4.739   0.938   7.933  0.6767 -0.3006  0.6585
 3169TIP3    H131142   4.657   0.988   7.941  0.6053  0.4373 -2.9054
 3169TIP3    H231143   4.796   0.974   8.001 -0.3117  2.7888  0.0288
 3170TIP3   OH231144   3.444   4.195   0.709 -0.0711 -0.1444  0.0872
 3170TIP3    H131145   3.463   4.277   0.755  0.5254  1.1824 -2.3361
 3170TIP3    H231146   3.360   4.211   0.666 -2.1414 -2.4457  2.9448
 3171TIP3   OH231147   3.112   0.046   6.945 -0.1250  0.0836 -0.4491
 3171TIP3    H131148   3.089   0.066   6.854 -0.1496 -0.0230 -0.4662
 3171TIP3    H231149   3.191   0.098   6.961 -0.5381  0.6774 -0.2980
 3172TIP3   OH231150   4.247   1.986   6.354 -0.2382 -0.3627 -0.2368
 3172TIP3    H131151   4.185   2.057   6.370  0.5374 -0.2273  2.6280
 3172TIP3    H231152   4.330   2.029   6.335 -0.0192 -0.4906  0.4019
 3173TIP3   OH231153   1.614   6.544   8.587 -0.3508 -0.7190  0.0970
 3173TIP3    H131154   1.606   6.503   8.500  1.3230 -1.0842  0.0821
 3173TIP3    H231155   1.708   6.547   8.603 -0.5662  0.7492  1.2576
 3174TIP3   OH231156   4.278   0.845   8.427 -0.3509 -0.1012  0.5099
 3174TIP3    H131157   4.276   0.901   8.505 -0.9545  0.1017  0.3508
 3174TIP3    H231158   4.193   0.858   8.385 -0.6826 -1.4608  0.6990
 3175TIP3   OH231159   4.358   3.864   0.188  0.0711 -0.3698  0.4994
 3175TIP3    H131160   4.388   3.955   0.184 -1.0025  0.0935  2.1343
 3175TIP3    H231161   4.267   3.867   0.158  0.0639 -0.9370  0.4399
 3176TIP3   OH231162   5.478   5.605   1.271  0.1180  0.3518 -0.3918
 3176TIP3    H131163   5.520   5.691   1.264 -0.1286  0.4989 -0.0815
 3176TIP3    H231164   5.386   5.625   1.288  0.0250  0.0267 -0.5091
 3177TIP3   OH231165   2.255   1.085   0.617  0.2327 -0.7573  0.2178
 3177TIP3    H131166   2.323   1.134   0.569 -0.2815 -0.1001  0.1463
 3177TIP3    H231167   2.189   1.067   0.551 -0.5136  0.2109  0.6762
 3178TIP3   OH231168   0.050   4.736   1.211 -0.0242  0.0509  0.2718
 3178TIP3    H131169  -0.044   4.731   1.193 -0.0055 -0.3080  0.2643
 3178TIP3    H231170   0.090   4.749   1.126 -0.0577  0.0719  0.2592
 3179TIP3   OH231171   6.396   6.537   2.182 -0.3151 -0.0148  0.2717
 3179TIP3    H131172   6.457   6.609   2.193  0.0343 -0.1018 -0.9193
 3179TIP3    H231173   6.451   6.460   2.170 -0.5777  0.0551 -1.8094
 3180TIP3   OH231174   3.094   4.085   6.182 -0.6330  0.1424  0.0158
 3180TIP3    H131175   3.155   4.149   6.219 -0.0481 -0.6743  0.4831
 3180TIP3    H231176   3.096   4.011   6.243 -1.8479 -0.0391 -0.1357
 3181TIP3   OH231177   2.742   4.223   0.933 -0.2365  0.1457 -0.3457
 3181TIP3    H131178   2.676   4.159   0.958 -1.5713  1.4555 -0.3588
 3181TIP3    H231179   2.825   4.183   0.958 -1.0019 -1.5913 -0.4041
 3182TIP3   OH231180   5.074   0.450   8.504  0.2283 -0.2063  0.2909
 3182TIP3    H131181   5.149   0.399   8.472  1.6835  0.3897  2.5094
 3182TIP3    H231182   5.026   0.388   8.560  1.2817  0.3962  1.9512
 3183TIP3   OH231183   4.613   4.006   7.185 -0.3371  0.6119 -0.1666
 3183TIP3    H131184   4.616   4.056   7.267  2.3070  0.9105 -0.3553
 3183TIP3    H231185   4.702   4.012   7.151 -0.6956 -1.8007 -1.7077
 3184TIP3   OH231186   0.079   3.524   2.503 -0.2040 -0.2051 -0.0737
 3184TIP3    H131187   0.059   3.556   2.414  1.9191  2.4553  0.2739
 3184TIP3    H231188  -0.003   3.535   2.551 -1.1441 -0.8489 -1.4551
 3185TIP3   OH231189   2.542   0.599   1.296  0.1277  1.0516 -0.1571
 3185TIP3    H131190   2.587   0.638   1.371 -0.4456  1.6706 -0.1218
 3185TIP3    H231191   2.604   0.605   1.224  1.0967 -0.5041  0.4960
 3186TIP3   OH231192   1.647   3.999   1.219 -0.3406  0.2369  0.0142
 3186TIP3    H131193   1.672   4.079   1.174 -1.8354  0.3984 -0.5917
 3186TIP3    H231194   1.682   3.928   1.165  0.9960  0.4478  0.5600
 3187TIP3   OH231195   3.005   0.414   6.808  0.0481 -0.3236  0.2905
 3187TIP3    H131196   2.977   0.327   6.779 -1.2877  0.7235 -1.8782
 3187TIP3    H231197   2.941   0.474   6.767  0.7820  1.6604  1.8988
 3188TIP3   OH231198   0.507   6.531   7.316  0.3382  0.0887  0.2641
 3188TIP3    H131199   0.517   6.548   7.223 -0.2990  0.6042  0.2791
 3188TIP3    H231200   0.595   6.541   7.353  0.3914  1.1022 -0.0937
 3189TIP3   OH231201   2.392   4.744   1.427  0.6299  0.3435  0.2980
 3189TIP3    H131202   2.364   4.700   1.507  0.8367 -2.7383 -1.1588
 3189TIP3    H231203   2.484   4.719   1.417  0.8526  1.4137 -0.4606
 3190TIP3   OH231204   4.051   4.969   0.224 -0.1944  0.0077  0.3224
 3190TIP3    H131205   3.976   4.971   0.165  0.1552 -0.7117 -0.1744
 3190TIP3    H231206   4.028   4.904   0.290 -0.9943  1.5116  1.5832
 3191TIP3   OH231207   0.418   3.488   1.983 -0.0849 -0.0058  0.4072
 3191TIP3    H131208   0.483   3.467   1.915 -1.0910  0.2013 -0.6398
 3191TIP3    H231209   0.454   3.566   2.026  0.3995  0.0748 -0.1235
 3192TIP3   OH231210   1.641   1.429   6.808 -0.4899  0.0667 -0.0302
 3192TIP3    H131211   1.551   1.402   6.827 -0.1681 -0.7469  0.4167
 3192TIP3    H231212   1.651   1.419   6.714 -0.6974 -0.3966 -0.0038
 3193TIP3   OH231213   4.489   1.671   0.784  0.8836 -0.1115  0.3324
 3193TIP3    H131214   4.452   1.662   0.872 -0.3127 -0.9640 -0.2332
 3193TIP3    H231215   4.582   1.651   0.795  0.1456 -4.1161  0.8380
 3194TIP3   OH231216   4.362   3.951   7.365 -0.0396 -0.4144  0.2529
 3194TIP3    H131217   4.398   3.982   7.282  0.3601  0.8014  0.8558
 3194TIP3    H231218   4.270   3.976   7.362 -0.3722 -1.6162 -0.3855
 3195TIP3   OH231219   5.512   2.025   1.124 -0.0026  0.0524  0.8966
 3195TIP3    H131220   5.592   1.973   1.114  0.1347 -0.4083  3.5641
 3195TIP3    H231221   5.543   2.115   1.128  0.5091 -0.1489  2.3447
 3196TIP3   OH231222   4.775   6.488   1.647  0.6293  0.2021 -0.7077
 3196TIP3    H131223   4.860   6.460   1.682 -0.2901 -1.4107  0.3290
 3196TIP3    H231224   4.757   6.571   1.692  1.5528  0.4513 -0.7813
 3197TIP3   OH231225   2.053   4.410   6.572 -0.0350  0.3659  0.5201
 3197TIP3    H131226   1.993   4.359   6.626  0.9595 -1.8960 -0.3916
 3197TIP3    H231227   2.099   4.467   6.633 -0.1393 -0.8923  1.7957
 3198TIP3   OH231228   5.832   6.714   0.578  0.5098  0.3817  0.0003
 3198TIP3    H131229   5.926   6.701   0.585  0.3030 -0.8078  0.9098
 3198TIP3    H231230   5.793   6.634   0.615 -0.8550  0.5781 -0.9176
 3199TIP3   OH231231   2.820   5.032   0.177 -0.0666 -0.5790  0.4200
 3199TIP3    H131232   2.769   4.951   0.182  0.4526 -0.9909 -0.7939
 3199TIP3    H231233   2.905   5.009   0.215  0.4175 -0.8995 -0.8102
 3200TIP3   OH231234   6.148   2.373   0.683  0.6966  0.2177  0.1043
 3200TIP3    H131235   6.189   2.314   0.746  0.4062 -2.0609 -1.7084
 3200TIP3    H231236   6.076   2.323   0.646 -1.9062  3.0125  0.9542
 3201TIP3   OH231237   1.892   4.747   8.416  0.2624 -0.4486 -0.3998
 3201TIP3    H131238   1.945   4.818   8.453  0.3880 -2.0165  2.7366
 3201TIP3    H231239   1.805   4.786   8.404  0.4809  0.4080  0.6939
 3202TIP3   OH231240   4.792   5.980   0.413  0.4214  0.0202 -0.0153
 3202TIP3    H131241   4.760   5.944   0.495 -1.4256 -0.8835 -1.0668
 3202TIP3    H231242   4.721   6.035   0.381  1.0131  0.1856 -1.1192
 3203TIP3   OH231243   0.881   5.038   2.403  0.0280 -0.0048 -0.0945
 3203TIP3    H131244   0.865   5.124   2.441 -2.0991  0.2169 -1.3312
 3203TIP3    H231245   0.826   5.035   2.324  1.2324 -1.9133 -0.9614
 3204TIP3   OH231246   6.208   1.115   0.182  0.0427  0.6005  0.1355
 3204TIP3    H131247   6.151   1.038   0.195  0.6914  0.0623 -0.1378
 3204TIP3    H231248   6.225   1.147   0.271  1.1195 -0.5939  0.3981
 3205TIP3   OH231249   0.724   5.393   1.526 -0.1444  0.1100  0.6527
 3205TIP3    H131250   0.650   5.453   1.535 -0.2463  0.4169 -1.5830
 3205TIP3    H231251   0.800   5.450   1.515 -0.3240 -0.0332 -2.1289
 3206TIP3   OH231252   3.416   2.846   7.281  0.3198  0.0080 -0.0178
 3206TIP3    H131253   3.347   2.910   7.272 -0.2420 -0.3217  1.5451
 3206TIP3    H231254   3.494   2.889   7.245 -0.1618  1.3438  0.4726
 3207TIP3   OH231255   0.023   0.777   8.133  0.0540  0.0454  0.2028
 3207TIP3    H131256   0.074   0.855   8.155  0.4060  0.5232 -2.0076
 3207TIP3    H231257   0.005   0.735   8.217  0.8074  1.9055  1.3683
 3208TIP3   OH231258   6.663   2.041   0.342  0.0836  0.3536  0.2545
 3208TIP3    H131259   6.722   2.104   0.300 -0.9133 -0.1540 -2.0434
 3208TIP3    H231260   6.713   1.960   0.347  0.0455  0.2824 -0.4539
 3209TIP3   OH231261   5.596   0.335   1.768  0.0329  0.0439  0.2459
 3209TIP3    H131262   5.657   0.269   1.801  1.2183  0.9238 -0.1336
 3209TIP3    H231263   5.652   0.401   1.726 -1.0158  1.9004  1.6448
 3210TIP3   OH231264   2.095   0.008   1.021  0.4139 -0.4803 -0.1804
 3210TIP3    H131265   2.029  -0.059   1.003 -0.5880  0.8467 -1.7768
 3210TIP3    H231266   2.046   0.090   1.020  1.8716  0.4265  0.0265
 3211TIP3   OH231267   4.580   1.658   7.697  0.2123 -0.3806 -0.2254
 3211TIP3    H131268   4.604   1.585   7.754  2.4932  1.4317  1.3752
 3211TIP3    H231269   4.610   1.736   7.745  0.4417  1.4052 -3.0524
 3212TIP3   OH231270   1.170   6.745   1.128 -0.2990  0.2702  0.1876
 3212TIP3    H131271   1.167   6.829   1.084 -0.3002 -0.1110 -0.5559
 3212TIP3    H231272   1.263   6.730   1.145 -0.3932  1.0336  1.5614
 3213TIP3   OH231273   3.225   3.641   0.003  0.0170  0.2181  0.6823
 3213TIP3    H131274   3.244   3.628   0.096  1.0651  3.1291  0.9820
 3213TIP3    H231275   3.307   3.621  -0.041 -0.6602 -1.8011  0.2410
 3214TIP3   OH231276   2.827   0.650   2.142  0.2444 -0.0296 -0.2189
 3214TIP3    H131277   2.843   0.569   2.190 -1.4085  1.2417  2.6784
 3214TIP3    H231278   2.910   0.667   2.096  2.0588 -1.2793  2.3416
 3215TIP3   OH231279   1.202   0.846   8.476  0.2680  0.3661  0.0387
 3215TIP3    H131280   1.156   0.764   8.495 -1.8246  1.0890 -1.5642
 3215TIP3    H231281   1.295   0.823   8.479 -0.2691 -2.0807 -0.4655
 3216TIP3   OH231282   0.230   1.338   6.499  0.4520 -0.3746  0.3005
 3216TIP3    H131283   0.244   1.250   6.532 -0.5730 -0.2677  1.0800
 3216TIP3    H231284   0.300   1.390   6.539  1.1856 -0.8554 -0.3255
 3217TIP3   OH231285   1.782   0.938   0.853  0.4843 -0.4485  0.0946
 3217TIP3    H131286   1.743   0.942   0.765  0.9195  1.4998 -0.0592
 3217TIP3    H231287   1.710   0.913   0.910  0.1023 -1.3522 -0.7527
 3218TIP3   OH231288   5.307   3.038   1.958  0.0175 -0.3009  0.2832
 3218TIP3    H131289   5.225   3.057   2.004  0.6001  2.0192  0.4956
 3218TIP3    H231290   5.287   3.056   1.866  0.5455  1.5132  0.4741
 3219TIP3   OH231291   6.332   2.672   0.928  0.6955 -0.0832  0.5278
 3219TIP3    H131292   6.361   2.589   0.889 -0.2099 -0.9490  1.6197
 3219TIP3    H231293   6.408   2.704   0.977  1.0989 -0.1781 -0.0253
 3220TIP3   OH231294   2.842   4.616   1.926 -0.5107 -0.0377  0.1600
 3220TIP3    H131295   2.930   4.652   1.918 -0.3643 -0.2872  0.6406
 3220TIP3    H231296   2.786   4.679   1.881 -0.0508 -0.0312 -0.4101
 3221TIP3   OH231297   0.915   0.685   0.838 -0.0535  0.4658  0.1414
 3221TIP3    H131298   0.839   0.674   0.895 -0.1963  0.2895 -0.0784
 3221TIP3    H231299   0.907   0.774   0.804  0.1212  0.6276  0.5235
 3222TIP3   OH231300   2.459   0.369   1.448 -0.2257 -0.1386  0.2123
 3222TIP3    H131301   2.438   0.383   1.540 -0.1840 -0.4035  0.2640
 3222TIP3    H231302   2.472   0.457   1.412  0.7323 -0.0680  0.6940
 3223TIP3   OH231303   4.783   6.065   7.235  0.2117  0.6500  0.2756
 3223TIP3    H131304   4.712   6.110   7.190 -0.8408 -1.2212 -0.0437
 3223TIP3    H231305   4.853   6.129   7.240 -1.1629  2.2617 -0.2390
 3224TIP3   OH231306   4.107   6.586   7.554  0.2674 -1.0732 -0.5206
 3224TIP3    H131307   4.035   6.526   7.571 -0.7906 -0.0566 -1.1927
 3224TIP3    H231308   4.139   6.610   7.640 -0.2001 -1.5479 -0.2082
 3225TIP3   OH231309   2.281   3.839   1.064  0.4346  0.6684  0.0652
 3225TIP3    H131310   2.240   3.907   1.117  0.0545  1.9013 -1.7078
 3225TIP3    H231311   2.353   3.884   1.020  1.7265 -0.7042  0.6950
 3226TIP3   OH231312   0.624   6.413   8.107  0.4374  0.4711 -0.0903
 3226TIP3    H131313   0.700   6.415   8.166 -0.0205  1.3453  0.4951
 3226TIP3    H231314   0.564   6.477   8.144 -0.1485  0.5509 -1.1435
 3227TIP3   OH231315   2.385   4.980   8.621 -0.2254 -0.1770 -0.4222
 3227TIP3    H131316   2.381   4.886   8.603  1.0588 -0.1152 -1.1291
 3227TIP3    H231317   2.460   4.989   8.680  0.4912  0.5357 -1.4122
 3228TIP3   OH231318   4.507   2.131   1.338 -0.6504 -0.0976 -0.1647
 3228TIP3    H131319   4.497   2.141   1.433  0.9514 -0.9862  0.1255
 3228TIP3    H231320   4.421   2.101   1.308 -1.7134  1.8616  0.7116
 3229TIP3   OH231321   4.349   4.411   0.184  0.6396  0.1111  0.0754
 3229TIP3    H131322   4.294   4.438   0.258  0.5154  0.5711 -0.1856
 3229TIP3    H231323   4.392   4.331   0.215 -0.1877 -0.2669  0.2788
 3230TIP3   OH231324   1.778   2.613   1.787  0.3118  0.2780 -0.3471
 3230TIP3    H131325   1.756   2.648   1.700  1.8262  1.1698 -0.4037
 3230TIP3    H231326   1.705   2.555   1.808  0.0163 -0.1472 -2.3230
 3231TIP3   OH231327   0.637   3.902   1.548 -0.0174 -0.2929 -0.6210
 3231TIP3    H131328   0.587   3.959   1.606 -0.5047 -1.0979 -0.2301
 3231TIP3    H231329   0.571   3.859   1.494  0.2836 -0.9882 -0.4459
 3232TIP3   OH231330   6.023   3.910   1.668 -0.1290 -0.3729 -0.3905
 3232TIP3    H131331   5.986   3.957   1.593 -0.7644 -0.6892 -0.2869
 3232TIP3    H231332   6.050   3.979   1.728  1.7571 -0.0729 -1.5198
 3233TIP3   OH231333   2.339   6.510   0.518 -0.1729  0.3804 -0.3285
 3233TIP3    H131334   2.280   6.541   0.587 -0.5778 -0.2453 -0.3891
 3233TIP3    H231335   2.291   6.441   0.474  1.0947 -1.0681  0.4644
 3234TIP3   OH231336   2.023   5.000   1.218 -0.1635  0.1584  0.0276
 3234TIP3    H131337   1.948   4.978   1.273  0.6733 -0.5089  0.9574
 3234TIP3    H231338   1.986   5.041   1.141 -1.4682 -0.0306  0.5324
 3235TIP3   OH231339   5.908   5.308   2.568  0.1953  0.2575  0.2716
 3235TIP3    H131340   5.999   5.321   2.543  0.4729  2.0685  2.0183
 3235TIP3    H231341   5.864   5.389   2.544 -0.9903 -0.6063 -0.5774
 3236TIP3   OH231342   1.234   5.260   6.748  0.1700 -0.1355  0.0229
 3236TIP3    H131343   1.200   5.335   6.797 -1.1542  0.7672 -2.1333
 3236TIP3    H231344   1.172   5.189   6.765  0.5456 -0.2969  0.7856
 3237TIP3   OH231345   5.038   3.833   0.754  0.3722  0.4022  0.0492
 3237TIP3    H131346   5.056   3.874   0.838  0.0720  1.5877 -0.4494
 3237TIP3    H231347   4.943   3.834   0.745  0.4523  1.9041 -1.0546
 3238TIP3   OH231348   1.403   0.439   7.734  0.7820  0.2703 -0.1880
 3238TIP3    H131349   1.494   0.427   7.705  0.3413 -0.2794 -1.4047
 3238TIP3    H231350   1.379   0.354   7.772  0.5544  0.1876 -0.5143
 3239TIP3   OH231351   4.297   1.587   0.473  0.5656 -0.8026 -0.0458
 3239TIP3    H131352   4.361   1.526   0.508  2.0539  1.1429  0.8538
 3239TIP3    H231353   4.337   1.673   0.485 -2.4971  0.6129  1.2676
 3240TIP3   OH231354   2.153   4.858   0.334  0.3979  0.2962  0.0028
 3240TIP3    H131355   2.094   4.844   0.260  1.3621 -1.9822 -0.4471
 3240TIP3    H231356   2.116   4.804   0.404  1.1057  0.0554  0.1982
 3241TIP3   OH231357   0.996   3.924   6.940  0.0913  0.4218 -0.4778
 3241TIP3    H131358   0.933   3.978   6.893  0.6212  0.1707 -1.4843
 3241TIP3    H231359   1.037   3.869   6.873 -1.0776 -1.9418  0.5831
 3242TIP3   OH231360   4.005   3.606   0.039  0.2085  0.0058  0.2567
 3242TIP3    H131361   4.006   3.699   0.060 -0.7748  0.3890 -1.2282
 3242TIP3    H231362   4.096   3.578   0.049  0.4558  1.0383  1.0619
 3243TIP3   OH231363   0.260   6.130   7.123  0.2229  0.3852  0.0400
 3243TIP3    H131364   0.182   6.154   7.073  0.2000 -0.3207 -0.2751
 3243TIP3    H231365   0.229   6.064   7.185  0.6636 -0.3323 -0.4735
 3244TIP3   OH231366   4.236   2.138   1.271  0.1243 -0.2598 -0.0505
 3244TIP3    H131367   4.180   2.063   1.291 -0.7341  0.5348  0.6533
 3244TIP3    H231368   4.181   2.214   1.289  1.0343  0.5436 -0.5667
 3245TIP3   OH231369   4.033   5.948   7.539 -1.0755  0.3408  0.0056
 3245TIP3    H131370   4.019   6.024   7.482  1.4762 -0.0221 -1.2586
 3245TIP3    H231371   3.950   5.900   7.537 -1.8653  1.6825 -1.3318
 3246TIP3   OH231372   6.584   4.894   8.012  0.1986 -0.3651 -0.0547
 3246TIP3    H131373   6.500   4.924   8.047 -0.3852 -0.8086 -1.0229
 3246TIP3    H231374   6.561   4.840   7.936  1.2947 -1.8486  0.6140
 3247TIP3   OH231375   5.940   1.483   8.435  0.6607  0.1439  0.4618
 3247TIP3    H131376   5.996   1.544   8.387  0.5802 -0.6355 -0.6515
 3247TIP3    H231377   5.852   1.500   8.402  0.7681 -1.2801 -0.6801
 3248TIP3   OH231378   4.153   2.720   1.716  0.1680 -0.2162 -0.1798
 3248TIP3    H131379   4.098   2.642   1.714  0.9532 -0.7721 -0.6237
 3248TIP3    H231380   4.228   2.696   1.769  0.0898  0.4711  0.2604
 3249TIP3   OH231381   5.544   2.639   7.920 -0.3786  0.2932 -0.2253
 3249TIP3    H131382   5.478   2.692   7.964  1.8138  2.2587  0.8874
 3249TIP3    H231383   5.584   2.697   7.856  0.8820 -0.5847 -0.2673
 3250TIP3   OH231384   5.371   1.261   2.107  0.3267  0.2988  0.5317
 3250TIP3    H131385   5.317   1.224   2.038  0.8415  0.1033  0.2233
 3250TIP3    H231386   5.457   1.219   2.095  0.5632  0.6514  0.9601
 3251TIP3   OH231387   0.610   4.333   8.485  0.6422 -0.3594  0.4512
 3251TIP3    H131388   0.547   4.286   8.539  0.4290 -1.4995 -0.7617
 3251TIP3    H231389   0.694   4.290   8.503  0.4394 -1.2626 -0.6921
 3252TIP3   OH231390   0.796   5.936   6.944  0.3692 -0.0835 -0.1494
 3252TIP3    H131391   0.798   5.878   6.868  0.9352 -0.3101  0.0329
 3252TIP3    H231392   0.888   5.952   6.965  0.2258  1.5644 -0.7045
 3253TIP3   OH231393   1.237   0.903   6.628  0.0853  0.3163 -0.0933
 3253TIP3    H131394   1.176   0.976   6.634 -1.1874 -0.5371 -1.6778
 3253TIP3    H231395   1.216   0.861   6.544  0.9281 -1.7108  0.6470
 3254TIP3   OH231396   1.006   5.237   2.046  0.0385 -0.0477 -0.0523
 3254TIP3    H131397   1.097   5.252   2.020  0.4908 -1.0895  0.8567
 3254TIP3    H231398   0.985   5.150   2.014 -0.8397  0.4080 -0.7476
 3255TIP3   OH231399   1.165   4.420   2.442  0.1883  0.2471 -0.3754
 3255TIP3    H131400   1.160   4.326   2.430 -0.7904  0.2367 -0.0351
 3255TIP3    H231401   1.131   4.457   2.360 -0.9033  0.2633  0.0618
 3256TIP3   OH231402   3.221   3.936   7.025  0.1662  0.2533 -0.8324
 3256TIP3    H131403   3.290   3.930   6.959  1.8554  1.2420  0.7396
 3256TIP3    H231404   3.196   4.028   7.025 -0.4624  0.0878 -0.7046
 3257TIP3   OH231405   6.514   6.597   2.865 -0.5522 -0.0875 -0.6908
 3257TIP3    H131406   6.443   6.533   2.857 -0.9220  0.4859 -2.3403
 3257TIP3    H231407   6.505   6.653   2.788  2.2076 -0.4982 -1.4118
 3258TIP3   OH231408   5.735   1.562   0.816  0.6222 -0.1605  1.0134
 3258TIP3    H131409   5.809   1.543   0.874  1.5307  0.1705 -0.0112
 3258TIP3    H231410   5.742   1.656   0.799  0.3010 -0.2382  0.4448
 3259TIP3   OH231411   3.901   0.301   0.739  0.2465 -0.2086  0.1359
 3259TIP3    H131412   3.940   0.232   0.792  0.7899 -0.8130 -1.0137
 3259TIP3    H231413   3.818   0.264   0.708 -1.0431  0.8728  2.1316
 3260TIP3   OH231414   1.021   1.478   0.638  0.4706 -0.6050  0.1208
 3260TIP3    H131415   0.988   1.442   0.556  1.1061  0.5862 -0.6831
 3260TIP3    H231416   1.101   1.524   0.614  1.1604 -0.9862  1.5643
 3261TIP3   OH231417   6.145   2.773   6.655 -0.2467  0.4636  0.4224
 3261TIP3    H131418   6.099   2.802   6.576  1.1207 -1.3255 -1.1039
 3261TIP3    H231419   6.153   2.678   6.645  1.4918  0.4023  1.8737
 3262TIP3   OH231420   4.316   1.299   2.067  0.6261  0.1713 -0.3963
 3262TIP3    H131421   4.363   1.260   1.993 -2.2610  0.1397 -2.3747
 3262TIP3    H231422   4.270   1.225   2.106  1.8781  0.2490  1.3306
 3263TIP3   OH231423   0.600   1.438   8.424 -0.1050 -0.0390 -0.5604
 3263TIP3    H131424   0.665   1.415   8.357  0.2586  0.1887 -0.2854
 3263TIP3    H231425   0.619   1.528   8.447  0.0318 -0.2415  0.1445
 3264TIP3   OH231426   1.482   6.292   6.447 -0.0599 -0.2020 -0.2216
 3264TIP3    H131427   1.461   6.276   6.539 -2.0033  2.0176 -0.1991
 3264TIP3    H231428   1.541   6.367   6.448  0.4625 -0.5954 -0.7760
 3265TIP3   OH231429   4.937   3.218   1.094 -0.0415 -0.1190  0.1713
 3265TIP3    H131430   4.961   3.196   1.004  0.0908 -1.0421  0.4200
 3265TIP3    H231431   4.982   3.300   1.112  3.6148 -2.0702  0.8638
 3266TIP3   OH231432   6.333   1.105   7.455 -0.1099 -0.5952 -0.4428
 3266TIP3    H131433   6.351   1.186   7.408 -0.9545 -0.1939 -0.1115
 3266TIP3    H231434   6.388   1.039   7.414  0.3071  0.0737 -0.9643
 3267TIP3   OH231435   5.679   2.549   1.987  0.0716 -0.0881  0.6519
 3267TIP3    H131436   5.737   2.567   2.060 -0.1755 -1.6050  1.2450
 3267TIP3    H231437   5.596   2.525   2.027  0.0969 -1.5265 -0.0703
 3268TIP3   OH231438   2.304   0.517   0.665  0.4343  0.2412 -0.5906
 3268TIP3    H131439   2.211   0.497   0.655  0.9218 -2.2312 -0.7320
 3268TIP3    H231440   2.317   0.526   0.759  0.2499 -0.5416 -0.4860
 3269TIP3   OH231441   5.213   5.627   8.534 -0.0703  0.4377  0.6502
 3269TIP3    H131442   5.195   5.539   8.568 -2.1546  1.2670  1.8376
 3269TIP3    H231443   5.208   5.684   8.611 -0.2401  1.8014 -0.3407
 3270TIP3   OH231444   4.512   6.764   1.813 -0.1855 -0.1637 -0.2054
 3270TIP3    H131445   4.550   6.788   1.728 -1.2201  0.3473 -0.5417
 3270TIP3    H231446   4.571   6.697   1.847  2.1009  1.9096  0.1754
 3271TIP3   OH231447   5.071   0.460   7.039  0.2281 -0.3369 -0.1258
 3271TIP3    H131448   5.057   0.417   6.954  1.9247 -0.8001 -0.2143
 3271TIP3    H231449   5.016   0.538   7.036 -0.4280 -0.8183 -1.2947
 3272TIP3   OH231450   3.455   1.252   8.559 -0.2922 -0.3610  0.0631
 3272TIP3    H131451   3.477   1.328   8.613  0.7122 -0.3541 -0.3345
 3272TIP3    H231452   3.380   1.212   8.603 -3.3557  2.9085 -1.6457
 3273TIP3   OH231453   0.696   1.184   0.615 -0.1666  0.7734  0.0547
 3273TIP3    H131454   0.655   1.155   0.697  0.9674  0.5728  0.5684
 3273TIP3    H231455   0.641   1.256   0.586 -2.8246 -1.5030 -1.0283
 3274TIP3   OH231456   2.762   3.547   7.402  0.0843  0.1840 -0.3512
 3274TIP3    H131457   2.835   3.493   7.371 -0.2285 -0.8091  0.6167
 3274TIP3    H231458   2.685   3.492   7.391 -0.1754  0.2318  1.1000
 3275TIP3   OH231459   0.931   2.283   1.192 -0.6342  0.5987 -0.9269
 3275TIP3    H131460   0.920   2.279   1.097  0.6543  1.4762 -1.1386
 3275TIP3    H231461   1.007   2.228   1.209 -1.4901 -0.4168 -0.2475
 3276TIP3   OH231462   4.738   3.622   2.882  0.4976 -0.2394 -0.4997
 3276TIP3    H131463   4.674   3.610   2.812  1.0442  1.1718 -1.2900
 3276TIP3    H231464   4.707   3.567   2.953  0.0147 -1.8943 -1.9027
 3277TIP3   OH231465   0.613   0.330   0.011 -0.5044 -0.3491 -0.0774
 3277TIP3    H131466   0.674   0.316  -0.061 -3.0988  0.6733 -2.6509
 3277TIP3    H231467   0.591   0.242   0.042  1.4463 -0.7581  0.2316
 3278TIP3   OH231468   6.855   4.826   8.073 -0.9240  0.1702  0.0835
 3278TIP3    H131469   6.767   4.806   8.106 -1.1209  3.6155  2.2773
 3278TIP3    H231470   6.840   4.885   8.000 -0.3845 -1.0784 -1.0681
 3279TIP3   OH231471   0.096   3.323   7.279  0.6668 -0.4230 -0.2726
 3279TIP3    H131472   0.119   3.415   7.287  0.8277 -0.3086 -1.7793
 3279TIP3    H231473   0.000   3.321   7.286  0.5917 -0.0294 -1.1069
 3280TIP3   OH231474   6.075   0.093   1.632 -0.2283  0.1393  0.0194
 3280TIP3    H131475   6.098   0.136   1.714 -2.0233 -1.1080  1.2316
 3280TIP3    H231476   6.070   0.165   1.568  1.6959  1.0663  0.8267
 3281TIP3   OH231477   3.203   3.625   8.224  0.8480 -0.5095  0.0973
 3281TIP3    H131478   3.293   3.608   8.195 -0.0073 -1.6438 -2.2118
 3281TIP3    H231479   3.207   3.710   8.267  3.2810 -1.2423  1.5287
 3282TIP3   OH231480   3.372   4.364   8.092  0.1968  0.1065 -0.1173
 3282TIP3    H131481   3.310   4.379   8.163 -1.0652 -0.7809 -0.9809
 3282TIP3    H231482   3.342   4.421   8.021  0.9005  0.3245 -0.2491
 3283TIP3   OH231483   0.804   6.798   1.111  0.0067  0.9887  0.5274
 3283TIP3    H131484   0.814   6.829   1.201  3.0745 -2.3595  1.5404
 3283TIP3    H231485   0.745   6.723   1.118 -2.0784  2.3725 -0.8605
 3284TIP3   OH231486   1.483   4.880   6.484  0.3136  0.1288  0.1408
 3284TIP3    H131487   1.495   4.815   6.553  0.5612  0.0198 -0.0023
 3284TIP3    H231488   1.572   4.908   6.462  0.1891  0.7520  0.4282
 3285TIP3   OH231489   3.695   3.966   7.216  0.3026  0.8836  0.5044
 3285TIP3    H131490   3.719   3.996   7.304 -0.1408  1.0986  0.5541
 3285TIP3    H231491   3.752   3.890   7.200 -1.3823 -0.7883  2.0067
 3286TIP3   OH231492   1.377   4.868   7.605  0.4205  0.1538  0.0478
 3286TIP3    H131493   1.370   4.953   7.562  0.5424 -0.1263 -0.5355
 3286TIP3    H231494   1.317   4.811   7.556  0.9555 -0.3035 -0.0923
 3287TIP3   OH231495   2.497   4.019   0.138 -0.3314  0.0367  0.2676
 3287TIP3    H131496   2.414   3.986   0.102  0.2590 -1.1327 -0.0644
 3287TIP3    H231497   2.471   4.072   0.213 -1.4511  0.6274 -0.5002
 3288TIP3   OH231498   5.641   3.519   8.265  0.2240  0.1660  0.1641
 3288TIP3    H131499   5.703   3.456   8.231  3.0104  2.9134 -0.3150
 3288TIP3    H231500   5.674   3.542   8.352 -0.8530  0.7941  0.4398
 3289TIP3   OH231501   5.471   0.068   8.320 -0.2066  0.0330 -0.0944
 3289TIP3    H131502   5.478   0.077   8.415 -0.4819  0.3735 -0.1044
 3289TIP3    H231503   5.553   0.027   8.293  0.0821  0.3894  0.2340
 3290TIP3   OH231504   6.301   4.125   7.468  0.4116  0.0821 -0.3241
 3290TIP3    H131505   6.329   4.038   7.437 -0.5395  0.0596 -1.1796
 3290TIP3    H231506   6.374   4.156   7.521  0.4009 -1.6213  0.7560
 3291TIP3   OH231507   2.340   3.125   1.926 -0.3817 -0.4978 -0.4101
 3291TIP3    H131508   2.357   3.135   2.020 -0.8344  1.1393 -0.4620
 3291TIP3    H231509   2.373   3.207   1.888  0.1784 -1.3187 -1.7393
 3292TIP3   OH231510   1.571   3.836   1.858  0.1128 -0.1714  0.0921
 3292TIP3    H131511   1.513   3.852   1.783 -0.5722 -0.1215  0.6217
 3292TIP3    H231512   1.657   3.821   1.819 -0.1733  0.1525 -0.6881
 3293TIP3   OH231513   6.886   5.626   0.374 -0.1314  0.0746  0.3597
 3293TIP3    H131514   6.909   5.717   0.391  0.9231 -0.2907  1.0333
 3293TIP3    H231515   6.801   5.614   0.416 -0.7807  1.0157 -0.6527
 3294TIP3   OH231516   6.206   3.915   6.728 -0.2891 -0.3434  0.3629
 3294TIP3    H131517   6.125   3.947   6.767  0.1622  0.8996  0.3152
 3294TIP3    H231518   6.177   3.850   6.663 -1.1956 -0.3803  0.7878
 3295TIP3   OH231519   2.095   2.586   6.621 -0.9367  0.5008  0.0555
 3295TIP3    H131520   2.055   2.619   6.541  2.3432  0.1101 -1.9134
 3295TIP3    H231521   2.158   2.521   6.592 -2.1264 -2.4047  3.2896
 3296TIP3   OH231522   6.715   2.743   8.048 -0.6283  0.1750  0.0311
 3296TIP3    H131523   6.801   2.713   8.019 -0.4626 -0.6780  1.2992
 3296TIP3    H231524   6.666   2.758   7.967  0.1811 -0.9543 -0.7032
 3297TIP3   OH231525   0.480   5.483   0.266 -0.1693  0.0206 -0.0631
 3297TIP3    H131526   0.567   5.511   0.293  0.7432 -2.8294  0.3264
 3297TIP3    H231527   0.420   5.547   0.304  1.6312  1.0031  1.2444
 3298TIP3   OH231528   5.272   2.729   2.360  0.3992  0.2444 -0.3537
 3298TIP3    H131529   5.205   2.724   2.429 -0.4306 -2.7064 -1.2197
 3298TIP3    H231530   5.353   2.706   2.405 -0.2263 -2.2484 -0.3455
 3299TIP3   OH231531   3.686   3.800   1.267  0.1857  0.0510 -0.5724
 3299TIP3    H131532   3.713   3.881   1.309 -3.3909  2.1332 -1.8726
 3299TIP3    H231533   3.612   3.770   1.320  0.0097 -1.1063 -1.4475
 3300TIP3   OH231534   3.620   1.837   8.194  0.7373 -0.6496 -0.3108
 3300TIP3    H131535   3.612   1.742   8.185  0.1118 -0.4815 -1.7848
 3300TIP3    H231536   3.616   1.871   8.104 -0.2372  0.8542  0.2418
 3301TIP3   OH231537   6.547   4.054   1.955  0.0962 -0.2757 -0.2543
 3301TIP3    H131538   6.457   4.031   1.977  0.4082 -0.9789  0.3122
 3301TIP3    H231539   6.555   4.146   1.983 -0.2215 -0.4363  0.3874
 3302TIP3   OH231540   3.536   4.305   8.351  0.5420 -0.4438 -0.0657
 3302TIP3    H131541   3.499   4.316   8.264  0.0781  1.6797  0.3512
 3302TIP3    H231542   3.461   4.285   8.407  0.4781  0.5382  0.2171
 3303TIP3   OH231543   6.813   3.827   0.021  0.0257  0.1172 -0.0133
 3303TIP3    H131544   6.720   3.829   0.043 -0.1036 -0.9214 -0.3938
 3303TIP3    H231545   6.852   3.898   0.072 -1.0235  0.7628 -0.0888
 3304TIP3   OH231546   3.601   5.347   6.734  0.1157 -0.1600 -0.0214
 3304TIP3    H131547   3.606   5.400   6.813  0.4998  1.4481 -1.0697
 3304TIP3    H231548   3.551   5.269   6.760 -0.0060  0.4567  1.7085
 3305TIP3   OH231549   1.385   3.887   7.345  0.5047  0.0981 -0.3167
 3305TIP3    H131550   1.303   3.906   7.298  1.5243  0.8410 -1.8783
 3305TIP3    H231551   1.396   3.793   7.337 -1.5358 -0.4719  2.2776
 3306TIP3   OH231552   6.839   6.318   1.458  0.8755  0.1444  0.0424
 3306TIP3    H131553   6.789   6.376   1.401  2.7859  0.6604 -1.2100
 3306TIP3    H231554   6.820   6.349   1.547  0.2348  1.3379 -0.4831
 3307TIP3   OH231555   3.959   5.802   0.919  0.6403 -0.8526 -0.2316
 3307TIP3    H131556   4.052   5.788   0.936  0.9194  0.7778 -0.2158
 3307TIP3    H231557   3.942   5.756   0.837  1.8201  0.0482 -1.0108
 3308TIP3   OH231558   3.405   1.597   8.355 -0.1591 -0.6877 -0.1957
 3308TIP3    H131559   3.401   1.673   8.413  0.9615 -0.1944 -0.7281
 3308TIP3    H231560   3.490   1.557   8.374  0.1161 -0.6623 -1.3142
 3309TIP3   OH231561   2.399   6.016   0.180  0.0405  0.6400  0.0897
 3309TIP3    H131562   2.381   6.108   0.200 -0.7168  0.6697 -0.6689
 3309TIP3    H231563   2.320   5.985   0.134  1.8044  0.7268 -3.2747
 3310TIP3   OH231564   5.912   3.624   2.128  0.2656 -0.1750 -0.4436
 3310TIP3    H131565   5.934   3.701   2.180 -0.2172 -0.4530  0.1842
 3310TIP3    H231566   5.997   3.589   2.100  0.6963 -1.2005  1.8872
 3311TIP3   OH231567   1.942   3.198   6.956 -0.2444  0.5752  0.5456
 3311TIP3    H131568   1.861   3.148   6.963  0.6429 -1.2174 -1.0417
 3311TIP3    H231569   1.920   3.274   6.902 -1.2216  1.0522  1.5717
 3312TIP3   OH231570   2.732   4.002   6.227 -0.2262  0.5918 -0.4593
 3312TIP3    H131571   2.794   4.017   6.298  0.9934  1.1834 -1.5919
 3312TIP3    H231572   2.779   4.032   6.148 -1.2681 -0.6683 -1.5972
 3313TIP3   OH231573   2.581   4.548   6.335  0.2575 -0.5625 -0.0253
 3313TIP3    H131574   2.497   4.593   6.323  1.1565  1.0905 -0.4980
 3313TIP3    H231575   2.589   4.492   6.258 -0.5698 -1.0106  0.2062
 3314TIP3   OH231576   1.276   2.952   8.172 -0.0470 -0.4636  0.0257
 3314TIP3    H131577   1.317   2.911   8.248  0.2000  1.2458  0.8484
 3314TIP3    H231578   1.286   2.887   8.102  0.4780 -1.7201  1.2182
 3315TIP3   OH231579   3.057   6.592   0.988  0.3471 -0.4727  0.4663
 3315TIP3    H131580   3.103   6.519   0.946  0.8017 -1.0804  1.9333
 3315TIP3    H231581   3.108   6.608   1.067  0.0906  1.2832  0.2980
 3316TIP3   OH231582   2.188   5.868   0.678  0.4451  0.4823 -0.5489
 3316TIP3    H131583   2.185   5.931   0.605  0.9394  0.4537 -0.5975
 3316TIP3    H231584   2.169   5.784   0.637  0.4204  0.5104 -0.5963
 3317TIP3   OH231585   1.175   4.871   6.843 -0.1514 -0.3210  0.1146
 3317TIP3    H131586   1.204   4.942   6.901 -0.5459 -0.5058  0.5471
 3317TIP3    H231587   1.110   4.911   6.786 -1.2006 -0.5782  1.0969
 3318TIP3   OH231588   2.937   4.309   6.054 -0.3677 -0.5577 -0.0799
 3318TIP3    H131589   2.936   4.214   6.039  0.2842 -1.0976  2.6844
 3318TIP3    H231590   3.021   4.325   6.098 -0.1790  1.4267 -1.0690
 3319TIP3   OH231591   3.165   5.496   8.266 -0.3181  1.0120 -0.0339
 3319TIP3    H131592   3.107   5.427   8.298  2.0443 -0.5487  1.1809
 3319TIP3    H231593   3.167   5.485   8.171 -0.0506 -0.5772  0.1353
 3320TIP3   OH231594   5.979   2.760   7.023  0.3121 -0.8533 -0.1715
 3320TIP3    H131595   5.981   2.691   7.089  3.0222 -0.8890 -0.1964
 3320TIP3    H231596   6.027   2.724   6.949  0.2019  0.4095 -0.8924
 3321TIP3   OH231597   3.429   1.906   0.380  0.7369 -0.2558  0.0364
 3321TIP3    H131598   3.355   1.958   0.349 -0.2513 -1.2035  0.7199
 3321TIP3    H231599   3.494   1.971   0.406  0.1711  0.6025 -0.6080
 3322TIP3   OH231600   2.909   2.004   0.011 -0.2855 -0.4919  0.3413
 3322TIP3    H131601   2.963   1.934  -0.025 -0.8976  0.0874 -1.8684
 3322TIP3    H231602   2.857   1.962   0.080  0.1209 -1.9553 -0.2218
 3323TIP3   OH231603   4.734   6.119   8.110  0.3810  0.6671  0.0104
 3323TIP3    H131604   4.728   6.051   8.043 -0.7521 -1.0096  1.6953
 3323TIP3    H231605   4.813   6.168   8.087  1.1789 -1.1305 -1.3705
 3324TIP3   OH231606   3.938   5.605   7.571 -0.2464 -0.8298  0.2711
 3324TIP3    H131607   3.890   5.542   7.624 -1.3172  0.5579  1.0100
 3324TIP3    H231608   4.029   5.598   7.600 -0.7263 -0.4924  1.9102
 3325TIP3   OH231609   3.104   6.011   8.630 -0.0558 -0.1882 -0.1070
 3325TIP3    H131610   3.152   5.984   8.552 -1.4036 -0.0551 -1.0230
 3325TIP3    H231611   3.028   6.058   8.596  0.2142  1.3857  1.3498
 3326TIP3   OH231612   0.065   3.487   8.329  0.4602  0.1334  0.1513
 3326TIP3    H131613   0.101   3.399   8.325 -2.5692 -1.1847 -1.0458
 3326TIP3    H231614   0.042   3.500   8.421 -0.6979 -1.1038  0.0654
 3327TIP3   OH231615   0.317   2.058   8.068  0.0099  0.3727 -0.5273
 3327TIP3    H131616   0.228   2.087   8.045  0.1113  1.0729 -0.0561
 3327TIP3    H231617   0.349   2.125   8.129  0.6193 -0.2230 -0.1854
 3328TIP3   OH231618   4.554   0.490   8.061 -0.0824  0.6930 -0.3409
 3328TIP3    H131619   4.637   0.537   8.060 -1.4667  3.4112  0.8191
 3328TIP3    H231620   4.557   0.439   8.142  0.2261  1.2501  0.0051
 3329TIP3   OH231621   0.369   6.316   7.498  0.0012 -0.0072 -0.2898
 3329TIP3    H131622   0.313   6.391   7.480 -0.2573 -0.6916 -2.6009
 3329TIP3    H231623   0.441   6.324   7.437  1.1460 -0.4967  0.9444
 3330TIP3   OH231624   5.544   0.790   8.045 -0.0199  0.4963  0.2876
 3330TIP3    H131625   5.461   0.832   8.024  0.0098 -0.0151 -0.9232
 3330TIP3    H231626   5.520   0.700   8.068  0.2239  0.2411 -0.4342
 3331TIP3   OH231627   4.842   3.671   1.368 -0.0880 -0.1430 -0.7132
 3331TIP3    H131628   4.813   3.759   1.344 -3.1098 -0.4506  1.2960
 3331TIP3    H231629   4.765   3.616   1.354  0.8449 -1.9288  0.7751
 3332TIP3   OH231630   0.180   1.072   1.026 -0.3297  0.4676 -0.1652
 3332TIP3    H131631   0.177   1.159   1.066  0.0018 -0.5637  2.2773
 3332TIP3    H231632   0.109   1.024   1.069  1.2095 -1.2494  0.5623
 3333TIP3   OH231633   5.333   5.352   8.365  0.1187 -0.3586  0.0062
 3333TIP3    H131634   5.426   5.374   8.372  0.0120 -0.0026  0.3511
 3333TIP3    H231635   5.331   5.260   8.337  0.5743 -0.6846  1.0173
 3334TIP3   OH231636   0.965   0.541   0.139 -0.6764 -0.3877 -0.4067
 3334TIP3    H131637   0.961   0.562   0.233  1.6735  1.5531 -0.6205
 3334TIP3    H231638   0.978   0.447   0.136  1.0479 -0.2725  1.3633
 3335TIP3   OH231639   1.682   0.921   0.565  0.4503  0.4149  0.3945
 3335TIP3    H131640   1.716   0.892   0.481 -0.0575 -1.5042  0.7999
 3335TIP3    H231641   1.588   0.934   0.551  0.3280 -0.1100  0.7076
 3336TIP3   OH231642   1.288   1.788   2.342  0.2790  0.2069 -0.3775
 3336TIP3    H131643   1.240   1.749   2.269 -0.7231 -1.3563  1.0517
 3336TIP3    H231644   1.229   1.855   2.376 -0.2794 -0.6579  0.4115
 3337TIP3   OH231645   4.404   0.760   7.125  0.2167  0.4212  0.2468
 3337TIP3    H131646   4.404   0.855   7.123  3.0008  0.4821 -0.1576
 3337TIP3    H231647   4.485   0.734   7.080 -0.2625 -2.1336  0.6608
 3338TIP3   OH231648   6.805   0.936   7.238 -0.1907  0.0538 -0.4655
 3338TIP3    H131649   6.835   0.900   7.155 -2.8913 -4.1970  0.1403
 3338TIP3    H231650   6.719   0.973   7.219  0.9405  3.1866 -0.2425
 3339TIP3   OH231651   2.799   1.960   8.260 -0.4306  0.4011  0.1299
 3339TIP3    H131652   2.729   2.019   8.236  0.4905  0.9283 -1.3408
 3339TIP3    H231653   2.873   2.017   8.280  0.1895 -0.2036 -0.3846
 3340TIP3   OH231654   3.644   0.728   7.957  0.1290 -0.2841 -0.0778
 3340TIP3    H131655   3.708   0.743   8.027  1.0221  0.4307 -1.0069
 3340TIP3    H231656   3.696   0.696   7.883 -0.2804  1.8389 -1.3835
 3341TIP3   OH231657   0.674   4.883   0.046  0.2625 -0.3760  0.1362
 3341TIP3    H131658   0.727   4.803   0.051 -0.3612 -0.7805  0.3558
 3341TIP3    H231659   0.598   4.858  -0.007 -0.3577 -0.1796  0.9113
 3342TIP3   OH231660   0.922   3.089   7.661 -0.3751 -0.4218  0.2367
 3342TIP3    H131661   0.935   3.027   7.734 -1.2459 -0.3840  0.4346
 3342TIP3    H231662   0.945   3.038   7.583  0.5862 -0.4592  0.5209
 3343TIP3   OH231663   4.491   0.453   1.043  0.7032 -0.1656 -0.2553
 3343TIP3    H131664   4.500   0.478   0.951 -0.6958  0.7325 -0.1773
 3343TIP3    H231665   4.531   0.366   1.048  2.3714  0.4901 -1.3166
 3344TIP3   OH231666   1.756   5.422   7.420  0.1926  0.3452 -0.6072
 3344TIP3    H131667   1.732   5.339   7.461  0.4234  0.8418  0.5939
 3344TIP3    H231668   1.673   5.456   7.386  0.0802 -0.3224 -1.0132
 3345TIP3   OH231669   0.857   0.893   7.169 -0.0389 -0.2252 -1.2768
 3345TIP3    H131670   0.907   0.873   7.248 -0.5830  3.6071  0.2807
 3345TIP3    H231671   0.813   0.812   7.148  0.1722 -1.4989  2.3688
 3346TIP3   OH231672   1.401   5.874   0.752 -0.2211 -0.0555 -0.5298
 3346TIP3    H131673   1.496   5.891   0.754  0.7397 -3.8084 -2.3725
 3346TIP3    H231674   1.388   5.807   0.819 -1.4736  0.0872 -0.6204
 3347TIP3   OH231675   1.658   4.636   1.267 -0.5679 -0.5552 -0.3824
 3347TIP3    H131676   1.683   4.627   1.175 -2.9908 -0.5943 -1.1011
 3347TIP3    H231677   1.576   4.587   1.275 -1.4437  1.0495  1.3142
 3348TIP3   OH231678   4.604   4.538   1.250 -0.2841 -0.3322 -0.0899
 3348TIP3    H131679   4.559   4.515   1.332  0.0846 -0.1939  0.1505
 3348TIP3    H231680   4.590   4.461   1.194 -1.9819  0.2377 -0.5197
 3349TIP3   OH231681   3.504   5.075   6.161  0.8587  0.3463 -0.2230
 3349TIP3    H131682   3.534   5.154   6.115  3.0515 -0.9275 -1.1460
 3349TIP3    H231683   3.521   5.004   6.099 -1.7964 -0.8162  0.2689
 3350TIP3   OH231684   1.960   2.066   7.105  0.3113 -0.2710 -0.3117
 3350TIP3    H131685   2.031   2.002   7.094  0.0350 -0.8536  1.0707
 3350TIP3    H231686   1.902   2.026   7.170 -0.3446  0.9931 -0.0947
 3351TIP3   OH231687   0.437   2.907   0.665  0.5541  0.3367 -0.0104
 3351TIP3    H131688   0.355   2.939   0.625  1.0817  0.6849 -0.8402
 3351TIP3    H231689   0.471   2.844   0.601  0.5122 -0.4499  0.7261
 3352TIP3   OH231690   2.180   1.597   1.520 -0.0677 -0.0329 -0.3653
 3352TIP3    H131691   2.134   1.516   1.541  0.6525 -0.1545  0.8194
 3352TIP3    H231692   2.198   1.637   1.605  2.7803 -0.3949 -0.7033
 3353TIP3   OH231693   2.500   5.558   7.369  0.4313 -0.2981  0.1006
 3353TIP3    H131694   2.499   5.492   7.299 -1.6777  0.5404 -0.7571
 3353TIP3    H231695   2.502   5.507   7.450 -0.9903 -1.4559 -0.5440
 3354TIP3   OH231696   1.202   6.472   7.184 -0.4938 -0.5307  0.1146
 3354TIP3    H131697   1.296   6.462   7.199 -0.1422  0.1991 -1.4432
 3354TIP3    H231698   1.195   6.547   7.125 -2.1035 -0.2111  0.6572
 3355TIP3   OH231699   2.805   3.038   6.643  0.0461 -0.0699  0.2059
 3355TIP3    H131700   2.828   2.958   6.691 -0.9015 -0.0036  0.7954
 3355TIP3    H231701   2.741   3.009   6.578  1.0476 -0.0913 -0.8040
 3356TIP3   OH231702   6.270   6.827   6.284  0.3823  0.3310  0.2968
 3356TIP3    H131703   6.270   6.758   6.350 -0.5654 -1.3312 -1.3330
 3356TIP3    H231704   6.362   6.838   6.260  0.4110 -1.7740 -0.7444
 3357TIP3   OH231705   3.761   2.507   6.629 -0.1491  0.2590  0.2782
 3357TIP3    H131706   3.693   2.560   6.671  0.4298  1.0916  0.1757
 3357TIP3    H231707   3.839   2.562   6.630 -0.0743  0.2718 -1.7664
 3358TIP3   OH231708   5.216   3.148   7.994  0.8760 -0.0381  0.2456
 3358TIP3    H131709   5.124   3.144   7.968  0.6932  0.0222  0.8721
 3358TIP3    H231710   5.249   3.229   7.955  0.0853  1.0826  1.8013
 3359TIP3   OH231711   5.507   2.873   7.110 -0.1063 -0.8718 -0.4556
 3359TIP3    H131712   5.593   2.873   7.068 -0.3923 -3.1747 -1.1415
 3359TIP3    H231713   5.521   2.830   7.194 -0.4153 -0.2843 -0.0912
 3360TIP3   OH231714   1.425   0.750   7.476 -0.5423 -0.0801  0.3374
 3360TIP3    H131715   1.371   0.672   7.490 -0.3090 -0.6637 -1.7096
 3360TIP3    H231716   1.515   0.717   7.481 -0.4128  0.3031  0.6144
 3361TIP3   OH231717   6.824   4.406   1.165 -0.1755 -0.2712  0.1995
 3361TIP3    H131718   6.740   4.361   1.178 -0.4122  0.0627 -0.1493
 3361TIP3    H231719   6.800   4.489   1.124  0.1245  0.7656  1.9978
 3362TIP3   OH231720   4.271   5.098   0.312  0.2070  0.4749 -0.2253
 3362TIP3    H131721   4.202   5.033   0.299  0.8504 -0.4830  0.9667
 3362TIP3    H231722   4.322   5.095   0.231  0.6788 -1.1083  0.0893
 3363TIP3   OH231723   1.581   5.808   7.493  0.5068 -0.1734  0.3766
 3363TIP3    H131724   1.500   5.765   7.466 -0.2811  0.8289  1.0959
 3363TIP3    H231725   1.648   5.771   7.435 -0.5285 -0.7020 -0.5151
 3364TIP3   OH231726   6.829   0.111   1.484  0.3071 -0.2179 -0.4781
 3364TIP3    H131727   6.796   0.158   1.407  0.6386  0.0128 -0.4827
 3364TIP3    H231728   6.751   0.072   1.524  0.0970 -0.1067 -0.7750
 3365TIP3   OH231729   4.214   1.148   7.990 -0.3881 -0.3354  0.1416
 3365TIP3    H131730   4.154   1.197   7.933  0.5416  1.1977  0.4113
 3365TIP3    H231731   4.189   1.057   7.979 -1.9901  0.1630 -0.6518
 3366TIP3   OH231732   2.307   0.958   1.150 -0.0516 -0.4437 -0.3515
 3366TIP3    H131733   2.401   0.966   1.136 -0.0995  0.8776 -0.0023
 3366TIP3    H231734   2.297   0.876   1.200  1.0939  0.3044  1.1909
 3367TIP3   OH231735   2.662   0.814   1.810 -0.1988  0.8569  0.2533
 3367TIP3    H131736   2.581   0.864   1.818 -0.1408  0.7380  2.1907
 3367TIP3    H231737   2.678   0.807   1.716 -1.2781  2.7243 -0.1089
 3368TIP3   OH231738   1.220   6.636   6.626  0.3282 -0.3150  0.0970
 3368TIP3    H131739   1.197   6.547   6.599 -2.3340  0.7062 -1.3156
 3368TIP3    H231740   1.141   6.671   6.667  1.1901  1.5382  0.3061
 3369TIP3   OH231741   1.018   5.099   6.754 -0.3850  0.1308 -0.1882
 3369TIP3    H131742   1.024   5.134   6.665 -0.6241 -1.2061 -0.7587
 3369TIP3    H231743   0.929   5.065   6.760  0.2622 -1.6442 -0.1820
 3370TIP3   OH231744   4.248   1.734   6.890  0.3204  0.1564  0.0191
 3370TIP3    H131745   4.217   1.731   6.981 -1.4699 -1.0071 -0.5852
 3370TIP3    H231746   4.238   1.645   6.858  2.8130  0.0790 -0.7865
 3371TIP3   OH231747   5.387   1.186   2.536 -0.5369 -0.1077 -0.3020
 3371TIP3    H131748   5.311   1.217   2.487  1.1769  2.0649 -1.7882
 3371TIP3    H231749   5.449   1.156   2.469  1.0456  0.9762  0.5803
 3372TIP3   OH231750   0.134   3.808   2.342 -0.5402 -0.4741 -0.7812
 3372TIP3    H131751   0.192   3.758   2.399 -0.6674  0.3393  0.0960
 3372TIP3    H231752   0.069   3.745   2.311  0.0832 -1.1292 -0.7758
 3373TIP3   OH231753   0.116   6.822   0.405  0.0027  0.0148 -0.5367
 3373TIP3    H131754   0.120   6.838   0.310 -0.8756 -2.1387 -0.9908
 3373TIP3    H231755   0.053   6.886   0.437  1.0659  1.4645 -1.1936
 3374TIP3   OH231756   4.700   5.465   1.124  0.0642 -0.1693 -0.3323
 3374TIP3    H131757   4.716   5.476   1.031 -0.5678  0.1625 -0.4006
 3374TIP3    H231758   4.785   5.437   1.159  0.2560 -0.4785 -1.0290
 3375TIP3   OH231759   6.842   2.397   2.180  0.1340  0.0137  0.2572
 3375TIP3    H131760   6.753   2.404   2.145 -0.1166  2.3469  1.1863
 3375TIP3    H231761   6.898   2.403   2.103 -0.4783 -0.3590 -0.2308
 3376TIP3   OH231762   0.656   1.462   0.874 -0.0529 -0.8205  0.0081
 3376TIP3    H131763   0.679   1.377   0.837 -0.5624 -0.7262 -0.5438
 3376TIP3    H231764   0.615   1.441   0.958 -1.1386 -1.1939 -0.5951
 3377TIP3   OH231765   3.519   3.837   2.192 -0.1804 -0.2193  0.3922
 3377TIP3    H131766   3.561   3.907   2.142 -1.1382  1.4685  1.8231
 3377TIP3    H231767   3.562   3.839   2.277  0.6546 -2.3001  0.0866
 3378TIP3   OH231768   0.587   0.161   1.203 -0.3950  0.2325  0.3988
 3378TIP3    H131769   0.644   0.206   1.266  0.6800 -0.8828  0.2737
 3378TIP3    H231770   0.641   0.153   1.124 -1.2032  0.3093 -0.1727
 3379TIP3   OH231771   2.600   0.526   0.646 -0.3478  0.6037  0.0622
 3379TIP3    H131772   2.632   0.602   0.696  0.7789 -0.2742  0.7154
 3379TIP3    H231773   2.505   0.531   0.654 -0.2425  1.2969  1.1114
 3380TIP3   OH231774   1.218   1.004   8.238  0.2659 -0.5270 -1.1283
 3380TIP3    H131775   1.193   0.978   8.326 -1.1363  3.8011  0.0014
 3380TIP3    H231776   1.313   0.992   8.235  0.6561  1.0209  1.8086
 3381TIP3   OH231777   4.921   1.212   0.972  0.8067  0.3921  0.1017
 3381TIP3    H131778   4.850   1.148   0.968  2.1946 -1.2659  0.4700
 3381TIP3    H231779   4.878   1.296   0.987 -1.1734 -0.2562 -1.5895
 3382TIP3   OH231780   0.065   2.081   8.042  0.5223  0.1927 -0.6200
 3382TIP3    H131781   0.052   1.986   8.048  1.6621  0.1031  1.2829
 3382TIP3    H231782  -0.023   2.118   8.054  0.3019 -0.6004  0.3189
 3383TIP3   OH231783   0.814   5.436   6.505  0.2945  0.0703 -0.2224
 3383TIP3    H131784   0.773   5.353   6.530  0.1752 -0.7468 -2.8914
 3383TIP3    H231785   0.745   5.501   6.520 -0.0843 -0.4849  0.5514
 3384TIP3   OH231786   4.880   4.205   6.917 -0.0454  0.2762 -0.1068
 3384TIP3    H131787   4.954   4.224   6.858 -0.0578  1.2012  0.1504
 3384TIP3    H231788   4.919   4.158   6.990  0.3918  1.2155  0.2790
 3385TIP3   OH231789   2.136   6.127   7.864  0.1448  0.1915  0.2288
 3385TIP3    H131790   2.079   6.051   7.875 -1.9393  1.2566 -2.1358
 3385TIP3    H231791   2.210   6.110   7.921  0.4780 -4.2842 -1.1560
 3386TIP3   OH231792   5.569   3.142   8.430 -0.0279  0.2276  0.3801
 3386TIP3    H131793   5.479   3.112   8.445  0.3243 -1.2441 -0.3477
 3386TIP3    H231794   5.617   3.111   8.507  0.2462 -0.7096 -0.1614
 3387TIP3   OH231795   5.803   1.939   0.196  0.3997 -0.1452 -0.1857
 3387TIP3    H131796   5.888   1.930   0.151  1.8147 -1.9766  2.5454
 3387TIP3    H231797   5.791   1.855   0.240 -0.9199  1.3667  2.6226
 3388TIP3   OH231798   0.410   5.831   1.343 -0.1541 -0.1109 -0.3268
 3388TIP3    H131799   0.415   5.736   1.354 -3.1174 -0.2475  0.5595
 3388TIP3    H231800   0.320   5.847   1.314 -0.5368  2.6191  2.0222
 3389TIP3   OH231801   1.855   2.039   2.091 -0.0217  0.1308 -0.1691
 3389TIP3    H131802   1.871   2.099   2.164 -0.7626 -2.4996  2.3413
 3389TIP3    H231803   1.770   2.066   2.056 -1.1925 -0.4161  2.0720
 3390TIP3   OH231804   4.559   2.450   0.282 -0.3773  0.3217  0.6372
 3390TIP3    H131805   4.593   2.378   0.335 -1.4912  0.2118  1.2529
 3390TIP3    H231806   4.468   2.460   0.311 -0.6496  1.0870 -0.3919
 3391TIP3   OH231807   3.121   0.415   7.493 -0.0011 -0.3267 -0.3912
 3391TIP3    H131808   3.109   0.406   7.398  1.1650 -1.0234 -0.4898
 3391TIP3    H231809   3.211   0.448   7.503  0.0058 -0.5794  0.4817
 3392TIP3   OH231810   6.363   2.773   8.572  0.9947  0.2786 -0.2951
 3392TIP3    H131811   6.338   2.818   8.491 -0.9635  0.3209  0.2653
 3392TIP3    H231812   6.341   2.681   8.555  0.6772  0.2717  0.1460
 3393TIP3   OH231813   4.383   5.638   6.381 -0.1138 -0.1658 -0.4622
 3393TIP3    H131814   4.454   5.692   6.344  0.1557  0.3178  0.7100
 3393TIP3    H231815   4.303   5.683   6.354  0.0817  0.3228 -0.2484
 3394TIP3   OH231816   4.710   5.093   0.433  0.0751  0.3970  0.1282
 3394TIP3    H131817   4.692   5.060   0.346  0.9939  2.4646 -0.9176
 3394TIP3    H231818   4.707   5.016   0.490 -1.8726 -0.7951 -1.4890
 3395TIP3   OH231819   6.295   2.500   8.573  0.1818  0.2536  0.3189
 3395TIP3    H131820   6.383   2.465   8.588 -0.0269 -0.7761 -0.7363
 3395TIP3    H231821   6.257   2.443   8.506 -1.4852  0.3695  1.1099
 3396TIP3   OH231822   2.084   6.274   1.225  0.2610 -0.3466  0.3428
 3396TIP3    H131823   2.099   6.362   1.260  0.4761  0.0525 -0.7227
 3396TIP3    H231824   2.108   6.280   1.132 -0.2964 -1.3741  0.1143
 3397TIP3   OH231825   6.063   3.849   7.176 -0.1738  0.1068  0.7455
 3397TIP3    H131826   6.035   3.916   7.238 -1.1670  1.6459 -1.2665
 3397TIP3    H231827   6.155   3.834   7.196 -0.4637  0.5314  2.5659
 3398TIP3   OH231828   3.338   4.847   0.340  0.0960  0.1905 -0.3049
 3398TIP3    H131829   3.391   4.923   0.364  0.4991 -0.7760  2.0450
 3398TIP3    H231830   3.248   4.873   0.362  0.3350 -0.2835  1.3551
 3399TIP3   OH231831   5.024   3.149   7.474  0.0681 -0.4823  0.3348
 3399TIP3    H131832   4.998   3.225   7.421 -0.2329 -0.8076  0.0131
 3399TIP3    H231833   5.119   3.157   7.481  0.0906 -0.3271 -0.0873
 3400TIP3   OH231834   6.416   4.641   0.692  0.1780  0.4600  0.4852
 3400TIP3    H131835   6.385   4.597   0.612  1.0047  0.8896 -0.0800
 3400TIP3    H231836   6.424   4.570   0.756 -0.1348  0.0525  0.0850
 3401TIP3   OH231837   2.889   5.588   7.204  0.0225  0.0938  0.6081
 3401TIP3    H131838   2.847   5.629   7.129  3.1570  0.0366 -1.3648
 3401TIP3    H231839   2.873   5.495   7.194  0.7839  0.0466 -0.2878
 3402TIP3   OH231840   3.617   4.715   0.148  0.0526 -0.0318  0.5085
 3402TIP3    H131841   3.633   4.803   0.111  0.2389 -0.2663  0.0161
 3402TIP3    H231842   3.647   4.721   0.238 -2.5542  1.2542  1.4161
 3403TIP3   OH231843   5.859   1.147   6.638 -0.0074  0.0394  0.3393
 3403TIP3    H131844   5.766   1.170   6.643  0.4680  2.0327  0.7344
 3403TIP3    H231845   5.886   1.175   6.551  0.3033 -0.2163  0.3505
 3404TIP3   OH231846   2.240   5.043   8.157 -0.5865  0.2569 -0.6327
 3404TIP3    H131847   2.293   5.094   8.095 -1.2215  2.3578  0.4419
 3404TIP3    H231848   2.282   5.058   8.242 -1.1142 -0.6146 -0.2122
 3405TIP3   OH231849   4.796   1.761   1.976  0.2892 -0.1787 -0.4783
 3405TIP3    H131850   4.806   1.810   1.895  1.5577 -0.0551 -0.2631
 3405TIP3    H231851   4.703   1.739   1.980 -0.0307  0.9714 -1.2875
 3406TIP3   OH231852   0.384   0.142   7.136 -0.1859  0.1841 -0.0692
 3406TIP3    H131853   0.314   0.200   7.106  0.7645  1.3519 -0.1090
 3406TIP3    H231854   0.383   0.069   7.074 -0.0865  1.1804 -1.2964
 3407TIP3   OH231855   2.050   3.855   6.974 -0.7881  0.3104 -0.1290
 3407TIP3    H131856   1.964   3.813   6.966 -3.3540  4.5570  1.8464
 3407TIP3    H231857   2.072   3.845   7.067 -0.0692  0.9101 -0.2317
 3408TIP3   OH231858   6.747   0.332   0.112  0.0735  0.2016  0.5574
 3408TIP3    H131859   6.660   0.366   0.133  0.1478  1.4501 -0.9762
 3408TIP3    H231860   6.741   0.307   0.019  0.9712 -0.9772  0.7962
 3409TIP3   OH231861   2.801   2.138   0.352 -0.5158  0.0478  0.0919
 3409TIP3    H131862   2.839   2.210   0.403 -0.8790 -0.0625  0.5296
 3409TIP3    H231863   2.834   2.151   0.263  0.9563 -0.3361  0.5525
 3410TIP3   OH231864   6.029   1.921   0.033  0.2984  0.3335 -0.4237
 3410TIP3    H131865   6.053   1.869  -0.044  1.2078  0.7880 -0.4656
 3410TIP3    H231866   6.112   1.939   0.076 -0.1484  0.5831  0.3493
 3411TIP3   OH231867   2.693   1.895   0.483 -0.3073  0.4363 -0.0947
 3411TIP3    H131868   2.602   1.922   0.474 -0.3685  1.7544  3.1536
 3411TIP3    H231869   2.694   1.838   0.560  1.5224 -0.2216 -0.5319
 3412TIP3   OH231870   3.812   3.445   0.811  0.2105 -0.6819 -0.4479
 3412TIP3    H131871   3.871   3.478   0.879  0.4656 -0.0632 -0.9634
 3412TIP3    H231872   3.870   3.411   0.743 -0.0479 -1.9270 -0.0659
 3413TIP3   OH231873   6.012   4.273   6.940 -0.6806 -0.1096 -0.1053
 3413TIP3    H131874   6.056   4.321   6.870  1.5750 -2.2900 -0.2967
 3413TIP3    H231875   6.080   4.219   6.979 -2.4694 -0.9862  2.0228
 3414TIP3   OH231876   5.083   6.389   8.329  0.0578  0.2114 -0.4603
 3414TIP3    H131877   5.123   6.320   8.277 -0.0615  0.5191 -0.9704
 3414TIP3    H231878   5.121   6.470   8.295  0.7851  0.3581  0.6616
 3415TIP3   OH231879   5.121   2.111   1.096  0.4632  0.1595 -0.5690
 3415TIP3    H131880   5.124   2.192   1.146 -0.7807 -0.4806  0.6154
 3415TIP3    H231881   5.028   2.099   1.076  0.7301 -0.5667 -1.4320
 3416TIP3   OH231882   3.496   4.275   1.493 -0.3143 -0.1645 -0.1778
 3416TIP3    H131883   3.575   4.304   1.447 -0.2725  0.7670  0.4585
 3416TIP3    H231884   3.441   4.353   1.499 -0.2476 -0.2027  1.4743
 3417TIP3   OH231885   3.822   2.801   0.206  0.3258  0.7180 -0.3627
 3417TIP3    H131886   3.816   2.887   0.248  0.2417  0.5233  0.0267
 3417TIP3    H231887   3.731   2.770   0.203 -0.0643  1.8359 -3.0342
 3418TIP3   OH231888   1.969   6.022   7.228  0.3093 -0.4121 -0.2945
 3418TIP3    H131889   1.977   6.042   7.135  0.2730 -0.6010 -0.3366
 3418TIP3    H231890   1.900   6.081   7.259  0.9237  0.2777 -0.2041
 3419TIP3   OH231891   3.011   4.872   0.294 -0.0982 -0.2335 -0.5618
 3419TIP3    H131892   3.054   4.868   0.209  0.7248 -0.4634 -0.1450
 3419TIP3    H231893   2.986   4.782   0.312 -0.9420 -0.0781 -0.8792
 3420TIP3   OH231894   4.334   0.192   8.108 -0.5069 -0.0696  0.3456
 3420TIP3    H131895   4.412   0.138   8.097  0.8094  1.9997 -1.3809
 3420TIP3    H231896   4.318   0.229   8.021 -2.9913  0.1878  0.8238
 3421TIP3   OH231897   3.865   0.283   8.118 -0.6107 -0.1240  0.2910
 3421TIP3    H131898   3.850   0.296   8.024  2.7510 -0.3487 -0.3993
 3421TIP3    H231899   3.812   0.350   8.160 -2.2547 -0.0460 -1.7310
 3422TIP3   OH231900   1.388   6.459   7.985 -0.4974  0.6268  0.4667
 3422TIP3    H131901   1.370   6.410   8.066 -0.4651 -2.5321 -1.2577
 3422TIP3    H231902   1.469   6.420   7.952 -1.6612  0.2240 -2.1522
 3423TIP3   OH231903   4.410   5.255   0.064 -0.2366  0.0673  0.5092
 3423TIP3    H131904   4.394   5.162   0.048 -0.6973  0.5035 -1.9460
 3423TIP3    H231905   4.380   5.299  -0.016  1.2635  2.1974  1.0239
 3424TIP3   OH231906   3.520   1.264   1.153  0.2724 -0.1904 -0.2085
 3424TIP3    H131907   3.565   1.241   1.234 -0.0927 -0.5388 -0.0983
 3424TIP3    H231908   3.428   1.242   1.170  0.1572 -0.0383 -0.6315
 3425TIP3   OH231909   2.733   4.255   6.608 -0.2909  0.3715  0.1567
 3425TIP3    H131910   2.684   4.214   6.537 -0.1790 -0.8793  0.7695
 3425TIP3    H231911   2.817   4.280   6.569 -0.4894  0.3073 -0.3065
 3426TIP3   OH231912   5.440   2.367   1.375  0.5222  0.0148  0.6322
 3426TIP3    H131913   5.376   2.336   1.439  1.0321  0.4750  1.3783
 3426TIP3    H231914   5.403   2.449   1.342 -0.6558 -1.1467 -1.0833
 3427TIP3   OH231915   5.942   3.358   8.096  0.6347 -0.0153  0.7308
 3427TIP3    H131916   5.910   3.432   8.149 -2.2451 -1.0403  0.6176
 3427TIP3    H231917   5.883   3.286   8.119  0.6948 -1.1237 -2.2308
 3428TIP3   OH231918   3.761   4.632   7.079  1.1026 -0.3292  0.1346
 3428TIP3    H131919   3.766   4.642   7.174 -1.1591 -1.3275  0.4237
 3428TIP3    H231920   3.842   4.586   7.056  1.4831 -0.4671  1.6349
 3429TIP3   OH231921   1.683   6.741   1.851  0.5248  0.4845  0.1255
 3429TIP3    H131922   1.677   6.655   1.811 -0.4337  0.5122  0.1959
 3429TIP3    H231923   1.726   6.795   1.785 -2.6211  0.9781 -1.6950
 3430TIP3   OH231924   4.302   3.504   7.904 -0.3623  0.9585  0.0308
 3430TIP3    H131925   4.390   3.521   7.871 -0.4270  0.0756 -0.6509
 3430TIP3    H231926   4.262   3.590   7.912  0.7111  1.4080  0.7907
 3431TIP3   OH231927   2.197   5.453   8.426 -0.2160  0.3908 -0.2309
 3431TIP3    H131928   2.126   5.401   8.390  0.8121  0.4979 -2.5608
 3431TIP3    H231929   2.228   5.403   8.502 -2.6087  0.2901  0.7740
 3432TIP3   OH231930   2.604   5.251   8.513 -0.0007  0.7756  0.2030
 3432TIP3    H131931   2.655   5.268   8.434  1.0214  1.3147  0.9566
 3432TIP3    H231932   2.563   5.334   8.533 -1.1838  0.3586 -0.3687
 3433TIP3   OH231933   5.854   0.323   7.545 -0.0268  0.1731  0.0249
 3433TIP3    H131934   5.807   0.405   7.534 -0.1449  0.0329 -0.5512
 3433TIP3    H231935   5.790   0.263   7.585  1.1167  1.4092  4.2273
 3434TIP3   OH231936   4.340   2.669   6.497 -0.5064 -0.1621 -0.1564
 3434TIP3    H131937   4.269   2.732   6.485  0.0063 -0.0629 -4.3279
 3434TIP3    H231938   4.301   2.585   6.471 -0.1298 -0.9104  1.5606
 3435TIP3   OH231939   6.816   0.545   1.722 -0.2702  0.0355  0.2770
 3435TIP3    H131940   6.803   0.465   1.772  0.1851  0.5900  1.3260
 3435TIP3    H231941   6.771   0.613   1.772 -0.0835  0.5552 -0.2380
 3436TIP3   OH231942   2.298   3.523   1.227 -0.5006  0.4681  0.3473
 3436TIP3    H131943   2.246   3.538   1.148 -1.3434 -0.5931  0.6770
 3436TIP3    H231944   2.368   3.588   1.222 -0.8574  0.7858 -0.9888
 3437TIP3   OH231945   5.374   0.965   2.966 -0.0021 -0.3384  0.1585
 3437TIP3    H131946   5.434   0.893   2.987  0.7152 -0.4594 -2.0053
 3437TIP3    H231947   5.374   0.969   2.870  0.2035  2.7118  0.1676
 3438TIP3   OH231948   4.323   2.767   1.080  0.3535  0.2276  0.6857
 3438TIP3    H131949   4.262   2.810   1.021 -0.0028  0.1621  0.9982
 3438TIP3    H231950   4.382   2.718   1.023  0.4573  0.7365  0.3541
 3439TIP3   OH231951   4.662   5.718   7.672  0.0171  0.2823  0.3866
 3439TIP3    H131952   4.652   5.636   7.720 -3.8209  0.0571 -0.4488
 3439TIP3    H231953   4.580   5.764   7.688  0.6499  2.4238 -1.9576
 3440TIP3   OH231954   6.514   6.704   0.868  0.1442  0.5856  0.0028
 3440TIP3    H131955   6.565   6.736   0.942  0.1245  0.0928  0.2367
 3440TIP3    H231956   6.440   6.658   0.907 -0.8611  1.8705 -0.3381
 3441TIP3   OH231957   1.961   6.087   0.860  0.3027 -0.1914  0.4228
 3441TIP3    H131958   2.016   6.054   0.788 -0.1009  0.2582 -0.0957
 3441TIP3    H231959   1.888   6.025   0.864 -1.3479  1.4641 -1.6543
 3442TIP3   OH231960   4.409   2.666   7.431  0.5915  0.2403  0.3403
 3442TIP3    H131961   4.316   2.649   7.418  0.4542  0.2702  1.2056
 3442TIP3    H231962   4.443   2.686   7.343 -0.4779  1.5231  0.1843
 3443TIP3   OH231963   5.696   1.932   2.637 -0.3834 -0.1111  0.5457
 3443TIP3    H131964   5.663   1.880   2.564  0.3395  0.8706 -0.5106
 3443TIP3    H231965   5.648   2.015   2.630  0.8012  0.5684  0.2208
 3444TIP3   OH231966   5.729   1.883   1.072 -0.1891  0.2197  0.1386
 3444TIP3    H131967   5.777   1.850   0.996 -0.8321  0.8388 -0.5460
 3444TIP3    H231968   5.793   1.880   1.143 -0.1367 -2.2976  0.0837
 3445TIP3   OH231969   1.264   5.802   0.532  0.2609 -0.1490  0.6142
 3445TIP3    H131970   1.323   5.781   0.460  0.4110 -0.1619  0.7415
 3445TIP3    H231971   1.321   5.827   0.604  0.1243 -0.4827  0.8419
 3446TIP3   OH231972   0.483   6.591   8.259 -0.0063 -0.2743  0.2297
 3446TIP3    H131973   0.398   6.618   8.226  0.4611  0.0243 -0.7617
 3446TIP3    H231974   0.494   6.640   8.340 -0.1868  0.7444 -0.3448
 3447TIP3   OH231975   4.275   2.878   0.473 -0.5303  0.0191  0.5178
 3447TIP3    H131976   4.334   2.806   0.493 -0.2183 -0.8021 -2.7819
 3447TIP3    H231977   4.327   2.938   0.421 -2.2144 -0.1987 -1.5532
 3448TIP3   OH231978   1.528   2.281   6.709 -0.7150 -0.5541 -0.2730
 3448TIP3    H131979   1.622   2.296   6.719 -0.6967  0.4950 -1.6311
 3448TIP3    H231980   1.488   2.360   6.746 -0.8856  0.4339 -2.4284
 3449TIP3   OH231981   5.083   4.107   0.601  0.6591 -0.0875  0.1422
 3449TIP3    H131982   5.102   4.099   0.694  0.8614  2.3592  0.3772
 3449TIP3    H231983   4.988   4.120   0.597  0.6533 -0.1678 -0.0045
 3450TIP3   OH231984   5.347   5.184   7.623 -0.7357  0.3669  0.8592
 3450TIP3    H131985   5.364   5.278   7.630 -0.5410  0.2963  1.3641
 3450TIP3    H231986   5.434   5.144   7.627 -0.8434  0.1448  0.9683
 3451TIP3   OH231987   5.540   6.514   1.114  0.3782 -0.0058  0.0590
 3451TIP3    H131988   5.487   6.571   1.169 -0.6588 -1.1965  0.3301
 3451TIP3    H231989   5.490   6.503   1.034  0.3179 -0.9328  0.2108
 3452TIP3   OH231990   1.815   0.766   6.901  0.6698 -0.4219  0.1218
 3452TIP3    H131991   1.737   0.740   6.950 -0.1388 -1.2462 -1.5162
 3452TIP3    H231992   1.845   0.685   6.859  0.4045  0.4826 -1.9643
 3453TIP3   OH231993   6.444   4.708   1.645 -0.3915  0.1442 -0.5145
 3453TIP3    H131994   6.366   4.655   1.627 -1.2851  1.1568  0.2075
 3453TIP3    H231995   6.438   4.729   1.738  0.9606 -0.0745 -0.3684
 3454TIP3   OH231996   1.042   1.331   1.681 -0.7601  0.2377  0.2650
 3454TIP3    H131997   0.970   1.336   1.744 -0.7839 -0.3029  0.2817
 3454TIP3    H231998   1.028   1.249   1.635 -0.4025  0.3453 -0.0388
 3455TIP3   OH231999   1.027   3.454   2.022 -0.2665  0.1265  0.6189
 3455TIP3    H132000   1.019   3.365   2.057  1.4597 -1.0174 -1.6125
 3455TIP3    H232001   1.017   3.443   1.928  0.4996  2.2309  0.2460
 3456TIP3   OH232002   6.581   5.175   1.545  0.5336 -0.0923  0.1766
 3456TIP3    H132003   6.595   5.086   1.579  0.4808 -0.6149 -1.1122
 3456TIP3    H232004   6.567   5.163   1.451 -3.0294  0.9213  0.4342
 3457TIP3   OH232005   5.186   3.241   1.316 -0.3212 -0.2057  0.2353
 3457TIP3    H132006   5.114   3.186   1.348 -0.8735  0.6295  0.4574
 3457TIP3    H232007   5.151   3.330   1.319 -0.2019 -0.0230 -2.1706
 3458TIP3   OH232008   6.245   2.634   7.297  0.3021 -0.1110  0.1859
 3458TIP3    H132009   6.292   2.702   7.249  0.1434 -0.5155 -0.5500
 3458TIP3    H232010   6.175   2.681   7.344  1.0732  0.4129  0.8303
 3459TIP3   OH232011   5.457   5.534   2.018  0.1156  0.5041 -0.2862
 3459TIP3    H132012   5.440   5.479   2.094 -0.2179  1.1253  0.1005
 3459TIP3    H232013   5.538   5.500   1.981  0.6293  0.5826  0.7258
 3460TIP3   OH232014   0.594   2.792   2.169 -0.6206  0.6813 -0.8738
 3460TIP3    H132015   0.599   2.885   2.144 -0.1995  1.2782  1.2078
 3460TIP3    H232016   0.678   2.775   2.211 -0.3383 -0.9343 -2.0132
 3461TIP3   OH232017   2.971   5.844   8.160 -0.0209  0.0268  0.0454
 3461TIP3    H132018   2.895   5.903   8.158  0.3050  0.5834  2.1962
 3461TIP3    H232019   2.973   5.811   8.249  1.4451 -1.1147 -0.3831
 3462TIP3   OH232020   1.997   5.776   7.336 -0.7463  0.3139 -0.0404
 3462TIP3    H132021   1.978   5.861   7.295 -1.4537 -0.1192 -0.6405
 3462TIP3    H232022   2.022   5.720   7.262 -2.8373 -0.7062 -0.0459
 3463TIP3   OH232023   5.727   0.383   6.748 -0.2490 -0.1439 -0.1770
 3463TIP3    H132024   5.742   0.405   6.656 -2.0291  2.2777  0.0311
 3463TIP3    H232025   5.730   0.287   6.750 -2.1045 -0.3944 -3.1253
 3464TIP3   OH232026   2.026   2.775   6.809 -0.8865  0.0225 -0.0350
 3464TIP3    H132027   1.990   2.702   6.759  0.4240 -0.4796 -0.2882
 3464TIP3    H232028   2.103   2.803   6.760 -0.8324  0.9718  0.5555
 3465TIP3   OH232029   1.973   0.874   2.089  0.2103 -0.4263  0.5447
 3465TIP3    H132030   2.036   0.943   2.070  0.0252 -0.3709  0.1313
 3465TIP3    H232031   2.015   0.794   2.057  0.7536 -0.6262  1.7044
 3466TIP3   OH232032   0.720   6.324   0.744 -0.2953  0.0927  0.2347
 3466TIP3    H132033   0.766   6.242   0.724 -0.4537 -0.0810  0.5895
 3466TIP3    H232034   0.697   6.318   0.836  0.3537  0.8629  0.4626
 3467TIP3   OH232035   6.011   5.405   6.345  0.2305  0.0258  0.0627
 3467TIP3    H132036   6.074   5.338   6.319 -1.1653 -1.4276  0.3009
 3467TIP3    H232037   6.017   5.408   6.440  0.1250  0.0733  0.0675
 3468TIP3   OH232038   0.183   1.261   7.698 -0.4677 -0.5635 -0.1905
 3468TIP3    H132039   0.104   1.300   7.659  0.7142  1.2845 -0.8952
 3468TIP3    H232040   0.185   1.296   7.787  0.0294  0.1494 -0.4753
 3469TIP3   OH232041   3.072   3.331   7.904 -0.0452  0.3108  0.0756
 3469TIP3    H132042   3.085   3.374   7.820 -1.5564  1.0631  0.2034
 3469TIP3    H232043   3.043   3.401   7.963  0.9104 -0.2124  1.2239
 3470TIP3   OH232044   4.815   2.159   1.044  0.1670  0.1969  0.1011
 3470TIP3    H132045   4.778   2.148   0.956 -0.4090 -1.9563  0.5385
 3470TIP3    H232046   4.770   2.093   1.097  3.1962 -1.2329  1.1294
 3471TIP3   OH232047   0.820   1.979   8.442  0.2863 -0.3133 -0.0916
 3471TIP3    H132048   0.775   1.988   8.358 -1.6409  0.3333  0.9426
 3471TIP3    H232049   0.908   2.012   8.426  0.2873 -1.1797 -2.0983
 3472TIP3   OH232050   1.082   3.316   0.572  0.5228 -0.1936  0.0343
 3472TIP3    H132051   1.090   3.251   0.502  1.4413  0.8541 -0.8792
 3472TIP3    H232052   1.018   3.378   0.539  1.3434  0.5856 -0.1279
 3473TIP3   OH232053   0.118   2.398   1.986  0.2647 -0.1029 -0.0037
 3473TIP3    H132054   0.169   2.449   1.922 -0.0432 -1.2611 -1.2221
 3473TIP3    H232055   0.111   2.311   1.946  2.0301 -1.6028  2.6268
 3474TIP3   OH232056   1.953   0.525   7.832 -0.0272 -0.0686 -0.7131
 3474TIP3    H132057   1.975   0.575   7.754 -0.5884  3.0025  0.9293
 3474TIP3    H232058   2.037   0.501   7.870  0.2580 -0.3194 -1.4869
 3475TIP3   OH232059   5.846   2.728   8.142 -0.0315 -0.0907  0.3678
 3475TIP3    H132060   5.928   2.696   8.104 -0.5358  0.3864 -1.1807
 3475TIP3    H232061   5.785   2.655   8.133 -0.6363  0.5839 -1.3930
 3476TIP3   OH232062   0.040   0.451   0.255  0.3437  0.0622  0.5240
 3476TIP3    H132063  -0.015   0.479   0.327 -1.6313 -0.3432 -0.7530
 3476TIP3    H232064  -0.020   0.408   0.194  2.3594 -2.0224 -0.1380
 3477TIP3   OH232065   0.983   5.842   7.857  0.1164 -0.2295  0.2246
 3477TIP3    H132066   1.065   5.880   7.888  0.2784  0.1804 -0.6687
 3477TIP3    H232067   0.923   5.916   7.851 -0.7524 -0.7072  2.1172
 3478TIP3   OH232068   0.299   0.788   2.005 -0.0550 -0.2054 -0.2020
 3478TIP3    H132069   0.250   0.715   2.043  0.5625 -0.0937  0.8716
 3478TIP3    H232070   0.389   0.757   2.002  0.0985  0.2525 -0.4180
 3479TIP3   OH232071   0.243   6.214   1.745  0.1304  0.5153  0.6013
 3479TIP3    H132072   0.158   6.217   1.789 -0.1155 -0.7477  0.2259
 3479TIP3    H232073   0.222   6.203   1.652  0.6541  2.8836  0.1197
 3480TIP3   OH232074   0.293   4.799   0.728 -0.5495  0.7715  0.5606
 3480TIP3    H132075   0.360   4.742   0.690 -0.1803  0.1863  2.0200
 3480TIP3    H232076   0.213   4.780   0.678  0.4548  1.8826 -1.5730
 3481TIP3   OH232077   1.435   1.069   7.875 -0.0815 -0.0051 -0.1192
 3481TIP3    H132078   1.412   1.089   7.965 -1.1072 -1.0613 -0.1341
 3481TIP3    H232079   1.525   1.036   7.880  0.1643  0.7085  0.3955
 3482TIP3   OH232080   0.492   4.587   0.696 -0.3761  0.5649  0.6218
 3482TIP3    H132081   0.511   4.510   0.642 -2.4118 -0.4685  1.2910
 3482TIP3    H232082   0.469   4.552   0.781 -0.2062  2.0102  1.3001
 3483TIP3   OH232083   2.797   2.648   2.627 -0.0300  0.3438  0.0664
 3483TIP3    H132084   2.737   2.592   2.580  1.6780  0.9461 -3.1016
 3483TIP3    H232085   2.877   2.596   2.637  0.6809  1.2753 -0.5518
 3484TIP3   OH232086   0.216   2.573   7.958  0.2679 -0.4716 -0.1148
 3484TIP3    H132087   0.254   2.659   7.941  1.1668 -0.6137  1.0239
 3484TIP3    H232088   0.130   2.576   7.917 -0.3205  1.5069  1.1224
 3485TIP3   OH232089   0.120   3.403   0.135 -0.5689  0.3952 -0.3975
 3485TIP3    H132090   0.188   3.340   0.111  0.3098  0.9312  0.5768
 3485TIP3    H232091   0.051   3.390   0.071 -0.2614 -1.3196 -0.4277
 3486TIP3   OH232092   2.711   2.916   1.934  0.0176 -0.5682  0.5677
 3486TIP3    H132093   2.718   2.925   2.029 -0.5349  0.0481  0.5589
 3486TIP3    H232094   2.688   3.004   1.903  0.8448 -0.6050 -0.2085
 3487TIP3   OH232095   3.156   6.377   1.897 -0.1795 -0.0967 -0.2125
 3487TIP3    H132096   3.192   6.389   1.985 -0.1400  2.2808 -0.4991
 3487TIP3    H232097   3.071   6.335   1.912 -0.1042  0.1197  0.9582
 3488TIP3   OH232098   4.937   1.969   2.823  0.7035  0.2380  0.5262
 3488TIP3    H132099   4.943   2.060   2.849  0.3134  1.0935 -2.0899
 3488TIP3    H232100   5.028   1.941   2.813  0.8209  0.8113 -0.0726
 3489TIP3   OH232101   0.198   2.284   7.180  0.2068 -0.1021  0.7052
 3489TIP3    H132102   0.175   2.215   7.242  0.5181  0.7813  1.8231
 3489TIP3    H232103   0.126   2.283   7.116  0.1542 -1.3665  0.7626
 3490TIP3   OH232104   6.206   6.188   8.560  0.0544  0.2546 -0.4651
 3490TIP3    H132105   6.140   6.209   8.626 -0.2208 -0.7235 -0.4182
 3490TIP3    H232106   6.289   6.205   8.603 -0.1536  1.5657 -0.5470
 3491TIP3   OH232107   1.250   4.160   0.060  0.1464 -0.1399 -0.1574
 3491TIP3    H132108   1.156   4.150   0.045 -0.2781  0.2740  1.9826
 3491TIP3    H232109   1.282   4.070   0.070 -0.5546 -0.2291  1.7624
 3492TIP3   OH232110   2.382   1.956   7.472  0.3731  0.8346  0.0182
 3492TIP3    H132111   2.412   1.919   7.389  2.7646  0.9866  0.7366
 3492TIP3    H232112   2.358   1.880   7.524  1.0613  0.5735 -0.0354
 3493TIP3   OH232113   5.730   0.574   1.709  0.3987  0.2323 -0.0538
 3493TIP3    H132114   5.732   0.595   1.616 -0.2029 -0.0570 -0.1407
 3493TIP3    H232115   5.675   0.642   1.748  0.0519 -0.0559 -0.0297
 3494TIP3   OH232116   5.410   4.611   0.510  0.3831 -0.0638 -0.5761
 3494TIP3    H132117   5.393   4.533   0.457  2.0870  0.6504 -2.2960
 3494TIP3    H232118   5.433   4.679   0.447  0.6220  1.3867  0.9841
 3495TIP3   OH232119   0.169   2.719   1.119  0.2688  0.0474  0.5077
 3495TIP3    H132120   0.222   2.725   1.039  0.8702 -0.0234  0.8896
 3495TIP3    H232121   0.206   2.786   1.176  0.6993 -0.7647  1.2057
 3496TIP3   OH232122   0.405   2.782   7.919  0.7852  0.4881  0.7198
 3496TIP3    H132123   0.435   2.872   7.929 -0.3135  0.9277  0.2250
 3496TIP3    H232124   0.411   2.744   8.006  1.5279  0.9473  0.8730
 3497TIP3   OH232125   3.940   3.013   0.712  0.1083 -0.2097 -0.3286
 3497TIP3    H132126   3.948   2.947   0.644 -1.2653  0.3510 -1.0776
 3497TIP3    H232127   3.904   2.966   0.787 -1.6686 -0.2058 -1.1231
 3498TIP3   OH232128   5.607   2.261   1.186  0.0359  0.2294 -0.0679
 3498TIP3    H132129   5.552   2.307   1.250 -0.3805  0.9409 -0.9183
 3498TIP3    H232130   5.697   2.275   1.218 -0.1538  0.7239  0.2655
 3499TIP3   OH232131   2.882   1.581   7.747  0.3342 -0.5454 -0.4666
 3499TIP3    H132132   2.787   1.573   7.751  0.2413 -0.1863 -1.5016
 3499TIP3    H232133   2.914   1.491   7.736  0.1416 -0.7015  0.2309
 3500TIP3   OH232134   6.187   3.929   0.514  0.2316  0.2085  0.0748
 3500TIP3    H132135   6.125   3.941   0.586  2.3037 -1.7438  2.3339
 3500TIP3    H232136   6.138   3.958   0.437 -3.3931 -0.8502  1.7235
 3501TIP3   OH232137   3.820   0.958   2.504  0.5084  0.0714  0.4656
 3501TIP3    H132138   3.779   1.018   2.566  2.0212  0.9319  0.6626
 3501TIP3    H232139   3.912   0.983   2.503  1.5366 -3.1100  1.6329
 3502TIP3   OH232140   6.703   5.275   6.849  0.2214  0.2930 -0.2628
 3502TIP3    H132141   6.645   5.238   6.915 -0.6083 -0.1154 -1.1891
 3502TIP3    H232142   6.649   5.339   6.802  0.1973 -0.7146 -1.7054
 3503TIP3   OH232143   6.892   2.985   0.465 -0.7526  0.3455  0.0687
 3503TIP3    H132144   6.864   2.894   0.472  1.6085 -0.5334 -0.9378
 3503TIP3    H232145   6.811   3.035   0.457 -2.1004 -1.6490  0.6734
 3504TIP3   OH232146   0.416   4.310   7.672 -0.1044 -0.0665 -0.8761
 3504TIP3    H132147   0.482   4.298   7.604 -0.5276 -1.2703 -1.0943
 3504TIP3    H232148   0.412   4.226   7.718 -0.0907  0.6066  0.4112
 3505TIP3   OH232149   1.543   5.162   1.642  0.3915 -0.3702  0.5994
 3505TIP3    H132150   1.638   5.152   1.647  0.4401 -1.3789 -1.6143
 3505TIP3    H232151   1.531   5.252   1.611  0.5973 -0.1601  1.1096
 3506TIP3   OH232152   1.464   1.967   8.516  0.1808  0.7932 -0.1065
 3506TIP3    H132153   1.461   2.009   8.429  0.2109  0.2786 -0.3609
 3506TIP3    H232154   1.421   2.030   8.574 -0.1152  1.0117 -0.5532
 3507TIP3   OH232155   5.914   4.867   1.902 -0.5389  0.4694  0.3765
 3507TIP3    H132156   5.870   4.907   1.826 -2.0407 -1.0364  0.4035
 3507TIP3    H232157   5.983   4.813   1.864 -0.6897  0.4471  0.1313
 3508TIP3   OH232158   4.463   1.928   1.833  0.1589 -0.1080  0.7358
 3508TIP3    H132159   4.511   2.008   1.852  0.8626 -0.7640  1.8832
 3508TIP3    H232160   4.467   1.878   1.915  2.2723 -2.5852 -0.6865
 3509TIP3   OH232161   4.748   1.327   0.619 -0.9724  0.0431 -0.0086
 3509TIP3    H132162   4.773   1.248   0.667 -2.2495 -1.0413 -1.0546
 3509TIP3    H232163   4.808   1.330   0.544 -1.5131 -0.4745 -0.4739
 3510TIP3   OH232164   1.444   3.064   0.501 -0.1395  0.3712 -0.3328
 3510TIP3    H132165   1.461   2.975   0.472  0.6052  0.6162 -0.6625
 3510TIP3    H232166   1.358   3.059   0.543 -0.0321 -0.5307 -0.2006
 3511TIP3   OH232167   0.114   0.244   6.537 -0.1613 -0.1276  0.1103
 3511TIP3    H132168   0.155   0.292   6.608 -0.2834 -0.1145  0.1727
 3511TIP3    H232169   0.021   0.239   6.561 -0.1447 -0.4192  0.1173
 3512TIP3   OH232170   2.491   0.577   8.448  0.4923  0.1230 -0.1059
 3512TIP3    H132171   2.472   0.671   8.452  0.6851  0.1421  0.3780
 3512TIP3    H232172   2.564   0.571   8.386 -0.6468  0.1044 -1.5170
 3513TIP3   OH232173   6.115   0.470   0.704 -0.5208  0.0570 -0.1524
 3513TIP3    H132174   6.060   0.404   0.745  0.4288 -0.0185  1.0677
 3513TIP3    H232175   6.099   0.460   0.610 -2.1659 -0.2976  0.1326
 3514TIP3   OH232176   6.682   4.784   7.329  0.6945  0.0714  0.4286
 3514TIP3    H132177   6.760   4.745   7.368 -0.9809 -1.1137  2.7737
 3514TIP3    H232178   6.632   4.710   7.294  0.1591  0.7069 -0.1850
 3515TIP3   OH232179   2.155   6.501   1.357 -0.3683  0.6243  0.4546
 3515TIP3    H132180   2.115   6.574   1.404  0.9875  0.7378  1.5176
 3515TIP3    H232181   2.219   6.542   1.298  0.6868  0.3230  1.3441
 3516TIP3   OH232182   1.740   6.212   8.426 -0.3440  0.2412  0.2916
 3516TIP3    H132183   1.668   6.273   8.406 -0.3395  0.2147  0.1952
 3516TIP3    H232184   1.782   6.197   8.341  0.3284  0.9637  0.4889
 3517TIP3   OH232185   6.730   0.402   1.314  0.4601 -0.1494  0.3127
 3517TIP3    H132186   6.684   0.351   1.381  1.3852 -0.6489  0.5965
 3517TIP3    H232187   6.751   0.484   1.358 -0.6519  0.3160 -0.0048
 3518TIP3   OH232188   0.697   0.929   1.538 -0.4322 -0.0493 -0.5339
 3518TIP3    H132189   0.674   0.918   1.630  0.2307  1.1588 -0.2032
 3518TIP3    H232190   0.652   0.858   1.493 -1.3416 -0.2306  0.6302
 3519TIP3   OH232191   6.330   4.324   0.158 -0.7155  0.3218  0.3645
 3519TIP3    H132192   6.328   4.286   0.070  2.4051 -0.0181  0.3105
 3519TIP3    H232193   6.261   4.278   0.206 -2.9716  0.9949 -1.9965
 3520TIP3   OH232194   1.981   1.585   8.491 -0.1826 -0.6239 -0.4924
 3520TIP3    H132195   1.934   1.502   8.489  0.1792 -0.8476 -3.4448
 3520TIP3    H232196   2.058   1.571   8.436 -0.3332  1.7657 -1.4319
 3521TIP3   OH232197   1.983   3.213   8.313 -0.0895 -0.2246  0.1172
 3521TIP3    H132198   2.078   3.225   8.310  0.2095 -2.1799  0.6400
 3521TIP3    H232199   1.970   3.120   8.331 -2.1232 -0.0852 -0.3233
 3522TIP3   OH232200   2.359   2.775   0.165 -0.2465  0.1002 -0.2498
 3522TIP3    H132201   2.449   2.761   0.197  0.1941  1.9786 -0.5134
 3522TIP3    H232202   2.319   2.689   0.167  0.8004 -0.4369  2.2368
 3523TIP3   OH232203   5.202   6.684   7.736  0.1344 -0.7119  0.0206
 3523TIP3    H132204   5.294   6.687   7.711  0.5333 -0.9457  1.3765
 3523TIP3    H232205   5.158   6.644   7.661  1.6635 -3.9707  0.6629
 3524TIP3   OH232206   6.453   0.731   0.003 -0.9212  0.0974  0.5013
 3524TIP3    H132207   6.406   0.711  -0.078 -2.7752 -3.0301  2.1635
 3524TIP3    H232208   6.385   0.737   0.070  0.6990  0.2891  2.2112
 3525TIP3   OH232209   4.256   4.453   6.972 -0.3532  0.2678 -0.4195
 3525TIP3    H132210   4.289   4.363   6.974  1.2139  0.7445  3.0811
 3525TIP3    H232211   4.331   4.506   6.999 -2.2703  2.1701  1.4940
 3526TIP3   OH232212   6.640   2.592   6.417  0.2355 -0.0749 -0.0077
 3526TIP3    H132213   6.629   2.585   6.322 -0.7101  0.3974  0.0539
 3526TIP3    H232214   6.550   2.597   6.451  0.5012 -1.6499  1.0338
 3527TIP3   OH232215   6.760   1.867   8.582 -0.0312 -0.0385 -0.3693
 3527TIP3    H132216   6.675   1.910   8.584 -0.1869 -0.3690  0.5179
 3527TIP3    H232217   6.803   1.902   8.504 -0.6075  0.8386 -0.3016
 3528TIP3   OH232218   5.874   0.339   7.955  0.3200  0.2073  0.2003
 3528TIP3    H132219   5.836   0.257   7.985 -1.6559  0.3001 -1.7902
 3528TIP3    H232220   5.956   0.314   7.913  0.1850 -0.6338  0.4275
 3529TIP3   OH232221   5.121   0.958   6.670  0.1937  0.1133  0.0464
 3529TIP3    H132222   5.115   0.869   6.636 -1.5130 -0.3700  1.4970
 3529TIP3    H232223   5.107   1.014   6.593  0.8053 -0.8601 -0.7941
 3530TIP3   OH232224   0.582   2.336   6.526  0.0008  0.0463 -0.3166
 3530TIP3    H132225   0.554   2.291   6.606 -0.7841  0.5627 -0.2892
 3530TIP3    H232226   0.677   2.330   6.527 -0.0665 -3.0546 -1.1370
 3531TIP3   OH232227   6.858   6.603   7.059  0.0004 -0.2410  0.8267
 3531TIP3    H132228   6.765   6.596   7.084  0.2468  1.1271  2.3089
 3531TIP3    H232229   6.863   6.561   6.974 -2.0444 -0.1591  0.6096
 3532TIP3   OH232230   1.039   1.037   7.954 -0.5939  0.5393 -0.5220
 3532TIP3    H132231   1.010   1.077   8.037  0.3435 -1.3290  0.7764
 3532TIP3    H232232   1.120   0.991   7.977  0.1090  0.5936 -2.6769
 3533TIP3   OH232233   5.898   1.535   1.342  0.7574  0.2625 -0.2561
 3533TIP3    H132234   5.914   1.520   1.249  0.4517  1.5995 -0.5531
 3533TIP3    H232235   5.812   1.578   1.345 -0.0210 -1.2812  0.7958
 3534TIP3   OH232236   6.576   5.536   6.765  0.2179 -0.3651 -0.3024
 3534TIP3    H132237   6.539   5.527   6.853 -0.7334 -2.0639 -0.8253
 3534TIP3    H232238   6.500   5.547   6.708  0.6570 -1.5407 -1.1485
 3535TIP3   OH232239   0.303   3.026   2.016  0.4802 -0.0173  0.0831
 3535TIP3    H132240   0.258   3.016   1.932  1.3706  1.0563 -0.5462
 3535TIP3    H232241   0.287   3.117   2.041  1.9390  0.2756  0.0277
 3536TIP3   OH232242   5.853   3.742   7.995  0.2062  0.4241  0.0741
 3536TIP3    H132243   5.862   3.819   7.939 -1.9167 -0.0914 -1.0716
 3536TIP3    H232244   5.887   3.669   7.942 -0.4842  0.1465  0.0070
 3537TIP3   OH232245   3.817   3.106   6.720  0.0726  0.9231 -0.5571
 3537TIP3    H132246   3.859   3.024   6.695 -1.6427 -0.0545 -0.3964
 3537TIP3    H232247   3.793   3.147   6.637  0.0065  0.7534 -0.6216
 3538TIP3   OH232248   6.012   4.368   0.387  0.1635  0.2796  0.0969
 3538TIP3    H132249   5.981   4.454   0.415 -0.4043  0.4791 -1.1159
 3538TIP3    H232250   6.084   4.349   0.448  2.0652  2.7765 -1.1762
 3539TIP3   OH232251   2.995   4.691   8.442 -0.1563 -0.6003  0.6318
 3539TIP3    H132252   2.932   4.627   8.475  1.3567 -2.7387 -0.3566
 3539TIP3    H232253   2.950   4.735   8.370 -0.8623 -1.4111  0.5594
 3540TIP3   OH232254   4.431   6.206   6.852  0.0744 -0.6884 -0.4317
 3540TIP3    H132255   4.355   6.154   6.827 -0.9186 -0.2451  1.4688
 3540TIP3    H232256   4.411   6.295   6.822  0.4801 -0.8262 -1.1349
 3541TIP3   OH232257   4.310   5.539   1.756  0.4291 -0.5867 -0.7788
 3541TIP3    H132258   4.252   5.612   1.733 -0.0251 -0.3089  1.0825
 3541TIP3    H232259   4.270   5.501   1.834  2.5344 -0.6302  0.3492
 3542TIP3   OH232260   6.808   0.457   8.226  0.2986 -0.0959  0.5638
 3542TIP3    H132261   6.839   0.525   8.287  1.1302  0.1252 -0.0958
 3542TIP3    H232262   6.714   0.473   8.220  0.0416 -0.6550  2.4518
 3543TIP3   OH232263   6.174   5.958   0.162  0.0484  0.0272  0.0218
 3543TIP3    H132264   6.236   6.020   0.124 -0.7340  0.1976 -1.0046
 3543TIP3    H232265   6.115   5.935   0.090 -0.2539 -1.1829  0.6258
 3544TIP3   OH232266   0.202   6.567   8.186 -0.5001 -0.2353  0.3620
 3544TIP3    H132267   0.237   6.546   8.099  0.7750  2.9970 -0.0396
 3544TIP3    H232268   0.205   6.483   8.233  0.9511 -1.6302 -1.9764
 3545TIP3   OH232269   0.579   5.327   2.509  0.0407  0.5606 -0.1199
 3545TIP3    H132270   0.542   5.370   2.587 -0.5236 -2.8312  1.6512
 3545TIP3    H232271   0.511   5.337   2.442  0.0011  2.4281  0.1222
 3546TIP3   OH232272   1.867   4.721   6.817 -0.0844  0.2376  0.1340
 3546TIP3    H132273   1.962   4.706   6.814 -0.0918  0.2819 -2.3303
 3546TIP3    H232274   1.829   4.644   6.775 -0.9979  1.1359 -0.7308
 3547TIP3   OH232275   6.325   0.189   1.691  0.3460 -0.2294  0.5727
 3547TIP3    H132276   6.337   0.124   1.761 -0.7446 -1.1753 -0.0807
 3547TIP3    H232277   6.267   0.146   1.628  0.1323  1.1446 -0.2098
 3548TIP3   OH232278   4.228   3.821   8.070  0.2142  0.1233  0.8118
 3548TIP3    H132279   4.229   3.916   8.077 -1.2950  0.3152 -0.7625
 3548TIP3    H232280   4.190   3.804   7.984  1.0638 -1.9057  0.7884
 3549TIP3   OH232281   1.454   1.245   0.090  0.3262 -0.1385 -0.3971
 3549TIP3    H132282   1.533   1.198   0.115  1.0219  0.6364 -1.0629
 3549TIP3    H232283   1.396   1.178   0.055  0.0227 -0.9633  1.5736
 3550TIP3   OH232284   5.277   6.542   8.012  0.4725  0.1976 -0.6529
 3550TIP3    H132285   5.218   6.592   8.068  0.9831 -0.4446  0.4980
 3550TIP3    H232286   5.282   6.592   7.930 -0.6090  0.9411 -0.2796
 3551TIP3   OH232287   3.593   6.042   1.650 -0.4554  0.4694  0.0937
 3551TIP3    H132288   3.555   6.114   1.700  0.9511  1.8640 -0.7205
 3551TIP3    H232289   3.646   5.994   1.713 -2.5466 -0.8329  0.9840
 3552TIP3   OH232290   2.534   6.337   0.461  0.2381  0.0267 -0.2742
 3552TIP3    H132291   2.597   6.408   0.452  0.4315 -0.0991  0.0433
 3552TIP3    H232292   2.451   6.380   0.482  0.5756  0.1145  0.9597
 3553TIP3   OH232293   2.903   3.258   7.424  0.3748  0.1377 -0.1002
 3553TIP3    H132294   2.998   3.260   7.430  0.3574 -0.2091  0.3396
 3553TIP3    H232295   2.878   3.176   7.467 -0.0274 -0.5223 -1.5494
 3554TIP3   OH232296   3.687   0.169   1.836 -0.7377 -0.9959  0.1739
 3554TIP3    H132297   3.775   0.190   1.804 -1.8920  0.7578 -2.2086
 3554TIP3    H232298   3.641   0.138   1.758 -2.3285 -1.5756  1.3046
 3555TIP3   OH232299   0.201   6.657   0.604 -0.3001  0.1721  0.2003
 3555TIP3    H132300   0.186   6.697   0.519  0.5131 -0.9688 -0.5080
 3555TIP3    H232301   0.141   6.703   0.663 -0.5679  1.2750 -0.8873
 3556TIP3   OH232302   1.099   5.866   8.618  0.1892  0.0373  0.3659
 3556TIP3    H132303   1.024   5.812   8.641  1.3017 -1.7428  0.0321
 3556TIP3    H232304   1.092   5.879   8.523  0.4198 -0.3423  0.2940
 3557TIP3   OH232305   6.395   4.149   1.633 -0.0772  0.2565 -0.5587
 3557TIP3    H132306   6.367   4.229   1.677 -0.6161 -0.5532  0.6243
 3557TIP3    H232307   6.484   4.134   1.665 -0.6290 -0.5727  0.6535
 3558TIP3   OH232308   5.971   5.867   0.695 -0.3340 -0.0319 -0.3269
 3558TIP3    H132309   6.052   5.817   0.684 -0.8862 -1.2563  0.8649
 3558TIP3    H232310   5.904   5.811   0.655 -0.8112  0.2452  0.0753
 3559TIP3   OH232311   4.544   3.651   0.247 -0.2535 -0.6148  0.2986
 3559TIP3    H132312   4.598   3.701   0.187 -0.6074  0.2958  0.7114
 3559TIP3    H232313   4.456   3.689   0.238 -1.1635 -2.8843 -1.2893
 3560TIP3   OH232314   5.544   3.150   2.073 -0.4906  0.2162  0.4098
 3560TIP3    H132315   5.586   3.135   1.989 -0.4791  0.7956  0.3051
 3560TIP3    H232316   5.462   3.101   2.068  0.7042 -2.0156  1.1134
 3561TIP3   OH232317   0.232   4.518   0.506  0.0792 -0.1506  0.4437
 3561TIP3    H132318   0.213   4.463   0.581  0.0408 -0.1203  0.4564
 3561TIP3    H232319   0.274   4.460   0.443  0.1122 -0.1757  0.4890
 3562TIP3   OH232320   2.710   6.168   0.722 -0.4438 -0.2696  0.1024
 3562TIP3    H132321   2.739   6.182   0.631  2.2780  0.4854  0.9817
 3562TIP3    H232322   2.650   6.241   0.739  0.9558  1.0565 -0.3736
 3563TIP3   OH232323   4.907   4.100   2.464  0.6310  0.3175  0.2365
 3563TIP3    H132324   4.949   4.149   2.393  3.3621 -1.1956  0.6551
 3563TIP3    H232325   4.891   4.013   2.426  0.9226 -0.1090  1.0830
 3564TIP3   OH232326   3.636   1.496   1.348  0.0362  0.1241  0.3218
 3564TIP3    H132327   3.567   1.454   1.399  1.2465  1.2666  3.0543
 3564TIP3    H232328   3.601   1.582   1.325  0.4376  0.6425  1.5740
 3565TIP3   OH232329   4.066   4.312   8.457  0.0436  0.4001 -0.1609
 3565TIP3    H132330   4.017   4.337   8.378  0.7776  2.8638  0.0710
 3565TIP3    H232331   4.003   4.261   8.509 -1.7454  1.9952 -0.6328
 3566TIP3   OH232332   4.572   6.222   1.161  0.0710  0.2142 -0.2203
 3566TIP3    H132333   4.642   6.279   1.193  1.4202 -2.4494  2.0066
 3566TIP3    H232334   4.494   6.277   1.161  1.5744  2.4783  0.1439
 3567TIP3   OH232335   1.388   5.624   7.408  0.5092  0.1441  0.4444
 3567TIP3    H132336   1.341   5.621   7.492  1.0200 -0.2660  0.7215
 3567TIP3    H232337   1.395   5.532   7.382  2.9514 -0.0155  1.4233
 3568TIP3   OH232338   6.757   5.556   0.765 -0.5100 -0.0684 -0.2156
 3568TIP3    H132339   6.711   5.474   0.782  0.0132 -0.6739 -1.5563
 3568TIP3    H232340   6.690   5.624   0.772 -1.3550 -0.8074 -0.9707
 3569TIP3   OH232341   0.648   3.991   8.465 -0.2468  0.0071  0.0042
 3569TIP3    H132342   0.712   4.062   8.468 -0.6383  0.3760 -0.1391
 3569TIP3    H232343   0.630   3.971   8.557 -2.9137  2.6880  0.2094
 3570TIP3   OH232344   0.016   4.161   0.346  0.1628 -0.4017  0.4307
 3570TIP3    H132345   0.051   4.186   0.432 -1.6620  1.2423  0.7632
 3570TIP3    H232346  -0.063   4.111   0.367 -1.2498  1.4421 -0.2035
 3571TIP3   OH232347   3.500   5.918   8.188 -0.0324 -0.1401 -0.5527
 3571TIP3    H132348   3.590   5.900   8.217 -0.0836 -1.3379 -1.1038
 3571TIP3    H232349   3.453   5.836   8.202 -0.8149  0.1999 -1.1333
 3572TIP3   OH232350   6.570   3.905   0.746 -0.6374  0.3485  0.2516
 3572TIP3    H132351   6.477   3.918   0.730 -1.0304 -1.4118  0.9082
 3572TIP3    H232352   6.579   3.911   0.841 -0.1454  0.0786  0.2230
 3573TIP3   OH232353   6.430   1.611   1.711  0.1134 -0.7775  0.2464
 3573TIP3    H132354   6.370   1.677   1.744 -1.2422 -2.4935  1.4218
 3573TIP3    H232355   6.425   1.619   1.616 -1.1924 -0.2001  0.3458
 3574TIP3   OH232356   0.355   0.468   1.792 -0.3216  0.1621 -0.4562
 3574TIP3    H132357   0.392   0.393   1.745  0.8213 -0.2216  0.9687
 3574TIP3    H232358   0.277   0.432   1.835 -0.0113 -0.1268 -0.1197
 3575TIP3   OH232359   1.632   3.021   0.886  0.0241 -0.4668 -0.1044
 3575TIP3    H132360   1.592   2.945   0.843 -0.6823 -0.0840 -0.1299
 3575TIP3    H232361   1.599   3.017   0.976  1.3994 -1.1952  0.3949
 3576TIP3   OH232362   5.386   6.251   7.721  0.0767  0.6149 -0.6796
 3576TIP3    H132363   5.375   6.346   7.711  0.6729  0.8352  0.6034
 3576TIP3    H232364   5.301   6.215   7.698 -0.4833  1.5477 -0.1566
 3577TIP3   OH232365   1.252   6.858   1.641  0.1219 -0.0954 -0.0129
 3577TIP3    H132366   1.328   6.904   1.605  0.4021 -0.0558  0.6184
 3577TIP3    H232367   1.198   6.838   1.565 -0.1605  1.5479 -0.2816
 3578TIP3   OH232368   1.141   4.836   1.661 -0.4118  0.2543 -0.2519
 3578TIP3    H132369   1.056   4.873   1.638 -0.2684  1.7521  1.4195
 3578TIP3    H232370   1.197   4.912   1.677  0.7917 -0.7012  0.2496
 3579TIP3   OH232371   3.440   2.194   0.854  0.0340 -0.5521 -0.1866
 3579TIP3    H132372   3.458   2.106   0.820 -0.4178  0.2930 -2.8545
 3579TIP3    H232373   3.515   2.213   0.910  0.0469 -2.6845  0.6221
 3580TIP3   OH232374   6.040   4.709   8.371 -0.1417 -0.1200  0.7928
 3580TIP3    H132375   5.951   4.746   8.370 -0.2037 -0.2775  0.5248
 3580TIP3    H232376   6.045   4.663   8.455  0.0446  0.7575  1.2787
 3581TIP3   OH232377   5.859   1.719   7.793 -0.1463 -0.2319  0.1393
 3581TIP3    H132378   5.947   1.743   7.821  1.0664 -0.1639 -3.2888
 3581TIP3    H232379   5.803   1.789   7.827  1.9476  2.6553 -1.9097
 3582TIP3   OH232380   3.706   2.859   1.650 -0.4866 -0.0076 -0.2195
 3582TIP3    H132381   3.723   2.807   1.571  0.0854 -0.2808  0.0818
 3582TIP3    H232382   3.639   2.922   1.622  0.5075  0.6336 -1.2295
 3583TIP3   OH232383   2.159   1.866   7.081  0.3042  0.2989 -0.5080
 3583TIP3    H132384   2.094   1.816   7.032  0.7207  0.4590 -1.2410
 3583TIP3    H232385   2.170   1.818   7.163  2.0171 -1.8828 -1.9011
 3584TIP3   OH232386   4.992   0.258   0.046 -0.0576  0.2704 -0.5843
 3584TIP3    H132387   4.919   0.204   0.076  0.9944 -2.3135 -2.3098
 3584TIP3    H232388   5.065   0.235   0.104 -0.1710  1.6822  0.1600
 3585TIP3   OH232389   4.260   3.791   8.460 -0.1863  0.2607  0.3182
 3585TIP3    H132390   4.335   3.849   8.471 -0.2321  1.0477 -2.7192
 3585TIP3    H232391   4.288   3.729   8.393 -1.1680 -1.4825  1.4441
 3586TIP3   OH232392   6.412   3.944   7.114  0.4428 -0.0649  0.3270
 3586TIP3    H132393   6.460   4.014   7.159  1.2097 -1.1686  1.3009
 3586TIP3    H232394   6.405   3.874   7.180 -0.2685 -0.9213 -0.6277
 3587TIP3   OH232395   6.137   3.179   2.378 -0.3492 -0.7777 -0.5722
 3587TIP3    H132396   6.159   3.141   2.463 -3.3819 -0.9105  0.2879
 3587TIP3    H232397   6.154   3.109   2.316  1.4518 -0.8473 -0.0552
 3588TIP3   OH232398   1.736   0.757   2.004 -0.2158 -0.1621 -0.5259
 3588TIP3    H132399   1.759   0.798   1.921  0.6252 -0.1685 -0.3020
 3588TIP3    H232400   1.810   0.776   2.062 -0.8862  0.0295  0.2868
 3589TIP3   OH232401   4.544   0.746   7.608 -0.1862 -0.7280 -0.7028
 3589TIP3    H132402   4.614   0.781   7.552 -0.1201  0.1650 -0.0835
 3589TIP3    H232403   4.464   0.766   7.560 -0.1151 -0.1646 -0.5989
 3590TIP3   OH232404   5.691   0.395   8.296 -0.5439  0.4220 -0.1008
 3590TIP3    H132405   5.713   0.327   8.360  0.9152 -0.2588 -1.2818
 3590TIP3    H232406   5.685   0.349   8.212 -0.8873  1.5361 -0.7169
 3591TIP3   OH232407   2.287   0.683   7.620  0.0946  0.2228  0.2655
 3591TIP3    H132408   2.301   0.766   7.573  2.4290 -0.5014 -0.4747
 3591TIP3    H232409   2.334   0.695   7.703  0.1587 -0.2331  0.2977
 3592TIP3   OH232410   1.637   6.628   0.774 -0.3221  0.2231  0.1402
 3592TIP3    H132411   1.640   6.625   0.679 -1.8759  2.3085 -0.0411
 3592TIP3    H232412   1.725   6.657   0.800  0.6687 -1.9874 -0.4593
 3593TIP3   OH232413   1.935   6.176   2.018  0.5005  0.3012 -0.1241
 3593TIP3    H132414   1.906   6.168   1.927 -1.1203 -0.4661  0.4119
 3593TIP3    H232415   1.870   6.126   2.068  2.1847 -0.5278  1.3169
 3594TIP3   OH232416   6.408   4.814   1.879 -0.0440 -0.4848  0.3922
 3594TIP3    H132417   6.384   4.905   1.897  1.2712 -0.3001  1.3749
 3594TIP3    H232418   6.446   4.783   1.962  0.9484 -1.4278 -0.3927
 3595TIP3   OH232419   6.547   1.323   0.488  0.0807 -0.5177  0.4572
 3595TIP3    H132420   6.598   1.250   0.522  1.9676  0.5607  0.0932
 3595TIP3    H232421   6.610   1.374   0.435 -2.0621 -0.7235 -2.5377
 3596TIP3   OH232422   2.085   1.844   7.805 -0.0023  0.3518  0.2640
 3596TIP3    H132423   2.142   1.921   7.792 -0.3827  0.2733 -2.7778
 3596TIP3    H232424   2.093   1.795   7.723  0.0814 -2.8418  2.0183
 3597TIP3   OH232425   4.956   4.896   1.654 -0.2513  0.1967  0.1299
 3597TIP3    H132426   4.912   4.844   1.587  1.4855 -0.4754 -0.5377
 3597TIP3    H232427   4.887   4.916   1.718 -1.6388 -0.2928 -1.1610
 3598TIP3   OH232428   3.111   4.872   7.476 -0.1856  0.2837  0.4511
 3598TIP3    H132429   3.097   4.822   7.396  0.1882 -0.2850  0.7343
 3598TIP3    H232430   3.028   4.918   7.490 -0.4930 -0.1592  0.1164
 3599TIP3   OH232431   0.218   0.733   7.259 -0.3246 -0.3846  0.3327
 3599TIP3    H132432   0.148   0.756   7.198 -1.6465 -0.9903  1.5366
 3599TIP3    H232433   0.296   0.722   7.205 -1.2609 -0.0959 -1.1136
 3600TIP3   OH232434   3.135   2.410   6.890  0.4458  0.1529  0.2905
 3600TIP3    H132435   3.097   2.482   6.841  1.2836  0.7575  0.4936
 3600TIP3    H232436   3.122   2.333   6.835  0.3665  0.6203 -0.3503
 3601TIP3   OH232437   0.566   3.227   0.660 -0.2686 -0.6329  0.4386
 3601TIP3    H132438   0.492   3.166   0.667 -1.5730  0.6952 -0.9338
 3601TIP3    H232439   0.634   3.177   0.615 -1.6307 -0.8516 -1.4771
 3602TIP3   OH232440   2.220   0.240   7.898 -0.3499  0.0289 -0.2700
 3602TIP3    H132441   2.267   0.158   7.883  1.7310  1.4099 -1.8003
 3602TIP3    H232442   2.277   0.308   7.863 -2.2969  2.1136  0.3270
 3603TIP3   OH232443   2.803   5.508   7.588 -0.2234  0.2697  0.3789
 3603TIP3    H132444   2.715   5.488   7.620 -0.7429  1.1291 -0.4505
 3603TIP3    H232445   2.823   5.438   7.526 -1.2416  1.1936 -1.0636
 3604TIP3   OH232446   5.671   5.505   8.150  0.2577  0.0202 -1.0165
 3604TIP3    H132447   5.638   5.418   8.172  1.3669 -0.0503  0.5751
 3604TIP3    H232448   5.731   5.489   8.076  2.4087 -1.0614  0.8108
 3605TIP3   OH232449   3.232   4.087   1.328  0.0723 -0.1367  0.0541
 3605TIP3    H132450   3.301   4.117   1.269  1.6375 -1.7580  0.9233
 3605TIP3    H232451   3.182   4.023   1.277  0.8544 -0.8542  0.1511
 3606TIP3   OH232452   6.577   0.249   1.528 -0.0188  0.5230  0.0366
 3606TIP3    H132453   6.522   0.294   1.592 -0.3779  1.2746 -0.7854
 3606TIP3    H232454   6.576   0.158   1.555 -2.4101  0.3487 -0.4586
 3607TIP3   OH232455   6.165   2.365   7.348 -0.1382  0.0440  0.0468
 3607TIP3    H132456   6.240   2.308   7.332  0.5820 -0.2718  3.6273
 3607TIP3    H232457   6.202   2.453   7.352 -0.3439  0.1490 -0.3506
 3608TIP3   OH232458   6.746   4.622   1.033 -0.1395  0.0201 -0.4020
 3608TIP3    H132459   6.742   4.673   0.953 -2.9152  0.9683  0.1986
 3608TIP3    H232460   6.659   4.581   1.039  0.7902 -1.9136  0.9608
 3609TIP3   OH232461   6.307   0.209   8.074 -0.2516  0.0676 -0.2140
 3609TIP3    H132462   6.335   0.231   8.163 -0.9803 -0.2263  0.0922
 3609TIP3    H232463   6.384   0.168   8.034 -0.1625 -0.5261  0.5447
 3610TIP3   OH232464   1.426   5.154   7.530 -0.6309  0.4229 -0.1366
 3610TIP3    H132465   1.511   5.149   7.488 -0.7549  2.3134 -0.6890
 3610TIP3    H232466   1.445   5.159   7.624 -0.0715  1.6492 -0.3006
 3611TIP3   OH232467   4.135   2.908   6.736 -0.6202  0.4945  0.1576
 3611TIP3    H132468   4.151   2.884   6.645  0.4032  2.1114 -0.1291
 3611TIP3    H232469   4.221   2.905   6.777 -1.0161  0.1939  0.9779
 3612TIP3   OH232470   4.813   0.292   7.543 -0.2730  0.4221 -0.2034
 3612TIP3    H132471   4.858   0.258   7.620  0.1873 -0.0265 -0.6597
 3612TIP3    H232472   4.745   0.350   7.578  1.4317  2.0896  0.4752
 3613TIP3   OH232473   3.754   2.294   1.449 -0.1029 -0.0235  0.3144
 3613TIP3    H132474   3.720   2.348   1.377  0.1444 -1.9637 -1.3726
 3613TIP3    H232475   3.676   2.262   1.495 -0.4243 -0.7835 -0.7088
 3614TIP3   OH232476   2.262   5.285   7.274 -0.4633 -0.9318  0.0874
 3614TIP3    H132477   2.270   5.333   7.192 -0.2988 -0.3556  0.4403
 3614TIP3    H232478   2.176   5.311   7.308 -0.2620 -0.6926  0.4062
 3615TIP3   OH232479   3.596   4.401   7.412  0.5134  0.4710  0.7006
 3615TIP3    H132480   3.511   4.373   7.380  0.6671 -0.8359  1.3648
 3615TIP3    H232481   3.581   4.427   7.502  0.7817  0.3938  0.7702
 3616TIP3   OH232482   5.906   3.701   0.652  0.2325  0.3506  0.4514
 3616TIP3    H132483   5.979   3.657   0.696  1.0062  0.7381 -0.4045
 3616TIP3    H232484   5.881   3.771   0.712 -2.1954 -2.1935  2.6867
 3617TIP3   OH232485   5.267   1.731   1.807 -0.0145 -0.1559 -0.0854
 3617TIP3    H132486   5.293   1.640   1.798  0.9624  0.0779  0.2531
 3617TIP3    H232487   5.237   1.739   1.897  0.2354 -0.0687 -0.0081
 3618TIP3   OH232488   2.098   1.893   1.507 -1.0637 -0.4721 -0.5897
 3618TIP3    H132489   2.070   1.805   1.534 -1.4186 -0.3090 -0.4133
 3618TIP3    H232490   2.189   1.898   1.534 -1.2615 -0.5073  0.1311
 3619TIP3   OH232491   6.697   0.212   7.658 -0.0210 -0.0534 -0.3063
 3619TIP3    H132492   6.739   0.182   7.577  0.2183  0.1580 -0.2610
 3619TIP3    H232493   6.768   0.247   7.710 -0.2294  0.1395 -0.1500
 3620TIP3   OH232494   0.482   1.900   1.335 -0.7221  0.0925 -0.2576
 3620TIP3    H132495   0.515   1.837   1.270  0.0880 -0.1233  0.3483
 3620TIP3    H232496   0.480   1.983   1.288  1.7904  0.3484 -0.0322
 3621TIP3   OH232497   2.985   5.941   1.300 -0.4961  0.1787  0.1559
 3621TIP3    H132498   3.072   5.982   1.307 -1.2014  2.1726 -1.5105
 3621TIP3    H232499   3.001   5.848   1.313  1.9692  0.4471 -0.4693
 3622TIP3   OH232500   4.630   5.219   7.315 -0.2440  0.5292  0.3419
 3622TIP3    H132501   4.622   5.278   7.390 -1.2513  2.2312 -1.0233
 3622TIP3    H232502   4.540   5.203   7.288  0.0866 -0.5408 -0.1753
 3623TIP3   OH232503   6.496   5.370   8.458 -0.6850 -0.0583 -0.2851
 3623TIP3    H132504   6.520   5.327   8.540  0.3081  0.9814 -0.0172
 3623TIP3    H232505   6.550   5.448   8.455 -0.2436 -0.3930 -2.2444
 3624TIP3   OH232506   0.344   5.801   0.068  0.0307 -0.3704  0.1791
 3624TIP3    H132507   0.337   5.787   0.163  0.6006 -0.4036  0.2228
 3624TIP3    H232508   0.433   5.835   0.056  0.7501 -2.3734 -0.5800
 3625TIP3   OH232509   0.605   2.432   8.037 -0.2556 -0.0757 -0.0705
 3625TIP3    H132510   0.663   2.356   8.042  0.4471  0.2206 -2.3817
 3625TIP3    H232511   0.599   2.451   7.943 -2.0650  1.4782  0.2951
 3626TIP3   OH232512   2.337   5.343   6.783 -0.1420  0.1000 -0.1217
 3626TIP3    H132513   2.283   5.266   6.799 -0.0413  0.2178  0.8064
 3626TIP3    H232514   2.411   5.310   6.732 -0.4380 -0.2939 -0.3005
 3627TIP3   OH232515   3.423   0.976   0.470  0.2091  0.4371  0.3438
 3627TIP3    H132516   3.450   0.909   0.533 -0.9431  0.6513  1.1031
 3627TIP3    H232517   3.504   1.021   0.446  1.0543 -1.4054 -0.4215
 3628TIP3   OH232518   1.478   1.539   7.427  0.2101  0.3285  0.2671
 3628TIP3    H132519   1.517   1.470   7.374  0.0926 -0.0800  0.7104
 3628TIP3    H232520   1.459   1.609   7.364 -2.9275 -1.3553 -0.8837
 3629TIP3   OH232521   0.975   1.902   1.065  0.0156 -0.0004 -0.3438
 3629TIP3    H132522   0.987   1.840   0.993 -0.8437  1.2385 -1.5833
 3629TIP3    H232523   0.955   1.847   1.141  0.2677 -1.2850 -1.1846
 3630TIP3   OH232524   1.996   4.550   0.701  0.2611 -0.6003  0.4875
 3630TIP3    H132525   1.907   4.582   0.684  0.3752 -0.5621 -0.0532
 3630TIP3    H232526   1.987   4.455   0.703  0.2434 -0.6059  0.2107
 3631TIP3   OH232527   0.889   0.103   0.084  0.3068  0.1897  0.4763
 3631TIP3    H132528   0.805   0.067   0.056  0.2120  0.9140 -0.2401
 3631TIP3    H232529   0.948   0.086   0.011  0.3921  0.9837  0.3465
 3632TIP3   OH232530   0.128   4.269   8.275  0.5153 -0.1438  0.3554
 3632TIP3    H132531   0.107   4.200   8.212  0.2164  0.9964 -0.8313
 3632TIP3    H232532   0.216   4.298   8.251  1.1543 -0.9358  1.6413
 3633TIP3   OH232533   1.694   6.154   7.258 -0.4454 -0.4646 -0.4057
 3633TIP3    H132534   1.643   6.114   7.188 -1.8035 -0.3359  0.4711
 3633TIP3    H232535   1.648   6.236   7.277 -0.2354 -0.6047  0.7706
 3634TIP3   OH232536   2.131   0.101   7.034 -0.0373 -0.6820  0.3363
 3634TIP3    H132537   2.151   0.034   6.969  3.7437  0.6591 -0.1808
 3634TIP3    H232538   2.217   0.127   7.068 -1.2591  3.6569  0.7062
 3635TIP3   OH232539   3.975   2.801   0.514  0.3788 -0.3940  0.1230
 3635TIP3    H132540   3.916   2.842   0.451 -1.0161 -1.9607  0.3345
 3635TIP3    H232541   4.062   2.835   0.492 -0.3009  0.3369 -1.5742
 3636TIP3   OH232542   1.447   2.559   8.205 -0.4919  0.1211  0.7969
 3636TIP3    H132543   1.486   2.486   8.253  0.4366 -0.3280 -0.5704
 3636TIP3    H232544   1.510   2.577   8.135 -1.7338  0.8327 -0.1710
 3637TIP3   OH232545   1.702   0.301   2.025 -0.5801  0.2227 -0.5022
 3637TIP3    H132546   1.638   0.238   2.060  1.0927 -1.6195 -0.5939
 3637TIP3    H232547   1.740   0.256   1.950  0.9295  1.2215 -0.3574
 3638TIP3   OH232548   0.178   2.890   7.321  0.3057  0.0784  0.8885
 3638TIP3    H132549   0.241   2.824   7.351  2.1013  1.4988  0.3583
 3638TIP3    H232550   0.184   2.887   7.226  0.7348  1.2952  0.8668
 3639TIP3   OH232551   6.373   4.670   6.844 -0.4678 -0.2527 -0.3502
 3639TIP3    H132552   6.436   4.734   6.877 -1.0200  0.5353 -0.7939
 3639TIP3    H232553   6.288   4.713   6.854 -0.7168 -0.2648 -2.1293
 3640TIP3   OH232554   6.840   1.568   7.442 -0.5283  0.1652 -0.3585
 3640TIP3    H132555   6.763   1.612   7.405 -0.0153  1.1664 -0.2759
 3640TIP3    H232556   6.891   1.638   7.483 -0.5767 -0.7768  1.3984
 3641TIP3   OH232557   0.113   2.830   8.234 -0.0092 -0.4508  0.1735
 3641TIP3    H132558   0.052   2.804   8.302 -0.6423 -0.2698 -0.3144
 3641TIP3    H232559   0.183   2.765   8.238  0.3267 -0.0375  1.4605
 3642TIP3   OH232560   1.667   2.500   0.467 -0.7437  0.0624 -0.4777
 3642TIP3    H132561   1.729   2.560   0.425 -0.0375 -0.4825 -0.2303
 3642TIP3    H232562   1.596   2.491   0.404 -0.7600  0.9981 -0.6040
 3643TIP3   OH232563   5.248   5.619   7.121  0.0278  0.0308  0.6160
 3643TIP3    H132564   5.297   5.603   7.041 -0.4423 -0.8540  0.4985
 3643TIP3    H232565   5.312   5.610   7.191 -0.2126 -2.5970  0.5801
 3644TIP3   OH232566   5.401   0.406   6.946 -0.6762  0.7988  0.5981
 3644TIP3    H132567   5.361   0.441   7.026 -0.9223 -0.7647  1.2027
 3644TIP3    H232568   5.366   0.317   6.938  0.3068  0.4812 -0.5602
 3645TIP3   OH232569   1.841   0.011   2.457 -0.0067  0.1239  1.1306
 3645TIP3    H132570   1.862   0.007   2.550  0.3215 -1.3055  1.0106
 3645TIP3    H232571   1.904  -0.047   2.415 -0.2717  0.6024  0.0280
 3646TIP3   OH232572   3.358   3.932   8.617  0.3181 -0.6108  0.2803
 3646TIP3    H132573   3.355   3.971   8.705 -0.0305  1.0910 -0.4625
 3646TIP3    H232574   3.445   3.891   8.612 -0.2386 -2.1712  1.9765
 3647TIP3   OH232575   2.442   2.173   1.489  0.5419 -0.3745 -0.2268
 3647TIP3    H132576   2.498   2.233   1.537 -1.0608  0.9273  0.1059
 3647TIP3    H232577   2.360   2.221   1.477 -1.3000 -2.9102  1.1462
 3648TIP3   OH232578   5.508   4.480   1.005  0.4989  0.3644 -0.1790
 3648TIP3    H132579   5.567   4.458   0.933 -0.0637  1.1830 -0.9081
 3648TIP3    H232580   5.429   4.513   0.962 -0.1623  0.0941  0.7996
 3649TIP3   OH232581   4.034   5.275   7.665  0.1594 -0.5115 -0.1956
 3649TIP3    H132582   4.005   5.185   7.673  2.3689 -1.3715 -1.0392
 3649TIP3    H232583   4.101   5.285   7.733 -0.1047  0.5509 -0.0580
 3650TIP3   OH232584   3.954   3.567   1.062 -0.5117 -0.3026 -0.2482
 3650TIP3    H132585   4.047   3.546   1.058 -0.4289  0.1019 -0.5146
 3650TIP3    H232586   3.914   3.493   1.108  0.0458 -0.1409  0.5211
 3651TIP3   OH232587   4.849   2.562   6.907 -0.1784  0.3138 -0.0313
 3651TIP3    H132588   4.840   2.582   6.814 -1.5931  1.0001  0.2287
 3651TIP3    H232589   4.789   2.489   6.921 -1.2559  1.3110  0.6603
 3652TIP3   OH232590   3.034   0.885   7.548 -0.4370 -0.0014 -0.2455
 3652TIP3    H132591   3.114   0.842   7.580  0.7388  2.7330  0.8258
 3652TIP3    H232592   3.045   0.887   7.453  1.1119  0.8202 -0.0924
 3653TIP3   OH232593   1.932   6.357   0.687 -0.2783  0.0418 -0.1932
 3653TIP3    H132594   1.941   6.293   0.757 -1.1417 -0.4540 -0.5245
 3653TIP3    H232595   1.850   6.333   0.643 -0.2759  0.9748 -0.7233
 3654TIP3   OH232596   4.514   1.738   1.346  0.2248 -0.1843  0.5261
 3654TIP3    H132597   4.536   1.773   1.432  0.0194  1.4166 -0.0271
 3654TIP3    H232598   4.595   1.747   1.295  0.7767 -2.4760  0.9217
 3655TIP3   OH232599   2.919   5.723   7.719 -0.0670  0.6054  0.0434
 3655TIP3    H132600   2.918   5.672   7.800  3.2172 -2.0638 -1.3288
 3655TIP3    H232601   2.869   5.671   7.657 -1.3168  1.9013 -0.0808
 3656TIP3   OH232602   6.460   6.125   1.313 -0.0855  0.2982 -1.3885
 3656TIP3    H132603   6.415   6.040   1.317 -0.5258  0.4353 -2.7701
 3656TIP3    H232604   6.502   6.125   1.227  1.0418  0.9383 -0.8464
 3657TIP3   OH232605   4.134   4.276   6.428 -0.0033  0.0085 -0.0377
 3657TIP3    H132606   4.161   4.333   6.356  0.2395 -0.0373  0.0144
 3657TIP3    H232607   4.166   4.320   6.506 -0.8356  0.3878  0.1001
 3658TIP3   OH232608   0.493   4.593   8.372 -0.2600  0.5197 -0.5087
 3658TIP3    H132609   0.537   4.655   8.430 -2.6273  2.1786 -0.3187
 3658TIP3    H232610   0.536   4.509   8.388  1.3637  1.6075  1.1482
 3659TIP3   OH232611   2.260   4.477   7.752 -0.2108 -0.1625  0.0944
 3659TIP3    H132612   2.279   4.568   7.774  1.0695 -0.4634  0.3018
 3659TIP3    H232613   2.331   4.427   7.792 -1.0813 -1.2975  0.2767
 3660TIP3   OH232614   5.305   6.396   1.389 -0.4288 -0.5508  0.3968
 3660TIP3    H132615   5.345   6.336   1.325  2.1169 -1.9218  2.9884
 3660TIP3    H232616   5.315   6.483   1.350 -1.0851 -1.4661 -1.9981
 3661TIP3   OH232617   3.603   5.023   7.194 -0.4399 -0.4105  0.3511
 3661TIP3    H132618   3.551   4.958   7.149 -2.0786  1.1091 -0.0650
 3661TIP3    H232619   3.547   5.053   7.266  0.1684  0.6889  0.3900
 3662TIP3   OH232620   0.058   5.972   2.675  0.3166  0.5373 -0.6018
 3662TIP3    H132621   0.153   5.983   2.666  0.1751  1.8597 -0.6708
 3662TIP3    H232622   0.024   5.987   2.587  0.2181 -2.7780 -1.2626
 3663TIP3   OH232623   6.826   5.002   7.864  0.2354 -0.2998 -0.1286
 3663TIP3    H132624   6.745   5.052   7.875  0.0358 -0.6057 -0.2087
 3663TIP3    H232625   6.888   5.066   7.828 -0.3085 -0.3660 -1.2216
 3664TIP3   OH232626   3.343   4.960   7.904 -0.2409 -0.4193  0.0476
 3664TIP3    H132627   3.310   4.916   7.826  1.2906 -0.8617 -0.3824
 3664TIP3    H232628   3.414   5.017   7.872 -0.2931  0.1926  0.9746
 3665TIP3   OH232629   5.769   1.555   2.246  0.0240 -0.3569  0.3212
 3665TIP3    H132630   5.814   1.570   2.162 -0.9560 -0.9789 -0.3325
 3665TIP3    H232631   5.680   1.530   2.221 -0.1938 -0.8543  1.5511
 3666TIP3   OH232632   0.843   5.990   0.844 -0.0625  0.6208 -0.2504
 3666TIP3    H132633   0.778   5.990   0.774 -0.1019  1.9834 -0.2444
 3666TIP3    H232634   0.909   6.052   0.816  1.0808 -0.4802 -0.0843
 3667TIP3   OH232635   3.360   3.272   1.173  0.2706  0.1703  0.3645
 3667TIP3    H132636   3.428   3.269   1.105  1.0545  0.1714  1.1314
 3667TIP3    H232637   3.359   3.183   1.209  0.3740  0.3571  0.8355
 3668TIP3   OH232638   6.918   4.678   7.435 -0.8423  0.2790  0.5273
 3668TIP3    H132639   6.940   4.749   7.376 -0.3038 -1.0470 -0.9352
 3668TIP3    H232640   6.903   4.720   7.520 -0.2275  2.0667 -0.2220
 3669TIP3   OH232641   6.668   3.465   2.889 -0.1269  0.0939  0.2067
 3669TIP3    H132642   6.749   3.498   2.928 -0.0514  1.3620 -0.9696
 3669TIP3    H232643   6.598   3.504   2.941 -0.0820  3.1867 -1.7886
 3670TIP3   OH232644   3.035   4.149   7.197  0.5111 -0.2416 -0.1497
 3670TIP3    H132645   2.986   4.072   7.166  0.3495 -0.5333  0.7877
 3670TIP3    H232646   3.102   4.113   7.255 -0.4697  0.3925  1.4624
 3671TIP3   OH232647   3.012   5.143   6.050 -0.1175 -0.3947 -0.1248
 3671TIP3    H132648   3.092   5.147   6.103 -0.3543 -0.6305  0.2557
 3671TIP3    H232649   3.026   5.069   5.991 -0.0613 -0.4447 -0.0490
 3672TIP3   OH232650   5.939   0.111   1.095 -0.2489 -0.6486 -0.5074
 3672TIP3    H132651   5.866   0.082   1.040 -1.7730 -1.1856  1.7020
 3672TIP3    H232652   5.916   0.084   1.183  2.0888  0.2374  0.4655
 3673TIP3   OH232653   0.212   6.470   7.926  0.2183  0.0826 -0.2908
 3673TIP3    H132654   0.202   6.497   7.835  0.5557 -0.3465 -0.4610
 3673TIP3    H232655   0.124   6.447   7.955  0.1227  0.1493 -0.5352
 3674TIP3   OH232656   2.159   0.396   7.504 -0.3245  0.4304  0.1513
 3674TIP3    H132657   2.072   0.364   7.478 -1.1808  1.4855  1.5720
 3674TIP3    H232658   2.170   0.478   7.455  0.1661 -0.0282 -0.5179
 3675TIP3   OH232659   5.463   3.101   0.188  0.1615  0.0082  0.2723
 3675TIP3    H132660   5.501   3.014   0.204  1.1297  0.3441 -0.1327
 3675TIP3    H232661   5.415   3.091   0.106  0.3902 -0.1076  0.1513
 3676TIP3   OH232662   0.367   3.227   0.339 -0.5855 -0.5808 -0.1090
 3676TIP3    H132663   0.300   3.174   0.295 -0.8213 -1.4552  1.2503
 3676TIP3    H232664   0.378   3.186   0.425  0.6819  0.4009  0.2299
 3677TIP3   OH232665   5.796   0.320   1.493 -0.4442 -0.3280 -0.4844
 3677TIP3    H132666   5.841   0.340   1.576  0.8433  1.3632 -1.5198
 3677TIP3    H232667   5.775   0.227   1.500  1.2251 -0.6701  1.0250
 3678TIP3   OH232668   3.397   5.393   7.137 -0.1604  0.3600 -0.7334
 3678TIP3    H132669   3.430   5.353   7.057 -1.7432 -0.3419 -1.0620
 3678TIP3    H232670   3.406   5.324   7.203 -0.3366  0.4070 -0.6615
 3679TIP3   OH232671   1.934   0.547   8.396 -0.1890  0.1998 -0.5521
 3679TIP3    H132672   2.015   0.567   8.348 -0.4982  0.8664 -0.8081
 3679TIP3    H232673   1.896   0.473   8.349  0.0241  0.1918 -0.7154
 3680TIP3   OH232674   3.412   5.538   2.675  0.0994  0.0796 -0.1709
 3680TIP3    H132675   3.330   5.557   2.631  0.5467  1.2066 -0.5385
 3680TIP3    H232676   3.448   5.624   2.698 -0.7444 -0.3952  3.6198
 3681TIP3   OH232677   1.365   0.159   2.730  0.0426  0.1682  0.1726
 3681TIP3    H132678   1.327   0.080   2.769  0.7518  0.2332  1.0165
 3681TIP3    H232679   1.443   0.128   2.684 -0.9187  0.0482 -1.4906
 3682TIP3   OH232680   4.602   1.850   1.585 -0.1414  0.7482  0.0981
 3682TIP3    H132681   4.558   1.858   1.670 -0.3190 -1.1977  0.2464
 3682TIP3    H232682   4.695   1.840   1.607 -0.1248  0.7557  0.0335
 3683TIP3   OH232683   2.800   5.780   7.372 -0.1434 -0.5918 -0.8787
 3683TIP3    H132684   2.823   5.698   7.329 -2.9919 -1.5231 -0.8505
 3683TIP3    H232685   2.778   5.755   7.462  1.4411  0.6577 -0.0913
 3684TIP3   OH232686   4.452   3.245   7.421  0.7121  0.5905  0.1470
 3684TIP3    H132687   4.474   3.166   7.470  4.8677  1.8546  0.6674
 3684TIP3    H232688   4.427   3.309   7.488  0.1514  0.5640 -0.0272
 3685TIP3   OH232689   0.999   6.311   7.062  0.0927 -0.0135  0.3491
 3685TIP3    H132690   1.027   6.302   6.971  0.7520  2.2279  0.2881
 3685TIP3    H232691   1.072   6.355   7.106 -1.3077  1.4332  1.3203
 3686TIP3   OH232692   0.551   2.737   0.465 -0.5800 -0.6382 -0.8556
 3686TIP3    H132693   0.609   2.668   0.497  0.4731  0.5709 -0.0520
 3686TIP3    H232694   0.609   2.798   0.420 -0.9767  1.1744  0.9227
 3687TIP3   OH232695   3.293   5.405   1.018  0.4411  0.0910  0.5324
 3687TIP3    H132696   3.281   5.499   1.034  2.0600  0.2724  0.8526
 3687TIP3    H232697   3.280   5.365   1.104 -3.5247 -0.4353 -0.1281
 3688TIP3   OH232698   2.438   3.113   7.193  0.1028  0.0144  0.1897
 3688TIP3    H132699   2.381   3.093   7.118  0.7901 -1.2809 -0.0339
 3688TIP3    H232700   2.526   3.086   7.164  0.5012  0.1619  1.2026
 3689TIP3   OH232701   1.151   6.431   7.646  0.2070  0.4138  0.2108
 3689TIP3    H132702   1.195   6.351   7.672 -0.0074  0.2915  0.1973
 3689TIP3    H232703   1.057   6.411   7.653  0.1400  1.0528  1.4057
 3690TIP3   OH232704   4.973   2.438   7.490  0.1548  0.5475  0.1390
 3690TIP3    H132705   5.002   2.347   7.501 -0.3810  0.1924 -1.1574
 3690TIP3    H232706   4.964   2.449   7.395  0.5861  2.0903  0.2502
 3691TIP3   OH232707   0.871   4.095   7.749 -0.4691  0.2113 -0.2942
 3691TIP3    H132708   0.927   4.045   7.808  0.7876  0.2877 -1.3811
 3691TIP3    H232709   0.784   4.057   7.761  0.2676 -1.5594 -0.3578
 3692TIP3   OH232710   3.381   4.230   6.938 -0.0231 -0.1688  0.4427
 3692TIP3    H132711   3.474   4.228   6.959  0.0401 -0.5832  0.1057
 3692TIP3    H232712   3.368   4.316   6.897  0.3267 -0.3667 -0.0812
 3693TIP3   OH232713   5.921   3.976   7.871 -0.2229  0.3169 -0.3694
 3693TIP3    H132714   5.905   4.045   7.806  0.0784  0.6544 -0.0947
 3693TIP3    H232715   6.009   3.995   7.904  0.5793 -1.1990 -1.5055
 3694TIP3   OH232716   0.065   2.179   1.838 -0.1948  0.6062  0.0771
 3694TIP3    H132717  -0.029   2.166   1.850 -0.3993  2.6901  1.1272
 3694TIP3    H232718   0.078   2.176   1.743 -0.9591 -1.5795 -0.0262
 3695TIP3   OH232719   5.967   0.858   7.900  0.3460 -1.0048 -0.0654
 3695TIP3    H132720   5.914   0.814   7.967  0.3038  0.3175  0.8107
 3695TIP3    H232721   5.904   0.878   7.830 -0.1723 -0.2135  0.5933
 3696TIP3   OH232722   5.383   5.879   1.124 -0.5712 -0.5241 -0.2034
 3696TIP3    H132723   5.458   5.938   1.120  0.7764 -2.0249  1.1519
 3696TIP3    H232724   5.382   5.836   1.039 -2.2200  2.0719 -1.6194
 3697TIP3   OH232725   5.780   1.282   7.944  0.5792  0.5531 -0.0108
 3697TIP3    H132726   5.818   1.233   8.017  1.7705  0.4680 -0.6648
 3697TIP3    H232727   5.802   1.373   7.961 -1.6969  0.9484  1.2396
 3698TIP3   OH232728   5.105   4.873   1.029 -0.1910  0.0405 -0.2948
 3698TIP3    H132729   5.112   4.906   1.119 -1.9889 -1.0556  0.2962
 3698TIP3    H232730   5.132   4.947   0.974  1.2276  0.6460  1.1252
 3699TIP3   OH232731   3.944   6.322   8.634 -0.7088  0.3147  0.0545
 3699TIP3    H132732   4.009   6.260   8.601 -0.9897 -0.4046  0.8214
 3699TIP3    H232733   3.907   6.279   8.711 -1.3234  1.1887  0.2586
 3700TIP3   OH232734   6.712   0.025   0.187  0.6488 -0.3190  0.3961
 3700TIP3    H132735   6.643   0.089   0.171 -0.4857 -1.5403  0.1641
 3700TIP3    H232736   6.747   0.048   0.273 -1.0567 -0.4980  1.1959
 3701TIP3   OH232737   3.248   0.337   8.396 -0.0061  0.0864 -0.1982
 3701TIP3    H132738   3.301   0.392   8.339 -1.0901  1.8809  0.4344
 3701TIP3    H232739   3.161   0.336   8.355 -0.4095  0.1816  0.6239
 3702TIP3   OH232740   0.370   0.651   6.250  0.0618  0.5906  0.2098
 3702TIP3    H132741   0.347   0.558   6.242 -0.2202  0.7809 -1.9083
 3702TIP3    H232742   0.360   0.685   6.161  1.8458  2.2768  0.5954
 3703TIP3   OH232743   1.935   4.410   1.143 -0.5744 -0.8226  0.0184
 3703TIP3    H132744   1.878   4.396   1.219  0.3145  0.9482  1.0815
 3703TIP3    H232745   1.903   4.492   1.105  0.0259 -0.8454 -0.5444
 3704TIP3   OH232746   3.647   4.065   0.351  0.1538  0.3072 -0.3226
 3704TIP3    H132747   3.602   4.137   0.306 -2.0318 -0.8059 -0.0332
 3704TIP3    H232748   3.675   4.103   0.434  1.9681  1.6810 -1.4955
 3705TIP3   OH232749   5.918   4.292   7.973  0.0062  0.2801 -0.5232
 3705TIP3    H132750   5.973   4.350   8.026  0.7101  0.1144 -1.0569
 3705TIP3    H232751   5.896   4.220   8.031 -1.0281  1.1596  0.2081
 3706TIP3   OH232752   6.813   5.532   7.793 -0.4579 -0.2896 -0.6643
 3706TIP3    H132753   6.819   5.535   7.889  0.7429 -0.8985 -0.6972
 3706TIP3    H232754   6.721   5.550   7.774 -0.3958  1.4923  0.5194
 3707TIP3   OH232755   5.075   6.747   0.436 -0.2376  0.2836 -0.0624
 3707TIP3    H132756   5.085   6.791   0.520  3.3325 -0.2798 -0.0312
 3707TIP3    H232757   5.014   6.676   0.453  0.4826  0.1206  2.1307
 3708TIP3   OH232758   4.026   3.371   0.621  0.9197 -0.1569 -0.2693
 3708TIP3    H132759   4.046   3.300   0.560  0.5142  0.7140 -1.4713
 3708TIP3    H232760   4.039   3.451   0.569  1.6944  0.6766  1.1307
 3709TIP3   OH232761   5.613   0.151   7.309  0.5075 -0.0628 -0.3491
 3709TIP3    H132762   5.701   0.177   7.284  0.4803 -1.2909 -1.8540
 3709TIP3    H232763   5.578   0.106   7.232 -0.7504 -1.2671  0.8705
 3710TIP3   OH232764   0.725   2.584   2.530  0.1312 -0.0173  0.2902
 3710TIP3    H132765   0.704   2.556   2.619  0.8363  1.1798  0.8535
 3710TIP3    H232766   0.666   2.533   2.475 -2.6777  1.5093  1.6289
 3711TIP3   OH232767   4.425   0.361   7.830  0.0362 -0.0496 -0.3865
 3711TIP3    H132768   4.363   0.428   7.801  1.1697  0.9322 -0.6499
 3711TIP3    H232769   4.477   0.404   7.898 -0.1999 -1.1718  0.5479
 3712TIP3   OH232770   2.964   6.205   1.927  0.3521  0.7463  0.4058
 3712TIP3    H132771   2.900   6.145   1.966  0.4860  0.9074  0.8810
 3712TIP3    H232772   3.043   6.151   1.916  0.2513  0.6474  0.1716
 3713TIP3   OH232773   4.382   3.157   8.230 -0.1210 -0.1368 -0.4652
 3713TIP3    H132774   4.430   3.078   8.255 -1.8424 -1.2220 -0.4168
 3713TIP3    H232775   4.370   3.205   8.312 -1.1392 -1.0599 -0.0380
 3714TIP3   OH232776   2.635   5.137   1.690 -0.2392 -0.0041  0.1972
 3714TIP3    H132777   2.597   5.093   1.766  1.1437 -2.6936 -0.5549
 3714TIP3    H232778   2.573   5.119   1.619 -0.2315  0.2394  0.1294
 3715TIP3   OH232779   4.855   3.202   7.024  0.0108  0.1052 -0.4170
 3715TIP3    H132780   4.873   3.216   6.931 -1.1900  0.4029 -0.6200
 3715TIP3    H232781   4.941   3.205   7.065  0.4429  1.2579 -1.3507
 3716TIP3   OH232782   2.613   3.790   1.094 -0.0685 -0.0966  0.4083
 3716TIP3    H132783   2.563   3.712   1.069 -0.6307  0.3948 -0.0537
 3716TIP3    H232784   2.643   3.772   1.183 -0.3102 -0.7818  0.3565
 3717TIP3   OH232785   4.095   3.970   1.340 -0.5261 -0.1657  0.3332
 3717TIP3    H132786   4.078   3.905   1.409 -1.4337  0.9442  1.1853
 3717TIP3    H232787   4.022   3.959   1.278  0.6205 -1.5965 -0.8443
 3718TIP3   OH232788   1.364   4.436   7.860 -0.1477  0.0007  0.0720
 3718TIP3    H132789   1.323   4.440   7.774  0.8375 -0.5966 -0.4515
 3718TIP3    H232790   1.453   4.404   7.843  1.4978  3.6882  0.8294
 3719TIP3   OH232791   0.680   5.587   1.219  0.4682 -0.0404  0.2254
 3719TIP3    H132792   0.614   5.623   1.159 -0.6281 -0.0621  1.3830
 3719TIP3    H232793   0.753   5.649   1.215 -0.3168  0.9010  0.1944
 3720TIP3   OH232794   5.090   2.275   8.159  0.4336 -0.2610  0.0116
 3720TIP3    H132795   5.099   2.361   8.200  1.4637 -0.2683 -0.1621
 3720TIP3    H232796   5.113   2.290   8.067  2.7648 -1.0746  0.3877
 3721TIP3   OH232797   2.506   3.101   1.332 -0.2371  0.0118 -0.1950
 3721TIP3    H132798   2.585   3.102   1.277  1.0043 -0.3409  1.4997
 3721TIP3    H232799   2.440   3.146   1.279  0.3630 -1.8222 -2.6853
 3722TIP3   OH232800   3.478   4.422   1.867  0.3326 -0.4125  0.3446
 3722TIP3    H132801   3.563   4.435   1.911  0.7524 -1.5646 -0.0875
 3722TIP3    H232802   3.416   4.470   1.921  1.1874  0.0476  0.9484
 3723TIP3   OH232803   1.625   5.559   8.331  0.2030 -0.1339  0.1769
 3723TIP3    H132804   1.662   5.511   8.405 -0.5864  0.8704  1.2631
 3723TIP3    H232805   1.700   5.587   8.279  0.7762 -0.6814  0.7082
 3724TIP3   OH232806   4.590   3.874   7.709  0.3197  0.2844  0.5695
 3724TIP3    H132807   4.497   3.893   7.694  0.2956 -0.9360 -1.1768
 3724TIP3    H232808   4.633   3.959   7.704 -0.6834  0.8657  1.3885
 3725TIP3   OH232809   4.283   4.495   0.822 -0.3225 -0.2866 -0.2729
 3725TIP3    H132810   4.245   4.550   0.890  0.1323 -0.2192 -0.0755
 3725TIP3    H232811   4.224   4.419   0.817  0.1995 -0.7828  0.9041
 3726TIP3   OH232812   1.889   1.502   7.110 -0.4716 -0.1757 -0.6688
 3726TIP3    H132813   1.840   1.565   7.057  1.1252  0.9838 -0.8359
 3726TIP3    H232814   1.916   1.434   7.048 -0.1184  0.2681 -1.0130
 3727TIP3   OH232815   3.594   3.972   1.011 -0.4113  0.1555 -0.4150
 3727TIP3    H132816   3.578   3.958   0.918 -0.8100  0.3204 -0.3721
 3727TIP3    H232817   3.508   3.964   1.052 -0.3468  0.7841 -0.1516
 3728TIP3   OH232818   6.268   0.883   7.621  0.6101 -0.0064 -0.1256
 3728TIP3    H132819   6.331   0.850   7.684  2.1290 -0.4664 -1.8000
 3728TIP3    H232820   6.312   0.956   7.578 -0.5031  0.4963 -0.4641
 3729TIP3   OH232821   2.771   1.424   6.929  0.0706  0.0342  0.4222
 3729TIP3    H132822   2.813   1.479   6.995  0.4921 -0.0836  0.2555
 3729TIP3    H232823   2.738   1.486   6.863  2.5365  0.0369 -0.9512
 3730TIP3   OH232824   1.634   5.672   0.120 -0.5514  0.2858  0.0061
 3730TIP3    H132825   1.573   5.709   0.056  0.6385 -1.3565 -2.2472
 3730TIP3    H232826   1.717   5.664   0.072  1.0149  0.8465  2.4198
 3731TIP3   OH232827   3.112   2.464   1.235 -0.2392 -0.0206 -0.1148
 3731TIP3    H132828   3.186   2.510   1.197 -1.3944  0.3228 -2.1081
 3731TIP3    H232829   3.145   2.428   1.317  1.7454  1.1730 -0.3370
 3732TIP3   OH232830   0.165   4.680   7.791 -0.0889  0.0563 -0.3227
 3732TIP3    H132831   0.220   4.736   7.846  0.9257 -0.5208 -0.7173
 3732TIP3    H232832   0.151   4.601   7.844  0.1454 -0.1310 -0.5367
 3733TIP3   OH232833   0.735   1.952   1.818 -0.5765 -0.1578 -0.5406
 3733TIP3    H132834   0.691   1.997   1.890  0.4780  0.9548 -0.5625
 3733TIP3    H232835   0.816   2.001   1.805  0.3404 -1.7282 -0.9738
 3734TIP3   OH232836   6.806   4.900   2.363 -0.2001 -0.4875  0.2723
 3734TIP3    H132837   6.838   4.810   2.366  1.0638 -0.0545  0.6136
 3734TIP3    H232838   6.808   4.930   2.454 -2.5212 -0.7118  0.4587
 3735TIP3   OH232839   5.788   6.181   0.882  0.5511 -0.3284 -0.4324
 3735TIP3    H132840   5.806   6.149   0.794  0.8672 -2.2350  0.2763
 3735TIP3    H232841   5.832   6.119   0.940 -2.2989 -1.0653  1.1685
 3736TIP3   OH232842   6.189   0.533   1.600 -0.3950 -0.6182 -0.4476
 3736TIP3    H132843   6.259   0.469   1.584  1.4112  1.2783 -0.4818
 3736TIP3    H232844   6.182   0.581   1.518  0.6335  1.3966  0.5909
 3737TIP3   OH232845   4.200   5.877   0.519 -0.0377  0.4521  0.1468
 3737TIP3    H132846   4.263   5.942   0.489  0.8080 -0.7745 -0.8327
 3737TIP3    H232847   4.122   5.928   0.543  1.3484  2.0224  1.5548
 3738TIP3   OH232848   6.328   6.730   7.316 -0.0541 -0.3322  0.1450
 3738TIP3    H132849   6.248   6.698   7.358 -0.2199  1.8537  1.6577
 3738TIP3    H232850   6.297   6.773   7.236 -0.7514  2.3150  1.7263
 3739TIP3   OH232851   2.776   2.999   0.174  0.3865  0.4574  0.2780
 3739TIP3    H132852   2.849   2.972   0.230  0.9452 -0.4364 -0.8244
 3739TIP3    H232853   2.806   3.080   0.133  1.5423 -0.7964 -1.4930
 3740TIP3   OH232854   6.758   6.218   7.528  0.1707 -0.2186  0.2550
 3740TIP3    H132855   6.673   6.202   7.487  0.6180 -1.2164 -0.3245
 3740TIP3    H232856   6.739   6.229   7.621 -0.4178 -2.1393  0.3895
 3741TIP3   OH232857   6.293   0.437   1.945  0.4780 -0.2339  0.4398
 3741TIP3    H132858   6.231   0.508   1.962  0.5617 -0.2829  0.9678
 3741TIP3    H232859   6.280   0.376   2.017  1.5230  0.0272  0.8716
 3742TIP3   OH232860   4.484   1.005   7.008  0.1931  0.2577  0.5213
 3742TIP3    H132861   4.514   1.096   7.003  0.3361  0.2498  1.1598
 3742TIP3    H232862   4.459   0.983   6.918  1.0563  0.6192  0.1850
 3743TIP3   OH232863   4.713   0.890   6.675  0.6569 -0.8906  0.0942
 3743TIP3    H132864   4.632   0.841   6.685 -0.4830  1.0490  0.8868
 3743TIP3    H232865   4.729   0.891   6.580  0.3410 -2.1537  0.0121
 3744TIP3   OH232866   5.666   3.661   0.383  0.4408  0.0303 -0.3098
 3744TIP3    H132867   5.652   3.610   0.462 -1.8042  0.7391 -0.1515
 3744TIP3    H232868   5.741   3.717   0.402 -1.0877  1.4370  2.0508
 3745TIP3   OH232869   0.003   3.636   7.314 -0.1828  0.0420  0.5866
 3745TIP3    H132870  -0.030   3.651   7.225 -0.3695  1.2748  0.8522
 3745TIP3    H232871   0.096   3.618   7.302 -0.2398  0.0409  0.1268
 3746TIP3   OH232872   4.286   6.466   7.202 -0.0318  0.1604  0.1864
 3746TIP3    H132873   4.302   6.525   7.276  0.7792  0.4610 -0.2125
 3746TIP3    H232874   4.308   6.519   7.125 -1.7799  0.1677 -0.3474
 3747TIP3   OH232875   6.561   3.958   0.464  0.1404 -0.3109 -0.2215
 3747TIP3    H132876   6.522   3.897   0.401 -1.6142  0.4192  0.0953
 3747TIP3    H232877   6.606   3.903   0.527 -0.4332 -1.2051 -0.5777
 3748TIP3   OH232878   3.560   1.619   0.776  0.0044 -0.3098  0.3712
 3748TIP3    H132879   3.523   1.592   0.861 -0.6126  0.7494  0.4621
 3748TIP3    H232880   3.491   1.671   0.736  0.8793  0.5061 -0.1071
 3749TIP3   OH232881   2.398   3.232   7.639  0.4006 -0.0990  0.0957
 3749TIP3    H132882   2.472   3.272   7.593  0.5109  0.0012  0.3577
 3749TIP3    H232883   2.382   3.150   7.593  0.3045  0.1522 -0.3216
 3750TIP3   OH232884   5.154   3.081   1.647 -0.3655 -0.0538  0.1171
 3750TIP3    H132885   5.194   3.168   1.649  0.1509 -0.2828  0.0225
 3750TIP3    H232886   5.158   3.054   1.555 -0.4677 -0.2031  0.1552
 3751TIP3   OH232887   1.069   3.778   6.702 -0.6683 -0.7741 -0.0776
 3751TIP3    H132888   0.999   3.798   6.640 -0.0112 -0.6290 -0.7846
 3751TIP3    H232889   1.150   3.803   6.657 -0.0196 -2.4930  0.0506
 3752TIP3   OH232890   1.484   0.134   7.313  0.6894 -0.1403 -0.0455
 3752TIP3    H132891   1.494   0.227   7.294  0.6862 -0.2834 -0.7847
 3752TIP3    H232892   1.458   0.131   7.405 -0.6477  0.6749 -0.3578
 3753TIP3   OH232893   6.848   2.576   0.668 -0.0739  0.4808  0.4046
 3753TIP3    H132894   6.798   2.505   0.627 -0.1689 -0.4926  2.1171
 3753TIP3    H232895   6.831   2.653   0.613 -1.9672 -0.2476 -0.0942
 3754TIP3   OH232896   6.841   1.800   6.815 -0.4177 -0.1903 -0.5177
 3754TIP3    H132897   6.787   1.878   6.803 -0.9348 -0.6665 -1.3943
 3754TIP3    H232898   6.803   1.735   6.755  0.1433 -1.0422  0.0309
 3755TIP3   OH232899   1.701   6.251   1.016 -0.1139  0.1802  0.2252
 3755TIP3    H132900   1.631   6.262   0.952  0.6184 -0.2395 -0.6740
 3755TIP3    H232901   1.680   6.170   1.062 -0.6535  0.4948  0.5478
 3756TIP3   OH232902   5.382   1.796   0.809  0.3165  0.1373 -0.4343
 3756TIP3    H132903   5.457   1.751   0.847  0.5202 -0.1260 -1.1435
 3756TIP3    H232904   5.416   1.882   0.783  0.6534 -0.3894 -1.7732
 3757TIP3   OH232905   0.654   1.618   0.355 -0.4134  0.4995 -0.8586
 3757TIP3    H132906   0.733   1.672   0.355  0.6355 -0.9524  0.2848
 3757TIP3    H232907   0.684   1.531   0.328 -2.1875  0.5555 -3.4448
 3758TIP3   OH232908   4.211   1.338   7.136 -0.3336 -0.3603 -0.4761
 3758TIP3    H132909   4.192   1.336   7.042 -3.0548  2.0365 -0.1345
 3758TIP3    H232910   4.125   1.340   7.178  0.7202  1.5912  1.8780
 3759TIP3   OH232911   5.189   0.156   0.193  0.3826  0.3175  0.2338
 3759TIP3    H132912   5.277   0.124   0.175 -0.1888 -1.6379  0.6411
 3759TIP3    H232913   5.194   0.194   0.281  0.6025 -0.8622  0.7562
 3760TIP3   OH232914   5.443   4.096   8.569  0.0463 -0.0504 -0.3768
 3760TIP3    H132915   5.497   4.063   8.497 -1.1258 -0.9155 -0.9014
 3760TIP3    H232916   5.482   4.180   8.592  0.9838 -0.1708 -1.4181
 3761TIP3   OH232917   5.658   6.823   8.232  0.1538  0.3623  0.3291
 3761TIP3    H132918   5.732   6.784   8.185 -1.1886 -0.6987 -1.0059
 3761TIP3    H232919   5.588   6.759   8.223 -1.3553  1.9380  0.3735
 3762TIP3   OH232920   4.979   1.490   7.578  0.5015  0.3807  0.0654
 3762TIP3    H132921   5.072   1.469   7.563  1.1151  2.7992  0.0797
 3762TIP3    H232922   4.972   1.498   7.673  0.5466  1.1883  0.0090
 3763TIP3   OH232923   1.171   2.695   8.308  0.5686  0.3392  0.6715
 3763TIP3    H132924   1.219   2.623   8.267 -0.1496 -0.4677  1.1766
 3763TIP3    H232925   1.205   2.698   8.398  0.5158  0.5517  0.6834
 3764TIP3   OH232926   5.612   0.332   6.493  0.0705  0.1327 -0.4685
 3764TIP3    H132927   5.613   0.237   6.505 -1.6390  0.3430  1.9705
 3764TIP3    H232928   5.526   0.351   6.456 -0.1602  0.8191  0.3804
 3765TIP3   OH232929   6.423   2.385   6.325 -0.6684 -0.6180 -0.7921
 3765TIP3    H132930   6.413   2.481   6.326 -0.0045 -0.4664 -2.9035
 3765TIP3    H232931   6.359   2.353   6.388 -1.1200  1.2082 -0.2709
 3766TIP3   OH232932   6.742   6.654   8.174 -0.2703  0.2305 -0.7593
 3766TIP3    H132933   6.754   6.670   8.267  2.8590  1.5423 -1.2666
 3766TIP3    H232934   6.746   6.559   8.165  0.3281  0.1396  0.3655
 3767TIP3   OH232935   4.091   1.805   1.976  0.2870  0.1482 -0.3994
 3767TIP3    H132936   4.107   1.722   1.931  1.9191  1.5143 -2.5104
 3767TIP3    H232937   4.154   1.804   2.049 -1.2310 -1.3566  0.9780
 3768TIP3   OH232938   0.044   6.245   7.038 -0.0574  1.0107 -0.3090
 3768TIP3    H132939  -0.031   6.225   6.983 -1.3132 -0.1356  1.7107
 3768TIP3    H232940   0.007   6.260   7.125  2.0831 -0.8176  1.0441
 3769TIP3   OH232941   6.334   5.378   7.653 -0.1167  1.0993  0.7262
 3769TIP3    H132942   6.275   5.387   7.728  1.0444 -0.6313  1.9327
 3769TIP3    H232943   6.378   5.294   7.668  0.5947  0.9989 -1.6045
 3770TIP3   OH232944   3.115   6.689   8.546  0.5860 -0.4137 -0.1790
 3770TIP3    H132945   3.135   6.598   8.523 -0.5994 -0.5607 -0.6696
 3770TIP3    H232946   3.108   6.735   8.462  0.6631  0.0286  0.0504
 3771TIP3   OH232947   1.272   6.072   7.362  0.6864 -0.0425 -0.1221
 3771TIP3    H132948   1.308   6.017   7.293  0.8321 -0.5244  0.3355
 3771TIP3    H232949   1.287   6.023   7.443 -1.7229 -0.6406  0.0132
 3772TIP3   OH232950   4.531   2.685   0.497  0.6176 -0.5838  0.0436
 3772TIP3    H132951   4.544   2.773   0.532 -1.3103 -0.2773  0.1404
 3772TIP3    H232952   4.604   2.634   0.532  1.1483  0.7144  0.9168
 3773TIP3   OH232953   5.816   1.957   7.957  0.2521  0.0043  0.1598
 3773TIP3    H132954   5.812   1.956   8.053 -1.5795  0.7793  0.1262
 3773TIP3    H232955   5.728   1.980   7.929  0.8119  0.0487 -1.7242
 3774TIP3   OH232956   6.543   0.846   6.518 -0.2366  0.1649 -0.3149
 3774TIP3    H132957   6.598   0.924   6.527  1.2623 -0.8987  0.1624
 3774TIP3    H232958   6.597   0.775   6.552 -0.8846 -1.3752 -2.3395
 3775TIP3   OH232959   0.817   5.792   0.033  0.8684  0.4616 -0.1147
 3775TIP3    H132960   0.793   5.734   0.105  2.2954 -1.0914 -0.8151
 3775TIP3    H232961   0.741   5.849   0.022 -0.9976 -1.8130  0.0934
 3776TIP3   OH232962   1.705   0.271   1.403  0.5669  0.3441  0.0065
 3776TIP3    H132963   1.705   0.176   1.399  2.1603  0.2619  1.3365
 3776TIP3    H232964   1.790   0.297   1.369  0.1066  1.3149 -0.4520
 3777TIP3   OH232965   6.002   3.328   0.264  0.1578 -0.0061 -0.2401
 3777TIP3    H132966   5.937   3.389   0.229  1.0993  2.5357  1.9865
 3777TIP3    H232967   5.955   3.278   0.330 -0.4507 -1.2458 -1.5668
 3778TIP3   OH232968   0.863   2.458   6.686  0.0886  0.7572  0.2417
 3778TIP3    H132969   0.819   2.534   6.647 -2.8896 -0.9310  0.0506
 3778TIP3    H232970   0.866   2.393   6.615 -0.0087 -0.2939  1.1823
 3779TIP3   OH232971   0.380   2.364   7.544 -0.4586 -0.0920 -0.1034
 3779TIP3    H132972   0.315   2.294   7.549 -0.0277 -0.4362  1.1845
 3779TIP3    H232973   0.433   2.353   7.623 -0.5074  1.8086  0.2549
 3780TIP3   OH232974   4.566   4.286   2.473  0.6396 -0.6057 -0.0832
 3780TIP3    H132975   4.528   4.205   2.439 -0.5077 -0.0644 -0.1295
 3780TIP3    H232976   4.512   4.307   2.549  0.7930  0.2357 -0.2013
 3781TIP3   OH232977   0.378   1.231   2.004 -0.7926 -0.3236 -0.0406
 3781TIP3    H132978   0.459   1.247   1.956 -0.9181 -0.1523 -0.1985
 3781TIP3    H232979   0.383   1.289   2.080 -0.6314 -0.5341  0.1101
 3782TIP3   OH232980   4.443   1.832   0.566  0.2114  0.3766 -0.3099
 3782TIP3    H132981   4.512   1.845   0.502  0.0056 -1.8403 -1.0894
 3782TIP3    H232982   4.485   1.785   0.638  0.3915  2.6473  1.1664
 3783TIP3   OH232983   3.912   4.224   1.211 -0.1171 -0.1375 -0.1728
 3783TIP3    H132984   3.957   4.261   1.134  0.7570 -1.2907 -0.2347
 3783TIP3    H232985   3.982   4.208   1.274 -0.7751  0.3686  0.7165
 3784TIP3   OH232986   5.003   0.492   0.207 -0.4218  1.1071 -0.0877
 3784TIP3    H132987   5.032   0.423   0.148 -1.2444  1.0741 -0.4557
 3784TIP3    H232988   4.908   0.493   0.199 -0.6825  0.2890  2.1358
 3785TIP3   OH232989   0.260   2.951   1.240  0.1115 -0.3010  0.2351
 3785TIP3    H132990   0.332   3.001   1.202 -0.1268  1.6131  2.0821
 3785TIP3    H232991   0.185   3.011   1.235 -0.5823 -1.0623  1.1711
 3786TIP3   OH232992   4.679   4.235   1.343 -0.1083 -0.1822 -0.1733
 3786TIP3    H132993   4.765   4.274   1.328 -0.9538  2.4396  1.1476
 3786TIP3    H232994   4.634   4.245   1.259  0.6978 -1.2094 -0.7536
 3787TIP3   OH232995   1.036   5.151   1.232  0.2093 -0.0575 -0.5032
 3787TIP3    H132996   0.980   5.224   1.258  1.2143  0.7732 -0.5968
 3787TIP3    H232997   0.987   5.107   1.162 -0.4969  0.4001 -0.3063
 3788TIP3   OH232998   5.867   4.773   1.085 -0.1060  0.1515  0.2733
 3788TIP3    H132999   5.871   4.837   1.155 -2.2926  1.1217 -0.4300
 3788TIP3    H233000   5.799   4.711   1.112  1.5907 -1.6582  0.6882
 3789TIP3   OH233001   4.931   1.798   2.445  0.1120 -0.0729 -0.3025
 3789TIP3    H133002   4.845   1.798   2.404  0.4255 -1.0203 -0.9867
 3789TIP3    H233003   4.913   1.802   2.539 -0.6836 -0.4472 -0.4318
 3790TIP3   OH233004   4.072   2.121   8.589  0.9802  0.5575  0.0792
 3790TIP3    H133005   4.071   2.055   8.658 -3.0622  0.9775  0.6570
 3790TIP3    H233006   4.032   2.198   8.629 -0.0178  1.3265 -2.2265
 3791TIP3   OH233007   3.916   2.673   7.831  0.3252  0.2138  0.6246
 3791TIP3    H133008   3.994   2.697   7.781  0.8435 -0.0345  1.3018
 3791TIP3    H233009   3.888   2.590   7.792 -0.1268  0.7297 -0.1948
 3792TIP3   OH233010   5.281   3.155   7.340 -0.1525  0.1649 -0.8004
 3792TIP3    H133011   5.295   3.061   7.357 -0.8518  0.0389 -0.8817
 3792TIP3    H233012   5.332   3.199   7.408  0.2917 -0.2680 -0.8396
 3793TIP3   OH233013   3.230   2.181   1.605 -0.0168 -0.0522  0.4552
 3793TIP3    H133014   3.245   2.255   1.664 -0.3151  0.2657  0.1293
 3793TIP3    H233015   3.172   2.214   1.537  1.1047 -0.1313 -0.5814
 3794TIP3   OH233016   4.633   3.851   6.680  0.1769  0.1567 -0.6240
 3794TIP3    H133017   4.726   3.829   6.673  0.2869  0.2685  0.3207
 3794TIP3    H233018   4.589   3.791   6.620  0.6853 -1.1619  0.2871
 3795TIP3   OH233019   5.257   3.618   5.984 -0.0493  0.7822  0.2625
 3795TIP3    H133020   5.249   3.671   6.064  0.2795  1.0857  0.0981
 3795TIP3    H233021   5.172   3.629   5.941 -0.0575  1.0090  0.3317
 3796TIP3   OH233022   5.737   0.456   0.005  0.4608  0.5307 -0.0205
 3796TIP3    H133023   5.729   0.369  -0.035 -2.6462  1.6454 -2.1884
 3796TIP3    H233024   5.663   0.460   0.066 -0.3268  2.1295 -1.0353
 3797TIP3   OH233025   6.630   2.570   1.869  0.1635  0.2052  0.0144
 3797TIP3    H133026   6.574   2.604   1.799 -1.3377 -0.8884  0.6277
 3797TIP3    H233027   6.717   2.604   1.849 -0.5741  1.3856 -1.3728
 3798TIP3   OH233028   5.382   5.432   7.856 -0.1552 -0.1600 -0.0966
 3798TIP3    H133029   5.407   5.460   7.944 -1.3958 -0.4226  0.3570
 3798TIP3    H233030   5.383   5.513   7.805  2.2714 -0.2351 -0.3253
 3799TIP3   OH233031   4.137   6.131   8.568 -0.3346 -0.5221 -0.2615
 3799TIP3    H133032   4.213   6.079   8.541 -0.1996 -0.4926  0.0572
 3799TIP3    H233033   4.134   6.204   8.506 -0.5397 -0.9247 -0.7262
 3800TIP3   OH233034   4.112   1.164   8.512 -0.2169 -0.6647  0.0644
 3800TIP3    H133035   4.190   1.143   8.461  0.3939  1.6195 -0.0268
 3800TIP3    H233036   4.144   1.179   8.601 -1.0962 -3.2750  0.9048
 3801TIP3   OH233037   3.052   4.761   0.645 -0.1412 -0.3414  1.0812
 3801TIP3    H133038   2.990   4.691   0.665 -0.8611  0.5951  2.2760
 3801TIP3    H233039   3.078   4.795   0.731  0.4394  0.6432  0.5319
 3802TIP3   OH233040   0.633   6.312   7.851  0.2422  0.3912 -0.2310
 3802TIP3    H133041   0.662   6.231   7.892 -1.5975  0.6283  1.7656
 3802TIP3    H233042   0.642   6.378   7.919 -1.0424  1.2468 -0.8438
 3803TIP3   OH233043   0.126   3.899   0.523 -0.0129  0.4430  0.0817
 3803TIP3    H133044   0.049   3.860   0.565  1.5557 -1.1997  1.5544
 3803TIP3    H233045   0.118   3.993   0.543 -0.5093  0.0221  2.1501
 3804TIP3   OH233046   1.734   3.951   8.555  0.9343  0.0590 -0.0643
 3804TIP3    H133047   1.761   3.999   8.477 -2.7383  3.9732  0.7265
 3804TIP3    H233048   1.656   3.904   8.528  0.6730 -0.0387  0.8334
 3805TIP3   OH233049   0.747   6.061   7.879 -0.3683 -0.4259  0.0710
 3805TIP3    H133050   0.769   6.040   7.788 -1.2880  0.2595 -0.3274
 3805TIP3    H233051   0.679   5.998   7.902 -0.3867 -0.3719  0.1640
 3806TIP3   OH233052   2.258   3.436   0.392 -0.0754 -0.0536  0.1659
 3806TIP3    H133053   2.290   3.493   0.322  0.4274 -0.0629  0.3861
 3806TIP3    H233054   2.304   3.353   0.377 -1.0693 -0.5231 -0.3666
 3807TIP3   OH233055   1.350   1.656   6.998  0.1246 -0.4840 -0.1811
 3807TIP3    H133056   1.322   1.602   6.924  0.3622 -1.3154  0.3204
 3807TIP3    H233057   1.312   1.743   6.980  0.9161 -0.4224 -1.7101
 3808TIP3   OH233058   5.123   6.886   7.934  0.0806 -0.0184 -0.1912
 3808TIP3    H133059   5.181   6.888   8.011 -1.3078  0.9207  0.8795
 3808TIP3    H233060   5.159   6.816   7.879  1.4624 -0.3220  1.0295
 3809TIP3   OH233061   4.976   0.036   1.479  0.1627 -0.4154 -0.4068
 3809TIP3    H133062   5.059   0.031   1.430  0.2933 -0.0236 -0.2311
 3809TIP3    H233063   4.975   0.125   1.514  0.1279 -0.7286  0.4075
 3810TIP3   OH233064   4.534   3.185   0.543  0.7354  0.0387 -0.4659
 3810TIP3    H133065   4.559   3.259   0.489  2.8739  0.3616  0.8827
 3810TIP3    H233066   4.607   3.123   0.536  0.7151 -0.2622  1.3679
 3811TIP3   OH233067   4.495   5.251   0.817 -0.3398 -0.2782  0.1183
 3811TIP3    H133068   4.485   5.210   0.903 -0.3235 -1.1299 -0.2764
 3811TIP3    H233069   4.470   5.343   0.831 -1.6015 -0.6878  0.7529
 3812TIP3   OH233070   6.063   4.779   7.729  1.0103  0.1222  0.3737
 3812TIP3    H133071   5.981   4.811   7.693  0.0020 -1.1707  1.4260
 3812TIP3    H233072   6.118   4.762   7.652 -0.8720 -2.0347 -0.6435
 3813TIP3   OH233073   1.316   1.444   0.191 -0.0259 -0.1085 -0.5931
 3813TIP3    H133074   1.235   1.397   0.174 -0.7088  0.4994  0.8235
 3813TIP3    H233075   1.385   1.382   0.169 -0.8921 -1.5931  0.6471
 3814TIP3   OH233076   2.740   2.135   2.035 -0.2848  0.3183 -0.1694
 3814TIP3    H133077   2.650   2.104   2.028  0.0872 -0.4307 -2.4437
 3814TIP3    H233078   2.773   2.096   2.116 -1.8625  0.3193  0.5114
 3815TIP3   OH233079   0.662   1.945   0.486  0.1369 -0.0247 -0.1121
 3815TIP3    H133080   0.719   1.924   0.412  0.6528  0.6098  0.0991
 3815TIP3    H233081   0.645   1.860   0.527  0.4534 -0.2913 -0.5150
 3816TIP3   OH233082   5.272   3.323   0.078  0.3291 -0.8887  0.8805
 3816TIP3    H133083   5.316   3.376   0.012  1.0345 -1.8782  0.5279
 3816TIP3    H233084   5.301   3.359   0.162 -1.0575  0.7756  0.7068
 3817TIP3   OH233085   3.995   6.870   6.571  0.2680 -0.1557 -0.0133
 3817TIP3    H133086   4.036   6.874   6.485  0.1992  0.9764 -0.0146
 3817TIP3    H233087   4.003   6.959   6.605  0.1574 -0.5571  1.0904
 3818TIP3   OH233088   0.230   0.680   1.043 -0.0107 -0.0083  0.6006
 3818TIP3    H133089   0.274   0.761   1.067  0.1411  0.0511  0.1336
 3818TIP3    H233090   0.286   0.642   0.974  0.7178 -1.2252  1.7944
 3819TIP3   OH233091   1.594   4.955   0.502 -0.7463 -0.2481 -0.0592
 3819TIP3    H133092   1.638   4.955   0.586  0.4544  2.1946 -0.5921
 3819TIP3    H233093   1.568   5.046   0.488  1.0197 -0.0513 -3.2111
 3820TIP3   OH233094   2.091   3.822   2.389  0.3511  0.3019 -0.5497
 3820TIP3    H133095   2.162   3.875   2.356 -0.1795  2.4342  1.4475
 3820TIP3    H233096   2.030   3.885   2.428 -0.8102 -1.6834  1.0679
 3821TIP3   OH233097   3.459   2.365   7.603 -0.2146  0.5272 -0.0937
 3821TIP3    H133098   3.365   2.362   7.586  0.1279  1.5273 -2.7888
 3821TIP3    H233099   3.488   2.274   7.597 -1.0226  0.1820  1.0342
 3822TIP3   OH233100   3.266   5.023   1.125 -0.0882 -0.0156 -0.2694
 3822TIP3    H133101   3.191   4.979   1.164 -0.1914 -0.0545 -0.5111
 3822TIP3    H233102   3.310   5.066   1.199  1.5640 -2.7289  0.4516
 3823TIP3   OH233103   3.551   6.160   6.997 -0.2500  0.0087  0.3265
 3823TIP3    H133104   3.627   6.126   6.948 -1.6580 -1.8355 -0.7226
 3823TIP3    H233105   3.563   6.255   6.996  0.6305 -0.0436 -2.2487
 3824TIP3   OH233106   2.941   0.582   1.693 -0.1378 -0.3783 -0.0826
 3824TIP3    H133107   2.980   0.540   1.769 -1.1491  0.5837  1.0052
 3824TIP3    H233108   2.984   0.668   1.689  0.4170 -0.6771 -1.0479
 3825TIP3   OH233109   4.875   2.122   8.139  0.6442  0.1013  0.3393
 3825TIP3    H133110   4.950   2.177   8.160  1.6482 -0.4686 -1.5270
 3825TIP3    H233111   4.820   2.176   8.083  1.3309 -0.5358 -0.9979
 3826TIP3   OH233112   6.010   5.541   1.578 -0.1550  0.3012  0.3898
 3826TIP3    H133113   6.030   5.447   1.582 -1.5169 -0.0182  0.2008
 3826TIP3    H233114   5.985   5.564   1.668 -0.4037  0.3456  0.3090
 3827TIP3   OH233115   5.664   6.299   1.242  0.7031  0.1629  0.1760
 3827TIP3    H133116   5.584   6.249   1.252  0.4524  0.4048 -0.5323
 3827TIP3    H233117   5.635   6.384   1.208  1.0977  0.8544  1.5070
 3828TIP3   OH233118   2.867   3.790   0.918 -0.8136  0.1629 -0.6861
 3828TIP3    H133119   2.772   3.790   0.911 -0.7866 -1.0051 -1.2165
 3828TIP3    H233120   2.889   3.711   0.966 -0.1529  0.9889  0.4153
 3829TIP3   OH233121   4.293   4.208   7.095  0.2367  0.2961 -0.6313
 3829TIP3    H133122   4.239   4.185   7.171  1.0600  2.5106  0.7142
 3829TIP3    H233123   4.302   4.125   7.047 -0.9375 -1.0262  1.2686
 3830TIP3   OH233124   1.301   5.092   6.988 -0.7174  0.1410  0.7877
 3830TIP3    H133125   1.281   5.120   7.078 -0.9048  1.2590  0.4066
 3830TIP3    H233126   1.299   5.172   6.937 -0.9154 -0.5306 -0.2852
 3831TIP3   OH233127   5.045   2.124   6.831 -0.4924  0.0939 -0.1698
 3831TIP3    H133128   5.068   2.166   6.748  0.8874  1.0975  0.6717
 3831TIP3    H233129   5.020   2.035   6.807  0.4762  0.1742 -1.6124
 3832TIP3   OH233130   4.881   4.030   1.566  0.2715  0.2375 -0.3347
 3832TIP3    H133131   4.932   4.048   1.487  1.6495 -0.2066  0.4127
 3832TIP3    H233132   4.939   3.977   1.620 -0.7849  0.2162  0.8205
 3833TIP3   OH233133   5.611   6.197   1.863  0.7673  0.2383 -0.1755
 3833TIP3    H133134   5.561   6.273   1.833 -0.0906 -1.0117 -2.0810
 3833TIP3    H233135   5.557   6.160   1.933 -1.6632 -1.6586 -2.8430
 3834TIP3   OH233136   0.160   6.577   1.000  0.4899 -0.1725  0.2075
 3834TIP3    H133137   0.100   6.506   1.024  0.9217 -0.4490  0.4767
 3834TIP3    H233138   0.194   6.608   1.084  0.6649  0.0377  0.0586
 3835TIP3   OH233139   2.548   3.590   7.145 -0.1611  0.4053 -0.4228
 3835TIP3    H133140   2.492   3.667   7.153 -0.4033  0.2303 -0.4193
 3835TIP3    H233141   2.506   3.523   7.199  0.8425  0.7055  0.7775
 3836TIP3   OH233142   3.682   0.574   1.644 -0.2967  0.3913  0.0530
 3836TIP3    H133143   3.738   0.651   1.652 -0.2946  0.6026 -1.6055
 3836TIP3    H233144   3.705   0.520   1.719  1.7187  0.7453 -0.2446
 3837TIP3   OH233145   3.223   0.379   1.604  0.0598  0.2935  0.2474
 3837TIP3    H133146   3.291   0.313   1.593 -0.2444 -0.4404  2.2168
 3837TIP3    H233147   3.261   0.442   1.665 -0.0726  1.3256 -0.7254
 3838TIP3   OH233148   0.149   6.153   7.518 -0.2879 -0.0518 -0.4084
 3838TIP3    H133149   0.111   6.161   7.606  2.5745 -0.0923  0.9474
 3838TIP3    H233150   0.210   6.226   7.513  2.1564 -2.0213 -0.9273
 3839TIP3   OH233151   5.815   2.760   6.728  0.1531  0.1271  0.1430
 3839TIP3    H133152   5.813   2.847   6.767 -0.4841 -0.0075  0.4226
 3839TIP3    H233153   5.725   2.728   6.734  0.1960 -0.2051 -0.7521
 3840TIP3   OH233154   6.420   6.800   8.614 -0.1566 -0.2132  0.5630
 3840TIP3    H133155   6.441   6.714   8.578 -0.2356  0.4552 -1.1629
 3840TIP3    H233156   6.446   6.862   8.546  0.8558  1.2207  2.1741
 3841TIP3   OH233157   6.539   5.008   6.692  0.0079 -0.2172  0.1481
 3841TIP3    H133158   6.488   4.972   6.619 -0.1797  0.5343 -0.0957
 3841TIP3    H233159   6.611   4.946   6.704  0.0743 -0.3140 -0.7172
 3842TIP3   OH233160   3.597   5.667   7.622 -0.9338 -0.1521  0.5549
 3842TIP3    H133161   3.655   5.641   7.693 -0.1074  1.8006  0.6635
 3842TIP3    H233162   3.545   5.739   7.659 -2.1466 -0.6440 -0.1205
 3843TIP3   OH233163   3.516   2.648   0.893  0.0226  0.3425  0.2307
 3843TIP3    H133164   3.489   2.723   0.839  0.4072 -0.2983 -0.8844
 3843TIP3    H233165   3.608   2.633   0.868  0.9856  1.4699  2.7613
 3844TIP3   OH233166   5.171   1.844   7.025 -0.0094  0.2699  1.0284
 3844TIP3    H133167   5.163   1.777   6.957  1.6447  0.2481  0.8283
 3844TIP3    H233168   5.260   1.835   7.059  0.3075  2.3986  0.9307
 3845TIP3   OH233169   3.316   0.598   0.782 -0.5102  0.2350  0.4703
 3845TIP3    H133170   3.236   0.647   0.801 -1.5646 -0.6328 -1.5226
 3845TIP3    H233171   3.311   0.521   0.837 -1.0478  0.1876  0.3593
 3846TIP3   OH233172   1.036   3.737   2.590 -0.3737  0.5768 -0.0138
 3846TIP3    H133173   1.119   3.697   2.565  0.0971  1.1587  0.5839
 3846TIP3    H233174   0.969   3.677   2.556  0.2755  0.3277 -0.8788
 3847TIP3   OH233175   5.499   2.422   8.594  0.3957 -0.0382  0.2664
 3847TIP3    H133176   5.447   2.356   8.641  1.8379 -0.1238  1.8528
 3847TIP3    H233177   5.502   2.497   8.654  1.3680  0.2713 -0.1550
 3848TIP3   OH233178   6.144   4.559   1.192  0.0728 -0.3074  0.0695
 3848TIP3    H133179   6.059   4.543   1.234 -0.0558  1.0394  0.3715
 3848TIP3    H233180   6.153   4.654   1.192  2.0705 -0.4493  0.9780
 3849TIP3   OH233181   6.485   5.541   7.032 -0.2571  0.3034 -0.3421
 3849TIP3    H133182   6.482   5.623   7.082  1.8894  0.9789 -1.2096
 3849TIP3    H233183   6.435   5.479   7.086 -1.3061  1.9705  0.7021
 3850TIP3   OH233184   2.118   2.044   2.061 -0.4703  0.0770  0.2709
 3850TIP3    H133185   2.127   2.031   1.967 -1.3683 -1.1121  0.3268
 3850TIP3    H233186   2.024   2.043   2.077 -0.3385 -2.9297  1.5474
 3851TIP3   OH233187   5.712   0.030   1.556  0.0130 -0.0634  0.3683
 3851TIP3    H133188   5.707   0.031   1.652  0.3839 -2.9183  0.5061
 3851TIP3    H233189   5.625   0.001   1.528 -0.6427  2.3331 -0.3395
 3852TIP3   OH233190   4.040   4.301   0.982  0.5250 -0.5434 -0.2510
 3852TIP3    H133191   4.091   4.228   0.945  1.8980  0.3830 -0.2836
 3852TIP3    H233192   3.972   4.318   0.918 -0.8597 -2.8307  0.5065
 3853TIP3   OH233193   6.080   0.206   1.895  0.0580 -0.0986  0.5654
 3853TIP3    H133194   6.042   0.282   1.852  2.0650  1.5900  1.6156
 3853TIP3    H233195   6.018   0.186   1.966 -0.3537  0.7408  0.4588
 3854TIP3   OH233196   1.636   5.961   8.517  0.4632 -0.3056  0.4542
 3854TIP3    H133197   1.691   5.891   8.483  1.6624  0.6858  0.2572
 3854TIP3    H233198   1.690   6.040   8.507 -0.6181  0.5535  1.1997
 3855TIP3   OH233199   5.499   2.679   2.514  0.1197  0.4782  0.2985
 3855TIP3    H133200   5.513   2.592   2.550 -0.6466  0.7662  1.3457
 3855TIP3    H233201   5.506   2.738   2.590  0.4217  1.3120 -0.3535
 3856TIP3   OH233202   0.460   4.593   7.819 -0.5288 -0.3211  0.4556
 3856TIP3    H133203   0.367   4.591   7.796 -0.8755  1.3209  1.5687
 3856TIP3    H233204   0.504   4.559   7.741 -1.9888  0.1186 -0.6128
 3857TIP3   OH233205   3.637   2.370   7.324 -0.2929 -0.6141  0.8032
 3857TIP3    H133206   3.565   2.418   7.365  0.7959  1.3490  0.4974
 3857TIP3    H233207   3.625   2.384   7.231  0.0030 -1.0109  0.7034
 3858TIP3   OH233208   6.517   4.653   7.126  0.5904  0.1305 -0.2641
 3858TIP3    H133209   6.491   4.738   7.090 -1.1257 -0.8802 -1.5775
 3858TIP3    H233210   6.608   4.643   7.098  1.4429  2.2744  1.4755
 3859TIP3   OH233211   3.875   0.971   1.872 -0.1536  0.1048  0.0311
 3859TIP3    H133212   3.842   0.958   1.961  1.8418  0.8112  0.9364
 3859TIP3    H233213   3.955   1.022   1.883  1.3468 -1.6055 -1.9723
 3860TIP3   OH233214   0.783   6.345   1.205 -0.1375 -0.6645  0.1605
 3860TIP3    H133215   0.737   6.326   1.123 -0.3413 -2.0612  0.5601
 3860TIP3    H233216   0.773   6.264   1.257 -1.4963  0.7362  2.2705
 3861TIP3   OH233217   0.518   2.704   8.173 -0.0284 -0.3272  0.0650
 3861TIP3    H133218   0.551   2.621   8.139  2.0225 -0.6015  2.4994
 3861TIP3    H233219   0.572   2.771   8.130  1.5872 -0.5940  1.5688
 3862TIP3   OH233220   0.217   0.381   0.540 -1.0037  0.0025  0.5627
 3862TIP3    H133221   0.123   0.394   0.527 -1.4307 -0.0944  3.0372
 3862TIP3    H233222   0.225   0.293   0.576  0.1282 -0.2477 -0.2386
 3863TIP3   OH233223   2.409   6.768   0.890  0.2130 -0.0351 -0.2178
 3863TIP3    H133224   2.324   6.723   0.884 -1.0946  2.1094  0.8168
 3863TIP3    H233225   2.428   6.771   0.983  0.5906  0.9218 -0.3166
 3864TIP3   OH233226   6.671   5.899   0.551  0.2668 -0.1053 -0.1155
 3864TIP3    H133227   6.613   5.975   0.545 -0.3798 -0.5561  0.3167
 3864TIP3    H233228   6.632   5.834   0.493 -1.6874 -1.6809  2.7051
 3865TIP3   OH233229   1.578   3.667   7.575 -0.1982 -0.2915 -0.5664
 3865TIP3    H133230   1.620   3.673   7.490 -0.9047 -0.7188 -0.9561
 3865TIP3    H233231   1.622   3.733   7.629  1.1318 -0.9054 -0.8747
 3866TIP3   OH233232   3.304   2.425   1.745  0.0612  0.3117  0.0676
 3866TIP3    H133233   3.281   2.457   1.658 -1.5515  1.1712  0.7690
 3866TIP3    H233234   3.254   2.480   1.805 -0.4015 -1.5540  1.4643
 3867TIP3   OH233235   1.241   0.606   0.156 -0.1227 -0.3030  0.1523
 3867TIP3    H133236   1.157   0.592   0.113 -0.5341  0.2144  0.7734
 3867TIP3    H233237   1.232   0.689   0.201  0.0528 -1.1157  1.7705
 3868TIP3   OH233238   0.224   3.092   7.596 -0.4576 -0.6081 -0.5685
 3868TIP3    H133239   0.307   3.110   7.553 -0.4655  0.5724 -0.1081
 3868TIP3    H233240   0.246   3.083   7.689 -1.0552  1.4423 -0.1921
 3869TIP3   OH233241   4.658   3.091   1.451 -0.0935 -0.3597  0.1604
 3869TIP3    H133242   4.591   3.128   1.509  0.1233 -2.2564  1.7391
 3869TIP3    H233243   4.654   2.997   1.469  0.8079 -0.8737 -2.0964
 3870TIP3   OH233244   6.879   4.784   0.385 -0.2497  0.1870  0.4448
 3870TIP3    H133245   6.827   4.853   0.342 -2.3214 -0.2803  2.0318
 3870TIP3    H233246   6.873   4.709   0.326  1.2251  1.0086 -0.8333
 3871TIP3   OH233247   2.164   1.942   1.798 -0.2932 -0.2511  0.1111
 3871TIP3    H133248   2.079   1.973   1.766 -0.2134 -0.6802 -0.5195
 3871TIP3    H233249   2.157   1.847   1.798  1.1068 -0.4378 -2.5614
 3872TIP3   OH233250   0.769   2.511   1.013 -0.0168  0.6234 -0.0941
 3872TIP3    H133251   0.750   2.424   0.979 -1.1422  1.2128 -1.0705
 3872TIP3    H233252   0.751   2.505   1.107  0.6414 -0.3676 -0.0147
 3873TIP3   OH233253   0.709   2.736   7.429 -0.1097 -0.1036  0.2991
 3873TIP3    H133254   0.762   2.766   7.355 -0.7777  0.1319 -0.0858
 3873TIP3    H233255   0.631   2.791   7.428 -0.1266 -0.0901  1.1859
 3874TIP3   OH233256   2.880   6.789   1.534 -0.1115  0.3940 -0.0055
 3874TIP3    H133257   2.823   6.736   1.590 -0.5420 -0.0056 -0.8057
 3874TIP3    H233258   2.964   6.743   1.533 -0.6718 -0.6705 -1.2229
 3875TIP3   OH233259   2.243   0.054   0.785 -0.0079  0.3091 -0.6163
 3875TIP3    H133260   2.198   0.044   0.868  1.7542  0.3140  0.3848
 3875TIP3    H233261   2.320  -0.002   0.792  1.5976  2.3292 -1.1531
 3876TIP3   OH233262   1.169   5.572   1.511  0.3193  0.1719 -0.0272
 3876TIP3    H133263   1.074   5.569   1.510  0.1079  2.4525  2.1296
 3876TIP3    H233264   1.190   5.649   1.564  3.3785  0.2087 -1.0757
 3877TIP3   OH233265   2.905   1.164   2.078 -0.8831  0.0139  0.1611
 3877TIP3    H133266   2.883   1.148   2.170 -2.6490  0.6565 -0.1140
 3877TIP3    H233267   2.861   1.094   2.030  1.5479 -1.4470 -0.1279
 3878TIP3   OH233268   2.965   3.954   2.432  0.4341 -0.2153 -0.0968
 3878TIP3    H133269   2.874   3.980   2.424  0.9267  1.4638 -0.6918
 3878TIP3    H233270   2.962   3.860   2.451 -1.4396  0.1400  1.6861
 3879TIP3   OH233271   0.969   4.444   1.319 -0.0589  0.7592  0.6570
 3879TIP3    H133272   0.936   4.382   1.384  0.6141  1.0715  1.3114
 3879TIP3    H233273   1.015   4.510   1.370 -0.3176  1.5217 -0.0715
 3880TIP3   OH233274   4.864   5.678   7.902  0.5051 -0.3990 -0.0050
 3880TIP3    H133275   4.940   5.729   7.875  0.5251 -0.9608 -1.0834
 3880TIP3    H233276   4.898   5.619   7.970  1.5575 -1.9986 -1.8000
 3881TIP3   OH233277   0.194   1.436   0.223  0.1365 -0.0563  0.7051
 3881TIP3    H133278   0.285   1.417   0.243 -0.3999 -3.7733  0.2224
 3881TIP3    H233279   0.147   1.412   0.303 -0.5069  1.5006  0.8309
 3882TIP3   OH233280   3.398   1.481   0.505  0.2687 -0.3181  0.5003
 3882TIP3    H133281   3.314   1.451   0.539 -1.0637  0.6591 -1.7601
 3882TIP3    H233282   3.415   1.563   0.551 -1.6720  1.1673 -1.3063
 3883TIP3   OH233283   0.755   4.757   2.017  0.2146  0.3106  0.1426
 3883TIP3    H133284   0.792   4.671   2.036  0.5268  0.2058 -0.8604
 3883TIP3    H233285   0.821   4.800   1.963  0.0066  1.1414  0.5311
 3884TIP3   OH233286   0.065   6.224   7.766 -0.4449  0.4328 -0.2755
 3884TIP3    H133287   0.024   6.151   7.813 -0.6138  0.1787 -0.8155
 3884TIP3    H233288   0.002   6.296   7.774 -0.1359  0.6254  0.5348
 3885TIP3   OH233289   4.599   2.384   1.227  0.8310 -0.0916 -0.3885
 3885TIP3    H133290   4.605   2.373   1.132 -1.1225 -1.5139 -0.4050
 3885TIP3    H233291   4.560   2.302   1.258  3.7865 -0.7892  1.9942
 3886TIP3   OH233292   1.574   3.281   7.309 -0.1514 -0.0358  0.2243
 3886TIP3    H133293   1.544   3.359   7.261  0.8977 -0.1085 -0.6029
 3886TIP3    H233294   1.507   3.266   7.376 -1.2731  0.5480 -0.7199
 3887TIP3   OH233295   6.033   6.324   0.653 -0.2823  0.6982 -0.9451
 3887TIP3    H133296   5.965   6.262   0.625 -0.1743 -0.5641  1.3535
 3887TIP3    H233297   6.097   6.270   0.699 -0.0613  2.4531  0.9587
 3888TIP3   OH233298   3.939   5.174   1.143  0.4726  0.8333  0.2044
 3888TIP3    H133299   3.906   5.144   1.228  1.5209  0.0446  0.3425
 3888TIP3    H233300   4.028   5.204   1.161  0.2308  1.9592 -0.3687
 3889TIP3   OH233301   0.038   1.573   0.805  0.0118 -0.5790 -0.5894
 3889TIP3    H133302   0.053   1.479   0.809 -1.0246 -0.7578 -0.6175
 3889TIP3    H233303  -0.009   1.593   0.886 -2.0978 -0.5523 -1.7514
 3890TIP3   OH233304   3.971   0.611   8.081 -0.0875  0.2118 -0.4291
 3890TIP3    H133305   4.063   0.598   8.101 -0.4694 -1.2847  0.5139
 3890TIP3    H233306   3.925   0.550   8.138 -1.5072 -0.9859 -2.6898
 3891TIP3   OH233307   3.157   5.648   6.467  0.4830  0.5315 -0.2162
 3891TIP3    H133308   3.087   5.708   6.444  0.4332  1.3670  1.9227
 3891TIP3    H233309   3.121   5.561   6.450 -0.5208  0.9944 -0.5171
 3892TIP3   OH233310   3.752   1.452   0.302 -0.4192  0.5958 -0.3346
 3892TIP3    H133311   3.826   1.489   0.254  1.0986 -0.7834  0.8219
 3892TIP3    H233312   3.686   1.521   0.301  0.9651  1.9806 -1.1938
 3893TIP3   OH233313   6.545   5.840   7.119 -0.2710  0.1456  0.2172
 3893TIP3    H133314   6.572   5.835   7.027  2.3986  0.2400  0.9092
 3893TIP3    H233315   6.531   5.934   7.135  0.7842  0.3062  0.2647
 3894TIP3   OH233316   1.025   5.634   0.855 -0.1423  0.3858 -0.3861
 3894TIP3    H133317   1.037   5.622   0.761 -0.1791  3.2578 -0.8329
 3894TIP3    H233318   0.933   5.660   0.864 -0.0265  0.5391  0.4045
 3895TIP3   OH233319   0.097   3.130   0.246  0.2013  0.1885  0.2779
 3895TIP3    H133320   0.030   3.196   0.229  1.0576  0.5489 -2.0563
 3895TIP3    H233321   0.069   3.088   0.327 -1.4348  2.0610  0.7615
 3896TIP3   OH233322   3.962   3.929   0.857  0.0413  0.1100 -0.0537
 3896TIP3    H133323   3.912   4.011   0.863 -2.5689 -1.3466 -0.6151
 3896TIP3    H233324   3.957   3.893   0.946 -0.3105 -0.2378 -0.2110
 3897TIP3   OH233325   0.456   4.978   1.796  0.2258  0.6655  0.0282
 3897TIP3    H133326   0.407   4.899   1.821  1.4198  0.6088  2.4625
 3897TIP3    H233327   0.391   5.033   1.752 -1.7764  0.1390  2.1234
 3898TIP3   OH233328   4.978   0.693   8.592 -0.4587  0.7386 -0.5544
 3898TIP3    H133329   5.027   0.637   8.531 -0.8590  0.1900 -0.3747
 3898TIP3    H233330   4.893   0.651   8.600  0.1103 -0.1485  1.6548
 3899TIP3   OH233331   6.267   1.591   6.996 -0.4929 -0.2629 -0.2456
 3899TIP3    H133332   6.181   1.563   6.964 -0.5529 -0.5670  0.1728
 3899TIP3    H233333   6.329   1.537   6.948 -0.6026 -1.0446  0.4577
 3900TIP3   OH233334   5.710   3.153   1.149 -0.0732 -0.2647 -0.3353
 3900TIP3    H133335   5.760   3.078   1.180 -1.3229 -1.0600 -0.1474
 3900TIP3    H233336   5.640   3.115   1.096 -1.1179  0.7124  0.2888
 3901TIP3   OH233337   0.043   4.488   1.384 -0.0271  0.2796 -0.3066
 3901TIP3    H133338   0.054   4.576   1.349  2.0356  0.4317  0.6013
 3901TIP3    H233339   0.012   4.436   1.310  1.8048  1.1087 -1.7124
 3902TIP3   OH233340   0.530   0.009   7.326  0.0987  0.4789 -0.4256
 3902TIP3    H133341   0.463  -0.047   7.365  0.5760  1.8349  2.6907
 3902TIP3    H233342   0.495   0.034   7.241 -2.4709 -0.3679  0.3113
 3903TIP3   OH233343   6.385   4.440   2.524  0.0299  0.2694  0.0639
 3903TIP3    H133344   6.397   4.421   2.617  0.2304 -0.4493 -0.0955
 3903TIP3    H233345   6.322   4.512   2.522 -0.5062 -0.1565  0.7392
 3904TIP3   OH233346   5.653   2.927   0.819  0.0202 -0.3303  0.6771
 3904TIP3    H133347   5.604   3.007   0.839  1.0370 -0.1606  2.8498
 3904TIP3    H233348   5.685   2.941   0.730 -1.0481  1.0298  0.4615
 3905TIP3   OH233349   2.672   5.927   0.807  0.1637  0.3782  0.0102
 3905TIP3    H133350   2.737   5.936   0.877  0.3605  0.2677 -0.1575
 3905TIP3    H233351   2.685   6.004   0.752 -0.3859  0.7687  0.4178
 3906TIP3   OH233352   5.367   5.092   8.355  0.2448 -0.3068 -0.1762
 3906TIP3    H133353   5.305   5.020   8.341  1.5722 -1.5339 -0.0108
 3906TIP3    H233354   5.429   5.057   8.419 -0.2153  1.7331  1.4867
 3907TIP3   OH233355   5.862   5.563   8.387  0.4570 -0.3212 -0.3017
 3907TIP3    H133356   5.873   5.470   8.368 -1.0901 -0.6007  0.0103
 3907TIP3    H233357   5.799   5.594   8.322  0.3877  0.3275  0.0613
 3908TIP3   OH233358   3.848   5.121   7.954 -0.2554 -0.0508  0.2381
 3908TIP3    H133359   3.805   5.178   8.018 -0.1059  0.3903 -0.0468
 3908TIP3    H233360   3.775   5.077   7.909 -0.5433  1.7880 -1.2601
 3909TIP3   OH233361   3.864   1.018   0.211 -0.2994  0.1604  0.2074
 3909TIP3    H133362   3.852   1.069   0.131  1.4089  0.5596  0.1796
 3909TIP3    H233363   3.887   0.930   0.181 -1.6463 -0.2447  0.2752
 3910TIP3   OH233364   6.889   3.316   8.592  0.2203  0.6657 -0.8486
 3910TIP3    H133365   6.804   3.283   8.620  0.8897 -1.0109 -0.6934
 3910TIP3    H233366   6.928   3.244   8.542  1.5105  1.4334 -1.0018
 3911TIP3   OH233367   4.046   5.466   2.201 -0.4396 -0.0436  0.1680
 3911TIP3    H133368   4.086   5.490   2.285 -0.4204  1.2634 -0.1940
 3911TIP3    H233369   3.966   5.419   2.225 -0.4648  0.3662  0.9125
 3912TIP3   OH233370   2.806   6.458   1.505  0.1150 -0.1439 -0.5024
 3912TIP3    H133371   2.889   6.488   1.541  0.7510 -2.3281 -0.0384
 3912TIP3    H233372   2.741   6.514   1.548  1.1671  0.0602  0.9162
 3913TIP3   OH233373   3.423   4.609   7.705  0.2038  0.2751  0.5484
 3913TIP3    H133374   3.465   4.671   7.644 -0.5612  1.1460  0.8730
 3913TIP3    H233375   3.441   4.645   7.792  0.6625 -0.5562  0.7989
 3914TIP3   OH233376   1.706   5.150   6.555 -0.3496 -0.2855  0.2493
 3914TIP3    H133377   1.700   5.066   6.599  1.0186  0.3842  1.8718
 3914TIP3    H233378   1.774   5.138   6.488 -1.8707 -1.0915 -1.1999
 3915TIP3   OH233379   6.811   1.185   6.908  0.3541 -0.7487 -0.5457
 3915TIP3    H133380   6.877   1.232   6.959 -0.7087  0.4300 -0.2158
 3915TIP3    H233381   6.840   1.094   6.910  1.0477 -0.5236  1.0521
 3916TIP3   OH233382   1.039   2.502   0.689 -0.3286  0.1970  0.0322
 3916TIP3    H133383   0.970   2.552   0.644  0.2967  1.3098  0.2731
 3916TIP3    H233384   1.119   2.525   0.643 -0.1354 -1.3010 -0.4114
 3917TIP3   OH233385   1.781   5.369   1.208  0.3655 -0.6405 -0.2489
 3917TIP3    H133386   1.793   5.370   1.113 -0.1856  2.2400 -0.3718
 3917TIP3    H233387   1.852   5.424   1.242 -1.2025  0.9151  0.6806
 3918TIP3   OH233388   2.648   6.637   1.669 -0.1782  0.5945  0.1289
 3918TIP3    H133389   2.562   6.652   1.630 -0.0227 -0.0823 -0.4802
 3918TIP3    H233390   2.633   6.650   1.763 -0.4783  2.5754 -0.1379
 3919TIP3   OH233391   1.663   4.353   8.385 -0.4378 -0.5404  0.1483
 3919TIP3    H133392   1.697   4.426   8.334 -1.4493 -1.8100 -2.5451
 3919TIP3    H233393   1.709   4.276   8.350 -1.7745 -1.5791  0.5807
 3920TIP3   OH233394   5.050   1.451   0.579  0.8573  0.2068  0.1014
 3920TIP3    H133395   4.994   1.513   0.533 -0.1735 -0.1900  0.7852
 3920TIP3    H233396   5.093   1.400   0.510 -0.7144 -0.4420 -0.4407
 3921TIP3   OH233397   5.053   3.623   8.336  0.4145 -0.4579  0.4443
 3921TIP3    H133398   5.036   3.543   8.287  2.3492 -0.7010  0.0744
 3921TIP3    H233399   5.141   3.611   8.371  1.0043  1.7542 -0.1292
 3922TIP3   OH233400   3.859   2.838   6.630 -0.0404  0.2245 -0.3713
 3922TIP3    H133401   3.924   2.769   6.645 -2.1828 -2.0038 -0.8224
 3922TIP3    H233402   3.891   2.884   6.552  0.6383 -1.2839 -1.0209
 3923TIP3   OH233403   0.704   2.662   0.798 -0.0298 -0.0712 -0.4412
 3923TIP3    H133404   0.722   2.608   0.875  0.4242  2.0976  1.0711
 3923TIP3    H233405   0.612   2.646   0.779  0.0229 -1.1495  0.1199
 3924TIP3   OH233406   0.448   1.443   6.655  0.2529  0.4337  0.2572
 3924TIP3    H133407   0.506   1.437   6.579  0.7027  0.2355  0.6122
 3924TIP3    H233408   0.507   1.451   6.730 -0.1901  0.7791  0.5737
 3925TIP3   OH233409   2.735   4.928   8.001  0.5872  0.0098 -0.2533
 3925TIP3    H133410   2.654   4.915   8.050  0.9596  2.4244  1.1555
 3925TIP3    H233411   2.805   4.910   8.064  1.2176 -1.7673 -1.3738
 3926TIP3   OH233412   2.593   3.377   6.955  0.6009 -0.5991  0.9579
 3926TIP3    H133413   2.538   3.298   6.948  0.0215 -0.1054 -0.2946
 3926TIP3    H233414   2.549   3.430   7.021  0.1687 -0.6831  0.7445
 3927TIP3   OH233415   1.419   2.683   2.743  0.2851  0.1461  0.7174
 3927TIP3    H133416   1.375   2.598   2.741 -0.0969  0.3342 -1.4088
 3927TIP3    H233417   1.363   2.737   2.799 -1.8682  0.1435 -1.2669
 3928TIP3   OH233418   6.820   6.206   2.776  0.2133  0.6093  0.3996
 3928TIP3    H133419   6.801   6.229   2.867  0.2507 -0.1998  0.6221
 3928TIP3    H233420   6.874   6.127   2.782  0.0745  0.4494 -0.3235
 3929TIP3   OH233421   4.318   5.750   6.018  0.4929 -0.2582 -0.0831
 3929TIP3    H133422   4.302   5.844   6.011  2.1051  0.1537  1.0729
 3929TIP3    H233423   4.246   5.718   6.073  0.1198  0.3437 -0.2056
 3930TIP3   OH233424   2.645   6.766   2.154 -0.2176 -0.0561  0.1797
 3930TIP3    H133425   2.611   6.850   2.123  1.7320  0.2779 -1.2131
 3930TIP3    H233426   2.629   6.768   2.249 -0.2134  1.8928  0.1842
 3931TIP3   OH233427   4.715   5.909   7.933  0.0214 -0.2336 -0.0089
 3931TIP3    H133428   4.657   5.884   7.861 -0.3770  1.8507 -0.4591
 3931TIP3    H233429   4.793   5.855   7.919  0.3740  0.7659 -2.6420
 3932TIP3   OH233430   5.861   2.483   7.841  0.2364 -0.8522 -0.2408
 3932TIP3    H133431   5.800   2.411   7.829  0.2823 -1.0307  0.5825
 3932TIP3    H233432   5.932   2.465   7.779 -0.0821 -1.1463 -0.5227
 3933TIP3   OH233433   1.267   2.373   0.493  0.2982 -0.0577  0.0590
 3933TIP3    H133434   1.243   2.297   0.546 -1.5574  0.1442 -0.4283
 3933TIP3    H233435   1.267   2.446   0.555  1.5815 -0.3458  0.4274
 3934TIP3   OH233436   6.358   6.886   0.222  0.3164  0.2146 -0.2923
 3934TIP3    H133437   6.402   6.839   0.151  1.4086  0.1529  0.4082
 3934TIP3    H233438   6.299   6.821   0.261  1.0916 -0.2957  0.0439
 3935TIP3   OH233439   3.199   2.165   8.545 -0.4241  0.0452  0.0080
 3935TIP3    H133440   3.260   2.239   8.552  0.5571 -0.6804 -0.5347
 3935TIP3    H233441   3.120   2.202   8.507  0.0887  0.7991 -0.3455
 3936TIP3   OH233442   3.692   4.101   1.267 -0.5828  0.0855 -0.3323
 3936TIP3    H133443   3.679   4.059   1.182 -0.2809  1.7276 -1.2371
 3936TIP3    H233444   3.774   4.149   1.257  1.8965 -3.0793  2.3458
 3937TIP3   OH233445   5.670   0.182   0.248 -0.1861 -0.8833  0.0429
 3937TIP3    H133446   5.579   0.156   0.262 -0.2814 -0.8985 -0.5754
 3937TIP3    H233447   5.711   0.105   0.208 -0.0428 -0.6735 -0.2146
 3938TIP3   OH233448   1.829   1.575   1.390 -0.3069  0.3964 -0.1941
 3938TIP3    H133449   1.784   1.649   1.431 -1.6105 -0.3320 -0.2779
 3938TIP3    H233450   1.874   1.613   1.314 -0.9319  1.1151 -0.2154
 3939TIP3   OH233451   4.778   3.201   1.803 -0.2368 -0.0164  0.1309
 3939TIP3    H133452   4.823   3.283   1.779 -0.5657 -0.1804 -1.1150
 3939TIP3    H233453   4.849   3.138   1.815 -0.0888 -0.4013 -2.3183
 3940TIP3   OH233454   4.915   4.920   8.602 -0.5353  0.2877 -0.0550
 3940TIP3    H133455   4.919   4.864   8.525  0.4438  1.3490 -0.8171
 3940TIP3    H233456   4.822   4.932   8.619 -0.7558 -1.2795 -0.0657
 3941TIP3   OH233457   4.685   5.153   2.076 -0.1424 -0.1989 -0.3127
 3941TIP3    H133458   4.591   5.134   2.085 -0.2652  0.5359  0.0354
 3941TIP3    H233459   4.717   5.156   2.166  0.0357  0.3981 -0.3916
 3942TIP3   OH233460   1.373   4.546   1.554  0.2325 -0.3403 -0.1328
 3942TIP3    H133461   1.348   4.626   1.508 -1.9820 -0.3763  0.8614
 3942TIP3    H233462   1.334   4.476   1.503 -0.3201 -0.5432  0.5488
 3943TIP3   OH233463   3.845   5.271   0.755 -0.0952 -0.1668  0.2391
 3943TIP3    H133464   3.761   5.236   0.724  0.1114 -0.3249 -0.1601
 3943TIP3    H233465   3.880   5.318   0.679 -0.0515  0.3250  0.5598
 3944TIP3   OH233466   4.582   3.495   2.692  0.2067 -0.2310 -0.5520
 3944TIP3    H133467   4.597   3.422   2.632  0.7238  1.4628 -2.6267
 3944TIP3    H233468   4.500   3.474   2.736  0.0187 -1.7490 -1.5547
 3945TIP3   OH233469   5.392   2.034   7.200 -0.1976  0.0307  1.0010
 3945TIP3    H133470   5.313   2.082   7.174  0.3194  0.2438 -0.2730
 3945TIP3    H233471   5.462   2.100   7.196  0.0462 -0.1366  2.1777
 3946TIP3   OH233472   0.612   4.028   7.771  0.5498 -0.0124 -0.3442
 3946TIP3    H133473   0.568   3.971   7.708 -0.2955  1.6216 -1.3041
 3946TIP3    H233474   0.562   4.016   7.852 -0.6172  0.4985 -0.9534
 3947TIP3   OH233475   4.590   6.912   7.051  0.0113 -0.4041  0.3486
 3947TIP3    H133476   4.561   6.953   6.970  2.2565 -0.6850 -0.6951
 3947TIP3    H233477   4.571   6.977   7.120  1.1225  1.3184 -0.8899
 3948TIP3   OH233478   5.890   1.165   1.889 -0.1216  0.3160  0.2718
 3948TIP3    H133479   5.973   1.120   1.870 -1.8021 -2.7225 -0.4945
 3948TIP3    H233480   5.842   1.163   1.807 -1.4182  1.0102  0.9791
 3949TIP3   OH233481   1.503   6.625   7.025  0.0177 -0.7851 -0.5348
 3949TIP3    H133482   1.490   6.602   6.933 -0.1573 -1.1931 -0.4079
 3949TIP3    H233483   1.544   6.712   7.022 -0.4130 -0.5912 -0.9888
 3950TIP3   OH233484   3.503   5.136   7.749 -0.0975  0.1411 -0.4822
 3950TIP3    H133485   3.524   5.146   7.656 -2.8767  0.7847 -1.1437
 3950TIP3    H233486   3.494   5.226   7.781  1.1328 -0.0742  0.5089
 3951TIP3   OH233487   4.254   2.860   0.772 -0.6793  0.8289  0.1602
 3951TIP3    H133488   4.327   2.920   0.787 -0.4459  0.8194 -0.8551
 3951TIP3    H233489   4.218   2.888   0.687 -0.8657 -0.1621 -0.0919
 3952TIP3   OH233490   1.325   5.453   1.711  0.1859 -0.6739 -0.4572
 3952TIP3    H133491   1.296   5.521   1.651 -0.8916 -0.6788  0.0414
 3952TIP3    H233492   1.253   5.390   1.714 -0.0412 -0.3852  1.2486
 3953TIP3   OH233493   4.352   6.386   1.124  0.4112 -0.2510  0.4771
 3953TIP3    H133494   4.334   6.479   1.138  0.3009  0.4528 -3.1437
 3953TIP3    H233495   4.266   6.347   1.109  0.6323 -0.1197 -1.4507
 3954TIP3   OH233496   5.853   1.856   0.756 -0.2037 -0.2867  0.5833
 3954TIP3    H133497   5.825   1.939   0.715 -0.7254 -0.5593  0.3713
 3954TIP3    H233498   5.948   1.860   0.755 -0.1814 -0.3934 -0.9200
 3955TIP3   OH233499   2.070   3.389   6.641 -0.0025  0.1357 -0.3681
 3955TIP3    H133500   2.130   3.402   6.567 -0.6215  0.1633 -0.8735
 3955TIP3    H233501   1.983   3.397   6.603 -0.3637  2.5473  0.7795
 3956TIP3   OH233502   1.496   5.192   0.877 -0.0442  0.5447  0.8707
 3956TIP3    H133503   1.485   5.286   0.865 -0.1575  0.4189 -0.0485
 3956TIP3    H233504   1.416   5.164   0.921 -0.1486  0.8176  0.8536
 3957TIP3   OH233505   4.330   4.231   6.693 -0.5237  0.1164  0.3128
 3957TIP3    H133506   4.381   4.273   6.762  0.3403  0.4373 -0.4962
 3957TIP3    H233507   4.390   4.225   6.619 -1.3883 -0.3378 -0.3725
 3958TIP3   OH233508   4.635   0.963   2.618  0.3112 -0.0353  0.0417
 3958TIP3    H133509   4.691   0.968   2.540 -2.1734 -0.5477 -1.9176
 3958TIP3    H233510   4.634   1.053   2.652 -0.8549  0.9300 -2.3181
 3959TIP3   OH233511   6.776   2.752   2.381 -0.0285  0.2543  0.1520
 3959TIP3    H133512   6.858   2.711   2.353 -0.3050  0.2980 -0.7563
 3959TIP3    H233513   6.803   2.824   2.437  0.5642  0.3395 -0.2327
 3960TIP3   OH233514   3.145   2.979   8.536  0.2514 -0.2168  0.0279
 3960TIP3    H133515   3.159   3.062   8.491 -0.9093 -0.4829 -0.8855
 3960TIP3    H233516   3.134   3.003   8.628  2.5465  0.3506  0.2063
 3961TIP3   OH233517   3.304   1.913   2.423  0.3053  0.0725 -0.1989
 3961TIP3    H133518   3.330   1.949   2.508  0.1201  1.3845 -0.6805
 3961TIP3    H233519   3.383   1.917   2.370  0.5710 -1.2689  0.0516
 3962TIP3   OH233520   1.451   0.093   0.655 -0.0867 -0.1676  0.0866
 3962TIP3    H133521   1.544   0.099   0.634 -0.1053 -0.8167 -0.1949
 3962TIP3    H233522   1.448   0.098   0.751  0.2659 -0.4252  0.1140
 3963TIP3   OH233523   3.016   1.674   2.682 -0.4521 -0.2272  0.0670
 3963TIP3    H133524   2.992   1.607   2.745 -0.0082 -1.4887 -1.0465
 3963TIP3    H233525   2.937   1.725   2.669 -0.2155  0.9165  2.5913
 3964TIP3   OH233526   3.420   3.450   1.448  0.0060  0.6150  0.3006
 3964TIP3    H133527   3.363   3.431   1.374  0.8570 -3.0018  0.4145
 3964TIP3    H233528   3.483   3.513   1.413 -1.6627  1.7058 -0.9364
 3965TIP3   OH233529   2.712   4.358   7.812  0.0032  0.1862 -0.1496
 3965TIP3    H133530   2.691   4.409   7.734 -0.2723  1.4202  0.6972
 3965TIP3    H233531   2.807   4.342   7.805 -0.1041 -0.1463 -0.9624
 3966TIP3   OH233532   0.126   1.054   1.369 -0.3977  0.5691 -0.0924
 3966TIP3    H133533   0.220   1.040   1.372 -0.4093  0.0138 -1.7732
 3966TIP3    H233534   0.089   0.970   1.344 -1.2156  1.1522 -0.9080
 3967TIP3   OH233535   0.285   6.254   0.409 -0.7128 -0.3167  0.0390
 3967TIP3    H133536   0.236   6.336   0.401 -0.8621 -0.1572  2.0462
 3967TIP3    H233537   0.280   6.232   0.502  0.0435 -2.1732 -0.3061
 3968TIP3   OH233538   0.263   5.871   0.544 -0.0708 -0.2847  0.3435
 3968TIP3    H133539   0.169   5.861   0.553 -0.2883 -1.2047 -2.1552
 3968TIP3    H233540   0.295   5.781   0.532  0.9534  0.1132  0.0010
 3969TIP3   OH233541   4.645   5.032   0.164  0.1219 -0.4604 -0.5570
 3969TIP3    H133542   4.664   4.964   0.100  0.2378  0.3619 -1.4225
 3969TIP3    H233543   4.552   5.052   0.150  0.8034  1.7800 -2.5845
 3970TIP3   OH233544   5.841   3.930   1.114  0.4037 -0.1739  0.0570
 3970TIP3    H133545   5.749   3.958   1.116  0.5773  0.3804  0.4631
 3970TIP3    H233546   5.845   3.860   1.179  0.5098  0.5775  0.8750
 3971TIP3   OH233547   0.451   0.035   2.548 -0.3471 -0.0820 -0.3594
 3971TIP3    H133548   0.416  -0.030   2.489 -0.6182 -1.2676  1.0491
 3971TIP3    H233549   0.377   0.060   2.604  0.5449 -1.2531  1.4391
 3972TIP3   OH233550   3.951   2.560   1.456  0.3655  0.3800 -0.2818
 3972TIP3    H133551   3.944   2.519   1.542  0.9346 -0.0999 -0.4557
 3972TIP3    H233552   3.866   2.601   1.441 -0.9882 -2.4463 -0.9502
 3973TIP3   OH233553   3.830   3.136   7.299  0.5912  0.9023  0.3453
 3973TIP3    H133554   3.815   3.069   7.233 -1.9525 -0.0196  1.7291
 3973TIP3    H233555   3.908   3.107   7.346 -0.7168 -1.3948  1.2052
 3974TIP3   OH233556   6.031   1.728   0.495 -0.0367 -0.3637 -0.4249
 3974TIP3    H133557   6.000   1.683   0.417  0.8049 -1.2073 -0.2952
 3974TIP3    H233558   6.020   1.664   0.565 -2.7019  1.0504  0.6032
 3975TIP3   OH233559   4.667   5.092   7.015 -0.2791  0.3436  0.0760
 3975TIP3    H133560   4.582   5.136   7.011 -0.1967  0.5981  0.9601
 3975TIP3    H233561   4.665   5.044   7.098  0.0800 -0.4196 -0.3409
 3976TIP3   OH233562   6.011   3.041   8.538 -0.4335 -0.4153  0.4486
 3976TIP3    H133563   6.040   3.116   8.487  0.0712 -1.7741 -1.3812
 3976TIP3    H233564   6.059   2.967   8.501 -3.0070 -2.0990  0.2049
 3977TIP3   OH233565   0.548   0.367   7.120  0.2508  0.5111 -0.3345
 3977TIP3    H133566   0.573   0.379   7.212  1.4284  1.2610 -0.7271
 3977TIP3    H233567   0.509   0.280   7.117  0.8574  0.1761  0.7555
 3978TIP3   OH233568   5.746   3.871   6.656 -0.1026 -0.3740 -0.2969
 3978TIP3    H133569   5.835   3.875   6.622  0.6570 -0.6084  1.5254
 3978TIP3    H233570   5.724   3.961   6.678  0.7142 -0.6015  1.6272
 3979TIP3   OH233571   5.287   0.906   8.531 -0.5366 -0.2349  0.1979
 3979TIP3    H133572   5.245   0.971   8.587  0.1772  0.6099 -0.2283
 3979TIP3    H233573   5.365   0.950   8.496 -0.4162 -1.0810 -0.6557
 3980TIP3   OH233574   5.704   1.116   1.069  0.0974  0.4120 -0.2644
 3980TIP3    H133575   5.739   1.028   1.051  2.3659  1.0024  0.8423
 3980TIP3    H233576   5.612   1.112   1.043  0.4022 -1.9888 -1.1761
 3981TIP3   OH233577   0.541   0.651   1.902 -0.0153 -0.8912 -0.7537
 3981TIP3    H133578   0.524   0.726   1.846  0.1681 -0.2568  0.0164
 3981TIP3    H233579   0.469   0.590   1.885 -0.3301 -0.4044 -1.1569
 3982TIP3   OH233580   6.286   3.245   7.098 -0.4764  0.7116 -0.0010
 3982TIP3    H133581   6.281   3.339   7.077 -2.6567  0.2357 -2.0334
 3982TIP3    H233582   6.196   3.213   7.088  0.3149 -1.7239  0.0295
 3983TIP3   OH233583   5.152   0.105   1.984  0.0770  0.4273 -0.7600
 3983TIP3    H133584   5.146   0.165   2.059 -1.4304  0.5300 -0.9448
 3983TIP3    H233585   5.216   0.146   1.926  0.9046  0.5926  0.2269
 3984TIP3   OH233586   5.270   0.436   7.210  0.8983 -0.0462 -0.2624
 3984TIP3    H133587   5.250   0.361   7.265  0.1849  0.6523  0.4675
 3984TIP3    H233588   5.202   0.435   7.143  0.8307 -0.0089 -0.1956
 3985TIP3   OH233589   5.415   5.459   7.313 -0.0667  0.0434  0.3777
 3985TIP3    H133590   5.333   5.469   7.361 -1.2361  0.0764 -1.5300
 3985TIP3    H233591   5.390   5.418   7.230  1.5734  1.6231 -1.0058
 3986TIP3   OH233592   2.271   3.134   2.181  0.2195 -0.3006  0.3860
 3986TIP3    H133593   2.180   3.163   2.192  0.2540 -0.6777  1.8161
 3986TIP3    H233594   2.287   3.077   2.256  1.0337 -1.8025 -0.8683
 3987TIP3   OH233595   1.444   4.840   7.040 -0.2359  0.1837 -0.3503
 3987TIP3    H133596   1.404   4.925   7.020  0.5142  0.7625  0.5567
 3987TIP3    H233597   1.427   4.788   6.961 -2.8134  0.3579 -0.0103
 3988TIP3   OH233598   3.525   5.963   7.373  0.3777  0.3639  0.2101
 3988TIP3    H133599   3.560   5.889   7.323  0.4452  0.8221 -0.4256
 3988TIP3    H233600   3.431   5.960   7.357  0.4030  0.5291  0.0271
 3989TIP3   OH233601   1.937   1.119   0.078  0.3710  0.0202  0.3202
 3989TIP3    H133602   1.972   1.137  -0.009  0.0939  2.5028  0.6474
 3989TIP3    H233603   1.997   1.054   0.115  1.2131 -0.1508 -1.2464
 3990TIP3   OH233604   2.675   3.285   0.613 -0.4916  0.1198 -0.1939
 3990TIP3    H133605   2.735   3.232   0.666 -0.0319  0.3654 -0.4644
 3990TIP3    H233606   2.648   3.228   0.542  1.5045  0.8063 -1.5893
 3991TIP3   OH233607   6.909   0.043   1.151 -0.2539 -0.1890 -0.0725
 3991TIP3    H133608   6.890   0.130   1.116 -1.0064 -1.0061 -1.8251
 3991TIP3    H233609   6.953  -0.002   1.080  1.4135 -0.8230  1.3117
 3992TIP3   OH233610   3.867   1.035   0.874  0.0580 -0.0413 -0.4800
 3992TIP3    H133611   3.793   1.094   0.890 -1.0306 -1.3997 -0.3510
 3992TIP3    H233612   3.924   1.048   0.950 -1.7813 -1.5159  1.2427
 3993TIP3   OH233613   6.682   4.813   6.413  0.5434 -0.8150 -0.0249
 3993TIP3    H133614   6.591   4.801   6.439  0.0288 -0.6839 -1.6302
 3993TIP3    H233615   6.681   4.800   6.318  2.2652 -1.1588 -0.0213
 3994TIP3   OH233616   2.859   4.311   8.447 -0.4033  0.1757  0.1684
 3994TIP3    H133617   2.810   4.231   8.429 -0.2279  0.6520 -3.2118
 3994TIP3    H233618   2.913   4.324   8.369  0.6399  2.8344  1.1906
 3995TIP3   OH233619   1.371   1.227   7.651  0.3142 -0.2325  0.3046
 3995TIP3    H133620   1.397   1.177   7.729  2.5807  2.1629  1.2351
 3995TIP3    H233621   1.397   1.171   7.578  1.3005 -1.1333  1.2920
 3996TIP3   OH233622   4.312   6.143   0.472 -0.0799  0.4794  0.5751
 3996TIP3    H133623   4.387   6.161   0.414  0.3707 -4.2790 -0.7655
 3996TIP3    H233624   4.350   6.135   0.559  0.7947 -0.5363  0.1221
 3997TIP3   OH233625   5.336   5.210   1.135 -0.5157  0.2970  0.1190
 3997TIP3    H133626   5.292   5.191   1.052 -1.8076  0.1863  0.8163
 3997TIP3    H233627   5.276   5.266   1.182 -0.3971 -0.7147  1.5370
 3998TIP3   OH233628   3.509   4.773   7.503  0.0888  0.0927  0.2760
 3998TIP3    H133629   3.591   4.783   7.455 -0.8698 -0.6253 -1.5933
 3998TIP3    H233630   3.458   4.711   7.451 -1.6004  0.4179  1.4647
 3999TIP3   OH233631   6.771   6.009   1.199  0.3474 -0.6575 -0.2479
 3999TIP3    H133632   6.866   6.020   1.200  0.1910  0.8170  0.4782
 3999TIP3    H233633   6.737   6.089   1.160 -0.5419 -2.0341 -2.5067
 4000TIP3   OH233634   5.725   3.129   6.557 -0.3162  0.0468  0.0220
 4000TIP3    H133635   5.809   3.168   6.580 -0.4758 -1.1994  3.2667
 4000TIP3    H233636   5.674   3.201   6.521  1.0972  1.6056  0.9898
 4001TIP3   OH233637   6.153   2.121   0.840  0.1108 -0.7268 -0.2244
 4001TIP3    H133638   6.239   2.099   0.875  0.0866 -0.6469 -0.1154
 4001TIP3    H233639   6.129   2.045   0.787  0.4226 -0.5801 -0.5806
 4002TIP3   OH233640   5.818   0.587   0.404 -0.5684 -0.2334  0.3213
 4002TIP3    H133641   5.824   0.678   0.433  0.2746 -0.5990  1.3552
 4002TIP3    H233642   5.845   0.535   0.480 -0.3556 -1.3139 -0.4626
 4003TIP3   OH233643   2.082   5.572   7.169  0.0851  0.4217  0.3772
 4003TIP3    H133644   2.104   5.521   7.247 -0.3552 -1.1587 -0.4941
 4003TIP3    H233645   2.082   5.508   7.097 -1.5566  1.4342 -0.5857
 4004TIP3   OH233646   0.888   1.404   1.946 -0.4839 -0.0097  0.0639
 4004TIP3    H133647   0.902   1.497   1.963  0.9025 -0.2933  0.6648
 4004TIP3    H233648   0.895   1.363   2.033  0.0570 -0.7821 -0.3287
 4005TIP3   OH233649   6.725   2.554   6.842 -0.0510  0.0379 -0.1821
 4005TIP3    H133650   6.715   2.459   6.832 -0.7353  0.3507 -3.1819
 4005TIP3    H233651   6.729   2.567   6.937 -4.1306 -2.5919  0.6015
 4006TIP3   OH233652   6.862   6.112   0.074 -0.1324 -0.5001 -0.2762
 4006TIP3    H133653   6.851   6.029   0.029 -0.6912 -0.9907  0.7465
 4006TIP3    H233654   6.919   6.163   0.016 -0.4179 -1.2960 -1.2817
 4007TIP3   OH233655   5.079   6.871   8.521 -0.1270 -0.3386 -0.0721
 4007TIP3    H133656   5.009   6.831   8.469 -0.8742 -0.3103  0.8992
 4007TIP3    H233657   5.059   6.847   8.611 -0.2211  1.6278  0.4762
 4008TIP3   OH233658   1.080   1.034   0.710  0.0061  0.5585  0.2221
 4008TIP3    H133659   0.989   1.012   0.733 -1.2301  1.5642 -3.0575
 4008TIP3    H233660   1.130   0.955   0.731 -2.0553 -0.8800  0.0602
 4009TIP3   OH233661   0.088   2.277   0.543  0.2939 -0.1488  0.0742
 4009TIP3    H133662   0.136   2.257   0.463  0.4221  0.4800 -0.0136
 4009TIP3    H233663   0.004   2.311   0.513  0.7190  1.0336  0.1736
 4010TIP3   OH233664   6.790   6.460   1.684  0.1882 -0.3075 -0.1237
 4010TIP3    H133665   6.795   6.555   1.670 -0.7435 -0.1974  0.2225
 4010TIP3    H233666   6.765   6.450   1.775  2.4458 -0.9535  0.5058
 4011TIP3   OH233667   0.607   0.042   8.525  0.2689  0.6117  0.0536
 4011TIP3    H133668   0.561   0.048   8.442 -2.0567 -0.6686  1.1425
 4011TIP3    H233669   0.700   0.045   8.502 -0.2141 -1.9921 -2.8055
 4012TIP3   OH233670   1.024   5.894   7.516  0.1328  0.2426  0.6556
 4012TIP3    H133671   1.012   5.956   7.588  1.2101  0.8756  0.3055
 4012TIP3    H233672   0.938   5.853   7.506 -0.7837  2.1082  0.4832
 4013TIP3   OH233673   1.678   1.463   1.794 -0.3150 -0.7105  0.0307
 4013TIP3    H133674   1.618   1.430   1.861 -1.5599 -0.8643 -1.1263
 4013TIP3    H233675   1.765   1.456   1.835 -1.0385 -0.6853  1.6594
 4014TIP3   OH233676   2.465   5.972   8.394 -0.1653  0.2865  0.2597
 4014TIP3    H133677   2.508   6.042   8.443 -1.2795 -0.8742  3.1158
 4014TIP3    H233678   2.389   5.949   8.446 -0.7962 -1.9131 -1.4579
 4015TIP3   OH233679   1.107   4.197   7.142  0.6782 -0.5221  0.2728
 4015TIP3    H133680   1.025   4.226   7.101  0.4879 -0.4197  0.7203
 4015TIP3    H233681   1.144   4.277   7.179  0.6267 -0.6885  0.6835
 4016TIP3   OH233682   0.007   2.146   8.326 -0.0797  0.1305 -0.2625
 4016TIP3    H133683   0.045   2.172   8.242  0.4357  0.5473  0.0960
 4016TIP3    H233684  -0.063   2.085   8.302 -0.7089  1.1440 -1.0562
 4017TIP3   OH233685   4.620   1.002   2.157  0.3717  0.1978 -0.4387
 4017TIP3    H133686   4.596   0.915   2.123 -0.5065  0.1826  0.1890
 4017TIP3    H233687   4.703   0.988   2.203  1.2618  0.0982 -2.0132
 4018TIP3   OH233688   3.404   1.020   2.597 -0.2069 -0.3914  0.3314
 4018TIP3    H133689   3.347   1.067   2.657 -0.9511  0.2646 -0.8452
 4018TIP3    H233690   3.458   1.088   2.556 -0.9292 -0.5871 -1.0092
 4019TIP3   OH233691   6.400   6.200   0.103 -0.5435  0.7674  0.1061
 4019TIP3    H133692   6.486   6.163   0.084 -0.1464  1.9167 -0.3957
 4019TIP3    H233693   6.404   6.225   0.195  0.2594  2.3458 -0.3332
 4020TIP3   OH233694   1.605   0.242   8.221  0.6660 -0.0768  0.3383
 4020TIP3    H133695   1.524   0.197   8.196  0.4389  1.1389 -1.2747
 4020TIP3    H233696   1.588   0.274   8.310 -0.4924 -0.1601  0.1692
 4021TIP3   OH233697   3.161   6.404   0.842  0.7622  0.0958  0.0016
 4021TIP3    H133698   3.152   6.317   0.881 -1.1834  0.3020  0.1232
 4021TIP3    H233699   3.186   6.387   0.751  0.3157 -0.5884 -0.0020
 4022TIP3   OH233700   2.156   2.254   1.489 -0.2066  0.4814 -0.9918
 4022TIP3    H133701   2.065   2.272   1.464 -0.4718 -1.1000 -1.2469
 4022TIP3    H233702   2.153   2.169   1.533  1.2994 -0.2182 -2.1313
 4023TIP3   OH233703   6.511   6.107   7.099 -0.4555  0.2805  0.3406
 4023TIP3    H133704   6.570   6.173   7.134 -0.2170  1.0023 -1.3309
 4023TIP3    H233705   6.478   6.145   7.018 -0.9796 -1.3058 -0.2257
 4024TIP3   OH233706   3.274   4.150   1.070 -0.3081  0.6935 -0.0001
 4024TIP3    H133707   3.245   4.197   0.991 -0.9317  0.7469  0.2558
 4024TIP3    H233708   3.286   4.060   1.041 -2.5238  0.2504  0.2631
 4025TIP3   OH233709   3.174   4.956   0.860 -0.2461 -0.1616 -0.0163
 4025TIP3    H133710   3.163   4.870   0.899 -0.1946  0.3520  1.1710
 4025TIP3    H233711   3.221   5.007   0.927  2.8815 -0.1793 -1.9809
 4026TIP3   OH233712   0.280   2.488   1.229  0.0812  0.0722 -0.0278
 4026TIP3    H133713   0.236   2.567   1.199 -2.0328  0.1594  2.8338
 4026TIP3    H233714   0.223   2.416   1.200  1.6485 -0.4300 -2.0446
 4027TIP3   OH233715   1.802   6.537   7.997  0.0678  0.6801  0.4830
 4027TIP3    H133716   1.894   6.551   7.971 -0.5670 -0.3440 -2.6957
 4027TIP3    H233717   1.795   6.443   8.010 -0.6981  0.6578 -0.0687
 4028TIP3   OH233718   0.388   0.709   8.511 -0.0704 -0.3626  0.1705
 4028TIP3    H133719   0.423   0.773   8.574 -0.0967  0.4981 -0.6607
 4028TIP3    H233720   0.397   0.625   8.555 -0.4658  0.2564  1.5008
 4029TIP3   OH233721   3.479   4.988   6.433  0.1613  0.3002  0.4396
 4029TIP3    H133722   3.566   4.954   6.455  0.2504  0.2634  0.0330
 4029TIP3    H233723   3.483   5.005   6.339 -0.4854 -0.3460  0.2854
 4030TIP3   OH233724   4.895   4.143   0.265 -0.0730  0.0878 -0.3491
 4030TIP3    H133725   4.858   4.129   0.177  0.1838 -1.2406 -0.2662
 4030TIP3    H233726   4.819   4.137   0.323 -0.3759  1.8297 -0.5325
 4031TIP3   OH233727   2.868   6.137   7.577 -0.5092  0.2011  0.7929
 4031TIP3    H133728   2.948   6.106   7.534 -1.0805 -1.1071  0.6220
 4031TIP3    H233729   2.801   6.134   7.508 -0.5357  2.2043  0.6750
 4032TIP3   OH233730   3.665   6.317   8.140  0.6171 -0.7061  0.0900
 4032TIP3    H133731   3.579   6.284   8.111  0.1276  0.9209 -0.4075
 4032TIP3    H233732   3.646   6.369   8.218  1.1852 -0.5011  0.0948
 4033TIP3   OH233733   6.233   3.925   0.800  0.6171 -0.4282  0.4083
 4033TIP3    H133734   6.232   3.939   0.894  1.7518  1.6775  0.1831
 4033TIP3    H233735   6.258   3.833   0.789  1.1188 -0.5297  2.1361
 4034TIP3   OH233736   6.635   2.922   7.447 -0.0485 -0.0817 -0.3160
 4034TIP3    H133737   6.591   2.959   7.370 -0.3524 -0.0951 -0.1538
 4034TIP3    H233738   6.570   2.862   7.484  0.4541 -0.8063 -0.5952
 4035TIP3   OH233739   0.739   0.196   0.574  0.1942  0.5210 -0.0601
 4035TIP3    H133740   0.769   0.105   0.580 -0.0774  0.5164  2.5147
 4035TIP3    H233741   0.818   0.246   0.557  0.5567 -0.0807 -0.1802
 4036TIP3   OH233742   0.551   5.965   1.613 -0.0561  0.6769 -0.1416
 4036TIP3    H133743   0.594   5.947   1.696 -3.0250  0.5396  1.5190
 4036TIP3    H233744   0.579   5.894   1.555 -0.9273 -1.5773  2.0243
 4037TIP3   OH233745   6.580   4.827   0.296 -0.0486 -0.4837 -0.5609
 4037TIP3    H133746   6.500   4.850   0.250  0.4960  1.0579 -0.8046
 4037TIP3    H233747   6.648   4.877   0.252  0.7676 -0.3339  0.8033
 4038TIP3   OH233748   4.648   2.488   2.091  0.9777 -0.6755 -0.1136
 4038TIP3    H133749   4.634   2.539   2.012  2.5167  0.1147  0.0998
 4038TIP3    H233750   4.588   2.527   2.155  1.0352 -0.1314 -0.3840
 4039TIP3   OH233751   3.248   3.192   1.616 -0.0484 -0.0974 -0.9624
 4039TIP3    H133752   3.188   3.255   1.577 -1.8830 -0.4070  1.1492
 4039TIP3    H233753   3.208   3.107   1.599  0.0350 -0.3522  0.0548
 4040TIP3   OH233754   6.017   4.479   8.203  0.4127 -0.5964  0.6810
 4040TIP3    H133755   6.030   4.552   8.264  0.2786 -1.5861  1.9276
 4040TIP3    H233756   5.932   4.496   8.164  0.6927  0.2826  0.4118
 4041TIP3   OH233757   4.799   2.768   2.415 -0.0135 -0.5254 -0.5165
 4041TIP3    H133758   4.779   2.858   2.441  2.0499 -0.6032  1.6527
 4041TIP3    H233759   4.722   2.718   2.443 -0.8307  0.4220 -0.9891
 4042TIP3   OH233760   6.757   1.928   8.301  0.2021  0.1471 -0.1285
 4042TIP3    H133761   6.721   1.909   8.215 -0.8274  0.0093  0.3153
 4042TIP3    H233762   6.682   1.922   8.360  0.5423  1.9158  0.5462
 4043TIP3   OH233763   6.787   0.601   7.559 -0.1769 -0.4042 -0.6607
 4043TIP3    H133764   6.773   0.652   7.639  1.7655 -0.2251 -0.3852
 4043TIP3    H233765   6.864   0.547   7.579 -0.1536 -0.9501 -2.1313
 4044TIP3   OH233766   5.064   5.385   8.260  0.0377  0.2713 -0.7991
 4044TIP3    H133767   5.005   5.342   8.322 -1.4310 -0.3039 -2.4788
 4044TIP3    H233768   5.149   5.386   8.303 -0.2749 -2.6539  0.0963
 4045TIP3   OH233769   6.069   3.335   7.383  0.0137  0.3778  0.2849
 4045TIP3    H133770   6.060   3.416   7.333  0.2576 -0.5932 -1.4088
 4045TIP3    H233771   6.160   3.308   7.369 -0.0730 -0.2149  0.8013
 4046TIP3   OH233772   5.396   1.863   0.129 -0.1009 -0.6085 -0.4977
 4046TIP3    H133773   5.308   1.887   0.158 -0.4946 -0.0149 -2.0835
 4046TIP3    H233774   5.419   1.787   0.183 -2.5504 -2.2763 -1.6531
 4047TIP3   OH233775   5.735   2.207   2.015 -0.4636  0.2671  0.0433
 4047TIP3    H133776   5.793   2.139   1.982 -0.6660 -0.3258  0.8596
 4047TIP3    H233777   5.772   2.289   1.981  0.6299 -0.1268  0.2315
 4048TIP3   OH233778   1.322   2.515   1.124 -0.1300 -0.4475  0.1267
 4048TIP3    H133779   1.244   2.537   1.073  0.1750 -1.0440 -0.6117
 4048TIP3    H233780   1.392   2.566   1.084 -0.1437  0.1436  0.8355
 4049TIP3   OH233781   1.318   5.097   0.121 -0.2684  0.5768 -0.5152
 4049TIP3    H133782   1.236   5.062   0.154 -0.4379  0.4431 -1.0816
 4049TIP3    H233783   1.344   5.162   0.187  0.7925 -1.5821  1.3244
 4050TIP3   OH233784   4.841   6.556   7.183 -0.3404  0.0696  0.4716
 4050TIP3    H133785   4.756   6.559   7.139 -1.4830  0.0043  2.5521
 4050TIP3    H233786   4.869   6.647   7.187 -1.0060  0.2532  1.0377
 4051TIP3   OH233787   6.204   2.768   7.799  0.0380  0.8409  0.6553
 4051TIP3    H133788   6.118   2.808   7.786 -1.0094 -1.3124  0.4094
 4051TIP3    H233789   6.262   2.814   7.739 -1.4342  0.9343 -0.7627
 4052TIP3   OH233790   4.285   6.662   0.916 -0.4701 -0.0528  0.1342
 4052TIP3    H133791   4.275   6.743   0.867 -0.9777  0.7869  1.5860
 4052TIP3    H233792   4.329   6.688   0.997 -2.0760 -0.9206  1.3490
 4053TIP3   OH233793   3.378   1.452   7.957  0.1999 -0.0987  0.1215
 4053TIP3    H133794   3.340   1.455   7.870  0.1168  1.8202  0.1880
 4053TIP3    H233795   3.428   1.370   7.959 -0.3555 -0.4991 -1.4722
 4054TIP3   OH233796   6.599   2.132   7.076 -0.0468 -0.2922 -0.2590
 4054TIP3    H133797   6.608   2.063   7.142  0.3885 -0.1737 -0.1880
 4054TIP3    H233798   6.594   2.084   6.993  2.2134 -0.3892 -0.4050
 4055TIP3   OH233799   0.889   3.118   1.165  0.1435  0.0808 -0.1038
 4055TIP3    H133800   0.891   3.077   1.079 -0.7350 -0.8219  0.2891
 4055TIP3    H233801   0.981   3.135   1.185  0.5171 -1.3275 -0.4711
 4056TIP3   OH233802   3.265   5.211   8.012 -1.0131 -0.1227 -0.0247
 4056TIP3    H133803   3.307   5.152   7.949 -0.8191  0.8455 -0.8430
 4056TIP3    H233804   3.261   5.295   7.966 -1.2041  0.5220  1.1356
 4057TIP3   OH233805   0.321   1.750   7.319 -0.6595  0.0875  0.2230
 4057TIP3    H133806   0.350   1.680   7.377  2.5419 -0.4058 -1.6930
 4057TIP3    H233807   0.298   1.823   7.377 -0.5172 -1.3150  2.1246
 4058TIP3   OH233808   0.185   2.112   0.299 -0.2530  0.2347  0.0058
 4058TIP3    H133809   0.142   2.085   0.219 -0.3240  1.5347 -0.4286
 4058TIP3    H233810   0.204   2.031   0.346  0.0764 -0.5559 -1.4637
 4059TIP3   OH233811   3.704   4.072   7.766 -0.2409 -0.2983 -0.4005
 4059TIP3    H133812   3.651   3.994   7.750 -0.5901 -0.1410 -0.0265
 4059TIP3    H233813   3.644   4.133   7.810  0.3445 -0.2483  0.3430
 4060TIP3   OH233814   2.292   5.376   0.315 -0.8594  0.0226 -0.3305
 4060TIP3    H133815   2.215   5.405   0.266 -0.8502 -0.9229 -0.9430
 4060TIP3    H233816   2.267   5.290   0.349 -0.4338  0.1561  0.3461
 4061TIP3   OH233817   4.047   6.359   7.315  0.6561 -0.1389 -0.0387
 4061TIP3    H133818   4.033   6.432   7.374 -0.7995  1.2136 -1.9218
 4061TIP3    H233819   4.140   6.364   7.291  0.3521  1.7977 -0.9570
 4062TIP3   OH233820   4.267   0.042   0.453  0.6052  1.0855 -0.1993
 4062TIP3    H133821   4.220  -0.019   0.396 -0.6743  0.9864  0.9116
 4062TIP3    H233822   4.315   0.099   0.393  2.2506 -1.2570 -1.2876
 4063TIP3   OH233823   2.969   4.433   0.692  0.3215  0.0460  0.3225
 4063TIP3    H133824   2.891   4.379   0.704 -0.2339  0.6583 -0.4128
 4063TIP3    H233825   2.983   4.435   0.597  1.9370 -1.0065  0.4820
 4064TIP3   OH233826   0.884   6.682   0.870 -0.0577  0.0807 -0.3052
 4064TIP3    H133827   0.869   6.727   0.953 -0.5529  0.3696 -0.5473
 4064TIP3    H233828   0.919   6.749   0.812 -1.9525  0.5034 -1.0396
 4065TIP3   OH233829   0.841   3.073   2.411  0.1929  0.2051  0.6066
 4065TIP3    H133830   0.922   3.121   2.429  0.6904 -0.2314 -0.3864
 4065TIP3    H233831   0.773   3.140   2.413  0.5572  0.5663  1.5316
 4066TIP3   OH233832   0.186   0.329   7.077 -0.0430  0.0809  0.3527
 4066TIP3    H133833   0.234   0.401   7.119 -0.0008  0.8081 -0.8862
 4066TIP3    H233834   0.115   0.309   7.138 -1.4932  2.7983 -0.2987
 4067TIP3   OH233835   6.240   3.502   1.461  0.0414 -0.4438  0.1320
 4067TIP3    H133836   6.190   3.464   1.388 -1.7308 -1.4420  1.7775
 4067TIP3    H233837   6.308   3.437   1.479  2.9063  1.4142 -2.8395
 4068TIP3   OH233838   0.884   5.691   8.294  0.5267 -0.0948  0.3357
 4068TIP3    H133839   0.807   5.667   8.345  0.0976 -1.6933 -0.9666
 4068TIP3    H233840   0.852   5.758   8.233  0.2384 -0.4553  0.0788
 4069TIP3   OH233841   4.165   1.657   7.173  0.4885  0.7141  0.3742
 4069TIP3    H133842   4.256   1.686   7.180  1.5015 -1.9446 -0.4340
 4069TIP3    H233843   4.166   1.568   7.208 -2.1904  1.1918  1.8840
 4070TIP3   OH233844   3.229   5.894   6.269 -0.5787 -0.2183 -0.1830
 4070TIP3    H133845   3.271   5.961   6.322 -0.2167 -0.3570 -0.2949
 4070TIP3    H233846   3.138   5.895   6.298 -0.5039  0.0893  0.0501
 4071TIP3   OH233847   1.876   0.335   7.486  0.1106 -0.3177  0.3321
 4071TIP3    H133848   1.820   0.348   7.409 -1.7425  2.4733  1.9638
 4071TIP3    H233849   1.857   0.245   7.514 -0.5661 -0.7556 -1.4205
 4072TIP3   OH233850   4.448   1.096   1.957 -0.0876  0.0216 -0.0068
 4072TIP3    H133851   4.504   1.060   2.027  1.8245 -0.6140 -1.7611
 4072TIP3    H233852   4.508   1.112   1.884 -2.1533 -0.2465 -1.8686
 4073TIP3   OH233853   5.453   5.642   1.587 -0.1271 -0.3822 -0.1969
 4073TIP3    H133854   5.394   5.618   1.659  0.1731 -0.7902 -0.0847
 4073TIP3    H233855   5.523   5.578   1.592  0.0142 -0.2656 -0.7130
 4074TIP3   OH233856   3.311   0.680   1.872  0.0191  0.5864 -0.2086
 4074TIP3    H133857   3.319   0.667   1.778 -0.1028  0.0439 -0.1484
 4074TIP3    H233858   3.386   0.634   1.909  0.1362  0.9041 -0.0476
 4075TIP3   OH233859   1.126   0.004   2.814 -0.1366 -0.3142 -0.2782
 4075TIP3    H133860   1.088   0.084   2.849 -1.2968 -1.6024  1.6005
 4075TIP3    H233861   1.087  -0.006   2.727  0.5061  1.4407 -0.7979
 4076TIP3   OH233862   5.931   2.661   8.556  0.0636 -0.4885 -0.1372
 4076TIP3    H133863   5.873   2.715   8.610 -0.4935 -0.1954 -1.0056
 4076TIP3    H233864   6.003   2.638   8.614 -0.6653 -0.4243  0.8111
 4077TIP3   OH233865   4.317   5.066   6.492  0.0932 -0.0068  0.4689
 4077TIP3    H133866   4.321   5.082   6.397 -0.0705 -0.7236  0.3305
 4077TIP3    H233867   4.356   4.979   6.503 -2.1837 -1.0908  0.7157
 4078TIP3   OH233868   5.517   4.167   0.849 -0.3731  0.3565 -0.0111
 4078TIP3    H133869   5.476   4.098   0.795 -1.0407  0.7406 -0.0056
 4078TIP3    H233870   5.445   4.226   0.870  0.8414  3.5690 -3.6990
 4079TIP3   OH233871   0.924   5.464   0.337 -0.5225  0.8710  0.0873
 4079TIP3    H133872   0.956   5.419   0.258 -3.2904  0.8738 -1.1609
 4079TIP3    H233873   0.845   5.415   0.362  0.0166  1.1766  2.6188
 4080TIP3   OH233874   2.290   6.754   7.260 -0.2979  0.8652  0.0657
 4080TIP3    H133875   2.330   6.672   7.288  0.1544  1.0721  0.0426
 4080TIP3    H233876   2.361   6.803   7.220 -0.8065  0.8358 -0.8903
 4081TIP3   OH233877   3.278   5.512   7.570  0.1476 -0.0414 -0.7201
 4081TIP3    H133878   3.306   5.602   7.588 -0.8492  0.3456 -1.0681
 4081TIP3    H233879   3.206   5.521   7.508 -3.2389 -0.7452  2.7298
 4082TIP3   OH233880   4.386   6.418   7.804 -0.5397  0.0137 -0.1025
 4082TIP3    H133881   4.473   6.411   7.764  0.0448  0.7686  0.9969
 4082TIP3    H233882   4.375   6.337   7.854  0.2965  0.6814  1.2000
 4083TIP3   OH233883   6.163   0.950   2.297  0.1289  0.2509 -0.1495
 4083TIP3    H133884   6.239   0.901   2.327 -0.6955 -1.8872 -1.3392
 4083TIP3    H233885   6.192   0.995   2.218 -0.1417 -1.7155 -1.4307
 4084TIP3   OH233886   0.455   6.791   0.281 -0.4131  0.3972 -0.3044
 4084TIP3    H133887   0.455   6.838   0.364 -2.3047 -1.1858  0.6863
 4084TIP3    H233888   0.459   6.698   0.306  1.4097 -0.0762 -2.1052
 4085TIP3   OH233889   2.297   1.257   1.143 -0.1045 -0.6543  0.6063
 4085TIP3    H133890   2.295   1.165   1.170 -0.1626 -0.4840  1.1988
 4085TIP3    H233891   2.318   1.254   1.050 -0.2846 -1.2753  0.5792
 4086TIP3   OH233892   1.555   1.322   1.372  0.1465 -0.5386  0.2671
 4086TIP3    H133893   1.608   1.343   1.295  0.3825 -1.5634  0.1435
 4086TIP3    H233894   1.619   1.303   1.441  0.1080 -4.3389 -0.5284
 4087TIP3   OH233895   4.297   4.468   8.005 -0.0364 -0.1726  0.6586
 4087TIP3    H133896   4.270   4.380   8.031  0.8516 -0.5453  0.3712
 4087TIP3    H233897   4.239   4.527   8.053  0.9827 -0.8525  2.8441
 4088TIP3   OH233898   2.642   5.174   1.108  0.2636  0.3576  0.3727
 4088TIP3    H133899   2.643   5.081   1.084 -0.4947  0.1213  1.1957
 4088TIP3    H233900   2.732   5.192   1.136 -0.0331 -0.7231  2.2430
 4089TIP3   OH233901   3.372   0.161   0.816 -0.3603  0.0746 -0.2756
 4089TIP3    H133902   3.288   0.130   0.781 -0.7665  0.6684  0.1491
 4089TIP3    H233903   3.423   0.184   0.738 -0.2281 -1.1854 -0.5785
 4090TIP3   OH233904   4.713   2.683   6.441 -0.7236 -0.0018 -0.8899
 4090TIP3    H133905   4.702   2.589   6.427 -1.7313  0.0210 -0.3637
 4090TIP3    H233906   4.726   2.720   6.354  2.6908 -0.9422 -0.9183
 4091TIP3   OH233907   4.106   3.306   7.469 -0.1208 -0.0677 -0.1146
 4091TIP3    H133908   4.173   3.260   7.519  0.5519  0.1414 -0.8087
 4091TIP3    H233909   4.024   3.284   7.514  0.3574 -0.6556  0.5007
 4092TIP3   OH233910   3.174   1.195   7.311 -0.0949  0.2648 -0.0439
 4092TIP3    H133911   3.094   1.171   7.357 -0.0872  2.9551  1.5788
 4092TIP3    H233912   3.230   1.236   7.377  1.2875  1.3526 -1.7536
 4093TIP3   OH233913   0.129   6.410   8.629 -0.6125  0.0854 -0.4742
 4093TIP3    H133914   0.195   6.455   8.681  0.6820 -0.3715 -1.6748
 4093TIP3    H233915   0.071   6.480   8.599  1.1968  0.9962 -2.0696
 4094TIP3   OH233916   3.481   3.208   7.719  0.7815 -0.0041  0.4546
 4094TIP3    H133917   3.545   3.140   7.737  1.3133  0.5892  0.8433
 4094TIP3    H233918   3.491   3.226   7.625 -0.1265 -1.2104  0.0979
 4095TIP3   OH233919   0.477   1.830   0.300 -0.2902 -0.0696 -0.5676
 4095TIP3    H133920   0.544   1.766   0.323 -1.0322 -0.4251  0.6214
 4095TIP3    H233921   0.527   1.909   0.277  0.5494  0.1090  1.6150
 4096TIP3   OH233922   3.286   0.649   7.003  0.1846  0.2297  0.4901
 4096TIP3    H133923   3.328   0.566   7.024 -0.5531  0.0306  1.2214
 4096TIP3    H233924   3.195   0.638   7.030  0.0875  1.2967  0.6612
 4097TIP3   OH233925   1.287   3.905   6.592 -0.2285  0.1368  0.1095
 4097TIP3    H133926   1.330   3.937   6.512  2.5137 -0.6393  1.1843
 4097TIP3    H233927   1.203   3.952   6.593 -0.8733 -0.5834 -3.7257
 4098TIP3   OH233928   4.386   3.318   2.699  0.1526  0.6856  0.1950
 4098TIP3    H133929   4.453   3.255   2.672 -0.5036  0.4382 -0.9491
 4098TIP3    H233930   4.309   3.264   2.717  0.2663  0.9604  1.5942
 4099TIP3   OH233931   4.372   3.360   0.219  0.7109 -0.0992  0.8521
 4099TIP3    H133932   4.429   3.284   0.215 -0.8818 -1.3412  1.0060
 4099TIP3    H233933   4.390   3.400   0.304 -0.4074 -1.9343  2.0078
 4100TIP3   OH233934   2.578   0.225   8.422  0.2309  0.3286  0.3113
 4100TIP3    H133935   2.639   0.269   8.363 -0.3223 -1.0284 -1.3873
 4100TIP3    H233936   2.606   0.133   8.420 -1.8319 -0.3247 -0.5131
 4101TIP3   OH233937   5.024   3.604   2.342  0.5615 -0.2060  0.1644
 4101TIP3    H133938   5.041   3.572   2.253 -1.0867 -0.2399 -0.1670
 4101TIP3    H233939   5.037   3.528   2.398  0.4995 -0.4680 -0.1757
 4102TIP3   OH233940   3.316   6.497   8.062 -0.1529  0.1916  0.0574
 4102TIP3    H133941   3.285   6.431   8.124  0.7654 -0.7591 -0.4672
 4102TIP3    H233942   3.315   6.453   7.977  1.3841  0.5393 -0.1669
 4103TIP3   OH233943   1.476   2.372   0.311  0.2592 -0.7727  0.5720
 4103TIP3    H133944   1.399   2.385   0.367  0.1093 -1.5751  0.5645
 4103TIP3    H233945   1.463   2.433   0.239 -1.7490 -2.7124 -0.8259
 4104TIP3   OH233946   3.863   6.381   7.857  0.5641  0.0268 -0.1799
 4104TIP3    H133947   3.876   6.368   7.951 -1.2283  0.3271  0.1484
 4104TIP3    H233948   3.860   6.476   7.846  0.1346 -0.0119 -0.4381
 4105TIP3   OH233949   6.494   1.253   1.047  0.0606 -0.4588 -0.2617
 4105TIP3    H133950   6.428   1.203   1.095  0.1646  1.5462  2.1656
 4105TIP3    H233951   6.452   1.337   1.028  1.5920  0.5891  0.6968
 4106TIP3   OH233952   3.330   2.012   6.308  0.1648  0.2956 -0.1325
 4106TIP3    H133953   3.396   2.078   6.288  1.0187  0.6489  3.1999
 4106TIP3    H233954   3.359   1.974   6.392 -0.7953 -3.6711 -1.3698
 4107TIP3   OH233955   6.782   6.224   6.842  0.5994  0.7867  0.4813
 4107TIP3    H133956   6.710   6.219   6.905 -0.4600 -0.5141 -0.7572
 4107TIP3    H233957   6.740   6.249   6.760  1.8202  1.5815  0.0793
 4108TIP3   OH233958   3.031   6.258   1.168  0.2257  0.2672 -0.0350
 4108TIP3    H133959   2.959   6.288   1.113  1.1243  2.0642 -0.3262
 4108TIP3    H233960   2.999   6.267   1.258  0.6692  2.9875 -0.0578
 4109TIP3   OH233961   3.884   2.838   0.904 -0.3745 -0.4798 -0.2828
 4109TIP3    H133962   3.915   2.846   0.994 -2.1934  2.3534  0.2289
 4109TIP3    H233963   3.926   2.759   0.870  2.1256 -0.3966  2.3139
 4110TIP3   OH233964   0.929   3.718   8.520  0.0202 -0.1161 -0.6217
 4110TIP3    H133965   0.927   3.703   8.615 -0.3338 -1.5819 -0.8368
 4110TIP3    H233966   0.836   3.725   8.496 -0.0194 -2.1751 -1.1903
 4111TIP3   OH233967   3.023   3.160   0.519  0.6531  0.4780  0.4073
 4111TIP3    H133968   2.985   3.233   0.470  0.1415  0.6355  1.0179
 4111TIP3    H233969   3.058   3.200   0.598 -0.9149 -0.1012  1.4455
 4112TIP3   OH233970   3.634   5.190   1.572 -0.5418  0.0901 -0.5256
 4112TIP3    H133971   3.586   5.109   1.555  0.3946 -0.6905  0.4611
 4112TIP3    H233972   3.572   5.244   1.621 -1.6746  0.5836 -2.3648
 4113TIP3   OH233973   3.193   4.209   0.509 -0.2798  0.1316 -0.1699
 4113TIP3    H133974   3.149   4.188   0.591  0.8065 -0.2795  0.3247
 4113TIP3    H233975   3.144   4.283   0.474 -1.4038 -0.3453  0.3177
 4114TIP3   OH233976   3.109   3.494   2.242  0.1162 -0.6828 -0.5554
 4114TIP3    H133977   3.168   3.567   2.260  1.0428 -1.0711 -1.8523
 4114TIP3    H233978   3.075   3.469   2.328 -0.3828  1.3723 -0.1059
 4115TIP3   OH233979   2.939   1.066   1.570  0.2725  0.0032  0.4861
 4115TIP3    H133980   2.946   1.111   1.655 -0.3650  1.1003 -0.0313
 4115TIP3    H233981   2.846   1.065   1.551  0.3259 -1.0496  0.1954
 4116TIP3   OH233982   2.373   5.902   8.137 -0.0799  0.1175 -0.2184
 4116TIP3    H133983   2.406   5.922   8.225 -0.5431 -0.9270  0.2067
 4116TIP3    H233984   2.367   5.807   8.135  5.7314 -0.6872 -3.4151
 4117TIP3   OH233985   2.079   0.559   1.116  0.4860  0.7227  0.2329
 4117TIP3    H133986   2.143   0.623   1.149  1.7905 -0.2590 -0.3005
 4117TIP3    H233987   2.060   0.588   1.027 -1.3456  2.1149  1.0193
 4118TIP3   OH233988   5.713   5.791   1.209 -0.4434 -0.5191  0.4077
 4118TIP3    H133989   5.661   5.871   1.195 -1.0228 -0.7051  1.3783
 4118TIP3    H233990   5.801   5.823   1.227 -0.2116 -0.1930 -1.1900
 4119TIP3   OH233991   0.672   4.252   8.041  0.0230  0.5680 -0.0680
 4119TIP3    H133992   0.732   4.293   8.103  0.8292  0.0799 -0.5135
 4119TIP3    H233993   0.717   4.259   7.956 -1.1298  1.3850 -0.6404
 4120TIP3   OH233994   1.684   5.956   8.203 -0.4530  0.2886  0.1623
 4120TIP3    H133995   1.612   5.988   8.258  0.6908  0.8786  1.3707
 4120TIP3    H233996   1.665   5.863   8.191  0.5215 -0.5225  3.7588
 4121TIP3   OH233997   3.952   2.399   0.002 -0.5505  0.5327 -0.4209
 4121TIP3    H133998   3.920   2.448   0.078  2.5103  1.2609  0.5577
 4121TIP3    H233999   3.969   2.466  -0.064 -0.3272  0.2825 -0.6192
 4122TIP3   OH234000   5.508   0.026   7.089  0.0008  0.2876 -0.1617
 4122TIP3    H134001   5.417   0.050   7.103 -0.2758 -1.6767  2.2150
 4122TIP3    H234002   5.521   0.032   6.995 -1.8672  2.8709 -0.3490
 4123TIP3   OH234003   5.191   3.021   0.214 -0.2160 -0.5426  0.3981
 4123TIP3    H134004   5.153   3.104   0.242  0.1449 -0.4046  0.4911
 4123TIP3    H234005   5.235   2.987   0.292  1.7822  0.4019 -0.2447
 4124TIP3   OH234006   2.055   5.751   8.335 -0.1553  0.2907  0.1800
 4124TIP3    H134007   2.081   5.738   8.244 -0.9170 -0.5025  0.0610
 4124TIP3    H234008   2.110   5.692   8.385 -0.3311  0.0997  0.1467
 4125TIP3   OH234009   0.246   6.192   8.033  0.4764  0.2217 -0.2335
 4125TIP3    H134010   0.208   6.276   8.009  1.3400  0.6844  0.0154
 4125TIP3    H234011   0.288   6.161   7.953  0.8203  0.3842 -0.1149
 4126TIP3   OH234012   5.236   2.457   2.640 -0.0808  0.4090  0.3853
 4126TIP3    H134013   5.204   2.531   2.588 -0.2050 -1.3685 -2.2639
 4126TIP3    H234014   5.325   2.443   2.610  1.1597  1.3872  3.2218
 4127TIP3   OH234015   1.482   2.127   7.652  0.5901 -0.1531  0.0245
 4127TIP3    H134016   1.444   2.076   7.580 -1.4620  0.9581  0.2471
 4127TIP3    H234017   1.409   2.180   7.685  1.8416  0.4711  1.9581
 4128TIP3   OH234018   6.077   4.972   6.683  0.0861  0.0109  0.4676
 4128TIP3    H134019   6.129   5.043   6.645 -0.2288  0.7276  1.3470
 4128TIP3    H234020   6.128   4.942   6.758  0.1358 -0.5818  0.2015
 4129TIP3   OH234021   6.365   3.132   0.894 -0.4205 -0.2701 -0.2982
 4129TIP3    H134022   6.308   3.055   0.888 -0.9015  0.0471  0.0980
 4129TIP3    H234023   6.429   3.109   0.961 -0.4180 -0.4200 -0.3516
 4130TIP3   OH234024   3.102   5.592   7.374 -0.5663 -0.1596 -0.5720
 4130TIP3    H134025   3.184   5.588   7.324 -1.1665 -0.8540 -1.5493
 4130TIP3    H234026   3.035   5.564   7.311 -1.6460  1.0142  0.0269
 4131TIP3   OH234027   0.711   4.969   2.186  0.4163 -0.0925  0.0346
 4131TIP3    H134028   0.619   4.944   2.191  0.4385  0.0358  2.2077
 4131TIP3    H234029   0.748   4.913   2.118 -1.3224  0.1238 -1.1404
 4132TIP3   OH234030   6.483   2.327   1.820  0.2791 -0.1031 -0.4248
 4132TIP3    H134031   6.524   2.401   1.865 -1.1022  0.0505  0.6262
 4132TIP3    H234032   6.441   2.366   1.743 -0.3603  0.1973  0.0721
 4133TIP3   OH234033   5.243   3.548   6.387 -0.3364  0.7901  0.5744
 4133TIP3    H134034   5.261   3.629   6.339  0.1410 -0.0557 -0.6963
 4133TIP3    H234035   5.299   3.554   6.465  0.4040  1.2474  0.0197
 4134TIP3   OH234036   6.746   4.948   6.985  0.4247  0.4235  0.3163
 4134TIP3    H134037   6.820   4.966   6.927  0.4683  1.7466  0.7383
 4134TIP3    H234038   6.757   4.857   7.011  1.8230  0.5580  0.2614
 4135TIP3   OH234039   5.954   2.879   1.450 -0.1015 -0.6807 -1.0363
 4135TIP3    H134040   5.981   2.918   1.533  0.2264 -0.6406 -1.1598
 4135TIP3    H234041   6.018   2.810   1.434  0.1288 -0.3699 -1.4970
 4136TIP3   OH234042   6.357   6.529   7.067 -0.1456  0.0062  0.7622
 4136TIP3    H134043   6.293   6.459   7.055 -0.2054  0.0047  1.0813
 4136TIP3    H234044   6.303   6.606   7.087 -0.0219 -0.1256  1.6352
 4137TIP3   OH234045   1.494   6.096   7.738 -0.3044  0.3407 -0.0218
 4137TIP3    H134046   1.575   6.120   7.692 -0.4690  1.6980  0.3606
 4137TIP3    H234047   1.466   6.015   7.696  0.2089  0.8925 -1.4739
 4138TIP3   OH234048   4.018   0.608   7.500  0.8620  0.1718 -0.0478
 4138TIP3    H134049   3.996   0.516   7.515 -1.7457  0.8979  1.1283
 4138TIP3    H234050   3.983   0.627   7.413 -0.2361  0.4668  0.4409
 4139TIP3   OH234051   2.056   6.619   0.790 -0.3288 -0.3550 -0.2441
 4139TIP3    H134052   2.091   6.609   0.878 -1.3422  0.3673  0.2581
 4139TIP3    H234053   2.057   6.530   0.754 -1.1123 -0.8823  0.9711
 4140TIP3   OH234054   1.025   5.498   6.692  0.2200 -0.3761  0.2390
 4140TIP3    H134055   0.950   5.475   6.636  0.4693  0.7850 -0.5973
 4140TIP3    H234056   0.991   5.564   6.752  0.3491 -0.4885  0.4361
 4141TIP3   OH234057   6.713   4.736   0.795  0.1379  0.2291  0.2662
 4141TIP3    H134058   6.653   4.784   0.738 -0.1712 -1.2120 -0.6769
 4141TIP3    H234059   6.800   4.761   0.765  0.0157  1.3843  0.8298
 4142TIP3   OH234060   1.700   4.009   1.492 -0.5478 -0.1802  0.0568
 4142TIP3    H134061   1.666   3.920   1.500  0.2642 -0.5371 -0.3929
 4142TIP3    H234062   1.684   4.033   1.401 -1.4932  0.4537  0.3653
 4143TIP3   OH234063   5.181   2.424   6.981  0.2102 -0.7541  0.3039
 4143TIP3    H134064   5.261   2.462   6.945 -0.3855 -0.1950 -0.4671
 4143TIP3    H234065   5.120   2.424   6.908 -0.8520 -0.1274  1.1649
 4144TIP3   OH234066   3.333   6.886   0.447 -0.2069 -0.3903  0.2660
 4144TIP3    H134067   3.240   6.902   0.465 -0.7416  0.8721 -2.9937
 4144TIP3    H234068   3.379   6.924   0.522 -2.2300  1.6211  0.5826
 4145TIP3   OH234069   3.094   0.830   1.690 -0.3966 -0.0368  0.3578
 4145TIP3    H134070   3.185   0.837   1.719 -0.5623 -0.3934  0.9961
 4145TIP3    H234071   3.092   0.873   1.605  0.3030  0.2558  0.4834
 4146TIP3   OH234072   6.300   6.797   2.482  0.4549 -0.0777  0.1788
 4146TIP3    H134073   6.347   6.803   2.399  0.0064 -0.3904 -0.1050
 4146TIP3    H234074   6.368   6.807   2.549  0.5405  2.6282 -0.1795
 4147TIP3   OH234075   0.765   2.651   7.090 -0.3579 -0.1741  0.1753
 4147TIP3    H134076   0.825   2.588   7.049 -1.4042 -0.6675 -0.6286
 4147TIP3    H234077   0.818   2.693   7.158  2.5884  3.0885 -3.6297
 4148TIP3   OH234078   6.323   6.749   1.694 -0.2107  0.4910 -0.8954
 4148TIP3    H134079   6.338   6.685   1.764 -0.2012 -0.0246 -1.3592
 4148TIP3    H234080   6.236   6.784   1.711 -0.2015  0.3786 -0.6165
 4149TIP3   OH234081   1.763   6.535   1.449 -0.2078  0.1597 -0.2382
 4149TIP3    H134082   1.717   6.571   1.373  2.2108  0.9629 -1.4199
 4149TIP3    H234083   1.799   6.612   1.493  3.0711 -0.5067 -1.4833
 4150TIP3   OH234084   0.259   4.802   1.927  0.2066 -0.7000  0.0972
 4150TIP3    H134085   0.272   4.709   1.948 -0.1232 -0.3210  2.1768
 4150TIP3    H234086   0.199   4.834   1.995  0.9697  1.2223 -0.0663
 4151TIP3   OH234087   0.410   4.182   1.274 -0.0329  0.5286  0.1861
 4151TIP3    H134088   0.403   4.238   1.352 -0.0961  1.7900 -0.7022
 4151TIP3    H234089   0.325   4.139   1.268 -0.4563  1.3553  0.1426
 4152TIP3   OH234090   4.352   5.157   6.221  0.6122  0.4683 -0.1267
 4152TIP3    H134091   4.333   5.113   6.138  0.5115 -0.3699  0.3250
 4152TIP3    H234092   4.332   5.249   6.205  0.2628  0.2608 -0.9272
 4153TIP3   OH234093   1.580   1.762   2.594  0.3442 -0.1951  0.1969
 4153TIP3    H134094   1.667   1.723   2.597 -0.6458 -2.5565  3.2461
 4153TIP3    H234095   1.524   1.694   2.555 -0.6299 -0.0116  1.2106
 4154TIP3   OH234096   2.200   5.344   8.086 -0.3479  0.3733  0.3107
 4154TIP3    H134097   2.231   5.433   8.104 -0.6410  0.5503 -0.0512
 4154TIP3    H234098   2.274   5.301   8.043 -0.9075  1.0982 -1.4511
 4155TIP3   OH234099   3.161   1.434   0.657 -0.6746  0.1570  0.9524
 4155TIP3    H134100   3.129   1.521   0.632 -0.3400  0.2247  0.7541
 4155TIP3    H234101   3.123   1.418   0.743 -1.8618 -0.0790  0.4076
 4156TIP3   OH234102   2.265   1.082   7.683 -0.4864 -0.7796 -0.7241
 4156TIP3    H134103   2.228   1.054   7.766  1.1640 -0.6265  0.1013
 4156TIP3    H234104   2.195   1.067   7.619 -2.6154  1.2209  0.9902
 4157TIP3   OH234105   2.757   3.516   0.032 -0.4673  0.1842  0.1817
 4157TIP3    H134106   2.743   3.605   0.064 -1.1294  0.1169  0.0939
 4157TIP3    H234107   2.699   3.508  -0.044  0.0977 -0.0973 -0.2275
 4158TIP3   OH234108   4.750   1.028   8.320 -0.1712 -0.5965 -0.3773
 4158TIP3    H134109   4.829   1.032   8.267  0.3466 -0.4708  0.3804
 4158TIP3    H234110   4.780   0.995   8.405 -0.7954  0.1868  0.1620
 4159TIP3   OH234111   3.810   6.899   7.617 -0.0279  0.0297 -0.3081
 4159TIP3    H134112   3.838   6.901   7.708  0.7993  1.5159 -0.5618
 4159TIP3    H234113   3.883   6.859   7.570 -0.1672 -0.1161 -0.4021
 4160TIP3   OH234114   2.458   3.713   6.433  0.8518 -0.0216 -0.3598
 4160TIP3    H134115   2.530   3.706   6.370  1.2595  1.4777 -0.0930
 4160TIP3    H234116   2.463   3.803   6.466  0.5211 -0.6825  1.6641
 4161TIP3   OH234117   3.618   1.725   0.025  0.3822 -0.0032 -0.5426
 4161TIP3    H134118   3.558   1.779  -0.026  0.1815  0.5230  0.2293
 4161TIP3    H234119   3.704   1.744  -0.011  0.2210  0.2067 -0.8205
 4162TIP3   OH234120   6.124   3.309   8.601  0.1837  0.5645 -0.0416
 4162TIP3    H134121   6.084   3.367   8.666 -1.6085 -1.0114  0.3372
 4162TIP3    H234122   6.085   3.336   8.518  0.6465  1.0036 -0.1184
 4163TIP3   OH234123   4.774   2.219   7.269 -0.6567  0.4581 -0.3699
 4163TIP3    H134124   4.832   2.232   7.194 -0.4406 -1.3709 -0.5677
 4163TIP3    H234125   4.715   2.294   7.268  0.4425  1.3339 -1.3417
 4164TIP3   OH234126   6.292   6.098   7.266 -1.0144  0.2505  0.0079
 4164TIP3    H134127   6.374   6.124   7.224 -1.3865  2.3745  0.4824
 4164TIP3    H234128   6.223   6.127   7.206 -1.4835  1.1318  0.9496
 4165TIP3   OH234129   3.930   5.493   7.884 -0.2502  0.2118  0.2332
 4165TIP3    H134130   3.878   5.560   7.840  0.5182  0.1500 -0.7984
 4165TIP3    H234131   3.931   5.420   7.823  1.0845  0.2351  0.2099
 4166TIP3   OH234132   4.490   5.161   1.076 -0.0237 -0.2111 -0.0594
 4166TIP3    H134133   4.430   5.119   1.138  0.0207 -1.0049 -0.5469
 4166TIP3    H234134   4.498   5.251   1.108 -0.9816 -0.2690  0.3651
 4167TIP3   OH234135   1.427   4.456   0.674 -0.1523 -0.6373 -0.2846
 4167TIP3    H134136   1.469   4.397   0.612  0.4266 -0.6941  0.1559
 4167TIP3    H234137   1.341   4.473   0.636 -0.3274 -1.7576 -0.4226
 4168TIP3   OH234138   1.220   2.009   0.194  0.0377 -0.1917  0.0236
 4168TIP3    H134139   1.300   2.042   0.154 -0.5670  1.1399 -0.1688
 4168TIP3    H234140   1.238   1.918   0.215  1.6606  0.1486  0.1823
 4169TIP3   OH234141   1.759   5.518   7.936  0.3817 -0.0444  0.0755
 4169TIP3    H134142   1.708   5.448   7.894 -0.0498  0.5229 -0.3612
 4169TIP3    H234143   1.850   5.497   7.915  0.2323 -0.3035 -0.3266
 4170TIP3   OH234144   6.603   3.609   7.378  0.2345  0.5470  0.5376
 4170TIP3    H134145   6.547   3.687   7.370 -0.5886 -0.1071 -0.2629
 4170TIP3    H234146   6.553   3.549   7.433  0.2806  0.0716  0.0667
 4171TIP3   OH234147   5.457   0.896   7.695 -0.1851  0.0387  0.2156
 4171TIP3    H134148   5.400   0.853   7.759  1.6977 -2.3132  0.4475
 4171TIP3    H234149   5.534   0.923   7.745 -0.2405  1.4712 -0.4256
 4172TIP3   OH234150   1.665   6.616   8.230  0.2483  0.1365  0.3376
 4172TIP3    H134151   1.736   6.646   8.287  1.7704 -2.3973 -0.0269
 4172TIP3    H234152   1.705   6.612   8.143 -0.5327 -0.6669  0.0013
 4173TIP3   OH234153   0.331   6.784   7.472 -0.0333  0.2374  0.0370
 4173TIP3    H134154   0.276   6.855   7.506 -1.6179 -0.4349 -0.9643
 4173TIP3    H234155   0.373   6.746   7.549 -2.0078 -0.0444  1.0328
 4174TIP3   OH234156   0.697   6.775   0.092  0.6686 -0.4442 -0.1646
 4174TIP3    H134157   0.674   6.819   0.010 -0.2343 -0.9737 -0.2060
 4174TIP3    H234158   0.615   6.770   0.141  0.9950 -1.0371  0.3319
 4175TIP3   OH234159   0.929   2.787   7.259  0.0706  0.3895 -0.5098
 4175TIP3    H134160   0.952   2.876   7.231  2.5319 -0.2447 -0.7768
 4175TIP3    H234161   1.008   2.755   7.303 -0.6124 -1.7924 -0.7695
 4176TIP3   OH234162   3.842   1.686   6.681  0.3574 -0.1230  0.4033
 4176TIP3    H134163   3.874   1.760   6.733  2.9300  0.1972 -1.4587
 4176TIP3    H234164   3.897   1.612   6.708  0.1526 -0.5099 -0.2227
 4177TIP3   OH234165   3.936   3.723   0.668  0.0865 -0.1446  0.0747
 4177TIP3    H134166   3.842   3.719   0.687  0.2084  1.1589  1.1357
 4177TIP3    H234167   3.968   3.796   0.722  1.6389 -0.3145 -0.5650
 4178TIP3   OH234168   2.555   1.309   0.615 -0.0696 -0.4413  0.2938
 4178TIP3    H134169   2.617   1.360   0.667  0.7372  1.4671 -2.3191
 4178TIP3    H234170   2.600   1.227   0.597  0.9997  0.2013 -0.0517
 4179TIP3   OH234171   1.299   1.194   0.968 -0.0022  0.3402  0.3075
 4179TIP3    H134172   1.221   1.226   0.924 -0.6774 -0.9345  0.5297
 4179TIP3    H234173   1.338   1.272   1.009 -0.4156  1.2103 -0.8959
 4180TIP3   OH234174   5.659   5.555   0.160 -0.1944 -0.1424  0.3506
 4180TIP3    H134175   5.594   5.614   0.122  0.4011  0.5420  0.3651
 4180TIP3    H234176   5.728   5.613   0.192  1.5984 -0.9031 -1.8183
 4181TIP3   OH234177   6.653   1.025   7.493 -0.1061  0.0303  0.4172
 4181TIP3    H134178   6.683   1.107   7.454  1.6002 -1.3356 -1.3755
 4181TIP3    H234179   6.591   0.989   7.429 -3.0661  1.1404  2.4707
 4182TIP3   OH234180   5.950   3.194   7.629 -0.5304 -0.2364  0.8602
 4182TIP3    H134181   5.976   3.241   7.550  0.4095 -1.3980  0.4507
 4182TIP3    H234182   5.986   3.246   7.701  0.9162 -0.5417  0.3940
 4183TIP3   OH234183   2.664   3.926   0.484  0.6100  0.2247 -0.3824
 4183TIP3    H134184   2.722   4.000   0.504 -0.4348  0.7777  0.6960
 4183TIP3    H234185   2.613   3.913   0.564 -0.5049 -0.4908 -1.1814
 4184TIP3   OH234186   3.888   4.291   7.710 -0.2569  0.1060 -0.3041
 4184TIP3    H134187   3.836   4.366   7.681  0.0569  0.0976 -0.9056
 4184TIP3    H234188   3.830   4.216   7.698  0.3225 -0.0785 -2.2704
 4185TIP3   OH234189   4.080   4.842   5.826  0.3382 -0.0233  0.7176
 4185TIP3    H134190   4.150   4.792   5.784  2.4104  1.6460  1.9244
 4185TIP3    H234191   4.069   4.800   5.912 -0.8647 -0.8534  0.1803
 4186TIP3   OH234192   4.332   2.994   0.042 -0.1091 -0.5384 -0.2254
 4186TIP3    H134193   4.365   2.905   0.038  1.1750 -0.0981 -0.0497
 4186TIP3    H234194   4.395   3.040   0.098 -1.0327  0.3569  0.1050
 4187TIP3   OH234195   3.303   4.192   8.500  0.9667  0.6390 -0.0063
 4187TIP3    H134196   3.325   4.119   8.557 -0.1072  0.6602  0.4698
 4187TIP3    H234197   3.282   4.264   8.561 -0.5367  0.5592 -0.3887
 4188TIP3   OH234198   6.161   4.096   7.947 -0.2236  0.2769  0.5882
 4188TIP3    H134199   6.139   4.131   8.034  0.1626  1.6500  0.1575
 4188TIP3    H234200   6.182   4.173   7.895  0.8586 -0.6242 -0.3655
 4189TIP3   OH234201   6.537   5.147   1.285 -0.2867  0.3880 -0.2366
 4189TIP3    H134202   6.583   5.107   1.211 -0.0117  2.1575 -1.0711
 4189TIP3    H234203   6.445   5.130   1.268 -0.1659 -0.1111 -0.4205
 4190TIP3   OH234204   1.664   3.650   0.451  0.0643  0.3378  0.1109
 4190TIP3    H134205   1.750   3.624   0.484 -0.3747  0.2233  1.1888
 4190TIP3    H234206   1.678   3.661   0.357  1.0307 -0.6183  0.1120
 4191TIP3   OH234207   6.071   0.999   0.955 -0.1019  0.2302  0.0186
 4191TIP3    H134208   6.126   0.947   0.897 -0.1080  1.4539 -1.1287
 4191TIP3    H234209   6.005   1.037   0.898 -2.8290 -1.9391  1.4804
 4192TIP3   OH234210   4.244   5.045   5.981  0.1058  0.0652 -0.0712
 4192TIP3    H134211   4.202   4.976   5.929  1.0483  0.7966 -1.8675
 4192TIP3    H234212   4.232   5.125   5.930 -1.4087  1.4188  2.1962
 4193TIP3   OH234213   0.705   2.045   1.060  0.2972  0.0398  0.6576
 4193TIP3    H134214   0.787   2.014   1.096  0.7229 -1.7543 -1.6116
 4193TIP3    H234215   0.730   2.106   0.991 -0.2718 -0.2137  0.2143
 4194TIP3   OH234216   0.911   5.976   1.125 -0.0726  0.1351  0.0749
 4194TIP3    H134217   0.843   5.928   1.172  0.8697 -3.1240 -1.5661
 4194TIP3    H234218   0.882   5.974   1.033  0.6723  1.6815 -0.2307
 4195TIP3   OH234219   2.081   6.671   7.495 -0.2170  0.2754  0.0680
 4195TIP3    H134220   2.000   6.708   7.529  0.8905  2.3479  0.6098
 4195TIP3    H234221   2.065   6.576   7.491 -2.3040  0.5456  1.0602
 4196TIP3   OH234222   3.113   6.346   8.333 -0.4048  0.2776 -1.1361
 4196TIP3    H134223   3.051   6.410   8.299 -2.0985 -0.0394  1.1534
 4196TIP3    H234224   3.121   6.281   8.263 -0.2457  1.8516 -2.6698
 4197TIP3   OH234225   4.616   6.394   7.635 -0.3933 -0.1119  0.2234
 4197TIP3    H134226   4.628   6.328   7.566  1.2846 -0.8430  1.1431
 4197TIP3    H234227   4.630   6.478   7.590 -0.8298 -0.4796 -0.6227
 4198TIP3   OH234228   3.756   0.253   7.868  0.4495  0.3677 -0.1783
 4198TIP3    H134229   3.827   0.204   7.828  1.2310  0.8738  0.5550
 4198TIP3    H234230   3.681   0.193   7.867  0.0989  0.7192 -3.3465
 4199TIP3   OH234231   6.278   5.532   0.814 -0.4195  0.1690 -0.0267
 4199TIP3    H134232   6.367   5.502   0.798 -0.2499  0.1084  0.9988
 4199TIP3    H234233   6.224   5.477   0.757 -0.2280 -2.8020  2.4077
 4200TIP3   OH234234   2.531   3.474   8.161 -0.0649  0.5246  0.2587
 4200TIP3    H134235   2.559   3.383   8.163 -0.4855  0.4049  1.0669
 4200TIP3    H234236   2.549   3.507   8.250  0.8470  1.4656 -0.2502
 4201TIP3   OH234237   4.603   3.552   1.881 -0.0388 -0.2793 -0.2653
 4201TIP3    H134238   4.521   3.516   1.846  1.0090 -2.3891 -0.7198
 4201TIP3    H234239   4.578   3.636   1.920 -2.6780 -1.5380  0.9509
 4202TIP3   OH234240   4.353   6.357   8.149  0.1286 -0.2047  0.5296
 4202TIP3    H134241   4.362   6.445   8.111  1.5996  0.2596  1.8571
 4202TIP3    H234242   4.317   6.304   8.078  0.7587  1.1109 -0.8225
 4203TIP3   OH234243   6.396   6.322   1.019 -0.3228 -0.3015  0.1242
 4203TIP3    H134244   6.402   6.327   0.924  3.6719 -0.8224  0.1720
 4203TIP3    H234245   6.352   6.403   1.046  1.9123  1.7622 -2.0331
 4204TIP3   OH234246   6.771   0.845   8.416 -0.1545  0.8215 -0.1151
 4204TIP3    H134247   6.791   0.884   8.501 -0.3879 -1.1333  0.8876
 4204TIP3    H234248   6.676   0.831   8.418  0.0957 -1.0981  0.1935
 4205TIP3   OH234249   4.935   1.823   1.001 -0.4238 -0.6115  0.4873
 4205TIP3    H134250   5.014   1.867   0.968  0.2456 -0.3299  2.3737
 4205TIP3    H234251   4.940   1.735   0.964  2.0753 -1.3776  2.4023
 4206TIP3   OH234252   4.122   3.013   8.240 -0.0949  0.2262  0.8959
 4206TIP3    H134253   4.201   3.066   8.246  0.1234  0.1225 -0.7642
 4206TIP3    H234254   4.118   2.967   8.324  0.6478  1.5389  1.6740
 4207TIP3   OH234255   1.598   1.728   0.157 -0.1339  0.3254 -0.2161
 4207TIP3    H134256   1.635   1.801   0.207  0.1805  0.0911 -0.1031
 4207TIP3    H234257   1.590   1.762   0.068 -2.1293  1.2736  0.2518
 4208TIP3   OH234258   2.111   6.537   1.055  0.1659  0.0632  0.5465
 4208TIP3    H134259   2.142   6.452   1.024  0.5359  0.2624  0.3715
 4208TIP3    H234260   2.033   6.516   1.107 -1.0903 -0.2048 -1.3345
 4209TIP3   OH234261   0.136   5.506   0.746  0.3526 -0.6283 -0.8998
 4209TIP3    H134262   0.047   5.540   0.736  0.3015 -0.7505 -0.8539
 4209TIP3    H234263   0.191   5.585   0.744  0.2926 -0.5986 -1.5082
 4210TIP3   OH234264   1.230   4.327   1.355 -0.2141  0.3824  0.3533
 4210TIP3    H134265   1.207   4.267   1.427 -1.0853  0.9406  0.5692
 4210TIP3    H234266   1.149   4.335   1.305 -0.3189  1.8899  0.7214
 4211TIP3   OH234267   6.130   3.465   2.092  0.4533 -0.0505 -0.2061
 4211TIP3    H134268   6.165   3.454   2.181  2.5117 -0.0522 -0.9680
 4211TIP3    H234269   6.197   3.429   2.035  1.2423  3.8287 -2.0304
 4212TIP3   OH234270   1.420   3.066   6.990  0.7980  0.0346  0.1532
 4212TIP3    H134271   1.373   3.052   6.908  0.0028 -1.1029  0.7794
 4212TIP3    H234272   1.352   3.089   7.053  1.1694 -0.8315  0.8896
 4213TIP3   OH234273   2.027   0.749   8.562  0.0678 -0.3281  0.5159
 4213TIP3    H134274   1.945   0.771   8.518  0.2656 -0.1169  0.2502
 4213TIP3    H234275   2.065   0.680   8.507  2.3393  2.7095 -2.0951
 4214TIP3   OH234276   3.380   5.658   7.213  0.0794  0.5228 -0.3695
 4214TIP3    H134277   3.434   5.653   7.293 -0.4073 -0.0535 -0.0673
 4214TIP3    H234278   3.399   5.576   7.167 -0.3036  0.4608 -0.4147
 4215TIP3   OH234279   0.471   3.517   1.044 -0.0518  0.1246 -0.1680
 4215TIP3    H134280   0.558   3.531   1.081 -0.9204 -1.1297  2.5450
 4215TIP3    H234281   0.413   3.573   1.095 -1.1388 -0.6856 -0.4693
 4216TIP3   OH234282   5.325   6.290   8.081  0.1301  0.2010 -0.0859
 4216TIP3    H134283   5.409   6.305   8.038  0.2776 -2.0980 -0.6937
 4216TIP3    H234284   5.271   6.364   8.054  1.0585  0.2244 -2.0679
 4217TIP3   OH234285   1.892   5.384   0.959 -0.4304 -0.1928 -0.0007
 4217TIP3    H134286   1.945   5.456   0.994  2.3168 -2.6415  1.3311
 4217TIP3    H234287   1.891   5.399   0.864  2.1965  0.3580 -0.0172
 4218TIP3   OH234288   6.744   1.597   6.664 -0.4850 -0.2491  0.0845
 4218TIP3    H134289   6.811   1.533   6.687 -0.2886 -0.1355 -0.1706
 4218TIP3    H234290   6.678   1.546   6.616  0.6350  0.0792 -1.9330
 4219TIP3   OH234291   1.137   1.938   7.760 -0.3592  0.3450  0.4770
 4219TIP3    H134292   1.105   2.027   7.773 -1.3004  0.3162 -1.3112
 4219TIP3    H234293   1.102   1.912   7.675  2.3982 -0.6263 -0.4758
 4220TIP3   OH234294   5.226   1.413   7.477 -0.2281  0.4732  0.0403
 4220TIP3    H134295   5.291   1.424   7.407 -0.0996  0.6473  0.1873
 4220TIP3    H234296   5.224   1.318   7.492  0.3715  0.5122  0.3905
 4221TIP3   OH234297   4.177   3.286   7.171 -0.0280  0.7998 -0.0591
 4221TIP3    H134298   4.184   3.261   7.263 -1.2737 -0.9258 -0.3805
 4221TIP3    H234299   4.252   3.245   7.129  0.2149  1.1003  0.0711
 4222TIP3   OH234300   4.290   3.577   0.061  0.2771  0.5850 -0.4191
 4222TIP3    H134301   4.337   3.635   0.001  2.2166  1.8845  2.1764
 4222TIP3    H234302   4.357   3.520   0.098 -0.9469 -0.5552  0.1122
 4223TIP3   OH234303   6.768   1.584   8.115 -0.7529 -0.2276 -0.1657
 4223TIP3    H134304   6.718   1.663   8.136 -1.5403 -1.3055  2.2680
 4223TIP3    H234305   6.856   1.603   8.146 -0.6877  0.0395 -0.5003
 4224TIP3   OH234306   4.380   5.288   5.894 -0.2286 -0.2487  0.1251
 4224TIP3    H134307   4.299   5.324   5.860 -0.4042 -0.1752  0.6043
 4224TIP3    H234308   4.402   5.345   5.968  0.6375  0.1616 -0.4322
 4225TIP3   OH234309   1.919   5.337   6.691 -0.3534  1.3448  0.1867
 4225TIP3    H134310   1.902   5.243   6.688  1.4995  0.9700 -2.0382
 4225TIP3    H234311   1.836   5.378   6.666 -0.5344  0.1208 -1.4355
 4226TIP3   OH234312   6.080   1.500   6.819 -0.0243 -0.7141 -0.5861
 4226TIP3    H134313   5.997   1.452   6.821  0.0982 -0.9125  0.1251
 4226TIP3    H234314   6.102   1.506   6.727 -0.2153 -1.7349 -0.7022
 4227TIP3   OH234315   4.549   2.640   1.880  0.3569 -0.1149  0.5682
 4227TIP3    H134316   4.461   2.615   1.906 -0.2048 -0.6366 -1.5978
 4227TIP3    H234317   4.537   2.714   1.820  1.2841 -0.7149 -0.4042
 4228TIP3   OH234318   5.856   5.483   7.361 -0.1314  0.4923 -0.6800
 4228TIP3    H134319   5.948   5.481   7.385  0.8834 -2.7360 -3.9198
 4228TIP3    H234320   5.819   5.404   7.399 -1.1416  0.8282 -0.9133
 4229TIP3   OH234321   1.123   1.886   1.693  0.2626  0.4592 -0.3375
 4229TIP3    H134322   1.049   1.825   1.695  1.7073 -1.4119 -0.9005
 4229TIP3    H234323   1.174   1.865   1.772  1.3593  0.1489 -1.1055
 4230TIP3   OH234324   5.803   4.576   0.466 -0.4605 -0.5695 -0.2351
 4230TIP3    H134325   5.761   4.490   0.461  1.0774 -1.2829 -1.9688
 4230TIP3    H234326   5.759   4.628   0.400 -1.8161  0.2283  1.2382
 4231TIP3   OH234327   1.295   0.259   7.085  0.0426 -0.0899 -0.4829
 4231TIP3    H134328   1.273   0.245   7.177  0.8068 -0.4243 -0.3472
 4231TIP3    H234329   1.355   0.333   7.085  0.0239 -0.0740 -0.7166
 4232TIP3   OH234330   0.773   0.582   2.030 -0.4941 -0.0335  0.0644
 4232TIP3    H134331   0.762   0.585   2.125 -0.6632  0.4871  0.0300
 4232TIP3    H234332   0.686   0.602   1.995 -0.4903 -0.4598 -0.2047
 4233TIP3   OH234333   5.632   1.922   2.166  0.4851 -0.3060 -0.5297
 4233TIP3    H134334   5.620   2.013   2.137  0.3291 -0.2021 -0.1502
 4233TIP3    H234335   5.559   1.875   2.125  0.3090 -0.1752 -0.3689
 4234TIP3   OH234336   2.029   4.580   7.582 -0.5469 -0.0389 -0.2045
 4234TIP3    H134337   2.087   4.598   7.508 -1.0976  0.5089 -0.5219
 4234TIP3    H234338   2.086   4.578   7.658 -0.2706  1.9649 -0.2984
 4235TIP3   OH234339   2.343   3.959   1.736  0.4410 -0.3968 -0.4019
 4235TIP3    H134340   2.409   4.027   1.746  0.0013  0.0097 -0.2698
 4235TIP3    H234341   2.367   3.893   1.801  1.6001 -0.9682 -1.3723
 4236TIP3   OH234342   1.767   0.720   7.803  0.1005  0.5319  0.4398
 4236TIP3    H134343   1.836   0.787   7.806 -1.1164  1.8032  2.5510
 4236TIP3    H234344   1.812   0.639   7.825  0.9129  1.3892  2.1137
 4237TIP3   OH234345   4.153   1.639   7.526 -0.1553 -0.1699 -0.3328
 4237TIP3    H134346   4.147   1.614   7.619 -1.4400 -1.1236 -0.6423
 4237TIP3    H234347   4.195   1.564   7.484  0.5936  0.3386 -0.5134
 4238TIP3   OH234348   3.630   3.327   0.531  0.2651  0.0625  0.4585
 4238TIP3    H134349   3.711   3.357   0.490 -0.1680  0.4018 -0.1674
 4238TIP3    H234350   3.627   3.234   0.512 -1.0791  0.5649 -2.4191
 4239TIP3   OH234351   4.805   2.655   1.269  0.4925 -0.3513  0.3944
 4239TIP3    H134352   4.793   2.568   1.230 -1.2942 -1.2574  2.7772
 4239TIP3    H234353   4.720   2.698   1.259  0.7696  0.3580  1.0412
 4240TIP3   OH234354   0.607   3.436   1.786 -0.0210 -0.0670 -0.1173
 4240TIP3    H134355   0.573   3.352   1.754 -0.3751  0.3570 -0.8717
 4240TIP3    H234356   0.668   3.464   1.718 -1.2875  1.1721 -0.7833
 4241TIP3   OH234357   3.444   5.549   1.295  0.0219 -0.4157  0.1854
 4241TIP3    H134358   3.463   5.613   1.364  1.3810 -0.3793 -0.1818
 4241TIP3    H234359   3.419   5.470   1.342  2.4305 -0.8761  0.8475
 4242TIP3   OH234360   2.873   1.045   1.239  0.4696  0.1608  0.0142
 4242TIP3    H134361   2.943   0.993   1.199 -0.1046 -0.4904 -0.1479
 4242TIP3    H234362   2.811   0.981   1.273  0.2928  0.7290  0.7935
 4243TIP3   OH234363   3.281   4.170   6.537 -0.3610 -0.2266  0.2618
 4243TIP3    H134364   3.230   4.225   6.478  0.4944  1.4591  1.0338
 4243TIP3    H234365   3.216   4.112   6.578 -1.3177  0.3377 -0.4270
 4244TIP3   OH234366   2.679   6.748   0.829  0.3391 -0.1542 -0.5955
 4244TIP3    H134367   2.675   6.810   0.757  0.9908 -0.2391 -0.7145
 4244TIP3    H234368   2.588   6.738   0.858  0.4092  2.4332  0.7940
 4245TIP3   OH234369   4.147   4.351   0.534 -0.4706 -0.9292 -0.2094
 4245TIP3    H134370   4.177   4.337   0.623 -0.4101  0.7158  0.0603
 4245TIP3    H234371   4.120   4.265   0.503  0.9828 -1.7964  0.8412
 4246TIP3   OH234372   2.660   1.495   0.775 -0.3750  0.0329  0.4791
 4246TIP3    H134373   2.650   1.421   0.833 -0.6768 -0.5108 -0.2424
 4246TIP3    H234374   2.720   1.554   0.820 -1.0208 -0.1155  1.5760
 4247TIP3   OH234375   4.778   3.952   1.230 -0.2653  0.0632 -0.0446
 4247TIP3    H134376   4.814   4.014   1.293  2.8440 -2.2903  0.7263
 4247TIP3    H234377   4.804   3.986   1.144  2.0908 -0.4383  0.4056
 4248TIP3   OH234378   6.549   2.240   7.431  0.1631 -0.3453 -0.5616
 4248TIP3    H134379   6.477   2.190   7.392  0.6807 -0.6316 -1.1682
 4248TIP3    H234380   6.619   2.176   7.443  1.2325  0.4110 -2.3633
 4249TIP3   OH234381   3.716   0.853   0.410 -0.6271 -0.5363 -0.4589
 4249TIP3    H134382   3.773   0.844   0.334  0.1166 -0.2734  0.0551
 4249TIP3    H234383   3.759   0.919   0.465 -0.6468 -1.4114  0.6513
 4250TIP3   OH234384   3.999   5.047   0.536 -0.2528  0.1201  0.6408
 4250TIP3    H134385   3.923   5.101   0.555 -0.5426 -0.3674  0.8733
 4250TIP3    H234386   4.052   5.101   0.477 -0.0261  1.0794  1.6877
 4251TIP3   OH234387   4.713   3.953   1.873  0.1140  0.3100  0.0851
 4251TIP3    H134388   4.618   3.959   1.881  0.1163  0.2801  0.1288
 4251TIP3    H234389   4.731   3.987   1.785  0.1411  1.1287  0.3935
 4252TIP3   OH234390   3.341   2.995   0.474 -0.0317 -0.1140 -0.0081
 4252TIP3    H134391   3.312   3.086   0.475 -1.6653 -0.5888 -0.7400
 4252TIP3    H234392   3.353   2.973   0.567 -1.8487  0.2096  0.3423
 4253TIP3   OH234393   1.177   6.128   0.079  0.3042  0.0303  0.2563
 4253TIP3    H134394   1.132   6.046   0.099 -1.5475  0.9219 -0.0237
 4253TIP3    H234395   1.109   6.195   0.087  0.8429  1.1505 -3.0057
 4254TIP3   OH234396   4.255   1.761   2.197 -0.3287 -0.4105 -0.1239
 4254TIP3    H134397   4.334   1.801   2.233 -1.3404  0.3099  1.4330
 4254TIP3    H234398   4.204   1.734   2.274 -1.7281 -0.5863 -1.0619
 4255TIP3   OH234399   6.822   0.120   6.870 -0.9624  0.1006 -0.7300
 4255TIP3    H134400   6.750   0.113   6.807 -2.0084 -1.7990  0.5577
 4255TIP3    H234401   6.865   0.034   6.868 -1.0584 -0.0367  1.1163
 4256TIP3   OH234402   0.277   0.978   6.980  0.0754 -0.5884  0.2676
 4256TIP3    H134403   0.318   0.980   6.894  0.6877 -0.3820  0.5554
 4256TIP3    H234404   0.210   1.045   6.977  0.9702  0.3417  0.3661
 4257TIP3   OH234405   4.091   5.035   7.365  0.2382  0.1587 -0.4540
 4257TIP3    H134406   4.080   5.025   7.460 -0.2822 -0.1844 -0.5464
 4257TIP3    H234407   4.013   5.083   7.337 -0.3179 -0.9654 -0.8999
 4258TIP3   OH234408   0.626   3.504   0.537 -0.4929 -0.3610 -0.7650
 4258TIP3    H134409   0.614   3.596   0.560 -1.1669 -0.1335 -1.9192
 4258TIP3    H234410   0.586   3.455   0.610 -0.4988  0.2602 -0.3467
 4259TIP3   OH234411   0.255   3.009   0.491  0.0024 -0.2819  0.7877
 4259TIP3    H134412   0.283   2.933   0.440  1.0949  0.4632  0.2436
 4259TIP3    H234413   0.164   2.990   0.514 -0.5773 -0.6064 -1.5351
 4260TIP3   OH234414   0.492   3.039   7.969  0.1508  0.0705 -0.1231
 4260TIP3    H134415   0.501   3.093   7.891 -0.9707 -2.1179 -1.8937
 4260TIP3    H234416   0.581   3.032   8.004  0.9940 -0.1709 -2.1488
 4261TIP3   OH234417   5.552   4.491   2.587 -0.2337 -0.0051  0.4730
 4261TIP3    H134418   5.501   4.422   2.628  0.4726  0.7251  2.6989
 4261TIP3    H234419   5.525   4.489   2.495 -2.6476 -1.0692  1.1208
 4262TIP3   OH234420   0.806   0.262   1.374  0.2111  0.5717 -0.4584
 4262TIP3    H134421   0.890   0.308   1.383  0.6206 -0.5023  2.0663
 4262TIP3    H234422   0.761   0.277   1.457 -0.7445 -1.4159 -0.5611
 4263TIP3   OH234423   1.855   4.367   7.077 -0.2979 -0.0410  0.2688
 4263TIP3    H134424   1.867   4.461   7.088  0.5110 -0.2997  1.9296
 4263TIP3    H234425   1.812   4.358   6.992  0.4505  1.7574 -0.3529
 4264TIP3   OH234426   4.805   2.550   0.824 -0.1753  0.2529  0.0795
 4264TIP3    H134427   4.783   2.496   0.900  0.2308 -1.6682 -1.1047
 4264TIP3    H234428   4.787   2.640   0.853  0.2603 -0.3645  2.5273
 4265TIP3   OH234429   0.550   0.505   6.779 -0.0173 -0.1278  0.2033
 4265TIP3    H134430   0.554   0.597   6.806 -0.0764 -0.8162  2.7941
 4265TIP3    H234431   0.631   0.490   6.730  1.1345  0.7484  1.7666
 4266TIP3   OH234432   6.206   1.700   6.619  0.3044  0.0014 -0.1211
 4266TIP3    H134433   6.246   1.770   6.568 -1.3703 -0.0294 -1.5442
 4266TIP3    H234434   6.271   1.629   6.618  1.5962  1.1237  0.5034
 4267TIP3   OH234435   0.161   5.172   2.400  0.0375  0.0242 -0.2202
 4267TIP3    H134436   0.179   5.212   2.485  0.0329  0.0761 -0.2435
 4267TIP3    H234437   0.083   5.118   2.415 -0.0687  0.1734 -0.2349
 4268TIP3   OH234438   2.769   6.022   8.132 -0.3393  0.4160  0.2224
 4268TIP3    H134439   2.699   6.032   8.068 -0.5919  0.9496  0.5770
 4268TIP3    H234440   2.760   6.097   8.190  0.0292  0.0590  0.7518
 4269TIP3   OH234441   2.531   6.043   7.930  0.3987 -0.1610  0.3553
 4269TIP3    H134442   2.462   5.999   7.979 -0.2095  0.8871  0.4806
 4269TIP3    H234443   2.585   5.972   7.896  0.3582 -0.9520  1.8315
 4270TIP3   OH234444   1.553   2.190   0.532  0.0429  0.3162  0.1594
 4270TIP3    H134445   1.580   2.247   0.460 -2.0083  0.4369 -0.5788
 4270TIP3    H234446   1.541   2.104   0.492  0.5054 -0.0109  0.7116
 4271TIP3   OH234447   2.869   6.207   0.456 -1.0241  0.1837 -0.0777
 4271TIP3    H134448   2.930   6.171   0.520 -2.3255 -2.7814 -0.3377
 4271TIP3    H234449   2.925   6.245   0.388  0.6080 -2.5749 -0.4130
 4272TIP3   OH234450   6.651   6.057   0.242  0.2589  0.7442  0.1281
 4272TIP3    H134451   6.673   6.105   0.323 -0.4128  1.0376  0.1439
 4272TIP3    H234452   6.711   6.093   0.176  2.2119 -0.8955  0.9061
 4273TIP3   OH234453   3.628   2.079   0.420 -0.1673 -0.0350 -0.2936
 4273TIP3    H134454   3.620   2.174   0.419  0.4473  0.0420  0.5493
 4273TIP3    H234455   3.702   2.060   0.362  0.8831  0.1626  0.9288
 4274TIP3   OH234456   3.375   5.392   0.449 -0.6868 -0.7067  0.5927
 4274TIP3    H134457   3.439   5.342   0.399 -0.0346  0.5235  0.1790
 4274TIP3    H234458   3.314   5.325   0.482 -1.4533 -1.5437 -2.2029
 4275TIP3   OH234459   0.657   1.706   8.452 -0.1277 -0.2513  0.0220
 4275TIP3    H134460   0.690   1.793   8.429 -1.5276  0.0223 -1.1197
 4275TIP3    H234461   0.589   1.722   8.517  0.7804 -0.6618  1.1005
 4276TIP3   OH234462   4.934   6.011   1.330 -0.2407 -0.7008  0.4047
 4276TIP3    H134463   4.938   6.093   1.379  2.1623  0.6458 -1.7700
 4276TIP3    H234464   5.000   5.956   1.371 -1.1442 -1.2027  1.2243
 4277TIP3   OH234465   1.770   2.415   0.112  0.3883 -0.2791 -0.2368
 4277TIP3    H134466   1.694   2.469   0.132  0.8462 -0.0330  0.9180
 4277TIP3    H234467   1.775   2.415   0.016 -1.0557 -0.3204 -0.3324
 4278TIP3   OH234468   6.437   1.167   1.394 -0.0066  0.0450 -0.4105
 4278TIP3    H134469   6.405   1.083   1.362 -0.1338  0.0562 -0.3129
 4278TIP3    H234470   6.369   1.198   1.454  0.9179 -0.7068  1.0829
 4279TIP3   OH234471   4.941   2.286   7.849 -0.3766 -0.3009  0.7305
 4279TIP3    H134472   5.010   2.350   7.829 -0.2320 -0.7399 -0.2211
 4279TIP3    H234473   4.970   2.205   7.807 -0.9779 -0.7665  1.1953
 4280TIP3   OH234474   2.807   3.288   6.732  0.2711  0.3053  0.2335
 4280TIP3    H134475   2.801   3.193   6.725 -0.4178  0.4396 -1.8085
 4280TIP3    H234476   2.761   3.321   6.654  1.0618  2.2883  0.5334
 4281TIP3   OH234477   6.036   2.136   8.154  0.4374  0.1483 -0.2282
 4281TIP3    H134478   5.979   2.153   8.229 -0.2693 -1.6000 -0.3411
 4281TIP3    H234479   6.108   2.084   8.190 -0.7532 -2.1357 -1.0170
 4282TIP3   OH234480   0.961   2.208   7.832 -0.6471 -0.3312 -0.1260
 4282TIP3    H134481   0.899   2.188   7.762 -0.8813  1.1474 -0.3740
 4282TIP3    H234482   0.949   2.301   7.849  1.5348  0.0230 -0.2238
 4283TIP3   OH234483   2.640   5.540   1.697 -0.6506  0.4732 -0.4672
 4283TIP3    H134484   2.659   5.619   1.647  0.7865  0.5688  0.1809
 4283TIP3    H234485   2.641   5.569   1.788  0.8229 -0.4263 -0.1588
 4284TIP3   OH234486   2.058   5.701   8.051  0.7382 -0.2066  0.2042
 4284TIP3    H134487   2.149   5.671   8.046  0.6881 -0.5034  1.0271
 4284TIP3    H234488   2.046   5.753   7.971  2.6265  2.6015  1.5642
 4285TIP3   OH234489   4.256   3.184   6.774 -0.6219  0.5622 -0.3976
 4285TIP3    H134490   4.189   3.116   6.777  1.2138 -1.3947 -1.1347
 4285TIP3    H234491   4.209   3.264   6.750 -2.9067 -0.3354  0.7710
 4286TIP3   OH234492   6.369   3.724   1.408  0.1657  0.0804 -0.1980
 4286TIP3    H134493   6.314   3.646   1.420 -0.3967  0.6776  1.2093
 4286TIP3    H234494   6.353   3.777   1.485  0.8242  1.4449 -0.9728
 4287TIP3   OH234495   4.679   4.146   7.410 -0.1168 -0.0629  0.5104
 4287TIP3    H134496   4.711   4.236   7.398 -0.1612 -0.0492  0.4966
 4287TIP3    H234497   4.685   4.131   7.504 -0.9476  0.2633  0.6248
 4288TIP3   OH234498   5.845   6.106   0.620 -0.3185  0.2462  0.4094
 4288TIP3    H134499   5.871   6.014   0.629  0.6071  0.5329  0.8291
 4288TIP3    H234500   5.799   6.110   0.536  1.0119 -0.3069 -0.3806
 4289TIP3   OH234501   5.503   1.667   1.123  0.0531 -0.1239  0.3928
 4289TIP3    H134502   5.514   1.596   1.061  1.5799 -1.6406  2.2461
 4289TIP3    H234503   5.528   1.746   1.075  0.4506 -1.1250 -1.0994
 4290TIP3   OH234504   4.681   3.296   1.252  0.0236 -0.4552 -0.1829
 4290TIP3    H134505   4.772   3.271   1.235  0.4740  0.6231  0.5788
 4290TIP3    H234506   4.652   3.235   1.320  0.3543 -0.4295 -0.0185
 4291TIP3   OH234507   0.776   0.643   8.588  0.0838  0.2279  0.4004
 4291TIP3    H134508   0.828   0.602   8.656  2.1887 -0.2834 -1.3896
 4291TIP3    H234509   0.770   0.735   8.614  0.9661  0.0726  1.1767
 4292TIP3   OH234510   0.780   3.089   0.524  0.6083  0.1933  1.1841
 4292TIP3    H134511   0.847   3.025   0.549  0.8318  0.3009  0.8591
 4292TIP3    H234512   0.821   3.142   0.456 -0.9305 -1.9202 -1.5660
 4293TIP3   OH234513   2.671   6.698   7.234  0.0951  0.0792 -0.5012
 4293TIP3    H134514   2.600   6.657   7.186 -0.0325 -2.0216  1.2857
 4293TIP3    H234515   2.740   6.631   7.236  1.5215  1.4625 -0.8179
 4294TIP3   OH234516   2.729   6.594   7.585  0.1890 -0.0662 -0.2841
 4294TIP3    H134517   2.812   6.576   7.629  1.5344 -0.6516 -2.8858
 4294TIP3    H234518   2.728   6.535   7.510 -2.5781 -0.0045 -0.3881
 4295TIP3   OH234519   3.475   4.123   2.085 -0.1338 -0.4319  0.1033
 4295TIP3    H134520   3.549   4.149   2.140  0.2319  1.4217 -1.1835
 4295TIP3    H234521   3.514   4.105   1.999 -0.8982 -1.7446 -0.0026
 4296TIP3   OH234522   2.829   1.709   8.433 -0.1194 -0.0813  0.1321
 4296TIP3    H134523   2.821   1.788   8.379 -0.4674 -1.1418 -1.4480
 4296TIP3    H234524   2.806   1.638   8.374  2.6372 -1.6396  0.7321
 4297TIP3   OH234525   4.379   5.616   1.413 -0.3578 -0.7868  0.2465
 4297TIP3    H134526   4.393   5.606   1.507 -0.5302 -1.8026  0.1788
 4297TIP3    H234527   4.288   5.643   1.406 -0.1587 -0.0711  0.4011
 4298TIP3   OH234528   3.697   3.130   1.656 -0.2797  0.5693  0.0650
 4298TIP3    H134529   3.719   3.081   1.735 -1.2953 -0.3485 -0.2042
 4298TIP3    H234530   3.720   3.221   1.677 -0.3456  0.3074  1.3349
 4299TIP3   OH234531   4.128   2.924   7.584 -0.4252 -0.2220 -0.2607
 4299TIP3    H134532   4.066   2.943   7.655  0.3301 -1.5548  0.8132
 4299TIP3    H234533   4.074   2.887   7.515 -1.0292  0.0480  0.0510
 4300TIP3   OH234534   5.164   0.768   1.081  0.2913 -0.6899  0.6003
 4300TIP3    H134535   5.114   0.838   1.124  0.3842 -1.1991  1.5606
 4300TIP3    H234536   5.255   0.796   1.088  0.3490 -1.0162  1.2051
 4301TIP3   OH234537   4.931   3.552   8.576 -0.3309  0.0880  0.0191
 4301TIP3    H134538   4.991   3.616   8.614  0.1382 -0.4555  0.2092
 4301TIP3    H234539   4.933   3.570   8.482 -1.8659  1.7639  0.2446
 4302TIP3   OH234540   1.058   6.029   7.058 -0.0263  0.0458  0.3990
 4302TIP3    H134541   1.048   5.975   7.137  0.4491 -0.0270  0.4116
 4302TIP3    H234542   1.031   6.117   7.085 -1.4955 -0.3151  0.1948
 4303TIP3   OH234543   1.715   4.244   1.026  0.3177  0.5340 -0.2703
 4303TIP3    H134544   1.638   4.301   1.023 -1.7019 -1.9483  0.6365
 4303TIP3    H234545   1.789   4.304   1.035 -1.4586  3.0481 -1.1628
 4304TIP3   OH234546   5.093   1.712   1.354  0.0610  0.2789  0.2508
 4304TIP3    H134547   5.114   1.684   1.265 -1.2898  1.6649 -0.5481
 4304TIP3    H234548   5.130   1.800   1.360 -1.1841  0.7945  0.5259
 4305TIP3   OH234549   1.890   2.069   7.779  0.3871 -0.0706  0.5908
 4305TIP3    H134550   1.944   1.993   7.798 -0.0975 -1.2324 -2.2170
 4305TIP3    H234551   1.800   2.041   7.798  0.2107 -0.1924 -0.4065
 4306TIP3   OH234552   1.772   5.746   1.076 -0.3065  0.0017  0.2402
 4306TIP3    H134553   1.710   5.675   1.092  0.2467 -0.6039 -0.2479
 4306TIP3    H234554   1.719   5.818   1.042 -0.5982 -0.8716 -1.2146
 4307TIP3   OH234555   0.156   1.646   0.546  0.2548 -0.7962 -0.1689
 4307TIP3    H134556   0.197   1.560   0.548  0.0653 -0.8826  0.0850
 4307TIP3    H234557   0.118   1.657   0.633 -1.2699 -1.2174 -0.7478
 4308TIP3   OH234558   2.984   2.420   0.494  0.5383 -0.3132  0.0382
 4308TIP3    H134559   3.000   2.454   0.582 -0.4332 -0.9918  0.4940
 4308TIP3    H234560   2.995   2.496   0.436 -2.9060  1.2144  1.1472
 4309TIP3   OH234561   6.694   5.270   7.784 -0.3777 -0.2790 -0.0728
 4309TIP3    H134562   6.735   5.331   7.722 -0.2451 -0.6497 -0.3588
 4309TIP3    H234563   6.619   5.236   7.737 -1.6998  1.2322  0.8569
 4310TIP3   OH234564   2.498   6.293   7.827 -0.6901  0.8938 -0.3798
 4310TIP3    H134565   2.408   6.296   7.796 -1.3128 -0.9066  1.0374
 4310TIP3    H234566   2.509   6.204   7.861  1.4814  1.2114 -0.0742
 4311TIP3   OH234567   1.904   5.016   8.611  0.2730  0.2471  0.2864
 4311TIP3    H134568   1.940   4.934   8.645 -1.7168 -0.4406  0.8883
 4311TIP3    H234569   1.819   5.024   8.655  0.1673  2.3346 -0.2218
 4312TIP3   OH234570   0.883   4.728   7.322 -0.3991 -0.0967 -0.0269
 4312TIP3    H134571   0.872   4.772   7.237 -0.3973 -0.8013 -0.3927
 4312TIP3    H234572   0.964   4.678   7.312 -1.3083 -1.5715 -0.2111
 4313TIP3   OH234573   3.738   1.258   7.652  0.2870  0.0720 -0.4644
 4313TIP3    H134574   3.800   1.198   7.694 -2.1437 -1.0199  1.7960
 4313TIP3    H234575   3.729   1.331   7.713 -0.8722  0.0424 -0.5775
 4314TIP3   OH234576   5.511   1.953   1.893  0.4282 -0.0546  0.1584
 4314TIP3    H134577   5.523   1.926   1.802 -1.1065 -2.7217  0.6328
 4314TIP3    H234578   5.419   1.976   1.900  0.2052 -1.1731  1.3009
 4315TIP3   OH234579   2.920   6.109   1.653  0.2799  0.1597 -0.1001
 4315TIP3    H134580   2.972   6.152   1.720 -0.1930  0.7580 -0.1134
 4315TIP3    H234581   2.980   6.045   1.613  0.6763  0.0830  0.6111
 4316TIP3   OH234582   4.188   1.541   2.031  0.2006  0.5652  0.2115
 4316TIP3    H134583   4.230   1.462   1.997 -0.2071  0.5791 -0.3364
 4316TIP3    H234584   4.259   1.590   2.072  1.0062  1.1708 -1.7533
 4317TIP3   OH234585   5.247   2.738   1.220  0.3758 -0.0922  0.5136
 4317TIP3    H134586   5.264   2.828   1.249  2.3800 -0.0911 -0.4689
 4317TIP3    H234587   5.309   2.685   1.270  2.3516 -0.3333 -1.9802
 4318TIP3   OH234588   2.129   2.748   1.295  0.2990 -0.0719 -0.8946
 4318TIP3    H134589   2.074   2.669   1.295  1.3666 -0.8493 -0.4351
 4318TIP3    H234590   2.217   2.715   1.316  0.5108  1.4172  0.7380
 4319TIP3   OH234591   0.522   0.454   1.088  0.4866  0.0672  0.4836
 4319TIP3    H134592   0.468   0.404   1.149  0.0029 -1.1578 -0.8736
 4319TIP3    H234593   0.568   0.518   1.142  0.4669 -1.2966  2.1854
 4320TIP3   OH234594   1.001   6.529   1.298 -0.3846 -0.6803 -0.0266
 4320TIP3    H134595   0.965   6.456   1.248 -2.9500 -0.2169  1.0162
 4320TIP3    H234596   1.009   6.601   1.235 -1.9991 -0.5929 -0.1634
 4321TIP3   OH234597   2.475   5.613   0.645  0.4972  0.2381  0.2853
 4321TIP3    H134598   2.528   5.693   0.648  2.1682 -0.7966 -0.3489
 4321TIP3    H234599   2.504   5.562   0.720 -2.4001  1.2466  2.2349
 4322TIP3   OH234600   5.268   2.734   1.659 -0.2918 -0.0338  0.1698
 4322TIP3    H134601   5.196   2.747   1.721 -0.7360  0.4627 -0.4404
 4322TIP3    H234602   5.346   2.727   1.714 -0.8991 -1.4663  0.9009
 4323TIP3   OH234603   4.582   1.124   0.319 -0.2845  0.3785  0.7206
 4323TIP3    H134604   4.499   1.081   0.296  1.4774 -3.7624  1.1191
 4323TIP3    H234605   4.627   1.060   0.374  2.9338  2.7375  1.1114
 4324TIP3   OH234606   2.850   2.451   7.549  0.4620  0.2946  0.3832
 4324TIP3    H134607   2.933   2.407   7.529  0.8683  0.4880  1.5423
 4324TIP3    H234608   2.876   2.539   7.576 -0.2712  0.9438 -0.9624
 4325TIP3   OH234609   3.979   5.103   8.263 -0.0868  0.1219 -0.1766
 4325TIP3    H134610   3.969   5.193   8.229 -1.7229 -0.6424 -1.9047
 4325TIP3    H234611   4.037   5.061   8.199 -0.9850 -0.5954 -0.5281
 4326TIP3   OH234612   6.066   6.787   7.207 -0.2336 -0.0556  0.2122
 4326TIP3    H134613   5.983   6.809   7.248 -0.1670  3.2284 -1.0974
 4326TIP3    H234614   6.063   6.830   7.121  2.3779 -0.7563 -0.3338
 4327TIP3   OH234615   5.758   2.182   0.610 -0.2397 -0.0543  0.2477
 4327TIP3    H134616   5.799   2.194   0.695 -1.3733 -1.4003  1.0141
 4327TIP3    H234617   5.815   2.121   0.564  0.1980  0.4230  0.1385
 4328TIP3   OH234618   1.111   6.812   1.404 -0.1748  0.4796  0.1083
 4328TIP3    H134619   1.132   6.784   1.315 -2.3595 -2.7390  0.4218
 4328TIP3    H234620   1.037   6.872   1.395 -1.1932 -0.7824 -0.2786
 4329TIP3   OH234621   3.282   3.224   8.083  0.3898  0.3883 -0.1704
 4329TIP3    H134622   3.217   3.277   8.131  0.1067  0.2165 -0.3588
 4329TIP3    H234623   3.230   3.155   8.042  0.8223 -0.3983  0.5708
 4330TIP3   OH234624   2.779   3.295   7.770 -0.7394  0.2642  0.2075
 4330TIP3    H134625   2.771   3.269   7.862 -1.3442 -1.5767 -0.3166
 4330TIP3    H234626   2.846   3.237   7.734  1.9224  3.1297  0.1683
 4331TIP3   OH234627   1.627   6.192   1.648 -0.5028 -0.0835 -0.3775
 4331TIP3    H134628   1.584   6.189   1.563  0.7864 -1.1263 -1.0182
 4331TIP3    H234629   1.628   6.102   1.679  0.2573  0.0750  0.1024
 4332TIP3   OH234630   6.393   0.240   7.694 -0.6640  0.1074 -0.2176
 4332TIP3    H134631   6.330   0.289   7.641 -1.9171 -2.6706 -1.5224
 4332TIP3    H234632   6.455   0.205   7.630  0.3846  0.2474  0.7077
 4333TIP3   OH234633   4.570   5.519   2.491 -0.3055  0.0240 -0.2606
 4333TIP3    H134634   4.651   5.501   2.444 -0.7244 -1.1519 -0.5870
 4333TIP3    H234635   4.588   5.596   2.544  0.9576 -0.1268 -0.4596
 4334TIP3   OH234636   4.937   4.620   7.783  0.5167  0.3705 -0.3462
 4334TIP3    H134637   4.869   4.684   7.768  0.7776  0.3576 -1.6514
 4334TIP3    H234638   4.891   4.543   7.817  0.0597  0.8186  0.0522
 4335TIP3   OH234639   3.832   4.793   2.184 -0.0829  0.6450  0.2433
 4335TIP3    H134640   3.751   4.750   2.212 -0.6316  0.4498 -1.5246
 4335TIP3    H234641   3.836   4.778   2.089  0.4673  3.1974 -0.2300
 4336TIP3   OH234642   4.584   3.072   6.282 -0.3338 -0.3228 -0.2550
 4336TIP3    H134643   4.561   3.041   6.369  2.6033 -1.4049  0.2815
 4336TIP3    H234644   4.660   3.018   6.257  0.6906  1.8741 -2.2669
 4337TIP3   OH234645   2.676   6.854   2.501 -0.4183 -0.2193  0.6577
 4337TIP3    H134646   2.657   6.917   2.571 -1.0372  2.0214 -1.3808
 4337TIP3    H234647   2.760   6.882   2.465 -0.6393 -0.6171 -0.2005
 4338TIP3   OH234648   5.445   6.004   7.232 -0.2153  0.0495 -0.1367
 4338TIP3    H134649   5.481   6.066   7.295 -1.6667  0.7545  0.0300
 4338TIP3    H234650   5.476   5.918   7.262 -0.8823  0.3645  1.5639
 4339TIP3   OH234651   6.515   6.827   7.798 -0.1385  0.3375 -0.1172
 4339TIP3    H134652   6.530   6.902   7.855 -0.1962 -0.1160  0.5051
 4339TIP3    H234653   6.454   6.860   7.731 -2.4908  0.1240  1.7735
 4340TIP3   OH234654   2.611   4.766   1.815 -0.5803  0.2257 -0.5517
 4340TIP3    H134655   2.539   4.711   1.847 -0.9694  0.6407 -0.6978
 4340TIP3    H234656   2.579   4.856   1.826 -1.1728  0.3971 -3.0319
 4341TIP3   OH234657   1.295   2.306   7.720 -0.0149  0.1864 -0.3090
 4341TIP3    H134658   1.237   2.275   7.650 -0.0076  1.2509 -0.8092
 4341TIP3    H234659   1.257   2.389   7.747 -1.2072 -1.1299  2.4209
 4342TIP3   OH234660   5.026   5.956   8.600  0.1962  0.0938  0.3051
 4342TIP3    H134661   5.011   5.947   8.506  1.4190  0.9284  0.0022
 4342TIP3    H234662   5.090   6.027   8.608 -0.6125  0.7043  1.8326
 4343TIP3   OH234663   6.271   4.909   8.261  0.4327 -0.1838 -0.1529
 4343TIP3    H134664   6.194   4.853   8.271  0.2660 -0.0648 -0.7234
 4343TIP3    H234665   6.345   4.848   8.258  0.2627 -0.3695 -0.6587
 4344TIP3   OH234666   2.654   4.398   1.879 -0.2370  0.2561 -0.3085
 4344TIP3    H134667   2.593   4.471   1.882  0.6016  0.9393  1.4192
 4344TIP3    H234668   2.739   4.438   1.901  0.0515 -1.3812  1.8561
 4345TIP3   OH234669   6.877   6.006   8.418 -0.3065  1.1515  0.2655
 4345TIP3    H134670   6.882   6.042   8.330 -2.0305 -2.3711 -1.5028
 4345TIP3    H234671   6.788   5.969   8.423  1.0725 -2.3715  1.8278
 4346TIP3   OH234672   4.476   5.427   2.253 -0.4069 -0.0431 -0.1300
 4346TIP3    H134673   4.476   5.339   2.290 -0.0431  0.5948  1.4628
 4346TIP3    H234674   4.506   5.483   2.324  0.6399  1.2202 -1.4961
 4347TIP3   OH234675   1.762   3.679   0.191  0.1102 -0.1996 -0.1885
 4347TIP3    H134676   1.823   3.646   0.125  1.8861  0.1581  1.1930
 4347TIP3    H234677   1.771   3.774   0.186 -1.3400 -0.0682 -0.8316
 4348TIP3   OH234678   6.452   3.912   6.821 -0.1842  0.0632  0.0593
 4348TIP3    H134679   6.465   3.904   6.916 -0.2778  1.8164  0.2410
 4348TIP3    H234680   6.357   3.915   6.810 -0.1613  0.8404  0.0162
 4349TIP3   OH234681   1.268   1.520   1.704  0.0120  0.1224  0.0082
 4349TIP3    H134682   1.212   1.445   1.686  0.2756  0.0530 -0.5469
 4349TIP3    H234683   1.233   1.557   1.785  0.4112 -1.1047  0.7660
 4350TIP3   OH234684   2.453   5.699   8.555 -0.1231 -0.1371 -0.0732
 4350TIP3    H134685   2.493   5.715   8.640  0.5106 -1.0207 -0.1937
 4350TIP3    H234686   2.372   5.750   8.556 -0.0322 -0.0042  0.9839
 4351TIP3   OH234687   5.294   1.598   8.541  0.2246  0.0771  0.2520
 4351TIP3    H134688   5.220   1.627   8.487  0.1730  1.2854  0.9536
 4351TIP3    H234689   5.291   1.653   8.619  1.1730 -0.6592  0.8354
 4352TIP3   OH234690   0.726   1.045   0.389 -0.2437 -0.1234  0.1098
 4352TIP3    H134691   0.712   1.120   0.447  0.1169 -1.0233  1.4099
 4352TIP3    H234692   0.683   0.972   0.433  1.1805 -1.1183 -0.0701
 4353TIP3   OH234693   1.815   1.230   8.263 -0.0716 -0.6521  0.0423
 4353TIP3    H134694   1.746   1.250   8.200  0.0445 -0.3560  0.0075
 4353TIP3    H234695   1.768   1.195   8.339 -0.3873  0.7435  0.5193
 4354TIP3   OH234696   0.466   1.345   0.282  0.7433 -0.7399  0.0722
 4354TIP3    H134697   0.514   1.399   0.219 -0.1200 -0.9517 -0.7992
 4354TIP3    H234698   0.487   1.382   0.367  1.3188  0.0546 -0.4066
 4355TIP3   OH234699   0.547   3.104   6.650  0.2820  0.1950 -0.5614
 4355TIP3    H134700   0.488   3.171   6.685  1.0621  0.9338 -0.6179
 4355TIP3    H234701   0.500   3.022   6.664 -0.8747  0.7783 -0.8566
 4356TIP3   OH234702   6.394   1.632   7.509 -0.0199  0.3535 -0.3855
 4356TIP3    H134703   6.348   1.664   7.587 -0.0394  0.2897 -0.3710
 4356TIP3    H234704   6.456   1.567   7.542  1.7454  2.0762 -0.0898
 4357TIP3   OH234705   3.074   6.639   8.006 -0.4819 -0.0672 -0.1662
 4357TIP3    H134706   3.167   6.618   8.015  0.1469  3.0778  2.1108
 4357TIP3    H234707   3.034   6.609   8.088 -0.7166  1.7772  0.4394
 4358TIP3   OH234708   0.666   3.567   7.566  0.7907  0.4684 -0.2350
 4358TIP3    H134709   0.647   3.654   7.529 -0.6677  0.4643  0.4127
 4358TIP3    H234710   0.580   3.534   7.593  1.5910 -0.1654  1.7274
 4359TIP3   OH234711   1.846   3.422   8.167 -0.6423  0.0740 -0.4443
 4359TIP3    H134712   1.902   3.371   8.226 -1.5533  0.8913  1.1824
 4359TIP3    H234713   1.907   3.460   8.104  0.1784 -2.1005 -1.0723
 4360TIP3   OH234714   5.075   1.995   0.486 -0.4059  0.0171  0.1938
 4360TIP3    H134715   4.989   2.015   0.449  0.1252  0.9440 -0.5745
 4360TIP3    H234716   5.120   1.945   0.419 -0.6003 -1.1724  0.9075
 4361TIP3   OH234717   2.460   1.667   1.502  1.1775  0.5647  0.1978
 4361TIP3    H134718   2.467   1.762   1.488 -1.2863  0.6950 -0.7315
 4361TIP3    H234719   2.376   1.657   1.547  0.1125 -1.3557 -2.0641
 4362TIP3   OH234720   2.870   4.778   7.305 -0.1399  0.0913 -0.5888
 4362TIP3    H134721   2.835   4.804   7.220  1.2298  2.3493 -0.5440
 4362TIP3    H234722   2.808   4.815   7.368 -0.8370 -1.0791 -0.5577
 4363TIP3   OH234723   0.813   2.451   1.379  0.3583  0.1952 -0.1907
 4363TIP3    H134724   0.858   2.387   1.324 -0.3464  0.3724 -1.0049
 4363TIP3    H234725   0.735   2.474   1.329  0.2988  1.2437  0.3606
 4364TIP3   OH234726   2.582   2.210   8.455  0.2639  0.3301  0.3694
 4364TIP3    H134727   2.496   2.206   8.496  0.4027 -1.3713  0.5607
 4364TIP3    H234728   2.563   2.225   8.362 -0.0820  3.0819  0.7885
 4365TIP3   OH234729   6.661   6.046   8.076 -0.4071  0.4719  0.7444
 4365TIP3    H134730   6.635   6.070   7.987  0.9080 -0.0081  0.2065
 4365TIP3    H234731   6.722   6.116   8.102  2.3852 -1.3729 -0.3235
 4366TIP3   OH234732   1.676   2.820   0.100  0.2648  0.4005 -1.1831
 4366TIP3    H134733   1.678   2.905   0.142 -0.4939  0.3984 -1.1211
 4366TIP3    H234734   1.764   2.784   0.113  0.0836  0.4376  0.3291
 4367TIP3   OH234735   2.472   6.497   7.579 -0.4575 -0.7214 -0.0095
 4367TIP3    H134736   2.539   6.562   7.602  0.4999 -0.6250 -2.7677
 4367TIP3    H234737   2.505   6.415   7.617  0.2981 -0.3288  0.2021
 4368TIP3   OH234738   0.027   4.896   2.051 -0.5688 -0.4006  0.2704
 4368TIP3    H134739   0.004   4.917   2.142  0.1111  0.0151  0.3593
 4368TIP3    H234740  -0.032   4.825   2.027 -1.6814  0.3829  0.5960
 4369TIP3   OH234741   0.055   4.354   1.809  0.1903  0.1094 -0.3860
 4369TIP3    H134742   0.137   4.360   1.859  0.2918  1.5508 -0.6741
 4369TIP3    H234743  -0.013   4.341   1.875  0.4701  0.6413  0.0146
 4370TIP3   OH234744   1.841   0.086   2.732  0.1039 -0.1977  0.4174
 4370TIP3    H134745   1.844   0.179   2.753  0.3498 -0.2469  0.5985
 4370TIP3    H234746   1.891   0.043   2.801  2.7816 -0.1528 -1.3600
 4371TIP3   OH234747   5.143   1.167   1.906 -0.2699  0.1427  0.1055
 4371TIP3    H134748   5.119   1.151   1.815  0.7480 -0.4010 -0.0763
 4371TIP3    H234749   5.103   1.095   1.955 -0.3532  0.1286  0.0171
 4372TIP3   OH234750   0.760   5.945   7.634 -0.0904  0.5542 -0.2803
 4372TIP3    H134751   0.756   5.856   7.669  0.0173  1.2317  1.5787
 4372TIP3    H234752   0.688   5.949   7.570  0.0688 -0.9189 -0.5919
 4373TIP3   OH234753   5.102   2.474   6.720  0.3066  0.6480  0.0713
 4373TIP3    H134754   5.130   2.400   6.668 -1.5849 -0.3015  0.3133
 4373TIP3    H234755   5.041   2.522   6.664 -1.5139 -0.2154  1.2118
 4374TIP3   OH234756   0.456   0.906   2.234 -0.4139 -0.3187 -0.1686
 4374TIP3    H134757   0.494   0.942   2.315 -1.4049 -1.3529  0.7963
 4374TIP3    H234758   0.421   0.821   2.260 -1.0259 -0.5427 -1.6312
 4375TIP3   OH234759   1.747   1.079   2.531  0.7134  0.0568  0.3825
 4375TIP3    H134760   1.841   1.096   2.534  0.7711 -0.2350  0.2845
 4375TIP3    H234761   1.740   0.993   2.490  0.5770 -1.4391  3.2711
 4376TIP3   OH234762   6.728   2.184   1.955  0.5466 -0.2996 -0.2277
 4376TIP3    H134763   6.655   2.219   1.904 -0.4747  1.0072  1.9705
 4376TIP3    H234764   6.687   2.138   2.028  1.9005 -0.3038  0.5669
 4377TIP3   OH234765   0.749   3.319   1.290 -0.0980 -0.7248 -0.1479
 4377TIP3    H134766   0.737   3.257   1.362  0.3597 -0.2720  0.3340
 4377TIP3    H234767   0.813   3.276   1.233  1.2219 -0.1660  0.8541
 4378TIP3   OH234768   3.245   3.789   1.482  0.2305 -0.4847 -0.4823
 4378TIP3    H134769   3.232   3.840   1.562  1.2536  1.0727 -1.2548
 4378TIP3    H234770   3.215   3.847   1.412  3.2178 -0.0661 -1.5703
 4379TIP3   OH234771   1.857   2.275   0.557  0.1511 -0.6725 -0.1381
 4379TIP3    H134772   1.875   2.231   0.474 -1.1417  1.1793 -1.4899
 4379TIP3    H234773   1.770   2.314   0.545 -1.1481 -2.2539  2.9610
 4380TIP3   OH234774   6.811   5.049   0.278  0.1859 -0.4375 -0.6725
 4380TIP3    H134775   6.843   5.123   0.330  1.1527 -1.1610 -0.2124
 4380TIP3    H234776   6.854   5.059   0.193 -1.1750  0.5845 -1.2890
 4381TIP3   OH234777   3.056   3.874   0.072  0.0709  0.3034 -0.2460
 4381TIP3    H134778   3.041   3.933  -0.002 -1.3699 -1.2733 -1.2809
 4381TIP3    H234779   3.101   3.798   0.034  2.3330  0.8487  1.1426
 4382TIP3   OH234780   2.801   0.791   1.562  0.0795  0.3083 -0.3561
 4382TIP3    H134781   2.803   0.698   1.541 -0.2500 -0.1676  1.5338
 4382TIP3    H234782   2.891   0.821   1.547  0.6526 -0.7608  0.7702
 4383TIP3   OH234783   6.203   6.906   7.705 -0.0310  0.0012  0.1954
 4383TIP3    H134784   6.272   6.905   7.638  0.8419  0.4762  1.0616
 4383TIP3    H234785   6.138   6.967   7.672  0.0251 -0.3435 -0.5729
 4384TIP3   OH234786   3.356   3.597   1.962  0.7334 -1.0617 -0.1719
 4384TIP3    H134787   3.278   3.561   2.004 -0.0837  1.4468  0.6511
 4384TIP3    H234788   3.338   3.592   1.868  0.2038 -1.7961 -0.0334
 4385TIP3   OH234789   2.441   4.460   0.073  0.3063 -0.5128  0.7382
 4385TIP3    H134790   2.415   4.435  -0.015  2.1279  0.3491 -0.1068
 4385TIP3    H234791   2.387   4.406   0.130 -2.7223  0.6551 -0.7948
 4386TIP3   OH234792   3.164   5.681   1.415  0.0813  0.1377 -0.2925
 4386TIP3    H134793   3.123   5.752   1.465 -0.1184 -1.8134  2.5709
 4386TIP3    H234794   3.255   5.679   1.446  0.4421 -0.0275 -1.3351
 4387TIP3   OH234795   1.158   0.090   1.047 -0.0089  0.0952  0.1284
 4387TIP3    H134796   1.079   0.090   0.993 -1.3885 -0.0230  2.0509
 4387TIP3    H234797   1.145   0.161   1.110  0.9662 -0.5438  1.0901
 4388TIP3   OH234798   2.229   4.115   0.712 -0.1775 -0.1323 -0.0792
 4388TIP3    H134799   2.186   4.150   0.791  0.9060 -1.5299  1.2013
 4388TIP3    H234800   2.196   4.025   0.704 -2.2226  0.7339 -2.7804
 4389TIP3   OH234801   1.248   0.827   7.938 -0.2698 -0.2350  0.1102
 4389TIP3    H134802   1.329   0.821   7.888 -0.1487  1.6415 -0.0064
 4389TIP3    H234803   1.275   0.839   8.029 -0.2776  2.4147 -0.1520
 4390TIP3   OH234804   5.869   4.730   7.221  0.1184  0.2805  0.2469
 4390TIP3    H134805   5.788   4.698   7.181  0.0624  0.5790  0.1199
 4390TIP3    H234806   5.888   4.668   7.291 -0.8012  0.8183  0.9851
 4391TIP3   OH234807   2.456   5.555   8.327  0.2801  0.0162  0.2659
 4391TIP3    H134808   2.370   5.515   8.339  1.3386 -2.1839  1.0095
 4391TIP3    H234809   2.471   5.604   8.408 -0.4400  0.8424 -0.0756
 4392TIP3   OH234810   3.870   4.827   1.308 -0.1564 -0.3355 -0.3463
 4392TIP3    H134811   3.909   4.891   1.367 -0.6023  0.2652 -0.6939
 4392TIP3    H234812   3.820   4.879   1.245 -0.8723 -1.0414 -0.3871
 4393TIP3   OH234813   4.835   1.712   2.744 -0.0103  0.0022 -0.0862
 4393TIP3    H134814   4.779   1.707   2.821  0.4291 -0.3982  0.2114
 4393TIP3    H234815   4.882   1.795   2.755  0.2760 -0.1988  0.2389
 4394TIP3   OH234816   1.402   1.083   8.503  0.1201 -0.8160  0.0534
 4394TIP3    H134817   1.327   1.028   8.525 -0.0339 -0.2368  1.0142
 4394TIP3    H234818   1.363   1.165   8.471  0.2577  0.3535  2.6458
 4395TIP3   OH234819   5.625   5.262   1.918  0.0543  0.7162 -0.1777
 4395TIP3    H134820   5.604   5.249   2.011 -0.4161  1.6563 -0.1363
 4395TIP3    H234821   5.661   5.350   1.914 -1.1252  1.1927 -1.0593
 4396TIP3   OH234822   0.561   2.696   8.452  0.8996 -0.2647 -0.0631
 4396TIP3    H134823   0.556   2.696   8.356 -0.0972 -0.7930 -0.0309
 4396TIP3    H234824   0.472   2.716   8.480  1.3117  0.4590  0.7616
 4397TIP3   OH234825   1.310   2.771   7.666  0.0145 -0.1882 -0.3255
 4397TIP3    H134826   1.259   2.839   7.711 -0.9686  0.6379 -2.5054
 4397TIP3    H234827   1.395   2.812   7.649  0.1640 -0.2780  0.1794
 4398TIP3   OH234828   1.585   1.083   2.757  0.2133  0.2122 -0.0680
 4398TIP3    H134829   1.625   1.074   2.670  0.1287 -2.2649  0.0866
 4398TIP3    H234830   1.658   1.080   2.818  0.0751 -1.8511  0.0816
 4399TIP3   OH234831   6.199   0.368   2.476  0.4404  0.3598  0.2840
 4399TIP3    H134832   6.130   0.394   2.538 -0.5536  0.1955 -0.7261
 4399TIP3    H234833   6.186   0.274   2.464  1.1460  0.2361  0.4221
 4400TIP3   OH234834   2.980   2.730   7.800  0.2923 -0.6173  0.4394
 4400TIP3    H134835   2.995   2.679   7.880  0.3489  0.2909  1.0215
 4400TIP3    H234836   3.067   2.740   7.761  0.8434  1.8387  2.0854
 4401TIP3   OH234837   0.433   1.544   8.180 -0.1961  0.1825 -0.0790
 4401TIP3    H134838   0.417   1.639   8.185 -0.1914  0.2879 -1.6191
 4401TIP3    H234839   0.528   1.536   8.170 -0.3411  0.1440 -1.7442
 4402TIP3   OH234840   4.881   6.330   7.408 -0.1740 -0.1360 -0.0401
 4402TIP3    H134841   4.817   6.399   7.388 -0.8000 -0.8234 -0.4751
 4402TIP3    H234842   4.906   6.295   7.322 -1.0305 -1.4627  0.2087
 4403TIP3   OH234843   6.226   3.944   8.296 -0.0513 -0.1224  0.1715
 4403TIP3    H134844   6.153   3.989   8.338 -0.3455 -1.6124  1.3361
 4403TIP3    H234845   6.184   3.879   8.239  0.3510 -0.4632  0.2580
 4404TIP3   OH234846   0.162   5.049   7.644  0.0349  0.3141  0.2329
 4404TIP3    H134847   0.185   5.112   7.712  1.6760  2.1354 -1.8688
 4404TIP3    H234848   0.246   5.013   7.614 -0.8203 -3.1016  1.4184
 4405TIP3   OH234849   5.345   6.221   7.008 -0.0115 -0.7168 -0.0602
 4405TIP3    H134850   5.306   6.308   7.002  2.1008  0.1815 -2.0691
 4405TIP3    H234851   5.371   6.212   7.100  1.1061  1.4463 -0.1040
 4406TIP3   OH234852   1.167   6.718   7.682  0.1766 -0.3387  0.0019
 4406TIP3    H134853   1.154   6.624   7.675 -2.5410 -0.1576  1.1810
 4406TIP3    H234854   1.210   6.731   7.767 -2.0195 -0.4426  1.2032
 4407TIP3   OH234855   6.697   6.657   8.477 -0.3652  0.3845  0.3652
 4407TIP3    H134856   6.651   6.589   8.527  1.3425 -1.1456 -0.0526
 4407TIP3    H234857   6.749   6.704   8.543  1.2292 -1.0845  0.2168
 4408TIP3   OH234858   6.546   0.149   7.204 -0.5139 -0.0982 -0.0605
 4408TIP3    H134859   6.578   0.235   7.177 -0.4077  0.6367  2.1608
 4408TIP3    H234860   6.477   0.169   7.268  0.0062 -1.6380  1.0427
 4409TIP3   OH234861   2.725   1.392   7.493  0.2910  0.4513 -0.2804
 4409TIP3    H134862   2.659   1.355   7.434 -0.6783  1.0674  0.3686
 4409TIP3    H234863   2.803   1.403   7.439 -0.9590  2.2861 -1.8378
 4410TIP3   OH234864   3.613   0.844   2.373  0.1502  0.3667  0.4582
 4410TIP3    H134865   3.707   0.855   2.390  0.2508  1.1543 -0.5266
 4410TIP3    H234866   3.572   0.849   2.459  0.9105  1.1702  0.7806
 4411TIP3   OH234867   3.883   1.279   1.245 -0.0208 -0.1066 -0.9966
 4411TIP3    H134868   3.794   1.256   1.273  0.4562 -0.3062  0.4084
 4411TIP3    H234869   3.917   1.199   1.206  0.0861 -0.4994 -0.1094
 4412TIP3   OH234870   1.371   6.160   2.481  0.6530  0.1643 -0.2368
 4412TIP3    H134871   1.305   6.225   2.506 -1.5011 -2.0519  0.2065
 4412TIP3    H234872   1.353   6.143   2.388  0.3065 -0.7252 -0.0176
 4413TIP3   OH234873   3.877   5.728   1.171 -0.2211 -0.5694 -0.6659
 4413TIP3    H134874   3.898   5.778   1.092 -1.2756 -0.4440 -0.8809
 4413TIP3    H234875   3.795   5.685   1.150 -0.8695  0.0045  0.6094
 4414TIP3   OH234876   6.151   3.755   8.121 -0.1950  0.6942 -0.3071
 4414TIP3    H134877   6.205   3.781   8.046 -0.9779  2.1934 -0.3893
 4414TIP3    H234878   6.062   3.755   8.088 -0.5956  1.7416  0.6896
 4415TIP3   OH234879   3.833   4.890   7.119 -0.0775  0.3719  0.3445
 4415TIP3    H134880   3.808   4.800   7.099 -0.9393  0.0772  2.5574
 4415TIP3    H234881   3.751   4.939   7.115  0.2736  0.9394 -0.1016
 4416TIP3   OH234882   1.605   3.618   7.995 -0.7586  1.1283 -0.0688
 4416TIP3    H134883   1.678   3.582   7.946 -0.9974 -0.6289  0.7834
 4416TIP3    H234884   1.532   3.620   7.933 -0.3063  1.7383 -0.5849
 4417TIP3   OH234885   4.741   0.509   0.214 -0.3427 -0.0270  0.4384
 4417TIP3    H134886   4.690   0.440   0.256 -0.0952  0.2496  1.2157
 4417TIP3    H234887   4.676   0.575   0.188 -0.6120 -0.6696 -0.5717
 4418TIP3   OH234888   5.587   1.701   8.638 -0.3043  0.3089  0.4649
 4418TIP3    H134889   5.681   1.687   8.625 -0.6403 -1.1345 -0.7860
 4418TIP3    H234890   5.576   1.796   8.639  1.0726  0.4982 -0.1459
 4419TIP3   OH234891   3.544   3.136   6.613 -0.5220 -0.9247 -0.1852
 4419TIP3    H134892   3.599   3.138   6.535  0.5366  1.7190  0.5174
 4419TIP3    H234893   3.578   3.063   6.664 -0.5421 -2.0318 -1.6902
 4420TIP3   OH234894   6.445   0.307   1.069 -0.0015 -0.1285  0.1978
 4420TIP3    H134895   6.354   0.279   1.075 -0.5211  1.0452 -1.5051
 4420TIP3    H234896   6.441   0.394   1.028  1.7068  1.2406  2.6517
 4421TIP3   OH234897   5.966   6.664   0.902 -1.0444  0.0743 -0.0458
 4421TIP3    H134898   6.038   6.637   0.845 -1.5147 -1.8581  0.2035
 4421TIP3    H234899   5.962   6.597   0.970 -0.8523  1.9983  2.0110
 4422TIP3   OH234900   5.168   4.769   6.648 -0.0216  0.1224 -0.0461
 4422TIP3    H134901   5.094   4.820   6.682  1.2986  0.3673  2.8076
 4422TIP3    H234902   5.234   4.834   6.625  0.7865 -0.1684  1.3455
 4423TIP3   OH234903   5.404   5.358   0.457  0.3325 -0.2232 -0.5886
 4423TIP3    H134904   5.329   5.316   0.499  0.7716 -0.9560 -0.5201
 4423TIP3    H234905   5.470   5.289   0.451  1.1034  0.4808 -0.4080
 4424TIP3   OH234906   1.303   1.717   0.137 -0.0801  0.2060 -0.4333
 4424TIP3    H134907   1.300   1.622   0.129 -1.7292  0.3223 -1.5929
 4424TIP3    H234908   1.395   1.739   0.128  0.1598 -1.1685 -1.6548
 4425TIP3   OH234909   1.822   4.067   0.319 -0.0869 -0.1298  0.4198
 4425TIP3    H134910   1.726   4.072   0.320 -0.2273 -1.5343 -1.4407
 4425TIP3    H234911   1.845   4.065   0.226  1.3147 -5.7297  0.5488
 4426TIP3   OH234912   5.046   3.832   6.863 -0.2216 -0.0277 -0.3578
 4426TIP3    H134913   5.012   3.885   6.791 -0.2718  1.0529  0.4370
 4426TIP3    H234914   5.053   3.743   6.827  0.2606  0.5929 -1.8539
 4427TIP3   OH234915   0.108   6.012   0.934 -0.5755  0.1509  0.4227
 4427TIP3    H134916   0.145   6.054   1.012  1.9842 -1.2131  0.0436
 4427TIP3    H234917   0.076   5.927   0.965  0.9873 -0.6464 -0.0458
 4428TIP3   OH234918   3.444   5.583   6.680 -0.0507  0.6226 -0.0428
 4428TIP3    H134919   3.477   5.655   6.626 -0.3691  0.8146  0.0130
 4428TIP3    H234920   3.438   5.621   6.768  0.7469  0.2263  0.1932
 4429TIP3   OH234921   4.941   4.342   1.280 -0.3256  0.0044 -0.5380
 4429TIP3    H134922   4.980   4.373   1.199 -0.1825  0.1256 -0.4218
 4429TIP3    H234923   4.944   4.417   1.340 -1.5227  0.2974 -0.8043
 4430TIP3   OH234924   0.245   1.880   0.439  0.5809 -0.7383 -0.3174
 4430TIP3    H134925   0.217   1.791   0.461  0.9232 -0.4896  1.2453
 4430TIP3    H234926   0.337   1.870   0.415  1.0547 -0.6424  1.3224
 4431TIP3   OH234927   3.566   6.424   8.385 -0.3570  1.0975  0.2688
 4431TIP3    H134928   3.619   6.462   8.454 -0.6876  0.4819  0.8826
 4431TIP3    H234929   3.528   6.499   8.339 -0.0282  1.5179  0.6770
 4432TIP3   OH234930   5.099   1.437   0.188 -0.0441  0.2973 -0.7290
 4432TIP3    H134931   5.073   1.523   0.220  1.7597  0.7412 -0.3787
 4432TIP3    H234932   5.117   1.386   0.268  0.6584  0.1805 -0.9526
 4433TIP3   OH234933   5.341   2.100   2.269 -0.1375  0.4137 -0.4248
 4433TIP3    H134934   5.354   2.038   2.197  0.2763  1.6268 -1.4352
 4433TIP3    H234935   5.430   2.124   2.295 -0.2763 -0.4031  0.8690
 4434TIP3   OH234936   0.602   6.559   0.656 -0.0913 -0.3676  0.2127
 4434TIP3    H134937   0.538   6.574   0.725 -0.2153 -2.1255  0.5218
 4434TIP3    H234938   0.650   6.481   0.684 -0.7253 -1.6725 -2.0360
 4435TIP3   OH234939   1.525   5.716   2.357  0.0058  0.0332  0.0286
 4435TIP3    H134940   1.553   5.755   2.274 -3.0305  1.1891 -0.5769
 4435TIP3    H234941   1.530   5.788   2.420  0.5933 -0.3790  0.4700
 4436TIP3   OH234942   6.674   3.269   0.761 -0.4175  0.0632  0.2613
 4436TIP3    H134943   6.644   3.280   0.851 -0.0170  1.3876  0.2535
 4436TIP3    H234944   6.764   3.300   0.762 -0.8189  1.3511 -0.8564
 4437TIP3   OH234945   4.485   0.771   1.053  0.2012 -0.0961 -0.3480
 4437TIP3    H134946   4.528   0.749   1.136 -0.2316  1.7288  0.4055
 4437TIP3    H234947   4.392   0.768   1.072 -0.0069 -2.1388 -1.4708
 4438TIP3   OH234948   6.797   1.049   8.221  0.9066 -0.4382 -0.2328
 4438TIP3    H134949   6.813   0.995   8.298  1.7377  2.8380  2.1206
 4438TIP3    H234950   6.701   1.057   8.218  0.8563 -0.6889  0.4200
 4439TIP3   OH234951   6.188   4.055   0.260  0.7098  0.0735 -0.5943
 4439TIP3    H134952   6.219   4.025   0.174  0.0405  0.5766 -1.0269
 4439TIP3    H234953   6.100   4.090   0.243  0.7713  0.6583  0.2007
 4440TIP3   OH234954   5.704   6.178   7.271 -0.2968 -0.3208  0.0867
 4440TIP3    H134955   5.718   6.181   7.176 -1.6928 -1.8375 -0.2226
 4440TIP3    H234956   5.676   6.266   7.294  1.6220  0.5084 -0.6076
 4441TIP3   OH234957   5.863   5.639   7.738 -0.3901 -0.1620  0.1472
 4441TIP3    H134958   5.849   5.706   7.671  0.6914 -0.0160  0.0547
 4441TIP3    H234959   5.793   5.575   7.723  0.3369 -0.5688 -1.6529
 4442TIP3   OH234960   3.670   3.018   7.769  0.1659  0.1505  0.2390
 4442TIP3    H134961   3.741   2.994   7.829 -0.1623 -0.9101  0.2261
 4442TIP3    H234962   3.590   2.986   7.812 -0.0754 -0.6100 -0.7285
 4443TIP3   OH234963   0.087   4.428   0.753  0.3323  0.3231 -0.1253
 4443TIP3    H134964   0.101   4.382   0.835  2.9989  1.1814 -0.0106
 4443TIP3    H234965   0.007   4.480   0.767  0.8068  0.5592  1.9666
 4444TIP3   OH234966   3.695   2.799   8.334  0.1972 -0.3222 -0.1028
 4444TIP3    H134967   3.641   2.749   8.272  0.8994  0.2896 -1.2378
 4444TIP3    H234968   3.717   2.879   8.287  1.9829 -0.4950  0.3812
 4445TIP3   OH234969   2.890   0.073   2.406 -0.4534  0.3468 -0.3867
 4445TIP3    H134970   2.827   0.124   2.355 -1.4316  0.4040  0.8243
 4445TIP3    H234971   2.920   0.133   2.475 -1.3413 -0.5620  0.8386
 4446TIP3   OH234972   4.327   4.129   0.997  0.1989 -0.0576 -0.0538
 4446TIP3    H134973   4.284   4.185   1.061  1.1596 -0.3005  0.8380
 4446TIP3    H234974   4.369   4.060   1.049  0.2439 -0.7841 -1.0139
 4447TIP3   OH234975   6.290   3.281   0.301  0.1206  0.3113  0.0176
 4447TIP3    H134976   6.270   3.238   0.384 -0.3373 -3.6539 -1.8737
 4447TIP3    H234977   6.204   3.299   0.262  0.3157  0.0353 -0.5442
 4448TIP3   OH234978   3.499   0.002   7.136 -0.2164 -0.3147 -0.4760
 4448TIP3    H134979   3.407   0.020   7.153 -0.2160  1.2448 -1.8512
 4448TIP3    H234980   3.512   0.026   7.044  1.4769 -0.8879 -0.4366
 4449TIP3   OH234981   5.238   2.639   7.278  0.0297  0.0431 -0.0429
 4449TIP3    H134982   5.176   2.572   7.249 -2.4503  2.2219 -0.0697
 4449TIP3    H234983   5.324   2.598   7.266 -1.3326 -3.3332  0.5231
 4450TIP3   OH234984   6.478   4.110   2.300  0.1812  0.2636 -0.4436
 4450TIP3    H134985   6.398   4.073   2.337 -0.1609 -0.0337 -1.4465
 4450TIP3    H234986   6.549   4.068   2.348 -0.2501 -0.1396 -0.1503
 4451TIP3   OH234987   6.462   0.051   8.412  0.3807 -0.2639  0.2804
 4451TIP3    H134988   6.475   0.138   8.374 -0.5833  0.0376  0.6095
 4451TIP3    H234989   6.489  -0.009   8.342  1.5623  0.2839  0.2366
 4452TIP3   OH234990   3.719   4.625   7.880 -0.0580 -0.0754  0.0165
 4452TIP3    H134991   3.807   4.658   7.896  0.1410  0.6243 -2.2441
 4452TIP3    H234992   3.699   4.571   7.957  2.4128 -0.4497  0.4665
 4453TIP3   OH234993   6.547   1.874   1.904  0.0751 -0.4213 -0.2409
 4453TIP3    H134994   6.520   1.940   1.968  2.2189  1.1167 -0.8007
 4453TIP3    H234995   6.561   1.794   1.956  0.2981  0.3700  0.9520
 4454TIP3   OH234996   4.131   0.288   8.545  0.6892  0.5768  0.3268
 4454TIP3    H134997   4.223   0.291   8.570  0.6102  1.8658  0.4927
 4454TIP3    H234998   4.131   0.305   8.450  0.6608 -0.0640  0.2051
 4455TIP3   OH234999   6.700   1.158   0.857  0.4569  0.2550  0.5360
 4455TIP3    H135000   6.724   1.069   0.880 -0.3049  0.4861  2.3889
 4455TIP3    H235001   6.647   1.189   0.931  1.7539  2.6770  0.5662
 4456TIP3   OH235002   4.185   4.076   8.547  0.1280 -0.0169  0.0515
 4456TIP3    H135003   4.171   4.171   8.551 -0.3709 -0.1139  0.8507
 4456TIP3    H235004   4.197   4.058   8.454  0.9719  0.9307 -0.0474
 4457TIP3   OH235005   3.478   1.841   8.459 -0.3180 -0.7086 -0.3787
 4457TIP3    H135006   3.507   1.822   8.369  0.6347 -1.7199  0.1134
 4457TIP3    H235007   3.509   1.930   8.475 -2.4306  0.3672 -1.7830
 4458TIP3   OH235008   4.269   2.327   6.917  0.4903 -0.0769  1.1416
 4458TIP3    H135009   4.350   2.313   6.867  0.7894 -0.1852  1.6496
 4458TIP3    H235010   4.274   2.419   6.945 -0.0287  0.2003  0.3633
 4459TIP3   OH235011   6.058   1.520   7.810  0.3928 -0.1436  0.9435
 4459TIP3    H135012   6.124   1.588   7.819 -0.5530  1.1587 -1.2619
 4459TIP3    H235013   5.975   1.567   7.806 -0.2866 -1.3797 -0.6674
 4460TIP3   OH235014   6.183   4.081   7.039 -0.4868 -0.3371 -0.4526
 4460TIP3    H135015   6.116   4.055   7.102  0.8780  2.5146  2.4798
 4460TIP3    H235016   6.244   4.007   7.038 -1.8835 -1.5466 -0.5826
 4461TIP3   OH235017   0.044   1.444   6.702  0.3447  0.0104 -0.0749
 4461TIP3    H135018   0.112   1.433   6.635  1.5393 -2.2432  1.3799
 4461TIP3    H235019   0.052   1.367   6.757 -1.0120  1.4618  2.3323
 4462TIP3   OH235020   1.811   3.147   7.257 -0.4591 -0.0023  0.0051
 4462TIP3    H135021   1.796   3.132   7.164 -0.4962  0.8515 -0.1333
 4462TIP3    H235022   1.725   3.167   7.293 -0.6404 -1.4945  0.4665
 4463TIP3   OH235023   6.536   4.654   2.238  0.2646 -0.1587 -0.1533
 4463TIP3    H135024   6.462   4.593   2.230  0.8745 -0.7626 -1.7988
 4463TIP3    H235025   6.503   4.725   2.292 -2.2736  0.6489 -2.5134
 4464TIP3   OH235026   4.636   0.969   7.245 -0.1787  0.6727 -0.2680
 4464TIP3    H135027   4.608   1.052   7.283  0.2525  0.9023 -0.4433
 4464TIP3    H235028   4.585   0.961   7.164  0.8366  1.4883 -1.0113
 4465TIP3   OH235029   3.662   1.289   7.371  1.1439  0.0443 -0.5723
 4465TIP3    H135030   3.691   1.291   7.463  2.4673  1.1330 -0.9720
 4465TIP3    H235031   3.667   1.380   7.342  2.3318 -0.4789 -2.1723
 4466TIP3   OH235032   4.150   3.340   2.365  0.1137 -0.2998 -0.2834
 4466TIP3    H135033   4.224   3.289   2.397  0.8215 -1.0206 -2.7955
 4466TIP3    H235034   4.081   3.276   2.351  0.0990 -0.1550 -0.9115
 4467TIP3   OH235035   2.551   0.529   7.285 -0.5038 -0.0394  0.7410
 4467TIP3    H135036   2.529   0.569   7.369  1.3197 -1.3265  1.9135
 4467TIP3    H235037   2.644   0.548   7.273 -0.2197 -1.6662  0.0823
 4468TIP3   OH235038   4.405   0.109   0.086 -0.1444 -0.0078  0.3146
 4468TIP3    H135039   4.317   0.115   0.124 -0.5303 -1.8861 -0.1958
 4468TIP3    H235040   4.452   0.050   0.145  0.9842  1.4111  0.8921
 4469TIP3   OH235041   0.360   5.081   0.848  1.0604 -0.3483  0.6730
 4469TIP3    H135042   0.363   4.996   0.804  2.4074 -0.0216  0.1053
 4469TIP3    H235043   0.301   5.067   0.922 -1.3688 -0.9017 -1.2027
 4470TIP3   OH235044   0.600   1.028   7.489  0.4263 -0.0687 -0.4283
 4470TIP3    H135045   0.541   1.100   7.510  0.5247 -0.1231  0.0500
 4470TIP3    H235046   0.590   0.967   7.562  0.8663 -0.2110 -0.4821
 4471TIP3   OH235047   3.522   3.168   0.069  0.2933  0.1825 -0.1926
 4471TIP3    H135048   3.506   3.257   0.103  1.1381 -0.0580  0.9060
 4471TIP3    H235049   3.489   3.110   0.138 -1.4212 -0.4018 -1.4525
 4472TIP3   OH235050   2.536   0.454   0.041  0.1424 -0.1589  0.1785
 4472TIP3    H135051   2.513   0.488  -0.046  0.5112  0.6712  0.3941
 4472TIP3    H235052   2.605   0.513   0.072 -0.4096 -0.0839  1.2872
 4473TIP3   OH235053   6.634   6.256   6.355 -0.8278  0.5240 -0.3803
 4473TIP3    H135054   6.547   6.297   6.359 -0.6772  0.8206 -0.1048
 4473TIP3    H235055   6.695   6.328   6.341 -0.2980  0.8039  2.6520
 4474TIP3   OH235056   5.996   3.909   7.486 -0.3939  0.3026  0.2139
 4474TIP3    H135057   5.939   3.866   7.422  1.1123 -0.1120 -0.9072
 4474TIP3    H235058   6.022   3.991   7.445  1.5260 -0.4886 -0.3022
 4475TIP3   OH235059   5.334   5.379   0.180  0.1892 -0.3606 -0.8486
 4475TIP3    H135060   5.341   5.381   0.275  0.4807 -1.0964 -0.8456
 4475TIP3    H235061   5.424   5.389   0.149  0.0234  0.4945 -1.0628
 4476TIP3   OH235062   4.409   1.362   2.538 -0.4294 -0.3664  0.5332
 4476TIP3    H135063   4.456   1.334   2.616 -2.1434  0.7946  2.0943
 4476TIP3    H235064   4.415   1.288   2.478  2.3219 -0.6733  1.0794
 4477TIP3   OH235065   6.356   3.539   7.172  0.3412  0.1356  0.2702
 4477TIP3    H135066   6.412   3.482   7.225  2.8468  0.4251 -1.8162
 4477TIP3    H235067   6.354   3.622   7.219  2.6790  0.4551 -0.0665
 4478TIP3   OH235068   0.642   3.864   8.017 -0.0652 -0.1892 -0.1681
 4478TIP3    H135069   0.726   3.864   8.063  0.2933  2.3071 -0.7248
 4478TIP3    H235070   0.648   3.790   7.957  1.7513 -0.0361 -0.2313
 4479TIP3   OH235071   3.885   5.885   1.627 -0.3665  0.5557 -0.2247
 4479TIP3    H135072   3.901   5.791   1.631 -0.9734  0.4567  0.0409
 4479TIP3    H235073   3.843   5.906   1.710 -0.7846  0.9476 -0.5299
 4480TIP3   OH235074   3.164   5.907   0.431  0.7787  0.4073  0.4950
 4480TIP3    H135075   3.219   5.834   0.457  0.3648 -0.0981 -0.0191
 4480TIP3    H235076   3.081   5.893   0.477 -0.0570 -0.6392 -1.1956
 4481TIP3   OH235077   0.593   3.769   6.907 -0.5339 -0.1531 -0.3232
 4481TIP3    H135078   0.537   3.820   6.849 -0.7117  1.9848  1.5742
 4481TIP3    H235079   0.580   3.679   6.880 -1.7585  0.6088 -2.5538
 4482TIP3   OH235080   3.313   6.352   1.234 -0.1185 -0.4310  0.5712
 4482TIP3    H135081   3.235   6.298   1.219 -0.3774  0.0629  0.1019
 4482TIP3    H235082   3.386   6.290   1.233 -0.2523 -0.6040 -1.5167
 4483TIP3   OH235083   1.933   0.118   1.544 -0.7222 -0.0882 -0.3288
 4483TIP3    H135084   1.999   0.186   1.530  0.9072 -1.8131 -1.7063
 4483TIP3    H235085   1.926   0.074   1.459 -1.9220 -1.4392  0.4299
 4484TIP3   OH235086   0.381   3.946   2.407  0.2727 -0.0249  0.3191
 4484TIP3    H135087   0.406   4.007   2.337 -0.5913  0.1837  0.1785
 4484TIP3    H235088   0.292   3.918   2.383  0.6724 -1.3692  0.3669
 4485TIP3   OH235089   0.127   0.286   7.563  0.3145 -0.0958  0.2422
 4485TIP3    H135090   0.032   0.282   7.554  0.3424 -2.5418  0.4291
 4485TIP3    H235091   0.161   0.281   7.474  0.3242  2.6540  0.0014
 4486TIP3   OH235092   5.003   1.007   1.165 -0.0050 -0.2056 -0.1446
 4486TIP3    H135093   4.988   1.090   1.118 -0.9093 -0.0804  0.3458
 4486TIP3    H235094   4.919   0.989   1.208  0.0894 -1.5372 -0.4905
 4487TIP3   OH235095   0.360   5.333   2.311  0.3034 -0.4392 -0.2175
 4487TIP3    H135096   0.329   5.375   2.231 -0.0452 -0.8573 -0.3072
 4487TIP3    H235097   0.295   5.265   2.329  0.3023 -0.2575  0.4995
 4488TIP3   OH235098   0.956   0.515   7.211  0.1270 -0.0810 -0.4580
 4488TIP3    H135099   0.950   0.603   7.248  0.7882  0.2035 -1.0096
 4488TIP3    H235100   0.971   0.459   7.287  0.2009  0.3419 -0.1549
 4489TIP3   OH235101   4.435   4.155   7.600  0.0010  0.6425  0.6778
 4489TIP3    H135102   4.521   4.144   7.642  0.5110  1.9830  0.0216
 4489TIP3    H235103   4.413   4.067   7.569  2.0080  0.5793 -0.7787
 4490TIP3   OH235104   4.912   1.756   7.528 -0.5943 -0.1932 -0.4088
 4490TIP3    H135105   4.828   1.756   7.481  0.1229 -0.3036 -1.7351
 4490TIP3    H235106   4.933   1.663   7.537  1.0830 -0.2318 -3.3363
 4491TIP3   OH235107   6.441   1.912   1.274 -0.0007  0.1614  0.3017
 4491TIP3    H135108   6.413   1.859   1.349 -0.4434  1.4261  1.0692
 4491TIP3    H235109   6.512   1.966   1.309  0.1608  0.3731 -0.3441
 4492TIP3   OH235110   2.044   5.341   6.985  0.0461  0.3795 -1.0886
 4492TIP3    H135111   1.952   5.347   7.012 -0.0705 -0.8809 -1.1367
 4492TIP3    H235112   2.047   5.265   6.927  1.1361  0.3429 -1.0069
 4493TIP3   OH235113   3.799   6.562   8.577 -0.3562 -0.3577  0.3353
 4493TIP3    H135114   3.870   6.497   8.585  0.1442 -0.0090 -1.0283
 4493TIP3    H235115   3.771   6.577   8.667  0.0924 -1.8322  0.7654
 4494TIP3   OH235116   3.704   3.602   2.646 -0.1682  0.2421  0.0239
 4494TIP3    H135117   3.732   3.538   2.581 -0.0361  0.6175 -0.2921
 4494TIP3    H235118   3.706   3.686   2.600  0.2058  0.5541  0.5930
 4495TIP3   OH235119   4.147   2.219   7.148  0.8477  0.0775  0.3057
 4495TIP3    H135120   4.189   2.247   7.066  1.8135 -0.3361  0.6432
 4495TIP3    H235121   4.202   2.148   7.180  0.5063  0.2628  1.3435
 4496TIP3   OH235122   3.552   6.024   8.539 -0.7820 -0.1701 -0.7916
 4496TIP3    H135123   3.613   6.080   8.491  0.2404 -0.1349  0.5011
 4496TIP3    H235124   3.581   6.028   8.630 -0.0676 -3.5161 -0.7334
 4497TIP3   OH235125   3.235   4.060   2.422  0.3630 -0.2438  0.1101
 4497TIP3    H135126   3.307   4.025   2.474 -0.1722 -0.7280  0.5434
 4497TIP3    H235127   3.158   4.010   2.451 -0.2027  0.4804 -0.1106
 4498TIP3   OH235128   5.344   6.329   7.259 -0.2385 -0.7171 -0.2786
 4498TIP3    H135129   5.337   6.323   7.354  0.0771 -0.7307 -0.2552
 4498TIP3    H235130   5.310   6.417   7.239  0.3370 -0.4458 -0.0853
 4499TIP3   OH235131   0.830   1.774   7.625 -0.1364 -0.1922 -0.0762
 4499TIP3    H135132   0.882   1.697   7.605  0.2231  0.3750 -1.3836
 4499TIP3    H235133   0.755   1.768   7.566  0.0534  0.6148 -0.4047
 4500TIP3   OH235134   0.842   4.823   7.073  0.6346  0.1724 -0.3849
 4500TIP3    H135135   0.868   4.775   6.995 -0.8018 -0.8955 -0.2365
 4500TIP3    H235136   0.878   4.911   7.060  0.0180  0.1650 -2.4614
 4501TIP3   OH235137   5.611   0.959   0.368 -0.1465 -0.6588 -0.0963
 4501TIP3    H135138   5.553   0.910   0.427 -0.8434 -1.3903 -1.3454
 4501TIP3    H235139   5.696   0.915   0.378 -0.0180 -0.2026  1.0096
 4502TIP3   OH235140   0.082   1.543   1.497  0.7957  0.1634 -0.4966
 4502TIP3    H135141   0.159   1.597   1.477  0.4638  0.3148 -1.3815
 4502TIP3    H235142   0.014   1.607   1.518  0.6872  0.0520 -0.5131
 4503TIP3   OH235143   4.945   6.818   7.221 -0.7823 -0.8630  0.1604
 4503TIP3    H135144   5.029   6.833   7.265 -1.3241 -1.1960  1.3458
 4503TIP3    H235145   4.884   6.876   7.266 -1.3600 -1.2537 -0.1128
 4504TIP3   OH235146   3.953   3.864   7.552 -0.0021 -0.3151 -0.4270
 4504TIP3    H135147   3.994   3.779   7.534  2.1033  0.7273 -0.9625
 4504TIP3    H235148   3.987   3.889   7.638  1.8373  1.2544 -1.5275
 4505TIP3   OH235149   5.535   1.639   0.321 -0.0364 -0.1553 -0.2795
 4505TIP3    H135150   5.600   1.682   0.378 -0.2619  0.3819 -0.4149
 4505TIP3    H235151   5.466   1.610   0.380  0.0251 -0.1491 -0.2052
 4506TIP3   OH235152   4.772   0.676   8.091 -0.8133  0.2171 -0.0242
 4506TIP3    H135153   4.807   0.722   8.015  0.3252  0.2587  0.4908
 4506TIP3    H235154   4.706   0.734   8.127 -2.2308 -0.3207 -1.6396
 4507TIP3   OH235155   2.150   5.291   1.437 -0.2670  0.0438  0.0865
 4507TIP3    H135156   2.206   5.214   1.420  0.3922  0.2014  1.4131
 4507TIP3    H235157   2.083   5.259   1.496 -1.7173 -0.1703 -1.6000
 4508TIP3   OH235158   3.607   0.844   7.389  0.1600 -0.1662  0.1135
 4508TIP3    H135159   3.512   0.856   7.384  0.2886  0.8691 -0.2247
 4508TIP3    H235160   3.640   0.889   7.311  0.9367 -0.3772  0.3175
 4509TIP3   OH235161   1.948   2.221   1.018 -0.7443 -0.7266  0.3897
 4509TIP3    H135162   1.890   2.154   1.052 -0.2947 -1.9676 -1.1915
 4509TIP3    H235163   2.028   2.174   0.995  0.0554  0.5730  0.4086
 4510TIP3   OH235164   0.229   6.493   1.760  0.1195  0.3654  0.4428
 4510TIP3    H135165   0.232   6.400   1.780  1.8082  0.4574  0.7296
 4510TIP3    H235166   0.313   6.527   1.790 -1.3792  2.4579  2.6223
 4511TIP3   OH235167   2.497   0.108   0.421  0.1731 -0.3647 -0.0060
 4511TIP3    H135168   2.528   0.171   0.356  0.3159  1.1353  1.4452
 4511TIP3    H235169   2.430   0.155   0.471 -1.6640 -2.2469 -0.5422
 4512TIP3   OH235170   4.224   4.468   1.945 -0.4315  0.8192  0.0421
 4512TIP3    H135171   4.162   4.536   1.918 -0.5143  0.9710  0.5916
 4512TIP3    H235172   4.271   4.507   2.019 -1.0401 -0.0072  0.8922
 4513TIP3   OH235173   2.286   0.403   2.191  0.5645  0.1489 -0.0185
 4513TIP3    H135174   2.254   0.470   2.251  2.3133  1.6090 -0.5935
 4513TIP3    H235175   2.372   0.378   2.226 -0.7149 -3.1137  1.1168
 4514TIP3   OH235176   2.894   1.835   7.462 -0.7555 -0.1349 -0.1199
 4514TIP3    H135177   2.857   1.921   7.444 -1.4192 -0.4552 -0.3109
 4514TIP3    H235178   2.899   1.831   7.557  1.5825  1.0666 -0.1208
 4515TIP3   OH235179   5.663   2.353   8.373 -0.4500 -0.1141 -0.3540
 4515TIP3    H135180   5.670   2.428   8.314  1.9916 -0.5002 -0.6884
 4515TIP3    H235181   5.641   2.391   8.458 -0.2377  0.8831 -0.7327
 4516TIP3   OH235182   4.514   0.617   8.382 -0.1577 -0.3442 -0.3787
 4516TIP3    H135183   4.463   0.556   8.329  0.2186  0.6961 -2.0085
 4516TIP3    H235184   4.452   0.686   8.405 -0.6531 -1.3637  1.6863
 4517TIP3   OH235185   5.356   5.213   6.775  0.0831 -0.3706 -0.2520
 4517TIP3    H135186   5.264   5.188   6.777 -0.2228  0.7054  1.8444
 4517TIP3    H235187   5.404   5.135   6.804 -0.0313 -1.2316 -2.2323
 4518TIP3   OH235188   5.571   5.889   6.367  0.3144 -0.2513 -0.2434
 4518TIP3    H135189   5.531   5.854   6.446 -2.1032  3.1263  0.2321
 4518TIP3    H235190   5.504   5.880   6.300  1.1231 -0.1175 -1.0812
 4519TIP3   OH235191   0.942   5.135   7.377  0.0758  0.9251 -0.2678
 4519TIP3    H135192   0.962   5.071   7.445 -0.1352 -0.7097 -1.6678
 4519TIP3    H235193   0.854   5.110   7.346 -0.1779  2.1484 -0.5732
 4520TIP3   OH235194   3.652   2.111   8.282 -0.2044  0.6629 -1.1084
 4520TIP3    H135195   3.623   2.152   8.200  1.1607  0.2033 -1.8624
 4520TIP3    H235196   3.667   2.020   8.259  3.3099  1.1381 -1.2806
 4521TIP3   OH235197   3.933   2.812   7.426  0.7438  0.5075 -0.3935
 4521TIP3    H135198   3.895   2.726   7.409  2.1056 -0.0270 -0.8347
 4521TIP3    H235199   3.859   2.865   7.456  0.0624 -1.1066  0.9764
 4522TIP3   OH235200   5.075   0.781   1.749  0.2723 -0.1207 -0.8173
 4522TIP3    H135201   5.034   0.777   1.835  1.7376 -1.1009 -0.1185
 4522TIP3    H235202   5.016   0.835   1.697 -1.8375 -1.3903  0.1265
 4523TIP3   OH235203   6.200   6.650   1.418  0.4865  0.0567  0.5807
 4523TIP3    H135204   6.240   6.720   1.366  2.5754 -1.8497 -0.5633
 4523TIP3    H235205   6.241   6.658   1.505  0.6419  0.3093  0.4848
 4524TIP3   OH235206   5.865   6.597   0.043  0.1129 -0.1367 -0.4176
 4524TIP3    H135207   5.884   6.506   0.020  2.9738  0.3904 -0.4448
 4524TIP3    H235208   5.846   6.595   0.136  0.0932 -0.7774 -0.4294
 4525TIP3   OH235209   0.793   3.208   1.769  0.4431  0.4965 -0.2921
 4525TIP3    H135210   0.769   3.205   1.861  1.3615  0.4884 -0.0358
 4525TIP3    H235211   0.872   3.154   1.763 -1.5679 -2.5198 -1.7420
 4526TIP3   OH235212   4.439   1.157   2.326  0.0213  0.2935  0.4572
 4526TIP3    H135213   4.472   1.163   2.236 -0.3733  0.7396  0.3355
 4526TIP3    H235214   4.344   1.148   2.317  0.1969 -2.5407  0.7658
 4527TIP3   OH235215   5.743   4.390   2.314  0.1309 -0.1330  0.2916
 4527TIP3    H135216   5.677   4.459   2.305  0.2889  0.0262  0.3427
 4527TIP3    H235217   5.693   4.311   2.336  0.0313  0.1943  1.3261
 4528TIP3   OH235218   6.793   0.629   1.470  0.4357  0.2899 -0.4830
 4528TIP3    H135219   6.798   0.577   1.551  0.0528  0.2423 -0.4898
 4528TIP3    H235220   6.701   0.655   1.464  0.3614 -0.1034 -1.1525
 4529TIP3   OH235221   6.581   6.382   1.348 -0.0078  0.3515  0.3182
 4529TIP3    H135222   6.526   6.309   1.320  1.5900 -1.4714  1.6930
 4529TIP3    H235223   6.542   6.412   1.430  0.8035 -0.7338  1.1284
 4530TIP3   OH235224   2.708   0.809   7.295  0.1914  0.0942 -0.0463
 4530TIP3    H135225   2.633   0.806   7.353 -0.0959  2.5302 -0.2096
 4530TIP3    H235226   2.677   0.856   7.217  2.1018  2.1168  0.3109
 4531TIP3   OH235227   5.512   1.755   1.683  0.1238  0.7117  0.1148
 4531TIP3    H135228   5.443   1.741   1.747  1.2813 -0.3496  1.2056
 4531TIP3    H235229   5.573   1.683   1.698  2.1495  2.3300  0.1477
 4532TIP3   OH235230   1.826   1.696   0.682 -0.4548 -0.1670 -0.1827
 4532TIP3    H135231   1.886   1.755   0.728 -0.5028 -0.0896 -0.2198
 4532TIP3    H235232   1.875   1.614   0.674 -0.9032 -0.6028  1.1572
 4533TIP3   OH235233   6.298   0.697   1.250 -0.6798  0.2205 -1.1438
 4533TIP3    H135234   6.265   0.630   1.190 -1.9828  1.3753 -1.7757
 4533TIP3    H235235   6.232   0.701   1.320  0.3858 -0.4991 -0.0610
 4534TIP3   OH235236   4.040   5.225   0.137 -0.3454  0.1225  0.3297
 4534TIP3    H135237   4.083   5.157   0.188 -0.2539  0.4779  0.7259
 4534TIP3    H235238   4.032   5.187   0.049 -0.5469 -0.5073  0.6136
 4535TIP3   OH235239   4.626   0.223   1.468  0.5938 -0.6875 -0.2599
 4535TIP3    H135240   4.548   0.270   1.437  0.0631 -2.2630 -1.4871
 4535TIP3    H235241   4.698   0.259   1.417  0.0494 -1.7626 -1.8895
 4536TIP3   OH235242   3.667   3.839   7.959  0.2398  0.3005  0.3605
 4536TIP3    H135243   3.576   3.851   7.987  0.0391 -2.2012  1.0756
 4536TIP3    H235244   3.716   3.825   8.039  0.7692 -0.8894 -0.1388
 4537TIP3   OH235245   0.699   3.541   0.110 -0.5140  0.1467  0.5423
 4537TIP3    H135246   0.673   3.464   0.160 -0.2498 -0.9535 -0.9492
 4537TIP3    H235247   0.794   3.545   0.121 -0.6200  0.7883  1.3169
 4538TIP3   OH235248   1.234   5.158   8.504  0.2881 -0.2471 -0.0640
 4538TIP3    H135249   1.269   5.135   8.590 -1.3999 -3.2427 -0.0142
 4538TIP3    H235250   1.310   5.159   8.446  1.0036 -3.0318  0.6668
 4539TIP3   OH235251   1.384   6.913   8.319  0.3652 -0.4613 -0.4975
 4539TIP3    H135252   1.383   6.818   8.305 -0.3950 -0.9670  2.3081
 4539TIP3    H235253   1.474   6.933   8.344  0.3518 -0.5765 -0.3561
 4540TIP3   OH235254   6.528   0.451   8.542 -0.2487  0.2851  0.5152
 4540TIP3    H135255   6.508   0.409   8.626  2.1777 -0.2611  0.9101
 4540TIP3    H235256   6.515   0.545   8.559 -1.1974  0.0654  1.0558
 4541TIP3   OH235257   6.899   0.470   6.684  0.3775  0.2610 -0.3807
 4541TIP3    H135258   6.852   0.550   6.664  1.5707  1.5877  1.6819
 4541TIP3    H235259   6.844   0.400   6.650 -1.2255  1.8907 -1.2995
 4542TIP3   OH235260   3.506   3.942   0.746 -0.2357  0.0397 -0.0697
 4542TIP3    H135261   3.418   3.907   0.733 -0.0646 -0.4382  0.0358
 4542TIP3    H235262   3.498   4.035   0.730 -1.0310  0.2020  1.1548
 4543TIP3   OH235263   0.953   2.879   0.292  0.5718 -0.0236  0.0942
 4543TIP3    H135264   0.972   2.797   0.246 -0.4321 -1.6902  2.4282
 4543TIP3    H235265   0.867   2.906   0.259  1.3518  0.7182 -1.4318
 4544TIP3   OH235266   5.975   2.994   0.823 -0.0308  0.1316  0.1074
 4544TIP3    H135267   6.053   2.946   0.795 -0.6844  0.1570 -1.8994
 4544TIP3    H235268   5.927   2.933   0.879  0.1847 -0.8028 -0.7142
 4545TIP3   OH235269   4.245   1.404   7.399  0.0615  0.1121 -0.0608
 4545TIP3    H135270   4.255   1.323   7.449 -0.0856  0.6214  0.8166
 4545TIP3    H235271   4.290   1.387   7.317  0.9267 -0.5135  0.5242
 4546TIP3   OH235272   2.530   1.788   7.306  0.0621  0.2413  0.4509
 4546TIP3    H135273   2.534   1.696   7.280 -0.7238  0.1924  0.4805
 4546TIP3    H235274   2.525   1.785   7.402  0.2502  0.3232  0.4633
 4547TIP3   OH235275   2.695   4.752   1.541 -0.0643 -0.2463 -0.1225
 4547TIP3    H135276   2.656   4.756   1.628  1.3927 -0.8295  0.5787
 4547TIP3    H235277   2.688   4.660   1.516 -1.7807  0.1356 -1.2858
 4548TIP3   OH235278   4.485   3.923   8.547  0.3333  0.2098  0.2909
 4548TIP3    H135279   4.529   3.863   8.607  1.0732  0.8968  0.4570
 4548TIP3    H235280   4.481   4.006   8.594  2.2119  1.1732 -1.0743
 4549TIP3   OH235281   2.807   5.687   2.102  0.0287  0.5232  0.3154
 4549TIP3    H135282   2.731   5.742   2.122  1.2013  1.1768  3.7570
 4549TIP3    H235283   2.882   5.741   2.125  1.4604 -0.9665 -0.6386
 4550TIP3   OH235284   5.874   3.827   0.150 -0.5715 -0.0465  0.5445
 4550TIP3    H135285   5.834   3.825   0.237 -1.6443 -3.3923  0.1409
 4550TIP3    H235286   5.943   3.760   0.154  1.1466  1.5867 -0.4700
 4551TIP3   OH235287   0.034   4.298   7.408 -0.1749 -0.5937  0.1600
 4551TIP3    H135288   0.021   4.227   7.470 -1.5576 -0.3552  0.1881
 4551TIP3    H235289   0.064   4.371   7.461 -1.2826 -0.4120  0.5754
 4552TIP3   OH235290   0.873   4.001   1.344 -0.2667  0.2976 -0.1534
 4552TIP3    H135291   0.795   4.000   1.400  0.0667  1.7916  0.3768
 4552TIP3    H235292   0.924   3.925   1.374 -0.7694  0.2384  0.5917
 4553TIP3   OH235293   0.977   5.224   0.965  0.0782 -0.2919  0.1813
 4553TIP3    H135294   0.952   5.312   0.993 -0.2280  0.2749 -1.7109
 4553TIP3    H235295   1.058   5.236   0.917  0.1445 -1.0874  0.0812
 4554TIP3   OH235296   5.363   0.906   0.174 -0.1093  0.3269 -0.0073
 4554TIP3    H135297   5.290   0.844   0.173  0.2875 -0.2043  1.8413
 4554TIP3    H235298   5.441   0.852   0.175  0.3635  0.8961 -1.9737
 4555TIP3   OH235299   0.538   1.498   1.692  0.2351 -0.0232 -0.5004
 4555TIP3    H135300   0.540   1.425   1.631  2.7397 -0.9562  0.5626
 4555TIP3    H235301   0.585   1.568   1.648 -1.3048  0.6569 -1.1213
 4556TIP3   OH235302   5.492   2.081   0.393  0.3243  0.6477 -0.0348
 4556TIP3    H135303   5.421   2.144   0.408 -1.4597 -1.3456  0.4434
 4556TIP3    H235304   5.507   2.040   0.478  2.5940  1.4983  0.0244
 4557TIP3   OH235305   2.318   5.374   0.913  0.2840  0.1023  0.1898
 4557TIP3    H135306   2.332   5.311   0.843 -1.3492 -1.2285  0.9703
 4557TIP3    H235307   2.262   5.441   0.874  0.9340  0.3840 -0.2781
 4558TIP3   OH235308   0.824   4.865   7.740 -0.1439 -0.1527  0.1061
 4558TIP3    H135309   0.804   4.774   7.761 -0.8626 -0.3281 -1.1885
 4558TIP3    H235310   0.739   4.908   7.738  0.0694  0.2477 -0.5430
 4559TIP3   OH235311   1.968   2.378   0.785  0.2001  0.1621  0.4662
 4559TIP3    H135312   1.950   2.330   0.866  1.0404 -0.6279  0.2012
 4559TIP3    H235313   1.918   2.332   0.718  0.6597 -0.0758  0.2860
 4560TIP3   OH235314   5.074   0.819   7.925 -0.3991  0.0626 -0.4042
 4560TIP3    H135315   5.161   0.779   7.923  0.1684  1.1999  0.6667
 4560TIP3    H235316   5.045   0.818   7.833  0.0418 -1.7740 -0.5588
 4561TIP3   OH235317   5.448   3.503   6.974  0.7013  0.0936 -0.3642
 4561TIP3    H135318   5.510   3.447   6.928  1.7302  1.3756 -0.5950
 4561TIP3    H235319   5.462   3.481   7.067  0.5264 -0.5889 -0.4937
 4562TIP3   OH235320   2.600   1.469   7.774  0.4063  0.3389  0.0173
 4562TIP3    H135321   2.585   1.432   7.687  0.3705  1.5650 -0.5115
 4562TIP3    H235322   2.594   1.393   7.833  2.6896 -0.9299 -1.2397
 4563TIP3   OH235323   6.876   5.368   2.159 -0.1732 -0.4330 -0.4308
 4563TIP3    H135324   6.825   5.292   2.188  1.0617 -0.6948  1.2639
 4563TIP3    H235325   6.835   5.442   2.203 -0.7613 -0.2535 -1.2748
 4564TIP3   OH235326   0.703   0.112   2.100 -0.0710  0.3442 -0.2154
 4564TIP3    H135327   0.772   0.178   2.099 -0.3264  0.6201 -0.9888
 4564TIP3    H235328   0.622   0.162   2.109 -0.0934 -0.1105  3.3394
 4565TIP3   OH235329   3.446   6.407   0.089 -0.2050 -0.6281 -0.5945
 4565TIP3    H135330   3.430   6.374   0.000 -1.6376 -0.5006 -0.4098
 4565TIP3    H235331   3.375   6.469   0.105 -0.9490 -1.8475  1.2348
 4566TIP3   OH235332   0.619   1.193   1.188 -0.2350  0.2067  0.0615
 4566TIP3    H135333   0.655   1.157   1.269 -1.2013  1.5272  1.1370
 4566TIP3    H235334   0.531   1.224   1.213  0.0358  2.0230 -1.0948
 4567TIP3   OH235335   1.278   1.097   2.807  0.1722 -0.1173  0.5603
 4567TIP3    H135336   1.243   1.017   2.768 -0.7012  1.2039 -1.5254
 4567TIP3    H235337   1.367   1.104   2.771 -0.8103  1.3758 -1.8628
 4568TIP3   OH235338   0.289   2.589   8.303 -0.0810 -0.2162 -0.3378
 4568TIP3    H135339   0.344   2.551   8.234  2.7091 -1.1634  2.1633
 4568TIP3    H235340   0.275   2.517   8.365 -2.1102  0.6914  0.3438
 4569TIP3   OH235341   0.440   2.001   7.556 -0.2933 -0.1623 -0.0611
 4569TIP3    H135342   0.372   1.964   7.612 -0.8961 -0.5594 -1.0410
 4569TIP3    H235343   0.500   2.045   7.617 -0.4339 -1.3590  0.9731
 4570TIP3   OH235344   0.968   0.544   1.349 -0.1859 -0.0275 -0.1393
 4570TIP3    H135345   1.032   0.494   1.399 -1.6064 -0.5229  1.2659
 4570TIP3    H235346   1.020   0.606   1.298  1.4130 -0.7184  0.6009
 4571TIP3   OH235347   5.131   4.587   0.724  0.3097 -0.6620 -0.0627
 4571TIP3    H135348   5.053   4.545   0.687 -0.1628 -0.0801  0.2537
 4571TIP3    H235349   5.146   4.663   0.668 -0.6996  0.5039  1.1665
 4572TIP3   OH235350   0.438   1.140   8.029  0.2837 -0.3574  0.1675
 4572TIP3    H135351   0.469   1.155   8.118  1.7757  1.1792 -0.5326
 4572TIP3    H235352   0.379   1.214   8.012  2.2114  1.0280 -0.9904
 4573TIP3   OH235353   2.668   1.296   0.971 -0.1308 -0.4903  0.4594
 4573TIP3    H135354   2.629   1.246   1.042  0.9378  0.0309  1.4407
 4573TIP3    H235355   2.736   1.238   0.936 -0.1283 -0.4419  0.3838
 4574TIP3   OH235356   1.844   4.039   7.901 -0.5120  0.3134  0.2374
 4574TIP3    H135357   1.838   3.957   7.950 -1.2373 -1.4323 -2.5333
 4574TIP3    H235358   1.762   4.085   7.921 -0.1390  0.3649  1.7534
 4575TIP3   OH235359   2.656   0.613   1.046  0.4887  0.0323 -0.3719
 4575TIP3    H135360   2.715   0.538   1.056  0.9222  0.6002  1.8859
 4575TIP3    H235361   2.585   0.580   0.992  1.9449 -1.2213 -1.6128
 4576TIP3   OH235362   0.572   4.303   0.121  0.1274  0.3055  0.1002
 4576TIP3    H135363   0.579   4.271   0.211 -1.0326  0.1387  0.1475
 4576TIP3    H235364   0.629   4.380   0.118  2.1438 -1.1248  0.2711
 4577TIP3   OH235365   2.382   0.189   7.094  0.5478  0.0512 -0.6983
 4577TIP3    H135366   2.417   0.165   7.008  0.3499  0.2106 -0.8252
 4577TIP3    H235367   2.413   0.120   7.153  0.0055 -0.4994 -1.0529
 4578TIP3   OH235368   2.730   5.266   7.436 -0.3155  0.1202 -0.1548
 4578TIP3    H135369   2.669   5.278   7.363 -0.6288 -1.2858 -0.1539
 4578TIP3    H235370   2.677   5.229   7.506  0.4160 -0.5656  0.0466
 4579TIP3   OH235371   1.996   5.144   7.997  0.1517  0.1849 -0.0119
 4579TIP3    H135372   2.038   5.081   7.938 -0.8435  1.1051 -1.7821
 4579TIP3    H235373   2.061   5.214   8.007 -0.4925  1.1045 -1.8983
 4580TIP3   OH235374   1.634   5.142   6.924 -0.2232 -0.0096 -0.2068
 4580TIP3    H135375   1.604   5.215   6.871 -2.5066 -1.5846 -1.2393
 4580TIP3    H235376   1.659   5.074   6.861  2.1488 -0.0946  0.7118
 4581TIP3   OH235377   1.533   0.155   1.751 -0.4163 -0.1821 -0.3992
 4581TIP3    H135378   1.476   0.108   1.812 -0.8749 -0.8597 -1.3252
 4581TIP3    H235379   1.487   0.237   1.734 -2.1107 -1.4653 -2.5508
 4582TIP3   OH235380   3.650   6.183   7.293  0.2429  0.5537 -0.2551
 4582TIP3    H135381   3.614   6.217   7.210  0.8292 -0.9392 -1.1573
 4582TIP3    H235382   3.591   6.112   7.317  1.2494 -0.4137 -0.5465
 4583TIP3   OH235383   1.617   3.258   7.613 -0.2207 -0.1775 -0.7155
 4583TIP3    H135384   1.610   3.166   7.587 -0.0128  0.1962 -2.1946
 4583TIP3    H235385   1.709   3.281   7.595 -0.0333  0.0926  0.4891
 4584TIP3   OH235386   1.738   4.279   2.437  0.5170 -0.4001  0.2188
 4584TIP3    H135387   1.725   4.245   2.525 -0.3390  0.5396  0.4646
 4584TIP3    H235388   1.778   4.365   2.449 -0.4072  0.1126 -0.2623
 4585TIP3   OH235389   3.679   3.927   6.666 -0.1982 -0.5840 -0.1869
 4585TIP3    H135390   3.741   3.858   6.639  0.8257  0.2061  0.0887
 4585TIP3    H235391   3.602   3.879   6.697  1.7401 -1.7775  3.2157
 4586TIP3   OH235392   0.591   6.473   6.537 -0.5783  0.0677  0.3890
 4586TIP3    H135393   0.615   6.382   6.525 -1.4930 -0.3699  1.6768
 4586TIP3    H235394   0.654   6.507   6.602  2.1131  1.4479 -2.6415
 4587TIP3   OH235395   5.144   3.399   1.806  0.2911 -0.6315  0.4094
 4587TIP3    H135396   5.213   3.410   1.872  0.6270  0.7217 -0.1235
 4587TIP3    H235397   5.063   3.424   1.851 -0.0958 -3.2575  1.3654
 4588TIP3   OH235398   4.798   5.446   2.056  0.9380 -0.1944  0.5375
 4588TIP3    H135399   4.766   5.356   2.060  0.4160 -0.0737 -0.6325
 4588TIP3    H235400   4.832   5.456   1.967 -1.1497  1.4605 -0.1523
 4589TIP3   OH235401   6.661   3.841   7.586 -0.7090 -0.4940  0.1928
 4589TIP3    H135402   6.619   3.787   7.519  1.8536 -1.0852 -1.0846
 4589TIP3    H235403   6.685   3.921   7.540 -1.4819  0.3433  1.2047
 4590TIP3   OH235404   2.674   0.893   1.353  0.2172  0.2010 -0.2859
 4590TIP3    H135405   2.615   0.962   1.382 -0.2064 -0.9104  1.7006
 4590TIP3    H235406   2.719   0.865   1.433  1.4284 -0.8558 -1.2835
 4591TIP3   OH235407   5.110   4.731   7.176 -0.2108  0.0592  0.0423
 4591TIP3    H135408   5.138   4.664   7.113 -0.2277  0.1676 -0.0822
 4591TIP3    H235409   5.016   4.741   7.159 -0.7586 -1.6313  1.6985
 4592TIP3   OH235410   4.649   2.437   7.149 -0.1253 -0.0805 -0.3752
 4592TIP3    H135411   4.647   2.423   7.054  2.5646  1.5161 -0.7747
 4592TIP3    H235412   4.614   2.526   7.160 -1.4763 -0.6606  0.3119
 4593TIP3   OH235413   3.905   1.903   7.382  0.7558 -0.1257  0.0094
 4593TIP3    H135414   3.881   1.860   7.300  2.7163 -1.7728  0.2223
 4593TIP3    H235415   3.847   1.979   7.387  0.4960 -0.0242 -2.8455
 4594TIP3   OH235416   6.190   5.061   0.243 -0.5686  0.3880 -0.1258
 4594TIP3    H135417   6.129   5.046   0.315  0.9084 -0.6612  0.9515
 4594TIP3    H235418   6.223   5.150   0.258 -0.0687  0.0776  0.6686
 4595TIP3   OH235419   5.950   5.202   1.151 -0.1075  0.1672  0.5785
 4595TIP3    H135420   6.039   5.200   1.117 -0.3096 -0.4324  0.0620
 4595TIP3    H235421   5.936   5.293   1.178  0.7489  0.2095  0.9159
 4596TIP3   OH235422   5.687   6.591   1.516 -0.2835  0.0547 -0.3713
 4596TIP3    H135423   5.699   6.583   1.421 -2.0396 -1.0361 -0.5386
 4596TIP3    H235424   5.776   6.592   1.551  0.3865 -1.2604 -1.9008
 4597TIP3   OH235425   3.727   5.730   7.869  0.3015  0.2902 -0.1842
 4597TIP3    H135426   3.745   5.706   7.960 -1.8727  0.5238  0.3609
 4597TIP3    H235427   3.743   5.824   7.865 -1.2234  0.6003  0.4355
 4598TIP3   OH235428   6.653   4.987   1.945 -0.4969 -0.4957  0.1897
 4598TIP3    H135429   6.703   5.019   1.870 -0.8680 -0.8696 -0.2224
 4598TIP3    H235430   6.570   4.957   1.908  0.1031 -2.6198  0.4506
 4599TIP3   OH235431   1.579   4.845   1.612  0.1451  0.4932  0.7282
 4599TIP3    H135432   1.494   4.802   1.608  0.1007  0.5273  1.2684
 4599TIP3    H235433   1.560   4.938   1.596  0.2872  0.2860 -0.8354
 4600TIP3   OH235434   3.841   1.909   1.000  0.3150 -0.0064  0.3085
 4600TIP3    H135435   3.897   1.832   1.015  0.2688 -0.3421 -1.0989
 4600TIP3    H235436   3.847   1.959   1.081  0.5434 -1.3759  1.1633
 4601TIP3   OH235437   3.935   3.910   7.900 -0.4000  0.1266  0.6700
 4601TIP3    H135438   3.844   3.904   7.871 -0.4204  0.7111  0.5979
 4601TIP3    H235439   3.959   4.002   7.885  0.9045 -0.4831 -1.4238
 4602TIP3   OH235440   5.225   4.581   6.855  0.0605  0.4922  0.7742
 4602TIP3    H135441   5.287   4.512   6.829  0.5353  1.1154  0.2168
 4602TIP3    H235442   5.186   4.611   6.773 -0.2014  0.8326  1.0210
 4603TIP3   OH235443   5.659   0.577   7.548  0.2908  0.4295 -0.5361
 4603TIP3    H135444   5.577   0.537   7.521 -0.0646  1.5380 -1.1759
 4603TIP3    H235445   5.671   0.548   7.639 -1.0469  0.6286 -0.2737
 4604TIP3   OH235446   4.942   5.300   0.365  0.1763 -0.6833  0.6625
 4604TIP3    H135447   4.983   5.238   0.305 -0.9589 -0.8486  0.0266
 4604TIP3    H235448   4.862   5.257   0.395 -1.8154  1.1953 -1.4744
 4605TIP3   OH235449   0.372   3.505   0.357 -0.4462 -0.2734 -0.1712
 4605TIP3    H135450   0.462   3.512   0.389 -1.1805  2.2659  1.6082
 4605TIP3    H235451   0.353   3.412   0.362  1.5901 -0.7065  0.8301
 4606TIP3   OH235452   5.772   2.964   7.075 -0.0180  0.0298 -0.3689
 4606TIP3    H135453   5.836   2.894   7.066 -0.9763 -0.8131 -0.9029
 4606TIP3    H235454   5.747   2.985   6.985  0.0750  0.8837 -0.2012
 4607TIP3   OH235455   6.661   5.227   7.460 -0.4550  0.1669  0.1943
 4607TIP3    H135456   6.697   5.149   7.501 -0.1166  1.9023  3.5228
 4607TIP3    H235457   6.594   5.194   7.401  1.4713 -2.7276 -0.6126
 4608TIP3   OH235458   5.824   6.036   0.331  0.4411 -0.7655 -0.3076
 4608TIP3    H135459   5.915   6.058   0.313  0.2916  1.3579  1.1366
 4608TIP3    H235460   5.776   6.116   0.312 -0.8126 -1.1399  1.1249
 4609TIP3   OH235461   6.478   2.468   7.898  0.7125  0.3731  0.5253
 4609TIP3    H135462   6.413   2.422   7.845  2.1479 -2.6878  1.2263
 4609TIP3    H235463   6.552   2.482   7.839  1.3601 -0.8103  1.0357
 4610TIP3   OH235464   0.724   3.352   0.873  0.7631 -0.5171 -0.6271
 4610TIP3    H135465   0.667   3.309   0.809 -0.9974  0.6949  0.0512
 4610TIP3    H235466   0.681   3.338   0.957  1.3523  0.6197 -0.1087
 4611TIP3   OH235467   0.848   3.427   2.621  1.2077  0.0206  0.0116
 4611TIP3    H135468   0.763   3.391   2.647  1.5524 -2.3013 -1.7443
 4611TIP3    H235469   0.889   3.454   2.703 -1.0606  0.9311  0.9301
 4612TIP3   OH235470   0.082   0.551   6.935  0.4812  0.3396 -0.4332
 4612TIP3    H135471   0.051   0.510   6.854 -1.0797  2.0481 -0.7726
 4612TIP3    H235472   0.117   0.478   6.987 -2.4090 -1.5528 -0.8723
 4613TIP3   OH235473   1.748   1.412   1.186  0.2107  0.1866 -0.6831
 4613TIP3    H135474   1.810   1.417   1.113  1.5486 -1.2956  0.2947
 4613TIP3    H235475   1.788   1.463   1.256  1.7008 -2.8017  0.8191
 4614TIP3   OH235476   5.599   2.696   8.445 -0.4059  0.3953 -0.0236
 4614TIP3    H135477   5.555   2.742   8.517 -1.8358 -1.3037  0.2821
 4614TIP3    H235478   5.672   2.651   8.488 -2.6152 -2.5583  1.0073
 4615TIP3   OH235479   1.370   6.257   0.237 -0.4810 -0.7585  0.6906
 4615TIP3    H135480   1.317   6.227   0.163  1.1915 -1.7689 -0.1650
 4615TIP3    H235481   1.336   6.208   0.312 -1.6127 -0.3745  0.4605
 4616TIP3   OH235482   6.340   5.751   0.277 -0.0003  0.2626  0.2207
 4616TIP3    H135483   6.275   5.821   0.265 -0.9585 -1.0056 -2.7574
 4616TIP3    H235484   6.288   5.671   0.286  1.1102 -0.5624 -0.4780
 4617TIP3   OH235485   1.506   2.733   7.025 -0.0899  0.2364 -0.3949
 4617TIP3    H135486   1.589   2.749   6.979  0.2209  0.7718  0.3367
 4617TIP3    H235487   1.531   2.710   7.114 -0.7261  0.2523 -0.2055
 4618TIP3   OH235488   6.587   4.309   0.812  0.1512 -0.6826 -1.0753
 4618TIP3    H135489   6.496   4.287   0.791 -0.2099  0.2189 -0.4806
 4618TIP3    H235490   6.617   4.235   0.865 -0.4807 -0.6277 -0.6261
 4619TIP3   OH235491   1.487   2.044   7.171  0.0471 -0.0612  0.1531
 4619TIP3    H135492   1.469   2.026   7.079 -0.3815  1.3801 -0.0671
 4619TIP3    H235493   1.450   1.969   7.218 -0.8352 -0.2215 -0.7659
 4620TIP3   OH235494   0.558   4.867   7.093  0.0889 -0.1264  0.6528
 4620TIP3    H135495   0.654   4.859   7.093  0.0944 -0.1831 -0.4742
 4620TIP3    H235496   0.530   4.807   7.161  0.7364 -2.1322 -0.7442
 4621TIP3   OH235497   0.859   4.042   1.667 -0.4044 -0.0874  0.2930
 4621TIP3    H135498   0.800   3.976   1.630  0.5375 -1.1197  0.5972
 4621TIP3    H235499   0.864   4.021   1.760 -0.7024  0.8968  0.5386
 4622TIP3   OH235500   0.533   0.274   0.412  0.2321 -0.1196 -0.1761
 4622TIP3    H135501   0.589   0.271   0.490 -0.2200  0.1445  0.1650
 4622TIP3    H235502   0.576   0.337   0.354  0.8065 -0.6416 -0.3330
 4623TIP3   OH235503   0.499   2.237   7.304  0.3495  0.3157  0.4115
 4623TIP3    H135504   0.512   2.317   7.255 -1.4160  0.3512 -0.0713
 4623TIP3    H235505   0.471   2.266   7.391 -3.3407  0.3630 -0.6168
 4624TIP3   OH235506   1.047   5.579   0.571 -0.5990  0.0107  0.4218
 4624TIP3    H135507   0.996   5.541   0.500 -0.9500  2.6557 -0.8531
 4624TIP3    H235508   1.100   5.647   0.530  0.3680  0.5711  2.4557
 4625TIP3   OH235509   2.218   6.127   8.197  0.4210 -0.3516 -0.7762
 4625TIP3    H135510   2.252   6.046   8.159 -0.0606 -0.8753 -0.1054
 4625TIP3    H235511   2.124   6.115   8.200  0.1726  0.8741 -2.1159
 4626TIP3   OH235512   5.500   6.171   2.442  0.2162 -0.2934 -0.1253
 4626TIP3    H135513   5.437   6.243   2.448 -0.7684 -1.1828  0.5446
 4626TIP3    H235514   5.566   6.202   2.380 -1.2031  0.4329 -1.3266
 4627TIP3   OH235515   2.946   1.331   0.069 -0.0570 -0.2436 -0.2281
 4627TIP3    H135516   2.949   1.350   0.163 -2.3026 -1.9778  0.2790
 4627TIP3    H235517   2.930   1.415   0.028 -2.0665  0.1759  1.2497
 4628TIP3   OH235518   1.875   0.001   1.283  0.0747  0.3358  0.1918
 4628TIP3    H135519   1.835   0.018   1.198  0.2894 -0.1348 -0.0059
 4628TIP3    H235520   1.918  -0.084   1.273 -0.0157  0.2132  0.8126
 4629TIP3   OH235521   1.777   4.784   0.278  0.3225 -0.0901  0.4974
 4629TIP3    H135522   1.826   4.735   0.343  0.8929  0.4932  0.5180
 4629TIP3    H235523   1.778   4.874   0.310 -0.0554  0.0679  0.0791
 4630TIP3   OH235524   0.879   2.726   1.614  0.7588  0.0156  0.1941
 4630TIP3    H135525   0.917   2.786   1.550  0.4362  2.6668  2.2973
 4630TIP3    H235526   0.786   2.751   1.618 -0.6814 -3.9908 -2.2996
 4631TIP3   OH235527   0.098   5.697   1.322  0.3279  0.5696 -0.0181
 4631TIP3    H135528   0.086   5.789   1.298  0.3881  0.9278  1.2572
 4631TIP3    H235529   0.009   5.665   1.339  0.2669  0.2626 -0.8737
 4632TIP3   OH235530   1.069   3.396   8.070  0.3742 -0.4305 -0.7363
 4632TIP3    H135531   1.005   3.430   8.132  0.0810  2.9131 -2.6046
 4632TIP3    H235532   1.017   3.369   7.994  0.9596 -1.3607 -0.8358
 4633TIP3   OH235533   0.595   3.097   0.032  0.0132 -0.4855 -0.7980
 4633TIP3    H135534   0.625   3.095  -0.059 -0.0127 -0.3480 -0.8092
 4633TIP3    H235535   0.564   3.186   0.045  2.3154  0.2531  0.1036
 4634TIP3   OH235536   2.940   6.788   2.097  0.2896 -0.4657  0.1094
 4634TIP3    H135537   2.853   6.764   2.129  1.1535 -1.9094  1.5686
 4634TIP3    H235538   2.952   6.878   2.125  0.3843 -1.1829  2.6666
 4635TIP3   OH235539   5.261   1.958   2.502 -0.0320 -0.6195  0.3095
 4635TIP3    H135540   5.305   1.878   2.474 -0.0561 -0.1068 -1.2490
 4635TIP3    H235541   5.268   2.018   2.428 -0.1533  0.7823  1.3814
 4636TIP3   OH235542   2.571   1.897   8.453 -0.2656  0.2161  0.5367
 4636TIP3    H135543   2.630   1.972   8.442  0.7712 -0.6587 -0.0577
 4636TIP3    H235544   2.487   1.927   8.418 -0.4434  1.7650  2.1487
 4637TIP3   OH235545   1.049   0.607   8.474  0.6529 -0.0801 -0.5718
 4637TIP3    H135546   0.964   0.629   8.513  0.6884  0.4635 -0.7848
 4637TIP3    H235547   1.070   0.521   8.509  1.1436  0.7855  1.4006
 4638TIP3   OH235548   6.397   0.597   0.434 -0.3160 -0.6684 -0.0580
 4638TIP3    H135549   6.306   0.587   0.462 -0.6134  0.9119 -0.3421
 4638TIP3    H235550   6.394   0.592   0.339 -0.2677  0.2942 -0.1236
 4639TIP3   OH235551   2.764   0.032   1.305 -0.1992  0.0235 -0.0563
 4639TIP3    H135552   2.829   0.050   1.373 -0.0258 -0.8067  0.0034
 4639TIP3    H235553   2.787  -0.054   1.271 -1.1442 -0.1981 -0.1664
 4640TIP3   OH235554   0.944   6.192   8.099 -0.6443  0.3704 -0.4365
 4640TIP3    H135555   0.889   6.178   8.176 -1.3350  0.0235 -0.9756
 4640TIP3    H235556   0.908   6.132   8.033 -0.8139  1.4920 -1.3982
 4641TIP3   OH235557   2.763   5.139   7.022 -0.7312  0.0421  0.1062
 4641TIP3    H135558   2.738   5.139   6.930 -0.8290 -0.5669  0.1258
 4641TIP3    H235559   2.750   5.048   7.050 -1.5241  0.3910  0.9354
 4642TIP3   OH235560   1.001   3.247   8.355  0.5752 -0.2942  0.2950
 4642TIP3    H135561   1.083   3.230   8.401 -0.2081 -0.6732  1.5734
 4642TIP3    H235562   0.947   3.294   8.418 -1.1189 -2.2116  0.3577
 4643TIP3   OH235563   0.294   2.528   1.818  0.3038 -0.0960  0.0268
 4643TIP3    H135564   0.323   2.608   1.862  1.1809 -0.0805 -0.5574
 4643TIP3    H235565   0.329   2.535   1.729 -0.9503 -0.4029 -0.5153
 4644TIP3   OH235566   4.583   4.626   0.177 -0.0556  0.9770  0.3828
 4644TIP3    H135567   4.573   4.582   0.261 -1.0206  0.1158 -0.1595
 4644TIP3    H235568   4.500   4.672   0.164  0.7803  2.6461  0.7395
 4645TIP3   OH235569   6.104   0.202   7.879  0.0661  0.0969  0.1521
 4645TIP3    H135570   6.171   0.134   7.886  0.6423  0.7270  0.8588
 4645TIP3    H235571   6.135   0.259   7.809  0.3810  0.5103  0.6265
 4646TIP3   OH235572   6.767   4.661   7.038 -0.0780 -0.1402 -0.5868
 4646TIP3    H135573   6.815   4.678   6.957  1.4690 -0.0048  0.3243
 4646TIP3    H235574   6.775   4.567   7.051 -2.0247 -0.4941 -1.5826
 4647TIP3   OH235575   6.542   6.647   0.311  0.0042 -0.2516 -0.5398
 4647TIP3    H135576   6.580   6.638   0.224 -1.4242  0.6601 -1.2968
 4647TIP3    H235577   6.581   6.727   0.346  2.6281 -1.9709  0.8284
 4648TIP3   OH235578   3.574   0.068   1.200 -0.4004  0.3698 -0.0356
 4648TIP3    H135579   3.541   0.033   1.117 -1.3186  0.9624  0.0799
 4648TIP3    H235580   3.516   0.141   1.221  0.7960  1.2499  0.3226
 4649TIP3   OH235581   2.205   6.830   6.882 -0.4858 -0.2188  0.4228
 4649TIP3    H135582   2.130   6.786   6.842 -0.1928 -3.1923  2.7674
 4649TIP3    H235583   2.274   6.823   6.816 -0.9237 -1.9745  0.0847
 4650TIP3   OH235584   2.976   1.442   6.707 -0.0877 -0.2658  0.7618
 4650TIP3    H135585   2.992   1.482   6.621  0.1705 -1.8386  0.0350
 4650TIP3    H235586   2.886   1.468   6.729  0.0556  0.6553  0.3153
 4651TIP3   OH235587   2.875   0.711   0.713  0.2505  0.2072  0.1221
 4651TIP3    H135588   2.915   0.675   0.791 -1.1318 -0.6659  0.4682
 4651TIP3    H235589   2.890   0.806   0.719  1.3495  0.0030  0.7213
 4652TIP3   OH235590   3.740   0.764   0.850 -0.2540 -1.0332  0.3085
 4652TIP3    H135591   3.775   0.851   0.869  1.0437 -1.2557 -0.8932
 4652TIP3    H235592   3.754   0.714   0.931 -1.6391  0.0225  1.2462
 4653TIP3   OH235593   6.692   4.299   1.462 -0.2851  0.2282 -0.3388
 4653TIP3    H135594   6.705   4.260   1.548 -1.2117  1.4860  0.3998
 4653TIP3    H235595   6.703   4.393   1.476  1.3824  0.3485 -1.9588
 4654TIP3   OH235596   6.793   5.789   7.269 -0.6634 -0.3077  0.0862
 4654TIP3    H135597   6.741   5.833   7.201 -0.4919  0.6742  0.5620
 4654TIP3    H235598   6.733   5.726   7.309 -1.6788  1.1068  0.9238
 4655TIP3   OH235599   1.379   5.923   7.930 -0.2592 -0.3403  0.1793
 4655TIP3    H135600   1.430   5.999   7.902 -0.2308 -0.2383  0.5072
 4655TIP3    H235601   1.444   5.858   7.954 -0.2735 -0.7459 -0.8155
 4656TIP3   OH235602   3.440   6.160   1.915  0.1153 -0.0300  0.2203
 4656TIP3    H135603   3.521   6.112   1.932  0.4296  1.0368  1.9722
 4656TIP3    H235604   3.372   6.108   1.959 -0.2153 -1.0205 -1.4015
 4657TIP3   OH235605   4.297   3.309   8.422  0.0963 -0.1758 -0.0066
 4657TIP3    H135606   4.357   3.363   8.473 -0.1563 -0.6546  0.8284
 4657TIP3    H235607   4.215   3.310   8.472 -0.1604 -0.6554 -0.4016
 4658TIP3   OH235608   1.428   1.819   0.925  0.3599  0.0582  0.2173
 4658TIP3    H135609   1.332   1.813   0.918  0.3069  0.7276  0.2796
 4658TIP3    H235610   1.458   1.830   0.835  0.5328 -1.8996 -0.0048
 4659TIP3   OH235611   4.017   2.257   1.486  0.2558  0.7085  0.2091
 4659TIP3    H135612   3.939   2.297   1.446  0.3922  0.4159 -0.3493
 4659TIP3    H235613   3.988   2.170   1.513  0.3595  0.6380  0.0942
 4660TIP3   OH235614   1.499   4.300   1.384 -0.0849 -0.5966 -0.5808
 4660TIP3    H135615   1.408   4.321   1.366 -0.1565  0.7320  1.0686
 4660TIP3    H235616   1.498   4.259   1.470  0.9600  0.5512  0.0123
 4661TIP3   OH235617   6.154   1.960   7.233 -0.1024 -0.1670 -0.3523
 4661TIP3    H135618   6.186   1.870   7.227  3.1231  0.9007 -2.0415
 4661TIP3    H235619   6.121   1.979   7.145 -1.2444  0.1620  0.1402
 4662TIP3   OH235620   5.238   1.526   2.096  0.0209  0.2446 -0.0847
 4662TIP3    H135621   5.222   1.584   2.169  0.7794  0.3172  0.0336
 4662TIP3    H235622   5.307   1.466   2.127 -0.0968 -0.1244 -0.5170
 4663TIP3   OH235623   6.252   4.311   1.146 -0.3714  0.6069  0.7854
 4663TIP3    H135624   6.214   4.225   1.165  0.7021  0.1068  0.7330
 4663TIP3    H235625   6.182   4.373   1.165 -1.6038 -0.3577 -0.4557
 4664TIP3   OH235626   6.859   2.789   8.438  0.3136 -0.2591  0.1660
 4664TIP3    H135627   6.779   2.745   8.466 -1.5843  2.9654  0.3190
 4664TIP3    H235628   6.893   2.830   8.517  2.1861 -1.5378  0.0928
 4665TIP3   OH235629   5.908   3.001   8.170 -0.2700  0.1396  0.1706
 4665TIP3    H135630   5.861   2.918   8.163 -1.0969  0.2567  2.9366
 4665TIP3    H235631   5.976   2.996   8.103 -1.6568 -1.8014 -1.2024
 4666TIP3   OH235632   1.767   0.281   0.415  0.2069  0.2736  0.2852
 4666TIP3    H135633   1.803   0.277   0.504  1.0378 -0.8293 -0.0832
 4666TIP3    H235634   1.682   0.324   0.427 -0.1012 -0.6395  1.7604
 4667TIP3   OH235635   2.591   1.309   0.112 -0.0588 -0.0745  0.1234
 4667TIP3    H135636   2.644   1.252   0.057 -0.2059  1.0317 -1.2356
 4667TIP3    H235637   2.530   1.351   0.051 -1.2094  0.1287  1.3564
 4668TIP3   OH235638   3.707   5.330   1.348  0.4349  0.1830 -0.4418
 4668TIP3    H135639   3.679   5.283   1.427  0.0290  1.7281  0.3584
 4668TIP3    H235640   3.799   5.348   1.363  0.0089  1.8076  0.4011
 4669TIP3   OH235641   2.143   1.993   1.003  0.0105  0.1230  0.3284
 4669TIP3    H135642   2.203   2.049   1.051 -0.9105  1.4784 -0.0523
 4669TIP3    H235643   2.152   1.907   1.045  1.6650  0.4586  0.7193
 4670TIP3   OH235644   6.124   1.874   0.762 -0.2652 -0.0791 -0.2050
 4670TIP3    H135645   6.115   1.793   0.712 -0.7464 -0.7486  0.9188
 4670TIP3    H235646   6.153   1.845   0.849 -1.2581  0.8708  0.4700
 4671TIP3   OH235647   4.934   3.512   1.586 -0.0962  0.0383 -0.0753
 4671TIP3    H135648   4.885   3.576   1.535  0.4836  0.5079 -0.0577
 4671TIP3    H235649   5.023   3.516   1.551 -0.0600 -0.7817 -0.0882
 4672TIP3   OH235650   4.878   6.504   7.990 -0.7820  0.5109  0.0079
 4672TIP3    H135651   4.843   6.460   8.067 -0.3659  0.4123  0.1437
 4672TIP3    H235652   4.971   6.518   8.011 -0.3346 -0.7721 -1.0428
 4673TIP3   OH235653   2.466   0.835   6.679 -0.0012 -0.0339  0.1225
 4673TIP3    H135654   2.519   0.844   6.600  0.3033  0.1166  0.3437
 4673TIP3    H235655   2.529   0.815   6.748 -0.3957 -1.4266  0.1050
 4674TIP3   OH235656   5.992   2.910   7.707 -0.2284  0.1149  0.1459
 4674TIP3    H135657   5.905   2.906   7.746  0.0696 -0.2530  0.7891
 4674TIP3    H235658   5.988   2.985   7.648 -0.5741  0.9648  1.2057
 4675TIP3   OH235659   2.392   0.819   7.362 -0.1012  0.7603  0.7102
 4675TIP3    H135660   2.401   0.817   7.267 -0.4933 -1.8174  0.6724
 4675TIP3    H235661   2.307   0.779   7.379 -0.3471  1.8001  2.1520
 4676TIP3   OH235662   6.136   3.164   0.584 -0.1038 -0.1446  0.3318
 4676TIP3    H135663   6.052   3.144   0.544 -0.7965  2.2312  0.4525
 4676TIP3    H235664   6.134   3.117   0.668 -0.9070 -0.8307 -0.0523
 4677TIP3   OH235665   0.849   0.305   8.490  0.1103  0.0345 -0.3576
 4677TIP3    H135666   0.917   0.335   8.551 -0.6179 -0.3062  0.6429
 4677TIP3    H235667   0.881   0.220   8.459 -0.9164 -1.2789  1.9481
 4678TIP3   OH235668   5.644   3.301   6.919  0.0721  0.3463  0.3884
 4678TIP3    H135669   5.728   3.274   6.880  0.4743 -0.7398  1.9239
 4678TIP3    H235670   5.581   3.238   6.885  0.1095  0.4303  0.1633
 4679TIP3   OH235671   3.720   4.760   7.334 -0.2480  0.0458  0.0730
 4679TIP3    H135672   3.777   4.830   7.301 -0.5230  0.4835  0.4969
 4679TIP3    H235673   3.772   4.717   7.402 -0.3543  0.3314  0.3377
 4680TIP3   OH235674   2.587   5.506   6.915  0.0154  0.3887  0.0398
 4680TIP3    H135675   2.655   5.570   6.938  1.2200 -1.6224  2.5957
 4680TIP3    H235676   2.634   5.433   6.877 -0.7601 -0.7486  1.1800
 4681TIP3   OH235677   3.909   1.550   1.313 -0.3673  0.2226  0.0600
 4681TIP3    H135678   3.923   1.456   1.298 -0.6586 -0.2002  2.1125
 4681TIP3    H235679   3.816   1.557   1.332 -0.0204  0.5933  1.7942
 4682TIP3   OH235680   5.450   4.498   7.175 -0.0987 -0.7464 -0.2841
 4682TIP3    H135681   5.527   4.454   7.211  0.2798  0.6787  0.7496
 4682TIP3    H235682   5.378   4.466   7.229 -0.3023 -2.2064 -1.3559
 4683TIP3   OH235683   4.084   5.739   1.828  0.4292  0.0787  0.2370
 4683TIP3    H135684   4.011   5.677   1.833  0.9825 -0.7415 -1.2515
 4683TIP3    H235685   4.116   5.744   1.918 -2.2571  1.5151  1.2379
 4684TIP3   OH235686   1.845   3.378   8.557  0.6204  0.6230  0.4425
 4684TIP3    H135687   1.928   3.418   8.531  0.9374 -0.5136 -0.3938
 4684TIP3    H235688   1.835   3.303   8.499 -0.7682  0.4544  0.8516
 4685TIP3   OH235689   6.706   4.108   6.669 -0.9124  0.2740 -1.0803
 4685TIP3    H135690   6.738   4.095   6.580 -0.4199  0.5443 -0.9424
 4685TIP3    H235691   6.665   4.024   6.692 -0.5551  0.0221 -1.3575
 4686TIP3   OH235692   0.526   0.791   7.700  0.1763  0.1384  0.8702
 4686TIP3    H135693   0.567   0.763   7.782  0.4616 -3.0901 -0.2058
 4686TIP3    H235694   0.432   0.785   7.717  0.2287  0.0321  1.1310
 4687TIP3   OH235695   3.527   3.917   6.932  0.0423 -0.5269 -0.8101
 4687TIP3    H135696   3.513   3.823   6.944 -0.9650 -0.2700  0.3344
 4687TIP3    H235697   3.460   3.943   6.869 -0.7137 -0.3378  0.0436
 4688TIP3   OH235698   6.357   1.478   7.993 -0.4595  0.5266 -0.4469
 4688TIP3    H135699   6.361   1.428   8.075 -1.5412  0.4876 -0.4015
 4688TIP3    H235700   6.289   1.435   7.942  0.3176  0.4624 -1.4424
 4689TIP3   OH235701   2.137   2.142   0.590 -0.5272 -0.1663  0.0270
 4689TIP3    H135702   2.128   2.055   0.627  0.4470  0.4155  1.7680
 4689TIP3    H235703   2.122   2.201   0.664 -0.8846  1.1293 -1.0441
 4690TIP3   OH235704   4.485   3.690   2.137  0.2299 -0.3977  0.1114
 4690TIP3    H135705   4.574   3.689   2.173  0.5232 -0.1499 -0.5972
 4690TIP3    H235706   4.451   3.777   2.157  1.4212  0.8047 -2.6305
 4691TIP3   OH235707   2.167   2.386   8.337 -0.1118 -0.3111 -0.2973
 4691TIP3    H135708   2.144   2.348   8.422  1.1168  0.0325  0.2099
 4691TIP3    H235709   2.151   2.480   8.348 -1.1466 -0.4042 -0.8713
 4692TIP3   OH235710   4.410   3.644   6.986 -0.1645  0.3047  0.0693
 4692TIP3    H135711   4.470   3.718   6.978  0.6459 -0.3693 -0.2267
 4692TIP3    H235712   4.345   3.658   6.917  0.3735  0.3910 -0.4289
 4693TIP3   OH235713   5.560   6.256   0.511 -0.0130  0.2425  0.8129
 4693TIP3    H135714   5.554   6.332   0.569 -1.2312  1.0958 -0.3638
 4693TIP3    H235715   5.642   6.268   0.464  1.0257 -0.4978  2.3617
 4694TIP3   OH235716   3.258   0.059   0.131 -0.1890 -0.6111 -0.6489
 4694TIP3    H135717   3.200  -0.017   0.133 -0.5857 -0.3074  0.8598
 4694TIP3    H235718   3.326   0.036   0.069 -0.1081 -2.3461  0.0335
 4695TIP3   OH235719   5.476   1.154   0.640  0.2200  0.3325  0.6893
 4695TIP3    H135720   5.424   1.146   0.560 -1.0748  0.7172  1.4633
 4695TIP3    H235721   5.512   1.243   0.636  0.7338  0.1122  0.2183
 4696TIP3   OH235722   3.755   5.401   0.256  0.1147  0.2313 -0.4184
 4696TIP3    H135723   3.689   5.466   0.232  2.2101  1.5043 -3.3041
 4696TIP3    H235724   3.836   5.452   0.267  1.5481 -1.7149 -1.3915
 4697TIP3   OH235725   0.292   0.067   7.671  0.0797  0.2953 -0.1607
 4697TIP3    H135726   0.229   0.136   7.649 -0.5714 -0.0443  0.5844
 4697TIP3    H235727   0.284   0.058   7.766 -0.9601 -1.8329 -0.3994
 4698TIP3   OH235728   2.514   6.229   7.319  0.4386  0.2601 -0.0713
 4698TIP3    H135729   2.583   6.164   7.331  1.4464  1.3007 -0.0063
 4698TIP3    H235730   2.436   6.189   7.357  1.1649 -0.6915  0.4559
 4699TIP3   OH235731   5.892   2.036   7.672 -0.1829 -0.1276  0.6117
 4699TIP3    H135732   5.825   2.104   7.677 -0.0801  0.0402 -0.2249
 4699TIP3    H235733   5.844   1.954   7.687 -0.1914  0.1573  2.3488
 4700TIP3   OH235734   0.426   2.029   0.673 -0.0164 -0.6887  0.0298
 4700TIP3    H135735   0.478   1.979   0.736  0.3894 -0.1462  0.1303
 4700TIP3    H235736   0.445   1.988   0.589 -0.6762 -1.5130  0.2606
 4701TIP3   OH235737   1.486   3.615   2.274  0.4148 -0.6349 -0.3606
 4701TIP3    H135738   1.543   3.555   2.322  1.1498  1.9721  2.2921
 4701TIP3    H235739   1.397   3.588   2.297  0.6618 -1.7060 -0.5997
 4702TIP3   OH235740   2.300   2.289   0.417  0.5017  0.5381  1.2160
 4702TIP3    H135741   2.315   2.214   0.359 -0.2888  0.7058  0.7915
 4702TIP3    H235742   2.278   2.249   0.501 -0.0891  0.2918  0.9462
 4703TIP3   OH235743   3.343   2.574   6.958 -0.9871 -0.2213  0.0230
 4703TIP3    H135744   3.337   2.663   6.922 -1.8178  0.3906  1.5849
 4703TIP3    H235745   3.252   2.545   6.966 -0.8729 -0.2310  1.7742
 4704TIP3   OH235746   4.815   0.857   1.720 -0.4462 -0.6642 -0.1224
 4704TIP3    H135747   4.723   0.882   1.728 -0.5710 -0.4845 -1.6986
 4704TIP3    H235748   4.816   0.790   1.652  0.6714 -0.1202 -0.6737
 4705TIP3   OH235749   0.682   4.784   7.492  1.0507 -0.0181 -0.3071
 4705TIP3    H135750   0.651   4.717   7.553  1.4340  0.5721  0.5450
 4705TIP3    H235751   0.735   4.736   7.429 -0.8117 -0.9212 -1.2840
 4706TIP3   OH235752   6.765   2.972   1.990 -0.1399 -0.3319 -0.6322
 4706TIP3    H135753   6.831   3.041   1.986 -0.4104 -0.0007  0.2732
 4706TIP3    H235754   6.727   2.981   2.077 -2.0253  0.0537 -1.4595
 4707TIP3   OH235755   4.212   4.690   0.999  0.0939  0.0727 -0.4609
 4707TIP3    H135756   4.150   4.684   1.072  0.4994 -0.1691 -0.1313
 4707TIP3    H235757   4.192   4.773   0.957  1.1125  1.1547  1.0812
 4708TIP3   OH235758   6.755   3.570   2.627 -0.0260 -0.4836  0.3591
 4708TIP3    H135759   6.686   3.571   2.694 -1.2919  0.8524 -0.9137
 4708TIP3    H235760   6.714   3.607   2.549  1.5929 -1.4323 -1.0137
 4709TIP3   OH235761   5.414   1.758   7.192  0.0416 -0.1573 -0.2937
 4709TIP3    H135762   5.486   1.741   7.253 -1.4478 -1.0994  1.3168
 4709TIP3    H235763   5.407   1.853   7.189  0.5581 -0.0809  0.5294
 4710TIP3   OH235764   5.957   4.639   7.944  1.0347 -0.1174  0.1303
 4710TIP3    H135765   5.878   4.686   7.969  1.6644  0.6398  0.7701
 4710TIP3    H235766   6.002   4.698   7.884  1.3421 -0.3306  0.1477
 4711TIP3   OH235767   3.746   5.933   1.855  0.3839  0.9086 -0.2291
 4711TIP3    H135768   3.723   5.995   1.924  0.5289 -0.7425  1.3951
 4711TIP3    H235769   3.722   5.847   1.891 -0.0836  0.0176 -2.4880
 4712TIP3   OH235770   4.367   4.442   1.678  0.2599 -0.2856 -0.5427
 4712TIP3    H135771   4.410   4.360   1.703 -2.4079 -2.1137 -1.4721
 4712TIP3    H235772   4.337   4.479   1.761  1.1927 -0.4068 -0.1404
 4713TIP3   OH235773   3.140   3.709   1.190 -1.0625 -0.1289 -0.0289
 4713TIP3    H135774   3.065   3.688   1.135 -1.7464 -0.0444  0.8392
 4713TIP3    H235775   3.186   3.626   1.201  0.0974  0.1597 -2.1357
 4714TIP3   OH235776   1.600   6.734   1.323  0.2153 -0.1097 -0.1161
 4714TIP3    H135777   1.540   6.755   1.252 -1.3963 -0.8220  0.9927
 4714TIP3    H235778   1.590   6.806   1.385  2.1162  0.8599 -0.8634
 4715TIP3   OH235779   0.766   2.169   2.439  0.5956  0.5157 -0.2323
 4715TIP3    H135780   0.768   2.176   2.344 -0.4750  1.9964 -0.1713
 4715TIP3    H235781   0.858   2.173   2.465  0.9450 -0.5756 -1.2168
 4716TIP3   OH235782   6.598   5.356   0.857 -1.0616 -0.3741  0.1350
 4716TIP3    H135783   6.543   5.366   0.935 -0.6353 -1.0029  0.5192
 4716TIP3    H235784   6.640   5.271   0.867  0.3027  0.2688  0.0486
 4717TIP3   OH235785   6.067   3.049   0.194 -0.2648  0.3113 -0.1170
 4717TIP3    H135786   6.060   3.131   0.146  1.5878  2.1110  2.4058
 4717TIP3    H235787   6.159   3.022   0.184 -0.8714 -1.6130 -1.0481
 4718TIP3   OH235788   6.565   2.770   2.165  0.2739 -0.2841  0.9784
 4718TIP3    H135789   6.610   2.735   2.242  3.1402  0.5770 -0.1698
 4718TIP3    H235790   6.576   2.865   2.172 -1.3186 -0.0437  0.5578
 4719TIP3   OH235791   3.146   3.237   8.424 -0.4670  0.0808  0.2485
 4719TIP3    H135792   3.101   3.238   8.339  0.0450 -1.1437 -0.0548
 4719TIP3    H235793   3.111   3.313   8.470 -0.3174  1.1550 -1.2938
 4720TIP3   OH235794   0.190   4.451   7.573  0.0809  0.0097  0.4530
 4720TIP3    H135795   0.263   4.399   7.604 -0.2002  0.2373  1.5406
 4720TIP3    H235796   0.220   4.542   7.581 -0.9036  0.2019  2.5846
 4721TIP3   OH235797   6.449   4.158   7.748 -0.1919 -0.2597  0.0515
 4721TIP3    H135798   6.463   4.071   7.786 -2.2726 -1.1695 -1.0944
 4721TIP3    H235799   6.378   4.196   7.801 -0.8653 -0.2250 -0.8440
 4722TIP3   OH235800   3.772   4.931   8.263 -1.1701 -0.0637  0.1162
 4722TIP3    H135801   3.812   4.862   8.316 -2.2631 -1.5328 -0.9061
 4722TIP3    H235802   3.844   4.989   8.240  0.1947 -2.0547 -0.8197
 4723TIP3   OH235803   5.506   2.905   1.124 -0.2531  0.3197 -0.6166
 4723TIP3    H135804   5.492   2.812   1.142 -0.1538  0.5736  0.9657
 4723TIP3    H235805   5.422   2.946   1.144 -0.1072  0.6469 -0.6690
 4724TIP3   OH235806   4.383   5.099   7.274 -0.2745 -0.0709  0.1817
 4724TIP3    H135807   4.293   5.106   7.305 -1.0924 -0.2730 -2.0190
 4724TIP3    H235808   4.398   5.005   7.263  0.1137 -0.0232  0.2772
 4725TIP3   OH235809   1.746   5.223   7.905 -0.2129  0.2874 -0.6713
 4725TIP3    H135810   1.726   5.237   7.997  0.4945 -2.2367 -0.0378
 4725TIP3    H235811   1.834   5.186   7.905 -0.1377  0.3722 -2.3748
 4726TIP3   OH235812   6.338   3.950   1.084  0.3226 -0.2724 -0.6365
 4726TIP3    H135813   6.341   3.968   1.178  2.6255 -1.6267 -0.3708
 4726TIP3    H235814   6.395   4.015   1.045 -0.4280  0.1268 -1.0971
 4727TIP3   OH235815   6.576   2.910   1.804  0.3134  0.2078 -0.0491
 4727TIP3    H135816   6.628   2.936   1.729 -0.8339  0.2366 -0.8624
 4727TIP3    H235817   6.636   2.915   1.878  1.0773  1.6690 -0.7266
 4728TIP3   OH235818   0.186   4.044   0.821 -0.2961  0.4591  0.3165
 4728TIP3    H135819   0.150   4.087   0.744 -0.0252  0.8144  0.3863
 4728TIP3    H235820   0.162   3.952   0.810  0.9411  0.2424 -0.9163
 4729TIP3   OH235821   1.500   3.153   2.032  0.0659 -0.2502  0.7417
 4729TIP3    H135822   1.581   3.199   2.053 -0.1470  1.1759 -1.2686
 4729TIP3    H235823   1.433   3.220   2.035 -0.6467 -0.9127  0.0075
 4730TIP3   OH235824   2.296   4.491   8.451 -0.1463  0.1786 -0.3810
 4730TIP3    H135825   2.291   4.404   8.411  1.2058 -0.5715  0.9812
 4730TIP3    H235826   2.208   4.506   8.485 -0.4786 -0.5300 -0.8936
 4731TIP3   OH235827   0.888   6.833   7.499  0.5439  0.6218  0.0999
 4731TIP3    H135828   0.969   6.785   7.517 -0.4698 -1.4479 -0.5692
 4731TIP3    H235829   0.823   6.765   7.481 -1.2847  2.2345  0.2815
 4732TIP3   OH235830   2.394   2.714   7.311  0.1059  0.2907  0.1267
 4732TIP3    H135831   2.411   2.641   7.371 -0.4804  0.2101  0.2023
 4732TIP3    H235832   2.476   2.763   7.309  0.2416  0.0990  0.7285
 4733TIP3   OH235833   4.450   2.046   2.069  0.2539  0.4705  0.5877
 4733TIP3    H135834   4.414   2.001   2.145 -0.6381  2.7113  1.5886
 4733TIP3    H235835   4.374   2.066   2.014  0.6204  0.7324  0.1674
 4734TIP3   OH235836   3.308   6.140   6.741 -0.8183  0.3375 -0.3188
 4734TIP3    H135837   3.329   6.098   6.825 -1.0823 -1.1778 -0.9981
 4734TIP3    H235838   3.352   6.226   6.747  2.1639 -1.0835 -0.0337
 4735TIP3   OH235839   1.220   6.424   1.445  0.4499  0.0970 -0.1682
 4735TIP3    H135840   1.153   6.464   1.389 -0.2672 -0.2627  0.4095
 4735TIP3    H235841   1.262   6.498   1.488  0.9421  0.3708 -1.1011
 4736TIP3   OH235842   5.025   2.623   8.570 -0.2801 -0.1079 -0.0511
 4736TIP3    H135843   4.930   2.611   8.573 -0.2647 -0.1255  2.2567
 4736TIP3    H235844   5.051   2.631   8.662  1.9178  0.2698 -0.6482
 4737TIP3   OH235845   3.063   6.300   0.284 -0.9200  0.3585 -0.3088
 4737TIP3    H135846   3.136   6.279   0.226 -0.7207  0.2006  0.0003
 4737TIP3    H235847   3.099   6.366   0.344 -1.9288  2.8132 -2.1977
 4738TIP3   OH235848   3.462   6.721   1.223 -0.0209 -0.3469  0.1314
 4738TIP3    H135849   3.519   6.723   1.300 -2.7925 -0.9717  2.3819
 4738TIP3    H235850   3.486   6.799   1.173  3.0334 -0.8361  0.6672
 4739TIP3   OH235851   0.703   4.795   6.386  0.0982 -0.2896  0.0144
 4739TIP3    H135852   0.685   4.887   6.406  1.1279  0.6496 -2.8897
 4739TIP3    H235853   0.625   4.748   6.417 -1.5869  1.8973 -0.6684
 4740TIP3   OH235854   4.730   1.311   1.661 -0.1660  0.0228 -0.4859
 4740TIP3    H135855   4.768   1.285   1.578  0.5585 -3.2340  0.7096
 4740TIP3    H235856   4.788   1.380   1.694  1.4522 -0.9217 -1.2561
 4741TIP3   OH235857   0.544   5.460   8.277  0.3959  0.4933  0.2470
 4741TIP3    H135858   0.583   5.516   8.343 -1.2433  0.5569  1.1951
 4741TIP3    H235859   0.452   5.453   8.301  0.0856 -0.7935 -1.1133
 4742TIP3   OH235860   4.203   6.670   2.006  0.0578 -0.0169  0.2979
 4742TIP3    H135861   4.234   6.708   1.924 -1.4736  3.0806  0.9988
 4742TIP3    H235862   4.249   6.719   2.074  0.5672 -1.8537  1.3572
 4743TIP3   OH235863   2.467   2.696   0.508 -0.1419 -0.2766 -0.0051
 4743TIP3    H135864   2.546   2.645   0.526 -1.0313 -2.1654 -1.2141
 4743TIP3    H235865   2.496   2.764   0.446  0.6474 -0.5439  0.0554
 4744TIP3   OH235866   4.836   1.418   2.740  0.1865 -0.1937  0.8041
 4744TIP3    H135867   4.916   1.383   2.779  1.1800  0.5860 -0.4857
 4744TIP3    H235868   4.848   1.513   2.741 -0.3980 -0.0985 -0.0450
 4745TIP3   OH235869   3.608   6.878   1.446  0.1615  0.0576  0.2193
 4745TIP3    H135870   3.546   6.939   1.487 -0.4381 -0.2662 -0.1798
 4745TIP3    H235871   3.620   6.912   1.357 -0.4574 -0.5951 -0.1223
 4746TIP3   OH235872   0.023   5.918   1.533 -0.3286  0.0648 -0.3879
 4746TIP3    H135873   0.024   5.957   1.446  0.5165 -0.4086 -0.5964
 4746TIP3    H235874   0.112   5.887   1.547  0.0806  1.8396  1.4359
 4747TIP3   OH235875   4.017   2.598   6.608  0.6410  0.3216 -0.0857
 4747TIP3    H135876   4.034   2.554   6.692 -1.0815 -1.3473 -0.5545
 4747TIP3    H235877   4.060   2.542   6.543  0.2188  0.4760 -0.4965
 4748TIP3   OH235878   5.247   3.396   7.846 -0.3768  0.3301 -0.2330
 4748TIP3    H135879   5.291   3.389   7.761  0.6102  1.1180  0.1973
 4748TIP3    H235880   5.222   3.488   7.853  1.5356  0.8097  1.2556
 4749TIP3   OH235881   6.333   4.196   0.726 -0.1635  0.3305 -0.8920
 4749TIP3    H135882   6.297   4.189   0.637  0.3950 -0.0388 -1.0889
 4749TIP3    H235883   6.294   4.122   0.774 -0.6890  0.6948 -0.7438
 4750TIP3   OH235884   0.400   2.343   0.961  0.4871  0.0520  0.1619
 4750TIP3    H135885   0.350   2.371   0.884  0.3021 -1.1600 -0.1791
 4750TIP3    H235886   0.355   2.383   1.035  0.1373  0.5051 -0.2892
 4751TIP3   OH235887   5.334   4.036   6.863  0.3524 -0.4196  0.1276
 4751TIP3    H135888   5.376   4.051   6.778 -0.0491 -1.2182 -0.2193
 4751TIP3    H235889   5.344   3.942   6.879 -1.2288 -0.6239  0.0729
 4752TIP3   OH235890   3.708   2.278   6.784 -0.5407 -0.5746  0.2126
 4752TIP3    H135891   3.695   2.353   6.726 -1.0462 -1.1402 -0.4244
 4752TIP3    H235892   3.799   2.252   6.769 -0.1925  0.2475  0.8560
 4753TIP3   OH235893   3.911   5.317   7.318  0.6534  0.0850 -0.4554
 4753TIP3    H135894   4.007   5.326   7.318  0.6263  0.3887 -0.1346
 4753TIP3    H235895   3.879   5.407   7.323  0.3315  0.0766 -1.9027
 4754TIP3   OH235896   1.681   4.631   7.931  0.1522  0.2716  0.1738
 4754TIP3    H135897   1.657   4.580   7.855 -0.8209  1.1865 -0.1654
 4754TIP3    H235898   1.759   4.588   7.966 -0.6309 -1.4395 -0.0686
 4755TIP3   OH235899   0.416   5.892   0.330 -0.3897  0.3285 -0.1086
 4755TIP3    H135900   0.341   5.904   0.387  0.3348  4.5472  0.3276
 4755TIP3    H235901   0.491   5.885   0.389 -0.1444 -1.0367 -0.5525
 4756TIP3   OH235902   2.369   1.366   1.704 -0.2873  0.7146  0.4018
 4756TIP3    H135903   2.274   1.381   1.710 -0.5259 -1.0546  2.1726
 4756TIP3    H235904   2.384   1.344   1.613 -2.0584 -1.4919  0.5705
 4757TIP3   OH235905   6.874   0.856   1.895  0.1799 -0.4095  0.1226
 4757TIP3    H135906   6.809   0.825   1.832 -0.1501  0.4649  0.0105
 4757TIP3    H235907   6.823   0.899   1.963  0.6555  1.6493 -0.7251
 4758TIP3   OH235908   3.795   6.077   6.857 -0.4368 -0.2860 -0.1753
 4758TIP3    H135909   3.803   5.989   6.822 -1.8970  0.3004 -2.1388
 4758TIP3    H235910   3.862   6.128   6.810 -0.3981 -0.0977  0.0792
 4759TIP3   OH235911   4.674   2.572   7.985 -0.1131 -0.6565  0.1974
 4759TIP3    H135912   4.693   2.615   7.902 -0.8233 -0.6461  0.0285
 4759TIP3    H235913   4.754   2.525   8.008  0.4612  0.2258  0.0562
 4760TIP3   OH235914   1.142   3.782   0.967  0.6160  0.6548  0.2919
 4760TIP3    H135915   1.144   3.824   0.881  0.0560 -0.2594 -0.1846
 4760TIP3    H235916   1.223   3.809   1.009  1.5050  0.1206 -1.0145
 4761TIP3   OH235917   0.724   5.682   0.272 -0.3411  0.1005 -0.2876
 4761TIP3    H135918   0.794   5.623   0.299  1.2505  2.1946  0.4555
 4761TIP3    H235919   0.703   5.733   0.351 -2.3282 -0.0685 -0.6460
 4762TIP3   OH235920   5.416   1.473   1.663  0.0092  0.1884 -0.0524
 4762TIP3    H135921   5.442   1.448   1.574  0.1287 -0.1038  0.0607
 4762TIP3    H235922   5.328   1.435   1.673 -0.1529  0.5314 -0.1722
 4763TIP3   OH235923   1.064   0.143   2.355  0.2159 -0.4285 -0.4019
 4763TIP3    H135924   1.153   0.139   2.392  1.2232  2.6277 -2.1027
 4763TIP3    H235925   1.051   0.236   2.336 -2.4942 -1.0982 -2.2965
 4764TIP3   OH235926   3.802   4.943   6.689 -0.1637 -0.1838 -0.2308
 4764TIP3    H135927   3.771   4.892   6.615  0.8410 -0.4573 -0.4763
 4764TIP3    H235928   3.845   4.879   6.746  0.4654  0.2689 -0.1864
 4765TIP3   OH235929   1.003   3.707   7.381  0.0075 -1.0674  0.7430
 4765TIP3    H135930   1.038   3.697   7.293 -1.2114  0.1798  0.0823
 4765TIP3    H235931   0.961   3.793   7.381  0.0144 -1.0161  2.5631
 4766TIP3   OH235932   1.106   6.345   0.600 -0.3538  0.1667  0.0421
 4766TIP3    H135933   1.190   6.389   0.589 -0.7194  1.0502  0.6614
 4766TIP3    H235934   1.091   6.347   0.695 -0.9760 -0.1594 -0.0471
 4767TIP3   OH235935   4.697   4.223   1.637 -0.0674 -0.7824 -0.8329
 4767TIP3    H135936   4.652   4.229   1.553  0.4044  0.5477 -1.0155
 4767TIP3    H235937   4.776   4.172   1.619 -0.3116 -1.0817 -1.0439
 4768TIP3   OH235938   2.717   3.438   1.163  0.2729 -0.1504 -0.5727
 4768TIP3    H135939   2.666   3.463   1.241  0.9999  1.4756 -0.5817
 4768TIP3    H235940   2.766   3.360   1.191 -0.1348 -0.1047  0.3178
 4769TIP3   OH235941   4.380   1.097   8.472  0.2393  0.1667 -0.5160
 4769TIP3    H135942   4.418   1.009   8.468  0.2644  0.1803 -0.5796
 4769TIP3    H235943   4.449   1.155   8.439  0.0223  0.1473 -1.0139
 4770TIP3   OH235944   1.269   4.680   2.210 -0.1776 -0.2157 -0.7834
 4770TIP3    H135945   1.219   4.746   2.259 -1.3835  0.3360 -2.6674
 4770TIP3    H235946   1.219   4.599   2.221  0.1800 -0.3711 -0.2044
 4771TIP3   OH235947   5.421   6.065   8.217  0.3702  0.1797 -0.3226
 4771TIP3    H135948   5.512   6.045   8.238 -0.1701 -1.0663  0.9775
 4771TIP3    H235949   5.424   6.153   8.180  2.0256  0.4136  0.2815
 4772TIP3   OH235950   1.904   6.745   8.323 -0.7127  0.3809 -0.0951
 4772TIP3    H135951   1.930   6.747   8.230 -0.4088  0.7721 -0.0049
 4772TIP3    H235952   1.947   6.822   8.361 -2.8775  1.6772 -0.1446
 4773TIP3   OH235953   3.600   1.101   0.290 -0.6511 -0.5024  0.1203
 4773TIP3    H135954   3.651   1.143   0.360 -1.3612 -1.2336  1.0948
 4773TIP3    H235955   3.664   1.051   0.240 -0.1674 -0.1540  0.3851
 4774TIP3   OH235956   2.480   2.786   1.794  0.3681 -0.2892 -0.1474
 4774TIP3    H135957   2.550   2.822   1.848 -1.3907 -0.1685  2.2274
 4774TIP3    H235958   2.434   2.862   1.761 -0.9988 -0.2589  1.6576
 4775TIP3   OH235959   1.993   5.487   7.791 -0.1498 -0.3595 -0.2345
 4775TIP3    H135960   1.990   5.396   7.762  1.2071 -0.7409  0.7235
 4775TIP3    H235961   1.978   5.538   7.712  0.8410 -1.3928 -1.1140
 4776TIP3   OH235962   3.618   5.859   7.117  0.3308  0.4970 -0.0985
 4776TIP3    H135963   3.707   5.892   7.124 -0.2726  1.8316  2.7976
 4776TIP3    H235964   3.572   5.922   7.062  0.9874  0.1482 -1.0662
 4777TIP3   OH235965   0.051   5.802   0.084 -0.0269  0.1145 -0.5292
 4777TIP3    H135966   0.142   5.799   0.056  0.0400  3.0761 -0.9278
 4777TIP3    H235967   0.056   5.805   0.180  0.3589  1.1635 -0.5740
 4778TIP3   OH235968   6.163   6.575   7.473  0.0160  0.6684 -0.5086
 4778TIP3    H135969   6.245   6.575   7.522 -0.7798  0.5053  0.8508
 4778TIP3    H235970   6.134   6.484   7.474 -0.0979  0.6911 -1.1573
 4779TIP3   OH235971   1.026   3.324   0.841  0.2689 -0.5892 -0.2629
 4779TIP3    H135972   1.058   3.310   0.751  0.3102  1.9667 -0.7137
 4779TIP3    H235973   0.931   3.321   0.833  0.2786 -1.4934 -0.1553
 4780TIP3   OH235974   6.033   5.565   0.932 -0.7158  0.0677  0.4983
 4780TIP3    H135975   6.102   5.551   0.867 -0.6173 -0.0236  0.6222
 4780TIP3    H235976   5.960   5.511   0.901 -1.4365  1.6504 -0.6876
 4781TIP3   OH235977   4.109   5.485   8.534 -0.0266 -0.4948  0.5673
 4781TIP3    H135978   4.189   5.487   8.586 -0.0503  1.8487  0.6186
 4781TIP3    H235979   4.137   5.458   8.447  0.4106 -1.9793  1.1388
 4782TIP3   OH235980   3.011   0.206   0.805  0.4117 -0.0359  0.0528
 4782TIP3    H135981   3.061   0.134   0.768  0.4407 -0.9578  1.7698
 4782TIP3    H235982   2.973   0.251   0.729  3.4805  0.5180 -1.3248
 4783TIP3   OH235983   1.177   0.819   7.636  0.0673  0.7074 -0.1126
 4783TIP3    H135984   1.213   0.797   7.722  0.2360  0.1272 -0.3223
 4783TIP3    H235985   1.254   0.827   7.579 -0.1081 -0.7609 -0.6139
 4784TIP3   OH235986   1.473   6.833   7.736  0.2711  0.4099  0.1032
 4784TIP3    H135987   1.552   6.822   7.788  1.7894  1.5390 -1.8137
 4784TIP3    H235988   1.496   6.799   7.649 -1.4618  0.5055 -0.4458
 4785TIP3   OH235989   1.229   1.464   2.293 -0.0719 -0.2004  0.7195
 4785TIP3    H135990   1.183   1.535   2.247 -0.4573 -0.0417  1.3469
 4785TIP3    H235991   1.162   1.398   2.307  0.7160 -1.6516 -1.7173
 4786TIP3   OH235992   1.764   3.517   7.798 -0.4924  0.4860 -0.3105
 4786TIP3    H135993   1.793   3.426   7.800  1.8876  1.1765  0.2028
 4786TIP3    H235994   1.767   3.541   7.705  0.6617  0.5165 -0.2826
 4787TIP3   OH235995   6.024   1.238   7.806 -0.3304  0.1719 -0.1776
 4787TIP3    H135996   5.939   1.233   7.850 -0.4274  0.0322 -0.3808
 4787TIP3    H235997   6.058   1.323   7.831 -0.4296  0.1374  0.0872
 4788TIP3   OH235998   5.958   3.635   0.385  0.1244 -0.2906  0.6897
 4788TIP3    H135999   5.997   3.584   0.456  2.2316 -0.1474 -0.2920
 4788TIP3    H236000   6.023   3.633   0.315 -0.7049  1.8129 -0.2380
 4789TIP3   OH236001   6.412   3.197   0.603  0.4609 -0.4031  0.1541
 4789TIP3    H136002   6.429   3.162   0.691  0.3612 -0.0309  0.3226
 4789TIP3    H236003   6.316   3.206   0.599  0.4207 -0.9012 -0.1809
 4790TIP3   OH236004   1.654   0.913   1.374 -0.8264  0.0086  0.2037
 4790TIP3    H136005   1.650   0.977   1.445 -1.0407  0.1560  0.0618
 4790TIP3    H236006   1.713   0.953   1.310  0.2330 -0.6065  0.7657
 4791TIP3   OH236007   5.484   0.096   2.037 -0.2319 -0.4367  0.1726
 4791TIP3    H136008   5.519   0.158   2.101  1.4425  0.0058 -1.0941
 4791TIP3    H236009   5.504   0.010   2.073 -0.5746 -0.2175  0.8940
 4792TIP3   OH236010   1.771   4.317   1.350  0.3349  0.1227  0.5499
 4792TIP3    H136011   1.680   4.287   1.354 -0.0052  1.2248  2.9640
 4792TIP3    H236012   1.808   4.294   1.435  2.1415  0.2815 -0.1486
 4793TIP3   OH236013   1.351   4.780   1.383  0.2668 -0.8756  0.5132
 4793TIP3    H136014   1.340   4.874   1.370 -0.8764 -1.0920 -0.2647
 4793TIP3    H236015   1.385   4.748   1.299  1.1520 -1.0864  0.9469
 4794TIP3   OH236016   2.663   3.699   0.282 -0.4149  0.4723  0.4587
 4794TIP3    H136017   2.639   3.756   0.355 -3.0694  1.5203 -1.0759
 4794TIP3    H236018   2.678   3.759   0.209 -1.0915 -0.6747 -0.6677
 4795TIP3   OH236019   1.881   2.960   8.335 -0.3799  0.4380  0.4218
 4795TIP3    H136020   1.872   2.886   8.275 -1.9476  0.7735  0.2152
 4795TIP3    H236021   1.800   2.960   8.386  0.5366  0.7048  1.9560
 4796TIP3   OH236022   5.708   4.785   0.629 -0.1380 -0.2474  0.1752
 4796TIP3    H136023   5.730   4.721   0.561 -0.5500 -0.2475  0.0429
 4796TIP3    H236024   5.629   4.751   0.671  0.5387 -0.6366  1.1700
 4797TIP3   OH236025   2.465   6.259   8.260  0.7379 -0.3009  0.2171
 4797TIP3    H136026   2.412   6.190   8.220  0.2942  0.7035 -0.9649
 4797TIP3    H236027   2.551   6.251   8.219  0.8865 -0.5608  0.5698
 4798TIP3   OH236028   6.438   4.794   6.528  0.0203 -0.5305  0.5338
 4798TIP3    H136029   6.391   4.725   6.574 -0.4518  0.1204  1.0427
 4798TIP3    H236030   6.370   4.838   6.475 -0.1569  0.9709  1.9387
 4799TIP3   OH236031   6.419   2.228   0.768  0.1890  0.8890 -0.6510
 4799TIP3    H136032   6.493   2.239   0.827 -0.2555 -2.4738  0.7755
 4799TIP3    H236033   6.455   2.181   0.692 -0.2726  0.0136 -0.3453
 4800TIP3   OH236034   4.460   3.547   0.922 -0.1309 -0.1534  0.0613
 4800TIP3    H136035   4.540   3.501   0.949  0.8613  1.2856 -0.3028
 4800TIP3    H236036   4.458   3.538   0.826 -1.5320 -1.9035  0.2032
 4801TIP3   OH236037   2.190   3.428   7.353  0.7919  0.5797  0.1388
 4801TIP3    H136038   2.279   3.395   7.346  0.4213 -0.3126 -0.6208
 4801TIP3    H236039   2.140   3.375   7.291 -0.1957  1.3196  0.2735
 4802TIP3   OH236040   1.169   2.896   1.157 -0.0441  0.7320  0.4327
 4802TIP3    H136041   1.177   2.976   1.209  0.0002  1.0317 -0.0271
 4802TIP3    H236042   1.154   2.827   1.221 -0.5562  1.1774  0.8063
 4803TIP3   OH236043   1.441   3.654   8.218  0.1398  0.6597 -0.3117
 4803TIP3    H136044   1.395   3.648   8.302 -1.7320  2.5228 -1.1241
 4803TIP3    H236045   1.378   3.625   8.153  0.7378  1.4610 -1.2875
 4804TIP3   OH236046   5.531   0.650   1.037  0.0964 -0.0344 -0.2665
 4804TIP3    H136047   5.530   0.655   0.942  2.1072  0.0784 -0.3126
 4804TIP3    H236048   5.506   0.737   1.066 -1.6754 -0.3733 -0.6325
 4805TIP3   OH236049   6.529   4.200   7.247  0.0507 -0.6332  0.5348
 4805TIP3    H136050   6.608   4.250   7.226 -2.4346  5.1953  2.9230
 4805TIP3    H236051   6.549   4.159   7.332  0.4457  1.4475  1.5236
 4806TIP3   OH236052   5.148   0.847   8.296  0.2529  0.1602  0.1577
 4806TIP3    H136053   5.204   0.860   8.373  0.5357  0.4021 -0.0865
 4806TIP3    H236054   5.102   0.765   8.314  0.6090  0.0102  0.4112
 4807TIP3   OH236055   6.252   4.457   8.448  0.6541  0.8263 -0.1209
 4807TIP3    H136056   6.289   4.459   8.359  1.6164  1.3554  0.2712
 4807TIP3    H236057   6.300   4.526   8.495  0.1238  0.5821  0.7952
 4808TIP3   OH236058   2.238   5.120   0.400 -0.3597 -0.2409  0.1749
 4808TIP3    H136059   2.288   5.092   0.322  0.7484 -1.1701  1.1831
 4808TIP3    H236060   2.169   5.054   0.409 -1.2875  0.5717 -0.7246
 4809TIP3   OH236061   6.486   4.805   2.542  0.2103  0.7208 -0.5008
 4809TIP3    H136062   6.486   4.870   2.612 -0.3686  1.4517 -1.1615
 4809TIP3    H236063   6.409   4.751   2.561  2.9168 -2.6243  2.5346
 4810TIP3   OH236064   5.916   1.218   0.884 -0.3090  0.2496  0.3135
 4810TIP3    H136065   5.932   1.289   0.946  0.0229  1.4213 -1.0586
 4810TIP3    H236066   5.828   1.188   0.905 -0.7081  1.4930  0.5310
 4811TIP3   OH236067   5.862   0.361   0.897  0.3435  0.1447 -0.1932
 4811TIP3    H136068   5.902   0.434   0.944  0.3772 -0.1468  0.2362
 4811TIP3    H236069   5.804   0.320   0.961  1.2467 -0.9488 -0.0402
 4812TIP3   OH236070   2.523   2.887   0.918  0.2808 -0.8486 -0.0688
 4812TIP3    H136071   2.557   2.809   0.874  1.0906 -0.8542  0.5497
 4812TIP3    H236072   2.504   2.858   1.007 -0.9410 -0.7289 -0.2717
 4813TIP3   OH236073   1.066   5.831   7.256 -0.1641  0.3456  0.2469
 4813TIP3    H136074   1.094   5.743   7.279 -0.1606  0.5019  0.8513
 4813TIP3    H236075   1.034   5.869   7.337  0.6653  1.2125  0.1952
 4814TIP3   OH236076   0.514   5.476   1.866 -0.3060 -0.2033  0.0795
 4814TIP3    H136077   0.436   5.426   1.842 -0.1904 -0.8709  1.0226
 4814TIP3    H236078   0.571   5.412   1.910  0.5396  0.4000 -0.1114
 4815TIP3   OH236079   1.687   2.976   1.586  0.2569 -0.1998 -0.0964
 4815TIP3    H136080   1.749   2.909   1.556 -0.3857  0.1850 -2.4513
 4815TIP3    H236081   1.690   3.044   1.518 -1.6794  0.5178  0.4676
 4816TIP3   OH236082   0.445   0.781   8.248  0.1405  0.1622 -0.2300
 4816TIP3    H136083   0.376   0.846   8.234 -0.0922  0.1392  0.7553
 4816TIP3    H236084   0.431   0.750   8.337  0.8299 -0.5597 -0.3653
 4817TIP3   OH236085   2.632   1.556   1.741  0.3992  0.3790  0.1456
 4817TIP3    H136086   2.551   1.524   1.780  1.3703 -0.7349  1.3526
 4817TIP3    H236087   2.607   1.582   1.652 -0.8728 -2.0406 -0.3041
 4818TIP3   OH236088   2.317   1.869   8.328  0.4357  0.1729 -0.1417
 4818TIP3    H136089   2.260   1.834   8.396  0.1970  2.2875  0.8421
 4818TIP3    H236090   2.378   1.798   8.308  0.2180 -0.6810  1.9439
 4819TIP3   OH236091   5.413   0.622   8.604  0.2862  0.1883  0.1265
 4819TIP3    H136092   5.448   0.606   8.517 -1.4655  0.0859 -0.6174
 4819TIP3    H236093   5.362   0.703   8.595  1.5030  1.1507  1.5191
 4820TIP3   OH236094   6.274   2.494   0.482  0.2370 -0.0028 -0.1718
 4820TIP3    H136095   6.265   2.464   0.392  2.2255 -0.0884 -0.3936
 4820TIP3    H236096   6.198   2.456   0.528 -0.7523 -0.0254 -1.7618
 4821TIP3   OH236097   6.386   3.070   1.957 -0.1118  0.7039 -0.9485
 4821TIP3    H136098   6.319   3.117   1.907 -0.4798  1.3102  0.0914
 4821TIP3    H236099   6.454   3.049   1.892 -0.9669  0.7173 -1.8694
 4822TIP3   OH236100   4.997   0.511   1.437 -0.4093 -0.0564  0.1656
 4822TIP3    H136101   5.073   0.541   1.386 -0.1245 -1.2467 -0.1579
 4822TIP3    H236102   4.951   0.452   1.377 -2.6535  2.0131 -0.3125
 4823TIP3   OH236103   6.454   4.198   6.030 -0.2850  0.2870 -0.4241
 4823TIP3    H136104   6.529   4.176   6.085 -0.3079 -0.8729 -0.8170
 4823TIP3    H236105   6.479   4.279   5.985 -0.2462  1.2184  1.2020
 4824TIP3   OH236106   5.865   1.190   1.293  0.6095 -0.0830  0.5223
 4824TIP3    H136107   5.841   1.150   1.209  1.8402 -2.7643  1.3498
 4824TIP3    H236108   5.789   1.243   1.316 -0.8828 -1.3957 -1.0442
 4825TIP3   OH236109   4.080   5.785   8.049  0.5829  0.2294 -0.4105
 4825TIP3    H136110   4.023   5.723   8.094  1.7830  0.3354  1.3423
 4825TIP3    H236111   4.047   5.871   8.075  0.7362  0.2996 -0.4490
 4826TIP3   OH236112   6.803   0.282   1.822 -0.3558  0.9518  0.0674
 4826TIP3    H136113   6.754   0.230   1.885 -0.5235  0.7005 -0.2681
 4826TIP3    H236114   6.861   0.220   1.779 -0.4756  1.0626 -0.2547
 4827TIP3   OH236115   3.751   0.050   8.178  0.0631  0.2610 -0.1888
 4827TIP3    H136116   3.656   0.062   8.168 -0.2344 -0.9163  0.9815
 4827TIP3    H236117   3.788   0.136   8.159 -1.1636  0.5516 -1.4478
 4828TIP3   OH236118   0.720   0.656   7.083 -0.1040 -0.8508 -0.5928
 4828TIP3    H136119   0.678   0.576   7.114  0.0906 -0.9483 -0.5778
 4828TIP3    H236120   0.661   0.690   7.015 -0.9008 -0.2489  0.3642
 4829TIP3   OH236121   2.730   4.233   0.198  0.1833  0.3979  0.3252
 4829TIP3    H136122   2.789   4.192   0.262 -0.2257  1.1104  1.1752
 4829TIP3    H236123   2.730   4.172   0.124  2.1293  0.4611  0.2126
 4830TIP3   OH236124   3.437   4.028   7.208 -0.3879  0.2923  0.4184
 4830TIP3    H136125   3.408   4.001   7.121 -1.7404 -0.4349  1.0638
 4830TIP3    H236126   3.533   4.019   7.206 -0.3276  0.9864 -1.2004
 4831TIP3   OH236127   6.711   6.388   8.186 -0.1044  0.4233  0.2796
 4831TIP3    H136128   6.735   6.302   8.219  0.8336  0.2692 -0.7253
 4831TIP3    H236129   6.658   6.427   8.255  2.8812  0.6852  2.6399
 4832TIP3   OH236130   3.347   5.975   6.964  0.4790  0.3475  0.2177
 4832TIP3    H136131   3.394   6.013   7.039  0.4360 -2.3120  1.7268
 4832TIP3    H236132   3.262   5.950   6.999  0.6410 -1.4192 -0.5260
 4833TIP3   OH236133   3.579   0.363   1.456 -0.1170  0.1359 -0.2483
 4833TIP3    H136134   3.545   0.295   1.516  2.1850  0.4155  1.4923
 4833TIP3    H236135   3.571   0.444   1.506 -0.1363  0.7235 -1.1936
 4834TIP3   OH236136   2.948   5.104   7.444 -1.1662  0.0730 -0.0360
 4834TIP3    H136137   2.884   5.171   7.421 -0.9607 -0.0789 -1.0983
 4834TIP3    H236138   3.025   5.153   7.471 -1.8679  0.2603  1.7224
 4835TIP3   OH236139   1.293   5.087   1.012 -0.0876 -0.1504 -0.1066
 4835TIP3    H136140   1.347   5.011   1.035 -0.3576  0.0123  1.1665
 4835TIP3    H236141   1.208   5.050   0.989 -0.0969 -0.2610  0.1056
 4836TIP3   OH236142   2.366   6.749   1.963 -0.2919  0.1456  0.0367
 4836TIP3    H136143   2.320   6.778   2.043 -1.9223  1.0401 -1.1619
 4836TIP3    H236144   2.425   6.681   1.993 -1.2035  0.1289  1.9579
 4837TIP3   OH236145   0.536   5.120   0.408 -0.0497 -0.0403 -0.5799
 4837TIP3    H136146   0.560   5.027   0.403 -0.3143 -0.1572  0.1396
 4837TIP3    H236147   0.447   5.119   0.442 -0.4519  0.4486 -1.5971
 4838TIP3   OH236148   6.221   5.214   8.552  0.0130  0.6932 -0.2142
 4838TIP3    H136149   6.291   5.161   8.512  0.9967  0.6695  1.4278
 4838TIP3    H236150   6.226   5.298   8.507  0.6712  0.4711 -0.5779
 4839TIP3   OH236151   3.137   2.758   0.674 -0.5293 -0.5310 -0.0426
 4839TIP3    H136152   3.211   2.809   0.706 -0.0680 -1.2440  0.0586
 4839TIP3    H236153   3.060   2.809   0.698 -0.1052 -0.1772  0.5847
 4840TIP3   OH236154   1.722   3.496   0.891  0.2256 -0.7028  0.0789
 4840TIP3    H136155   1.800   3.448   0.861  1.1977 -0.1720  1.6421
 4840TIP3    H236156   1.741   3.518   0.982 -1.8631 -0.7306  0.5668
 4841TIP3   OH236157   6.022   5.680   0.331  0.1333  0.0316  0.5860
 4841TIP3    H136158   6.039   5.698   0.424  1.7208  1.2911  0.0927
 4841TIP3    H236159   5.937   5.721   0.315 -0.0559 -0.0031  1.4147
 4842TIP3   OH236160   0.966   2.316   8.221  0.3661 -0.1417  0.0315
 4842TIP3    H136161   1.012   2.312   8.137 -1.8103  2.7653 -1.4513
 4842TIP3    H236162   1.030   2.352   8.282  1.3384 -0.2797 -0.8755
 4843TIP3   OH236163   3.522   0.406   0.182 -0.7540  0.0031  0.2408
 4843TIP3    H136164   3.571   0.453   0.250 -1.9587 -0.5531  1.5436
 4843TIP3    H236165   3.589   0.371   0.124  0.3213  0.4216  1.1965
 4844TIP3   OH236166   1.432   1.575   1.483 -0.9478  0.4258 -0.3982
 4844TIP3    H136167   1.419   1.502   1.424  0.0566  0.0933 -0.2277
 4844TIP3    H236168   1.383   1.552   1.562 -0.3863 -0.2092 -0.2300
 4845TIP3   OH236169   4.961   0.798   7.668  0.0531 -0.4804  0.2807
 4845TIP3    H136170   4.906   0.733   7.710  1.9761 -0.7071  2.6997
 4845TIP3    H236171   4.998   0.753   7.593 -0.8582 -1.2162  0.2555
 4846TIP3   OH236172   4.174   2.435   6.457  0.4495  0.0538 -0.7047
 4846TIP3    H136173   4.235   2.374   6.498 -2.2147 -1.5921  1.0704
 4846TIP3    H236174   4.158   2.398   6.370  0.4447 -0.6130 -0.4248
 4847TIP3   OH236175   6.364   2.955   7.656  0.3562 -0.1665  0.5112
 4847TIP3    H136176   6.383   2.885   7.593  1.6270  1.1559 -0.6565
 4847TIP3    H236177   6.335   3.028   7.601 -0.6244  0.3506  1.6789
 4848TIP3   OH236178   6.120   2.461   1.331  0.9885  0.4442  0.3456
 4848TIP3    H136179   6.145   2.415   1.251  1.8350 -0.5860  1.1814
 4848TIP3    H236180   6.192   2.445   1.392  0.1868  0.9023  1.4470
 4849TIP3   OH236181   2.993   2.619   1.493  0.1094 -0.2466 -0.2621
 4849TIP3    H136182   3.003   2.711   1.469 -0.4111 -0.0883  0.1343
 4849TIP3    H236183   2.936   2.582   1.425  0.2788 -0.2751 -0.3931
 4850TIP3   OH236184   5.937   4.636   1.517 -0.1360  0.0125 -0.3270
 4850TIP3    H136185   6.025   4.608   1.544  0.4173  0.5979 -1.4341
 4850TIP3    H236186   5.922   4.590   1.435 -0.3100  0.9180 -0.8093
 4851TIP3   OH236187   0.018   4.219   7.784 -0.1522  0.4146 -0.2623
 4851TIP3    H136188   0.023   4.306   7.821  0.9741  0.8780 -1.4234
 4851TIP3    H236189   0.109   4.188   7.782  0.3157  1.3635 -4.6095
 4852TIP3   OH236190   6.242   3.111   1.409  0.1642  0.0797  0.5933
 4852TIP3    H136191   6.301   3.046   1.371  0.9542  1.3923 -0.5254
 4852TIP3    H236192   6.301   3.180   1.441 -0.7021  0.7803  0.7099
 4853TIP3   OH236193   1.170   5.953   8.104  0.0068  0.2973  0.3342
 4853TIP3    H136194   1.137   6.031   8.059 -1.5504 -0.8606 -0.6121
 4853TIP3    H236195   1.241   5.921   8.047 -0.3860  0.1637 -0.0868
 4854TIP3   OH236196   4.491   3.015   0.746 -0.0171  0.0823  0.0980
 4854TIP3    H136197   4.464   3.059   0.827  1.2787 -0.2025  0.7076
 4854TIP3    H236198   4.479   3.082   0.678 -0.7236  0.4575  0.5751
 4855TIP3   OH236199   6.353   6.371   0.325 -0.2926 -0.4419  0.4250
 4855TIP3    H136200   6.359   6.317   0.404  0.9585  0.6241  1.1027
 4855TIP3    H236201   6.322   6.456   0.356 -1.2255 -0.4350 -0.4704
 4856TIP3   OH236202   3.721   3.152   0.847  0.4311 -0.2374 -0.2951
 4856TIP3    H136203   3.715   3.247   0.835 -0.1289 -0.0973  0.9352
 4856TIP3    H236204   3.691   3.116   0.763 -3.2673  0.6471  0.4540
 4857TIP3   OH236205   6.198   6.520   8.379  0.2062 -0.3125 -0.1840
 4857TIP3    H136206   6.211   6.614   8.372  0.9321 -0.4823 -1.3630
 4857TIP3    H236207   6.230   6.498   8.467 -1.5100  0.7471  0.7484
 4858TIP3   OH236208   0.493   5.567   1.535  0.4427  0.3290  0.9639
 4858TIP3    H136209   0.412   5.546   1.489  0.3214  1.6329  0.5578
 4858TIP3    H236210   0.465   5.616   1.612  0.7092 -1.1051  2.0330
 4859TIP3   OH236211   6.850   0.376   7.207 -0.5150  0.6976 -0.7228
 4859TIP3    H136212   6.784   0.375   7.138 -1.1180  1.0377 -0.1659
 4859TIP3    H236213   6.879   0.468   7.210 -1.4430  0.9742  0.3443
 4860TIP3   OH236214   2.205   4.613   7.355  0.7937 -0.0235 -0.2145
 4860TIP3    H136215   2.288   4.660   7.351  2.2140 -2.4385 -1.3376
 4860TIP3    H236216   2.186   4.589   7.264 -0.8112 -0.0849  0.1066
 4861TIP3   OH236217   2.677   4.070   8.595  0.7262  0.3583 -0.2579
 4861TIP3    H136218   2.606   4.043   8.653  1.7528 -2.5749 -0.1790
 4861TIP3    H236219   2.640   4.062   8.507  0.4145  0.7438 -0.1683
 4862TIP3   OH236220   4.253   5.327   7.868  0.5129  0.9556 -0.3242
 4862TIP3    H136221   4.301   5.263   7.814 -1.1678  0.0807 -0.8421
 4862TIP3    H236222   4.316   5.397   7.882  2.0918 -0.3182 -0.6358
 4863TIP3   OH236223   4.812   0.359   1.276 -0.2428 -0.2268 -0.2558
 4863TIP3    H136224   4.776   0.294   1.215 -0.7412  0.1664 -0.3912
 4863TIP3    H236225   4.763   0.439   1.257  0.3951  0.2008 -0.1168
 4864TIP3   OH236226   1.337   6.049   1.500 -0.1648  0.1949 -0.2570
 4864TIP3    H136227   1.384   6.113   1.446  0.3343  0.9070  0.9933
 4864TIP3    H236228   1.373   5.964   1.473  0.8370  0.6206 -0.2932
 4865TIP3   OH236229   1.102   4.245   0.935 -0.6997 -0.2248 -0.3588
 4865TIP3    H136230   1.034   4.178   0.923 -2.5647  1.1460  1.7324
 4865TIP3    H236231   1.053   4.324   0.958  1.4359  1.8044 -2.2759
 4866TIP3   OH236232   5.527   4.118   0.460  0.1012  0.3552  0.5032
 4866TIP3    H136233   5.454   4.071   0.419  1.3919 -0.8741 -0.4513
 4866TIP3    H236234   5.570   4.052   0.514  0.6927  1.0070  0.8390
 4867TIP3   OH236235   1.967   0.960   6.815 -0.1360 -0.1958 -0.1531
 4867TIP3    H136236   2.020   0.924   6.744 -0.2478  0.8578 -0.7867
 4867TIP3    H236237   1.906   0.889   6.837 -0.0237 -0.5801 -1.0248
 4868TIP3   OH236238   4.704   1.112   1.873 -0.2373  1.1049  0.1594
 4868TIP3    H136239   4.730   1.120   1.781 -2.1680  0.8342 -0.4468
 4868TIP3    H236240   4.770   1.055   1.912 -0.7865 -0.9007 -1.6987
 4869TIP3   OH236241   6.118   1.392   0.182  0.4037  0.0615 -0.2984
 4869TIP3    H136242   6.079   1.305   0.189  2.0207 -0.7095 -0.4132
 4869TIP3    H236243   6.135   1.418   0.273 -0.7590  0.6052 -0.2199
 4870TIP3   OH236244   6.407   0.878   0.283  0.0175  0.1157 -0.2876
 4870TIP3    H136245   6.443   0.954   0.237  1.1388  0.2969  0.8566
 4870TIP3    H236246   6.328   0.855   0.233 -0.7521  2.4673 -0.2594
 4871TIP3   OH236247   4.210   5.676   7.512 -0.1141 -0.0341 -0.4603
 4871TIP3    H136248   4.261   5.712   7.439  1.1265  0.2032  0.4945
 4871TIP3    H236249   4.172   5.753   7.555  1.0839  0.0324  0.5230
 4872TIP3   OH236250   1.512   4.042   7.537 -0.4832 -0.4521 -0.5986
 4872TIP3    H136251   1.531   3.983   7.465 -1.5481 -0.4815 -0.8697
 4872TIP3    H236252   1.417   4.052   7.536 -0.3342  1.3048 -0.5878
 4873TIP3   OH236253   5.241   5.055   0.333 -0.1548  0.2975 -0.7713
 4873TIP3    H136254   5.231   5.110   0.411  0.2207 -0.2159 -0.3555
 4873TIP3    H236255   5.151   5.040   0.303 -0.3073  0.4207 -0.3887
 4874TIP3   OH236256   5.709   2.950   6.348  0.1878  0.1686  0.1436
 4874TIP3    H136257   5.618   2.936   6.321  0.1717  1.1791 -0.3784
 4874TIP3    H236258   5.702   3.007   6.425  0.2722 -2.0845  1.9340
 4875TIP3   OH236259   1.767   6.239   0.062  0.1793  0.0219  0.1992
 4875TIP3    H136260   1.775   6.146   0.082 -2.6038 -0.0758  1.3040
 4875TIP3    H236261   1.768   6.242  -0.034  0.7298 -1.0705  0.1458
 4876TIP3   OH236262   6.696   2.294   6.780  0.0984 -0.2706 -0.1295
 4876TIP3    H136263   6.658   2.208   6.799  1.4305 -0.8993 -0.2449
 4876TIP3    H236264   6.739   2.284   6.696  1.3177  0.1530  0.4230
 4877TIP3   OH236265   3.609   2.978   1.053  0.1576  0.1097 -0.3889
 4877TIP3    H136266   3.555   2.995   0.976  1.3601 -1.7602 -1.7183
 4877TIP3    H236267   3.695   3.013   1.030  0.5256 -0.4530  0.1185
 4878TIP3   OH236268   5.386   0.321   0.739 -0.8845 -0.2017  0.3698
 4878TIP3    H136269   5.457   0.268   0.777  0.1186  0.5211 -0.4490
 4878TIP3    H236270   5.405   0.324   0.646 -2.5681 -0.8126 -0.0295
 4879TIP3   OH236271   5.389   1.570   0.595  0.2160 -0.2755  0.6430
 4879TIP3    H136272   5.354   1.514   0.665 -2.5045 -0.3355 -0.6696
 4879TIP3    H236273   5.378   1.659   0.628  1.1014 -0.3501  1.1930
 4880TIP3   OH236274   1.679   0.646   7.454 -0.9132 -0.2516  0.1163
 4880TIP3    H136275   1.688   0.581   7.524 -0.7045  1.6279  1.9136
 4880TIP3    H236276   1.750   0.625   7.393  3.4733  2.0086  3.8566
 4881TIP3   OH236277   2.886   5.473   1.576  0.7370  0.4513  0.1044
 4881TIP3    H136278   2.937   5.533   1.631  0.4360 -0.1463  1.0670
 4881TIP3    H236279   2.813   5.446   1.632  1.4100 -1.6021  0.0951
 4882TIP3   OH236280   0.121   4.061   8.094  0.0538  0.8205 -0.1269
 4882TIP3    H136281   0.205   4.015   8.093 -0.0069  0.6948  0.4847
 4882TIP3    H236282   0.094   4.063   8.002 -0.5639 -1.5017 -0.0584
 4883TIP3   OH236283   4.952   0.324   7.796  0.5461 -0.0605 -0.7005
 4883TIP3    H136284   4.887   0.303   7.862  0.1786  2.2846 -0.2034
 4883TIP3    H236285   5.031   0.344   7.846  0.9540 -0.5812 -1.1355
 4884TIP3   OH236286   6.490   4.493   1.083 -0.2172 -0.0528  0.0113
 4884TIP3    H136287   6.454   4.476   0.996 -0.9205  0.2078  0.2447
 4884TIP3    H236288   6.460   4.419   1.136  0.3737 -0.3121 -0.0067
 4885TIP3   OH236289   1.991   2.065   7.513 -0.0995  0.3189 -0.2296
 4885TIP3    H136290   1.932   2.075   7.587  1.3149 -0.4734  1.0452
 4885TIP3    H236291   2.015   1.973   7.514  0.2160  0.3708 -1.4862
 4886TIP3   OH236292   3.000   0.078   8.632 -0.1437  0.1895  0.3409
 4886TIP3    H136293   2.944   0.048   8.561  0.6141  1.6456 -0.9176
 4886TIP3    H236294   3.081   0.105   8.590  1.6786 -2.0178  2.1110
 4887TIP3   OH236295   1.228   4.663   1.016 -0.0600  0.3022 -0.5295
 4887TIP3    H136296   1.201   4.733   0.956  0.4561  0.4189 -0.6276
 4887TIP3    H236297   1.146   4.623   1.043 -0.3012  0.2029 -1.3674
 4888TIP3   OH236298   0.667   5.086   7.329  0.1536 -0.0699 -0.5082
 4888TIP3    H136299   0.643   5.175   7.354  2.3754  0.1813  1.0030
 4888TIP3    H236300   0.585   5.047   7.298 -0.9322  2.3950 -1.0205
 4889TIP3   OH236301   2.878   4.614   6.103 -0.4134 -0.6191 -0.3348
 4889TIP3    H136302   2.884   4.522   6.077 -2.5338 -1.1802  0.9496
 4889TIP3    H236303   2.801   4.648   6.057  0.1001  0.4103 -0.4690
 4890TIP3   OH236304   5.961   4.323   0.955 -0.0801 -0.1424 -0.0559
 4890TIP3    H136305   5.901   4.300   0.884  0.1070  0.0161 -0.2675
 4890TIP3    H236306   5.993   4.410   0.931  1.3256 -0.8062 -0.6933
 4891TIP3   OH236307   6.776   5.565   1.507 -0.4837 -0.7425 -0.0794
 4891TIP3    H136308   6.783   5.472   1.528  1.1238 -0.6699 -0.2150
 4891TIP3    H236309   6.780   5.609   1.592  3.4071 -0.5912 -0.2059
 4892TIP3   OH236310   1.047   5.787   0.282 -0.4404  0.3632 -0.1475
 4892TIP3    H136311   1.121   5.752   0.332  0.4842  0.7049 -1.2621
 4892TIP3    H236312   1.042   5.731   0.204 -1.2649  0.4428 -0.1632
 4893TIP3   OH236313   5.818   4.855   1.631 -0.2923 -0.8153 -0.1079
 4893TIP3    H136314   5.726   4.881   1.619 -0.3924 -0.9654  0.3276
 4893TIP3    H236315   5.822   4.765   1.598  0.0717 -0.2568 -1.6900
 4894TIP3   OH236316   2.641   2.162   1.733 -0.1251 -0.7066 -0.5968
 4894TIP3    H136317   2.671   2.219   1.662 -0.0771 -0.4615 -0.3834
 4894TIP3    H236318   2.583   2.217   1.785 -1.3090 -1.3011 -1.2435
 4895TIP3   OH236319   5.423   5.025   0.156 -0.2786 -0.2881  0.0121
 4895TIP3    H136320   5.446   5.117   0.165 -0.9873 -0.0644 -0.4317
 4895TIP3    H236321   5.352   5.011   0.218 -0.1398 -0.5506  0.1138
 4896TIP3   OH236322   2.093   3.042   7.764  0.4843 -0.9873 -0.2325
 4896TIP3    H136323   2.133   2.977   7.706  0.8336  0.0698 -1.2183
 4896TIP3    H236324   2.111   3.126   7.721  0.3815 -0.2096  1.2076
 4897TIP3   OH236325   5.490   6.419   1.668 -0.1836  0.5531 -0.6970
 4897TIP3    H136326   5.426   6.377   1.611 -0.6185 -0.1201  0.2654
 4897TIP3    H236327   5.543   6.473   1.609 -1.0729  0.4350 -1.6282
 4898TIP3   OH236328   0.262   2.152   1.351 -0.4701  0.3119  0.2085
 4898TIP3    H136329   0.335   2.151   1.290  0.5097  1.9233  1.2771
 4898TIP3    H236330   0.298   2.117   1.433 -1.4486 -0.7218  0.2284
 4899TIP3   OH236331   1.466   6.715   7.471  0.1895  0.4305  0.2693
 4899TIP3    H136332   1.409   6.760   7.409  0.1339  0.5573  0.4127
 4899TIP3    H236333   1.429   6.628   7.479  0.5981  0.1879 -0.4123
 4900TIP3   OH236334   0.537   4.627   6.552  0.7361 -0.3785  0.1991
 4900TIP3    H136335   0.449   4.629   6.514  0.9961  1.4395 -0.3749
 4900TIP3    H236336   0.542   4.542   6.595 -0.9436 -0.9277 -0.6044
 4901TIP3   OH236337   5.702   1.323   8.265  0.5830 -0.3812 -0.1268
 4901TIP3    H136338   5.676   1.295   8.352  1.2773  2.4166  1.0730
 4901TIP3    H236339   5.635   1.387   8.239  2.0205  1.1568 -0.2470
 4902TIP3   OH236340   4.778   5.464   0.176  0.2906 -0.1620 -0.3017
 4902TIP3    H136341   4.846   5.414   0.220  1.1244 -0.3232 -1.7121
 4902TIP3    H236342   4.739   5.518   0.245  1.4243 -0.5201  0.6504
 4903TIP3   OH236343   3.798   4.258   1.573  0.0550 -0.1214  0.0544
 4903TIP3    H136344   3.817   4.244   1.666  0.4272  0.6745  0.1016
 4903TIP3    H236345   3.718   4.207   1.558 -0.0110 -0.2613  0.8092
 4904TIP3   OH236346   3.064   0.078   0.385 -0.4066 -0.3806  0.2751
 4904TIP3    H136347   2.989   0.077   0.326 -1.9974 -1.0139  2.1891
 4904TIP3    H236348   3.117   0.152   0.356 -1.1228 -0.6618 -1.8736
 4905TIP3   OH236349   6.050   6.311   7.506  0.2959 -0.1904 -0.6097
 4905TIP3    H136350   6.113   6.242   7.529  1.4547  1.0317  0.0275
 4905TIP3    H236351   6.002   6.327   7.587  0.0709 -0.2163 -0.7388
 4906TIP3   OH236352   3.329   1.974   0.031  0.2045  0.8046 -0.0492
 4906TIP3    H136353   3.344   2.020   0.114 -0.5327 -0.7960  1.0238
 4906TIP3    H236354   3.276   2.034  -0.021 -0.3803  1.3387  1.1402
 4907TIP3   OH236355   0.387   2.430   6.920  0.0370  0.1323 -0.6124
 4907TIP3    H136356   0.480   2.413   6.905  0.5188  0.5251  1.5983
 4907TIP3    H236357   0.343   2.351   6.890  0.7920  0.7570 -3.7321
 4908TIP3   OH236358   1.426   6.823   1.106 -0.6520  0.3795  0.0672
 4908TIP3    H136359   1.414   6.913   1.075  2.3761  0.4131 -1.3437
 4908TIP3    H236360   1.428   6.770   1.027  0.0343 -0.5738  0.6896
 4909TIP3   OH236361   3.176   6.239   7.055  0.1072  0.2434 -0.3434
 4909TIP3    H136362   3.214   6.266   6.972  1.6111 -2.6480 -0.7524
 4909TIP3    H236363   3.241   6.262   7.121 -0.1453  0.6372 -0.2257
 4910TIP3   OH236364   4.427   4.014   0.728 -0.5557  0.1024 -0.3229
 4910TIP3    H136365   4.356   3.974   0.778  0.7679 -0.9084  0.8554
 4910TIP3    H236366   4.469   3.940   0.684 -0.3099  0.7013 -1.1087
 4911TIP3   OH236367   4.896   1.824   7.176 -0.3931  1.0069  0.5064
 4911TIP3    H136368   4.964   1.806   7.111  1.0090  2.6864  1.4206
 4911TIP3    H236369   4.814   1.798   7.133  0.7396 -0.6659 -0.8023
 4912TIP3   OH236370   0.855   6.909   1.352  0.0248  0.1113  0.0956
 4912TIP3    H136371   0.855   7.004   1.359  1.7670  0.1353  0.2966
 4912TIP3    H236372   0.779   6.881   1.403 -0.3615  1.3823  0.2532
 4913TIP3   OH236373   1.226   1.095   1.838  1.1797  0.0635 -0.2020
 4913TIP3    H136374   1.143   1.065   1.875  0.9193  0.4931 -0.4314
 4913TIP3    H236375   1.273   1.133   1.913  0.7138  0.8023 -0.2712
 4914TIP3   OH236376   5.108   2.575   2.203 -0.0815 -0.1542 -0.0021
 4914TIP3    H136377   5.142   2.487   2.222 -2.8124 -0.7687  2.8739
 4914TIP3    H236378   5.178   2.633   2.234  0.6770 -1.3199  0.6050
 4915TIP3   OH236379   0.391   4.309   8.103 -0.4908  0.0441  0.2853
 4915TIP3    H136380   0.367   4.222   8.072  0.1263 -0.2135  0.5287
 4915TIP3    H236381   0.486   4.311   8.099 -0.5189  0.9162 -0.2621
 4916TIP3   OH236382   4.905   1.900   7.768 -0.7431  0.3062  0.3735
 4916TIP3    H136383   4.893   1.846   7.690 -2.9418 -0.5283  1.2173
 4916TIP3    H236384   4.876   1.988   7.741  0.9040  0.6451 -0.4171
 4917TIP3   OH236385   4.576   1.907   1.040  0.2643 -0.3146 -0.0995
 4917TIP3    H136386   4.621   1.862   1.111 -0.2544 -0.1511  0.3412
 4917TIP3    H236387   4.484   1.907   1.066  0.1101  0.0295 -0.6199
 4918TIP3   OH236388   0.757   3.561   1.558 -0.0526 -0.2983 -0.0062
 4918TIP3    H136389   0.839   3.511   1.562  0.0151 -0.2148 -0.2879
 4918TIP3    H236390   0.784   3.647   1.528 -0.3209 -0.4597 -0.7300
 4919TIP3   OH236391   1.878   3.282   7.747 -0.2565  0.0925  0.6265
 4919TIP3    H136392   1.928   3.264   7.827 -0.0510 -0.8683  0.2839
 4919TIP3    H236393   1.943   3.285   7.678 -0.7298 -2.3884 -0.0278
 4920TIP3   OH236394   4.286   3.194   7.702  0.0994 -0.1845  0.5283
 4920TIP3    H136395   4.241   3.113   7.678  0.3615 -0.5204  1.1382
 4920TIP3    H236396   4.342   3.169   7.776  1.0478  0.2860 -0.0046
 4921TIP3   OH236397   2.009   3.079   6.677 -0.2439  0.5839 -0.5007
 4921TIP3    H136398   1.923   3.036   6.682  0.1827 -0.1940  0.3963
 4921TIP3    H236399   2.010   3.140   6.750  0.3643 -0.2009  0.1752
 4922TIP3   OH236400   1.546   0.348   8.472  0.0959  0.5741  0.0183
 4922TIP3    H136401   1.525   0.309   8.557 -0.8342 -0.8315 -0.8116
 4922TIP3    H236402   1.560   0.441   8.491  0.6150  0.1762  1.8001
 4923TIP3   OH236403   4.465   2.270   0.736  0.4629  1.1120 -0.2156
 4923TIP3    H136404   4.440   2.180   0.714  0.5573  0.7694  1.0016
 4923TIP3    H236405   4.383   2.314   0.756  0.6011  0.5433  1.7917
 4924TIP3   OH236406   6.170   5.432   8.409  0.3373 -0.1577 -0.1362
 4924TIP3    H136407   6.126   5.508   8.447  0.4152  0.4690 -1.2442
 4924TIP3    H236408   6.236   5.469   8.351 -1.7592 -0.9039 -3.2882
 4925TIP3   OH236409   4.524   1.732   2.043 -0.3144 -0.0308  0.2874
 4925TIP3    H136410   4.501   1.656   2.097  0.8293 -0.8966 -0.3975
 4925TIP3    H236411   4.506   1.808   2.099 -1.6897 -0.7797  0.9083
 4926TIP3   OH236412   3.576   2.918   1.306 -0.2903 -0.3472 -0.0627
 4926TIP3    H136413   3.592   3.007   1.336 -0.7798 -0.9828  2.3063
 4926TIP3    H236414   3.557   2.927   1.212 -0.8335  2.0845  0.2140
 4927TIP3   OH236415   6.913   5.892   0.409  0.2706 -0.5902 -0.3997
 4927TIP3    H136416   6.955   5.963   0.359 -0.7646 -0.3119 -0.9045
 4927TIP3    H236417   6.827   5.927   0.431 -0.0310 -1.4808 -0.1438
 4928TIP3   OH236418   0.148   6.062   0.291  0.0673  0.2882  0.2585
 4928TIP3    H136419   0.202   6.135   0.322  0.3877 -0.1331  0.6918
 4928TIP3    H236420   0.181   6.043   0.203  0.6702 -0.0110  0.5483
 4929TIP3   OH236421   3.314   4.105   0.202  0.5358 -0.8122 -0.2235
 4929TIP3    H136422   3.221   4.124   0.214  0.4071 -0.8958 -1.0580
 4929TIP3    H236423   3.358   4.165   0.263 -0.0223 -0.1974 -0.4078
 4930TIP3   OH236424   5.936   2.522   7.203 -0.1572 -0.0026  0.6951
 4930TIP3    H136425   5.877   2.448   7.189  1.9099 -1.4116 -1.2633
 4930TIP3    H236426   6.010   2.484   7.251  1.2685  0.5734 -0.9568
 4931TIP3   OH236427   6.400   5.423   1.046 -0.1821  0.0029 -0.6540
 4931TIP3    H136428   6.337   5.466   0.988 -0.1360 -0.4781 -1.0721
 4931TIP3    H236429   6.380   5.457   1.133  0.8234  2.0082 -1.1537
 4932TIP3   OH236430   5.118   1.555   6.306  0.0271 -0.0804 -0.5058
 4932TIP3    H136431   5.040   1.505   6.282 -0.8996  0.6967  0.7684
 4932TIP3    H236432   5.191   1.496   6.287 -0.9821 -1.5847  0.0732
 4933TIP3   OH236433   1.562   3.200   0.714  0.3874 -0.0333 -0.0051
 4933TIP3    H136434   1.500   3.146   0.665 -0.6125  0.5252  0.6309
 4933TIP3    H236435   1.580   3.149   0.793 -1.3278  0.9460  1.0806
 4934TIP3   OH236436   3.597   4.058   1.835  0.3499  0.4962 -0.6775
 4934TIP3    H136437   3.688   4.082   1.819 -0.0182  2.0978 -0.5849
 4934TIP3    H236438   3.557   4.054   1.748  0.3554  0.4599 -0.6784
 4935TIP3   OH236439   0.857   0.552   7.845  0.3542 -0.2002 -0.2375
 4935TIP3    H136440   0.819   0.640   7.833 -0.0700 -0.3373  0.0670
 4935TIP3    H236441   0.787   0.501   7.886  1.2736 -0.1344  1.5197
 4936TIP3   OH236442   2.458   4.964   1.878 -0.0317  0.2642  0.1953
 4936TIP3    H136443   2.399   4.938   1.948 -1.0804  0.6059 -0.5453
 4936TIP3    H236444   2.406   5.022   1.823  0.2809 -1.2379 -1.7460
 4937TIP3   OH236445   3.628   6.551   7.853  0.0890 -0.1946  0.2811
 4937TIP3    H136446   3.658   6.538   7.763  0.0551 -1.4640  0.4391
 4937TIP3    H236447   3.700   6.598   7.895 -0.1961  1.0755 -0.5747
 4938TIP3   OH236448   1.261   1.956   8.213 -0.4372  0.0151  0.3645
 4938TIP3    H136449   1.238   1.901   8.139  1.3124 -0.3615  0.0516
 4938TIP3    H236450   1.356   1.946   8.222 -0.4895  0.6897  2.1472
 4939TIP3   OH236451   4.998   5.811   2.229  0.0484  0.2927 -0.2724
 4939TIP3    H136452   5.089   5.839   2.238 -0.3764  1.5068  0.4355
 4939TIP3    H236453   4.977   5.768   2.312 -0.5786  1.7448  0.3616
 4940TIP3   OH236454   6.348   6.321   2.523 -0.0373  0.0601 -0.5395
 4940TIP3    H136455   6.292   6.313   2.446  1.4438 -0.1564 -1.6380
 4940TIP3    H236456   6.367   6.230   2.549  0.6398  0.1089 -0.8313
 4941TIP3   OH236457   0.389   3.653   1.648  0.3814  0.5336  0.0763
 4941TIP3    H136458   0.422   3.564   1.641 -0.4914 -0.0176  2.2747
 4941TIP3    H236459   0.440   3.693   1.718 -2.1543  0.2477  2.2483
 4942TIP3   OH236460   2.456   0.700   0.429 -0.0812  0.2140  0.2832
 4942TIP3    H136461   2.493   0.613   0.438  0.7320  0.6364  1.2423
 4942TIP3    H236462   2.378   0.699   0.484 -0.1325  0.0642  0.2078
 4943TIP3   OH236463   5.203   2.140   0.802 -0.5497  0.0591 -0.0787
 4943TIP3    H136464   5.265   2.164   0.870  1.3282 -0.8464 -1.3905
 4943TIP3    H236465   5.174   2.052   0.826 -0.4590  0.0378 -0.0456
 4944TIP3   OH236466   1.205   4.712   0.330  0.0981 -0.2767  0.1776
 4944TIP3    H136467   1.173   4.774   0.264 -0.9223 -0.2893  0.6491
 4944TIP3    H236468   1.268   4.657   0.283 -0.0486  0.2003 -0.5941
 4945TIP3   OH236469   0.958   3.789   0.469 -0.2912  0.3598  0.7059
 4945TIP3    H136470   0.935   3.697   0.486 -0.4307  0.0530 -0.9896
 4945TIP3    H236471   1.024   3.809   0.535  0.4637 -1.2789  0.4998
 4946TIP3   OH236472   5.961   3.597   7.758 -0.3432 -0.1442  0.4759
 4946TIP3    H136473   5.978   3.507   7.730 -2.2205  0.1397 -1.8961
 4946TIP3    H236474   6.046   3.640   7.757  0.2729 -1.3611 -0.5015
 4947TIP3   OH236475   1.075   4.706   7.933  0.4039  0.4289 -0.1580
 4947TIP3    H136476   1.070   4.690   8.027  1.2908 -0.8306 -0.2963
 4947TIP3    H236477   1.096   4.621   7.895 -0.1737  0.8616 -1.5272
 4948TIP3   OH236478   5.974   1.583   1.770  0.4156  0.1581 -0.0938
 4948TIP3    H136479   6.005   1.655   1.716  1.1181 -0.0035  0.0720
 4948TIP3    H236480   6.054   1.545   1.806 -0.0538  0.4240  1.2672
 4949TIP3   OH236481   0.488   4.708   7.302 -0.2199  0.2212 -0.4203
 4949TIP3    H136482   0.559   4.702   7.365 -1.5310 -1.5771  1.0000
 4949TIP3    H236483   0.480   4.619   7.267 -2.0097  0.2670 -0.2228
 4950TIP3   OH236484   5.962   3.573   6.759 -0.0126 -0.0308  0.6531
 4950TIP3    H136485   5.960   3.629   6.837 -0.4111  1.3398 -0.3091
 4950TIP3    H236486   5.992   3.631   6.689  1.3038 -1.4809 -0.0478
 4951TIP3   OH236487   5.926   6.724   8.142 -0.1580 -0.3096 -0.1438
 4951TIP3    H136488   6.000   6.666   8.126 -0.2182 -0.4634  0.1241
 4951TIP3    H236489   5.960   6.791   8.201 -0.4219 -0.8047  0.5895
 4952TIP3   OH236490   1.680   2.621   8.527 -0.4164  0.1441 -0.6240
 4952TIP3    H136491   1.619   2.693   8.537  0.4637  0.9248 -0.7695
 4952TIP3    H236492   1.754   2.643   8.583 -0.1474 -0.6608 -0.6421
 4953TIP3   OH236493   2.257   0.690   1.587  0.0941  0.4262  0.1823
 4953TIP3    H136494   2.204   0.641   1.651  1.0481 -0.8686  0.0191
 4953TIP3    H236495   2.347   0.662   1.604  0.4904  0.9491 -0.9669
 4954TIP3   OH236496   6.815   5.304   1.633 -0.2164 -0.7938 -0.2461
 4954TIP3    H136497   6.863   5.237   1.681  0.8280  1.2582  1.7544
 4954TIP3    H236498   6.733   5.261   1.607  0.3268 -2.7685  1.1116
 4955TIP3   OH236499   1.092   6.235   2.106  0.4584  0.1905 -0.3889
 4955TIP3    H136500   1.035   6.171   2.064 -0.1042 -0.6154  1.4686
 4955TIP3    H236501   1.096   6.308   2.045 -1.2139 -0.4288 -1.3100
 4956TIP3   OH236502   2.696   6.013   0.156  0.1953  0.1104  0.7350
 4956TIP3    H136503   2.709   5.996   0.249 -1.1214  2.4672  1.4119
 4956TIP3    H236504   2.603   6.000   0.142  0.6230 -1.9376 -0.7105
 4957TIP3   OH236505   6.002   1.163   7.541  0.3910  0.2735  0.1904
 4957TIP3    H136506   6.009   1.180   7.635 -1.0828  0.3928  0.3015
 4957TIP3    H236507   5.990   1.250   7.503 -0.1095  0.1242  0.0088
 4958TIP3   OH236508   5.549   4.887   1.592  0.6887  0.3381 -1.1044
 4958TIP3    H136509   5.505   4.962   1.551  1.5018  1.1594 -0.5150
 4958TIP3    H236510   5.495   4.812   1.568 -1.1806  1.3266 -0.1995
 4959TIP3   OH236511   1.534   2.385   7.083 -0.1130 -0.3880  0.2145
 4959TIP3    H136512   1.541   2.423   7.170 -0.4581 -1.2027  0.6084
 4959TIP3    H236513   1.617   2.338   7.071 -0.0734 -0.2919  0.1174
 4960TIP3   OH236514   3.074   4.508   6.913  0.5689  0.3687 -0.0314
 4960TIP3    H136515   3.060   4.449   6.987 -0.9347 -0.4333 -0.8993
 4960TIP3    H236516   3.167   4.501   6.893  1.1801  1.1925  2.2239
 4961TIP3   OH236517   5.781   5.242   7.443  0.0774 -0.2428 -0.3404
 4961TIP3    H136518   5.796   5.195   7.362  0.8827  0.4783 -0.6354
 4961TIP3    H236519   5.778   5.174   7.511 -1.3089 -0.9051 -1.0434
 4962TIP3   OH236520   2.668   3.165   1.833 -0.2610  0.1323  0.4790
 4962TIP3    H136521   2.668   3.138   1.741 -1.9366 -0.2585  0.5592
 4962TIP3    H236522   2.622   3.249   1.833 -2.2677 -0.8902  1.1724
 4963TIP3   OH236523   2.640   2.271   7.484  0.1760 -0.3196  0.1584
 4963TIP3    H136524   2.558   2.313   7.509 -0.0783  0.4880 -1.9082
 4963TIP3    H236525   2.706   2.341   7.491  0.3340 -0.4390 -0.1507
 4964TIP3   OH236526   4.444   0.175   7.198 -0.4888 -0.1674  0.1858
 4964TIP3    H136527   4.485   0.252   7.237 -1.6547  0.4903  0.1376
 4964TIP3    H236528   4.410   0.206   7.114 -0.8279 -0.7734  0.0956
 4965TIP3   OH236529   1.417   1.942   7.445 -0.6353  0.3242 -0.3803
 4965TIP3    H136530   1.328   1.910   7.461  0.4498 -1.4052  3.3908
 4965TIP3    H236531   1.455   1.878   7.386 -0.6319 -1.5846  1.5684
 4966TIP3   OH236532   4.087   0.060   7.129 -0.0458 -0.0120 -0.2947
 4966TIP3    H136533   4.085   0.099   7.217 -0.1142 -0.8607  0.0882
 4966TIP3    H236534   4.122  -0.028   7.143  1.0450  0.2436 -1.2803
 4967TIP3   OH236535   6.105   1.774   1.593  0.5001  0.5413  0.4144
 4967TIP3    H136536   6.130   1.865   1.606  2.7076 -0.2139  2.1693
 4967TIP3    H236537   6.177   1.736   1.542 -0.8639 -0.0549 -1.1692
 4968TIP3   OH236538   3.432   5.225   6.901  0.2160 -0.3523  0.2142
 4968TIP3    H136539   3.485   5.148   6.882  1.3272  0.8604 -2.0069
 4968TIP3    H236540   3.344   5.202   6.872  0.4748 -0.9037 -0.1416
 4969TIP3   OH236541   6.503   3.597   0.745  0.7657 -0.6929 -0.3635
 4969TIP3    H136542   6.410   3.618   0.733  0.7798 -0.9372 -0.9075
 4969TIP3    H236543   6.530   3.558   0.662  1.7437  0.7430 -0.7583
 4970TIP3   OH236544   4.065   5.800   8.495 -0.2037 -0.1764  0.8942
 4970TIP3    H136545   3.975   5.827   8.516  0.3621  0.0509  3.2908
 4970TIP3    H236546   4.066   5.706   8.510 -0.1896 -0.2966  0.1886
 4971TIP3   OH236547   3.552   3.888   8.398 -0.6271 -0.0258  0.9935
 4971TIP3    H136548   3.596   3.808   8.367 -0.9256 -0.7296  2.3164
 4971TIP3    H236549   3.585   3.957   8.341  3.5889 -0.1694  2.9317
 4972TIP3   OH236550   2.295   4.573   6.118 -0.2442 -0.1090  0.2562
 4972TIP3    H136551   2.279   4.557   6.211  1.0756  0.0282  0.5374
 4972TIP3    H236552   2.250   4.502   6.073 -0.1886 -0.6692  1.0657
 4973TIP3   OH236553   5.754   4.767   2.533 -0.3178  0.2210 -0.9060
 4973TIP3    H136554   5.673   4.798   2.494 -0.8660 -1.8459 -1.5093
 4973TIP3    H236555   5.807   4.846   2.544 -2.6107  1.7299  0.1037
 4974TIP3   OH236556   6.693   4.181   1.714 -0.2093 -0.2379  0.0415
 4974TIP3    H136557   6.678   4.205   1.806  0.9441 -0.5151  0.3258
 4974TIP3    H236558   6.730   4.092   1.719 -2.2480 -1.1935 -0.8447
 4975TIP3   OH236559   5.130   4.005   7.950  0.7473 -0.6444 -0.5390
 4975TIP3    H136560   5.047   3.963   7.974 -0.7900  1.5631 -1.6651
 4975TIP3    H236561   5.168   4.032   8.034 -0.5989 -0.0630 -0.0805
 4976TIP3   OH236562   4.201   6.846   0.689 -0.0901 -0.5929 -0.0069
 4976TIP3    H136563   4.205   6.879   0.600 -1.2272 -0.0406  0.1338
 4976TIP3    H236564   4.259   6.904   0.739 -0.0158 -0.4610 -0.2493
 4977TIP3   OH236565   4.441   3.734   2.592  0.1308  0.2631  0.7458
 4977TIP3    H136566   4.454   3.809   2.650 -0.1353 -0.1957  1.4039
 4977TIP3    H236567   4.518   3.679   2.606  0.5422  0.6200 -0.0642
 4978TIP3   OH236568   2.689   5.994   0.439 -0.3082 -0.4396 -0.1392
 4978TIP3    H136569   2.750   5.948   0.498  0.2228  0.0237 -0.3208
 4978TIP3    H236570   2.722   6.084   0.437 -0.6276 -0.3369 -0.7439
 4979TIP3   OH236571   4.099   6.745   1.538 -0.0776  0.1787  0.6874
 4979TIP3    H136572   4.100   6.687   1.462  3.0714 -0.3361  0.9864
 4979TIP3    H236573   4.009   6.778   1.543 -0.5157 -0.1407 -2.9307
 4980TIP3   OH236574   2.669   4.172   2.081  0.3444  0.4385  0.2685
 4980TIP3    H136575   2.733   4.228   2.124 -0.7824  1.9106  0.1493
 4980TIP3    H236576   2.663   4.207   1.991 -1.0270  0.7674  0.4518
 4981TIP3   OH236577   6.219   0.700   0.858  0.1787  0.3829  0.5250
 4981TIP3    H136578   6.215   0.626   0.797 -1.8500  1.4814 -0.8093
 4981TIP3    H236579   6.194   0.663   0.943  1.2321 -0.8305  0.3393
 4982TIP3   OH236580   4.663   2.439   0.613 -0.0412 -0.1894 -0.0136
 4982TIP3    H136581   4.703   2.466   0.695 -1.8041  0.5095  0.6358
 4982TIP3    H236582   4.615   2.359   0.635  0.8304 -0.9487 -0.7620
 4983TIP3   OH236583   2.120   5.184   8.561 -0.1838 -0.7978  0.0721
 4983TIP3    H136584   2.039   5.142   8.591 -1.7349  1.4172 -0.7170
 4983TIP3    H236585   2.187   5.116   8.570 -1.6764 -2.0848  2.7735
 4984TIP3   OH236586   5.150   1.436   1.480  0.3819  0.1842 -0.2323
 4984TIP3    H136587   5.131   1.530   1.480  2.0585  0.5902 -1.7719
 4984TIP3    H236588   5.083   1.398   1.424  0.7266  0.7547 -1.0582
 4985TIP3   OH236589   5.783   2.323   7.574  0.1054  0.1677  0.0051
 4985TIP3    H136590   5.879   2.325   7.577  0.1987  1.3639 -2.1027
 4985TIP3    H236591   5.762   2.272   7.496 -0.9898 -0.0928  0.4477
 4986TIP3   OH236592   5.775   4.122   2.524 -0.2885 -0.3801 -0.2147
 4986TIP3    H136593   5.728   4.039   2.532 -0.0938 -0.5113 -0.4271
 4986TIP3    H236594   5.709   4.184   2.493 -0.3610 -0.5307 -0.3663
 4987TIP3   OH236595   1.126   5.085   8.221  0.6874  0.2498 -0.5989
 4987TIP3    H136596   1.186   5.012   8.206 -0.1669 -0.0038 -3.5959
 4987TIP3    H236597   1.138   5.141   8.143 -0.7324  1.7999  0.2435
 4988TIP3   OH236598   0.918   2.976   2.014  0.1101 -0.1463 -0.1894
 4988TIP3    H136599   0.952   2.954   1.927  1.0915 -0.6353  0.3050
 4988TIP3    H236600   0.996   2.983   2.069 -0.5406 -0.4939  0.8006
 4989TIP3   OH236601   4.812   4.900   7.936  0.0994 -0.6463  0.4489
 4989TIP3    H136602   4.761   4.970   7.978  2.4867  1.9186 -0.6480
 4989TIP3    H236603   4.760   4.875   7.860 -0.7407  0.0179  0.7849
 4990TIP3   OH236604   3.547   2.351   0.514 -0.5334  0.8397  0.1058
 4990TIP3    H136605   3.563   2.423   0.453 -1.0865  1.7261  0.9792
 4990TIP3    H236606   3.451   2.346   0.521 -0.4827  0.4742  0.5896
 4991TIP3   OH236607   1.888   4.035   1.861  0.6597 -0.1472  0.1674
 4991TIP3    H136608   1.862   3.955   1.907 -0.5792 -0.7850 -1.5318
 4991TIP3    H236609   1.950   4.006   1.795  0.0365  0.2371 -0.6085
 4992TIP3   OH236610   1.416   6.276   7.267  0.4280 -0.3364 -0.2277
 4992TIP3    H136611   1.391   6.254   7.177 -3.8461  1.3040  0.3437
 4992TIP3    H236612   1.399   6.197   7.317  0.9986 -0.6592 -0.5260
 4993TIP3   OH236613   3.331   3.910   6.765  0.0267 -0.1458  0.0951
 4993TIP3    H136614   3.288   3.960   6.696  1.1967  0.5724 -0.1456
 4993TIP3    H236615   3.379   3.841   6.719  0.4281  0.0454  0.2192
 4994TIP3   OH236616   1.029   2.407   7.521 -0.1484 -0.9740  0.0674
 4994TIP3    H136617   0.947   2.358   7.521 -0.3902 -0.6738 -2.1484
 4994TIP3    H236618   1.004   2.497   7.541 -0.7838 -0.4218 -2.7375
 4995TIP3   OH236619   1.866   0.474   2.158  0.1886  0.3269 -0.1675
 4995TIP3    H136620   1.810   0.424   2.099 -0.6471  0.3076  0.6225
 4995TIP3    H236621   1.807   0.536   2.201  0.4557 -0.7351  1.8186
 4996TIP3   OH236622   5.833   4.180   7.638 -0.5158 -0.2461  0.0416
 4996TIP3    H136623   5.846   4.189   7.543 -0.7271 -1.0471 -0.0688
 4996TIP3    H236624   5.742   4.204   7.652 -0.6958 -0.8452 -0.0672
 4997TIP3   OH236625   0.540   4.449   7.188  0.0276 -0.0014 -0.3051
 4997TIP3    H136626   0.595   4.480   7.116 -0.1186 -0.1021 -0.4614
 4997TIP3    H236627   0.471   4.399   7.145 -0.5517  0.6628 -0.1595
 4998TIP3   OH236628   5.683   4.468   0.124 -0.4012  0.0907  0.2516
 4998TIP3    H136629   5.702   4.447   0.216  1.9312  1.3554  0.1246
 4998TIP3    H236630   5.731   4.402   0.074 -0.9310 -0.0505 -0.0753
 4999TIP3   OH236631   2.410   5.857   0.862 -0.1396  0.0071 -0.2571
 4999TIP3    H136632   2.500   5.842   0.833 -0.0693 -1.3402  0.5716
 4999TIP3    H236633   2.362   5.877   0.782  0.9166  0.9646 -0.6914
 5000TIP3   OH236634   4.530   4.395   6.811 -0.3016 -0.1809  0.3456
 5000TIP3    H136635   4.601   4.450   6.844 -1.4201  0.6901  1.3895
 5000TIP3    H236636   4.526   4.416   6.718 -0.2977  1.0787  0.6054
 5001TIP3   OH236637   1.992   1.967   0.049  0.1622 -0.0588  0.3761
 5001TIP3    H136638   1.897   1.976   0.059  0.1104 -0.6464  0.4645
 5001TIP3    H236639   2.028   2.037   0.103 -0.2393  1.6771 -1.4937
 5002TIP3   OH236640   0.160   1.117   1.935 -0.3624  0.1201  0.1025
 5002TIP3    H136641   0.249   1.150   1.947 -0.1133 -0.5928  0.2939
 5002TIP3    H236642   0.116   1.185   1.885  0.2088  0.6094  0.2448
 5003TIP3   OH236643   3.048   0.603   8.316 -0.4122  0.0111 -0.5131
 5003TIP3    H136644   3.089   0.589   8.401 -1.8649 -1.1020  0.0524
 5003TIP3    H236645   3.038   0.515   8.279 -0.5158  0.4123 -1.4834
 5004TIP3   OH236646   3.737   6.665   8.198 -0.1462  0.2482  0.0375
 5004TIP3    H136647   3.643   6.646   8.207  0.3713 -1.7185  2.3188
 5004TIP3    H236648   3.743   6.760   8.207 -1.9843  0.5545 -1.2468
 5005TIP3   OH236649   1.674   3.541   1.198 -0.2724 -0.3867 -0.6364
 5005TIP3    H136650   1.690   3.614   1.138 -0.0481 -1.5076 -2.0065
 5005TIP3    H236651   1.600   3.570   1.252  0.4159  1.2059 -0.4963
 5006TIP3   OH236652   0.617   5.135   1.403 -0.2704  0.3161 -0.0879
 5006TIP3    H136653   0.641   5.202   1.466  0.4934  0.6981 -0.7694
 5006TIP3    H236654   0.592   5.184   1.324  0.4043 -0.1860 -0.6276
 5007TIP3   OH236655   5.357   2.337   1.942 -0.6306 -0.2975  0.4138
 5007TIP3    H136656   5.417   2.356   1.869 -1.0634 -0.9696 -0.1280
 5007TIP3    H236657   5.319   2.252   1.920 -0.5484 -0.6473  1.5849
 5008TIP3   OH236658   2.410   6.635   1.561  0.8363 -0.5439 -0.0459
 5008TIP3    H136659   2.435   6.659   1.472  0.0752  2.4521  0.4445
 5008TIP3    H236660   2.322   6.671   1.571  0.5097 -1.7079  1.6156
 5009TIP3   OH236661   4.126   3.041   2.019  0.2476  0.3419 -0.5075
 5009TIP3    H136662   4.127   2.982   2.094  0.0491  1.4595  0.3956
 5009TIP3    H236663   4.157   3.125   2.054 -1.4688  1.3315 -1.2730
 5010TIP3   OH236664   0.533   1.154   7.784  0.3019  0.2396  0.3746
 5010TIP3    H136665   0.493   1.144   7.870  0.0995  0.6529  0.3276
 5010TIP3    H236666   0.627   1.160   7.802  0.3492 -0.6511  0.4881
 5011TIP3   OH236667   4.839   0.982   0.423 -0.5724 -0.1534 -0.2725
 5011TIP3    H136668   4.922   0.977   0.374 -0.9995  1.8028 -1.2963
 5011TIP3    H236669   4.860   1.035   0.500 -0.4467 -1.2564  0.4617
 5012TIP3   OH236670   2.891   5.079   8.368 -0.6502  0.1632 -0.1018
 5012TIP3    H136671   2.845   4.995   8.374 -0.0128 -0.3101 -1.4246
 5012TIP3    H236672   2.937   5.075   8.284  1.6628  0.6816  1.0727
 5013TIP3   OH236673   6.411   1.348   0.150 -0.5302 -0.4707  0.0116
 5013TIP3    H136674   6.322   1.323   0.177  0.4070  0.2793  4.5291
 5013TIP3    H236675   6.461   1.267   0.157 -0.7474 -0.9879 -2.9235
 5014TIP3   OH236676   4.621   4.637   7.391 -0.1278 -0.2901  0.0999
 5014TIP3    H136677   4.704   4.595   7.367  0.4452 -0.0692  1.5509
 5014TIP3    H236678   4.582   4.578   7.455  0.0581  0.7044  1.1765
 5015TIP3   OH236679   5.629   2.138   7.424 -0.0063  0.1447  0.3751
 5015TIP3    H136680   5.629   2.107   7.515  0.8668  0.8975  0.6504
 5015TIP3    H236681   5.539   2.166   7.409 -0.3990 -0.9074  0.6731
 5016TIP3   OH236682   6.220   2.831   0.478 -0.2272  0.2349 -0.3536
 5016TIP3    H136683   6.242   2.843   0.386 -0.6345 -0.4730 -0.5502
 5016TIP3    H236684   6.153   2.763   0.479 -0.3669  0.3613  0.4541
 5017TIP3   OH236685   4.895   2.018   0.257 -0.6112 -0.9774 -0.3646
 5017TIP3    H136686   4.850   1.941   0.292 -0.7743 -2.1675 -2.8986
 5017TIP3    H236687   4.831   2.058   0.198 -1.0992  2.1227  2.0244
 5018TIP3   OH236688   0.376   5.155   8.617 -0.6218  0.2569  0.4038
 5018TIP3    H136689   0.398   5.242   8.649  1.6398 -0.5828  1.4194
 5018TIP3    H236690   0.391   5.159   8.523 -1.6939  1.2391  0.2543
 5019TIP3   OH236691   1.765   2.587   0.719  0.4304 -0.7869  1.0755
 5019TIP3    H136692   1.709   2.547   0.653 -1.0608  0.9360  1.2049
 5019TIP3    H236693   1.827   2.518   0.744 -0.7809 -2.3481 -0.0534
 5020TIP3   OH236694   4.555   6.288   8.338 -0.1033  0.5712  0.3116
 5020TIP3    H136695   4.494   6.303   8.266 -0.7523  0.4180  0.8247
 5020TIP3    H236696   4.510   6.323   8.415  1.1212  1.9381  0.4472
 5021TIP3   OH236697   5.830   2.071   8.446 -0.6512  0.5223  0.2226
 5021TIP3    H136698   5.912   2.050   8.490 -1.2771  1.5288  1.9527
 5021TIP3    H236699   5.818   2.165   8.459 -2.7110  0.1880  1.1841
 5022TIP3   OH236700   2.319   5.162   7.519  0.2772  0.3431  0.9829
 5022TIP3    H136701   2.368   5.228   7.567  1.8032  0.7584 -1.0059
 5022TIP3    H236702   2.304   5.201   7.433 -1.5364 -0.7079  0.7571
 5023TIP3   OH236703   1.309   3.314   2.108  0.4629 -0.1296  0.1518
 5023TIP3    H136704   1.221   3.276   2.118  0.0195  0.7583 -0.2626
 5023TIP3    H236705   1.295   3.408   2.107  0.9026  0.0826 -3.7534
 5024TIP3   OH236706   0.242   2.587   0.138  0.7305  0.3797  0.2411
 5024TIP3    H136707   0.216   2.677   0.154  0.9074  0.4125  0.3466
 5024TIP3    H236708   0.252   2.581   0.043  1.0506  0.5609  0.2654
 5025TIP3   OH236709   3.576   6.461   7.095  0.2282  0.0863  0.4923
 5025TIP3    H136710   3.618   6.498   7.017 -0.5008 -0.0055  0.0423
 5025TIP3    H236711   3.632   6.487   7.168  2.3560 -1.9540 -0.2826
 5026TIP3   OH236712   3.862   1.894   8.579  0.3192 -0.5061  0.1210
 5026TIP3    H136713   3.834   1.985   8.592  0.6012 -0.2526 -0.9335
 5026TIP3    H236714   3.924   1.878   8.650  2.1894  0.9703 -1.0738
 5027TIP3   OH236715   1.756   3.250   0.157  0.1010  0.5017  0.0860
 5027TIP3    H136716   1.833   3.246   0.215 -1.0597  0.0459  1.6873
 5027TIP3    H236717   1.776   3.320   0.095  2.5383 -0.7547 -0.6865
 5028TIP3   OH236718   1.460   0.493   1.238 -0.0432 -0.2832 -0.0458
 5028TIP3    H136719   1.543   0.540   1.233 -0.6804  0.8837  0.0984
 5028TIP3    H236720   1.426   0.513   1.325  1.3989 -4.0638  1.6062
 5029TIP3   OH236721   6.886   2.393   7.487  0.6491  0.4168 -1.0045
 5029TIP3    H136722   6.867   2.458   7.419 -1.3069  1.0326  0.0412
 5029TIP3    H236723   6.810   2.398   7.546  1.9503 -0.5759  0.8462
 5030TIP3   OH236724   2.966   4.522   1.128  0.1169 -0.1048  0.3115
 5030TIP3    H136725   2.978   4.462   1.202  1.1190 -2.2609 -1.4954
 5030TIP3    H236726   2.873   4.518   1.108 -0.0625  0.0610  1.0814
 5031TIP3   OH236727   6.026   3.157   7.016  0.2761  0.3618 -0.9156
 5031TIP3    H136728   6.031   3.094   6.944  1.9865 -0.0425 -0.4824
 5031TIP3    H236729   6.003   3.104   7.092  1.5840  0.2583 -0.5766
 5032TIP3   OH236730   1.562   2.444   1.847 -0.2382  0.0713  0.4481
 5032TIP3    H136731   1.476   2.410   1.822 -0.7343  0.8256  1.0803
 5032TIP3    H236732   1.562   2.444   1.942 -0.0980  1.4023  0.4702
 5033TIP3   OH236733   6.749   3.423   2.363 -0.3364  0.2236  0.1475
 5033TIP3    H136734   6.664   3.430   2.406 -0.4072  0.3429 -0.0091
 5033TIP3    H236735   6.779   3.335   2.383  0.3999  0.8249  1.8754
 5034TIP3   OH236736   5.941   2.836   6.497  0.7215 -0.3012 -0.1246
 5034TIP3    H136737   5.864   2.841   6.440  0.7786 -1.6057 -0.3517
 5034TIP3    H236738   5.906   2.808   6.581  0.6800  1.2998  0.4133
 5035TIP3   OH236739   2.688   4.357   0.676  0.0396  0.1241 -0.3696
 5035TIP3    H136740   2.606   4.312   0.656 -0.5219  1.3864 -1.0362
 5035TIP3    H236741   2.721   4.314   0.755 -0.5807 -1.2768 -0.8394
 5036TIP3   OH236742   3.233   1.228   7.733  0.5028 -0.5545  0.7706
 5036TIP3    H136743   3.199   1.168   7.666  0.6891  0.7348 -0.5043
 5036TIP3    H236744   3.182   1.308   7.723  2.6966  0.8234 -0.0451
 5037TIP3   OH236745   4.862   2.432   1.122 -0.0626  0.1060  0.0451
 5037TIP3    H136746   4.955   2.445   1.142  0.3651 -1.9789 -0.3662
 5037TIP3    H236747   4.856   2.340   1.098 -2.1972  0.2972 -0.2806
 5038TIP3   OH236748   4.669   1.550   7.033  0.3216 -0.1397  0.0589
 5038TIP3    H136749   4.635   1.623   6.980  0.0306  0.1207  0.5925
 5038TIP3    H236750   4.761   1.543   7.008  0.7235  1.3437  1.0097
 5039TIP3   OH236751   1.181   4.288   8.413  0.5796 -0.0555 -0.0949
 5039TIP3    H136752   1.202   4.203   8.374  2.0540  0.9374 -1.6113
 5039TIP3    H236753   1.236   4.292   8.492  0.3504 -0.5735  0.0981
 5040TIP3   OH236754   2.004   1.139   2.485  0.2366 -0.2755 -0.3654
 5040TIP3    H136755   2.086   1.089   2.486  0.6339  0.2665 -1.9687
 5040TIP3    H236756   2.018   1.207   2.419 -0.8894  0.9290  0.5821
 5041TIP3   OH236757   3.411   5.673   8.311  0.6353  0.0263  0.1660
 5041TIP3    H136758   3.331   5.640   8.352 -0.1993  1.0600 -0.5900
 5041TIP3    H236759   3.481   5.645   8.370 -0.2276 -1.2694  0.6281
 5042TIP3   OH236760   5.272   4.504   8.349  0.6081 -0.1286  0.3529
 5042TIP3    H136761   5.333   4.454   8.295  0.5420 -0.2006  0.3453
 5042TIP3    H236762   5.285   4.595   8.323 -0.0560 -0.2425 -0.4157
 5043TIP3   OH236763   6.583   0.660   6.772  0.6736 -0.0708  0.1575
 5043TIP3    H136764   6.677   0.649   6.758  0.9285  0.4015  1.3670
 5043TIP3    H236765   6.575   0.741   6.823 -0.3857 -0.1011  0.0674
 5044TIP3   OH236766   4.675   6.083   8.580  0.6761  0.7068  0.5175
 5044TIP3    H136767   4.637   5.999   8.607 -1.9755  0.9788 -1.9378
 5044TIP3    H236768   4.724   6.113   8.657  0.9586 -2.6193  1.7758
 5045TIP3   OH236769   5.535   6.052   2.095 -0.7022 -0.2613 -0.6061
 5045TIP3    H136770   5.469   5.983   2.088 -1.4511  0.3638  0.0458
 5045TIP3    H236771   5.542   6.069   2.189 -1.4393  1.3823 -0.8227
 5046TIP3   OH236772   5.228   2.793   0.394 -0.1120  0.0883  0.3150
 5046TIP3    H136773   5.310   2.784   0.443 -0.4555 -1.0000  0.7303
 5046TIP3    H236774   5.160   2.791   0.461 -0.6082 -1.6553 -0.1853
 5047TIP3   OH236775   2.925   2.781   1.005  0.9996 -0.1753 -0.2592
 5047TIP3    H136776   3.014   2.818   1.008  0.7421  0.5770 -1.2839
 5047TIP3    H236777   2.898   2.793   0.914 -0.6001  0.6957  0.3012
 5048TIP3   OH236778   3.215   0.021   7.240 -0.2227  0.1079  0.2802
 5048TIP3    H136779   3.157  -0.050   7.268 -0.5911  0.6746  0.9898
 5048TIP3    H236780   3.156   0.089   7.206  0.0817  0.3449  0.2149
 5049TIP3   OH236781   3.851   6.775   7.094  0.4238  0.1523  0.3901
 5049TIP3    H136782   3.887   6.830   7.024 -1.0242  1.5429  0.6845
 5049TIP3    H236783   3.768   6.743   7.059  0.0062  0.3153  1.2144
 5050TIP3   OH236784   5.436   2.526   0.731  0.2430  0.3170  0.5399
 5050TIP3    H136785   5.414   2.615   0.758 -0.5900 -0.3430  2.1675
 5050TIP3    H236786   5.353   2.489   0.700  0.4511 -0.0810  0.4485
 5051TIP3   OH236787   6.410   3.346   6.442 -0.4301  0.0567 -0.0498
 5051TIP3    H136788   6.471   3.274   6.459 -1.9440 -1.4068 -0.5719
 5051TIP3    H236789   6.408   3.395   6.525  0.0877 -0.9132  0.5655
 5052TIP3   OH236790   2.772   3.125   8.288 -0.0326 -0.3667 -0.4452
 5052TIP3    H136791   2.775   3.029   8.287 -1.0317 -0.4168  0.0850
 5052TIP3    H236792   2.832   3.150   8.358 -0.0640 -0.6247 -0.3249
 5053TIP3   OH236793   3.091   2.636   8.041 -0.0789 -0.1475  0.3594
 5053TIP3    H136794   3.179   2.656   8.008  0.4094  1.0283  2.2121
 5053TIP3    H236795   3.056   2.721   8.070 -0.5998 -0.9994  2.4378
 5054TIP3   OH236796   3.065   3.757   0.604 -0.9368  0.1936 -0.6492
 5054TIP3    H136797   2.986   3.718   0.566 -0.6147  0.3475 -1.4805
 5054TIP3    H236798   3.083   3.833   0.550 -0.9268  0.8935  0.3023
 5055TIP3   OH236799   5.101   5.380   7.952 -0.1436  0.6066  0.3717
 5055TIP3    H136800   5.116   5.402   8.044  0.2276 -0.2435  0.5279
 5055TIP3    H236801   5.171   5.426   7.905  0.9179 -0.5477  0.7447
 5056TIP3   OH236802   0.632   1.706   1.544  0.4201  0.1201 -0.1691
 5056TIP3    H136803   0.589   1.764   1.480 -2.9802 -1.4438  0.4516
 5056TIP3    H236804   0.694   1.763   1.589 -1.4876  2.8926 -0.7240
 5057TIP3   OH236805   5.016   1.771   6.560  0.6668  0.3366 -0.1068
 5057TIP3    H136806   5.084   1.711   6.530 -0.0040 -1.0006  0.8794
 5057TIP3    H236807   5.050   1.806   6.643  0.5813  0.4351 -0.1136
 5058TIP3   OH236808   2.716   0.278   8.183 -0.4110 -0.0767  0.4841
 5058TIP3    H136809   2.657   0.229   8.126  0.3122 -0.9325  0.4548
 5058TIP3    H236810   2.761   0.338   8.124 -0.1179 -0.5203  0.2585
 5059TIP3   OH236811   1.998   1.414   1.058 -0.6630 -0.0157 -0.8458
 5059TIP3    H136812   2.043   1.343   1.012  0.7675 -0.7169  1.4731
 5059TIP3    H236813   2.063   1.449   1.118 -1.9606  1.9113 -0.4819
 5060TIP3   OH236814   3.040   5.084   8.099 -0.3804 -0.0156 -0.2385
 5060TIP3    H136815   3.110   5.148   8.087  0.0888 -0.5654 -0.4888
 5060TIP3    H236816   3.082   4.999   8.084 -1.6101 -0.2678 -2.9242
 5061TIP3   OH236817   3.485   3.897   7.619 -0.5405 -0.1593  0.9100
 5061TIP3    H136818   3.512   3.973   7.567  0.0150  2.4989  4.6430
 5061TIP3    H236819   3.393   3.883   7.596 -0.1283  0.3922 -1.2140
 5062TIP3   OH236820   1.423   3.365   8.546 -0.2402 -0.1038  0.7885
 5062TIP3    H136821   1.361   3.304   8.505  0.4614 -0.0039 -0.4545
 5062TIP3    H236822   1.431   3.333   8.636 -1.0098 -0.9622  0.5730
 5063TIP3   OH236823   2.329   5.623   8.092  0.7094  0.1918 -0.1712
 5063TIP3    H136824   2.371   5.620   8.006  0.4375 -0.7756 -0.2846
 5063TIP3    H236825   2.396   5.594   8.153  0.5001 -0.4526 -0.2374
 5064TIP3   OH236826   5.172   6.056   7.235  0.0928 -0.2511  0.0623
 5064TIP3    H136827   5.139   5.989   7.176 -0.7493  0.4684 -0.3205
 5064TIP3    H236828   5.267   6.054   7.224  0.0133 -0.8015 -0.5681
 5065TIP3   OH236829   4.227   6.674   8.627 -0.0478 -0.2448 -0.5983
 5065TIP3    H136830   4.303   6.707   8.675  0.7273 -1.2027 -1.1394
 5065TIP3    H236831   4.152   6.712   8.673  0.7494  0.7247 -0.0597
 5066TIP3   OH236832   6.873   4.502   8.204  0.0639  0.1666  0.1169
 5066TIP3    H136833   6.921   4.444   8.262 -1.7188  0.5554  2.0893
 5066TIP3    H236834   6.931   4.577   8.190  0.6694 -0.1185  1.0915
 5067TIP3   OH236835   2.988   6.714   0.156 -0.0867  0.4051 -0.7350
 5067TIP3    H136836   2.928   6.786   0.178 -0.3681 -0.4163  1.4832
 5067TIP3    H236837   3.015   6.732   0.066 -1.0719  2.6267 -0.6631
 5068TIP3   OH236838   1.462   5.083   2.224  0.1238  0.6177 -0.3486
 5068TIP3    H136839   1.384   5.135   2.243 -0.5574 -0.4297 -0.1870
 5068TIP3    H236840   1.449   5.051   2.134 -0.8742 -1.5757  0.4885
 5069TIP3   OH236841   5.418   1.098   8.342 -0.0279  0.1615  0.2601
 5069TIP3    H136842   5.473   1.177   8.344 -0.1583  0.3046 -0.8676
 5069TIP3    H236843   5.377   1.095   8.428 -1.0344  2.0901 -0.0884
 5070TIP3   OH236844   5.424   2.175   6.936  0.0477 -0.2659  0.5110
 5070TIP3    H136845   5.442   2.091   6.895  1.7742  0.9700 -1.4803
 5070TIP3    H236846   5.379   2.226   6.869  0.9211  1.0668  0.8881
 5071TIP3   OH236847   3.810   0.937   7.153 -0.1519  0.5195 -0.0100
 5071TIP3    H136848   3.853   0.874   7.210  2.0648  2.0120  0.0862
 5071TIP3    H236849   3.779   0.885   7.079  1.0294 -0.7706  0.3583
 5072TIP3   OH236850   2.131   1.018   7.452 -0.1178  0.1546 -0.1457
 5072TIP3    H136851   2.072   1.031   7.377 -0.1822 -1.1384 -0.3445
 5072TIP3    H236852   2.208   0.976   7.415  0.2600  0.3693  0.3777
 5073TIP3   OH236853   3.539   1.845   1.034 -0.1521  0.1319  0.2592
 5073TIP3    H136854   3.632   1.866   1.042  0.1552 -0.3485 -1.6083
 5073TIP3    H236855   3.528   1.765   1.086  0.6020 -0.1347  0.0199
 5074TIP3   OH236856   3.505   3.417   0.182  0.4526  0.3806  0.1239
 5074TIP3    H136857   3.541   3.460   0.104 -0.0698  2.9076  1.1814
 5074TIP3    H236858   3.549   3.460   0.255 -2.1966  1.2495  1.3369
 5075TIP3   OH236859   2.127   4.031   7.850  0.0069 -0.0603 -0.2772
 5075TIP3    H136860   2.048   3.978   7.857  1.2912 -2.0939 -0.4782
 5075TIP3    H236861   2.173   3.996   7.775  1.3300  0.7866  0.1061
 5076TIP3   OH236862   3.366   1.244   0.324  0.0574  0.3172 -0.3406
 5076TIP3    H136863   3.445   1.201   0.291  0.4332  0.6290  0.1494
 5076TIP3    H236864   3.397   1.328   0.358 -0.4684  0.3885 -0.0400
 5077TIP3   OH236865   6.300   4.991   7.503 -0.6270  0.0825  0.1064
 5077TIP3    H136866   6.224   5.034   7.542 -0.7107 -1.3883  1.6829
 5077TIP3    H236867   6.267   4.905   7.474  0.2907 -0.3407  0.2640
 5078TIP3   OH236868   5.907   3.308   6.825 -0.2399 -0.0928  0.2660
 5078TIP3    H136869   5.955   3.252   6.886  0.1415 -1.0520 -0.8861
 5078TIP3    H236870   5.960   3.388   6.820  0.7447 -0.7557 -0.2442
 5079TIP3   OH236871   6.172   4.745   7.450 -0.0718 -0.1256  0.0858
 5079TIP3    H136872   6.263   4.716   7.455  0.1349  0.4588 -0.2725
 5079TIP3    H236873   6.123   4.665   7.431  0.5011 -0.2472 -0.9276
 5080TIP3   OH236874   1.447   6.872   1.917  0.0752 -0.3088 -0.6303
 5080TIP3    H136875   1.385   6.800   1.912 -0.1271 -0.1674 -0.2178
 5080TIP3    H236876   1.532   6.833   1.898  0.3147 -1.1281  1.8449
 5081TIP3   OH236877   6.790   3.328   1.652 -0.1634  0.1808  0.3675
 5081TIP3    H136878   6.817   3.377   1.574  1.2451 -3.1465 -1.4334
 5081TIP3    H236879   6.859   3.343   1.715  0.7889 -0.2494 -0.5458
 5082TIP3   OH236880   3.888   1.704   7.956  0.6250 -0.0196  0.7110
 5082TIP3    H136881   3.930   1.678   7.875 -1.0151 -0.8960  0.0936
 5082TIP3    H236882   3.859   1.794   7.941 -0.1658 -0.3678  0.0914
 5083TIP3   OH236883   5.812   4.059   7.098  0.2257  0.3521 -0.2621
 5083TIP3    H136884   5.783   3.969   7.079  1.5005 -0.0695 -0.2870
 5083TIP3    H236885   5.730   4.109   7.104 -0.4577 -0.3345 -2.5327
 5084TIP3   OH236886   4.326   6.434   0.477 -0.2565  0.2219 -0.0949
 5084TIP3    H136887   4.396   6.376   0.445  0.3624  0.9169 -0.0323
 5084TIP3    H236888   4.337   6.434   0.572  0.3328  1.1467 -0.1502
 5085TIP3   OH236889   1.800   1.772   2.061 -0.0790 -0.4862 -0.4605
 5085TIP3    H136890   1.834   1.860   2.076 -0.8784  0.0243 -1.5031
 5085TIP3    H236891   1.773   1.741   2.148  0.5987  0.1202 -0.0262
 5086TIP3   OH236892   2.950   1.815   0.650 -0.2193 -0.4216  0.4853
 5086TIP3    H136893   2.971   1.735   0.601 -1.7305 -0.5048 -0.0812
 5086TIP3    H236894   2.919   1.784   0.735 -1.1040 -0.4665  0.1532
 5087TIP3   OH236895   2.930   3.553   1.038 -0.2068 -0.2543 -0.0408
 5087TIP3    H136896   2.857   3.501   1.071  0.5322 -1.2997 -0.0144
 5087TIP3    H236897   2.998   3.489   1.018  0.2939  0.5935 -1.1590
 5088TIP3   OH236898   0.311   2.073   0.938 -0.3507 -0.3341 -0.0707
 5088TIP3    H136899   0.347   2.138   0.877 -0.0161  0.7642  1.2640
 5088TIP3    H236900   0.217   2.070   0.917 -0.0751 -0.7452 -1.3193
 5089TIP3   OH236901   2.729   4.524   0.478 -0.4829 -0.1683  0.7326
 5089TIP3    H136902   2.729   4.449   0.537  1.3467 -0.0349  0.9706
 5089TIP3    H236903   2.711   4.487   0.392 -0.6634 -0.7204  1.0021
 5090TIP3   OH236904   6.379   6.377   0.768 -0.1873  0.0577 -0.0099
 5090TIP3    H136905   6.470   6.397   0.744  0.6833 -1.0138  2.1450
 5090TIP3    H236906   6.350   6.318   0.698  1.0700 -0.2451 -0.3140
 5091TIP3   OH236907   1.047   5.303   7.738 -0.1506 -0.3862 -0.0695
 5091TIP3    H136908   1.088   5.264   7.815  1.6812 -0.6135 -1.1060
 5091TIP3    H236909   1.023   5.392   7.765  1.1686 -0.2063  0.5431
 5092TIP3   OH236910   5.582   3.441   7.191  0.2843 -0.0019 -0.0067
 5092TIP3    H136911   5.589   3.346   7.186 -0.5591 -0.0032 -2.3040
 5092TIP3    H236912   5.670   3.473   7.173  0.7383 -0.2964  1.4892
 5093TIP3   OH236913   0.097   2.331   6.849  0.0276  0.2719 -0.0174
 5093TIP3    H136914   0.170   2.270   6.833 -1.1797 -1.0490 -0.6382
 5093TIP3    H236915   0.128   2.414   6.814  0.8936 -0.4721 -1.0907
 5094TIP3   OH236916   6.517   6.491   6.568  0.0947 -0.2618  0.7837
 5094TIP3    H136917   6.480   6.429   6.504 -0.8769 -0.5997  1.6535
 5094TIP3    H236918   6.610   6.496   6.544 -0.4595  0.6551 -1.4984
 5095TIP3   OH236919   4.635   2.967   1.863 -0.9259  0.2547  0.6108
 5095TIP3    H136920   4.683   3.036   1.818  1.2923 -2.0280 -0.7950
 5095TIP3    H236921   4.700   2.927   1.921 -1.8726 -1.2025  0.7055
 5096TIP3   OH236922   3.619   6.317   1.753 -0.2226 -0.5351  0.1826
 5096TIP3    H136923   3.697   6.298   1.702  1.0944 -1.7598  2.4796
 5096TIP3    H236924   3.639   6.400   1.797  0.0793 -1.1842  1.2873
 5097TIP3   OH236925   5.875   0.932   0.725  0.1256 -0.9007  0.2293
 5097TIP3    H136926   5.884   0.962   0.634  1.5000  0.2299  0.6820
 5097TIP3    H236927   5.962   0.899   0.748  0.7790  1.6817  2.0232
 5098TIP3   OH236928   2.175   5.036   7.216 -0.2333  0.6571  0.3762
 5098TIP3    H136929   2.206   5.127   7.218 -0.9819  0.8997  1.3101
 5098TIP3    H236930   2.252   4.986   7.190  0.4615  1.4491  0.8592
 5099TIP3   OH236931   3.078   4.298   0.918 -0.1055  0.3930  0.2578
 5099TIP3    H136932   3.014   4.340   0.975 -0.1594  0.2880  0.2747
 5099TIP3    H236933   3.078   4.353   0.839 -0.0070  0.5555  0.3702
 5100TIP3   OH236934   5.651   0.059   6.570 -0.2524 -0.4117 -0.5614
 5100TIP3    H136935   5.729   0.010   6.543  1.1918  1.5976 -0.2569
 5100TIP3    H236936   5.587   0.042   6.500  1.2664 -0.2416 -2.0510
 5101TIP3   OH236937   0.073   5.058   6.570  0.0176 -0.6496  0.1474
 5101TIP3    H136938   0.024   5.128   6.526  0.8832  0.6232  1.1579
 5101TIP3    H236939   0.073   4.986   6.506 -0.4000  0.4574 -1.1513
 5102TIP3   OH236940   2.014   3.594   0.085 -0.0776  0.1950 -0.1581
 5102TIP3    H136941   2.055   3.643   0.014 -0.5405  0.1957 -0.4266
 5102TIP3    H236942   2.044   3.504   0.072 -1.0797 -0.0224 -1.0437
 5103TIP3   OH236943   1.898   1.324   1.918  0.2240 -0.6466 -0.1333
 5103TIP3    H136944   1.921   1.335   2.011  2.5147  0.0068 -0.7097
 5103TIP3    H236945   1.931   1.237   1.895  0.5474 -0.4177 -0.5520
 5104TIP3   OH236946   3.368   4.936   8.505  0.3049  0.0088  0.3053
 5104TIP3    H136947   3.278   4.965   8.516 -0.8604 -1.6225 -3.2700
 5104TIP3    H236948   3.416   5.015   8.479 -1.0938  0.2335 -1.8343
 5105TIP3   OH236949   0.932   0.931   8.375 -0.5288 -0.1513 -0.1141
 5105TIP3    H136950   0.887   0.898   8.297 -0.6233  0.7872 -0.4748
 5105TIP3    H236951   1.008   0.874   8.385 -0.4957 -0.2670 -0.9282
 5106TIP3   OH236952   1.570   0.917   1.092 -0.8356  0.1012  0.6104
 5106TIP3    H136953   1.518   0.946   1.167 -1.0736  0.1731  0.4155
 5106TIP3    H236954   1.533   0.832   1.068 -2.6553  1.3398 -1.2372
 5107TIP3   OH236955   1.474   6.903   0.009 -0.3934 -0.0173  0.2433
 5107TIP3    H136956   1.489   6.850  -0.069 -1.6597  0.7302 -0.5353
 5107TIP3    H236957   1.499   6.846   0.082  0.6691 -0.7713 -0.6872
 5108TIP3   OH236958   4.448   1.515   2.235 -0.0948  0.3655  0.4799
 5108TIP3    H136959   4.394   1.437   2.237 -1.5275  1.2760 -0.5886
 5108TIP3    H236960   4.505   1.508   2.312  0.6932 -2.2999 -0.2496
 5109TIP3   OH236961   5.323   4.385   0.784  0.1356  0.0773  0.0931
 5109TIP3    H136962   5.269   4.306   0.783 -0.5581  0.5478  0.0579
 5109TIP3    H236963   5.263   4.456   0.763  0.9163  0.5178 -0.7476
 5110TIP3   OH236964   0.267   4.998   0.190  0.1384  0.0119  0.0167
 5110TIP3    H136965   0.316   5.058   0.133 -1.5474  1.1078 -0.3317
 5110TIP3    H236966   0.235   4.930   0.131  1.5743 -0.9907  0.3244
 5111TIP3   OH236967   6.475   4.912   7.005  0.3985  0.1267 -0.3580
 5111TIP3    H136968   6.568   4.908   7.025  0.1682  0.4239  0.8620
 5111TIP3    H236969   6.460   5.001   6.974  0.3863  0.3283  0.2136
 5112TIP3   OH236970   5.188   5.285   0.920 -0.3479 -0.1781  0.3159
 5112TIP3    H136971   5.093   5.297   0.924 -0.3997  0.3018 -1.4174
 5112TIP3    H236972   5.221   5.369   0.887  0.3990 -1.1220 -1.4891
 5113TIP3   OH236973   0.559   4.696   6.851 -0.3037  0.5307  0.3235
 5113TIP3    H136974   0.575   4.753   6.776 -0.9925 -0.5168 -0.6580
 5113TIP3    H236975   0.573   4.752   6.927  2.3292  1.1593 -0.5031
 5114TIP3   OH236976   6.215   5.406   7.931  0.4832  0.3320 -0.0912
 5114TIP3    H136977   6.122   5.391   7.948  0.0536  0.7158 -1.9794
 5114TIP3    H236978   6.259   5.370   8.008 -1.0611 -2.2060 -0.2944
 5115TIP3   OH236979   3.677   1.960   7.946  0.4552  0.4618  0.1409
 5115TIP3    H136980   3.732   2.039   7.950 -0.1576  0.8823  0.4803
 5115TIP3    H236981   3.655   1.951   7.854  2.4080 -0.6526 -0.2702
 5116TIP3   OH236982   6.491   4.409   6.835 -0.6015 -0.7242  0.3001
 5116TIP3    H136983   6.435   4.370   6.902 -0.6139 -0.4914  0.4265
 5116TIP3    H236984   6.472   4.503   6.840 -0.1305 -0.6309  0.4095
 5117TIP3   OH236985   0.584   3.115   8.383 -0.3454 -0.7292 -0.6021
 5117TIP3    H136986   0.492   3.116   8.359 -0.1056 -0.2708 -1.5429
 5117TIP3    H236987   0.621   3.193   8.342  0.3899 -0.7122  0.0662
 5118TIP3   OH236988   6.526   2.920   0.489  0.0961  0.1070  0.2402
 5118TIP3    H136989   6.533   2.976   0.566 -3.2605  2.6980 -1.0867
 5118TIP3    H236990   6.451   2.864   0.507  0.4383 -0.5799 -0.4200
 5119TIP3   OH236991   6.614   3.540   8.166  0.2542  0.1938 -0.0736
 5119TIP3    H136992   6.524   3.537   8.133  0.0872 -0.3828  0.4232
 5119TIP3    H236993   6.607   3.514   8.258  1.2337 -2.6260 -0.6875
 5120TIP3   OH236994   1.648   4.787   7.627 -0.7234  0.0432  0.2535
 5120TIP3    H136995   1.652   4.704   7.676 -1.2616  1.4798  2.9156
 5120TIP3    H236996   1.555   4.808   7.623 -0.5844  0.5575 -0.3478
 5121TIP3   OH236997   4.899   4.448   7.332  0.8757 -0.0766  0.2269
 5121TIP3    H136998   4.986   4.449   7.293  0.7679 -0.7585 -0.0470
 5121TIP3    H236999   4.848   4.390   7.275  0.8185 -1.4045  1.5499
 5122TIP3   OH237000   1.976   0.271   1.039  0.0491 -0.5057 -0.2718
 5122TIP3    H137001   1.886   0.286   1.012  0.3652  2.5556  0.0661
 5122TIP3    H237002   1.977   0.288   1.133  1.0116 -0.3849 -0.2932
 5123TIP3   OH237003   1.204   2.743   0.883 -0.2084 -0.1525 -0.6039
 5123TIP3    H137004   1.142   2.692   0.936 -0.5457  1.4703  0.6505
 5123TIP3    H237005   1.254   2.794   0.948  1.5191 -0.4045 -1.6793
 5124TIP3   OH237006   6.076   4.121   7.301 -0.1725 -0.3410 -0.2656
 5124TIP3    H137007   6.156   4.137   7.350  1.4282  0.1388 -2.8903
 5124TIP3    H237008   6.043   4.208   7.280 -1.7049 -0.5219  1.1617
 5125TIP3   OH237009   1.599   3.893   8.158  0.0039 -0.0827 -0.1618
 5125TIP3    H137010   1.575   3.889   8.251 -0.3314  1.1455 -0.1745
 5125TIP3    H237011   1.565   3.812   8.121 -3.4414  1.0924  0.0251
 5126TIP3   OH237012   6.056   5.116   7.602  0.1327 -0.0212  0.6995
 5126TIP3    H137013   6.050   5.204   7.565 -0.7580 -0.7729 -1.0293
 5126TIP3    H237014   5.966   5.090   7.618  0.3873 -0.6687  1.1162
 5127TIP3   OH237015   3.974   6.758   7.392  0.2195  0.0622  0.0139
 5127TIP3    H137016   3.941   6.711   7.315 -1.5015  0.1345  0.6612
 5127TIP3    H237017   4.020   6.692   7.443  0.5722 -0.1900 -0.6134
 5128TIP3   OH237018   6.633   1.605   6.986  0.0099  0.0847 -0.4750
 5128TIP3    H137019   6.610   1.534   7.047 -1.0257 -0.0833 -1.0291
 5128TIP3    H237020   6.660   1.560   6.906  1.9262  0.2956  0.0132
 5129TIP3   OH237021   4.249   3.860   0.852  0.0345 -0.1248 -0.4049
 5129TIP3    H137022   4.281   3.846   0.941  0.2674 -1.6458 -0.6871
 5129TIP3    H237023   4.156   3.877   0.862 -0.1965 -1.5053  0.0886
 5130TIP3   OH237024   4.342   2.374   8.169  0.3721 -0.2659  0.0192
 5130TIP3    H137025   4.343   2.365   8.073  0.2019  0.3152 -0.0411
 5130TIP3    H237026   4.269   2.433   8.186  0.4917 -0.2566  0.5001
 5131TIP3   OH237027   4.744   1.903   0.471 -0.0356  0.5330  0.4518
 5131TIP3    H137028   4.766   1.833   0.534  0.5932  0.8204  0.5658
 5131TIP3    H237029   4.775   1.983   0.514  1.6199  0.6011 -0.7647
 5132TIP3   OH237030   5.295   2.876   2.665  0.5526  0.1554  0.5733
 5132TIP3    H137031   5.318   2.843   2.751 -0.4867  0.4018  0.9535
 5132TIP3    H237032   5.202   2.899   2.671  0.5079  0.3497 -0.5520
 5133TIP3   OH237033   6.353   4.398   7.898 -0.2582  0.3954 -0.4674
 5133TIP3    H137034   6.441   4.432   7.884 -0.8251  1.4960 -1.5085
 5133TIP3    H237035   6.304   4.424   7.820 -1.7081  0.5144  0.4378
 5134TIP3   OH237036   4.356   2.412   7.885  0.6637  0.1938  0.0307
 5134TIP3    H137037   4.423   2.478   7.867 -0.2599  1.0275 -0.4549
 5134TIP3    H237038   4.301   2.412   7.807  0.1742 -0.5813  0.3658
 5135TIP3   OH237039   1.860   6.251   8.085 -0.1685  0.0674 -0.1668
 5135TIP3    H137040   1.921   6.179   8.074  1.0448  1.1508 -0.7509
 5135TIP3    H237041   1.904   6.312   8.144 -1.5862 -0.0854  1.1183
 5136TIP3   OH237042   1.763   3.302   1.154 -0.3026 -0.2543 -0.5250
 5136TIP3    H137043   1.812   3.308   1.071  1.4729  1.3854  0.5345
 5136TIP3    H237044   1.737   3.393   1.172 -0.6114 -0.5758  0.7352
 5137TIP3   OH237045   3.468   2.944   7.970 -0.1071 -0.0310  0.7659
 5137TIP3    H137046   3.406   3.015   7.987 -0.5604 -0.4771  1.0305
 5137TIP3    H237047   3.474   2.898   8.054 -0.1338 -0.5408  0.4958
 5138TIP3   OH237048   4.387   4.976   0.082 -0.0295 -0.2342  0.3903
 5138TIP3    H137049   4.414   4.892   0.119 -1.5591 -0.5730  0.8383
 5138TIP3    H237050   4.330   4.953   0.009  1.2850  0.4383 -0.8744
 5139TIP3   OH237051   3.836   4.308   2.028  0.6266 -0.0894  1.0053
 5139TIP3    H137052   3.801   4.385   1.983 -1.3148 -0.6499  1.4468
 5139TIP3    H237053   3.875   4.255   1.958  1.1541  0.8474  0.5711
 5140TIP3   OH237054   6.086   5.800   1.822  0.2705  0.6024 -0.0121
 5140TIP3    H137055   6.014   5.738   1.812  1.3732 -0.7380  0.1426
 5140TIP3    H237056   6.165   5.748   1.810  1.2386  2.0063  0.0123
 5141TIP3   OH237057   0.230   5.183   7.027  0.0001 -0.3796 -0.1558
 5141TIP3    H137058   0.266   5.097   7.048  0.1325 -0.9587 -2.4852
 5141TIP3    H237059   0.162   5.165   6.962 -1.0877  1.1516  0.5049
 5142TIP3   OH237060   2.153   5.571   0.823 -0.3332  0.1216  0.6822
 5142TIP3    H137061   2.102   5.645   0.790  0.5090  0.9700  1.2553
 5142TIP3    H237062   2.128   5.563   0.915 -0.3261 -0.2243  0.6548
 5143TIP3   OH237063   1.433   5.182   8.290  0.3241 -0.4955 -0.3066
 5143TIP3    H137064   1.377   5.250   8.253 -0.5485 -0.6431  0.6973
 5143TIP3    H237065   1.454   5.125   8.216  0.6230  0.5456 -1.0529
 5144TIP3   OH237066   0.383   6.041   8.443  0.0229  0.3440 -0.4964
 5144TIP3    H137067   0.333   5.961   8.423 -0.3577  0.6895 -0.9400
 5144TIP3    H237068   0.422   6.066   8.360 -0.3711  0.9673 -0.4966
 5145TIP3   OH237069   1.694   5.143   7.474  0.2176 -0.8061 -0.0301
 5145TIP3    H137070   1.725   5.078   7.537 -0.3379 -2.4468 -1.3732
 5145TIP3    H237071   1.740   5.120   7.393 -2.1923 -1.4505 -1.2968
 5146TIP3   OH237072   5.176   5.514   7.432 -0.5053 -0.0788  0.1632
 5146TIP3    H137073   5.172   5.608   7.450 -0.1587  0.1336 -0.7926
 5146TIP3    H237074   5.126   5.473   7.503 -0.1371  0.7747  0.9362
 5147TIP3   OH237075   4.268   4.953   0.928 -0.4187 -0.4765 -0.0578
 5147TIP3    H137076   4.294   4.998   1.009  1.3121 -0.7869 -0.3993
 5147TIP3    H237077   4.225   5.020   0.876 -2.3295 -0.4584  1.4082
 5148TIP3   OH237078   5.123   3.233   7.124  0.5176 -0.0798 -0.1103
 5148TIP3    H137079   5.163   3.314   7.093 -1.2229  0.2059 -1.7482
 5148TIP3    H237080   5.168   3.215   7.207  0.6699  2.7520  0.5275
 5149TIP3   OH237081   5.206   3.166   0.624 -0.4652  0.8046  0.2252
 5149TIP3    H137082   5.246   3.122   0.699  0.2317 -0.2459 -0.7395
 5149TIP3    H237083   5.257   3.246   0.613  0.2046  0.3689  0.1259
 5150TIP3   OH237084   5.419   3.349   6.236  0.2408 -0.4058  0.2122
 5150TIP3    H137085   5.327   3.364   6.261 -0.4688 -0.9775 -1.8459
 5150TIP3    H237086   5.434   3.410   6.163  1.2466 -0.8591  0.0323
 5151TIP3   OH237087   3.179   5.138   6.773 -0.3786  0.2596 -0.0713
 5151TIP3    H137088   3.139   5.084   6.705 -0.0110 -0.1982  0.0673
 5151TIP3    H237089   3.135   5.113   6.854  0.6584 -0.7748  0.2003
 5152TIP3   OH237090   5.342   4.716   1.550 -0.4023  0.3645 -0.0720
 5152TIP3    H137091   5.333   4.633   1.504  0.6400  0.2262 -0.0513
 5152TIP3    H237092   5.264   4.766   1.526 -1.1202 -0.6814  0.0587
 5153TIP3   OH237093   1.885   1.777   1.205 -0.1786  0.1575 -0.0564
 5153TIP3    H137094   1.840   1.773   1.121 -1.6434  0.9239  0.6654
 5153TIP3    H237095   1.816   1.790   1.270  0.7107 -2.0999  1.4941
 5154TIP3   OH237096   4.978   3.330   0.102 -0.4448 -0.5211 -0.3461
 5154TIP3    H137097   4.946   3.390   0.035  0.5570  1.2937  0.7166
 5154TIP3    H237098   5.072   3.324   0.087 -0.1594  0.1140  0.9789
 5155TIP3   OH237099   5.710   6.043   6.590 -0.0601 -0.3335 -0.1589
 5155TIP3    H137100   5.673   5.958   6.614 -2.7987  0.6921 -0.3462
 5155TIP3    H237101   5.730   6.035   6.497  0.5331 -1.0454  0.0271
 5156TIP3   OH237102   2.095   5.348   0.132  0.1618  0.7191 -0.4901
 5156TIP3    H137103   2.009   5.308   0.144  0.2628  0.9142  1.1135
 5156TIP3    H237104   2.131   5.306   0.053 -0.6501 -0.6774 -0.1458
 5157TIP3   OH237105   5.760   2.712   1.434  0.4179  0.4855 -0.0172
 5157TIP3    H137106   5.810   2.635   1.462  0.0183 -0.5782 -2.0679
 5157TIP3    H237107   5.811   2.786   1.468  2.0540 -0.6245  0.0988
 5158TIP3   OH237108   0.776   4.645   7.921 -0.8353  0.5326  0.8396
 5158TIP3    H137109   0.834   4.642   7.997  1.8539 -0.7956 -1.0798
 5158TIP3    H237110   0.790   4.561   7.877 -3.0750  0.8169 -0.6019
 5159TIP3   OH237111   1.772   6.625   2.196 -0.1628  0.1928 -0.3377
 5159TIP3    H137112   1.719   6.705   2.194  0.1151  0.4022  0.5595
 5159TIP3    H237113   1.708   6.555   2.206 -0.2569  0.4902  1.3991
 5160TIP3   OH237114   1.272   5.379   8.166  0.7331 -0.0282 -0.7452
 5160TIP3    H137115   1.248   5.422   8.084  0.6866  0.2430 -0.5918
 5160TIP3    H237116   1.225   5.429   8.233  3.0511  1.6580 -0.2546
 5161TIP3   OH237117   5.571   3.722   8.041  0.7757 -0.2155 -0.2190
 5161TIP3    H137118   5.663   3.746   8.036  1.1521 -1.3832  0.6601
 5161TIP3    H237119   5.560   3.687   8.129 -0.8402  1.1604  0.1788
 5162TIP3   OH237120   4.917   3.000   2.297  0.5597 -0.1728 -0.0615
 5162TIP3    H137121   4.902   2.907   2.279  2.0809 -0.6779  1.1611
 5162TIP3    H237122   4.864   3.019   2.374  1.7904 -0.5518  0.8972
 5163TIP3   OH237123   4.531   0.863   1.773  0.2479 -0.1198 -0.1269
 5163TIP3    H137124   4.544   0.813   1.854 -0.4246  0.2233  0.2089
 5163TIP3    H237125   4.450   0.829   1.736  0.0507  0.3660 -0.1548
 5164TIP3   OH237126   4.671   6.576   8.517  0.4690  0.0102  0.0740
 5164TIP3    H137127   4.724   6.542   8.445 -0.5652 -0.4494 -0.4971
 5164TIP3    H237128   4.729   6.571   8.594  0.8766 -1.6229 -0.2867
 5165TIP3   OH237129   0.767   5.369   7.629 -0.2847 -0.0920  0.3058
 5165TIP3    H137130   0.702   5.399   7.693  0.6942  1.0112  0.8110
 5165TIP3    H237131   0.839   5.334   7.683  0.3722  0.4749 -0.1951
 5166TIP3   OH237132   4.614   5.717   6.237 -0.0583  0.3351  0.3631
 5166TIP3    H137133   4.650   5.740   6.322 -0.0619 -2.0324  1.0789
 5166TIP3    H237134   4.687   5.677   6.189 -0.6973 -0.8413  0.3196
 5167TIP3   OH237135   5.648   1.633   7.317 -0.8949 -0.4220 -0.1893
 5167TIP3    H137136   5.668   1.571   7.387  1.2836 -2.3159 -2.3167
 5167TIP3    H237137   5.715   1.701   7.325 -0.2356 -0.9897 -0.7985
 5168TIP3   OH237138   0.666   4.891   1.486  0.7918 -0.0383 -0.2683
 5168TIP3    H137139   0.755   4.916   1.511  0.1808  1.3914  0.5929
 5168TIP3    H237140   0.635   4.964   1.433 -0.2924  0.0651  0.4749
 5169TIP3   OH237141   5.297   3.798   1.759  0.0981  0.5089 -0.0348
 5169TIP3    H137142   5.357   3.723   1.763  0.9033  1.1402  0.1088
 5169TIP3    H237143   5.313   3.846   1.840  0.4110  1.4282 -0.6192
 5170TIP3   OH237144   0.832   4.954   8.453 -0.9801 -0.5388  0.4414
 5170TIP3    H137145   0.805   4.864   8.467 -0.4808 -0.6220  0.8868
 5170TIP3    H237146   0.750   5.004   8.450 -1.2369 -0.9564  0.5170
 5171TIP3   OH237147   0.794   5.880   8.125 -0.5880  0.2840 -0.1329
 5171TIP3    H137148   0.726   5.863   8.060 -1.2226 -0.0042  0.5904
 5171TIP3    H237149   0.757   5.947   8.182 -0.0047  0.5925 -0.1112
 5172TIP3   OH237150   4.945   4.397   0.108  0.3062 -0.4005 -0.3903
 5172TIP3    H137151   5.030   4.408   0.066 -0.3257  0.7981 -1.4031
 5172TIP3    H237152   4.960   4.329   0.174  2.4209  0.8070  0.4857
 5173TIP3   OH237153   1.934   4.770   0.546 -0.4329  0.1825  0.2509
 5173TIP3    H137154   1.932   4.866   0.550 -0.9970  0.1635  0.3864
 5173TIP3    H237155   1.940   4.742   0.637 -0.1689  0.0841  0.2066
 5174TIP3   OH237156   2.399   0.898   1.780 -0.2262 -0.3657  0.1648
 5174TIP3    H137157   2.381   0.831   1.714  1.0227  0.7275 -1.3551
 5174TIP3    H237158   2.369   0.980   1.740  1.8917  0.5387  0.2874
 5175TIP3   OH237159   5.641   5.824   8.560  0.5559  1.2390 -0.6155
 5175TIP3    H137160   5.615   5.875   8.636  0.9268 -0.3101  0.6198
 5175TIP3    H237161   5.559   5.791   8.523  0.4585 -0.3145  0.8536
 5176TIP3   OH237162   3.309   1.893   7.090 -0.0726  0.0321  0.2415
 5176TIP3    H137163   3.313   1.815   7.035  1.8630  1.9562 -2.5915
 5176TIP3    H237164   3.238   1.945   7.054 -1.0209 -0.0985  1.7996
 5177TIP3   OH237165   4.851   4.479   8.290  0.2312 -0.4376  0.3709
 5177TIP3    H137166   4.907   4.402   8.282  2.4877  0.7661  2.8386
 5177TIP3    H237167   4.846   4.515   8.202  2.6884 -1.0940 -0.1045
 5178TIP3   OH237168   3.026   3.283   8.197  0.2701  0.6355  0.0730
 5178TIP3    H137169   2.970   3.358   8.177 -2.5322 -0.8635  1.6001
 5178TIP3    H237170   3.029   3.233   8.115  2.1056  2.2676 -0.9314
 5179TIP3   OH237171   1.922   6.688   7.223  0.6359  0.0512 -0.0586
 5179TIP3    H137172   1.914   6.627   7.149  0.3157  1.5890 -1.3537
 5179TIP3    H237173   1.832   6.714   7.242  0.9158  2.2934 -1.4745
 5180TIP3   OH237174   3.303   6.666   0.761 -0.3410  0.2039  0.1094
 5180TIP3    H137175   3.367   6.626   0.702  0.4131 -0.4773  1.3629
 5180TIP3    H237176   3.325   6.633   0.848 -0.0069  2.9002  1.1524
 5181TIP3   OH237177   0.266   1.892   7.750 -0.1110  0.4216  0.1905
 5181TIP3    H137178   0.263   1.802   7.783 -1.5991  0.6437  0.7044
 5181TIP3    H237179   0.204   1.894   7.678  2.0832  0.3197 -1.8059
 5182TIP3   OH237180   5.755   2.315   7.213 -0.0579 -0.6635 -0.1379
 5182TIP3    H137181   5.796   2.245   7.163 -1.4005 -0.6330 -1.3492
 5182TIP3    H237182   5.662   2.295   7.211 -0.3691  0.5968  0.3952
 5183TIP3   OH237183   6.017   5.039   6.282 -0.0594  0.2689 -0.3881
 5183TIP3    H137184   6.063   5.102   6.227  2.3890 -1.8123 -0.9753
 5183TIP3    H237185   6.087   4.993   6.329 -1.3962 -3.4329 -1.6464
 5184TIP3   OH237186   5.259   0.574   2.262 -0.7297  0.1221 -0.0394
 5184TIP3    H137187   5.178   0.527   2.278 -2.1914  1.2769 -3.1937
 5184TIP3    H237188   5.322   0.507   2.238 -1.0403 -0.6882  1.3330
 5185TIP3   OH237189   1.544   6.454   1.276  0.1552 -0.5341 -0.4676
 5185TIP3    H137190   1.516   6.462   1.185 -0.1560 -0.7680 -0.3921
 5185TIP3    H237191   1.511   6.533   1.319 -2.1763 -1.7308  0.0825
 5186TIP3   OH237192   4.688   2.080   0.101  0.2541 -0.9313 -0.9414
 5186TIP3    H137193   4.660   2.166   0.070  0.0819 -0.7044 -0.1672
 5186TIP3    H237194   4.606   2.036   0.126  0.3984 -1.0822 -0.7362
 5187TIP3   OH237195   3.942   6.107   0.934  0.0827  0.7409 -0.4153
 5187TIP3    H137196   3.858   6.138   0.900 -0.1708 -1.0748 -1.6085
 5187TIP3    H237197   3.926   6.015   0.956  1.5523  0.5908  0.1253
 5188TIP3   OH237198   2.390   4.668   0.857  0.9563  0.3896 -0.0163
 5188TIP3    H137199   2.451   4.676   0.784  0.9205 -1.8705 -0.3663
 5188TIP3    H237200   2.311   4.714   0.828  0.3590 -1.7762 -2.1485
 5189TIP3   OH237201   6.766   0.862   7.717 -0.0013 -0.0862 -0.0884
 5189TIP3    H137202   6.734   0.833   7.802 -1.3007  1.2850 -0.0636
 5189TIP3    H237203   6.696   0.917   7.683  0.8649  0.0925 -1.6745
 5190TIP3   OH237204   2.130   2.372   7.776 -0.3926  0.1591  0.2578
 5190TIP3    H137205   2.192   2.383   7.704  0.5752 -0.3706  0.9772
 5190TIP3    H237206   2.129   2.457   7.820 -0.6219  0.3389 -0.0865
 5191TIP3   OH237207   2.402   1.384   8.590 -0.4860  0.5226 -0.1960
 5191TIP3    H137208   2.461   1.457   8.567 -1.9313  1.5530 -0.8076
 5191TIP3    H237209   2.407   1.325   8.515  0.5423  0.0724  0.2117
 5192TIP3   OH237210   1.686   0.848   8.253  0.8936 -0.1170 -0.2502
 5192TIP3    H137211   1.689   0.763   8.298  0.8276  0.4736  0.9062
 5192TIP3    H237212   1.731   0.908   8.312 -1.0999  1.1452  0.0837
 5193TIP3   OH237213   4.146   2.061   8.057  0.1893 -0.1411 -0.1658
 5193TIP3    H137214   4.148   2.123   8.129  0.9723  2.2809 -2.1324
 5193TIP3    H237215   4.238   2.039   8.041 -0.0387 -1.4078  0.1195
 5194TIP3   OH237216   5.637   3.943   2.218  0.6865  0.6148 -0.4004
 5194TIP3    H137217   5.626   3.848   2.217 -0.5490  0.7460 -1.1545
 5194TIP3    H237218   5.552   3.977   2.244  1.2419  1.5177  0.3060
 5195TIP3   OH237219   4.435   1.731   7.195 -0.1722 -0.2759 -0.1085
 5195TIP3    H137220   4.510   1.712   7.138  0.0329  0.9152 -0.2661
 5195TIP3    H237221   4.467   1.715   7.283 -0.5044 -2.1856 -0.2896
 5196TIP3   OH237222   3.505   5.155   8.450  0.1102  0.4608 -0.0653
 5196TIP3    H137223   3.593   5.150   8.487 -0.1647 -0.3094  0.5066
 5196TIP3    H237224   3.502   5.240   8.405  1.4855  0.0454 -0.9896
 5197TIP3   OH237225   0.691   5.356   0.413  0.3904 -0.0610 -0.7359
 5197TIP3    H137226   0.681   5.405   0.495  1.3806  2.6233 -2.0634
 5197TIP3    H237227   0.619   5.294   0.412 -0.7155  1.0980  1.3225
 5198TIP3   OH237228   6.192   3.823   7.866  0.3553  0.4053  0.0719
 5198TIP3    H137229   6.189   3.918   7.859  0.1316  0.4728  0.9532
 5198TIP3    H237230   6.168   3.791   7.778 -0.8289  1.1565  0.1000
 5199TIP3   OH237231   5.162   5.558   0.839 -0.4481  0.3007 -0.4742
 5199TIP3    H137232   5.172   5.550   0.744 -1.9571  0.2836 -0.6497
 5199TIP3    H237233   5.226   5.625   0.864 -1.1836  1.5290 -1.7424
 5200TIP3   OH237234   5.030   0.974   2.074  0.5049 -1.4417 -0.0347
 5200TIP3    H137235   5.012   0.960   2.166  0.3074  0.5980  0.2953
 5200TIP3    H237236   5.028   0.887   2.035 -4.2739 -2.0926  0.9878
 5201TIP3   OH237237   6.110   4.210   8.200  0.8225 -0.0114 -0.1776
 5201TIP3    H137238   6.061   4.164   8.268 -1.4596  1.0937 -0.9557
 5201TIP3    H237239   6.106   4.302   8.224  1.6792  0.2073 -0.8018
 5202TIP3   OH237240   4.890   6.147   1.049 -0.1703  0.3488 -0.3482
 5202TIP3    H137241   4.895   6.058   1.014  1.3819  0.9444 -1.7700
 5202TIP3    H237242   4.857   6.136   1.138 -0.6964 -1.5699 -0.7373
 5203TIP3   OH237243   0.780   6.212   6.799 -0.1496  0.2442  0.4207
 5203TIP3    H137244   0.875   6.216   6.805 -0.0223 -2.0116  0.6249
 5203TIP3    H237245   0.761   6.224   6.706  0.2162  1.7065  0.5046
 5204TIP3   OH237246   3.837   0.695   2.011 -0.1919  0.3850 -0.2048
 5204TIP3    H137247   3.808   0.783   2.034  2.1784  0.9367  1.0288
 5204TIP3    H237248   3.879   0.705   1.926 -2.3563 -0.1792 -1.4158
 5205TIP3   OH237249   1.693   1.108   1.547 -0.3076 -0.0166  0.3647
 5205TIP3    H137250   1.609   1.106   1.593 -0.2065  0.4736  0.5748
 5205TIP3    H237251   1.728   1.196   1.563 -0.2004  0.1163 -0.5201
 5206TIP3   OH237252   0.258   5.649   0.310 -0.5118 -0.2852  0.2936
 5206TIP3    H137253   0.296   5.625   0.394  0.2872 -0.3057 -0.0639
 5206TIP3    H237254   0.164   5.633   0.321 -0.2004 -2.1083  0.5710
 5207TIP3   OH237255   5.335   6.665   1.300  0.1501  0.4762 -0.1959
 5207TIP3    H137256   5.258   6.696   1.252  0.8381  1.9803 -0.3831
 5207TIP3    H237257   5.348   6.731   1.368  0.2128 -0.7261  0.9954
 5208TIP3   OH237258   1.492   0.395   0.373 -0.0891  0.5455 -0.8110
 5208TIP3    H137259   1.454   0.307   0.376 -1.4364  1.1462  1.0419
 5208TIP3    H237260   1.431   0.446   0.320 -0.6608  0.9528  0.2221
 5209TIP3   OH237261   1.905   2.667   7.195  0.2393 -0.2377 -0.2861
 5209TIP3    H137262   1.914   2.576   7.223  2.2860 -0.2756 -0.9171
 5209TIP3    H237263   1.994   2.700   7.193 -0.5331  2.1836  1.1277
 5210TIP3   OH237264   6.856   5.303   6.559  0.0166 -0.1767  0.8515
 5210TIP3    H137265   6.791   5.263   6.617 -2.6727  0.4924 -1.4301
 5210TIP3    H237266   6.851   5.397   6.579  0.9226 -0.1962  1.2114
 5211TIP3   OH237267   1.010   0.237   0.534 -0.4152 -0.7776  0.0511
 5211TIP3    H137268   1.014   0.285   0.616 -0.2434  0.6804 -0.7797
 5211TIP3    H237269   1.039   0.149   0.556  0.6049 -0.1409  1.3515
 5212TIP3   OH237270   4.772   4.342   7.127 -0.1677  0.0422 -0.4757
 5212TIP3    H137271   4.819   4.294   7.059 -0.6315 -0.4155 -0.4853
 5212TIP3    H237272   4.750   4.426   7.087 -0.8000 -0.3822 -1.0442
 5213TIP3   OH237273   6.439   2.674   1.347 -0.2001  0.2380 -0.3845
 5213TIP3    H137274   6.494   2.647   1.273 -1.7061 -1.5112 -0.9153
 5213TIP3    H237275   6.413   2.592   1.389 -0.9151  1.1218  0.9570
 5214TIP3   OH237276   3.313   6.263   7.602  0.0617 -0.0382  0.1271
 5214TIP3    H137277   3.235   6.248   7.656  0.5196  1.0905  1.1479
 5214TIP3    H237278   3.385   6.265   7.665  0.6469  1.0421 -0.5529
 5215TIP3   OH237279   4.613   3.551   1.320 -0.1095 -0.6534  0.3001
 5215TIP3    H137280   4.630   3.470   1.272  0.9129 -1.3374  1.7316
 5215TIP3    H237281   4.581   3.612   1.254  1.5981 -1.4113 -1.3291
 5216TIP3   OH237282   2.960   5.456   8.579 -0.8604  0.0218 -0.0841
 5216TIP3    H137283   2.974   5.442   8.486  0.2942 -0.6197  0.1762
 5216TIP3    H237284   2.912   5.379   8.609  1.2702 -1.1716  0.3946
 5217TIP3   OH237285   0.934   1.597   8.507  0.5671  0.1226 -0.2281
 5217TIP3    H137286   0.987   1.659   8.557  0.2229  1.1136 -1.0588
 5217TIP3    H237287   0.850   1.642   8.494  0.8445  0.1640 -2.2006
 5218TIP3   OH237288   4.883   4.055   6.031 -0.0826 -0.0518  0.5356
 5218TIP3    H137289   4.904   4.133   5.981  0.4361 -0.0723  0.7065
 5218TIP3    H237290   4.950   4.053   6.101 -0.0420 -0.6815  0.4869
 5219TIP3   OH237291   4.801   4.415   0.969  0.6430 -0.6615  0.6192
 5219TIP3    H137292   4.713   4.416   1.007  0.7768 -0.7096  0.9297
 5219TIP3    H237293   4.832   4.505   0.979  0.2812 -0.4209 -0.3104
 5220TIP3   OH237294   1.616   4.608   0.453 -0.2676 -0.2520 -0.0160
 5220TIP3    H137295   1.521   4.603   0.451 -0.3533  0.3885  1.2567
 5220TIP3    H237296   1.636   4.698   0.424  0.0335 -0.7339 -1.3871
 5221TIP3   OH237297   4.808   5.485   2.348 -0.6052 -0.3798  0.4256
 5221TIP3    H137298   4.823   5.521   2.261 -1.2604  1.5409  1.0533
 5221TIP3    H237299   4.835   5.393   2.341 -0.5514 -0.2530 -1.7505
 5222TIP3   OH237300   4.712   6.721   7.886  0.1780  0.9709 -0.0262
 5222TIP3    H137301   4.786   6.776   7.912  0.0605  0.5669  1.2336
 5222TIP3    H237302   4.734   6.634   7.920 -1.0951  0.9512  0.8106
 5223TIP3   OH237303   2.986   1.421   1.541  0.1225  0.0506 -0.1053
 5223TIP3    H137304   2.989   1.478   1.617 -0.8678  0.0723 -0.0746
 5223TIP3    H237305   2.990   1.332   1.576 -0.1443  0.0636 -0.0469
 5224TIP3   OH237306   0.550   3.763   1.891  0.0090 -0.1808  0.0317
 5224TIP3    H137307   0.641   3.750   1.864 -0.4472  1.1218 -2.4405
 5224TIP3    H237308   0.547   3.854   1.922 -0.4352 -0.2813  0.2921
 5225TIP3   OH237309   1.754   6.125   2.254  0.4204 -0.4023  0.0577
 5225TIP3    H137310   1.807   6.187   2.304  1.6924 -0.1442 -1.5441
 5225TIP3    H237311   1.763   6.042   2.300  1.4256 -0.1305  0.3612
 5226TIP3   OH237312   4.605   3.970   8.320 -0.1099 -0.3712  0.3435
 5226TIP3    H137313   4.571   3.942   8.406  0.5000 -0.2421  0.6305
 5226TIP3    H237314   4.640   3.890   8.281  0.6848 -0.2219  0.7237
 5227TIP3   OH237315   1.288   3.235   8.149  0.3258  0.1714  0.6808
 5227TIP3    H137316   1.253   3.151   8.119 -0.5358 -0.0233  2.1429
 5227TIP3    H237317   1.223   3.299   8.120  0.3165  0.1761  0.7124
 5228TIP3   OH237318   4.471   6.554   1.572 -0.3449 -0.0293 -0.0326
 5228TIP3    H137319   4.409   6.488   1.540  0.1982 -0.3374 -0.4726
 5228TIP3    H237320   4.542   6.553   1.507 -0.1918  0.7760  0.1210
 5229TIP3   OH237321   2.264   3.207   8.363  0.4189 -0.0365 -0.3324
 5229TIP3    H137322   2.265   3.121   8.406  0.8384 -0.5107 -1.2563
 5229TIP3    H237323   2.357   3.232   8.358  0.2375  0.9657  0.8659
 5230TIP3   OH237324   1.129   4.965   1.971  0.2300 -0.4976 -0.1360
 5230TIP3    H137325   1.143   4.972   2.066  0.8949  0.7419 -0.2991
 5230TIP3    H237326   1.186   4.893   1.944 -0.9706 -1.7462  0.5819
 5231TIP3   OH237327   6.233   6.739   6.935  0.0544  0.1985 -0.1064
 5231TIP3    H137328   6.214   6.672   6.869 -0.7068 -1.5119  1.7480
 5231TIP3    H237329   6.157   6.797   6.933 -0.6858 -0.7300  0.2767
 5232TIP3   OH237330   6.534   4.111   8.545  0.1769  0.0248 -0.0757
 5232TIP3    H137331   6.556   4.023   8.576  2.5044  1.6182  3.5484
 5232TIP3    H237332   6.442   4.122   8.566  0.2535 -1.0457  0.9449
 5233TIP3   OH237333   2.789   4.697   7.777 -0.3522  0.2748 -0.1865
 5233TIP3    H137334   2.711   4.655   7.812 -0.9954  0.4946 -1.2900
 5233TIP3    H237335   2.770   4.791   7.782  0.7093  0.4489  1.4397
 5234TIP3   OH237336   4.913   5.301   8.477 -0.1498  0.3031 -0.1135
 5234TIP3    H137337   4.968   5.333   8.549 -0.6686 -0.3594  0.5996
 5234TIP3    H237338   4.826   5.293   8.515  0.0784 -2.7098  0.0659
 5235TIP3   OH237339   4.152   4.065   0.503  0.2478  0.7284  0.5255
 5235TIP3    H137340   4.085   3.999   0.483 -0.0774  1.2625 -0.2259
 5235TIP3    H237341   4.235   4.018   0.498  0.0867  0.5332 -0.8971
 5236TIP3   OH237342   4.383   5.026   8.115  0.6435 -0.4904  0.4069
 5236TIP3    H137343   4.396   4.947   8.062 -0.4363 -0.6323  0.3339
 5236TIP3    H237344   4.312   5.073   8.072  2.8985  1.8832 -1.0870
 5237TIP3   OH237345   3.458   3.882   0.430 -0.1168 -0.3639  0.3809
 5237TIP3    H137346   3.515   3.822   0.478 -0.0935  0.5029  1.5055
 5237TIP3    H237347   3.517   3.930   0.372  0.4558  0.8991  1.9158
 5238TIP3   OH237348   4.572   6.904   1.585  0.0530  0.0097  0.1796
 5238TIP3    H137349   4.613   6.985   1.556  2.2548 -1.5509 -1.3145
 5238TIP3    H237350   4.644   6.842   1.595 -1.7309 -2.4515 -1.0986
 5239TIP3   OH237351   5.948   2.326   8.375  0.2652  0.8535  0.6066
 5239TIP3    H137352   5.855   2.339   8.355  0.1026  1.3916  1.6156
 5239TIP3    H237353   5.992   2.399   8.331  0.2260  0.5399  0.0418
 5240TIP3   OH237354   5.538   2.498   0.235 -0.0934  0.2987  0.0177
 5240TIP3    H137355   5.547   2.446   0.315  1.8392  0.8710  0.2357
 5240TIP3    H237356   5.449   2.481   0.204 -0.2856 -1.2968  1.3378
 5241TIP3   OH237357   0.906   5.214   1.651  0.4993  0.0262 -0.2404
 5241TIP3    H137358   0.855   5.289   1.620  0.0914  0.2519  0.9122
 5241TIP3    H237359   0.856   5.181   1.727  2.4793  0.7881  1.4794
 5242TIP3   OH237360   6.540   6.837   6.262  0.1191 -0.0480 -0.2944
 5242TIP3    H137361   6.596   6.855   6.337 -1.2185 -1.0081  0.9969
 5242TIP3    H237362   6.584   6.765   6.216 -1.1955 -2.6134  2.1631
 5243TIP3   OH237363   2.707   0.841   0.502  0.3719  0.5625  0.1538
 5243TIP3    H137364   2.620   0.801   0.505 -0.0938  1.5567  3.6752
 5243TIP3    H237365   2.766   0.770   0.478 -1.1843 -0.5132 -0.6643
 5244TIP3   OH237366   0.325   5.110   8.341 -0.5845  0.1828 -0.1902
 5244TIP3    H137367   0.251   5.061   8.307 -2.5546  3.4096 -1.0015
 5244TIP3    H237368   0.299   5.202   8.334  4.0189  1.6732 -1.8769
 5245TIP3   OH237369   0.251   0.061   2.001  0.2017  0.7821  0.4926
 5245TIP3    H137370   0.322   0.032   2.059  0.0011  0.3116  0.5107
 5245TIP3    H237371   0.209  -0.021   1.973  0.6161  0.9517 -0.7244
 5246TIP3   OH237372   4.025   3.576   2.459 -0.2759  0.0073 -0.1800
 5246TIP3    H137373   4.067   3.492   2.442  1.2486  0.4194  1.2414
 5246TIP3    H237374   4.098   3.639   2.458 -0.9720  0.8957  1.4545
 5247TIP3   OH237375   3.329   4.681   0.550 -0.3827  0.1106 -0.6168
 5247TIP3    H137376   3.368   4.765   0.573  0.7370 -0.6975  0.5886
 5247TIP3    H237377   3.241   4.703   0.519 -0.4933  1.6367  0.6263
 5248TIP3   OH237378   4.731   5.858   0.649 -0.1230  0.3233  0.2749
 5248TIP3    H137379   4.724   5.773   0.693  1.6253  0.1730  0.3244
 5248TIP3    H237380   4.807   5.900   0.690  0.5312  0.8781 -1.4410
 5249TIP3   OH237381   0.495   6.201   0.225 -0.6189 -0.3857  0.7435
 5249TIP3    H137382   0.471   6.112   0.201  0.5716 -0.7105  0.7284
 5249TIP3    H237383   0.433   6.224   0.295 -1.3584 -0.9690  0.2938
 5250TIP3   OH237384   4.124   5.117   8.013  0.5822 -0.3305 -0.4297
 5250TIP3    H137385   4.031   5.135   7.995  0.5374  0.8053  0.8496
 5250TIP3    H237386   4.172   5.181   7.961  0.5155  1.4118  1.5471
 5251TIP3   OH237387   2.407   1.931   0.439 -0.1027 -0.2627  0.3411
 5251TIP3    H137388   2.363   1.933   0.524  0.0306 -1.6331  0.4728
 5251TIP3    H237389   2.374   1.851   0.398  0.6524 -0.1776 -0.4504
 5252TIP3   OH237390   6.048   4.789   0.570 -0.1370 -0.1937  0.3833
 5252TIP3    H137391   6.044   4.878   0.536  1.8485  0.3028  1.2841
 5252TIP3    H237392   6.076   4.735   0.496 -1.0708 -0.0553 -0.0883
 5253TIP3   OH237393   5.409   1.416   7.244 -0.6940  0.1970  0.0724
 5253TIP3    H137394   5.499   1.444   7.258 -0.7543 -0.3419  1.7014
 5253TIP3    H237395   5.416   1.324   7.219 -0.7760  0.3134 -0.3968
 5254TIP3   OH237396   5.619   3.280   7.894  0.0345 -0.3029  0.0035
 5254TIP3    H137397   5.583   3.365   7.868  0.8755 -0.0305 -0.3177
 5254TIP3    H237398   5.674   3.301   7.971  0.2254 -0.5552 -0.0640
 5255TIP3   OH237399   5.836   6.840   7.324 -0.3449  0.2982  0.2695
 5255TIP3    H137400   5.776   6.912   7.343  0.7261  1.0600  0.9053
 5255TIP3    H237401   5.816   6.773   7.389 -0.7199  0.4136  0.2719
 5256TIP3   OH237402   5.792   5.230   8.515  0.1769 -0.4626 -0.2176
 5256TIP3    H137403   5.837   5.249   8.433 -1.0941 -0.6428 -0.9931
 5256TIP3    H237404   5.846   5.164   8.558 -0.4028 -2.2698 -2.1231
 5257TIP3   OH237405   5.215   0.176   2.316 -0.3205 -0.1345  0.2737
 5257TIP3    H137406   5.253   0.115   2.379 -0.9530  0.6094  1.4120
 5257TIP3    H237407   5.278   0.248   2.311  0.2323 -0.6693 -0.7621
 5258TIP3   OH237408   5.394   5.791   2.025  0.0919 -0.4777  0.2503
 5258TIP3    H137409   5.435   5.706   2.042  1.7821  0.2504  0.0419
 5258TIP3    H237410   5.417   5.812   1.935  0.2291  0.4694  0.4910
 5259TIP3   OH237411   3.367   0.974   7.358  0.0131  0.5105 -0.0124
 5259TIP3    H137412   3.313   0.969   7.280  0.7900 -0.4239 -0.5069
 5259TIP3    H237413   3.380   1.068   7.372  0.4656  0.6831 -1.4338
 5260TIP3   OH237414   2.576   1.514   7.218 -0.1266  0.0231  0.7041
 5260TIP3    H137415   2.554   1.425   7.189  1.1443 -0.5811  1.5131
 5260TIP3    H237416   2.665   1.528   7.188 -0.2000  0.8958  0.8789
 5261TIP3   OH237417   0.117   0.429   1.913 -0.5402  0.1211  0.0412
 5261TIP3    H137418   0.118   0.397   2.004  1.4175 -0.7759 -0.2511
 5261TIP3    H237419   0.087   0.354   1.862  2.4669 -0.8836 -0.4604
 5262TIP3   OH237420   1.485   4.620   8.289  0.7248  0.1242 -0.5641
 5262TIP3    H137421   1.475   4.605   8.195 -0.6560 -0.4725 -0.3477
 5262TIP3    H237422   1.519   4.537   8.323  2.5543  0.7775 -0.6955
 5263TIP3   OH237423   6.345   3.404   1.939  0.2438 -0.4125  0.5885
 5263TIP3    H137424   6.361   3.475   1.876  0.3261 -0.8844  0.0667
 5263TIP3    H237425   6.398   3.332   1.906 -1.0233 -1.2114  0.2293
 5264TIP3   OH237426   2.702   0.308   0.751 -0.1088 -0.0319 -0.1484
 5264TIP3    H137427   2.783   0.349   0.783 -0.2237 -0.9633  1.4668
 5264TIP3    H237428   2.663   0.374   0.694  2.0310  0.2488 -1.4263
 5265TIP3   OH237429   3.280   2.113   0.608 -0.1367  0.3099 -0.3989
 5265TIP3    H137430   3.297   2.191   0.661 -0.4270  0.8939 -1.1466
 5265TIP3    H237431   3.326   2.043   0.654 -0.0913  0.8628  0.4361
 5266TIP3   OH237432   2.862   2.085   6.667  0.4055  0.2721 -0.7044
 5266TIP3    H137433   2.854   1.990   6.669  0.2715  0.2932  0.8591
 5266TIP3    H237434   2.956   2.101   6.672  0.4301  0.2375 -0.9974
 5267TIP3   OH237435   1.784   2.799   6.989 -0.0765  0.8410 -0.0173
 5267TIP3    H137436   1.845   2.799   6.915 -0.0720  0.1001 -0.0140
 5267TIP3    H237437   1.829   2.748   7.057  0.1077  1.8728  0.6601
 5268TIP3   OH237438   5.113   0.769   0.179  0.4298  0.2861  0.1120
 5268TIP3    H137439   5.068   0.685   0.190  1.5607 -0.3400  0.1144
 5268TIP3    H237440   5.072   0.809   0.102 -0.8563  0.2371  0.7610
 5269TIP3   OH237441   2.508   2.771   2.448  0.5558  0.8823  0.0250
 5269TIP3    H137442   2.584   2.713   2.437  1.6919  2.0761  1.2249
 5269TIP3    H237443   2.518   2.807   2.536 -1.5128  0.9728  0.2673
 5270TIP3   OH237444   1.406   5.985   8.372  0.0669  0.2029  0.0697
 5270TIP3    H137445   1.363   6.060   8.413  0.6572  0.7991 -0.3865
 5270TIP3    H237446   1.478   5.963   8.432 -1.3280 -1.3349  1.2762
 5271TIP3   OH237447   3.177   1.800   0.933  0.1626  0.3828  0.0941
 5271TIP3    H137448   3.091   1.763   0.910 -1.1818  2.3422  1.6398
 5271TIP3    H237449   3.210   1.741   1.000 -0.7140  0.4608  0.6138
 5272TIP3   OH237450   1.562   4.252   0.539  0.0868  0.5154  0.2088
 5272TIP3    H137451   1.608   4.215   0.615 -1.7893 -0.1202  1.0975
 5272TIP3    H237452   1.544   4.176   0.484  1.4106  0.9721 -0.8850
 5273TIP3   OH237453   6.118   3.467   0.552  0.1089  0.5421 -0.4557
 5273TIP3    H137454   6.078   3.392   0.507 -0.5978  0.4714  0.2694
 5273TIP3    H237455   6.140   3.434   0.639  0.7840  0.8850 -0.4860
 5274TIP3   OH237456   1.049   1.492   7.222 -0.0053  0.4235  0.3309
 5274TIP3    H137457   1.015   1.476   7.134 -0.0819  3.0055 -0.1673
 5274TIP3    H237458   0.989   1.445   7.280 -1.2552  0.5213 -0.8446
 5275TIP3   OH237459   4.019   2.779   6.944  0.0679  0.0930  0.0799
 5275TIP3    H137460   4.079   2.707   6.961  1.9147  1.7494  0.9369
 5275TIP3    H237461   4.057   2.826   6.869  0.6536  1.9112  1.4391
 5276TIP3   OH237462   2.987   5.571   1.824 -0.5208  0.5221  0.2547
 5276TIP3    H137463   2.958   5.513   1.895 -2.0548 -0.5053 -1.1440
 5276TIP3    H237464   2.947   5.655   1.844 -3.2074 -0.4456 -0.7435
 5277TIP3   OH237465   1.807   5.667   8.154  0.0934  0.1909  0.1512
 5277TIP3    H137466   1.902   5.661   8.143  0.1558  1.6309 -0.3120
 5277TIP3    H237467   1.771   5.620   8.079  0.4380 -0.0840  0.1562
 5278TIP3   OH237468   1.634   1.761   0.512  0.8525  0.5414 -0.0814
 5278TIP3    H137469   1.673   1.821   0.448  0.8104  1.7662  0.9897
 5278TIP3    H237470   1.706   1.739   0.571  0.3567  1.4362  0.8975
 5279TIP3   OH237471   2.090   1.685   0.187 -0.5062 -0.3023  0.5405
 5279TIP3    H137472   2.050   1.605   0.223 -0.4455 -0.8360 -0.5305
 5279TIP3    H237473   2.020   1.750   0.189 -0.4293 -0.2491  1.8331
 5280TIP3   OH237474   0.740   6.103   8.279  0.2446 -0.4951  0.4302
 5280TIP3    H137475   0.802   6.151   8.334  0.8877  0.9234 -1.4038
 5280TIP3    H237476   0.659   6.153   8.283  0.4815 -0.0240 -0.3553
 5281TIP3   OH237477   2.022   5.015   8.348  0.3748  0.0761  0.5149
 5281TIP3    H137478   2.060   5.049   8.266 -0.6594  1.8485  0.7239
 5281TIP3    H237479   2.010   5.092   8.403  1.5400 -1.1348  2.6135
 5282TIP3   OH237480   5.864   6.918   1.322  0.0155 -0.4061  0.3208
 5282TIP3    H137481   5.826   6.958   1.401  0.8628  1.6067 -0.2347
 5282TIP3    H237482   5.950   6.887   1.350  0.7990  1.3331 -0.0069
 5283TIP3   OH237483   3.687   0.873   7.674  0.3306 -0.3429  0.0314
 5283TIP3    H137484   3.627   0.806   7.705 -1.7023 -0.2630 -3.3006
 5283TIP3    H237485   3.671   0.878   7.580  2.2635  3.0162 -0.2693
 5284TIP3   OH237486   5.346   3.690   7.892 -0.0580  0.0790  0.3609
 5284TIP3    H137487   5.405   3.677   7.966 -1.9097  0.3872  1.9696
 5284TIP3    H237488   5.400   3.732   7.825  2.2301 -2.1612  0.6672
 5285TIP3   OH237489   5.157   5.878   1.381  0.0500 -0.1494  0.0002
 5285TIP3    H137490   5.133   5.785   1.379  1.6964 -0.6118 -0.3990
 5285TIP3    H237491   5.200   5.893   1.297  0.2436  0.8464  0.2671
 5286TIP3   OH237492   2.379   5.425   1.654 -0.5883 -0.1336 -0.2458
 5286TIP3    H137493   2.465   5.425   1.696 -0.8405  0.2902  0.2920
 5286TIP3    H237494   2.393   5.472   1.571 -0.1382 -0.7620 -0.5288
 5287TIP3   OH237495   6.566   3.426   7.755  0.1663 -0.1288 -0.0043
 5287TIP3    H137496   6.542   3.518   7.748  3.1827  0.7080 -0.8434
 5287TIP3    H237497   6.610   3.406   7.672 -0.3997 -2.3514  0.1608
 5288TIP3   OH237498   5.389   0.325   6.351  0.2598 -0.0161 -0.1543
 5288TIP3    H137499   5.300   0.291   6.362  0.0676  0.1463 -1.0875
 5288TIP3    H237500   5.439   0.250   6.317  0.2782  0.1203 -0.4294
 5289TIP3   OH237501   4.805   5.017   1.878  0.1391  0.0879 -0.0717
 5289TIP3    H137502   4.779   5.082   1.812  1.1903  0.6365  0.0297
 5289TIP3    H237503   4.770   5.052   1.960 -0.7370 -0.3379 -0.2571
 5290TIP3   OH237504   0.109   4.189   0.598  0.1747 -0.0932  0.3664
 5290TIP3    H137505   0.121   4.278   0.630  0.4072  0.4572 -1.1549
 5290TIP3    H237506   0.025   4.161   0.635 -0.6156  1.3094 -0.2714
 5291TIP3   OH237507   0.291   1.440   8.422  0.1572  0.2948  0.0640
 5291TIP3    H137508   0.298   1.475   8.334 -0.8271 -0.7101 -0.4462
 5291TIP3    H237509   0.379   1.409   8.443 -0.0685 -1.6364 -1.5482
 5292TIP3   OH237510   6.626   5.259   0.043  0.2786 -0.2294 -0.3919
 5292TIP3    H137511   6.591   5.216   0.121  1.3910  0.1902  0.3692
 5292TIP3    H237512   6.708   5.300   0.073  0.0764  1.0425 -1.4636
 5293TIP3   OH237513   4.892   0.948   6.901  0.3559 -0.1875  0.0533
 5293TIP3    H137514   4.958   0.940   6.833  1.0696 -3.3034  0.9515
 5293TIP3    H237515   4.811   0.915   6.861  0.6268 -1.4143  0.4895
 5294TIP3   OH237516   2.234   5.585   7.685 -0.2249  0.1817 -0.7430
 5294TIP3    H137517   2.317   5.540   7.670  1.1614  2.4594 -0.3491
 5294TIP3    H237518   2.175   5.516   7.715  1.2279 -1.6760 -1.8880
 5295TIP3   OH237519   5.769   4.795   7.559 -0.2406  0.1427 -0.1239
 5295TIP3    H137520   5.696   4.752   7.603 -1.0949  0.8691 -0.7907
 5295TIP3    H237521   5.813   4.724   7.511 -0.3659 -0.3307  0.4407
 5296TIP3   OH237522   5.124   4.301   8.047 -0.3614 -0.6871 -0.0709
 5296TIP3    H137523   5.070   4.243   8.101  0.0311  0.9593  2.2590
 5296TIP3    H237524   5.173   4.354   8.111  1.5493  0.1283 -2.0895
 5297TIP3   OH237525   2.204   2.191   7.433 -0.6071 -0.2314 -0.1108
 5297TIP3    H137526   2.277   2.130   7.437 -0.9169 -0.6607 -0.8145
 5297TIP3    H237527   2.127   2.137   7.453 -0.8837 -0.0866 -0.7599
 5298TIP3   OH237528   4.892   1.491   1.822 -0.7534  0.5825 -0.3737
 5298TIP3    H137529   4.882   1.581   1.854 -0.0582  0.7191 -0.5240
 5298TIP3    H237530   4.986   1.474   1.827 -1.0416 -0.7944  1.4051
 5299TIP3   OH237531   6.750   2.225   8.012 -0.3403 -0.0011 -0.4375
 5299TIP3    H137532   6.723   2.294   8.073  0.3965  0.0345 -0.1514
 5299TIP3    H237533   6.702   2.245   7.931 -0.8643  0.2916 -0.0613
 5300TIP3   OH237534   2.037   4.047   1.460 -0.5226 -0.3482 -0.2378
 5300TIP3    H137535   1.944   4.047   1.438 -0.4115  1.2653 -0.8467
 5300TIP3    H237536   2.058   4.140   1.472  0.8011 -0.7668  0.8070
 5301TIP3   OH237537   1.839   6.603   6.981  0.2380 -0.6616  1.1017
 5301TIP3    H137538   1.796   6.686   7.000  0.3536 -0.5319  0.8167
 5301TIP3    H237539   1.815   6.585   6.890  2.7966  0.6857  0.0617
 5302TIP3   OH237540   5.934   1.253   8.572 -0.2704 -0.2934  0.2027
 5302TIP3    H137541   5.952   1.343   8.543 -1.3538  0.0503  0.5448
 5302TIP3    H237542   6.018   1.220   8.602  0.2707  0.3795 -0.5412
 5303TIP3   OH237543   3.320   1.373   2.337  0.3683  0.3022  0.1332
 5303TIP3    H137544   3.408   1.347   2.362 -0.0074 -0.0719  1.0914
 5303TIP3    H237545   3.262   1.313   2.384 -0.3854 -0.3384 -1.5031
 5304TIP3   OH237546   2.969   3.540   8.091 -0.2810 -0.1733 -0.0722
 5304TIP3    H137547   3.041   3.565   8.148 -1.8327  2.2898  0.9553
 5304TIP3    H237548   2.893   3.584   8.127 -2.1512 -1.8454 -1.7074
 5305TIP3   OH237549   5.779   3.024   6.801  0.0173 -0.0633 -0.0218
 5305TIP3    H137550   5.842   3.094   6.783  0.8324 -1.1826 -1.7885
 5305TIP3    H237551   5.711   3.035   6.734 -0.0012 -0.7746 -0.1263
 5306TIP3   OH237552   5.149   6.432   0.681 -0.2012  0.5813 -0.1515
 5306TIP3    H137553   5.143   6.370   0.608 -0.9714  2.1547 -1.4858
 5306TIP3    H237554   5.100   6.390   0.752 -0.5010 -0.4370 -0.9304
 5307TIP3   OH237555   2.033   1.779   7.535  0.6943 -0.0038 -0.0194
 5307TIP3    H137556   2.124   1.771   7.506 -0.1390 -0.1299 -2.9057
 5307TIP3    H237557   1.990   1.700   7.502 -0.4022 -0.1832  1.7201
 5308TIP3   OH237558   6.508   0.970   8.479 -0.0644  0.1140  0.2437
 5308TIP3    H137559   6.556   1.000   8.556 -1.1203  2.4191  0.0974
 5308TIP3    H237560   6.448   0.903   8.511  0.2905  0.2430  1.1944
 5309TIP3   OH237561   2.521   3.473   0.964 -0.0801 -0.4883 -0.3644
 5309TIP3    H137562   2.494   3.381   0.953  1.2023 -0.8852 -0.3788
 5309TIP3    H237563   2.602   3.468   1.014  1.3092  0.4707 -2.4009
 5310TIP3   OH237564   4.579   2.371   0.953  0.1626 -0.0955  0.2249
 5310TIP3    H137565   4.561   2.339   0.865  0.4581  0.2545  0.0343
 5310TIP3    H237566   4.500   2.350   1.003 -0.9027  1.6363 -0.6387
 5311TIP3   OH237567   6.016   6.625   7.776  0.1224  0.2875  0.7599
 5311TIP3    H137568   6.010   6.531   7.796  0.6404 -0.1101 -0.8044
 5311TIP3    H237569   6.098   6.653   7.818  0.4559 -0.1965  0.4512
 5312TIP3   OH237570   0.376   2.744   0.937  0.3272 -0.3522 -0.2243
 5312TIP3    H137571   0.375   2.651   0.913 -2.0956 -0.2999 -0.5605
 5312TIP3    H237572   0.427   2.786   0.867  2.9675 -1.5664  0.8384
 5313TIP3   OH237573   3.299   0.878   7.653 -0.1934  0.0598 -0.3552
 5313TIP3    H137574   3.343   0.963   7.660 -1.5182  0.6375  2.3608
 5313TIP3    H237575   3.357   0.817   7.699 -0.6999  0.1525  0.4131
 5314TIP3   OH237576   1.249   3.613   8.032 -0.1103  0.1450  0.2229
 5314TIP3    H137577   1.170   3.564   8.053  0.1214  0.1019  1.0350
 5314TIP3    H237578   1.258   3.605   7.937 -1.0378  0.0985  0.1313
 5315TIP3   OH237579   1.658   1.782   1.398 -0.1458 -0.1954  0.0891
 5315TIP3    H137580   1.641   1.818   1.485 -2.2178 -0.1033 -0.2876
 5315TIP3    H237581   1.603   1.704   1.394 -1.1824  0.5697 -1.6020
 5316TIP3   OH237582   4.076   1.023   1.061  0.0501 -0.1064  0.1354
 5316TIP3    H137583   4.105   1.091   1.123 -0.2293  0.1775 -0.0451
 5316TIP3    H237584   4.157   0.994   1.019  0.2238 -0.1882  0.5181
 5317TIP3   OH237585   4.653   5.830   1.587  0.3225 -0.0006  0.4008
 5317TIP3    H137586   4.645   5.924   1.605  1.8295  0.2063  0.1954
 5317TIP3    H237587   4.639   5.823   1.492 -2.6726 -0.4200  0.7821
 5318TIP3   OH237588   3.698   4.429   1.356  0.3145 -0.1057 -0.0852
 5318TIP3    H137589   3.720   4.419   1.449 -0.6813  0.4136  0.2196
 5318TIP3    H237590   3.757   4.369   1.311  1.5127  0.3570  0.7943
 5319TIP3   OH237591   4.484   0.234   0.509  0.2212 -0.1517  0.2343
 5319TIP3    H137592   4.393   0.225   0.537  0.5039 -1.0173  0.9220
 5319TIP3    H237593   4.515   0.314   0.552 -0.5475  0.8334 -0.9766
 5320TIP3   OH237594   5.578   4.205   7.070  0.4345  0.2948  0.1502
 5320TIP3    H137595   5.586   4.296   7.043 -0.2408  0.7271  1.3490
 5320TIP3    H237596   5.489   4.197   7.103  0.6252 -0.6887  0.4679
 5321TIP3   OH237597   1.599   6.418   2.240 -0.8031  0.1427  0.8094
 5321TIP3    H137598   1.654   6.340   2.251  0.4067  0.9635  0.8154
 5321TIP3    H237599   1.519   6.386   2.198 -0.1623 -1.0338  0.4466
 5322TIP3   OH237600   0.709   4.596   1.703  0.5636  0.0159 -0.4372
 5322TIP3    H137601   0.620   4.577   1.673  0.8579 -0.6507 -0.9179
 5322TIP3    H237602   0.708   4.690   1.721 -0.7073 -0.2583  1.2097
 5323TIP3   OH237603   4.230   1.975   1.682 -0.2998  0.1836 -0.0166
 5323TIP3    H137604   4.240   2.068   1.659 -0.9429  0.8742  2.1731
 5323TIP3    H237605   4.310   1.954   1.730  0.1477 -0.6315 -1.0771
 5324TIP3   OH237606   6.364   5.789   7.637 -0.2228  0.6223 -0.4124
 5324TIP3    H137607   6.310   5.804   7.714 -0.7508 -1.9758 -0.1736
 5324TIP3    H237608   6.303   5.795   7.564 -0.5127 -0.5014 -0.2876
 5325TIP3   OH237609   4.003   5.866   6.922 -0.5922  0.4553 -0.3180
 5325TIP3    H137610   4.058   5.816   6.862 -0.2436 -1.0798  1.2102
 5325TIP3    H237611   3.928   5.809   6.938 -0.1249  0.3133  1.5641
 5326TIP3   OH237612   6.597   0.803   2.507  0.1918  0.5744 -0.3813
 5326TIP3    H137613   6.543   0.850   2.571  0.7806 -0.6087  1.0292
 5326TIP3    H237614   6.686   0.833   2.524  0.6961 -1.5262  1.0673
 5327TIP3   OH237615   1.564   6.717   0.182 -0.1861  0.1408 -0.4226
 5327TIP3    H137616   1.599   6.655   0.118  0.6971 -0.0755  0.2655
 5327TIP3    H237617   1.634   6.729   0.246 -1.3128 -0.2245  0.9320
 5328TIP3   OH237618   6.479   2.134   1.602  0.0877  0.2110  0.2290
 5328TIP3    H137619   6.455   2.222   1.576 -2.1543 -0.1769  0.7935
 5328TIP3    H237620   6.443   2.124   1.690 -0.8181 -1.6455 -0.2974
 5329TIP3   OH237621   5.994   3.394   1.764  0.2859 -0.8551  0.1681
 5329TIP3    H137622   5.903   3.390   1.734  0.4885 -0.7191 -0.4617
 5329TIP3    H237623   6.020   3.485   1.750  0.9889 -1.2250 -1.0470
 5330TIP3   OH237624   5.904   6.230   1.347 -0.7779 -0.0640 -0.0189
 5330TIP3    H137625   5.813   6.241   1.317 -1.2881 -0.3277  1.3845
 5330TIP3    H237626   5.930   6.318   1.374 -0.4239  0.1094 -0.8688
 5331TIP3   OH237627   2.023   2.472   0.190 -0.0738  0.4971 -0.1792
 5331TIP3    H137628   1.929   2.465   0.175  0.1981 -1.5952 -1.2511
 5331TIP3    H237629   2.032   2.473   0.286 -1.1381 -1.2581 -0.0127
 5332TIP3   OH237630   1.158   1.812   7.989  0.1177  1.0063  0.2377
 5332TIP3    H137631   1.106   1.734   7.972 -0.1675  1.2020  0.2137
 5332TIP3    H237632   1.137   1.872   7.917  1.5878  0.4834 -0.6778
 5333TIP3   OH237633   0.276   5.860   7.839 -0.3244  0.1497  0.3707
 5333TIP3    H137634   0.201   5.883   7.895 -0.0930  2.0973 -0.0696
 5333TIP3    H237635   0.299   5.941   7.794  1.6180 -0.5773 -0.0542
 5334TIP3   OH237636   1.641   5.985   0.671  0.1948  0.2404 -0.4521
 5334TIP3    H137637   1.690   6.060   0.637  1.9045 -0.1478  1.0129
 5334TIP3    H237638   1.625   5.929   0.595  0.6976  1.1076 -1.2024
 5335TIP3   OH237639   4.043   1.916   0.771 -0.2545  0.0952  0.0627
 5335TIP3    H137640   4.085   1.862   0.838  0.4201  0.8874  0.2858
 5335TIP3    H237641   3.991   1.854   0.720  1.2912 -0.9511 -0.3201
 5336TIP3   OH237642   6.073   5.421   7.548  0.4304  0.0839  0.1558
 5336TIP3    H137643   6.045   5.494   7.603 -0.1072  0.1196 -0.1699
 5336TIP3    H237644   6.169   5.423   7.554  0.4984  1.7375 -1.0399
 5337TIP3   OH237645   6.057   6.299   2.009 -0.1770 -0.0359  0.2288
 5337TIP3    H137646   6.098   6.223   1.968 -0.1094  0.9655 -1.6273
 5337TIP3    H237647   5.964   6.274   2.017  0.4143 -1.8511  3.4041
 5338TIP3   OH237648   4.303   4.145   1.278  0.1580  0.0166  0.1607
 5338TIP3    H137649   4.240   4.074   1.291  2.3945 -2.9723 -3.4270
 5338TIP3    H237650   4.373   4.128   1.342  0.5763 -0.9539 -0.5342
 5339TIP3   OH237651   1.191   0.530   0.429  0.1374 -0.5112 -0.0932
 5339TIP3    H137652   1.106   0.574   0.423  0.2348 -0.2540  0.3337
 5339TIP3    H237653   1.230   0.539   0.342 -0.7811 -1.6946 -0.6703
 5340TIP3   OH237654   5.540   2.046   0.722 -0.2318 -0.6788  0.1064
 5340TIP3    H137655   5.614   2.095   0.687 -1.0883 -1.3080 -2.8401
 5340TIP3    H237656   5.500   2.105   0.787  0.2830  1.4774 -1.4479
 5341TIP3   OH237657   1.236   3.208   1.708  0.1613 -0.0486  0.2766
 5341TIP3    H137658   1.315   3.198   1.655 -0.0312 -0.8893  0.1268
 5341TIP3    H237659   1.254   3.154   1.786 -0.4217 -0.5763  0.0501
 5342TIP3   OH237660   2.496   3.193   8.040 -0.7022  0.6184  0.2976
 5342TIP3    H137661   2.525   3.134   7.971 -0.9073  0.4101  0.3909
 5342TIP3    H237662   2.460   3.136   8.107  0.8346  0.6874  1.2409
 5343TIP3   OH237663   1.195   6.732   0.502 -0.1719 -0.8686  0.0412
 5343TIP3    H137664   1.113   6.718   0.548 -0.2276 -2.0998 -0.3971
 5343TIP3    H237665   1.263   6.710   0.566 -0.0657  1.7729  0.9725
 5344TIP3   OH237666   6.535   1.827   7.076  0.1858  0.5124  0.0336
 5344TIP3    H137667   6.482   1.867   7.007 -1.5011 -1.6860 -0.0568
 5344TIP3    H237668   6.580   1.754   7.032 -0.1548 -0.3264  1.0429
 5345TIP3   OH237669   3.801   0.557   7.840  0.4324  0.4499  0.7347
 5345TIP3    H137670   3.798   0.464   7.861  1.8103  0.4445  1.0026
 5345TIP3    H237671   3.883   0.588   7.878  1.3369  1.1951 -1.6333
 5346TIP3   OH237672   6.652   1.851   6.590 -0.0043  0.6768  0.2530
 5346TIP3    H137673   6.737   1.855   6.546 -1.0595 -1.0407 -2.2005
 5346TIP3    H237674   6.654   1.768   6.639 -0.3839  0.4022 -0.1806
 5347TIP3   OH237675   5.232   6.630   1.810  0.0799 -0.1356 -0.2677
 5347TIP3    H137676   5.299   6.690   1.778  1.1196 -0.0378  1.9186
 5347TIP3    H237677   5.187   6.679   1.879  0.8754 -1.7663  1.4966
 5348TIP3   OH237678   1.305   5.670   0.915  0.2425  0.6020  0.3035
 5348TIP3    H137679   1.214   5.661   0.888  0.5666 -1.2039 -0.3254
 5348TIP3    H237680   1.301   5.699   1.006 -1.0232 -1.4799  0.9821
 5349TIP3   OH237681   0.025   4.709   0.642 -0.1559  0.5092  0.7787
 5349TIP3    H137682   0.040   4.619   0.615 -2.4112 -1.1952  4.3935
 5349TIP3    H237683   0.001   4.755   0.561 -0.0471 -2.3839 -1.0229
 5350TIP3   OH237684   4.323   0.090   1.195 -0.0655  0.1321 -0.6965
 5350TIP3    H137685   4.388   0.033   1.157  0.1099 -1.1111  1.2920
 5350TIP3    H237686   4.320   0.065   1.288 -2.8855  0.5682 -0.5642
 5351TIP3   OH237687   3.989   3.894   0.346 -0.3622  0.2163 -0.1909
 5351TIP3    H137688   3.899   3.863   0.341  0.1213 -1.2992  0.1572
 5351TIP3    H237689   4.023   3.885   0.257 -1.3688  3.5408 -1.0432
 5352TIP3   OH237690   2.250   1.447   7.783 -0.2129  0.3888  0.6810
 5352TIP3    H137691   2.323   1.441   7.844 -0.2200 -0.2335  0.6343
 5352TIP3    H237692   2.179   1.399   7.825 -0.9981  1.9851  1.2730
 5353TIP3   OH237693   0.303   5.338   7.461  0.6145 -0.2024 -0.2352
 5353TIP3    H137694   0.210   5.318   7.475  0.8739 -1.1637  0.2134
 5353TIP3    H237695   0.304   5.430   7.435 -0.4854 -0.2519 -0.5014
 5354TIP3   OH237696   3.129   3.030   7.689  0.0157 -0.6601  0.1195
 5354TIP3    H137697   3.193   2.960   7.688  0.1878 -0.5034  0.1992
 5354TIP3    H237698   3.111   3.047   7.781  0.9263  0.2643  0.1457
 5355TIP3   OH237699   0.784   3.666   2.430 -0.0692 -0.2428 -0.5802
 5355TIP3    H137700   0.773   3.581   2.472 -0.5852 -0.9034 -1.9629
 5355TIP3    H237701   0.697   3.707   2.433  0.1721  0.2281  0.0614
 5356TIP3   OH237702   4.905   1.994   2.149 -0.0941 -0.2694  0.1937
 5356TIP3    H137703   4.876   1.915   2.103  0.9615 -1.2623  1.1734
 5356TIP3    H237704   4.826   2.048   2.156 -0.4911 -0.4863 -1.9235
 5357TIP3   OH237705   6.221   1.564   1.295  0.7554 -0.7562 -0.3249
 5357TIP3    H137706   6.168   1.491   1.326  1.0171  0.0794  2.3658
 5357TIP3    H237707   6.171   1.601   1.223 -0.9677 -1.6245  0.3596
 5358TIP3   OH237708   6.393   6.641   0.582 -0.3378  0.1162  0.3523
 5358TIP3    H137709   6.440   6.703   0.527  0.8968 -0.9540  0.1438
 5358TIP3    H237710   6.448   6.632   0.660  1.1484 -2.8922 -0.8708
 5359TIP3   OH237711   0.687   2.837   8.000 -0.4547 -0.6403 -0.8499
 5359TIP3    H137712   0.713   2.817   7.910 -0.5919 -0.1978 -0.9903
 5359TIP3    H237713   0.730   2.920   8.020 -2.2152  0.4344 -1.3031
 5360TIP3   OH237714   1.475   4.804   1.002 -0.2270  0.5022  0.0900
 5360TIP3    H137715   1.454   4.810   0.909  0.5092  1.3562 -0.0336
 5360TIP3    H237716   1.434   4.722   1.031 -2.3761  1.3246 -0.4598
 5361TIP3   OH237717   5.965   4.113   0.569 -0.1634 -0.4044 -0.1055
 5361TIP3    H137718   5.945   4.131   0.661  1.6435 -1.2555  0.4876
 5361TIP3    H237719   5.967   4.200   0.527  1.7264  0.2558  1.2564
 5362TIP3   OH237720   2.097   5.750   6.886  0.4700 -0.1812 -0.0437
 5362TIP3    H137721   2.019   5.735   6.939  0.0532 -1.3790 -0.9760
 5362TIP3    H237722   2.095   5.844   6.867 -0.2875 -0.0515  0.6286
 5363TIP3   OH237723   0.353   3.785   8.459  0.2817 -0.8930  0.0224
 5363TIP3    H137724   0.354   3.880   8.449  1.9943 -0.8974 -0.1880
 5363TIP3    H237725   0.420   3.754   8.397  0.2258 -2.1769  0.5740
 5364TIP3   OH237726   3.133   0.858   0.384 -0.7733  0.9954 -0.0785
 5364TIP3    H137727   3.112   0.835   0.293 -2.7223 -0.5927  0.6792
 5364TIP3    H237728   3.185   0.784   0.416 -2.6033  0.0397  0.8719
 5365TIP3   OH237729   4.424   0.376   1.404  0.2442  0.4175  0.1500
 5365TIP3    H137730   4.344   0.359   1.453 -0.4428 -1.8271 -1.5638
 5365TIP3    H237731   4.393   0.408   1.319  0.9453 -2.2311 -1.2156
 5366TIP3   OH237732   5.395   1.852   1.395 -0.1430  0.1731 -0.3263
 5366TIP3    H137733   5.427   1.796   1.465 -2.3239 -0.5512  0.1805
 5366TIP3    H237734   5.406   1.801   1.315  0.1442  0.0369 -0.2000
 5367TIP3   OH237735   4.721   2.494   7.578  0.3962 -0.7063  0.0125
 5367TIP3    H137736   4.800   2.486   7.524  0.5716  2.0675 -0.2935
 5367TIP3    H237737   4.683   2.406   7.578  2.2039 -1.5832 -1.7995
 5368TIP3   OH237738   2.540   4.677   6.582  0.3309 -0.0435  0.0190
 5368TIP3    H137739   2.568   4.658   6.492 -0.0641 -0.5590  0.0018
 5368TIP3    H237740   2.445   4.679   6.579  0.3270  1.6013  0.1067
 5369TIP3   OH237741   2.341   5.627   6.720 -0.2065 -0.4124  0.5314
 5369TIP3    H137742   2.367   5.542   6.755  0.7054  0.0184  0.9337
 5369TIP3    H237743   2.416   5.655   6.668 -0.3348  0.3195  0.7263
 5370TIP3   OH237744   6.075   4.661   7.035  0.1318 -0.0467 -0.2503
 5370TIP3    H137745   5.997   4.677   7.087 -0.1000 -2.1149  0.1316
 5370TIP3    H237746   6.133   4.613   7.093  1.3844  0.7749 -0.7875
 5371TIP3   OH237747   1.754   0.864   8.549 -0.0925  0.0822 -0.2577
 5371TIP3    H137748   1.791   0.874   8.636 -2.3266  0.1381  0.7486
 5371TIP3    H237749   1.734   0.770   8.542  0.4324  0.0036 -0.8983
 5372TIP3   OH237750   2.422   6.447   1.889 -0.1880 -0.0577  0.0648
 5372TIP3    H137751   2.501   6.466   1.838 -0.4561  1.5682  0.1910
 5372TIP3    H237752   2.455   6.434   1.978 -0.0400  0.6053  0.1159
 5373TIP3   OH237753   3.059   2.932   1.986 -0.1329 -0.3258 -0.2225
 5373TIP3    H137754   3.137   2.980   2.016 -1.8026  2.3671  0.0936
 5373TIP3    H237755   3.063   2.849   2.035  0.8173  1.1083  2.3629
 5374TIP3   OH237756   5.032   4.393   0.530  0.1293 -0.5894  0.1327
 5374TIP3    H137757   4.956   4.345   0.564  0.6828 -0.7575  1.1965
 5374TIP3    H237758   5.106   4.334   0.546  0.3957 -0.7669 -1.6242
 5375TIP3   OH237759   3.324   0.219   6.946  0.3522  0.6987 -0.0260
 5375TIP3    H137760   3.339   0.304   6.988 -1.5684  1.0318  0.0904
 5375TIP3    H237761   3.405   0.202   6.898  0.4645  3.0621 -0.8373
 5376TIP3   OH237762   4.538   2.840   1.468  0.6977  0.1363 -0.0274
 5376TIP3    H137763   4.537   2.810   1.376  0.6159 -1.9173  0.5817
 5376TIP3    H237764   4.449   2.825   1.499  0.4506  1.8140  0.1178
 5377TIP3   OH237765   6.611   3.165   1.364  0.1398 -0.1935 -0.4637
 5377TIP3    H137766   6.629   3.094   1.303  1.4633  0.0880 -0.4205
 5377TIP3    H237767   6.601   3.242   1.308 -0.2509 -0.2255 -0.4377
 5378TIP3   OH237768   2.640   0.238   0.198  0.2071  0.0329  0.2776
 5378TIP3    H137769   2.682   0.289   0.267  2.7134 -0.4172 -0.8219
 5378TIP3    H237770   2.572   0.296   0.163  0.1546  0.9599  1.8345
 5379TIP3   OH237771   0.452   1.846   8.191 -0.4194 -0.3465  0.5245
 5379TIP3    H137772   0.384   1.884   8.135 -1.6720 -0.4818  1.8849
 5379TIP3    H237773   0.420   1.860   8.280  1.3795 -0.3836  1.2147
 5380TIP3   OH237774   0.277   1.035   7.507 -0.2822 -0.7304 -0.4520
 5380TIP3    H137775   0.263   1.082   7.590 -0.6488 -3.5243  1.1928
 5380TIP3    H237776   0.208   1.068   7.450 -0.4264  0.8265  0.5440
 5381TIP3   OH237777   2.354   2.619   0.950  0.0687  0.2124 -0.4090
 5381TIP3    H137778   2.428   2.659   0.994 -0.1541  0.6180 -0.3954
 5381TIP3    H237779   2.321   2.555   1.012 -0.8434  1.4560  0.4456
 5382TIP3   OH237780   4.442   6.635   6.479  0.1875 -0.4039 -0.0110
 5382TIP3    H137781   4.414   6.557   6.432  0.4192 -0.8104  0.5117
 5382TIP3    H237782   4.534   6.618   6.501 -0.5602 -1.3802  2.8069
 5383TIP3   OH237783   4.369   0.891   2.656  0.1780  0.1461 -0.5458
 5383TIP3    H137784   4.310   0.945   2.709  0.7482  0.9480 -0.7181
 5383TIP3    H237785   4.457   0.917   2.682  0.5119 -1.8882  0.5725
 5384TIP3   OH237786   5.431   0.508   1.263  0.0968 -0.4164 -0.3572
 5384TIP3    H137787   5.444   0.603   1.269 -0.8908 -0.2355 -0.9257
 5384TIP3    H237788   5.423   0.491   1.169 -2.5976 -0.6317 -0.1558
 5385TIP3   OH237789   3.885   3.811   1.738 -0.1784  0.1776  0.1976
 5385TIP3    H137790   3.899   3.717   1.749 -1.1827 -0.0677 -0.4247
 5385TIP3    H237791   3.922   3.831   1.652  0.3904  0.4416  0.4974
 5386TIP3   OH237792   0.668   6.215   0.480  0.9281 -0.0168 -0.1035
 5386TIP3    H137793   0.662   6.288   0.542 -1.5627 -2.1431  2.4390
 5386TIP3    H237794   0.650   6.255   0.394  3.4445  2.8693  0.5006
 5387TIP3   OH237795   5.171   0.294   1.597 -0.5500  0.7096 -0.3539
 5387TIP3    H137796   5.221   0.296   1.515  2.8164 -0.1887  1.4688
 5387TIP3    H237797   5.230   0.251   1.660 -3.4777  0.1342  2.2471
 5388TIP3   OH237798   1.464   1.269   0.674 -0.1566  0.2272  0.0399
 5388TIP3    H137799   1.541   1.237   0.721 -0.0182 -2.2000 -1.6753
 5388TIP3    H237800   1.442   1.199   0.612 -2.4493  1.7680 -1.0449
 5389TIP3   OH237801   5.389   3.244   1.570  0.3207 -0.0911 -0.1461
 5389TIP3    H137802   5.445   3.197   1.508  0.3065  0.0906 -0.2963
 5389TIP3    H237803   5.451   3.286   1.631  0.3551  0.2891 -0.4417
 5390TIP3   OH237804   1.117   4.589   7.222  0.6091 -0.2272 -0.0911
 5390TIP3    H137805   1.193   4.531   7.229  0.6993 -0.5972 -3.0961
 5390TIP3    H237806   1.108   4.607   7.129 -3.3773 -0.7079  0.0224
 5391TIP3   OH237807   5.339   5.618   0.587  0.1465  0.0194 -0.3767
 5391TIP3    H137808   5.342   5.538   0.535  0.6758 -0.4453  0.3442
 5391TIP3    H237809   5.431   5.640   0.602  0.0113  1.1159 -1.0872
 5392TIP3   OH237810   3.721   2.688   1.419  0.2001  0.1797  0.1581
 5392TIP3    H137811   3.687   2.752   1.357 -0.8978  0.6591  1.2107
 5392TIP3    H237812   3.685   2.605   1.390 -1.4547  0.5940  0.8972
 5393TIP3   OH237813   6.458   2.730   7.530 -0.2055 -0.1237 -0.4257
 5393TIP3    H137814   6.545   2.693   7.541  0.0040  0.7943  1.3879
 5393TIP3    H237815   6.403   2.656   7.504  0.6731 -1.1825  0.6623
 5394TIP3   OH237816   4.332   2.328   1.082  0.2779 -0.2397 -0.3357
 5394TIP3    H137817   4.267   2.386   1.122  1.8009  1.2598  0.0633
 5394TIP3    H237818   4.331   2.250   1.137 -1.2686 -0.2962 -0.4168
 5395TIP3   OH237819   2.331   1.699   0.323 -0.2164  0.7726  0.1866
 5395TIP3    H137820   2.247   1.705   0.279 -1.8431  0.2507  3.0073
 5395TIP3    H237821   2.324   1.622   0.379  2.2788  0.5268  0.2850
 5396TIP3   OH237822   6.076   3.010   6.795 -0.0396 -0.5579 -0.1581
 5396TIP3    H137823   6.105   3.039   6.708  0.0912 -2.0502 -0.6467
 5396TIP3    H237824   6.078   2.914   6.790 -1.6501 -0.6923  0.9529
 5397TIP3   OH237825   4.031   2.719   0.046 -0.4387 -0.7645 -1.0570
 5397TIP3    H137826   4.097   2.674   0.098 -0.2252 -1.6546 -2.0604
 5397TIP3    H237827   3.966   2.748   0.109  0.9156  0.1632 -0.0486
 5398TIP3   OH237828   4.526   6.036   0.681  0.9654  1.0765 -0.0052
 5398TIP3    H137829   4.599   5.975   0.669  1.6604  1.5340  1.5996
 5398TIP3    H237830   4.475   5.997   0.753  0.2896  1.3779 -0.3137
 5399TIP3   OH237831   4.508   4.994   8.361  0.1433 -0.1769 -0.8302
 5399TIP3    H137832   4.551   4.921   8.317 -0.2982 -0.8957 -0.0850
 5399TIP3    H237833   4.434   5.017   8.304 -0.7111 -1.4157 -0.2569
 5400TIP3   OH237834   4.751   1.628   8.523  0.1960  0.4533 -0.0482
 5400TIP3    H137835   4.711   1.705   8.484 -0.5050  0.7871  1.2752
 5400TIP3    H237836   4.837   1.622   8.482 -0.5230  0.7393 -1.6567
 5401TIP3   OH237837   6.488   5.115   2.321 -0.1131  0.2454  0.4227
 5401TIP3    H137838   6.474   5.199   2.278 -2.2706 -0.9498 -1.4320
 5401TIP3    H237839   6.569   5.082   2.284 -1.3683 -0.2649 -2.1149
 5402TIP3   OH237840   1.162   0.690   1.190  0.4003  0.2915 -0.1251
 5402TIP3    H137841   1.172   0.633   1.114  0.4290  0.3793 -0.1876
 5402TIP3    H237842   1.239   0.747   1.187 -0.0444  0.8812 -0.5333
 5403TIP3   OH237843   4.843   0.457   0.943  0.3935  0.2243 -0.4105
 5403TIP3    H137844   4.780   0.388   0.962  0.8209  0.2439  1.2867
 5403TIP3    H237845   4.820   0.488   0.856 -2.3393  0.6685  0.3736
 5404TIP3   OH237846   0.145   2.712   6.493 -0.4045  0.2370 -0.6847
 5404TIP3    H137847   0.162   2.624   6.460 -0.1164  0.5406 -1.3722
 5404TIP3    H237848   0.209   2.725   6.562 -2.6542 -1.3848  1.9183
 5405TIP3   OH237849   5.203   5.984   6.640  0.5265  0.0117 -0.0704
 5405TIP3    H137850   5.296   6.008   6.632  0.6047 -0.1634  0.3066
 5405TIP3    H237851   5.161   6.030   6.567  0.7810  0.7477  0.2402
 5406TIP3   OH237852   1.350   6.230   2.199 -0.2976  0.4414 -0.5244
 5406TIP3    H137853   1.255   6.223   2.189 -0.1940 -0.6643 -0.8432
 5406TIP3    H237854   1.379   6.276   2.120 -0.6480  1.6822  0.0316
 5407TIP3   OH237855   4.370   6.040   1.622 -0.3178  0.1094  0.3038
 5407TIP3    H137856   4.392   6.094   1.698  1.1764 -0.4846  0.3229
 5407TIP3    H237857   4.427   6.072   1.552 -0.4139 -0.5295 -0.0728
 5408TIP3   OH237858   0.441   2.133   8.606 -0.1300  0.1081 -0.2776
 5408TIP3    H137859   0.498   2.209   8.592  1.3766 -0.6132  1.5520
 5408TIP3    H237860   0.470   2.096   8.689 -2.7986 -0.7566  0.3918
 5409TIP3   OH237861   5.058   3.831   1.630 -0.4928 -0.6203 -0.0529
 5409TIP3    H137862   5.083   3.788   1.548  0.4536  3.1656 -1.9975
 5409TIP3    H237863   5.135   3.821   1.687 -0.7283 -2.3071  0.0409
 5410TIP3   OH237864   3.782   4.797   1.906 -0.3328 -0.2088 -0.1072
 5410TIP3    H137865   3.846   4.863   1.879  1.8822 -1.6284  1.4067
 5410TIP3    H237866   3.699   4.844   1.907  0.7600  1.9032 -1.4700
 5411TIP3   OH237867   2.275   3.334   6.913  0.7025 -0.2295  0.0849
 5411TIP3    H137868   2.290   3.426   6.935 -1.5534  0.0849  0.5755
 5411TIP3    H237869   2.198   3.336   6.856  1.3735 -1.7320 -0.9093
 5412TIP3   OH237870   1.722   0.032   0.619 -0.4017  0.4140 -0.0047
 5412TIP3    H137871   1.777   0.109   0.630 -0.0001  0.1131  0.0824
 5412TIP3    H237872   1.783  -0.040   0.602 -0.7222 -0.0310  0.6763
 5413TIP3   OH237873   4.092   2.451   1.255  0.2372  0.2872 -0.3984
 5413TIP3    H137874   4.058   2.491   1.335  0.5926 -0.8925  0.3785
 5413TIP3    H237875   4.030   2.476   1.187  0.2366  1.7931  0.1266
 5414TIP3   OH237876   2.194   2.303   1.787 -0.0573 -0.4345  0.3702
 5414TIP3    H137877   2.128   2.372   1.792 -1.2702 -1.6508  2.2050
 5414TIP3    H237878   2.151   2.230   1.742  0.4050 -0.8508  0.5806
 5415TIP3   OH237879   1.437   4.874   8.599  0.0630 -0.7435  0.3017
 5415TIP3    H137880   1.401   4.948   8.551  1.3033 -0.1498  0.2344
 5415TIP3    H237881   1.378   4.863   8.673  0.6856  1.3941  1.2273
 5416TIP3   OH237882   4.064   6.135   7.774  0.4322  0.1800 -0.3155
 5416TIP3    H137883   4.086   6.042   7.765 -0.8505 -0.4129  1.9898
 5416TIP3    H237884   3.970   6.139   7.755  0.1520  0.7158  1.0788
 5417TIP3   OH237885   0.860   3.971   2.570  0.1723 -0.2238  0.5095
 5417TIP3    H137886   0.882   4.035   2.637 -1.3251 -0.1331  0.9375
 5417TIP3    H237887   0.910   3.893   2.594  1.8609  0.6557  0.0944
 5418TIP3   OH237888   0.024   6.768   7.447 -0.1635  0.1561  0.3308
 5418TIP3    H137889  -0.014   6.778   7.534 -0.4245 -0.0869  0.2468
 5418TIP3    H237890  -0.048   6.790   7.387  0.2280  1.0994  0.1778
 5419TIP3   OH237891   5.455   0.826   0.551  0.4099 -0.3062  0.1388
 5419TIP3    H137892   5.372   0.789   0.521  0.4167 -2.6211  2.5774
 5419TIP3    H237893   5.433   0.875   0.630  1.1376  0.7262 -0.2697
 5420TIP3   OH237894   5.058   3.804   7.378  0.2572 -0.4764 -0.0349
 5420TIP3    H137895   5.064   3.893   7.343 -0.0987 -0.6568 -0.5810
 5420TIP3    H237896   4.990   3.762   7.324 -1.0418 -0.4656  1.5335
 5421TIP3   OH237897   1.298   1.377   1.290 -0.0996  0.0279 -0.7487
 5421TIP3    H137898   1.325   1.439   1.222 -0.5358 -0.5760 -1.4885
 5421TIP3    H237899   1.379   1.339   1.322  0.1954  1.1604 -0.1025
 5422TIP3   OH237900   4.274   4.991   0.621  0.4273 -0.4844 -0.2562
 5422TIP3    H137901   4.273   5.085   0.603  1.4790 -0.1247  1.3629
 5422TIP3    H237902   4.182   4.970   0.639  0.2262  0.3007 -0.2891
 5423TIP3   OH237903   2.870   1.341   8.239  0.0659 -0.3207  0.1392
 5423TIP3    H137904   2.930   1.402   8.282 -1.2826  1.3804 -0.3193
 5423TIP3    H237905   2.928   1.278   8.196  1.4830 -0.0341  1.5247
 5424TIP3   OH237906   4.895   3.509   1.863 -0.0100 -0.2572 -0.7902
 5424TIP3    H137907   4.902   3.507   1.767  1.5098  1.1890 -0.7551
 5424TIP3    H237908   4.802   3.525   1.880  0.0218  1.6496 -2.1069
 5425TIP3   OH237909   4.521   3.621   7.792 -0.4346 -0.0583  0.1210
 5425TIP3    H137910   4.595   3.596   7.737  0.8760  1.2285  1.2090
 5425TIP3    H237911   4.517   3.717   7.784 -3.1219 -0.1880 -1.2813
 5426TIP3   OH237912   5.699   2.673   7.282  0.4738  0.7435  0.0791
 5426TIP3    H137913   5.785   2.652   7.247  1.2843  3.2736  0.3544
 5426TIP3    H237914   5.706   2.654   7.376  1.8356  3.7050  0.6909
 5427TIP3   OH237915   5.815   3.514   0.185 -0.4179 -0.0879  0.2582
 5427TIP3    H137916   5.796   3.577   0.254 -0.7660  4.2487 -3.3775
 5427TIP3    H237917   5.729   3.481   0.158 -0.5037  0.1278  0.2668
 5428TIP3   OH237918   6.251   1.182   1.112  0.1896 -0.2695 -0.0480
 5428TIP3    H137919   6.249   1.148   1.201 -1.3875  2.1535  0.9396
 5428TIP3    H237920   6.176   1.141   1.069  0.5716 -0.9480 -0.0802
 5429TIP3   OH237921   0.065   5.266   0.821  0.4049  0.4416  0.4262
 5429TIP3    H137922   0.104   5.351   0.838  1.8956 -0.2097  0.4090
 5429TIP3    H237923   0.097   5.210   0.892 -0.4503 -0.1448  0.3711
 5430TIP3   OH237924   6.724   6.877   7.275 -0.3189 -0.5105  0.1093
 5430TIP3    H137925   6.657   6.939   7.246 -3.0084 -1.8341  2.8695
 5430TIP3    H237926   6.717   6.804   7.213 -1.4348 -0.5706  0.2684
 5431TIP3   OH237927   3.189   6.128   1.002  0.2618  0.2594  0.4179
 5431TIP3    H137928   3.122   6.170   1.056  0.3894 -0.1755  0.9290
 5431TIP3    H237929   3.235   6.070   1.063  0.7602  0.1617 -0.0454
 5432TIP3   OH237930   6.760   6.855   7.649  0.0192  0.1081 -0.2657
 5432TIP3    H137931   6.797   6.825   7.732 -1.7029  1.2831  0.9780
 5432TIP3    H237932   6.674   6.890   7.671  0.3408  2.3867 -2.2293
 5433TIP3   OH237933   5.572   0.078   6.842 -0.6007  0.2133  0.2373
 5433TIP3    H137934   5.667   0.084   6.854 -0.2899 -1.7112 -0.7618
 5433TIP3    H237935   5.559   0.095   6.749 -1.0323 -0.9256  0.0653
 5434TIP3   OH237936   6.605   2.181   6.327 -0.0801  0.0987  0.9948
 5434TIP3    H137937   6.548   2.112   6.296 -0.8197 -0.4990  3.4427
 5434TIP3    H237938   6.547   2.255   6.344 -0.3101 -0.5946  3.7438
 5435TIP3   OH237939   0.400   3.472   7.615 -0.1709 -0.1293  0.8308
 5435TIP3    H137940   0.327   3.534   7.622 -1.9104 -1.8662 -0.6899
 5435TIP3    H237941   0.394   3.439   7.525  2.7042 -0.1522  0.5736
 5436TIP3   OH237942   1.549   6.202   8.020  0.1669  0.0946 -0.1114
 5436TIP3    H137943   1.639   6.202   8.054  0.1550  1.8837  0.0429
 5436TIP3    H237944   1.558   6.172   7.929  0.4709 -2.7016  0.7430
 5437TIP3   OH237945   0.929   3.816   8.122  0.0257 -0.0980 -0.0885
 5437TIP3    H137946   0.973   3.845   8.042  0.1974 -0.1679 -0.0208
 5437TIP3    H237947   1.000   3.798   8.183 -0.1373  1.9734  0.8083
 5438TIP3   OH237948   3.051   1.449   2.073  0.1330 -0.1713  0.0823
 5438TIP3    H137949   3.054   1.462   1.979  0.5644 -0.5411  0.0412
 5438TIP3    H237950   3.048   1.354   2.084  0.5736 -0.1462  0.4486
 5439TIP3   OH237951   4.430   1.457   1.437 -0.2354  0.1062  0.5697
 5439TIP3    H137952   4.464   1.526   1.380 -2.2775 -0.0330 -0.9019
 5439TIP3    H237953   4.336   1.473   1.441 -0.6456 -2.0833  0.8832
 5440TIP3   OH237954   1.322   2.088   1.735 -0.2644  0.3782 -0.1533
 5440TIP3    H137955   1.348   2.061   1.823 -1.2709  0.6552  0.2403
 5440TIP3    H237956   1.261   2.161   1.749  0.7976  1.5183 -1.1235
 5441TIP3   OH237957   0.783   1.447   2.277 -0.4441  0.4846  0.7641
 5441TIP3    H137958   0.825   1.530   2.303  0.6389 -0.5334  2.4514
 5441TIP3    H237959   0.855   1.384   2.271 -1.3102 -0.4626 -0.0117
 5442TIP3   OH237960   5.257   2.146   1.416 -0.4779  0.0694 -0.4651
 5442TIP3    H137961   5.165   2.153   1.390 -0.6029 -1.6392 -0.5507
 5442TIP3    H237962   5.301   2.111   1.339  0.0526 -0.1637 -0.0589
 5443TIP3   OH237963   2.736   4.518   7.212 -0.1584 -0.4245  0.1888
 5443TIP3    H137964   2.786   4.573   7.272  0.1414 -0.6685  0.1693
 5443TIP3    H237965   2.759   4.551   7.125 -2.6915  1.7381  0.2333
 5444TIP3   OH237966   0.289   2.438   8.543  0.4766  0.2797 -0.1424
 5444TIP3    H137967   0.236   2.361   8.563 -0.5417  1.4098  1.9038
 5444TIP3    H237968   0.377   2.415   8.572 -0.0058  0.1675  1.3265
 5445TIP3   OH237969   4.549   3.173   0.107 -0.4585 -0.3376 -0.3499
 5445TIP3    H137970   4.564   3.086   0.068  1.9989  0.0551 -0.4438
 5445TIP3    H237971   4.634   3.197   0.145 -1.0236  2.1225 -0.4868
 5446TIP3   OH237972   4.995   2.748   1.816  0.6002 -0.3500 -0.1389
 5446TIP3    H137973   4.961   2.699   1.891 -1.6883  1.5288  0.1636
 5446TIP3    H237974   4.947   2.712   1.741 -0.7003  0.9653  0.0165
 5447TIP3   OH237975   6.651   5.013   1.039  0.4289  0.1212 -0.0686
 5447TIP3    H137976   6.582   4.947   1.037  1.1781 -0.6777 -0.7085
 5447TIP3    H237977   6.686   5.014   0.949  1.7385 -0.0415  0.4173
 5448TIP3   OH237978   4.413   5.244   1.844 -0.3248 -0.2779  0.6579
 5448TIP3    H137979   4.411   5.336   1.818  0.0613 -0.0412  1.4666
 5448TIP3    H237980   4.323   5.214   1.829 -0.3378  0.0943 -0.0629
 5449TIP3   OH237981   3.915   5.597   6.789 -0.1822 -0.1899 -0.0436
 5449TIP3    H137982   3.997   5.553   6.812  0.1562  0.2857 -0.3321
 5449TIP3    H237983   3.852   5.563   6.853 -0.3201 -2.3098 -1.2224
 5450TIP3   OH237984   1.054   3.428   1.747  0.0292 -0.3309  0.5538
 5450TIP3    H137985   1.136   3.380   1.741 -0.3495 -0.8879 -0.3761
 5450TIP3    H237986   1.010   3.412   1.663  0.0195  1.8864  0.0694
 5451TIP3   OH237987   6.343   1.713   1.013 -0.8621 -0.1657 -0.3349
 5451TIP3    H137988   6.311   1.625   0.994 -0.2122 -1.3968  3.4749
 5451TIP3    H237989   6.271   1.756   1.058 -0.0972  0.0634  0.7091
 5452TIP3   OH237990   1.952   2.958   1.440  0.1158 -0.1965 -0.6735
 5452TIP3    H137991   2.013   2.889   1.413  0.4226  1.1113 -3.6518
 5452TIP3    H237992   1.906   2.983   1.360 -1.7302  1.4160  0.7857
 5453TIP3   OH237993   1.330   0.168   1.359  0.2754 -0.0824 -0.0674
 5453TIP3    H137994   1.344   0.259   1.332  0.6531 -0.3281 -0.7142
 5453TIP3    H237995   1.236   0.154   1.348  0.3233  0.0180 -0.6705
 5454TIP3   OH237996   0.119   3.448   7.883 -0.0135  0.1369 -0.1318
 5454TIP3    H137997   0.023   3.455   7.885 -0.1743  0.2731 -3.4257
 5454TIP3    H237998   0.136   3.356   7.866  0.3482  0.3530 -0.9939
 5455TIP3   OH237999   1.852   4.826   0.868  0.4509  0.2476 -0.0999
 5455TIP3    H138000   1.811   4.911   0.853  0.7062  0.2863 -0.6039
 5455TIP3    H238001   1.808   4.767   0.807  2.5494  0.7266 -2.1882
 5456TIP3   OH238002   5.438   5.770   8.130  0.6888 -0.3449 -0.0364
 5456TIP3    H138003   5.446   5.865   8.123 -0.7091 -0.1746  0.3809
 5456TIP3    H238004   5.489   5.747   8.207  0.8548  0.0887 -0.0133
 5457TIP3   OH238005   5.664   1.398   7.479 -0.2269  0.1559 -0.7423
 5457TIP3    H138006   5.742   1.380   7.427 -0.8685 -0.7682 -1.4200
 5457TIP3    H238007   5.630   1.312   7.502 -0.8387  0.5470 -0.1399
 5458TIP3   OH238008   4.716   6.912   1.312 -0.4975 -0.4786 -0.0868
 5458TIP3    H138009   4.663   6.963   1.374 -1.3048 -1.5427  0.1415
 5458TIP3    H238010   4.710   6.960   1.229 -0.5184  0.2462  0.3313
 5459TIP3   OH238011   4.740   6.085   2.140 -0.2054  0.2322  0.4882
 5459TIP3    H138012   4.694   6.006   2.170 -0.3469  0.8868  2.1250
 5459TIP3    H238013   4.702   6.156   2.192  1.5244  1.0285  0.7424
 5460TIP3   OH238014   0.485   6.258   7.067 -0.0727 -0.2785  0.4883
 5460TIP3    H138015   0.400   6.216   7.084 -0.3118  0.4697  1.2125
 5460TIP3    H238016   0.465   6.351   7.063  0.3611 -0.2429 -1.6511
 5461TIP3   OH238017   2.312   4.374   0.882 -0.7512  0.0033 -0.3777
 5461TIP3    H138018   2.408   4.376   0.880 -0.6419 -1.7770  0.9650
 5461TIP3    H238019   2.286   4.464   0.859  1.2277  0.6381 -0.3281
 5462TIP3   OH238020   4.119   4.220   1.894 -0.5456  0.1772 -0.3160
 5462TIP3    H138021   4.177   4.157   1.938 -1.4183 -1.1770 -1.0238
 5462TIP3    H238022   4.156   4.306   1.915  0.1700 -0.5140  1.4466
 5463TIP3   OH238023   4.593   4.822   6.945  0.2383 -0.1850  0.6074
 5463TIP3    H138024   4.553   4.780   6.869  1.0140 -0.6661  0.4569
 5463TIP3    H238025   4.614   4.911   6.914 -1.0106  0.2051  0.7993
 5464TIP3   OH238026   5.957   5.958   8.351 -0.2603  0.0383  0.2596
 5464TIP3    H138027   5.979   5.926   8.438 -2.3667 -2.4677 -0.0048
 5464TIP3    H238028   6.010   5.903   8.292 -0.2727  0.4157 -0.1076
 5465TIP3   OH238029   2.057   0.198   8.122  0.1084 -0.4185  0.1229
 5465TIP3    H138030   2.072   0.291   8.139  0.6716  0.3165 -3.5480
 5465TIP3    H238031   2.097   0.183   8.037 -3.3109 -3.1317 -1.2128
 5466TIP3   OH238032   6.827   0.214   7.419 -0.5856 -0.6411  1.0681
 5466TIP3    H138033   6.770   0.146   7.383 -1.1342 -0.3703  1.4239
 5466TIP3    H238034   6.852   0.267   7.344 -2.3370  0.3776  1.1708
 5467TIP3   OH238035   4.856   6.226   8.410  0.5416 -0.5466  0.4065
 5467TIP3    H138036   4.851   6.214   8.505 -0.5351  2.7896  0.9084
 5467TIP3    H238037   4.943   6.263   8.395  0.3482 -0.1452  0.2521
 5468TIP3   OH238038   6.528   3.858   0.038  0.1010 -0.0392  0.2162
 5468TIP3    H138039   6.465   3.836  -0.030  0.8100  2.8920 -1.5903
 5468TIP3    H238040   6.478   3.857   0.119 -0.8418 -3.3604 -0.2660
 5469TIP3   OH238041   1.873   2.320   7.696  0.1351 -0.1937  0.8370
 5469TIP3    H138042   1.879   2.240   7.749  1.9085 -0.6338  0.0284
 5469TIP3    H238043   1.952   2.369   7.718  0.8501 -0.3271 -1.2621
 5470TIP3   OH238044   3.823   6.554   1.664  0.1207 -0.5105 -0.1904
 5470TIP3    H138045   3.865   6.554   1.750 -0.8924 -0.7750  0.3152
 5470TIP3    H238046   3.861   6.478   1.619  2.3408  0.8830 -0.8624
 5471TIP3   OH238047   1.642   6.012   6.680 -0.7150 -0.4142  0.2041
 5471TIP3    H138048   1.654   5.937   6.621  3.4116  0.8990 -0.9544
 5471TIP3    H238049   1.694   5.989   6.758  1.6417  1.5232 -0.6568
 5472TIP3   OH238050   5.772   2.604   0.136  0.2017 -0.1377 -0.5497
 5472TIP3    H138051   5.689   2.563   0.164  0.2566  0.1091 -0.0108
 5472TIP3    H238052   5.834   2.581   0.206  0.1317  1.2176 -0.0081
 5473TIP3   OH238053   5.163   1.926   7.845 -0.1946  0.3570 -0.0996
 5473TIP3    H138054   5.068   1.921   7.831 -0.3632 -0.6909  1.2497
 5473TIP3    H238055   5.197   1.847   7.804 -0.2073 -0.5070  1.4796
 5474TIP3   OH238056   3.965   5.419   0.568  0.9876 -0.3840 -0.7095
 5474TIP3    H138057   3.926   5.484   0.509 -0.3157 -2.3872 -2.1890
 5474TIP3    H238058   4.046   5.393   0.524  1.6005  0.2970 -0.0278
 5475TIP3   OH238059   2.730   2.380   1.612  0.2488 -0.3726 -0.3381
 5475TIP3    H138060   2.766   2.430   1.538 -0.5877  2.0285  0.7722
 5475TIP3    H238061   2.706   2.447   1.676 -1.4146 -2.2068  1.0620
 5476TIP3   OH238062   2.231   3.311   0.871 -0.1704  0.5715 -0.2735
 5476TIP3    H138063   2.202   3.346   0.787 -0.4340  1.0667  0.0205
 5476TIP3    H238064   2.187   3.226   0.877 -0.6085  0.7912 -0.3712
 5477TIP3   OH238065   2.171   0.800   0.932  0.8386  0.1529 -0.1816
 5477TIP3    H138066   2.221   0.874   0.966  1.3620 -0.5801  0.6767
 5477TIP3    H238067   2.178   0.808   0.837  1.2791  0.9386 -0.0914
 5478TIP3   OH238068   1.841   4.529   8.258 -0.1855 -0.4697  0.2416
 5478TIP3    H138069   1.851   4.600   8.321  0.5932 -2.1549  2.1090
 5478TIP3    H238070   1.882   4.562   8.178  0.8985  0.8717  1.3084
 5479TIP3   OH238071   4.419   5.477   6.103  0.0295 -0.1225 -0.4612
 5479TIP3    H138072   4.425   5.568   6.074  1.2913  0.1483  0.5541
 5479TIP3    H238073   4.354   5.479   6.173 -0.0469 -0.0338 -0.5340
 5480TIP3   OH238074   3.900   3.206   7.610  0.2543  0.3351  0.1930
 5480TIP3    H138075   3.851   3.284   7.636  0.0880  0.6951 -1.1071
 5480TIP3    H238076   3.868   3.137   7.668 -0.7998  0.8696  0.2727
 5481TIP3   OH238077   5.900   5.790   8.579  1.1601  0.1245 -0.3292
 5481TIP3    H138078   5.919   5.714   8.524  0.1845  1.1102 -2.1408
 5481TIP3    H238079   5.808   5.808   8.563  1.3188  1.5433  0.2380
 5482TIP3   OH238080   5.390   4.628   7.476  0.1012 -0.4634  0.5491
 5482TIP3    H138081   5.335   4.574   7.419 -0.2385 -1.1272  1.4943
 5482TIP3    H238082   5.331   4.657   7.546  0.8329 -0.7905  1.3116
 5483TIP3   OH238083   6.878   2.401   1.641  0.3237  0.4467 -0.5017
 5483TIP3    H138084   6.959   2.432   1.601  0.8173  1.0364  0.8918
 5483TIP3    H238085   6.905   2.370   1.728 -0.6150 -1.2705 -0.7719
 5484TIP3   OH238086   0.150   3.692   8.602  0.5045  0.4153  0.1619
 5484TIP3    H138087   0.077   3.753   8.604  2.1558  2.5343 -0.4238
 5484TIP3    H238088   0.221   3.740   8.560  1.4664 -2.4757 -1.8639
 5485TIP3   OH238089   6.106   4.432   0.696 -0.4318  0.2525  0.0522
 5485TIP3    H138090   6.187   4.459   0.738 -0.3838  0.6004 -0.2591
 5485TIP3    H238091   6.052   4.511   0.695 -1.4180 -0.3443  1.7047
 5486TIP3   OH238092   5.214   3.467   1.549  0.5890 -0.2091 -0.0541
 5486TIP3    H138093   5.183   3.446   1.637  0.8977 -0.0049  0.1035
 5486TIP3    H238094   5.286   3.406   1.534  2.3073  1.5161  0.8846
 5487TIP3   OH238095   3.441   3.245   2.587  0.7167  0.5972  0.5709
 5487TIP3    H138096   3.536   3.245   2.601  1.1129  0.0188 -1.7402
 5487TIP3    H238097   3.429   3.200   2.503 -1.3652  3.1302 -0.6142
 5488TIP3   OH238098   5.859   2.817   2.119 -0.3425  0.1387 -0.1366
 5488TIP3    H138099   5.818   2.825   2.032 -1.1142 -0.2767  0.1804
 5488TIP3    H238100   5.788   2.836   2.180  0.8256  3.3391  0.4181
 5489TIP3   OH238101   5.905   2.937   1.165  0.8828 -0.1532 -0.1117
 5489TIP3    H138102   5.897   2.894   1.250  0.1303 -0.2684 -0.2341
 5489TIP3    H238103   5.991   2.978   1.167  2.0558 -2.4299 -0.3458
 5490TIP3   OH238104   6.544   2.796   7.823 -0.3175 -0.8047 -0.8143
 5490TIP3    H138105   6.482   2.855   7.779 -1.1489 -1.5210 -0.6155
 5490TIP3    H238106   6.563   2.729   7.758 -0.8659 -1.3778 -0.3905
 5491TIP3   OH238107   4.122   4.438   6.751 -0.0938  0.5122 -0.4061
 5491TIP3    H138108   4.176   4.363   6.727 -0.0362  0.3320  0.2679
 5491TIP3    H238109   4.166   4.477   6.826  0.2365  1.6253 -1.1575
 5492TIP3   OH238110   2.675   0.793   8.473  0.2202  0.0467  0.6165
 5492TIP3    H138111   2.714   0.872   8.436 -1.9978  0.7002 -0.5285
 5492TIP3    H238112   2.725   0.721   8.434  0.8253  0.8411 -0.1220
 5493TIP3   OH238113   3.141   3.447   7.669 -0.0034 -0.0267  0.1398
 5493TIP3    H138114   3.222   3.492   7.692  0.1670  0.9036 -1.9823
 5493TIP3    H238115   3.102   3.502   7.601  0.0259 -2.8591 -2.3875
 5494TIP3   OH238116   1.838   5.425   8.469  0.6592  0.1247  0.4977
 5494TIP3    H138117   1.887   5.386   8.397 -0.2660  0.4086 -0.3153
 5494TIP3    H238118   1.900   5.429   8.542  2.0200  1.0129 -0.6604
 5495TIP3   OH238119   3.643   6.351   7.513 -0.8248  0.0256  0.0770
 5495TIP3    H138120   3.587   6.327   7.587 -0.6910  0.1244  0.2114
 5495TIP3    H238121   3.631   6.280   7.450  1.1371 -1.5399  1.3119
 5496TIP3   OH238122   1.466   0.708   7.807 -0.1753 -0.0975 -0.3799
 5496TIP3    H138123   1.561   0.701   7.798  0.0163 -0.2447  1.3877
 5496TIP3    H238124   1.436   0.618   7.818 -0.3050  0.0639  0.7002
 5497TIP3   OH238125   1.438   2.115   1.398 -0.1333 -0.5298  0.4263
 5497TIP3    H138126   1.444   2.081   1.308  0.0499 -0.7447  0.5203
 5497TIP3    H238127   1.400   2.203   1.387  2.0730  0.4244 -0.0837
 5498TIP3   OH238128   6.320   1.200   0.782  0.5711  0.5208  0.2908
 5498TIP3    H138129   6.355   1.222   0.868 -1.1813  1.3331  0.8446
 5498TIP3    H238130   6.324   1.104   0.778  0.5210  0.4641  1.3555
 5499TIP3   OH238131   5.581   1.550   1.996 -0.4561 -0.5884  0.4632
 5499TIP3    H138132   5.557   1.489   1.926 -2.1746  0.4487  0.0959
 5499TIP3    H238133   5.507   1.548   2.057  0.1044  0.0602  1.1925
 5500TIP3   OH238134   2.950   3.155   0.035  0.5418  0.2881  0.0731
 5500TIP3    H138135   2.964   3.241  -0.004  0.2470  0.5014  0.4287
 5500TIP3    H238136   3.019   3.146   0.100  2.5081 -1.0372 -2.0135
 5501TIP3   OH238137   0.365   2.042   7.174 -0.3782 -0.4548  0.4595
 5501TIP3    H138138   0.442   2.013   7.126 -0.9332 -2.2171  0.5789
 5501TIP3    H238139   0.396   2.115   7.228  0.8885 -0.3074 -0.4316
 5502TIP3   OH238140   0.289   1.658   1.820  0.3304  0.4555  0.0800
 5502TIP3    H138141   0.354   1.611   1.768  0.6079  0.0237  0.8034
 5502TIP3    H238142   0.266   1.735   1.767  1.5375  0.6928 -0.1160
 5503TIP3   OH238143   4.626   4.414   1.805  0.2841 -0.0639  0.4743
 5503TIP3    H138144   4.666   4.345   1.753  0.7650  0.3270  0.3188
 5503TIP3    H238145   4.659   4.495   1.767 -1.8376  0.3377 -0.6368
 5504TIP3   OH238146   0.361   0.214   1.689  0.4729  0.3055  0.3590
 5504TIP3    H138147   0.279   0.242   1.648  0.8617 -0.3737 -0.9225
 5504TIP3    H238148   0.333   0.172   1.771 -0.5179 -0.3243 -0.2664
 5505TIP3   OH238149   6.529   3.570   1.039 -0.6293  0.2142 -0.1530
 5505TIP3    H138150   6.455   3.630   1.054  0.7421  2.3301 -1.3151
 5505TIP3    H238151   6.522   3.545   0.947 -2.2925 -3.1624  0.7377
 5506TIP3   OH238152   2.898   6.718   7.798 -0.1769  0.2351 -0.8477
 5506TIP3    H138153   2.936   6.657   7.861  0.4956 -0.7617 -2.1828
 5506TIP3    H238154   2.851   6.782   7.853  0.9484 -0.1807  0.6892
 5507TIP3   OH238155   0.405   0.921   1.081  0.1864  0.0917  0.0589
 5507TIP3    H138156   0.460   0.934   1.158 -0.3693 -3.7992  1.3285
 5507TIP3    H238157   0.338   0.989   1.088 -0.7635 -1.0173  3.9791
 5508TIP3   OH238158   4.651   3.070   7.573 -0.0731 -0.3443 -0.3572
 5508TIP3    H138159   4.577   3.015   7.549 -1.1464  1.0157 -0.2549
 5508TIP3    H238160   4.659   3.058   7.668 -1.1216  0.6288 -0.1293
 5509TIP3   OH238161   5.649   2.917   2.296 -0.3422 -0.2277  0.1287
 5509TIP3    H138162   5.586   2.946   2.362 -0.9691 -0.0706 -0.5232
 5509TIP3    H238163   5.594   2.880   2.226  0.3554 -1.5899  0.2679
 5510TIP3   OH238164   2.318   2.530   1.391  0.1610 -0.2071  0.0174
 5510TIP3    H138165   2.364   2.541   1.475  0.0028 -1.2032  0.2501
 5510TIP3    H238166   2.226   2.527   1.415  0.0746  0.1550 -0.2679
 5511TIP3   OH238167   2.191   1.331   0.141  0.6259 -0.4349  0.7863
 5511TIP3    H138168   2.212   1.248   0.182  1.9806 -0.6883 -0.3765
 5511TIP3    H238169   2.267   1.353   0.088 -0.3319  0.7686 -0.1755
 5512TIP3   OH238170   3.257   1.154   8.001  0.0600 -0.2775  0.0958
 5512TIP3    H138171   3.299   1.068   7.992 -0.5213 -0.5474 -0.0489
 5512TIP3    H238172   3.253   1.187   7.911 -1.6966 -1.0511 -0.1486
 5513TIP3   OH238173   1.572   1.125   0.929 -0.1211  0.0823  0.2406
 5513TIP3    H138174   1.491   1.176   0.938  0.1039  0.4480  0.1827
 5513TIP3    H238175   1.562   1.053   0.991 -0.1063  0.6244  0.8758
 5514TIP3   OH238176   2.744   6.079   7.334  0.1490  0.0781 -0.1492
 5514TIP3    H138177   2.800   6.151   7.308 -0.3670  0.7076  0.4377
 5514TIP3    H238178   2.792   6.000   7.310  0.7036  0.6175 -0.8266
 5515TIP3   OH238179   2.310   3.143   0.004  0.3292  0.7217  0.0989
 5515TIP3    H138180   2.336   3.168   0.093 -0.7876 -0.8936  0.9570
 5515TIP3    H238181   2.365   3.067  -0.017  0.0290  0.5901 -0.2342
 5516TIP3   OH238182   6.369   2.854   0.214 -0.2858  0.1815  0.7125
 5516TIP3    H138183   6.444   2.914   0.207  0.0238 -0.3316 -0.7134
 5516TIP3    H238184   6.360   2.816   0.126 -2.1452  0.1248  0.8927
 5517TIP3   OH238185   1.189   6.634   7.983 -0.6368 -0.2662  0.5067
 5517TIP3    H138186   1.283   6.618   7.980 -0.4343  0.8829 -0.1545
 5517TIP3    H238187   1.150   6.550   8.005  0.2456 -1.8648 -3.1857
 5518TIP3   OH238188   4.419   5.892   0.969 -0.8149 -0.1824  0.4559
 5518TIP3    H138189   4.349   5.847   1.016 -1.1167 -0.3548 -0.1450
 5518TIP3    H238190   4.382   5.977   0.945 -1.4843 -0.9449 -1.4239
 5519TIP3   OH238191   0.765   5.368   2.007 -0.2615 -0.6363 -0.1150
 5519TIP3    H138192   0.842   5.334   1.963 -0.6233 -1.0724 -0.4207
 5519TIP3    H238193   0.769   5.332   2.095  1.4754  1.7366  0.8856
 5520TIP3   OH238194   1.775   2.970   7.722 -0.0860  0.4705  0.1132
 5520TIP3    H138195   1.827   2.973   7.642  0.3004  0.2994  0.3564
 5520TIP3    H238196   1.818   3.032   7.781  1.5503 -1.7155  1.3294
 5521TIP3   OH238197   6.518   2.427   2.192  0.1279 -0.1826  0.0962
 5521TIP3    H138198   6.555   2.511   2.165 -1.8084  0.7177  0.0838
 5521TIP3    H238199   6.437   2.420   2.142  0.5419 -2.3740 -0.3675
 5522TIP3   OH238200   4.345   3.509   1.835  0.0944 -0.0332  0.4155
 5522TIP3    H138201   4.300   3.516   1.750  2.3041 -0.0899 -0.8322
 5522TIP3    H238202   4.339   3.597   1.872  1.3336  0.7225 -1.0518
 5523TIP3   OH238203   4.674   6.634   1.387 -0.4444 -0.3449  0.2640
 5523TIP3    H138204   4.692   6.634   1.481  1.8172  0.5619 -0.1092
 5523TIP3    H238205   4.669   6.726   1.363 -1.3065 -0.5701 -0.4882
 5524TIP3   OH238206   4.311   2.047   0.686  0.1566 -0.2658  0.6037
 5524TIP3    H138207   4.236   2.016   0.736 -0.1824  0.4455  0.5433
 5524TIP3    H238208   4.344   1.969   0.642 -1.0789 -0.4330 -0.0742
 5525TIP3   OH238209   3.218   1.536   7.397 -0.0547  0.2684  0.6452
 5525TIP3    H138210   3.189   1.597   7.329  0.6359  0.0128  0.1074
 5525TIP3    H238211   3.260   1.592   7.462 -1.0713  0.5589  1.0701
 5526TIP3   OH238212   4.218   3.445   1.027  0.2995  0.6409  0.2162
 5526TIP3    H138213   4.247   3.355   1.041  0.1663  0.4838 -0.4476
 5526TIP3    H238214   4.283   3.482   0.966 -0.9532  0.2095 -1.4728
 5527TIP3   OH238215   1.149   6.867   8.165 -0.1472  0.2590 -0.7419
 5527TIP3    H138216   1.173   6.796   8.106 -1.6759 -0.6654 -0.3173
 5527TIP3    H238217   1.231   6.890   8.209  0.3187 -1.5748 -0.5541
 5528TIP3   OH238218   0.595   0.855   1.287 -0.0662 -0.3470  0.6310
 5528TIP3    H138219   0.666   0.919   1.278 -0.5338 -0.1647 -3.6279
 5528TIP3    H238220   0.637   0.770   1.275  0.0307 -0.6857  2.9060
 5529TIP3   OH238221   0.628   1.817   6.746 -0.0223  0.2006 -0.1755
 5529TIP3    H138222   0.576   1.890   6.779 -1.8589 -1.2148  0.2858
 5529TIP3    H238223   0.633   1.831   6.652 -2.5921 -0.3241 -0.4785
 5530TIP3   OH238224   4.257   0.611   0.530 -0.1077  0.1356  0.3869
 5530TIP3    H138225   4.240   0.689   0.582 -1.4206  0.3477 -0.3072
 5530TIP3    H238226   4.180   0.555   0.545 -0.3460  0.0558 -1.0060
 5531TIP3   OH238227   2.729   3.961   2.295 -0.0486 -0.6448 -0.0247
 5531TIP3    H138228   2.683   3.906   2.231  1.8289  0.0655 -2.1303
 5531TIP3    H238229   2.700   4.050   2.275 -1.0593 -0.5874  1.5889
 5532TIP3   OH238230   1.174   1.027   1.232  0.6804  0.1092 -0.4675
 5532TIP3    H138231   1.261   0.993   1.255  1.8126  2.1772 -1.4344
 5532TIP3    H238232   1.192   1.102   1.175 -1.6933  1.6159  0.6292
 5533TIP3   OH238233   5.539   5.801   6.693 -0.1312 -0.3152 -0.0314
 5533TIP3    H138234   5.507   5.819   6.782  0.4601  0.7088 -0.0103
 5533TIP3    H238235   5.587   5.718   6.701 -0.5040 -0.4877  0.4912
 5534TIP3   OH238236   0.364   4.214   7.101 -0.1782 -0.2793  0.2675
 5534TIP3    H138237   0.300   4.181   7.165 -0.8864 -1.4404 -0.9719
 5534TIP3    H238238   0.394   4.135   7.055  0.6699  0.4754 -0.4960
 5535TIP3   OH238239   4.263   1.670   0.141  0.3977  0.0045  0.0196
 5535TIP3    H138240   4.240   1.621   0.220 -1.1273 -2.0434 -1.5860
 5535TIP3    H238241   4.344   1.630   0.110  1.0182  0.8342  0.5322
 5536TIP3   OH238242   4.235   3.083   1.414 -0.2428  0.2665 -0.0486
 5536TIP3    H138243   4.239   2.989   1.397  0.4065  0.3383 -0.3088
 5536TIP3    H238244   4.305   3.099   1.478 -1.6461  0.2511  1.5852
 5537TIP3   OH238245   3.995   4.656   7.297 -0.0385 -0.1139 -0.1760
 5537TIP3    H138246   4.023   4.712   7.225  1.1032  0.1786  0.4764
 5537TIP3    H238247   4.058   4.584   7.297 -0.6167 -0.6305 -0.0742
 5538TIP3   OH238248   5.518   5.968   7.807  0.7435 -0.4489 -0.0307
 5538TIP3    H138249   5.494   5.982   7.716  1.3441  0.7440 -0.0197
 5538TIP3    H238250   5.445   6.004   7.857  0.9022 -0.1089 -0.0383
 5539TIP3   OH238251   5.380   2.276   6.689 -0.3246  0.1173  0.0180
 5539TIP3    H138252   5.416   2.363   6.675 -0.7772  0.2328 -0.4597
 5539TIP3    H238253   5.426   2.220   6.626 -0.2265  0.0654  0.1364
 5540TIP3   OH238254   6.530   2.642   0.392  0.0109 -0.3882  0.4654
 5540TIP3    H138255   6.528   2.658   0.298 -0.1362 -3.4740 -0.1667
 5540TIP3    H238256   6.438   2.632   0.417  0.0466  0.4437  0.9677
 5541TIP3   OH238257   0.915   5.152   0.006  0.3830 -0.0781  0.0484
 5541TIP3    H138258   0.829   5.191   0.020  0.7872  0.1135  2.3668
 5541TIP3    H238259   0.910   5.066   0.047  0.5369 -1.1812 -2.1048
 5542TIP3   OH238260   4.355   4.749   1.806  0.4606 -0.3536  0.0769
 5542TIP3    H138261   4.446   4.772   1.825  0.5243 -0.3918 -0.1846
 5542TIP3    H238262   4.354   4.729   1.713 -0.1360  1.2352 -0.2886
 5543TIP3   OH238263   6.786   2.287   0.232  0.2020 -0.4617  0.3959
 5543TIP3    H138264   6.775   2.341   0.154 -1.0461 -1.4735 -0.1492
 5543TIP3    H238265   6.874   2.308   0.263 -0.2657  1.9746  0.2817
 5544TIP3   OH238266   1.506   4.393   7.396  0.1150  0.1353  0.1745
 5544TIP3    H138267   1.558   4.473   7.383  0.7693 -0.3012  0.0435
 5544TIP3    H238268   1.553   4.326   7.347  0.1632 -0.5709  1.1637
 5545TIP3   OH238269   1.826   5.567   6.862  0.4789 -0.3037  0.4030
 5545TIP3    H138270   1.807   5.487   6.910  1.1813 -1.4727 -1.1702
 5545TIP3    H238271   1.743   5.589   6.819  0.0117  0.4144  1.6209
 5546TIP3   OH238272   5.957   2.578   0.761 -0.0769  0.2560  0.3745
 5546TIP3    H138273   5.873   2.531   0.766  0.1422 -0.2499 -0.5170
 5546TIP3    H238274   6.023   2.509   0.769  0.2541  0.5554  0.2050
 5547TIP3   OH238275   4.210   0.575   7.774  0.1924 -0.1911  0.3434
 5547TIP3    H138276   4.159   0.591   7.694 -0.2893 -0.8577  0.5162
 5547TIP3    H238277   4.285   0.635   7.766 -0.2226  0.2663 -0.2637
 5548TIP3   OH238278   0.501   3.140   7.593  0.2131 -0.3390 -0.4691
 5548TIP3    H138279   0.465   3.222   7.559 -1.3704 -0.2991  1.1425
 5548TIP3    H238280   0.573   3.168   7.651 -0.5216 -0.0285  0.3195
 5549TIP3   OH238281   1.624   1.377   7.770 -0.4577 -0.6466 -0.4852
 5549TIP3    H138282   1.636   1.427   7.689 -0.4690  0.1479 -0.0151
 5549TIP3    H238283   1.584   1.295   7.742 -4.7033  1.3172 -0.9350
 5550TIP3   OH238284   3.809   0.369   2.622  0.6704 -0.3825  0.0661
 5550TIP3    H138285   3.774   0.455   2.596  2.3518  0.6829  1.1319
 5550TIP3    H238286   3.903   0.382   2.624  0.8596 -1.6563  2.2613
 5551TIP3   OH238287   5.944   4.173   0.217  0.7172 -0.1709  0.2946
 5551TIP3    H138288   5.879   4.122   0.265  0.0445 -0.1039 -0.5085
 5551TIP3    H238289   5.953   4.254   0.267 -0.5591  0.2318 -0.0735
 5552TIP3   OH238290   4.159   2.383   7.375 -0.2049 -0.2845 -0.0429
 5552TIP3    H138291   4.253   2.391   7.393  0.3117  0.7175 -2.7440
 5552TIP3    H238292   4.154   2.325   7.299 -1.9491 -1.7255  1.0903
 5553TIP3   OH238293   1.178   6.581   8.437 -0.7273 -0.1458  0.2470
 5553TIP3    H138294   1.221   6.534   8.508  0.4175  0.8880  0.2809
 5553TIP3    H238295   1.250   6.623   8.390 -1.5712  0.1884 -0.7860
 5554TIP3   OH238296   4.987   1.352   1.271  0.1525  0.2877 -0.4777
 5554TIP3    H138297   5.041   1.310   1.204 -3.0945 -2.5963 -1.6035
 5554TIP3    H238298   4.928   1.410   1.222  2.1877  3.7086  0.7488
 5555TIP3   OH238299   4.762   4.633   1.643 -0.4696 -0.7548  0.1018
 5555TIP3    H138300   4.706   4.710   1.632  2.0821  1.3859  0.7290
 5555TIP3    H238301   4.788   4.609   1.555 -0.5759 -0.2794 -0.0651
 5556TIP3   OH238302   6.602   1.560   7.887 -0.2534  0.3169  0.0933
 5556TIP3    H138303   6.667   1.548   7.957 -0.3006  0.5651  0.1817
 5556TIP3    H238304   6.517   1.554   7.932 -0.2960 -0.2169 -0.0553
 5557TIP3   OH238305   4.260   1.315   0.346  0.0407  0.7194  0.6614
 5557TIP3    H138306   4.333   1.279   0.397 -0.4893 -0.4293  0.6285
 5557TIP3    H238307   4.237   1.396   0.392 -0.3274 -0.2114  2.1700
 5558TIP3   OH238308   5.323   6.615   0.340  0.6685  0.3740 -0.7238
 5558TIP3    H138309   5.336   6.522   0.362  2.5412  1.1174  1.7966
 5558TIP3    H238310   5.234   6.634   0.369  0.4790 -0.4873 -0.6949
 5559TIP3   OH238311   1.980   2.513   1.331  0.8437 -0.0431 -0.4427
 5559TIP3    H138312   1.927   2.453   1.383  0.0029  0.6161 -0.5121
 5559TIP3    H238313   1.947   2.504   1.242 -0.5445  1.7955 -0.1749
 5560TIP3   OH238314   0.914   4.286   8.488  0.0443 -0.0175  0.2820
 5560TIP3    H138315   0.920   4.269   8.582  0.8844 -1.9404 -0.0585
 5560TIP3    H238316   1.005   4.285   8.458 -0.2905 -1.7228 -0.8535
 5561TIP3   OH238317   0.904   3.260   0.345 -0.2367 -0.3144 -0.4161
 5561TIP3    H138318   0.860   3.228   0.267 -0.1611  0.9843 -1.0235
 5561TIP3    H238319   0.991   3.220   0.342 -0.9481 -1.9841  0.1880
 5562TIP3   OH238320   4.037   0.475   0.582 -0.1350 -0.1691 -0.4337
 5562TIP3    H138321   4.006   0.406   0.641 -0.5456  0.7362  0.4379
 5562TIP3    H238322   3.961   0.532   0.571 -0.1959 -0.5497 -2.2042
 5563TIP3   OH238323   1.409   3.072   7.469 -0.5564 -0.1961 -0.3442
 5563TIP3    H138324   1.416   3.044   7.378 -1.6511 -1.7262  0.0026
 5563TIP3    H238325   1.405   2.990   7.519 -0.2714  0.6108  1.0567
 5564TIP3   OH238326   0.705   3.134   1.480  0.5369 -0.2796  0.1267
 5564TIP3    H138327   0.728   3.127   1.572  0.0087 -2.1685  0.1600
 5564TIP3    H238328   0.613   3.107   1.476  0.8658 -1.3558 -1.0592
 5565TIP3   OH238329   6.716   1.372   1.179 -0.4061  0.1595 -0.6651
 5565TIP3    H138330   6.764   1.321   1.244 -0.3756 -0.0993 -0.8879
 5565TIP3    H238331   6.655   1.309   1.140 -0.5406  0.3533 -0.7711
 5566TIP3   OH238332   6.325   5.691   1.772 -0.2917  0.4805 -1.0552
 5566TIP3    H138333   6.385   5.654   1.836  0.8030  0.0464 -2.2928
 5566TIP3    H238334   6.336   5.637   1.694 -1.6511  0.9449 -1.6080
 5567TIP3   OH238335   4.015   6.541   8.155 -0.8495 -0.0123  0.1366
 5567TIP3    H138336   3.947   6.572   8.214 -0.1618  0.6884  0.5704
 5567TIP3    H238337   4.096   6.555   8.203 -0.3637 -0.3880 -0.5708
 5568TIP3   OH238338   3.272   5.840   6.621 -0.0183  0.6528  0.3483
 5568TIP3    H138339   3.253   5.783   6.546 -0.0990  1.5003 -0.3050
 5568TIP3    H238340   3.366   5.828   6.637 -0.4268 -1.2134  1.5775
 5569TIP3   OH238341   6.688   3.160   0.481  0.3474  0.0421  0.2088
 5569TIP3    H138342   6.599   3.146   0.451 -0.0466  3.1460 -0.4112
 5569TIP3    H238343   6.679   3.204   0.565  1.2903  0.2402  0.2245
 5570TIP3   OH238344   2.045   0.334   6.463 -0.1268  0.4879 -0.2012
 5570TIP3    H138345   1.958   0.349   6.501  0.9490  0.0449  2.6295
 5570TIP3    H238346   2.038   0.249   6.420 -1.1723  0.6130 -0.3052
 5571TIP3   OH238347   3.359   4.504   6.848  0.1039  0.3728 -0.8744
 5571TIP3    H138348   3.407   4.560   6.909 -0.8646  0.7988 -0.4740
 5571TIP3    H238349   3.381   4.538   6.762  0.7216  0.3962 -0.7077
 5572TIP3   OH238350   2.298   6.053   1.401  0.3716  0.3878  0.4363
 5572TIP3    H138351   2.236   6.086   1.467  2.5079  1.6097  1.9476
 5572TIP3    H238352   2.353   5.991   1.449  0.5817 -0.4045 -0.7851
 5573TIP3   OH238353   6.597   6.604   7.211 -0.6357  0.3720  0.0669
 5573TIP3    H138354   6.584   6.625   7.304  2.7521  2.4255  0.2478
 5573TIP3    H238355   6.509   6.591   7.177 -2.0909  0.7409  3.3035
 5574TIP3   OH238356   1.555   6.282   6.753  0.2695 -0.1928  0.2431
 5574TIP3    H138357   1.579   6.192   6.733 -1.0741 -0.3762 -0.6442
 5574TIP3    H238358   1.460   6.282   6.753  0.2402  1.3648 -0.3860
 5575TIP3   OH238359   2.185   5.812   1.040  0.0810 -0.5954 -0.1899
 5575TIP3    H138360   2.139   5.894   1.061 -1.0497 -1.5589  1.2872
 5575TIP3    H238361   2.232   5.832   0.959 -1.3218  1.0750 -0.6659
 5576TIP3   OH238362   4.146   3.201   0.129  0.2140  0.8851  0.4942
 5576TIP3    H138363   4.175   3.152   0.052  1.8200 -0.2522  1.7548
 5576TIP3    H238364   4.224   3.246   0.160 -0.0447  0.2763  2.1843
 5577TIP3   OH238365   0.998   2.647   8.061 -0.4847 -0.0602  0.4196
 5577TIP3    H138366   1.089   2.663   8.087 -1.1748  1.4184  2.1787
 5577TIP3    H238367   0.952   2.632   8.144 -1.5166 -2.9291 -0.5608
 5578TIP3   OH238368   5.307   0.992   1.244 -0.8646  0.2605  0.2688
 5578TIP3    H138369   5.297   1.087   1.248 -0.9348  0.2301  1.2848
 5578TIP3    H238370   5.230   0.958   1.291  0.2440 -0.2151  1.8102
 5579TIP3   OH238371   1.548   5.077   7.758 -0.5296  0.5007 -0.0108
 5579TIP3    H138372   1.542   4.982   7.753 -1.1985  0.5583 -0.3062
 5579TIP3    H238373   1.616   5.093   7.824 -0.3363 -0.1762 -0.0379
 5580TIP3   OH238374   6.505   2.474   0.643  0.1347  0.1075 -0.2069
 5580TIP3    H138375   6.453   2.408   0.690 -0.3843  0.1242 -0.7366
 5580TIP3    H238376   6.448   2.501   0.570  1.5562 -1.1758 -1.8846
 5581TIP3   OH238377   1.132   2.532   1.563  0.0766 -0.8596  0.1066
 5581TIP3    H138378   1.065   2.571   1.507  0.9580  0.1458 -0.2668
 5581TIP3    H238379   1.115   2.569   1.650  0.6997  0.1426 -0.1769
 5582TIP3   OH238380   1.577   6.142   1.963  0.8354  0.2211 -0.3071
 5582TIP3    H138381   1.630   6.066   1.940 -0.5028 -1.0773  0.6858
 5582TIP3    H238382   1.583   6.148   2.058 -0.4045  0.3207 -0.2153
 5583TIP3   OH238383   0.595   5.711   2.628 -0.3060  0.0194 -0.5073
 5583TIP3    H138384   0.600   5.730   2.534  0.8484  0.2731 -0.4101
 5583TIP3    H238385   0.685   5.720   2.659 -0.7148  0.1673  0.6793
 5584TIP3   OH238386   6.211   5.768   0.594  0.0083 -0.2052 -0.2952
 5584TIP3    H138387   6.224   5.679   0.562  1.6149  0.2527 -0.9735
 5584TIP3    H238388   6.275   5.778   0.664  0.3816  0.6533 -0.7398
 5585TIP3   OH238389   6.772   3.433   7.951 -0.0265  0.4046  0.4096
 5585TIP3    H138390   6.743   3.442   8.042  0.1659  2.5129  0.3282
 5585TIP3    H238391   6.691   3.434   7.899 -0.1095 -0.2756  0.5211
 5586TIP3   OH238392   2.292   6.028   2.361  0.6092 -0.3110 -0.2326
 5586TIP3    H138393   2.260   6.103   2.311  1.2085 -0.4643 -0.8614
 5586TIP3    H238394   2.340   6.066   2.435  0.6163 -0.0790 -0.3577
 5587TIP3   OH238395   4.307   0.507   6.650 -0.0719  0.3527  0.2329
 5587TIP3    H138396   4.216   0.531   6.634 -0.0730  0.5507  0.5242
 5587TIP3    H238397   4.305   0.413   6.665 -0.2795  0.4111  0.5898
 5588TIP3   OH238398   0.587   0.096   0.208 -0.0912 -0.7287  0.6309
 5588TIP3    H138399   0.589   0.148   0.288 -1.6837 -0.7589  0.7229
 5588TIP3    H238400   0.519   0.031   0.224 -2.1954  0.7592 -1.6192
 5589TIP3   OH238401   4.533   4.008   1.410 -0.1441  0.6600 -0.1015
 5589TIP3    H138402   4.593   3.992   1.337 -0.0139  0.2369  0.0966
 5589TIP3    H238403   4.580   4.069   1.467  1.3399 -1.8512  1.5273
 5590TIP3   OH238404   3.440   1.682   7.234  0.1531  0.4921  0.0093
 5590TIP3    H138405   3.523   1.653   7.271 -0.4621  0.3669  1.3778
 5590TIP3    H238406   3.416   1.615   7.171  1.0855  0.5412 -0.4127
 5591TIP3   OH238407   3.299   6.141   0.136  0.3700  0.3899 -0.1731
 5591TIP3    H138408   3.249   6.072   0.093  3.0377 -0.8296 -1.5722
 5591TIP3    H238409   3.339   6.190   0.065  1.0712  1.3891  0.8669
 5592TIP3   OH238410   5.853   1.259   2.142  0.3882 -0.3937 -0.0019
 5592TIP3    H138411   5.884   1.235   2.054  0.3344 -2.3161  0.4509
 5592TIP3    H238412   5.805   1.181   2.171 -1.7947  1.1346  0.7431
 5593TIP3   OH238413   1.990   0.154   0.618 -0.3427 -0.2087  0.1556
 5593TIP3    H138414   2.038   0.078   0.653  0.1204 -0.2589 -0.5733
 5593TIP3    H238415   2.029   0.229   0.662 -0.9677 -0.3975  1.0653
 5594TIP3   OH238416   6.565   4.842   1.353 -0.2192 -0.1239  0.1369
 5594TIP3    H138417   6.632   4.898   1.393 -0.1935 -0.9436  1.3036
 5594TIP3    H238418   6.601   4.754   1.360 -1.5687 -0.6316  1.1834
 5595TIP3   OH238419   5.134   4.459   1.638  0.3008  0.3067 -0.5767
 5595TIP3    H138420   5.097   4.511   1.566  2.7327  1.2711 -1.2383
 5595TIP3    H238421   5.213   4.420   1.601 -0.6393 -2.7907  0.3426
 5596TIP3   OH238422   2.020   1.709   6.917  0.6221  0.4469  0.3332
 5596TIP3    H138423   2.043   1.649   6.847 -0.7758 -0.4049  0.5872
 5596TIP3    H238424   1.927   1.695   6.933  1.0379  0.0254  2.8877
 5597TIP3   OH238425   1.914   1.082   0.640  0.4819  0.8366 -0.3954
 5597TIP3    H138426   1.829   1.039   0.647  1.0161 -0.2273 -0.2083
 5597TIP3    H238427   1.894   1.174   0.625 -0.7012  0.8015  0.8433
 5598TIP3   OH238428   4.824   0.251   0.618  0.3083  0.0549 -0.1170
 5598TIP3    H138429   4.785   0.335   0.643 -0.9282 -0.4595 -0.2605
 5598TIP3    H238430   4.787   0.188   0.680  0.4397 -0.5578 -0.6509
 5599TIP3   OH238431   2.236   4.055   8.607  0.3213 -0.3029 -0.3193
 5599TIP3    H138432   2.239   4.142   8.646  0.2809 -0.6973  0.5729
 5599TIP3    H238433   2.308   4.055   8.543  1.2109 -0.0577  0.6423
 5600TIP3   OH238434   2.648   2.493   2.450 -0.0940  0.5259 -0.4662
 5600TIP3    H138435   2.578   2.437   2.416 -0.7985  0.1855  1.4095
 5600TIP3    H238436   2.725   2.437   2.453 -0.7255 -0.3295  1.1302
 5601TIP3   OH238437   6.707   3.626   0.444  0.5557 -0.0139 -0.3026
 5601TIP3    H138438   6.645   3.562   0.479  0.0383  1.1343  0.9710
 5601TIP3    H238439   6.690   3.626   0.350 -1.2703  0.1120 -0.0215
 5602TIP3   OH238440   0.954   0.191   7.565  0.1132 -0.2181 -0.2299
 5602TIP3    H138441   1.041   0.156   7.579  1.2355  1.6123 -2.0002
 5602TIP3    H238442   0.896   0.116   7.572  1.8985 -1.6086  0.3113
 5603TIP3   OH238443   2.082   3.889   1.687 -0.1109 -0.2289  0.9101
 5603TIP3    H138444   2.167   3.932   1.696  0.1991 -0.0541 -1.9660
 5603TIP3    H238445   2.051   3.915   1.600 -2.1667 -1.9136  1.0657
 5604TIP3   OH238446   2.917   0.428   2.275  0.0125  0.4384  0.1114
 5604TIP3    H138447   2.997   0.391   2.237 -0.8031 -0.4393 -0.8190
 5604TIP3    H238448   2.857   0.353   2.281 -1.1471  1.2976 -0.3264
 5605TIP3   OH238449   2.801   2.444   7.845  0.3353  0.0822 -0.4632
 5605TIP3    H138450   2.717   2.402   7.830  0.3693  0.0616 -0.5979
 5605TIP3    H238451   2.860   2.405   7.781  0.6822 -0.5821  0.2468
 5606TIP3   OH238452   4.909   1.934   8.511 -0.4284 -0.2864 -0.3885
 5606TIP3    H138453   4.892   2.009   8.568 -0.0605  0.2347 -0.9475
 5606TIP3    H238454   4.852   1.948   8.436 -4.7993 -3.5118  1.8857
 5607TIP3   OH238455   2.740   1.488   2.574 -0.4847  0.2172  0.0371
 5607TIP3    H138456   2.767   1.552   2.640  0.6422  0.0698 -0.2658
 5607TIP3    H238457   2.695   1.540   2.508 -2.0807  0.2987  1.1446
 5608TIP3   OH238458   1.299   6.160   6.992  0.0555 -0.1942 -0.4281
 5608TIP3    H138459   1.301   6.224   6.920 -0.0619  0.6041  0.2615
 5608TIP3    H238460   1.210   6.126   6.992 -0.7182  1.6576  0.8931
 5609TIP3   OH238461   6.446   1.868   1.565  0.2385 -0.1534 -0.3086
 5609TIP3    H138462   6.428   1.961   1.581  0.9903 -0.2330  1.0728
 5609TIP3    H238463   6.537   1.857   1.590 -0.0201 -1.4077  0.0969
 5610TIP3   OH238464   3.087   0.522   1.202  0.1721  0.6470  0.3882
 5610TIP3    H138465   3.074   0.443   1.150 -0.2441  1.4612 -0.7924
 5610TIP3    H238466   3.080   0.493   1.293 -1.7770 -0.3853 -0.0319
 5611TIP3   OH238467   1.096   2.038   8.443  0.4730  0.8026  0.7459
 5611TIP3    H138468   1.115   2.130   8.425  1.3813  0.2410 -1.5324
 5611TIP3    H238469   1.134   1.991   8.369 -5.0305 -0.9879 -1.4589
 5612TIP3   OH238470   5.730   0.443   0.676  0.5566  0.3030 -0.2271
 5612TIP3    H138471   5.779   0.415   0.753  1.7418  0.8930 -0.7400
 5612TIP3    H238472   5.713   0.536   0.690 -0.6469  0.0550  0.0506
 5613TIP3   OH238473   3.727   2.077   2.181 -0.9675  0.0060 -0.6258
 5613TIP3    H138474   3.648   2.119   2.148 -1.2640  0.5160  0.6573
 5613TIP3    H238475   3.695   2.003   2.233 -0.6455  0.5831  0.4184
 5614TIP3   OH238476   5.566   3.099   1.399 -0.7261 -0.2785  0.3944
 5614TIP3    H138477   5.638   3.056   1.445 -0.2244  1.0448  0.8975
 5614TIP3    H238478   5.609   3.158   1.337 -1.4023 -1.3532 -1.1278
 5615TIP3   OH238479   4.906   4.021   7.143 -0.4208 -0.3389 -0.4517
 5615TIP3    H138480   4.984   4.008   7.089 -0.4400  0.4660 -0.6939
 5615TIP3    H238481   4.893   3.938   7.189  1.3157 -0.0902  0.5563
 5616TIP3   OH238482   0.192   6.350   8.346 -0.1550 -0.0564 -0.5242
 5616TIP3    H138483   0.271   6.297   8.352 -1.5589 -2.3749 -1.0688
 5616TIP3    H238484   0.176   6.379   8.435  0.0858 -1.5187  0.0333
 5617TIP3   OH238485   0.947   2.013   7.321  0.1753 -0.2679  0.3183
 5617TIP3    H138486   0.853   2.015   7.340 -0.0420  2.8412 -0.5319
 5617TIP3    H238487   0.952   2.004   7.226  0.5072  2.9097 -0.0638
 5618TIP3   OH238488   3.671   4.889   7.745  0.1798 -0.2737 -0.2344
 5618TIP3    H138489   3.641   4.801   7.768 -1.9536 -0.2293 -2.5218
 5618TIP3    H238490   3.592   4.943   7.744  1.4718  1.8122  1.3992
 5619TIP3   OH238491   1.672   5.946   0.934 -0.0146 -0.3386  0.2520
 5619TIP3    H138492   1.679   5.937   0.839 -0.5170 -0.2570  0.2058
 5619TIP3    H238493   1.605   6.013   0.947 -0.2605 -0.6653  0.6723
 5620TIP3   OH238494   1.118   6.914   0.761  0.4046  0.4622  0.7144
 5620TIP3    H138495   1.048   6.943   0.819 -0.3208  1.9503 -0.8202
 5620TIP3    H238496   1.166   6.848   0.812 -0.5072  1.3061  2.7699
 5621TIP3   OH238497   2.922   6.577   8.213  0.4064 -0.5395 -0.3581
 5621TIP3    H138498   2.869   6.517   8.161 -0.8744  2.0668 -2.2707
 5621TIP3    H238499   2.861   6.644   8.243  2.0879  1.0540 -0.2681
 5622TIP3   OH238500   0.911   0.072   0.940  0.4081  0.5461 -0.3045
 5622TIP3    H138501   0.852   0.142   0.912  0.0279  0.2076 -0.3758
 5622TIP3    H238502   0.853   0.007   0.980  0.9749  1.2015  1.6982
 5623TIP3   OH238503   5.046   6.582   7.517  0.3162 -0.0542  0.4091
 5623TIP3    H138504   4.984   6.513   7.494 -0.4861  0.3904  1.1797
 5623TIP3    H238505   4.991   6.659   7.533  1.1866  0.7510 -0.3586
 5624TIP3   OH238506   3.283   6.701   7.600 -0.0176 -0.1298  0.1064
 5624TIP3    H138507   3.198   6.744   7.614  1.0614  2.2776 -0.2722
 5624TIP3    H238508   3.347   6.763   7.632  1.6996 -1.3315 -0.8480
 5625TIP3   OH238509   6.217   2.327   1.133 -0.1395 -1.0141 -0.2701
 5625TIP3    H138510   6.140   2.317   1.077 -0.4985 -2.0669  0.3639
 5625TIP3    H238511   6.256   2.240   1.135 -0.6034 -1.2257  1.7388
 5626TIP3   OH238512   5.174   1.675   2.317  0.1230  0.4458 -0.0560
 5626TIP3    H138513   5.103   1.698   2.377  0.0000 -0.2172  0.0612
 5626TIP3    H238514   5.247   1.654   2.374  0.0824  0.0612 -0.1445
 5627TIP3   OH238515   5.887   3.629   8.534  0.6884  0.1904 -0.1340
 5627TIP3    H138516   5.850   3.714   8.511 -1.2268 -0.7013 -0.6386
 5627TIP3    H238517   5.866   3.617   8.626 -1.1944 -0.6808 -0.6251
 5628TIP3   OH238518   5.291   6.546   8.540 -0.1721  0.1710  0.6280
 5628TIP3    H138519   5.298   6.633   8.501  1.4415  0.3950  1.3622
 5628TIP3    H238520   5.346   6.490   8.486 -1.5981 -0.5529 -0.1504
 5629TIP3   OH238521   2.299   2.472   0.217 -0.3976 -0.1515 -0.1434
 5629TIP3    H138522   2.310   2.432   0.303  2.1886  0.8889  0.1187
 5629TIP3    H238523   2.205   2.470   0.201 -0.8516 -1.3358  2.2263
 5630TIP3   OH238524   6.422   6.334   8.094 -0.4178 -0.9174  0.8099
 5630TIP3    H138525   6.371   6.411   8.068 -1.2235 -1.7164 -0.0821
 5630TIP3    H238526   6.483   6.367   8.159 -1.2303  0.3343  0.9895
 5631TIP3   OH238527   5.154   6.159   1.577  0.0443  0.4019  0.0525
 5631TIP3    H138528   5.128   6.068   1.566  1.1049 -0.1365  1.7420
 5631TIP3    H238529   5.208   6.160   1.655  0.5730  2.3925 -0.2768
 5632TIP3   OH238530   5.554   1.802   7.785 -0.3416 -0.6436  0.7322
 5632TIP3    H138531   5.490   1.847   7.840 -0.7863  0.5077 -0.6570
 5632TIP3    H238532   5.506   1.781   7.704  0.5353 -1.4505  0.3973
 5633TIP3   OH238533   5.195   4.958   7.592 -0.6431  0.3241 -0.0123
 5633TIP3    H138534   5.134   4.983   7.661 -0.3758  0.0892  0.3126
 5633TIP3    H238535   5.265   5.023   7.598 -0.5532  0.2234  0.0292
 5634TIP3   OH238536   2.495   2.214   0.697  0.6368  0.5791  0.0644
 5634TIP3    H138537   2.515   2.123   0.719  2.8559  1.4086  1.7811
 5634TIP3    H238538   2.420   2.236   0.753 -1.4124 -0.7338 -1.9561
 5635TIP3   OH238539   0.284   1.361   7.420 -0.3980 -0.3830 -0.5387
 5635TIP3    H138540   0.228   1.294   7.459  0.3981 -0.8067 -0.1051
 5635TIP3    H238541   0.267   1.440   7.471  0.2773 -0.8110  0.3596
 5636TIP3   OH238542   4.200   4.185   1.620  0.0647 -0.2996 -0.4427
 5636TIP3    H138543   4.120   4.151   1.580  0.3115 -0.0011 -1.2037
 5636TIP3    H238544   4.192   4.160   1.712 -1.5265  0.8754 -0.2164
 5637TIP3   OH238545   6.690   3.060   8.518  0.0354  0.2633 -0.5512
 5637TIP3    H138546   6.644   3.054   8.434  0.4463  1.2591 -0.8607
 5637TIP3    H238547   6.783   3.057   8.495  0.2200  2.8842 -0.3958
 5638TIP3   OH238548   1.802   2.639   7.836 -0.2443  0.0231  0.0812
 5638TIP3    H138549   1.848   2.576   7.892 -1.4130  0.0856  1.1691
 5638TIP3    H238550   1.854   2.643   7.756  0.1066 -2.0180  0.1428
 5639TIP3   OH238551   3.717   5.465   8.282  0.1481  0.0868 -0.0564
 5639TIP3    H138552   3.714   5.524   8.358  0.4661 -0.8701  0.7283
 5639TIP3    H238553   3.637   5.414   8.288 -0.4112  0.8183 -1.0671
 5640TIP3   OH238554   3.611   3.583   7.420 -0.5213  0.3159 -0.3089
 5640TIP3    H138555   3.613   3.616   7.510 -1.3548  1.5621 -0.7215
 5640TIP3    H238556   3.699   3.547   7.406 -0.1916  0.6461  0.8110
 5641TIP3   OH238557   3.666   1.686   1.624  0.3026 -0.1309  0.1913
 5641TIP3    H138558   3.702   1.652   1.706  1.3406  1.0925  0.2694
 5641TIP3    H238559   3.707   1.631   1.556 -0.6562 -1.2269  0.4589
 5642TIP3   OH238560   4.310   4.223   7.829  0.4388  1.1006 -0.0377
 5642TIP3    H138561   4.330   4.214   7.736 -0.2813 -0.4422 -0.0727
 5642TIP3    H238562   4.248   4.296   7.833 -1.4475 -0.3666 -1.1067
 5643TIP3   OH238563   6.072   6.024   1.989 -0.5149 -0.2755  0.3553
 5643TIP3    H138564   6.028   5.982   2.063 -1.2530  0.1968  0.1989
 5643TIP3    H238565   6.085   5.953   1.925 -2.0324 -0.2422 -0.0378
 5644TIP3   OH238566   2.524   2.154   0.263 -0.1371  0.2006  0.1425
 5644TIP3    H138567   2.580   2.221   0.223  1.5603 -2.1594 -1.7727
 5644TIP3    H238568   2.581   2.112   0.327 -0.8262 -0.1014  0.5560
 5645TIP3   OH238569   5.170   1.424   1.848  0.2046 -0.0699  0.0331
 5645TIP3    H138570   5.184   1.462   1.935  1.3864 -0.5543  0.0766
 5645TIP3    H238571   5.177   1.330   1.862 -0.3936 -0.1885 -0.4602
 5646TIP3   OH238572   6.344   1.883   6.877  0.2801  0.5825 -0.2008
 5646TIP3    H138573   6.266   1.916   6.833 -0.3769  0.6255  0.9626
 5646TIP3    H238574   6.317   1.800   6.917  0.9448  0.3875 -0.1397
 5647TIP3   OH238575   5.763   0.809   0.100 -0.1661  0.0444  0.7371
 5647TIP3    H138576   5.682   0.766   0.128 -0.0300  0.0860  1.1961
 5647TIP3    H238577   5.772   0.784   0.008 -2.3441  2.5670 -0.2702
 5648TIP3   OH238578   6.258   3.598   6.912 -0.5907  0.3902  0.3710
 5648TIP3    H138579   6.242   3.589   7.006 -0.9839 -1.1701  0.1880
 5648TIP3    H238580   6.185   3.652   6.880  0.1286  1.8456  1.1007
 5649TIP3   OH238581   5.678   0.849   8.364  0.2336 -0.0476  0.3663
 5649TIP3    H138582   5.619   0.916   8.330  0.7848  0.0518 -0.4391
 5649TIP3    H238583   5.750   0.898   8.404 -0.4177 -0.1649  1.7297
 5650TIP3   OH238584   5.035   3.502   1.237  0.8344  0.1125 -0.2972
 5650TIP3    H138585   5.075   3.562   1.174  0.3699 -1.3106 -1.9904
 5650TIP3    H238586   4.968   3.554   1.281  0.8045  0.9740 -1.3400
 5651TIP3   OH238587   2.140   5.822   1.570  0.2020  0.1772 -0.5105
 5651TIP3    H138588   2.081   5.828   1.495 -0.9512  2.8340  0.4880
 5651TIP3    H238589   2.129   5.733   1.603 -0.7357 -0.4076 -2.2905
 5652TIP3   OH238590   3.600   3.243   7.467  0.1077 -0.2988 -0.0289
 5652TIP3    H138591   3.640   3.330   7.470  0.5352 -0.5069  1.4374
 5652TIP3    H238592   3.664   3.188   7.423  1.4926 -0.6091  2.2267
 5653TIP3   OH238593   2.288   0.689   1.275  0.4440  0.0788 -0.3194
 5653TIP3    H138594   2.277   0.696   1.370 -0.2485 -0.3507 -0.3635
 5653TIP3    H238595   2.371   0.643   1.264 -0.9266 -2.7300  0.1563
 5654TIP3   OH238596   6.883   2.643   1.349  0.0598 -0.0520  0.2340
 5654TIP3    H138597   6.964   2.598   1.375 -0.1326 -0.3726  0.2766
 5654TIP3    H238598   6.813   2.585   1.379 -0.2954  1.5897  2.9251
 5655TIP3   OH238599   3.278   1.681   2.829  0.3064  0.0744 -0.4828
 5655TIP3    H138600   3.227   1.605   2.801 -0.6607  0.6114 -0.2088
 5655TIP3    H238601   3.214   1.739   2.870  0.6243  2.0529 -2.6072
 5656TIP3   OH238602   3.241   1.550   1.363 -0.3099  0.0908 -0.1655
 5656TIP3    H138603   3.179   1.620   1.382 -2.4987 -0.8460 -3.1421
 5656TIP3    H238604   3.196   1.470   1.390  0.9154 -0.4433  0.4106
 5657TIP3   OH238605   5.203   1.652   8.088  0.1188 -0.1526  0.0357
 5657TIP3    H138606   5.270   1.718   8.067  1.1128 -1.2109 -0.2504
 5657TIP3    H238607   5.127   1.703   8.115  0.5540  1.1414 -1.0362
 5658TIP3   OH238608   5.844   0.154   2.445  0.4526  0.4731 -0.1028
 5658TIP3    H138609   5.828   0.222   2.380  1.2678 -1.0822 -2.0358
 5658TIP3    H238610   5.757   0.127   2.474  0.1279  2.7541  1.2294
 5659TIP3   OH238611   5.375   2.551   8.347 -1.1455  0.0634 -0.1642
 5659TIP3    H138612   5.387   2.456   8.339  2.3328  0.3362  0.3413
 5659TIP3    H238613   5.443   2.578   8.408 -2.3680  2.8604  0.0635
 5660TIP3   OH238614   2.213   0.351   0.071  0.0831 -0.0841 -0.0995
 5660TIP3    H138615   2.138   0.293   0.051 -0.3780  0.4820 -0.0323
 5660TIP3    H238616   2.251   0.370  -0.014  1.1613 -1.6782 -0.0246
 5661TIP3   OH238617   5.302   3.079   8.499 -0.0500  0.1436 -0.0776
 5661TIP3    H138618   5.259   3.126   8.428 -1.0357  2.3538  1.8380
 5661TIP3    H238619   5.256   3.108   8.578 -0.4174 -3.7779  1.3568
 5662TIP3   OH238620   6.295   2.888   1.144 -0.0984  0.1536 -0.4168
 5662TIP3    H138621   6.220   2.829   1.136 -0.1407  0.1058  0.2854
 5662TIP3    H238622   6.355   2.843   1.203 -0.9159  1.5544  1.6023
 5663TIP3   OH238623   6.669   2.724   2.799 -0.3702 -0.0526 -0.4965
 5663TIP3    H138624   6.609   2.671   2.746 -0.1099 -1.6493  0.7324
 5663TIP3    H238625   6.616   2.752   2.874 -0.0563  0.0500 -0.3137
 5664TIP3   OH238626   4.230   3.740   2.391  0.0763 -0.1269 -0.3890
 5664TIP3    H138627   4.309   3.724   2.442  0.3526  2.9448  0.3272
 5664TIP3    H238628   4.252   3.815   2.335 -1.3227 -1.2220 -2.5592
 5665TIP3   OH238629   6.413   4.632   8.614 -0.0353  0.2183  0.2534
 5665TIP3    H138630   6.443   4.561   8.670 -0.2864  0.0680  0.1996
 5665TIP3    H238631   6.366   4.691   8.672 -0.9478 -0.3167  0.0823
 5666TIP3   OH238632   2.117   1.133   1.831 -0.2240  0.4797 -0.0331
 5666TIP3    H138633   2.157   1.166   1.912 -0.4785  0.6968  0.0061
 5666TIP3    H238634   2.081   1.048   1.855 -0.3924  0.5902  0.1127
 5667TIP3   OH238635   6.656   5.124   8.134 -0.4178  0.0167  0.5906
 5667TIP3    H138636   6.661   5.076   8.217 -1.0115  1.0805  1.2575
 5667TIP3    H238637   6.596   5.072   8.081 -2.0541  0.6328  1.7596
 5668TIP3   OH238638   1.566   2.854   7.557 -0.3256  0.5354  0.4689
 5668TIP3    H138639   1.636   2.868   7.621  0.3049  0.4565 -0.1846
 5668TIP3    H238640   1.612   2.828   7.477 -1.1781 -1.0478  0.4441
 5669TIP3   OH238641   0.064   0.265   8.159 -0.5135 -0.2168 -0.1682
 5669TIP3    H138642  -0.004   0.332   8.167 -0.0142  0.1782  1.0405
 5669TIP3    H238643   0.135   0.296   8.216  0.4221 -0.9323 -0.9176
 5670TIP3   OH238644   2.066   4.404   1.809 -0.6286  0.0828 -0.0505
 5670TIP3    H138645   2.016   4.416   1.890 -1.3513 -0.5233 -0.3847
 5670TIP3    H238646   2.157   4.408   1.836 -0.8387  1.7060  0.5053
 5671TIP3   OH238647   5.697   2.221   0.145  0.4524 -0.4479 -0.3979
 5671TIP3    H138648   5.770   2.215   0.082 -1.5296 -0.8973 -2.8114
 5671TIP3    H238649   5.664   2.311   0.134 -0.2266 -0.6938 -0.3796
 5672TIP3   OH238650   2.752   6.473   1.246  0.0739  0.3576  0.0666
 5672TIP3    H138651   2.744   6.386   1.209  3.6771  0.2019 -0.7617
 5672TIP3    H238652   2.776   6.458   1.338 -1.1148  0.5425  0.4143
 5673TIP3   OH238653   6.559   1.447   7.644 -0.2876  0.1032 -0.1195
 5673TIP3    H138654   6.567   1.486   7.732  0.3812  2.1538 -1.0306
 5673TIP3    H238655   6.540   1.354   7.661 -0.0618  0.4108  2.1869
 5674TIP3   OH238656   5.047   3.405   0.398  0.2791 -0.0472  0.2485
 5674TIP3    H138657   5.017   3.324   0.356  0.8298  0.1090 -0.4687
 5674TIP3    H238658   4.993   3.473   0.359  0.6735  0.0783 -0.0843
 5675TIP3   OH238659   5.824   4.580   1.845  0.1671 -0.1674  0.6411
 5675TIP3    H138660   5.868   4.650   1.892  1.9952  0.0087 -1.2425
 5675TIP3    H238661   5.733   4.608   1.840  0.6773  1.5813  0.7725
 5676TIP3   OH238662   1.614   3.534   8.485  0.6469 -0.1976 -0.2167
 5676TIP3    H138663   1.555   3.460   8.496  2.5384 -2.1451 -2.2185
 5676TIP3    H238664   1.692   3.511   8.535  1.0606  0.7110 -0.4123
 5677TIP3   OH238665   2.564   1.088   0.309  0.6018 -0.2678  0.6340
 5677TIP3    H138666   2.603   1.078   0.396 -1.4059  1.1157  1.7885
 5677TIP3    H238667   2.616   1.157   0.267  2.1147 -1.5348  0.3576
 5678TIP3   OH238668   3.649   1.201   1.427 -0.1761 -0.0315 -0.3530
 5678TIP3    H138669   3.690   1.285   1.448 -3.1675  1.3392  0.4947
 5678TIP3    H238670   3.667   1.146   1.503  0.7960  0.2109 -0.3923
 5679TIP3   OH238671   1.307   1.239   8.095  0.5476  0.4721 -0.4601
 5679TIP3    H138672   1.304   1.174   8.164  1.0726 -0.4697 -1.2953
 5679TIP3    H238673   1.217   1.241   8.060  0.2606  1.0180  0.2886
 5680TIP3   OH238674   4.955   2.792   8.147 -0.3266 -0.0867  0.2768
 5680TIP3    H138675   5.000   2.861   8.197 -0.8486 -1.3505  2.6337
 5680TIP3    H238676   4.938   2.723   8.212 -2.2575 -1.2730 -1.3873
 5681TIP3   OH238677   4.474   3.680   7.327  0.0056  0.4075  0.1872
 5681TIP3    H138678   4.449   3.769   7.354  0.2397  0.8332 -0.9475
 5681TIP3    H238679   4.392   3.631   7.327 -0.5836  1.3228 -1.7315
 5682TIP3   OH238680   5.990   5.981   7.221 -0.0407 -0.0736  0.4871
 5682TIP3    H138681   5.949   5.985   7.135  0.2048  0.5783  0.3998
 5682TIP3    H238682   6.057   6.049   7.220  0.3284 -0.4163  1.0074
 5683TIP3   OH238683   5.430   2.233   0.915  0.6078 -0.0908 -0.2881
 5683TIP3    H138684   5.474   2.255   0.997  1.0646  2.0588 -1.0403
 5683TIP3    H238685   5.412   2.318   0.874 -2.7534 -0.9325 -0.8258
 5684TIP3   OH238686   4.493   2.653   0.898 -0.2227  0.1263 -0.3797
 5684TIP3    H138687   4.524   2.563   0.904 -0.2499  0.1918  1.3825
 5684TIP3    H238688   4.554   2.695   0.838  1.5952 -0.4003  0.9934
 5685TIP3   OH238689   0.096   1.564   8.237  0.4425  0.5587  0.1367
 5685TIP3    H138690   0.085   1.470   8.254  1.2077  0.3985 -0.2398
 5685TIP3    H238691   0.099   1.604   8.324 -2.1058  0.5348  0.3348
 5686TIP3   OH238692   3.241   3.060   7.264 -0.2546 -0.5041 -0.4963
 5686TIP3    H138693   3.226   3.046   7.358  0.9544 -0.4283 -0.2758
 5686TIP3    H238694   3.153   3.060   7.226 -0.7356 -1.0606  0.5586
 5687TIP3   OH238695   1.445   6.079   1.025 -0.0718  0.0311  0.3132
 5687TIP3    H138696   1.359   6.036   1.032  0.0067 -0.1334  0.2770
 5687TIP3    H238697   1.428   6.170   1.049 -0.2012 -0.0651  0.5947
 5688TIP3   OH238698   4.100   5.974   8.285 -0.3618  0.2464  0.3828
 5688TIP3    H138699   4.107   5.926   8.368 -1.5336  0.2397  0.4960
 5688TIP3    H238700   4.191   5.989   8.258  0.0449  0.5406  1.8316
 5689TIP3   OH238701   6.093   6.765   0.022 -0.1770  0.1604 -0.2589
 5689TIP3    H138702   6.115   6.708   0.096 -1.1078  1.6001  1.1877
 5689TIP3    H238703   6.048   6.707  -0.040  1.6990 -1.3399 -0.2971
 5690TIP3   OH238704   3.907   3.921   2.274  0.0689 -0.2676 -0.4789
 5690TIP3    H138705   3.951   3.878   2.201  2.0891  2.0303 -0.7515
 5690TIP3    H238706   3.973   3.979   2.312 -1.9938  1.4488  0.7754
 5691TIP3   OH238707   3.739   2.338   0.739 -0.0205  0.8716  0.5542
 5691TIP3    H138708   3.667   2.327   0.676 -0.4190  0.1672  1.1146
 5691TIP3    H238709   3.701   2.313   0.823  0.7753  0.8835  0.9241
 5692TIP3   OH238710   6.852   0.873   1.129  0.4279  0.0402 -0.0161
 5692TIP3    H138711   6.788   0.922   1.182  0.1365 -0.6293  0.2626
 5692TIP3    H238712   6.902   0.823   1.193  1.2645  0.5839 -0.2349
 5693TIP3   OH238713   0.335   0.246   7.955  0.0642  0.2269 -0.2459
 5693TIP3    H138714   0.341   0.324   7.901  2.7526 -0.1159 -0.5689
 5693TIP3    H238715   0.325   0.279   8.044  1.2407  0.9685 -0.3737
 5694TIP3   OH238716   4.384   3.458   7.597 -0.1851 -0.5080 -0.5205
 5694TIP3    H138717   4.322   3.416   7.656  0.6022 -0.7009  0.2043
 5694TIP3    H238718   4.420   3.531   7.648 -1.2403  0.8206 -1.6249
 5695TIP3   OH238719   1.348   5.722   8.321 -0.3274 -0.2843  0.0375
 5695TIP3    H138720   1.422   5.668   8.295  0.9888  0.2031  2.4336
 5695TIP3    H238721   1.371   5.810   8.292 -0.9373 -0.4267 -0.9450
 5696TIP3   OH238722   2.401   5.856   1.577  0.6904 -0.0915  0.3653
 5696TIP3    H138723   2.310   5.838   1.599 -0.5766  1.5489 -2.9318
 5696TIP3    H238724   2.429   5.781   1.524  0.9283 -0.0701  0.4569
 5697TIP3   OH238725   2.398   1.636   8.192  0.4923 -0.1320  0.0659
 5697TIP3    H138726   2.466   1.700   8.211 -0.5524  0.5235  1.8609
 5697TIP3    H238727   2.344   1.677   8.124 -0.7478  1.4093  1.8934
 5698TIP3   OH238728   5.336   4.785   8.419 -0.2938 -0.0279  0.5312
 5698TIP3    H138729   5.401   4.840   8.463  0.0205  0.3631 -0.3961
 5698TIP3    H238730   5.276   4.758   8.488 -0.1740  1.0848  1.0859
 5699TIP3   OH238731   0.836   5.176   0.657  0.0717 -0.6067 -0.3359
 5699TIP3    H138732   0.772   5.244   0.637 -0.4327 -1.1897 -0.7361
 5699TIP3    H238733   0.918   5.224   0.672 -0.4492  0.1435  0.1692
 5700TIP3   OH238734   4.147   5.273   1.568  0.2724  0.2796 -0.3452
 5700TIP3    H138735   4.168   5.254   1.659 -2.0654 -1.8310 -0.1197
 5700TIP3    H238736   4.121   5.365   1.568 -2.8472 -0.4140  1.9188
 5701TIP3   OH238737   3.067   2.585   7.153  0.0576 -0.4202 -0.3243
 5701TIP3    H138738   3.067   2.514   7.087 -1.3667  0.0938 -0.9149
 5701TIP3    H238739   3.080   2.665   7.102  0.6101 -0.1506  0.2254
 5702TIP3   OH238740   6.589   1.704   7.324  0.0112 -0.2765  0.5939
 5702TIP3    H138741   6.542   1.740   7.249  0.2225 -1.9648 -0.4047
 5702TIP3    H238742   6.522   1.692   7.391 -0.6865 -1.0669 -0.2147
 5703TIP3   OH238743   3.582   5.524   7.398  0.4707 -0.3639 -0.0483
 5703TIP3    H138744   3.658   5.488   7.352  1.9321  0.7795  1.3389
 5703TIP3    H238745   3.619   5.566   7.475 -1.4140  1.7402 -0.2028
 5704TIP3   OH238746   3.733   3.251   8.515  0.3917  0.5558  0.0651
 5704TIP3    H138747   3.706   3.190   8.446  0.3724 -0.0509  0.5978
 5704TIP3    H238748   3.698   3.213   8.595  1.1241  0.8159  0.5160
 5705TIP3   OH238749   4.216   3.787   7.124  0.7841  0.4066  0.8830
 5705TIP3    H138750   4.227   3.869   7.075  1.6739 -1.0426 -1.5216
 5705TIP3    H238751   4.290   3.733   7.098  0.3464 -1.1231  2.5817
 5706TIP3   OH238752   0.605   1.212   1.673 -0.3012  0.2557 -0.4996
 5706TIP3    H138753   0.644   1.128   1.697 -2.2900 -1.1460 -1.8842
 5706TIP3    H238754   0.511   1.200   1.686 -0.6174  2.4554 -0.3023
 5707TIP3   OH238755   5.712   0.710   1.452  0.1480 -0.2498  0.1188
 5707TIP3    H138756   5.770   0.786   1.459 -0.5552  0.2319  0.8610
 5707TIP3    H238757   5.639   0.740   1.399  1.5510 -1.4973 -2.6975
 5708TIP3   OH238758   6.509   3.082   2.855  0.1456 -0.3004  0.4423
 5708TIP3    H138759   6.537   3.167   2.819  1.8288 -1.3520 -0.8893
 5708TIP3    H238760   6.568   3.067   2.929 -1.1012  0.3128  1.5923
 5709TIP3   OH238761   4.924   2.883   0.271 -0.3715  0.5963  0.0608
 5709TIP3    H138762   4.870   2.896   0.349  0.9926 -0.3222  1.1963
 5709TIP3    H238763   4.997   2.944   0.281 -0.4366  0.8274 -0.7643
 5710TIP3   OH238764   3.102   5.557   2.162 -0.1783  0.2775 -0.0882
 5710TIP3    H138765   3.059   5.641   2.176 -0.5438 -0.2705  2.6330
 5710TIP3    H238766   3.031   5.495   2.148  0.0001  0.0951 -0.1935
 5711TIP3   OH238767   2.538   6.894   1.793  0.1738 -0.1267 -0.2052
 5711TIP3    H138768   2.486   6.856   1.864 -1.6453 -1.2000 -2.0265
 5711TIP3    H238769   2.625   6.855   1.804  0.2393  0.5246  1.9989
 5712TIP3   OH238770   4.967   0.715   2.014 -0.1467  0.4430  0.1112
 5712TIP3    H138771   4.881   0.698   1.975 -0.2221  0.7687  0.1300
 5712TIP3    H238772   4.952   0.713   2.108 -0.3554  1.5890  0.1088
 5713TIP3   OH238773   6.862   0.323   0.543  0.0228 -0.5644  0.3893
 5713TIP3    H138774   6.773   0.343   0.517  0.5940  0.4883 -0.8831
 5713TIP3    H238775   6.862   0.330   0.639 -0.8850  1.1147  0.3007
 5714TIP3   OH238776   5.295   5.585   2.319 -0.2104 -0.3696 -0.0803
 5714TIP3    H138777   5.286   5.498   2.280 -1.5287  0.4321 -1.7112
 5714TIP3    H238778   5.207   5.607   2.351  0.4489 -0.2520  1.7808
 5715TIP3   OH238779   3.027   3.468   7.161  0.8074 -0.2418 -1.0615
 5715TIP3    H138780   3.030   3.447   7.254 -3.1244  0.2372 -0.6433
 5715TIP3    H238781   3.047   3.561   7.156 -0.1553  0.0041 -0.5085
 5716TIP3   OH238782   6.622   4.922   1.658  0.6166 -0.4480 -0.5118
 5716TIP3    H138783   6.706   4.888   1.689  0.6944  0.1425 -0.0619
 5716TIP3    H238784   6.575   4.845   1.625  0.5863 -1.0765  0.9464
 5717TIP3   OH238785   4.399   5.151   7.686  0.3905  0.6554  0.7742
 5717TIP3    H138786   4.473   5.208   7.665  0.9584  0.5494  2.3418
 5717TIP3    H238787   4.410   5.075   7.628  0.8017  1.1877  0.1383
 5718TIP3   OH238788   2.620   2.234   1.024  0.1087  0.0478 -0.2606
 5718TIP3    H138789   2.542   2.205   1.073  0.9289  0.0276  1.0733
 5718TIP3    H238790   2.669   2.154   1.007 -0.4464 -0.0223 -1.6718
 5719TIP3   OH238791   1.723   4.128   0.763 -0.3322  0.3482  0.6087
 5719TIP3    H138792   1.722   4.143   0.857 -0.1931  0.4465  0.5946
 5719TIP3    H238793   1.742   4.035   0.754 -1.2530  0.1427  0.6971
 5720TIP3   OH238794   6.735   0.228   8.495 -0.1876  0.4877 -0.4978
 5720TIP3    H138795   6.659   0.276   8.462  0.5505  0.8789 -1.7138
 5720TIP3    H238796   6.744   0.154   8.434 -0.3277 -0.2613  0.3747
 5721TIP3   OH238797   0.569   4.984   8.404 -0.0923  0.8238  0.0682
 5721TIP3    H138798   0.499   5.031   8.359 -0.7437  0.0693  0.2759
 5721TIP3    H238799   0.524   4.922   8.461  0.7470  0.1708  0.0417
 5722TIP3   OH238800   0.961   0.652   0.396  0.0984  0.2273  0.5803
 5722TIP3    H138801   0.879   0.616   0.429  2.3183 -3.6504  2.7461
 5722TIP3    H238802   0.978   0.728   0.451 -0.8412 -0.4993  1.9498
 5723TIP3   OH238803   6.705   3.327   6.634  0.0090  0.0938  0.0727
 5723TIP3    H138804   6.731   3.397   6.574 -0.8454  0.5855  0.2596
 5723TIP3    H238805   6.686   3.252   6.578 -0.2120  0.3696 -0.2249
 5724TIP3   OH238806   5.861   4.280   2.059 -0.3905  0.1870  0.5268
 5724TIP3    H138807   5.802   4.336   2.008 -0.5736 -0.5209 -0.0527
 5724TIP3    H238808   5.809   4.250   2.133 -1.0641 -1.1451 -0.4468
 5725TIP3   OH238809   0.046   1.627   7.759  0.4155 -0.0399  0.9863
 5725TIP3    H138810   0.118   1.621   7.822 -0.1942 -0.3293  1.6692
 5725TIP3    H238811   0.025   1.536   7.739  0.0439  0.0419  1.0127
 5726TIP3   OH238812   0.596   1.236   2.234  0.0166  0.1878 -0.3546
 5726TIP3    H138813   0.512   1.279   2.247 -0.0263  0.0575 -0.1953
 5726TIP3    H238814   0.657   1.307   2.216 -0.5013  0.1453 -2.5118
 5727TIP3   OH238815   3.345   3.538   0.918 -0.1984  0.4011 -0.0827
 5727TIP3    H138816   3.398   3.604   0.964 -0.3528 -1.7915  3.6784
 5727TIP3    H238817   3.409   3.484   0.872  0.2352  1.1767 -0.4176
 5728TIP3   OH238818   3.213   1.575   1.092 -0.0141 -0.0722  0.3810
 5728TIP3    H138819   3.124   1.543   1.074 -0.2870  1.0046 -0.3055
 5728TIP3    H238820   3.219   1.574   1.188 -1.2115  0.9032  0.5097
 5729TIP3   OH238821   1.890   5.990   0.067 -0.4588 -0.1401 -0.4147
 5729TIP3    H138822   1.967   6.001   0.012 -0.3818  0.5408 -0.1766
 5729TIP3    H238823   1.857   5.902   0.045  1.6995 -1.4392  1.1567
 5730TIP3   OH238824   4.652   6.684   8.214 -0.2147 -0.2350  0.5319
 5730TIP3    H138825   4.572   6.657   8.169  1.0318 -1.3144 -1.1583
 5730TIP3    H238826   4.715   6.614   8.197  1.5649  1.2825  0.4845
 5731TIP3   OH238827   4.943   1.711   8.201  0.2529  0.2871 -0.7170
 5731TIP3    H138828   4.906   1.798   8.213  1.8702  0.9972 -0.5884
 5731TIP3    H238829   4.867   1.655   8.182 -0.8054  1.7312 -0.9585
 5732TIP3   OH238830   3.970   2.123   2.104  0.1319  0.2066 -0.3195
 5732TIP3    H138831   3.882   2.112   2.140  0.6942  0.9933  1.3523
 5732TIP3    H238832   4.014   2.040   2.121  0.2224  0.3847  0.3213
 5733TIP3   OH238833   4.813   3.562   0.493 -0.1684  0.3439 -0.1982
 5733TIP3    H138834   4.745   3.499   0.468  0.7472 -1.0890  0.7402
 5733TIP3    H238835   4.834   3.609   0.412 -0.8299 -0.6102 -0.9466
 5734TIP3   OH238836   1.082   2.617   0.179  0.1622 -0.0115 -0.1393
 5734TIP3    H138837   1.133   2.662   0.112 -0.1545 -0.1591 -0.4814
 5734TIP3    H238838   1.126   2.532   0.190  1.9119  1.0281  1.8521
 5735TIP3   OH238839   6.807   3.515   1.378  0.2283 -0.3254  0.0188
 5735TIP3    H138840   6.746   3.466   1.322 -0.1292 -1.3462  1.2570
 5735TIP3    H238841   6.762   3.599   1.393  1.2323  0.8546 -2.8302
 5736TIP3   OH238842   2.402   1.268   0.853 -0.0752  0.4293 -0.1993
 5736TIP3    H138843   2.354   1.347   0.828 -0.8243 -0.2824 -1.0982
 5736TIP3    H238844   2.474   1.263   0.790 -1.9201 -1.3240 -2.3663
 5737TIP3   OH238845   6.485   1.628   8.223 -0.7276  0.5982  0.0346
 5737TIP3    H138846   6.420   1.565   8.191 -0.1405 -0.8065  1.4615
 5737TIP3    H238847   6.436   1.710   8.233 -1.9928 -0.1161 -0.0776
 5738TIP3   OH238848   2.124   5.143   6.781 -0.0562 -0.4503  0.4153
 5738TIP3    H138849   2.110   5.191   6.699 -1.6209 -1.0519  0.2955
 5738TIP3    H238850   2.131   5.051   6.754  2.4063 -0.4059  0.6917
 5739TIP3   OH238851   1.270   5.037   6.466  0.4517 -0.0232  0.7229
 5739TIP3    H138852   1.336   4.973   6.493  1.5880 -0.2607 -2.2569
 5739TIP3    H238853   1.320   5.117   6.450  0.0252 -0.1106 -1.2505
 5740TIP3   OH238854   3.777   0.997   7.968  0.7187 -0.2849 -0.7362
 5740TIP3    H138855   3.683   0.981   7.961  0.6552  0.7409 -3.1978
 5740TIP3    H238856   3.808   0.997   7.878  3.1135 -0.5690  0.0160
 5741TIP3   OH238857   3.762   5.918   8.257 -0.7301 -0.1794 -0.3597
 5741TIP3    H138858   3.819   5.906   8.333 -2.2502  2.0008  1.2263
 5741TIP3    H238859   3.819   5.959   8.191  0.3314 -1.1357 -0.0877
 5742TIP3   OH238860   1.065   4.591   8.434  0.0177  0.1348 -0.2347
 5742TIP3    H138861   1.116   4.540   8.496  3.5191  1.5054 -1.7067
 5742TIP3    H238862   1.104   4.571   8.349 -0.8065  2.5454 -1.2691
 5743TIP3   OH238863   3.114   1.371   8.078 -0.3520  0.5326  0.1807
 5743TIP3    H138864   3.044   1.388   8.015 -0.1361  0.3822 -0.0987
 5743TIP3    H238865   3.148   1.285   8.054  1.1153  1.3450 -0.8053
 5744TIP3   OH238866   5.885   2.404   1.045  0.1062  0.2638 -0.6258
 5744TIP3    H138867   5.945   2.478   1.039  0.5087 -0.1588 -2.2085
 5744TIP3    H238868   5.810   2.429   0.991  0.4089 -0.6249 -1.4791
 5745TIP3   OH238869   5.049   2.663   2.504 -0.3332  0.5152  0.0943
 5745TIP3    H138870   4.963   2.669   2.464 -0.7475 -0.9279  0.7105
 5745TIP3    H238871   5.043   2.714   2.585  0.4048  3.1498 -1.3861
 5746TIP3   OH238872   1.917   4.467   0.207 -0.2418  0.3595  0.4935
 5746TIP3    H138873   1.885   4.407   0.140  0.5133  1.0205 -0.4826
 5746TIP3    H238874   1.864   4.447   0.284 -1.3950 -0.1523 -0.4031
 5747TIP3   OH238875   4.889   3.480   7.036  0.9969  0.2561 -0.5857
 5747TIP3    H138876   4.893   3.495   6.941  0.6503 -1.5253 -0.9207
 5747TIP3    H238877   4.824   3.410   7.046 -0.6371  1.8974  1.1899
 5748TIP3   OH238878   1.676   3.199   8.399  0.2725 -0.0576  0.0277
 5748TIP3    H138879   1.633   3.216   8.315 -0.6917  1.6922  0.8180
 5748TIP3    H238880   1.618   3.239   8.464  1.3698 -0.7223  1.4773
 5749TIP3   OH238881   2.953   3.166   2.309  0.0747  0.3954 -0.3908
 5749TIP3    H138882   2.992   3.251   2.333  1.0949 -0.2182  0.1927
 5749TIP3    H238883   2.978   3.107   2.380 -2.5863  0.1140  0.4102
 5750TIP3   OH238884   3.142   5.163   7.696 -0.8817  0.1287  0.1144
 5750TIP3    H138885   3.067   5.109   7.720 -0.4821 -1.2486 -1.5357
 5750TIP3    H238886   3.205   5.102   7.658  1.5851  1.0657  2.3891
 5751TIP3   OH238887   0.696   5.615   8.472  0.1659  0.3800 -0.5595
 5751TIP3    H138888   0.746   5.664   8.538 -0.1129 -0.6844  0.4802
 5751TIP3    H238889   0.637   5.560   8.523 -1.2656  0.7563 -1.7507
 5752TIP3   OH238890   0.923   2.546   8.561  0.5302  0.5351 -0.1852
 5752TIP3    H138891   1.017   2.565   8.563  0.2538  2.0133 -0.0776
 5752TIP3    H238892   0.907   2.500   8.644  0.8907  1.7776  0.6088
 5753TIP3   OH238893   0.187   3.008   1.726  0.0682 -0.4369  0.0182
 5753TIP3    H138894   0.258   2.974   1.672 -0.9682 -1.3797 -0.7916
 5753TIP3    H238895   0.113   2.950   1.708 -1.3593  1.3799 -0.3110
 5754TIP3   OH238896   2.628   6.054   1.170 -0.3905  0.5096  0.3197
 5754TIP3    H138897   2.570   6.000   1.223  0.2709  0.0796  0.6307
 5754TIP3    H238898   2.573   6.087   1.099 -0.9179 -0.2043  0.3837
 5755TIP3   OH238899   1.215   4.186   7.863  0.2673  0.0277  0.0237
 5755TIP3    H138900   1.239   4.176   7.771  2.0984 -0.6519  0.5377
 5755TIP3    H238901   1.264   4.262   7.893 -1.0414  0.8092  0.2248
 5756TIP3   OH238902   2.638   1.097   2.163  0.3120 -0.5505 -0.2893
 5756TIP3    H138903   2.596   1.012   2.177 -0.8012 -0.2528 -1.6232
 5756TIP3    H238904   2.651   1.102   2.068  0.0764  0.8954 -0.2697
 5757TIP3   OH238905   0.569   2.461   7.159  0.4185 -0.5258  0.1334
 5757TIP3    H138906   0.588   2.551   7.187 -1.1719 -0.6245  1.7152
 5757TIP3    H238907   0.612   2.453   7.074 -1.9348  2.7527 -1.5946
 5758TIP3   OH238908   4.846   2.624   7.778  0.4306 -0.0580 -0.7542
 5758TIP3    H138909   4.786   2.589   7.713 -1.4447 -0.3543  1.0485
 5758TIP3    H238910   4.925   2.569   7.770 -0.2861 -0.9723 -1.8113
 5759TIP3   OH238911   1.936   0.624   0.851  0.5616 -0.4477  0.3360
 5759TIP3    H138912   1.973   0.682   0.785  1.6592  2.0056  2.9135
 5759TIP3    H238913   1.842   0.633   0.841  0.6128 -2.0057 -2.3503
 5760TIP3   OH238914   3.853   4.766   5.433 -0.5849 -0.4416  0.6908
 5760TIP3    H138915   3.797   4.759   5.510 -0.0799  1.0070  1.2106
 5760TIP3    H238916   3.903   4.846   5.446  0.6618 -1.0066 -0.3952
 5761TIP3   OH238917   1.794   1.633   7.790 -0.0972 -0.1991  0.9190
 5761TIP3    H138918   1.865   1.697   7.795 -0.1180 -0.0991  0.1307
 5761TIP3    H238919   1.758   1.645   7.702 -1.9217  0.6507  1.7217
 5762TIP3   OH238920   4.806   6.789   1.633 -0.1527 -0.3168 -0.0348
 5762TIP3    H138921   4.872   6.809   1.566 -0.1299 -0.3362 -0.0181
 5762TIP3    H238922   4.847   6.816   1.715  0.1930 -1.1469  0.0799
 5763TIP3   OH238923   5.018   6.272   7.197  0.3324  0.1458 -0.1313
 5763TIP3    H138924   5.067   6.352   7.209  0.7539  0.2696 -2.2684
 5763TIP3    H238925   5.083   6.202   7.202 -0.0249 -0.0875  1.6745
 5764TIP3   OH238926   2.639   1.324   8.376  0.2445  0.0115 -0.1591
 5764TIP3    H138927   2.631   1.418   8.388  0.0855  0.4197 -2.9748
 5764TIP3    H238928   2.714   1.313   8.317  0.8745 -1.7341  0.8569
 5765TIP3   OH238929   1.728   1.618   7.534 -0.4233  0.0084  0.2547
 5765TIP3    H138930   1.793   1.597   7.467  0.5920  1.0736  0.8506
 5765TIP3    H238931   1.644   1.615   7.489  0.0912 -0.7527 -0.6985
 5766TIP3   OH238932   1.659   0.415   7.697 -0.3200  0.2494  0.3089
 5766TIP3    H138933   1.738   0.419   7.644 -1.4947  0.2929 -1.5017
 5766TIP3    H238934   1.681   0.353   7.767  1.3104  0.2864 -0.1317
 5767TIP3   OH238935   3.351   6.838   6.591  0.5332 -0.3080  0.1734
 5767TIP3    H138936   3.312   6.923   6.572 -0.9284 -0.8244  0.7414
 5767TIP3    H238937   3.442   6.846   6.562  0.1433  1.0920 -0.7371
 5768TIP3   OH238938   5.764   2.845   7.869  0.0132  0.0492 -0.5864
 5768TIP3    H138939   5.690   2.897   7.839 -1.7057 -1.2149  1.1825
 5768TIP3    H238940   5.745   2.828   7.962  2.7359 -0.0095  0.0464
 5769TIP3   OH238941   4.990   1.709   0.027 -0.2049 -0.2302  0.7985
 5769TIP3    H138942   4.965   1.631  -0.022 -1.2293  0.5087  0.0694
 5769TIP3    H238943   4.982   1.780  -0.037  1.4702  0.3823  1.2227
 5770TIP3   OH238944   6.191   0.240   1.107 -0.5614  1.3043 -0.4312
 5770TIP3    H138945   6.122   0.185   1.069  0.1308  0.7807 -0.9526
 5770TIP3    H238946   6.217   0.194   1.186  0.1182  0.7805 -0.9423
 5771TIP3   OH238947   2.992   4.208   7.799  0.0074  0.1503 -0.2097
 5771TIP3    H138948   3.058   4.147   7.834  1.0622  2.1178  1.4855
 5771TIP3    H238949   3.032   4.242   7.719  0.1901 -0.0975 -0.2271
 5772TIP3   OH238950   0.272   4.162   7.356  0.3405 -0.0459  0.8018
 5772TIP3    H138951   0.202   4.221   7.381 -0.7237 -1.3309  0.9361
 5772TIP3    H238952   0.352   4.215   7.363 -0.5986  1.4506  0.5843
 5773TIP3   OH238953   3.889   2.250   8.297 -0.2261 -0.3131  0.1310
 5773TIP3    H138954   3.797   2.227   8.308 -0.5144  0.0195 -1.3490
 5773TIP3    H238955   3.926   2.247   8.386 -2.2133  1.9700  1.1331
 5774TIP3   OH238956   6.498   2.283   0.202 -0.1445  0.0013 -0.4061
 5774TIP3    H138957   6.463   2.261   0.288  0.5984 -0.0231 -0.1075
 5774TIP3    H238958   6.582   2.326   0.219  0.3648 -0.6616 -1.1315
 5775TIP3   OH238959   5.797   3.201   1.666 -0.1557 -0.4020 -0.1803
 5775TIP3    H138960   5.886   3.210   1.632  0.6460  0.5820  2.0195
 5775TIP3    H238961   5.777   3.108   1.659  1.4369 -0.7941  0.1891
 5776TIP3   OH238962   6.809   6.639   1.437  0.5059  0.1408  0.1416
 5776TIP3    H138963   6.835   6.573   1.374  1.2062  1.5714 -1.1419
 5776TIP3    H238964   6.891   6.668   1.477  0.1378 -0.2379  1.1973
 5777TIP3   OH238965   1.225   2.192   0.701  0.7321  0.0433  0.3328
 5777TIP3    H138966   1.188   2.103   0.705  0.0479  0.2311 -1.3164
 5777TIP3    H238967   1.194   2.234   0.782  0.3735 -0.9452  0.7298
 5778TIP3   OH238968   2.752   6.389   7.382  0.0983  0.5297 -0.4601
 5778TIP3    H138969   2.698   6.316   7.351  1.8901 -1.5408  0.9737
 5778TIP3    H238970   2.834   6.381   7.334 -0.0119  2.2763 -1.0044
 5779TIP3   OH238971   1.164   3.007   7.819 -0.3832  0.5109 -0.2613
 5779TIP3    H138972   1.255   2.998   7.847 -0.6561  1.8268  1.1946
 5779TIP3    H238973   1.167   3.068   7.745 -0.0815  0.6626 -0.1269
 5780TIP3   OH238974   3.165   4.077   7.980 -0.1275  0.2874  0.9703
 5780TIP3    H138975   3.196   4.110   8.064  1.0049  1.2453  0.2050
 5780TIP3    H238976   3.155   3.982   7.993  1.1146  0.2658  1.8506
 5781TIP3   OH238977   0.397   2.210   1.807 -0.0545  0.4050  0.0902
 5781TIP3    H138978   0.395   2.301   1.778  1.4743  0.5374  0.3320
 5781TIP3    H238979   0.436   2.214   1.895 -0.9693 -0.3815  0.5458
 5782TIP3   OH238980   3.816   5.083   7.405 -0.5236 -0.4462  0.4091
 5782TIP3    H138981   3.851   5.171   7.387 -2.8153  0.9209  2.0202
 5782TIP3    H238982   3.756   5.065   7.333 -0.5040 -0.3906  0.3791
 5783TIP3   OH238983   0.671   5.882   1.215 -0.4029 -0.0136  0.1482
 5783TIP3    H138984   0.582   5.915   1.207 -0.6805 -0.5418  1.0227
 5783TIP3    H238985   0.680   5.856   1.306  0.6619  0.0718  0.0828
 5784TIP3   OH238986   4.290   1.429   8.177 -0.1734  0.6152 -0.5469
 5784TIP3    H138987   4.347   1.358   8.149 -0.6409 -0.2808  0.6556
 5784TIP3    H238988   4.300   1.431   8.273 -0.9779  1.4606 -0.4664
 5785TIP3   OH238989   1.738   1.639   8.153 -0.1922  0.2345  0.5029
 5785TIP3    H138990   1.799   1.704   8.188  1.3102 -0.8558 -0.0230
 5785TIP3    H238991   1.666   1.637   8.216 -0.6757  2.9242  0.1679
 5786TIP3   OH238992   6.764   0.065   8.264  0.0947 -0.1854 -0.1114
 5786TIP3    H138993   6.825   0.004   8.305 -0.0031 -0.1870  0.0324
 5786TIP3    H238994   6.819   0.121   8.210  0.1348 -0.6987 -0.6119
 5787TIP3   OH238995   5.096   1.961   8.127 -0.4757 -0.4431 -0.3605
 5787TIP3    H138996   5.106   1.928   8.038  1.0188  0.5506 -0.5868
 5787TIP3    H238997   5.013   2.010   8.125 -0.7803 -0.9769 -1.0200
 5788TIP3   OH238998   1.994   0.161   0.210 -0.2816  0.4590  0.1969
 5788TIP3    H138999   2.001   0.181   0.303 -0.6589 -2.4768  0.9746
 5788TIP3    H239000   1.900   0.156   0.194 -0.2147 -0.4211  0.0323
 5789TIP3   OH239001   4.219   0.948   1.937  0.0607  0.8641  0.1824
 5789TIP3    H139002   4.148   1.012   1.943  0.2043  0.9602  0.9621
 5789TIP3    H239003   4.299   1.001   1.931  0.2326  0.7794  1.4697
 5790TIP3   OH239004   1.103   5.386   0.050  0.0949 -0.0339  0.9009
 5790TIP3    H139005   1.133   5.379  -0.041  0.9299 -3.5628  1.3103
 5790TIP3    H239006   1.041   5.313   0.060 -0.1920  0.4481  3.1084
 5791TIP3   OH239007   0.651   5.695   6.978 -0.4872 -0.8921 -0.5773
 5791TIP3    H139008   0.557   5.713   6.980 -0.1311  1.8448  3.4786
 5791TIP3    H239009   0.692   5.781   6.981  2.0850 -2.0487  0.0968
 5792TIP3   OH239010   6.491   3.154   0.169 -0.3186 -0.6159  0.1479
 5792TIP3    H139011   6.435   3.203   0.228  0.8243 -0.2513  0.9841
 5792TIP3    H239012   6.445   3.154   0.085 -0.4775  1.6775  0.1738
 5793TIP3   OH239013   0.470   3.722   2.200  0.4272  0.1424 -0.8166
 5793TIP3    H139014   0.476   3.774   2.121  0.1384  0.9504 -0.3146
 5793TIP3    H239015   0.442   3.783   2.268  2.2025 -0.1634  0.2703
 5794TIP3   OH239016   4.072   2.623   0.834  0.5004 -0.1108  0.3328
 5794TIP3    H139017   4.141   2.680   0.802  2.8017 -2.4077  0.8588
 5794TIP3    H239018   4.116   2.540   0.852 -2.6051 -2.0803 -0.3574
 5795TIP3   OH239019   0.791   4.271   1.511  0.0965 -0.1632 -0.1059
 5795TIP3    H139020   0.793   4.226   1.426 -0.9579  0.4714 -0.4899
 5795TIP3    H239021   0.799   4.201   1.576  5.7626 -0.4207 -0.6090
 5796TIP3   OH239022   4.629   6.448   2.032 -0.2936 -0.2761  0.1503
 5796TIP3    H139023   4.569   6.517   2.061  0.2942 -0.1874  1.2321
 5796TIP3    H239024   4.578   6.368   2.036 -0.6314 -0.0638  0.0903
 5797TIP3   OH239025   6.346   4.308   7.060  0.2359 -0.3435 -0.1569
 5797TIP3    H139026   6.408   4.276   7.126 -0.1466 -1.3500 -0.2769
 5797TIP3    H239027   6.308   4.229   7.023 -0.6699  0.2577 -0.5231
 5798TIP3   OH239028   3.108   3.347   0.982 -0.1408 -0.2296 -0.3730
 5798TIP3    H139029   3.181   3.409   0.974  0.8802 -1.4552 -0.8392
 5798TIP3    H239030   3.150   3.261   0.984 -1.6410 -1.0942 -2.6762
 5799TIP3   OH239031   5.524   2.791   2.950  0.3574 -0.3951 -0.1818
 5799TIP3    H139032   5.607   2.752   2.977  1.4226  2.0276  0.2417
 5799TIP3    H239033   5.539   2.820   2.860 -0.5327 -1.1637 -0.6082
 5800TIP3   OH239034   2.441   0.019   0.005 -0.9179 -0.5729  0.3299
 5800TIP3    H139035   2.448   0.019   0.100 -0.8425 -0.2051  0.3254
 5800TIP3    H239036   2.435   0.111  -0.019  3.2722 -0.2303 -0.2906
 5801TIP3   OH239037   0.301   0.603   1.313 -0.2503 -0.3088 -0.0722
 5801TIP3    H139038   0.285   0.607   1.219 -1.7435  0.8882  0.2003
 5801TIP3    H239039   0.342   0.518   1.326  0.1376 -0.4371 -1.8127
 5802TIP3   OH239040   0.942   4.742   6.499  0.3956  0.3499 -0.0610
 5802TIP3    H139041   0.926   4.836   6.507 -3.1129 -0.1816  0.5673
 5802TIP3    H239042   0.870   4.710   6.444  1.2525 -2.0513  0.1077
 5803TIP3   OH239043   2.178   0.241   1.497  0.2084  0.2160 -0.0031
 5803TIP3    H139044   2.226   0.187   1.435 -0.2067 -1.7731  1.3425
 5803TIP3    H239045   2.210   0.216   1.583 -1.5928  0.4813  0.7966
 5804TIP3   OH239046   5.140   2.223   6.574  0.0253 -0.0275 -0.1599
 5804TIP3    H139047   5.152   2.155   6.507 -1.1840  0.0109 -0.4282
 5804TIP3    H239048   5.222   2.222   6.623 -0.3683 -2.5042  0.5946
 5805TIP3   OH239049   2.529   6.287   1.503  0.0631  0.3737  0.4176
 5805TIP3    H139050   2.481   6.366   1.530  0.5606  0.5451  0.8070
 5805TIP3    H239051   2.513   6.281   1.409 -0.0170  0.9192  0.3906
 5806TIP3   OH239052   5.613   2.887   2.720 -0.2591  0.3944 -0.9160
 5806TIP3    H139053   5.560   2.967   2.722  1.3774  1.5834  1.6567
 5806TIP3    H239054   5.703   2.919   2.707  0.3225 -1.0981 -0.7643
 5807TIP3   OH239055   4.892   0.307   2.014 -0.2430 -0.1647 -0.0732
 5807TIP3    H139056   4.918   0.251   2.087 -0.0838  0.6436  0.4942
 5807TIP3    H239057   4.815   0.354   2.045 -0.6892 -0.4371 -0.7379
 5808TIP3   OH239058   3.763   6.010   7.787 -0.2130 -0.2498  0.2098
 5808TIP3    H139059   3.757   5.959   7.706 -1.7390  0.1719  0.0334
 5808TIP3    H239060   3.672   6.024   7.813  0.1863  1.8749  0.5771
 5809TIP3   OH239061   2.601   3.113   1.579 -0.0084 -0.3579 -0.0334
 5809TIP3    H139062   2.661   3.042   1.558 -0.1417 -0.0411 -1.6047
 5809TIP3    H239063   2.546   3.122   1.501 -1.2815  0.1809  0.8866
 5810TIP3   OH239064   1.767   5.501   1.545  0.0243 -0.3755 -0.1433
 5810TIP3    H139065   1.684   5.456   1.531  0.0810 -0.1624 -1.2695
 5810TIP3    H239066   1.831   5.431   1.557  0.1946 -0.6710 -2.3468
 5811TIP3   OH239067   2.093   6.084   8.505  0.6036  0.2711  0.4400
 5811TIP3    H139068   2.050   6.134   8.435  0.3164  0.0275  0.4422
 5811TIP3    H239069   2.179   6.126   8.514  1.6939 -1.2347 -1.8410
 5812TIP3   OH239070   6.093   0.310   1.425  0.0616  0.6379  0.0975
 5812TIP3    H139071   6.151   0.376   1.388 -1.3754  1.5188 -0.6771
 5812TIP3    H239072   6.005   0.349   1.419 -0.6924 -0.8955  0.6274
 5813TIP3   OH239073   2.962   4.298   7.443  0.2325 -0.6320  0.3200
 5813TIP3    H139074   2.869   4.312   7.459  0.3351  0.6894 -0.0824
 5813TIP3    H239075   2.968   4.274   7.351  0.4881  2.1945 -0.4815
 5814TIP3   OH239076   2.253   3.944   8.094 -0.2654  0.7695 -0.1081
 5814TIP3    H139077   2.207   3.983   8.019 -0.9711 -1.2700 -0.7870
 5814TIP3    H239078   2.200   3.969   8.170 -0.7271  1.1031 -0.5319
 5815TIP3   OH239079   6.016   6.450   1.459  0.1117  0.4630  0.0540
 5815TIP3    H139080   6.091   6.487   1.413  1.0265 -1.1631  0.1416
 5815TIP3    H239081   5.989   6.517   1.521 -0.0699  2.0320 -1.6564
 5816TIP3   OH239082   1.057   3.708   1.784 -0.2210  0.1785  0.3214
 5816TIP3    H139083   1.103   3.748   1.857 -0.1824 -1.2369  1.1131
 5816TIP3    H239084   1.093   3.620   1.777 -0.1524  0.3027 -1.4913
 5817TIP3   OH239085   0.875   5.507   8.079 -0.6271 -0.4929  0.5064
 5817TIP3    H139086   0.895   5.563   8.154 -1.1744 -0.5569  0.7118
 5817TIP3    H239087   0.843   5.426   8.118  4.0145 -2.6717  0.3578
 5818TIP3   OH239088   3.766   6.708   6.659  0.2986 -0.0599  0.5990
 5818TIP3    H139089   3.779   6.614   6.649 -0.9674 -0.2205  0.2154
 5818TIP3    H239090   3.839   6.748   6.613  0.6487 -0.8583  0.4472
 5819TIP3   OH239091   6.830   2.878   7.700  0.8991 -0.3266 -0.1329
 5819TIP3    H139092   6.753   2.935   7.701  1.9876  1.2264 -0.8912
 5819TIP3    H239093   6.901   2.933   7.734  1.5528 -1.9587  1.2966
 5820TIP3   OH239094   1.443   1.573   0.427  0.0774 -0.0907  0.2078
 5820TIP3    H139095   1.504   1.646   0.413 -0.8790  1.1648  2.0777
 5820TIP3    H239096   1.410   1.552   0.340  0.3124  1.8174 -0.3972
 5821TIP3   OH239097   2.120   2.663   8.333 -0.5559  0.0031  0.1043
 5821TIP3    H139098   2.042   2.622   8.294 -0.5770 -0.8893  1.0253
 5821TIP3    H239099   2.157   2.717   8.263  0.6110 -3.1166 -1.8944
 5822TIP3   OH239100   2.483   2.224   7.151  0.0649 -0.2434  0.3288
 5822TIP3    H139101   2.389   2.223   7.130  0.0564  1.8295  0.0193
 5822TIP3    H239102   2.512   2.134   7.134 -1.1918 -0.1940 -2.9198
 5823TIP3   OH239103   3.287   2.926   6.745 -0.3203 -0.1017 -0.1401
 5823TIP3    H139104   3.304   2.969   6.661 -0.4110  2.7062  1.1420
 5823TIP3    H239105   3.373   2.918   6.785 -0.2878 -1.3498 -0.4349
 5824TIP3   OH239106   3.444   3.300   7.249  0.4139 -0.3025 -0.1698
 5824TIP3    H139107   3.494   3.279   7.328 -0.8862  0.1032  0.7924
 5824TIP3    H239108   3.372   3.236   7.249  0.4108 -0.3028 -1.0344
 5825TIP3   OH239109   0.863   4.349   8.238  0.8270 -0.0978  0.3980
 5825TIP3    H139110   0.876   4.313   8.326 -0.3368 -0.9999  0.2204
 5825TIP3    H239111   0.941   4.320   8.190  1.0221 -0.4034  0.8840
 5826TIP3   OH239112   0.300   4.058   7.796  0.5572 -0.3539 -0.4125
 5826TIP3    H139113   0.318   4.032   7.886  0.2337  1.0335  0.0773
 5826TIP3    H239114   0.343   3.991   7.743 -0.0777 -1.7374  0.7647
 5827TIP3   OH239115   4.475   2.599   7.683  0.1810 -1.0090 -0.0815
 5827TIP3    H139116   4.464   2.607   7.589 -0.3748 -1.7116 -0.0838
 5827TIP3    H239117   4.567   2.575   7.695  0.0618 -1.6921 -0.4979
 5828TIP3   OH239118   5.633   6.359   7.969  0.2655 -0.1682  0.1366
 5828TIP3    H139119   5.640   6.335   7.876  0.9083  0.4517  0.0157
 5828TIP3    H239120   5.691   6.297   8.014  0.9517  0.3396 -0.0308
 5829TIP3   OH239121   4.042   1.599   1.740 -0.2289  0.3191  0.4297
 5829TIP3    H139122   3.968   1.558   1.784  0.0099  0.1123  0.6439
 5829TIP3    H239123   4.092   1.526   1.704 -0.5970  0.5081 -0.4710
 5830TIP3   OH239124   6.668   5.395   1.936  0.6160  0.3116  0.1659
 5830TIP3    H139125   6.698   5.428   1.851  0.6868  1.0884  0.4872
 5830TIP3    H239126   6.746   5.355   1.975  1.1948  2.0121  0.8448
 5831TIP3   OH239127   1.784   3.469   6.909  0.0106  0.0405  0.1520
 5831TIP3    H139128   1.714   3.519   6.951  0.3267  0.2875  0.3848
 5831TIP3    H239129   1.832   3.533   6.857 -0.3904 -0.2660 -0.6133
 5832TIP3   OH239130   3.649   0.105   0.251  0.0387  0.3369 -0.0851
 5832TIP3    H139131   3.630   0.191   0.289 -0.9830 -0.1373  0.5199
 5832TIP3    H239132   3.738   0.113   0.217  0.4192  1.2536  1.0560
 5833TIP3   OH239133   5.252   4.252   7.585  0.8743  0.4226  0.2992
 5833TIP3    H139134   5.199   4.283   7.658 -1.5392  1.6683 -1.8220
 5833TIP3    H239135   5.266   4.159   7.603 -1.5785  0.1804  1.2964
 5834TIP3   OH239136   2.943   5.848   0.140  0.6264 -0.2137 -0.7395
 5834TIP3    H139137   2.995   5.898   0.077 -0.7657 -1.4502 -3.0292
 5834TIP3    H239138   2.906   5.914   0.198  0.4251  1.2522 -2.4364
 5835TIP3   OH239139   3.850   0.270   1.515 -0.2570  0.3637 -0.7873
 5835TIP3    H139140   3.762   0.283   1.480 -0.2221  1.4448 -0.5252
 5835TIP3    H239141   3.902   0.242   1.439 -0.9969 -1.1937 -0.7502
 5836TIP3   OH239142   4.767   6.490   0.864  0.3696  0.7411  0.6042
 5836TIP3    H139143   4.729   6.545   0.932  1.6486  0.8011  1.2954
 5836TIP3    H239144   4.729   6.404   0.878  0.6052  0.7612  1.3893
 5837TIP3   OH239145   5.565   4.007   1.332 -1.2983 -0.2532 -0.5492
 5837TIP3    H139146   5.481   4.038   1.298 -0.7305  1.4515 -0.4635
 5837TIP3    H239147   5.549   3.915   1.354 -3.6481  0.4378  1.0572
 5838TIP3   OH239148   6.855   4.169   0.937 -0.4732 -0.2655  0.1906
 5838TIP3    H139149   6.823   4.239   0.994 -0.0620  0.8463 -0.8925
 5838TIP3    H239150   6.896   4.107   0.996  0.4122  1.1140  1.0767
 5839TIP3   OH239151   3.838   3.447   7.718 -0.0579  0.2751 -0.1214
 5839TIP3    H139152   3.894   3.420   7.791 -0.3025  1.4380  0.5310
 5839TIP3    H239153   3.769   3.499   7.760  0.1485  1.4937 -1.2438
 5840TIP3   OH239154   4.880   1.188   1.463  0.4787  0.1629 -0.2323
 5840TIP3    H139155   4.912   1.243   1.391  0.3212  0.2154 -0.2630
 5840TIP3    H239156   4.817   1.129   1.422 -0.0229  0.5590 -0.0455
 5841TIP3   OH239157   0.901   4.469   7.516 -0.1692 -0.8923 -0.3676
 5841TIP3    H139158   0.962   4.493   7.586 -0.8061 -2.2967  0.7229
 5841TIP3    H239159   0.945   4.495   7.435 -0.2333  2.6065  0.5885
 5842TIP3   OH239160   0.232   0.968   8.210 -0.0446  0.0698  0.1873
 5842TIP3    H139161   0.258   1.012   8.129 -2.7829  1.5136 -0.0459
 5842TIP3    H239162   0.203   1.038   8.267 -2.1525 -1.1648  0.7827
 5843TIP3   OH239163   5.198   4.663   7.654  0.1882 -0.2966  0.7507
 5843TIP3    H139164   5.128   4.613   7.696  0.0760 -2.0459 -1.3911
 5843TIP3    H239165   5.155   4.743   7.623 -1.0258 -1.5016 -0.8491
 5844TIP3   OH239166   0.294   0.209   0.262  0.7523  0.0461 -0.0064
 5844TIP3    H139167   0.231   0.280   0.256  0.0338 -0.6879 -1.6094
 5844TIP3    H239168   0.349   0.232   0.338 -3.5589 -1.0351  3.9121
 5845TIP3   OH239169   3.855   1.342   7.916  0.3966 -0.2223 -0.3436
 5845TIP3    H139170   3.906   1.287   7.856  2.2686  1.4370 -0.3775
 5845TIP3    H239171   3.920   1.398   7.958 -1.5159  3.4291 -1.8468
 5846TIP3   OH239172   1.617   4.726   7.218 -0.3682  0.1329 -0.3295
 5846TIP3    H139173   1.667   4.807   7.231 -0.9758  0.4556  0.0326
 5846TIP3    H239174   1.545   4.751   7.161  0.4348 -0.5626 -1.6925
 5847TIP3   OH239175   1.818   5.757   8.502 -0.1769  0.4483 -0.3372
 5847TIP3    H139176   1.879   5.755   8.428 -0.5268 -2.5243 -0.6550
 5847TIP3    H239177   1.858   5.700   8.567 -0.8431  1.4688  1.0231
 5848TIP3   OH239178   1.706   4.584   7.446  0.2564  0.1319  0.7486
 5848TIP3    H139179   1.696   4.603   7.353 -1.5682 -1.4209  0.5512
 5848TIP3    H239180   1.738   4.666   7.484 -2.4812  2.0615 -0.7013
 5849TIP3   OH239181   3.034   6.810   7.562 -0.0962  0.2501  0.3187
 5849TIP3    H139182   2.980   6.807   7.641 -1.5991 -0.6151 -0.6905
 5849TIP3    H239183   3.001   6.886   7.513  1.1409  1.0667  0.7014
 5850TIP3   OH239184   2.586   2.825   8.295  0.5186 -0.7361 -0.1985
 5850TIP3    H139185   2.521   2.785   8.353 -0.3494 -0.1271 -0.7303
 5850TIP3    H239186   2.670   2.791   8.326  0.5414  2.1795  3.6890
 5851TIP3   OH239187   0.091   3.724   8.202 -0.1860  0.5676  0.2747
 5851TIP3    H139188   0.092   3.633   8.230  0.5538  0.7366  0.8555
 5851TIP3    H239189   0.043   3.770   8.271 -0.3042  0.6561  0.1338
 5852TIP3   OH239190   3.814   3.646   2.068 -0.4658 -0.6021 -0.5231
 5852TIP3    H139191   3.875   3.720   2.071 -2.1470  0.8322  0.6270
 5852TIP3    H239192   3.819   3.615   1.978 -1.8485  2.9177 -2.0141
 5853TIP3   OH239193   5.035   4.084   1.338 -0.4159  0.1275  0.0004
 5853TIP3    H139194   5.047   4.179   1.347  0.4485 -0.0429  0.8468
 5853TIP3    H239195   5.123   4.051   1.321 -0.9127 -0.3922 -1.7917
 5854TIP3   OH239196   6.355   5.076   8.028  0.2397  0.8281  0.3103
 5854TIP3    H139197   6.339   5.118   8.112 -0.3969  1.3499 -0.0600
 5854TIP3    H239198   6.269   5.051   7.996  0.4921  0.4768 -0.1073
 5855TIP3   OH239199   3.810   2.597   6.896 -0.1185 -0.1666 -0.2413
 5855TIP3    H139200   3.860   2.523   6.861 -0.6263 -0.7840  0.3185
 5855TIP3    H239201   3.875   2.666   6.909  0.4274 -0.6451 -0.3832
 5856TIP3   OH239202   0.892   5.466   7.136 -0.0116  0.3561 -0.1783
 5856TIP3    H139203   0.855   5.449   7.223  0.8143  0.2615  0.1561
 5856TIP3    H239204   0.978   5.426   7.138  0.2521  0.8741 -0.8436
 5857TIP3   OH239205   2.974   3.747   8.435 -0.2229 -0.0914  0.2807
 5857TIP3    H139206   3.067   3.768   8.436 -0.1335 -0.3499  2.6064
 5857TIP3    H239207   2.931   3.832   8.421  0.3280  0.5758  2.2698
 5858TIP3   OH239208   3.844   4.079   7.429 -0.1801 -0.0471  0.3388
 5858TIP3    H139209   3.898   4.018   7.480 -1.0008 -1.3586 -0.2962
 5858TIP3    H239210   3.869   4.166   7.461  1.6880 -0.6476  0.6296
 5859TIP3   OH239211   4.843   4.283   0.679  0.6062  0.2614  0.5722
 5859TIP3    H139212   4.766   4.236   0.649 -0.6487  1.8693  1.1370
 5859TIP3    H239213   4.814   4.330   0.757  1.6832  2.1787 -0.1120
 5860TIP3   OH239214   3.880   0.989   0.590  0.1346  0.4438 -0.2379
 5860TIP3    H139215   3.852   1.003   0.681  0.7702  0.7933 -0.0954
 5860TIP3    H239216   3.949   1.053   0.575 -1.0109  1.4511 -1.4621
 5861TIP3   OH239217   2.480   5.109   1.449 -0.3319  0.2642 -0.3411
 5861TIP3    H139218   2.532   5.054   1.390 -0.4564 -1.7753  1.3141
 5861TIP3    H239219   2.389   5.092   1.423 -0.3801 -0.5216  0.3080
 5862TIP3   OH239220   3.471   5.127   0.420 -0.1625  0.1293  0.1153
 5862TIP3    H139221   3.475   5.134   0.516  0.8284  2.4182 -0.0221
 5862TIP3    H239222   3.558   5.156   0.391 -0.3951 -0.7169 -1.4829
 5863TIP3   OH239223   3.117   4.809   0.033  0.2774 -0.0721 -0.2317
 5863TIP3    H139224   3.205   4.773   0.043  1.0540  1.7770 -0.1075
 5863TIP3    H239225   3.075   4.751  -0.031  0.7458 -2.3712  1.4306
 5864TIP3   OH239226   2.269   3.002   1.696  0.1934  0.0489  0.2174
 5864TIP3    H139227   2.295   3.071   1.756  1.6318  0.6033 -0.9758
 5864TIP3    H239228   2.261   3.046   1.611  1.1934 -1.2325 -0.5774
 5865TIP3   OH239229   2.090   3.362   0.640  0.4404  0.4684 -0.3386
 5865TIP3    H139230   2.110   3.412   0.561 -0.4059  1.2774 -0.0574
 5865TIP3    H239231   1.997   3.340   0.632  0.5390 -0.1302  0.0587
 5866TIP3   OH239232   3.087   6.819   6.533  0.2371  0.1863  0.4143
 5866TIP3    H139233   3.171   6.799   6.574  0.0656 -2.3019 -0.2912
 5866TIP3    H239234   3.079   6.755   6.463 -2.2930  0.3345  0.4886
 5867TIP3   OH239235   5.239   2.516   0.993 -0.0316  0.0779 -0.1208
 5867TIP3    H139236   5.230   2.518   0.898 -0.5733  0.4821 -0.0689
 5867TIP3    H239237   5.248   2.608   1.018 -0.0007 -0.0184  0.2299
 5868TIP3   OH239238   3.002   0.984   0.663 -0.0441 -0.3333  0.1849
 5868TIP3    H139239   3.059   1.061   0.666  1.1586 -1.2075  0.8512
 5868TIP3    H239240   2.969   0.980   0.573  0.1450  0.7529  0.0616
 5869TIP3   OH239241   1.962   2.393   7.225 -0.3640 -0.4041  0.4130
 5869TIP3    H139242   1.907   2.401   7.303  2.0774  0.6680  2.1783
 5869TIP3    H239243   1.936   2.310   7.185 -3.0986 -0.0014  1.1671
 5870TIP3   OH239244   3.317   1.893   6.756  0.2436  0.3826 -0.3249
 5870TIP3    H139245   3.340   1.815   6.805  1.3429  0.2307 -1.0511
 5870TIP3    H239246   3.244   1.865   6.700  1.1168 -0.3525 -1.1271
 5871TIP3   OH239247   2.586   3.638   0.765 -0.4330  0.5002 -0.0812
 5871TIP3    H139248   2.544   3.573   0.820  0.1608 -1.1016 -1.4440
 5871TIP3    H239249   2.545   3.628   0.679  2.2191 -0.7595 -1.3124
 5872TIP3   OH239250   3.205   3.948   0.458  0.2467  0.1679  0.4984
 5872TIP3    H139251   3.206   4.043   0.453 -0.2691  0.1209 -0.9817
 5872TIP3    H239252   3.297   3.923   0.458  0.3826  0.6455  0.0226
 5873TIP3   OH239253   2.795   4.555   6.930  0.1228  0.2643  0.8818
 5873TIP3    H139254   2.797   4.651   6.934  0.6293  0.2286  1.7887
 5873TIP3    H239255   2.886   4.529   6.922 -0.1003 -0.1225 -0.6933
 5874TIP3   OH239256   5.737   3.967   8.595 -0.0300 -0.0843  0.1942
 5874TIP3    H139257   5.800   4.006   8.535 -0.2006  0.6305  0.4757
 5874TIP3    H239258   5.792   3.925   8.662  0.1756 -1.5149 -0.8203
 5875TIP3   OH239259   3.855   3.035   8.171 -0.0918  0.3084 -0.1228
 5875TIP3    H139260   3.948   3.044   8.191 -0.1638  0.9407 -0.0477
 5875TIP3    H239261   3.851   2.963   8.109  0.5095  0.6216 -0.5407
 5876TIP3   OH239262   2.009   5.799   0.395  0.3420 -0.1733 -0.0586
 5876TIP3    H139263   1.916   5.815   0.376 -0.4077 -1.6432  1.9587
 5876TIP3    H239264   2.033   5.869   0.456  0.2516 -0.3901  0.2271
 5877TIP3   OH239265   0.859   0.818   8.156 -0.0414 -0.0373  0.3643
 5877TIP3    H139266   0.790   0.821   8.090 -0.4488 -0.5007  0.7579
 5877TIP3    H239267   0.932   0.774   8.112 -0.7979 -1.6431  0.6353
 5878TIP3   OH239268   5.315   4.017   1.497 -0.2556  0.5468 -0.2809
 5878TIP3    H139269   5.252   4.053   1.560 -2.4662  1.2744 -2.7254
 5878TIP3    H239270   5.296   3.923   1.497 -1.3991  0.7511 -0.9588
 5879TIP3   OH239271   0.556   6.824   7.048  0.8091 -0.3304 -0.1706
 5879TIP3    H139272   0.575   6.814   7.141  2.0968 -0.6327 -0.4423
 5879TIP3    H239273   0.529   6.736   7.020 -2.5857  0.3464  0.4839
 5880TIP3   OH239274   0.656   3.316   7.745  0.2205  0.0862  0.1166
 5880TIP3    H139275   0.684   3.398   7.704  0.1613  0.3653  0.6235
 5880TIP3    H239276   0.720   3.302   7.815 -0.3954  0.2839  0.7399
 5881TIP3   OH239277   6.763   3.218   0.194 -0.3879 -0.1604 -0.1391
 5881TIP3    H139278   6.749   3.256   0.281 -0.2643 -0.7974  0.1624
 5881TIP3    H239279   6.682   3.170   0.176  0.2094 -1.3574  0.3155
 5882TIP3   OH239280   6.284   6.197   0.544 -0.2923  0.5064  0.3412
 5882TIP3    H139281   6.222   6.158   0.483  1.1971 -1.6261  0.0871
 5882TIP3    H239282   6.282   6.141   0.621  2.6129 -0.8453 -0.4159
 5883TIP3   OH239283   1.721   0.107   0.217  0.0378 -0.3837 -0.1734
 5883TIP3    H139284   1.689   0.149   0.297 -0.3153 -0.1495 -0.4364
 5883TIP3    H239285   1.649   0.116   0.155  0.9551  1.0011 -1.0905
 5884TIP3   OH239286   4.629   5.732   8.135 -0.1014 -0.2411  0.6708
 5884TIP3    H139287   4.642   5.810   8.081 -1.7937 -1.0437 -1.0330
 5884TIP3    H239288   4.713   5.686   8.131  0.3165  0.5498  0.0643
 5885TIP3   OH239289   5.314   5.488   8.115 -0.6357 -0.4873  0.6224
 5885TIP3    H139290   5.301   5.582   8.127 -1.9104 -0.7847  1.8641
 5885TIP3    H239291   5.322   5.454   8.204 -0.2931 -1.5757  0.1867
 5886TIP3   OH239292   2.476   4.984   7.176 -0.6262  0.5722  0.6395
 5886TIP3    H139293   2.543   4.930   7.134 -0.8555 -0.6393  1.7717
 5886TIP3    H239294   2.525   5.056   7.215  0.0052 -0.1278  1.1758
 5887TIP3   OH239295   0.672   0.672   2.753  0.1083  0.1101  0.1660
 5887TIP3    H139296   0.610   0.721   2.699 -1.1081  1.0242  2.2684
 5887TIP3    H239297   0.745   0.733   2.765 -0.8460  1.0114  1.7418
 5888TIP3   OH239298   2.740   4.206   1.561 -0.3444  0.2644  0.3034
 5888TIP3    H139299   2.827   4.192   1.524 -1.7153 -2.1048 -2.5132
 5888TIP3    H239300   2.733   4.142   1.632  1.0991  2.4678  2.5881
 5889TIP3   OH239301   5.083   5.834   7.068  0.1165 -0.6389 -0.0125
 5889TIP3    H139302   5.083   5.813   6.975 -2.4865 -1.8200  0.1839
 5889TIP3    H239303   5.130   5.762   7.109  1.7735  0.1682 -0.4030
 5890TIP3   OH239304   0.076   4.028   1.853 -0.4206  0.0943 -0.2366
 5890TIP3    H139305   0.067   4.121   1.870 -1.1054 -0.0592  0.2836
 5890TIP3    H239306   0.099   3.990   1.938 -0.7337 -0.2840 -0.3194
 5891TIP3   OH239307   0.248   3.648   7.986  0.0495  0.9463 -0.0086
 5891TIP3    H139308   0.196   3.700   8.047 -1.9227  1.5163 -1.9969
 5891TIP3    H239309   0.185   3.585   7.949  1.8989 -1.5743  0.8354
 5892TIP3   OH239310   1.328   6.343   8.217  0.4600  0.3134 -0.3455
 5892TIP3    H139311   1.319   6.261   8.265  2.7634  1.3956  2.1842
 5892TIP3    H239312   1.239   6.364   8.188 -0.6275 -1.7161  1.2985
 5893TIP3   OH239313   1.211   0.852   0.309 -0.2098 -0.5380 -0.4169
 5893TIP3    H139314   1.268   0.925   0.286  0.6894 -0.8803  0.6510
 5893TIP3    H239315   1.134   0.894   0.349  1.0056 -0.1805  1.7008
 5894TIP3   OH239316   6.009   2.100   2.880 -0.0645 -0.1743 -0.5848
 5894TIP3    H139317   6.061   2.131   2.954 -0.1754 -0.9754 -0.1555
 5894TIP3    H239318   6.053   2.136   2.803  1.3719 -1.1318 -0.2596
 5895TIP3   OH239319   2.360   6.752   6.077  0.0932 -0.2622 -0.1614
 5895TIP3    H139320   2.270   6.720   6.082  0.0461 -0.0071  0.8774
 5895TIP3    H239321   2.412   6.681   6.116  0.0341  0.6801  1.7634
 5896TIP3   OH239322   3.980   4.079   6.546  0.1079 -0.1842 -0.1586
 5896TIP3    H139323   4.051   4.129   6.505 -0.3075  0.0418 -0.6172
 5896TIP3    H239324   3.904   4.096   6.490 -0.8222  1.2535  1.4592
 5897TIP3   OH239325   3.976   1.366   8.345 -0.1030  0.2443 -0.0012
 5897TIP3    H139326   4.007   1.433   8.406 -0.7101 -0.3819  1.0222
 5897TIP3    H239327   4.018   1.285   8.375 -0.0976 -0.0063 -0.6626
 5898TIP3   OH239328   4.179   5.862   1.560  0.1263 -0.5853  0.2035
 5898TIP3    H139329   4.149   5.831   1.645 -1.8983 -0.5318 -0.4398
 5898TIP3    H239330   4.242   5.931   1.580 -0.1233 -0.7506  1.6505
 5899TIP3   OH239331   0.227   5.602   7.486 -0.3879 -0.4865  0.4409
 5899TIP3    H139332   0.282   5.637   7.557  0.4214 -0.7095 -0.0578
 5899TIP3    H239333   0.139   5.633   7.506 -0.0729 -0.0711  1.2350
 5900TIP3   OH239334   3.923   5.088   1.415 -0.0865 -0.5538 -0.2987
 5900TIP3    H139335   3.949   5.179   1.430  0.8178 -0.3532 -2.7117
 5900TIP3    H239336   3.899   5.056   1.502 -2.4186  2.5592  0.4318
 5901TIP3   OH239337   0.193   0.679   0.690  0.7243 -0.2235 -0.2286
 5901TIP3    H139338   0.098   0.667   0.684  0.5826  0.8827 -0.3512
 5901TIP3    H239339   0.220   0.616   0.756 -0.4109  0.9813  1.4552
 5902TIP3   OH239340   4.606   0.660   6.947  0.4815  0.3422  0.1523
 5902TIP3    H139341   4.695   0.643   6.915  0.4914 -0.1378  0.4307
 5902TIP3    H239342   4.568   0.717   6.880  0.0627 -1.6460 -1.4136
 5903TIP3   OH239343   5.343   5.710   6.513 -0.2286  0.3752  0.4987
 5903TIP3    H139344   5.395   5.737   6.589 -0.6954 -0.1160  1.0037
 5903TIP3    H239345   5.280   5.648   6.548 -0.7961  0.5356 -0.2050
 5904TIP3   OH239346   6.581   5.839   6.828 -0.2619  0.7266  0.2913
 5904TIP3    H139347   6.525   5.894   6.773  0.2416  0.2079 -0.7768
 5904TIP3    H239348   6.561   5.750   6.801  0.3882  0.4908  0.5698
 5905TIP3   OH239349   4.180   2.739   8.127  0.6568  0.1805 -0.1109
 5905TIP3    H139350   4.227   2.735   8.044  1.0466 -1.5951  0.1529
 5905TIP3    H239351   4.167   2.832   8.143  0.5879  0.5567 -2.1452
 5906TIP3   OH239352   0.839   6.825   0.314 -0.2854  0.2592 -0.2930
 5906TIP3    H139353   0.892   6.771   0.256 -2.5468 -1.4739 -0.8798
 5906TIP3    H239354   0.782   6.875   0.255  0.7643  2.2512  0.3071
 5907TIP3   OH239355   2.535   3.944   0.737  0.3633 -0.1385 -0.6360
 5907TIP3    H139356   2.496   3.990   0.811 -0.7644 -0.7266 -0.8453
 5907TIP3    H239357   2.562   3.859   0.773  1.1741  0.1302 -0.5741
 5908TIP3   OH239358   0.091   6.057   6.281  0.1792  0.2208 -0.8628
 5908TIP3    H139359   0.136   6.069   6.197  2.8289  1.9140  0.6470
 5908TIP3    H239360   0.121   5.971   6.312  3.5371  1.7379  0.5944
 5909TIP3   OH239361   4.049   4.635   1.212  0.0332  0.1036  0.1081
 5909TIP3    H139362   3.983   4.568   1.228 -1.0218  1.2730  0.7516
 5909TIP3    H239363   4.012   4.715   1.248  0.2046  1.5817 -2.6734
 5910TIP3   OH239364   5.564   3.683   2.240  0.1644  0.3203  0.0332
 5910TIP3    H139365   5.564   3.701   2.334 -0.6002  0.8337 -0.0595
 5910TIP3    H239366   5.563   3.587   2.235  0.4279  0.2840  0.5443
 5911TIP3   OH239367   6.169   5.232   2.459  0.0521 -0.3304 -0.1416
 5911TIP3    H139368   6.193   5.285   2.383 -1.5440 -0.8516 -1.0400
 5911TIP3    H239369   6.246   5.238   2.517  1.5544 -0.4344 -2.0361
 5912TIP3   OH239370   5.450   0.068   8.603  0.0023  0.1140 -0.1400
 5912TIP3    H139371   5.438  -0.005   8.663 -2.2873  0.2646 -0.3217
 5912TIP3    H239372   5.440   0.146   8.658  1.7058  0.3263 -0.0765
 5913TIP3   OH239373   4.113   2.280   0.528 -0.1567  0.7532  0.4601
 5913TIP3    H139374   4.086   2.372   0.529 -0.0886  0.8309 -1.3680
 5913TIP3    H239375   4.092   2.248   0.616 -1.9313  2.0268  0.5604
 5914TIP3   OH239376   1.972   1.440   0.248 -0.6085  0.2598 -0.1516
 5914TIP3    H139377   1.889   1.442   0.200  0.0853  0.0185 -1.4135
 5914TIP3    H239378   2.031   1.390   0.191  0.8215  1.6928 -0.0026
 5915TIP3   OH239379   6.298   6.500   0.064 -0.6658 -0.0813 -0.0205
 5915TIP3    H139380   6.321   6.423   0.116  0.0696 -0.5679 -1.0183
 5915TIP3    H239381   6.369   6.562   0.082  0.7533 -1.0231 -1.9526
 5916TIP3   OH239382   2.961   1.519   0.308 -0.1032 -0.6632 -0.1208
 5916TIP3    H139383   3.008   1.563   0.379  0.5241 -0.1449 -0.8366
 5916TIP3    H239384   2.944   1.589   0.244 -0.1245 -1.2292 -0.7472
 5917TIP3   OH239385   3.384   1.073   0.791  0.3289  0.0335 -0.4566
 5917TIP3    H139386   3.408   0.983   0.771 -1.5309 -0.3384 -1.2574
 5917TIP3    H239387   3.438   1.125   0.731  0.8497 -0.5958 -0.5460
 5918TIP3   OH239388   6.404   0.629   7.493 -0.6003 -0.2247 -0.3996
 5918TIP3    H139389   6.404   0.653   7.586 -0.4888 -0.2720 -0.3881
 5918TIP3    H239390   6.484   0.579   7.481 -0.6241 -0.2334 -0.5180
 5919TIP3   OH239391   4.100   2.168   2.593  0.5445  0.5591  0.2117
 5919TIP3    H139392   4.058   2.248   2.563  2.0689  1.7927  1.1750
 5919TIP3    H239393   4.159   2.197   2.663  1.9065 -1.2610 -0.1090
 5920TIP3   OH239394   2.270   3.504   6.443 -0.0689 -0.3231 -0.1466
 5920TIP3    H139395   2.253   3.519   6.350 -0.4367  0.8971  0.1069
 5920TIP3    H239396   2.352   3.550   6.460  0.6008 -1.4788 -0.0902
 5921TIP3   OH239397   6.732   2.065   7.530  0.0697 -0.1815  0.0721
 5921TIP3    H139398   6.810   2.078   7.476  1.3295 -0.2053  1.8053
 5921TIP3    H239399   6.728   1.970   7.543 -0.6803 -0.2470 -0.6125
 5922TIP3   OH239400   5.710   4.467   8.437  0.0567 -0.0571  0.5893
 5922TIP3    H139401   5.696   4.553   8.475 -0.2427 -0.2110  0.8307
 5922TIP3    H239402   5.781   4.428   8.489  0.5083  0.2166  0.1903
 5923TIP3   OH239403   5.842   3.070   6.128 -0.0449  0.3250 -0.2421
 5923TIP3    H139404   5.780   3.142   6.125 -1.1659 -0.6539 -1.3901
 5923TIP3    H239405   5.817   3.020   6.206  1.4395  1.7124  1.2205
 5924TIP3   OH239406   3.714   3.503   8.639 -0.1319 -0.1647 -0.6840
 5924TIP3    H139407   3.791   3.547   8.675 -0.0643 -0.8630  0.0625
 5924TIP3    H239408   3.749   3.427   8.593 -0.2821  0.2837 -1.5550
 5925TIP3   OH239409   4.153   1.704   7.816 -0.0363  0.3163  0.1002
 5925TIP3    H139410   4.197   1.694   7.901 -0.5018 -2.2737  0.1133
 5925TIP3    H239411   4.168   1.795   7.792 -0.0229  1.1781  3.0259
 5926TIP3   OH239412   0.056   4.017   0.127  0.7997  0.5747 -0.6916
 5926TIP3    H139413   0.066   4.077   0.053 -1.1759  1.7046 -0.1024
 5926TIP3    H239414   0.055   4.073   0.204 -0.2433 -0.2739 -0.0599
 5927TIP3   OH239415   3.805   0.509   0.221 -0.3181 -0.2874 -0.2594
 5927TIP3    H139416   3.761   0.587   0.189  0.5320 -0.4542 -1.9451
 5927TIP3    H239417   3.889   0.508   0.176  0.3552 -1.3485  0.9237
 5928TIP3   OH239418   1.583   4.101   7.975 -0.0083  0.2082 -0.0584
 5928TIP3    H139419   1.551   4.161   8.042 -1.4476 -0.5077 -0.0697
 5928TIP3    H239420   1.569   4.014   8.012 -0.7335 -0.1912 -1.2182
 5929TIP3   OH239421   1.917   0.825   1.054 -0.1716 -0.4145 -0.2062
 5929TIP3    H139422   1.858   0.848   0.983 -0.1705  1.5723  0.3841
 5929TIP3    H239423   2.005   0.830   1.014 -0.2825 -3.1595 -1.0254
 5930TIP3   OH239424   0.405   0.739   7.066 -0.3206 -0.3644 -0.2258
 5930TIP3    H139425   0.366   0.825   7.054 -0.8253 -0.4681  0.6065
 5930TIP3    H239426   0.448   0.720   6.982 -2.7164 -0.5936 -1.5013
 5931TIP3   OH239427   2.165   2.874   7.307  0.0456 -0.2660  0.1796
 5931TIP3    H139428   2.232   2.806   7.292 -0.0838 -0.2225 -0.6516
 5931TIP3    H239429   2.132   2.894   7.220 -1.4612 -0.6834  0.6201
 5932TIP3   OH239430   3.479   0.812   0.163 -0.5125  0.1470 -0.1337
 5932TIP3    H139431   3.492   0.743   0.227  0.0990 -0.0104 -0.4192
 5932TIP3    H239432   3.446   0.886   0.214 -0.2995 -0.0645  0.3182
 5933TIP3   OH239433   2.543   3.666   7.796 -0.3053 -0.3445 -0.3000
 5933TIP3    H139434   2.518   3.578   7.824 -2.5091 -0.3156 -1.8997
 5933TIP3    H239435   2.562   3.658   7.703  0.2967  0.7432 -0.2962
 5934TIP3   OH239436   5.495   1.463   2.258  0.3968 -0.3202  0.9430
 5934TIP3    H139437   5.461   1.376   2.238  1.4427 -0.7221  0.8753
 5934TIP3    H239438   5.476   1.475   2.352  0.3060 -0.6434  0.9651
 5935TIP3   OH239439   6.114   0.820   8.143  0.1363  0.5364  0.7287
 5935TIP3    H139440   6.058   0.851   8.072  0.3836  1.0335  0.7483
 5935TIP3    H239441   6.067   0.745   8.180 -0.3707  0.7686  0.5562
 5936TIP3   OH239442   1.558   4.704   6.681 -0.4381  0.3829  0.0563
 5936TIP3    H139443   1.476   4.680   6.724  0.3733 -1.2541  0.8065
 5936TIP3    H239444   1.618   4.633   6.704  1.6653  2.2961  0.8974
 5937TIP3   OH239445   4.095   0.301   0.344  0.0823 -0.0432  0.0846
 5937TIP3    H139446   4.079   0.355   0.422 -0.4427  0.7600 -0.5675
 5937TIP3    H239447   4.077   0.359   0.270  0.7076 -0.7589 -0.6476
 5938TIP3   OH239448   6.789   4.362   2.231 -0.0880  0.2479 -0.4180
 5938TIP3    H139449   6.697   4.385   2.242  0.1166  0.5725  0.6965
 5938TIP3    H239450   6.828   4.376   2.317  0.5674 -1.9233 -0.3174
 5939TIP3   OH239451   6.890   5.979   7.827 -0.1599 -0.0872 -0.4822
 5939TIP3    H139452   6.914   5.908   7.887  1.7118 -0.0175 -1.0798
 5939TIP3    H239453   6.824   5.940   7.769 -0.6812 -0.6856  0.4939
 5940TIP3   OH239454   3.305   3.886   1.031  0.2649 -0.2887  0.0010
 5940TIP3    H139455   3.259   3.845   1.104 -1.8725  0.7854 -0.6520
 5940TIP3    H239456   3.279   3.835   0.954  0.5784  0.0184 -0.3147
 5941TIP3   OH239457   6.021   4.514   2.245 -0.1012  0.1376 -0.0521
 5941TIP3    H139458   6.021   4.555   2.332 -1.2559 -0.4188  0.2340
 5941TIP3    H239459   5.929   4.488   2.231  0.5411 -2.2788 -0.2292
 5942TIP3   OH239460   3.359   4.538   0.249  0.0141 -0.3053 -0.0643
 5942TIP3    H139461   3.372   4.621   0.295  1.5589  0.2475 -1.3785
 5942TIP3    H239462   3.366   4.561   0.156 -1.8915 -1.5505 -0.5889
 5943TIP3   OH239463   4.768   3.702   0.968  0.4331 -0.3699 -0.4510
 5943TIP3    H139464   4.786   3.609   0.983 -1.5434 -1.1080 -2.0772
 5943TIP3    H239465   4.774   3.713   0.873 -3.5433  0.0543 -0.8197
 5944TIP3   OH239466   2.531   0.723   7.820  0.0116 -0.2519 -0.2169
 5944TIP3    H139467   2.587   0.683   7.886  2.3760 -0.4670 -2.2042
 5944TIP3    H239468   2.536   0.817   7.838  2.1423 -0.1389 -1.0723
 5945TIP3   OH239469   1.396   5.963   2.153 -0.6540  0.7757  0.2265
 5945TIP3    H139470   1.395   6.049   2.195 -0.1235  0.7019  0.4004
 5945TIP3    H239471   1.487   5.934   2.161 -0.5750  0.6979 -0.8387
 5946TIP3   OH239472   4.502   2.979   0.307  0.4230 -0.3587  0.4592
 5946TIP3    H139473   4.557   3.018   0.375  0.2704 -1.4020  1.2026
 5946TIP3    H239474   4.555   2.909   0.271  0.3687 -0.0314 -0.2701
 5947TIP3   OH239475   1.354   5.845   7.230  0.7302 -0.3239  0.3826
 5947TIP3    H139476   1.383   5.755   7.247 -0.3137 -0.4934  1.4072
 5947TIP3    H239477   1.259   5.838   7.221  0.7252  0.5630 -0.4091
 5948TIP3   OH239478   5.662   3.907   0.635  0.3368  0.7553 -1.0897
 5948TIP3    H139479   5.721   3.931   0.706  0.4641  0.9565 -1.2636
 5948TIP3    H239480   5.720   3.874   0.566  0.0699 -2.6483  0.1103
 5949TIP3   OH239481   4.652   5.162   1.700 -0.4269 -0.0173 -0.3892
 5949TIP3    H139482   4.569   5.201   1.727  0.7464  3.1005 -0.9138
 5949TIP3    H239483   4.668   5.197   1.613  1.5824 -0.2831 -0.1790
 5950TIP3   OH239484   1.255   1.833   1.317  0.0398  0.7675 -0.4278
 5950TIP3    H139485   1.298   1.866   1.239 -0.0583 -1.3049 -1.4472
 5950TIP3    H239486   1.248   1.738   1.302 -0.8666  0.4397  1.6638
 5951TIP3   OH239487   0.715   2.371   8.321 -0.0387 -0.4715  0.2858
 5951TIP3    H139488   0.740   2.463   8.316 -2.6860  0.3069 -0.3503
 5951TIP3    H239489   0.792   2.324   8.289  0.7225  1.6534 -1.3065
 5952TIP3   OH239490   0.937   2.493   6.949 -0.6710  0.9869 -0.1402
 5952TIP3    H139491   0.918   2.505   6.856 -3.9655 -0.5342  0.1771
 5952TIP3    H239492   0.987   2.411   6.953 -0.5663  1.0289 -0.5790
 5953TIP3   OH239493   1.690   3.903   7.697 -0.0279  0.6258  0.4027
 5953TIP3    H139494   1.756   3.947   7.751  1.8657  0.8043 -1.8669
 5953TIP3    H239495   1.644   3.975   7.653  0.4990  0.4579 -0.4496
 5954TIP3   OH239496   0.220   6.465   6.997  0.7138 -0.1661 -0.0863
 5954TIP3    H139497   0.160   6.495   7.065  1.2197  0.6107  0.0262
 5954TIP3    H239498   0.163   6.444   6.923  0.2159 -0.4498  0.3705
 5955TIP3   OH239499   1.460   4.299   0.166  0.0923 -0.0196 -0.2983
 5955TIP3    H139500   1.529   4.238   0.141 -0.3316 -0.2140 -1.0277
 5955TIP3    H239501   1.382   4.266   0.121 -0.0525  1.2990 -1.0507
 5956TIP3   OH239502   2.547   5.470   0.413 -0.3942  0.2988  0.0527
 5956TIP3    H139503   2.473   5.417   0.382 -1.4140  0.9716  1.2778
 5956TIP3    H239504   2.508   5.534   0.472  0.9328  1.8918 -0.7327
 5957TIP3   OH239505   5.731   3.216   8.220 -0.0362 -0.1474 -0.2170
 5957TIP3    H139506   5.660   3.185   8.276 -2.0012 -1.6794 -3.2806
 5957TIP3    H239507   5.782   3.137   8.200  0.3560  0.2773 -0.9562
 5958TIP3   OH239508   1.789   5.339   7.054  0.2844  0.0020  0.0448
 5958TIP3    H139509   1.772   5.248   7.029 -1.0042  0.7144 -1.9765
 5958TIP3    H239510   1.702   5.377   7.062  0.8120  1.0435  0.9621
 5959TIP3   OH239511   6.143   6.087   1.315 -0.0757  0.2616 -0.1738
 5959TIP3    H139512   6.172   6.135   1.392 -1.7111  0.7090  0.1874
 5959TIP3    H239513   6.066   6.134   1.284  0.0838 -0.3629 -1.6310
 5960TIP3   OH239514   3.568   1.094   8.210 -0.1333 -0.0177  0.7647
 5960TIP3    H139515   3.581   1.072   8.117 -0.4791  2.4089  0.0665
 5960TIP3    H239516   3.634   1.160   8.229 -2.1961  2.0328  1.2137
 5961TIP3   OH239517   3.722   0.988   1.098 -0.1576  0.5732  0.2915
 5961TIP3    H139518   3.643   0.935   1.106  0.7461 -0.9938 -0.7477
 5961TIP3    H239519   3.698   1.056   1.035 -0.6737  0.0987 -0.0330
 5962TIP3   OH239520   2.931   1.854   7.722 -0.4966  0.3885 -0.0879
 5962TIP3    H139521   2.947   1.765   7.754  1.0662  0.4670 -0.5565
 5962TIP3    H239522   2.837   1.867   7.734 -0.3280 -0.2378  2.7575
 5963TIP3   OH239523   0.119   3.791   0.848 -0.8746  0.6360 -0.1189
 5963TIP3    H139524   0.064   3.798   0.926  0.3491  0.8687  0.7311
 5963TIP3    H239525   0.060   3.755   0.781 -1.8228  0.0279  1.0150
 5964TIP3   OH239526   0.196   2.579   6.754  0.4801  0.5436 -1.0565
 5964TIP3    H139527   0.292   2.587   6.752  0.6521  0.5789  2.0195
 5964TIP3    H239528   0.165   2.663   6.787 -0.6291  0.4523 -1.8085
 5965TIP3   OH239529   2.591   6.741   7.767  0.2838 -0.5058 -0.5232
 5965TIP3    H139530   2.558   6.823   7.731  2.5062  1.8083  2.2286
 5965TIP3    H239531   2.674   6.727   7.722  1.5062  0.6593  1.2383
 5966TIP3   OH239532   6.752   6.734   1.761 -0.1713  0.1509  0.1740
 5966TIP3    H139533   6.699   6.731   1.841  0.5022  1.0464  0.6734
 5966TIP3    H239534   6.842   6.728   1.792  0.0822  0.1362 -0.5528
 5967TIP3   OH239535   1.699   4.426   1.840  0.1923  0.5383  0.3587
 5967TIP3    H139536   1.771   4.434   1.902  0.7328  0.3341 -0.2252
 5967TIP3    H239537   1.733   4.368   1.772  0.0417  1.6920 -0.7369
 5968TIP3   OH239538   0.475   1.249   7.276  0.2308  0.2247 -0.2484
 5968TIP3    H139539   0.446   1.158   7.268  1.5854 -0.1807 -0.7829
 5968TIP3    H239540   0.409   1.290   7.332 -2.2133 -0.2675 -2.5435
 5969TIP3   OH239541   0.575   4.610   1.377  0.2341 -0.1797  0.2990
 5969TIP3    H139542   0.624   4.685   1.411  0.4970 -0.7944  1.3188
 5969TIP3    H239543   0.537   4.641   1.295 -0.0467  1.2187  0.9387
 5970TIP3   OH239544   6.382   4.454   0.477 -0.2554  0.1866  0.6240
 5970TIP3    H139545   6.476   4.467   0.471 -0.3868  0.5925 -1.6830
 5970TIP3    H239546   6.367   4.364   0.449 -0.4616 -0.4035  2.5361
 5971TIP3   OH239547   3.671   3.991   8.636 -0.7107 -0.1907  0.0588
 5971TIP3    H139548   3.643   3.928   8.569 -0.5077 -0.8190  0.5512
 5971TIP3    H239549   3.683   3.937   8.714  0.0053  0.3825  0.3447
 5972TIP3   OH239550   4.035   2.449   1.701 -0.1161 -0.4492  0.3367
 5972TIP3    H139551   4.016   2.399   1.780 -0.8649 -1.1571 -0.2759
 5972TIP3    H239552   4.079   2.387   1.643 -0.5631 -0.2534 -0.2197
 5973TIP3   OH239553   1.558   5.481   7.056  0.6112  0.1103 -0.3410
 5973TIP3    H139554   1.550   5.576   7.054 -0.6963  0.0706  0.9706
 5973TIP3    H239555   1.511   5.452   6.978  2.4184  0.5685 -1.6523
 5974TIP3   OH239556   3.639   2.402   7.021  0.7502 -0.6979  0.2464
 5974TIP3    H139557   3.694   2.388   6.944 -0.8330  1.5465 -1.4309
 5974TIP3    H239558   3.558   2.440   6.987 -0.0592  0.3481  3.0077
 5975TIP3   OH239559   2.524   0.975   7.989 -0.4729  0.4850  0.4642
 5975TIP3    H139560   2.600   1.030   7.968 -1.1220  0.6717 -1.7088
 5975TIP3    H239561   2.460   1.036   8.026  0.2003  0.4279  1.7736
 5976TIP3   OH239562   3.468   2.419   0.051  0.0948 -0.1023  0.0315
 5976TIP3    H139563   3.525   2.388   0.121 -0.0284  0.0251  0.1881
 5976TIP3    H239564   3.502   2.377  -0.028 -2.3248 -3.6428  0.6650
 5977TIP3   OH239565   6.515   5.971   8.443 -0.4586 -0.3768 -1.0967
 5977TIP3    H139566   6.484   5.906   8.380  0.6440 -1.6605 -0.3646
 5977TIP3    H239567   6.474   5.946   8.526  1.7585 -1.6253 -0.2912
 5978TIP3   OH239568   2.283   3.660   0.175  0.1249 -0.7991  0.6613
 5978TIP3    H139569   2.333   3.728   0.220 -1.0302 -1.0327  2.3997
 5978TIP3    H239570   2.193   3.691   0.177 -0.2818 -1.9282  0.6137
 5979TIP3   OH239571   4.968   0.986   8.132 -0.0627  0.0210  0.0750
 5979TIP3    H139572   4.980   0.915   8.069  1.1198 -0.4477  0.8025
 5979TIP3    H239573   5.001   0.951   8.215 -1.1364  0.7940  0.8710
 5980TIP3   OH239574   1.075   5.456   7.460  0.3064  0.5947 -0.1906
 5980TIP3    H139575   1.101   5.425   7.547 -1.3249 -1.0472 -0.2180
 5980TIP3    H239576   0.980   5.443   7.458  0.0661  2.2551 -1.6013
 5981TIP3   OH239577   6.164   6.166   1.038 -0.0065  0.5378 -0.0620
 5981TIP3    H139578   6.227   6.237   1.024  1.1359 -0.5527 -0.7518
 5981TIP3    H239579   6.162   6.154   1.133 -0.6619  1.8491  0.1102
 5982TIP3   OH239580   0.910   3.297   7.863  0.6197 -0.2413  0.2246
 5982TIP3    H139581   0.915   3.371   7.803 -1.9189 -0.2327 -0.1051
 5982TIP3    H239582   0.938   3.222   7.811  0.6276  0.0947 -0.2594
 5983TIP3   OH239583   4.498   1.077   8.015 -0.3497 -0.1016  0.1412
 5983TIP3    H139584   4.403   1.061   8.021 -0.1800 -1.5414 -0.5740
 5983TIP3    H239585   4.534   1.034   8.093 -0.2575  0.1684  0.2467
 5984TIP3   OH239586   5.901   4.301   8.603 -0.2459 -0.4311 -0.4620
 5984TIP3    H139587   5.911   4.240   8.530 -0.1601 -1.7297  0.5944
 5984TIP3    H239588   5.912   4.247   8.681 -0.9540  0.8006  0.5305
 5985TIP3   OH239589   6.865   4.640   2.336 -0.3992 -0.1335  0.0055
 5985TIP3    H139590   6.915   4.564   2.364 -1.7538 -0.6220  1.2261
 5985TIP3    H239591   6.838   4.620   2.246 -1.2480 -1.3919  0.5206
 5986TIP3   OH239592   0.233   2.765   2.812  0.5530  0.2418 -0.1148
 5986TIP3    H139593   0.218   2.686   2.864  0.1069  0.7431  0.5407
 5986TIP3    H239594   0.159   2.768   2.752 -0.4308  1.1145  1.0930
 5987TIP3   OH239595   5.517   4.962   8.533 -0.2020 -0.0300 -0.1891
 5987TIP3    H139596   5.491   4.986   8.622 -2.4454  1.3591 -1.1276
 5987TIP3    H239597   5.595   5.014   8.516 -0.2259  0.3113  0.7085
 5988TIP3   OH239598   5.173   4.034   8.625  0.3544  0.3912 -0.2701
 5988TIP3    H139599   5.221   3.956   8.654  1.8799  1.4911  0.3046
 5988TIP3    H239600   5.241   4.099   8.608 -0.6211  0.6940 -3.8707
 5989TIP3   OH239601   4.639   1.579   0.462  0.6524 -0.8014 -0.2603
 5989TIP3    H139602   4.654   1.636   0.387  1.9931 -0.7521  0.0206
 5989TIP3    H239603   4.620   1.493   0.424 -1.0444 -0.2703 -0.6767
 5990TIP3   OH239604   6.677   4.432   6.565 -0.3671 -0.4427  0.2645
 5990TIP3    H139605   6.734   4.509   6.568  0.5692 -1.0869 -0.4013
 5990TIP3    H239606   6.637   4.435   6.477 -1.4195  0.0226  0.7360
 5991TIP3   OH239607   2.669   4.835   0.340 -0.4044  0.2834 -0.3609
 5991TIP3    H139608   2.660   4.749   0.299  0.2669 -0.5994  1.2280
 5991TIP3    H239609   2.591   4.844   0.395  0.6422 -0.3948  1.2969
 5992TIP3   OH239610   6.298   4.885   2.185  0.1246  0.3167  0.1655
 5992TIP3    H139611   6.223   4.867   2.241 -1.5794  2.3837 -1.2896
 5992TIP3    H239612   6.357   4.936   2.240 -0.9015  1.1840  0.4867
 5993TIP3   OH239613   1.808   4.996   7.276  0.5249  0.5816  0.1809
 5993TIP3    H139614   1.862   4.953   7.342 -1.5379 -0.3877  1.3245
 5993TIP3    H239615   1.860   4.991   7.196  1.9467 -0.6472  1.1272
 5994TIP3   OH239616   3.539   3.737   0.121  0.3626  0.1891 -0.6243
 5994TIP3    H139617   3.511   3.690   0.042 -1.2653 -0.8168  0.4919
 5994TIP3    H239618   3.476   3.711   0.188  2.7790 -0.4841  1.5582
 5995TIP3   OH239619   3.701   2.923   7.511 -0.3063  0.1431  0.1006
 5995TIP3    H139620   3.628   2.867   7.483 -0.7307  0.8640 -0.2481
 5995TIP3    H239621   3.674   2.956   7.597  0.2521 -0.7217  0.6273
 5996TIP3   OH239622   0.073   4.864   7.226  0.2141 -0.0731 -0.4516
 5996TIP3    H139623   0.043   4.948   7.260  1.0386  0.1772 -0.3178
 5996TIP3    H239624   0.165   4.878   7.205  0.6793 -1.2495  0.6325
 5997TIP3   OH239625   1.799   0.077   7.480  0.6775  0.6247 -0.3289
 5997TIP3    H139626   1.792   0.061   7.386 -0.4622  0.3250 -0.2032
 5997TIP3    H239627   1.757   0.002   7.521  0.5246  1.1034  0.4057
 5998TIP3   OH239628   5.554   4.504   1.886 -0.0657 -0.4673 -0.1983
 5998TIP3    H139629   5.603   4.437   1.932 -0.9869 -0.2031  1.2387
 5998TIP3    H239630   5.492   4.537   1.951 -1.6938 -0.3384 -1.7408
 5999TIP3   OH239631   4.048   2.182   6.336  0.0337 -0.0232 -0.0564
 5999TIP3    H139632   3.997   2.154   6.260  1.2892 -1.4855 -0.4222
 5999TIP3    H239633   4.013   2.130   6.409  0.7857 -0.8217 -0.2521
 6000TIP3   OH239634   3.425   3.886   2.557 -0.5194  0.2323 -0.0882
 6000TIP3    H139635   3.517   3.867   2.540 -0.5012  0.3882 -0.1686
 6000TIP3    H239636   3.392   3.809   2.603  0.2951  1.2422  2.3029
 6001TIP3   OH239637   2.999   0.150   6.691  0.4123 -0.1764  0.0495
 6001TIP3    H139638   2.907   0.167   6.670  0.5551 -0.6341 -0.9897
 6001TIP3    H239639   3.034   0.106   6.614  0.8394 -2.4058  1.4263
 6002TIP3   OH239640   5.883   2.486   2.857  0.2351 -0.4291  0.2676
 6002TIP3    H139641   5.855   2.512   2.944  0.5439  0.0745  0.2174
 6002TIP3    H239642   5.840   2.401   2.842 -1.4392  0.3944  0.1134
 6003TIP3   OH239643   0.478   0.081   1.467  0.0205  0.2621  0.3907
 6003TIP3    H139644   0.571   0.068   1.486  0.1464  0.1257 -0.2811
 6003TIP3    H239645   0.447   0.140   1.535  0.7047  0.6701  0.3544
 6004TIP3   OH239646   2.179   0.785   1.914 -0.5335  0.1073  0.1491
 6004TIP3    H139647   2.227   0.717   1.960  0.0401  0.5856  0.2811
 6004TIP3    H239648   2.247   0.849   1.889 -0.7484 -0.2934 -1.6490
 6005TIP3   OH239649   3.227   6.868   1.449  0.3541 -0.2479  0.2835
 6005TIP3    H139650   3.303   6.837   1.499  1.3193  0.3740 -0.7519
 6005TIP3    H239651   3.184   6.788   1.419  0.0142 -0.6253  1.6942
 6006TIP3   OH239652   3.270   0.998   0.193  0.2141 -0.3136  0.2865
 6006TIP3    H139653   3.264   1.061   0.122 -1.4497  0.6978  1.2444
 6006TIP3    H239654   3.270   0.913   0.149 -1.2478  0.2624 -0.9385
 6007TIP3   OH239655   3.274   4.436   7.837  0.2519 -0.3353  0.2758
 6007TIP3    H139656   3.217   4.376   7.789 -1.6961  1.6954 -0.1619
 6007TIP3    H239657   3.321   4.484   7.768 -0.2354  0.4447  0.4650
 6008TIP3   OH239658   2.843   4.973   0.514  0.2274  0.8174 -0.4235
 6008TIP3    H139659   2.815   4.940   0.429  0.7199 -0.6681 -0.0488
 6008TIP3    H239660   2.914   4.914   0.540  0.0148  1.1697  1.0671
 6009TIP3   OH239661   5.320   0.946   8.069  0.3576  0.4713  0.0274
 6009TIP3    H139662   5.236   0.906   8.092 -0.8159  1.8752 -1.5299
 6009TIP3    H239663   5.350   0.987   8.150  0.0851 -0.8947  0.8620
 6010TIP3   OH239664   5.525   6.283   0.885 -0.1634 -0.6766  0.0453
 6010TIP3    H139665   5.474   6.205   0.863  2.3162 -2.1276 -0.9501
 6010TIP3    H239666   5.613   6.250   0.904  0.6547  1.7636  0.9078
 6011TIP3   OH239667   0.182   2.885   7.046 -0.0690 -0.2294  0.4135
 6011TIP3    H139668   0.273   2.915   7.040  0.5220 -1.9244  0.3365
 6011TIP3    H239669   0.154   2.875   6.955 -0.9173  1.7752  0.3838
 6012TIP3   OH239670   4.323   5.927   8.015  0.0588 -0.3039  0.4525
 6012TIP3    H139671   4.262   5.855   8.031 -0.1344 -0.0842  0.7178
 6012TIP3    H239672   4.368   5.903   7.934  0.4467 -1.0318  0.8649
 6013TIP3   OH239673   3.592   1.662   0.298 -0.3013 -0.0813 -0.0483
 6013TIP3    H139674   3.626   1.702   0.218  0.2405  0.8501  0.6376
 6013TIP3    H239675   3.509   1.706   0.314  1.4305  2.6909  2.0797
 6014TIP3   OH239676   6.558   3.293   1.791 -0.0134  0.0594  0.1462
 6014TIP3    H139677   6.585   3.296   1.883  2.0320 -1.4914 -0.3307
 6014TIP3    H239678   6.639   3.308   1.742 -0.6577 -1.2909 -1.4111
 6015TIP3   OH239679   5.158   4.439   8.580  0.0548 -0.1237 -0.2402
 6015TIP3    H139680   5.184   4.473   8.494  3.5523 -0.8480  0.3927
 6015TIP3    H239681   5.237   4.446   8.634 -1.9067 -0.0290  2.8680
 6016TIP3   OH239682   0.024   5.823   0.670  0.4726 -0.3355 -0.1738
 6016TIP3    H139683  -0.018   5.869   0.597  0.0858  1.0904  0.8967
 6016TIP3    H239684  -0.048   5.798   0.728  0.9349  1.0344  1.0680
 6017TIP3   OH239685   3.807   6.255   1.144 -0.0376  0.0653  0.0608
 6017TIP3    H139686   3.826   6.310   1.068 -0.5809 -0.3557 -0.3949
 6017TIP3    H239687   3.836   6.168   1.118  0.6978  0.1015  0.7240
 6018TIP3   OH239688   5.321   3.302   2.330  0.4766  0.0945 -0.1371
 6018TIP3    H139689   5.338   3.359   2.405 -0.6132  0.7139 -0.3347
 6018TIP3    H239690   5.324   3.213   2.366  0.4268  0.3655  0.5509
 6019TIP3   OH239691   2.672   4.196   1.316  0.4265 -0.3045 -0.2500
 6019TIP3    H139692   2.601   4.241   1.270  0.3947 -1.3724 -1.2925
 6019TIP3    H239693   2.673   4.236   1.403 -1.5628 -0.3604 -0.1404
 6020TIP3   OH239694   0.660   2.371   6.888 -0.4609 -0.2829 -0.4080
 6020TIP3    H139695   0.746   2.393   6.852  0.2009 -0.8131  0.7619
 6020TIP3    H239696   0.664   2.277   6.903 -1.1411 -0.2653 -0.0845
 6021TIP3   OH239697   0.389   5.873   2.000 -0.5447 -0.6005 -0.2726
 6021TIP3    H139698   0.444   5.900   2.074 -0.8342  0.9134 -0.5873
 6021TIP3    H239699   0.395   5.945   1.937 -1.6058 -1.1353 -1.0221
 6022TIP3   OH239700   3.697   3.684   7.157  0.1364  0.2001 -0.1038
 6022TIP3    H139701   3.630   3.648   7.099  0.2454  0.1231 -0.1826
 6022TIP3    H239702   3.649   3.739   7.218 -0.2211 -1.2773  0.9979
 6023TIP3   OH239703   4.954   4.231   6.517 -0.0199 -0.5209  0.1795
 6023TIP3    H139704   4.895   4.299   6.481  0.0417 -1.1400 -1.1591
 6023TIP3    H239705   5.017   4.280   6.570 -1.0067  0.2842  0.6434
 6024TIP3   OH239706   6.161   4.364   6.750  0.0705 -0.0338 -0.3587
 6024TIP3    H139707   6.090   4.385   6.689  0.7205 -1.1105 -1.5469
 6024TIP3    H239708   6.223   4.436   6.739  0.2611 -0.2975 -1.1379
 6025TIP3   OH239709   5.086   2.177   7.415 -0.2852 -0.2038 -0.1098
 6025TIP3    H139710   5.110   2.214   7.330 -2.0984  0.3160 -0.4300
 6025TIP3    H239711   5.097   2.082   7.404 -0.1217 -0.1078 -0.7964
 6026TIP3   OH239712   3.108   6.832   2.442 -0.5389  1.0265 -0.2120
 6026TIP3    H139713   3.182   6.881   2.407 -0.8436  0.5767 -1.5399
 6026TIP3    H239714   3.033   6.891   2.433 -0.3843  1.4575  1.0725
 6027TIP3   OH239715   2.825   6.302   1.010 -0.1287  0.1553  0.4394
 6027TIP3    H139716   2.802   6.223   0.960  2.6193 -0.1487 -0.5489
 6027TIP3    H239717   2.814   6.374   0.947 -0.2929  0.2548  0.5821
 6028TIP3   OH239718   5.503   4.303   7.735  0.0741  0.5011  0.2040
 6028TIP3    H139719   5.466   4.248   7.804  2.3340 -0.2424  0.9345
 6028TIP3    H239720   5.456   4.278   7.656  0.1352 -1.5826  0.7629
 6029TIP3   OH239721   0.322   6.758   8.444 -0.1643  0.2834  0.2774
 6029TIP3    H139722   0.244   6.711   8.417  1.5503 -2.4035 -0.3769
 6029TIP3    H239723   0.333   6.736   8.537  0.5611 -0.5889  0.0055
 6030TIP3   OH239724   4.710   5.545   0.457 -0.7254  0.1135 -0.0539
 6030TIP3    H139725   4.645   5.486   0.495  0.8205 -1.9763 -0.4522
 6030TIP3    H239726   4.742   5.596   0.531 -0.3228 -1.3679  0.8545
 6031TIP3   OH239727   0.008   3.226   2.129  0.1515  0.0528  0.0383
 6031TIP3    H139728   0.099   3.252   2.120 -0.0735  0.9809  0.3483
 6031TIP3    H239729  -0.005   3.216   2.223  0.3997 -1.8704 -0.0877
 6032TIP3   OH239730   2.705   4.942   7.471 -0.5714 -0.3650  0.3826
 6032TIP3    H139731   2.778   4.995   7.505 -0.8950  1.2873 -1.3317
 6032TIP3    H239732   2.656   4.917   7.549  1.2229 -0.6342  1.5004
 6033TIP3   OH239733   3.601   1.089   1.729 -0.3005 -0.5559  0.2032
 6033TIP3    H139734   3.636   1.153   1.792 -0.3351 -0.2683 -0.0663
 6033TIP3    H239735   3.572   1.016   1.783 -0.7311 -0.1251  0.5638
 6034TIP3   OH239736   2.247   1.364   2.155 -0.3906 -0.2959  0.5070
 6034TIP3    H139737   2.300   1.341   2.078 -0.5787  0.6684  0.0740
 6034TIP3    H239738   2.303   1.425   2.205 -0.2057 -1.0361  1.2249
 6035TIP3   OH239739   4.011   4.114   7.065  0.5220 -0.5188 -0.3765
 6035TIP3    H139740   3.926   4.070   7.070 -0.3249  1.1384  1.0321
 6035TIP3    H239741   4.029   4.121   6.971 -2.0073  1.0174 -0.8525
 6036TIP3   OH239742   2.921   1.762   1.790 -0.6642 -0.8438  0.3171
 6036TIP3    H139743   2.990   1.825   1.769 -0.2139 -0.9254  1.4705
 6036TIP3    H239744   2.871   1.753   1.709 -0.5714  0.7788  0.0539
 6037TIP3   OH239745   1.503   6.036   6.261  0.0762 -1.0012 -0.2201
 6037TIP3    H139746   1.593   6.045   6.292 -0.2636  0.0682  0.4910
 6037TIP3    H239747   1.477   5.948   6.290  0.1754 -0.4979  1.5506
 6038TIP3   OH239748   6.251   1.910   2.040  0.0151  0.1204 -0.0751
 6038TIP3    H139749   6.250   2.006   2.033 -1.8863  0.0895 -0.9310
 6038TIP3    H239750   6.172   1.882   1.993 -0.7401 -1.7408  2.1355
 6039TIP3   OH239751   0.474   6.195   1.460 -0.6573  0.3534  0.1978
 6039TIP3    H139752   0.385   6.209   1.493 -0.1830  0.2887  1.5298
 6039TIP3    H239753   0.506   6.118   1.508  0.5715  1.1299  0.6718
 6040TIP3   OH239754   3.084   0.784   0.110  0.5538  0.1803  0.6997
 6040TIP3    H139755   3.090   0.850   0.042 -1.4213  0.7234  0.9749
 6040TIP3    H239756   3.094   0.701   0.064  2.4925  0.6020  0.2686
 6041TIP3   OH239757   3.356   4.311   7.341 -0.0379 -1.1012 -0.2362
 6041TIP3    H139758   3.365   4.242   7.276  0.5057 -0.6508 -0.6488
 6041TIP3    H239759   3.292   4.277   7.404  0.0987 -1.9068 -0.5217
 6042TIP3   OH239760   5.185   2.205   8.516  0.2032 -0.1291 -0.3912
 6042TIP3    H139761   5.128   2.281   8.502  0.6483  0.1672 -0.6218
 6042TIP3    H239762   5.257   2.218   8.454 -0.2618 -1.2941 -1.2054
 6043TIP3   OH239763   1.070   5.907   8.348 -0.5536 -0.0745 -0.2084
 6043TIP3    H139764   0.994   5.895   8.291  0.2407  0.3291 -1.3728
 6043TIP3    H239765   1.145   5.910   8.289  0.5336 -1.6888  1.0098
 6044TIP3   OH239766   5.679   4.390   7.308  0.6603  0.2014  0.1409
 6044TIP3    H139767   5.670   4.423   7.398 -0.7174  0.6275 -0.1450
 6044TIP3    H239768   5.705   4.298   7.319 -2.4651 -0.6691  1.0561
 6045TIP3   OH239769   5.579   1.113   1.981 -0.1058  0.4687 -0.7893
 6045TIP3    H139770   5.633   1.090   2.057 -0.7715  0.8142 -0.2005
 6045TIP3    H239771   5.642   1.145   1.916  0.2959  2.1493  0.3597
 6046TIP3   OH239772   4.020   5.474   0.233  0.2856  0.1041 -0.0885
 6046TIP3    H139773   4.082   5.526   0.182  0.3541 -0.8281 -0.9898
 6046TIP3    H239774   4.027   5.385   0.197  0.4947 -0.6498  1.6888
 6047TIP3   OH239775   0.161   4.804   6.432 -0.4468 -0.4028  0.0937
 6047TIP3    H139776   0.185   4.849   6.351 -0.8361 -1.6337 -0.7304
 6047TIP3    H239777   0.214   4.724   6.432  0.2166 -0.0130  1.5215
 6048TIP3   OH239778   5.303   4.073   1.068  0.1080 -1.0311 -0.3177
 6048TIP3    H139779   5.281   4.055   0.976 -2.0001 -2.6678  0.4331
 6048TIP3    H239780   5.342   3.992   1.099  0.9906 -0.4168  0.2359
 6049TIP3   OH239781   0.707   6.873   2.470  0.6461 -0.4963 -0.1825
 6049TIP3    H139782   0.709   6.789   2.425 -1.9956 -0.0313 -1.3291
 6049TIP3    H239783   0.614   6.893   2.480  1.1842  1.5979  1.4401
 6050TIP3   OH239784   3.895   5.863   7.211 -0.2367 -0.0885  0.6552
 6050TIP3    H139785   3.931   5.935   7.262  2.7200 -1.5486  0.8926
 6050TIP3    H239786   3.948   5.861   7.131 -1.7825 -0.6179 -0.4015
 6051TIP3   OH239787   3.649   6.097   0.168  0.2928  0.1823  0.1477
 6051TIP3    H139788   3.575   6.153   0.194  0.5082  0.6575 -0.2314
 6051TIP3    H239789   3.726   6.150   0.186  0.5250 -0.1923  0.2497
 6052TIP3   OH239790   1.283   4.866   8.204 -0.4629  0.2160 -0.4792
 6052TIP3    H139791   1.296   4.775   8.177 -0.8653  0.0514 -0.1215
 6052TIP3    H239792   1.368   4.908   8.188  0.3803 -0.7098  1.2778
 6053TIP3   OH239793   4.096   4.702   1.848 -0.2310 -0.1984 -0.3811
 6053TIP3    H139794   4.047   4.783   1.865  1.8769  0.6543  2.4596
 6053TIP3    H239795   4.186   4.731   1.835  0.4627 -2.0289  0.0777
 6054TIP3   OH239796   0.423   4.963   7.525  0.1035  0.4754  0.2571
 6054TIP3    H139797   0.423   5.036   7.464 -0.9797  0.0872 -0.2296
 6054TIP3    H239798   0.497   4.908   7.497  0.9558  1.3864  0.6602
 6055TIP3   OH239799   2.104   2.353   8.603 -0.0362  0.0075 -0.2715
 6055TIP3    H139800   2.065   2.402   8.675 -0.9120  0.0440 -0.7571
 6055TIP3    H239801   2.157   2.286   8.646  0.2220  0.6283  0.3993
 6056TIP3   OH239802   5.198   0.853   0.763  0.2210 -0.6879 -0.5080
 6056TIP3    H139803   5.110   0.822   0.743  0.9076 -2.8679 -0.3527
 6056TIP3    H239804   5.215   0.822   0.852  1.2274 -0.4701 -0.6148
 6057TIP3   OH239805   3.684   3.837   2.462 -0.0056 -0.1950 -0.4270
 6057TIP3    H139806   3.713   3.754   2.423  1.1470 -0.4750  0.9537
 6057TIP3    H239807   3.749   3.901   2.434 -0.7176  0.2019 -1.2237
 6058TIP3   OH239808   5.104   4.424   7.106  0.9885 -1.2018 -0.3638
 6058TIP3    H139809   5.105   4.480   7.028  0.2200  1.0111  1.1155
 6058TIP3    H239810   5.182   4.369   7.096  2.5418  0.9981 -1.3787
 6059TIP3   OH239811   4.109   6.132   0.266 -0.0233  0.1024  0.3691
 6059TIP3    H139812   4.151   6.166   0.345 -0.8543  0.9272  0.4694
 6059TIP3    H239813   4.110   6.037   0.277 -0.4965  0.2183  1.5701
 6060TIP3   OH239814   0.629   6.536   0.393 -0.5796  0.9680 -0.3024
 6060TIP3    H139815   0.680   6.608   0.357  0.5850  0.4553  0.2909
 6060TIP3    H239816   0.650   6.535   0.486 -0.6690 -0.0602 -0.2800
 6061TIP3   OH239817   2.063   0.100   6.317 -0.0782  0.2952 -0.3054
 6061TIP3    H139818   2.092   0.060   6.399  0.6832 -0.4629 -0.9278
 6061TIP3    H239819   2.120   0.062   6.251 -1.2342  0.2612 -1.3055
 6062TIP3   OH239820   3.003   3.426   2.479 -0.0617  0.0384  0.5790
 6062TIP3    H139821   3.064   3.407   2.551 -1.7801  1.1438  2.4657
 6062TIP3    H239822   2.927   3.371   2.498  0.5211 -1.8681 -2.1365
 6063TIP3   OH239823   4.174   0.701   1.440  0.2867 -0.7004  0.2494
 6063TIP3    H139824   4.234   0.684   1.513  0.5102 -0.0644  0.2210
 6063TIP3    H239825   4.106   0.634   1.449  1.9992 -2.7137 -0.8524
 6064TIP3   OH239826   3.620   1.688   6.499  0.1922  1.0263  0.5327
 6064TIP3    H139827   3.694   1.697   6.440 -0.8840  0.8016 -0.9064
 6064TIP3    H239828   3.659   1.657   6.581  1.5903 -0.0223 -0.4623
 6065TIP3   OH239829   3.167   2.811   6.985 -0.3915 -0.2499  0.3334
 6065TIP3    H139830   3.126   2.875   7.043  0.5697  0.1896  0.5615
 6065TIP3    H239831   3.154   2.846   6.897 -1.4987 -0.7096  0.2977
 6066TIP3   OH239832   4.917   6.904   1.876 -0.0962 -0.1110  0.1740
 6066TIP3    H139833   4.868   6.852   1.940  0.6276 -0.0983  0.7481
 6066TIP3    H239834   4.979   6.954   1.928  0.5092 -0.1016 -0.5376
 6067TIP3   OH239835   3.848   3.052   1.891  0.3833  0.2578  0.9519
 6067TIP3    H139836   3.891   3.134   1.913 -0.7427  0.7011  1.5853
 6067TIP3    H239837   3.861   2.996   1.968 -1.1856  0.8311  1.6704
 6068TIP3   OH239838   2.851   0.635   7.686  0.4134 -0.4887  0.3258
 6068TIP3    H139839   2.837   0.541   7.699  0.6311 -0.9750 -2.4424
 6068TIP3    H239840   2.932   0.655   7.733  0.8367 -1.8906  0.2186
 6069TIP3   OH239841   4.305   5.979   7.559 -0.3829  0.1711 -0.6243
 6069TIP3    H139842   4.216   5.964   7.529 -0.9833  0.1291  1.0929
 6069TIP3    H239843   4.311   6.075   7.568 -0.7158  0.1054  0.5058
 6070TIP3   OH239844   5.981   4.670   2.842  0.0907  0.6634 -0.0668
 6070TIP3    H139845   6.053   4.706   2.791  0.2093  0.6943  0.1215
 6070TIP3    H239846   5.963   4.735   2.910  1.0826 -0.1296  0.9959
 6071TIP3   OH239847   0.144   1.361   1.717 -0.1281  0.1159  0.7081
 6071TIP3    H139848   0.156   1.411   1.797 -0.2881  1.2780  0.0294
 6071TIP3    H239849   0.096   1.419   1.658 -0.8490 -1.0584  0.0903
 6072TIP3   OH239850   4.505   0.516   0.587 -1.0000 -0.2450 -0.1784
 6072TIP3    H139851   4.429   0.479   0.632 -1.0941  0.8798  0.6258
 6072TIP3    H239852   4.467   0.563   0.512 -1.0783  0.0817  0.0640
 6073TIP3   OH239853   5.727   4.129   1.701  0.0481 -0.3181  0.0150
 6073TIP3    H139854   5.635   4.136   1.728 -0.6002 -0.7657 -1.9074
 6073TIP3    H239855   5.756   4.219   1.690 -0.1073 -0.1704  0.7440
 6074TIP3   OH239856   3.428   2.047   7.634  0.2412 -0.4597  0.3034
 6074TIP3    H139857   3.399   2.088   7.716  3.1804 -1.8657  2.1865
 6074TIP3    H239858   3.349   2.046   7.579 -1.6822  1.1862  2.8052
 6075TIP3   OH239859   3.754   5.229   0.475 -0.1807  0.0199 -0.3508
 6075TIP3    H139860   3.774   5.271   0.391  1.0324 -0.5438 -0.3729
 6075TIP3    H239861   3.741   5.301   0.536  1.8238  0.4882 -0.4013
 6076TIP3   OH239862   4.476   5.977   6.249  0.3569 -0.3504 -0.1719
 6076TIP3    H139863   4.427   5.998   6.169 -2.4615 -2.6221  0.7911
 6076TIP3    H239864   4.531   5.903   6.224 -0.3704 -0.9275 -0.1148
 6077TIP3   OH239865   1.588   2.389   1.362 -0.5901 -0.4740  0.2567
 6077TIP3    H139866   1.606   2.353   1.449  1.0558 -2.0325 -0.6785
 6077TIP3    H239867   1.494   2.408   1.364 -0.5596 -0.1730  2.4465
 6078TIP3   OH239868   5.591   1.806   8.184 -0.0653  0.1658 -0.4699
 6078TIP3    H139869   5.510   1.841   8.222  0.8692  0.1114  1.6642
 6078TIP3    H239870   5.560   1.750   8.112 -1.8866  0.7228 -0.1864
 6079TIP3   OH239871   4.755   5.869   8.370  0.1473  1.2465  0.3366
 6079TIP3    H139872   4.700   5.791   8.383 -0.2723  1.6699  1.1854
 6079TIP3    H239873   4.844   5.835   8.364 -0.1701  0.5641 -0.8452
 6080TIP3   OH239874   5.156   2.299   2.191  0.0417 -0.4743 -0.3491
 6080TIP3    H139875   5.218   2.233   2.221  0.0224 -0.7627 -0.9223
 6080TIP3    H239876   5.183   2.319   2.101 -0.0790  0.1442 -0.2566
 6081TIP3   OH239877   5.263   3.005   0.865  0.4839  0.1201 -0.4270
 6081TIP3    H139878   5.202   2.979   0.934  0.4610 -1.8281 -1.1317
 6081TIP3    H239879   5.286   3.095   0.887  0.8161 -0.5389  2.4076
 6082TIP3   OH239880   1.199   3.887   0.730 -0.0017 -0.4209 -0.7514
 6082TIP3    H139881   1.245   3.970   0.719 -1.7720  0.6653 -0.3117
 6082TIP3    H239882   1.268   3.821   0.727  1.5887  1.1258 -0.0320
 6083TIP3   OH239883   3.021   0.748   1.411  0.3577 -0.1758 -0.2691
 6083TIP3    H139884   2.960   0.786   1.348 -1.5804 -0.9881  1.0316
 6083TIP3    H239885   3.040   0.661   1.376 -0.3152 -0.4299 -0.0292
 6084TIP3   OH239886   5.858   4.984   1.289  0.2682 -0.1934  0.0517
 6084TIP3    H139887   5.878   4.991   1.382 -0.5486 -0.2819  0.2400
 6084TIP3    H239888   5.884   5.069   1.253 -2.6469  1.2535  1.0052
 6085TIP3   OH239889   5.856   0.174   2.105  0.0267  0.2602  0.5703
 6085TIP3    H139890   5.773   0.192   2.148 -0.4245  2.1001 -0.9368
 6085TIP3    H239891   5.837   0.101   2.046 -1.2730  2.1420 -1.5191
 6086TIP3   OH239892   4.701   5.599   0.734  1.1009  0.2284  0.0852
 6086TIP3    H139893   4.633   5.542   0.771  0.5632  0.1245 -1.0234
 6086TIP3    H239894   4.780   5.576   0.782  0.6423 -0.6260  0.4548
 6087TIP3   OH239895   6.837   3.686   6.406 -0.1338 -0.1242 -0.0900
 6087TIP3    H139896   6.768   3.674   6.472 -0.5971  2.3594 -0.0361
 6087TIP3    H239897   6.794   3.734   6.336  1.1750  0.1004 -0.7609
 6088TIP3   OH239898   5.813   1.212   1.606 -0.0950 -0.3184 -0.0612
 6088TIP3    H139899   5.792   1.298   1.642 -2.4906 -0.9435  0.2175
 6088TIP3    H239900   5.729   1.177   1.575  1.0212 -2.0054 -1.4352
 6089TIP3   OH239901   0.121   3.753   1.651  0.2847  0.2362  0.3238
 6089TIP3    H139902   0.181   3.689   1.690  0.8812  1.2668  1.1422
 6089TIP3    H239903   0.126   3.828   1.709 -1.1327  0.6765 -0.1077
 6090TIP3   OH239904   3.001   5.822   8.430 -0.0669 -0.5103 -0.4158
 6090TIP3    H139905   3.073   5.785   8.480 -0.4039  1.1660  1.4476
 6090TIP3    H239906   2.926   5.766   8.449  0.3245 -1.2139 -0.9193
 6091TIP3   OH239907   6.625   5.676   8.615  0.4485 -0.2151  0.0208
 6091TIP3    H139908   6.582   5.762   8.618  0.8480  0.0281 -0.8008
 6091TIP3    H239909   6.576   5.623   8.678 -0.1644  0.4537  0.1320
 6092TIP3   OH239910   3.932   5.341   8.155 -0.4789  0.2525  0.1989
 6092TIP3    H139911   3.931   5.400   8.079 -0.4873  0.0013  0.0050
 6092TIP3    H239912   3.882   5.388   8.222 -0.1832  0.6232  0.1604
 6093TIP3   OH239913   0.280   3.713   2.588 -0.0439 -0.0050 -0.3634
 6093TIP3    H139914   0.342   3.782   2.612  0.0877  0.1022 -1.0060
 6093TIP3    H239915   0.235   3.692   2.670  0.3848  0.3712 -0.0260
 6094TIP3   OH239916   5.203   3.206   8.275 -0.6565 -0.3132  0.1573
 6094TIP3    H139917   5.178   3.294   8.246  0.1968 -0.1511 -0.1404
 6094TIP3    H239918   5.227   3.160   8.194 -1.8956 -1.0995  0.2164
 6095TIP3   OH239919   6.490   5.624   1.992 -0.1232  0.6421  0.0296
 6095TIP3    H139920   6.544   5.703   1.991 -0.6943  1.0442 -1.3337
 6095TIP3    H239921   6.552   5.553   1.975  0.5051  0.6881  1.9692
 6096TIP3   OH239922   6.804   3.322   1.010 -1.0903 -0.2263  0.0670
 6096TIP3    H139923   6.881   3.265   1.015 -1.6134 -0.9331  0.0585
 6096TIP3    H239924   6.831   3.392   0.950 -0.3956 -0.3764  0.1900
 6097TIP3   OH239925   5.275   4.659   0.964  0.2914 -0.2975  0.3465
 6097TIP3    H139926   5.247   4.744   0.998 -1.1815 -1.1124  1.2250
 6097TIP3    H239927   5.216   4.643   0.890 -0.3208 -1.1482  1.0086
 6098TIP3   OH239928   3.882   0.144   8.577  0.0591 -0.3991 -0.0394
 6098TIP3    H139929   3.893   0.058   8.537 -0.1276  0.4209 -1.9710
 6098TIP3    H239930   3.967   0.187   8.565  0.0287 -0.1647  0.5531
 6099TIP3   OH239931   4.345   6.859   1.430 -0.2552  0.0523 -0.0045
 6099TIP3    H139932   4.261   6.846   1.475 -0.1619 -0.9577 -0.1139
 6099TIP3    H239933   4.405   6.887   1.499 -0.8807  1.7325 -0.0766
 6100TIP3   OH239934   0.959   4.197   7.508  0.2605  0.0483 -0.0540
 6100TIP3    H139935   0.929   4.287   7.495 -0.4531 -0.2887 -0.7698
 6100TIP3    H239936   0.919   4.170   7.591  3.5133  1.6405  2.2762
 6101TIP3   OH239937   5.917   3.405   5.980  0.5501  0.7700  0.1964
 6101TIP3    H139938   5.928   3.497   5.956  1.3863  1.1786  2.0386
 6101TIP3    H239939   6.005   3.369   5.976  0.2241  0.0074 -0.5301
 6102TIP3   OH239940   1.753   6.438   1.929  0.1436  0.2435  0.1888
 6102TIP3    H139941   1.831   6.442   1.873  2.0184  0.5245  2.6462
 6102TIP3    H239942   1.762   6.513   1.988 -2.7484  1.0840 -0.2676
 6103TIP3   OH239943   6.255   2.050   1.132  0.2485  0.1111 -0.1562
 6103TIP3    H139944   6.193   1.979   1.117  0.3959  0.2584 -1.6446
 6103TIP3    H239945   6.322   2.012   1.188 -0.1956 -0.6150 -0.1036
 6104TIP3   OH239946   4.213   1.474   1.087 -0.2199  0.0315 -0.3630
 6104TIP3    H139947   4.280   1.542   1.074 -0.0962 -0.0514 -0.1697
 6104TIP3    H239948   4.194   1.478   1.181  1.4511 -1.7284  0.1183
 6105TIP3   OH239949   4.889   3.696   0.278 -0.0345  0.5358 -0.3167
 6105TIP3    H139950   4.926   3.778   0.312  0.8200 -0.1113  0.3758
 6105TIP3    H239951   4.945   3.674   0.204 -0.2085  0.5347 -0.4468
 6106TIP3   OH239952   0.463   2.127   1.157 -0.3140 -0.2295  0.3033
 6106TIP3    H139953   0.423   2.138   1.071  1.0249 -2.1735 -0.6548
 6106TIP3    H239954   0.557   2.133   1.140  0.1179 -3.0778  1.1286
 6107TIP3   OH239955   2.500   3.021   6.755 -0.4855  0.1268  0.2813
 6107TIP3    H139956   2.527   3.006   6.664 -1.1783 -1.0742  0.2531
 6107TIP3    H239957   2.554   2.961   6.806  0.8107  1.7040  0.8254
 6108TIP3   OH239958   0.529   0.313   2.097 -0.5634 -0.1172 -0.1812
 6108TIP3    H139959   0.463   0.357   2.151 -1.1151  0.7883 -1.5399
 6108TIP3    H239960   0.546   0.374   2.025  2.0801 -0.1525  0.3165
 6109TIP3   OH239961   3.846   3.437   6.523 -0.2071 -0.1575 -0.2847
 6109TIP3    H139962   3.765   3.479   6.551 -0.0227  0.5337 -0.7741
 6109TIP3    H239963   3.822   3.345   6.509 -0.3627 -0.4922  1.8737
 6110TIP3   OH239964   0.444   6.116   1.909 -0.3758 -0.5164 -0.7171
 6110TIP3    H139965   0.436   6.197   1.960 -1.1950 -0.7607 -0.4452
 6110TIP3    H239966   0.425   6.142   1.819  0.7653 -0.1423 -0.8646
 6111TIP3   OH239967   6.509   2.684   1.648 -0.4558 -0.3397  0.2065
 6111TIP3    H139968   6.488   2.642   1.564  1.2322 -2.2245  0.6416
 6111TIP3    H239969   6.489   2.777   1.634  3.7129  0.3207 -3.8539
 6112TIP3   OH239970   6.889   4.833   1.697 -0.2487 -0.1303  0.1186
 6112TIP3    H139971   6.949   4.886   1.748  0.2136  0.3765 -0.9339
 6112TIP3    H239972   6.906   4.856   1.606 -1.8915 -0.1218 -0.2300
 6113TIP3   OH239973   0.988   5.332   8.404 -0.5947  0.1350 -0.8526
 6113TIP3    H139974   1.057   5.399   8.403 -0.7723  0.3601  0.5482
 6113TIP3    H239975   0.912   5.376   8.442 -0.2189 -1.2906  1.7552
 6114TIP3   OH239976   3.829   3.947   6.912 -0.4080  0.0739  0.0963
 6114TIP3    H139977   3.773   3.884   6.959  0.2599  0.9816  2.2525
 6114TIP3    H239978   3.771   3.988   6.849 -2.1051  0.6232  1.9001
 6115TIP3   OH239979   6.573   2.028   6.819 -0.8433 -0.3520 -0.0913
 6115TIP3    H139980   6.603   1.992   6.736 -1.1045 -0.5251 -0.1075
 6115TIP3    H239981   6.483   1.997   6.829 -1.0648  0.2762 -0.0989
 6116TIP3   OH239982   2.127   4.562   0.454 -0.0180  0.3118  0.2043
 6116TIP3    H139983   2.121   4.467   0.463  0.9490  0.3731  1.8304
 6116TIP3    H239984   2.077   4.596   0.528 -1.2163  1.1106 -0.9360
 6117TIP3   OH239985   5.428   2.941   6.836 -0.2727 -0.3936  0.2896
 6117TIP3    H139986   5.476   2.861   6.816  2.6469  0.9768  1.3166
 6117TIP3    H239987   5.446   2.958   6.928  0.8375  2.4254 -0.3403
 6118TIP3   OH239988   0.316   4.763   0.405 -0.1213  0.4441 -0.0467
 6118TIP3    H139989   0.280   4.686   0.449  0.7403  0.3671  0.5520
 6118TIP3    H239990   0.240   4.818   0.387 -0.7657 -0.6220 -0.6447
 6119TIP3   OH239991   6.630   3.374   1.201  0.0755 -0.1940  0.3091
 6119TIP3    H139992   6.579   3.434   1.145  0.2222  0.7373  1.1450
 6119TIP3    H239993   6.709   3.356   1.151  1.5863  2.9567  1.3257
 6120TIP3   OH239994   5.421   4.773   7.761  0.1995  0.9241 -0.5617
 6120TIP3    H139995   5.330   4.744   7.750  0.1136 -0.3891  2.6193
 6120TIP3    H239996   5.464   4.700   7.805  1.6575  3.1433  1.9580
 6121TIP3   OH239997   5.208   3.508   7.101  0.3560 -0.1552  0.0546
 6121TIP3    H139998   5.265   3.508   7.024 -1.1301 -0.9615 -1.0958
 6121TIP3    H239999   5.205   3.599   7.129  1.7538 -0.0108 -0.1622
 6122TIP3   OH240000   4.489   5.745   0.025 -0.0867  0.4626 -0.0674
 6122TIP3    H140001   4.513   5.672  -0.032  1.8783  0.4157  0.7404
 6122TIP3    H240002   4.569   5.765   0.073 -1.2786  1.4786  1.5973
 6123TIP3   OH240003   0.047   3.996   1.155 -0.1787 -0.2840  0.0123
 6123TIP3    H140004   0.052   4.055   1.231  0.9512 -0.3367 -0.0037
 6123TIP3    H240005   0.017   3.913   1.191  2.3889 -0.9497  0.8317
 6124TIP3   OH240006   6.135   3.135   6.552  0.5132 -0.4660  0.0850
 6124TIP3    H140007   6.139   3.086   6.469 -2.0004 -1.6515  0.5899
 6124TIP3    H240008   6.083   3.212   6.532  2.3290  0.7972 -0.0662
 6125TIP3   OH240009   5.488   2.283   7.178  0.2407  0.9271 -0.1123
 6125TIP3    H140010   5.460   2.251   7.092  1.2349 -0.7807  0.1454
 6125TIP3    H240011   5.441   2.365   7.190 -1.6258  0.1067 -1.3402
 6126TIP3   OH240012   4.323   1.843   8.368 -0.1747  0.3103  0.2084
 6126TIP3    H140013   4.332   1.929   8.408 -0.0645  0.5684 -0.3659
 6126TIP3    H240014   4.239   1.846   8.323 -0.3013  0.0176  0.4203
 6127TIP3   OH240015   1.815   3.566   1.506  0.1026  0.0219  0.2599
 6127TIP3    H140016   1.876   3.591   1.437  1.1562  0.3489  1.2725
 6127TIP3    H240017   1.817   3.470   1.507 -1.1965 -0.0481 -1.2461
 6128TIP3   OH240018   1.611   4.835   8.387 -0.4500 -0.0453  0.6593
 6128TIP3    H140019   1.571   4.754   8.355 -0.2484 -0.1090  0.5740
 6128TIP3    H240020   1.573   4.847   8.475 -0.5167 -0.2045  0.6519
 6129TIP3   OH240021   5.872   2.536   2.171 -0.3770 -0.1103  0.5243
 6129TIP3    H140022   5.848   2.506   2.259 -1.9956 -0.8204 -0.1179
 6129TIP3    H240023   5.891   2.629   2.182  2.8777 -0.8151  2.2172
 6130TIP3   OH240024   4.932   5.866   1.040  0.0681  0.5965 -0.2889
 6130TIP3    H140025   4.959   5.903   1.124  1.4676  0.9513 -0.8621
 6130TIP3    H240026   4.850   5.821   1.059  0.6895  0.0956  1.4114
 6131TIP3   OH240027   2.065   4.178   7.123 -0.6392 -0.1836  0.1568
 6131TIP3    H140028   2.100   4.157   7.209 -0.6207  1.1900  0.5089
 6131TIP3    H240029   2.008   4.254   7.138 -0.9240 -0.1549 -0.9740
 6132TIP3   OH240030   0.649   0.531   1.529 -0.1355 -0.8523  0.3104
 6132TIP3    H140031   0.688   0.457   1.574  1.1218  0.2510  1.0751
 6132TIP3    H240032   0.701   0.606   1.554 -1.8932  0.4689  0.2401
 6133TIP3   OH240033   2.360   6.123   0.990 -0.3189  0.3459 -1.3052
 6133TIP3    H140034   2.365   6.131   0.894 -0.5198 -0.1594 -1.3584
 6133TIP3    H240035   2.360   6.029   1.007  0.1516  0.4385 -0.7788
 6134TIP3   OH240036   1.112   0.007   1.911 -0.3949  0.4427  0.2527
 6134TIP3    H140037   1.173   0.000   1.837  0.1132 -2.9315  0.8103
 6134TIP3    H240038   1.165   0.040   1.983  0.3289 -0.5866  0.2204
 6135TIP3   OH240039   4.541   4.315   1.077  0.2634 -0.0221 -0.4444
 6135TIP3    H140040   4.448   4.331   1.089  0.2632 -0.3035 -0.0726
 6135TIP3    H240041   4.550   4.299   0.983  0.1542  1.3891 -0.7080
 6136TIP3   OH240042   3.572   6.009   0.640 -0.2400 -0.3167  0.1382
 6136TIP3    H140043   3.554   5.974   0.553  1.9408 -1.2586 -0.0034
 6136TIP3    H240044   3.502   5.974   0.695 -1.4344 -0.0130 -1.1565
 6137TIP3   OH240045   6.247   2.502   2.112 -0.1726  0.4056 -0.1186
 6137TIP3    H140046   6.292   2.573   2.065  0.0628 -0.1337 -0.7145
 6137TIP3    H240047   6.214   2.544   2.192  3.4031  0.3404  1.5883
 6138TIP3   OH240048   0.265   1.184   0.449  0.4248  0.2828  0.3926
 6138TIP3    H140049   0.184   1.150   0.413 -0.0484  1.1708  0.5992
 6138TIP3    H240050   0.331   1.166   0.382 -0.4765  2.0876 -1.0501
 6139TIP3   OH240051   1.515   5.404   1.509  0.7395  0.2264 -0.5765
 6139TIP3    H140052   1.457   5.410   1.433  0.8572 -0.5906 -0.7419
 6139TIP3    H240053   1.464   5.439   1.581  0.1850 -0.0968 -0.8068
 6140TIP3   OH240054   2.616   3.748   7.526  0.5362  0.4499  0.3771
 6140TIP3    H140055   2.688   3.703   7.480  0.4081 -1.4804  1.9194
 6140TIP3    H240056   2.642   3.840   7.527  1.9909  0.0982 -0.8675
 6141TIP3   OH240057   3.230   6.727   7.025  0.0066 -0.2554  0.3689
 6141TIP3    H140058   3.199   6.726   7.115 -1.8672 -1.8856 -0.2350
 6141TIP3    H240059   3.184   6.800   6.984  1.0802  0.6749  0.7387
 6142TIP3   OH240060   3.245   0.555   2.196  0.3525 -0.9143  0.7701
 6142TIP3    H140061   3.303   0.527   2.266  2.1606  0.2795 -0.1766
 6142TIP3    H240062   3.201   0.474   2.167 -0.5383 -1.4049  3.2842
 6143TIP3   OH240063   3.680   6.154   0.888 -0.2314 -0.2601  0.1870
 6143TIP3    H140064   3.608   6.203   0.928  1.1002  1.7616  0.2242
 6143TIP3    H240065   3.637   6.094   0.827 -1.9241  2.2897 -1.3211
 6144TIP3   OH240066   6.315   0.928   0.762 -0.2536 -0.2932 -0.3645
 6144TIP3    H140067   6.384   0.896   0.704  0.3728  0.5374 -0.0903
 6144TIP3    H240068   6.273   0.848   0.795 -0.0444 -0.7858 -1.2550
 6145TIP3   OH240069   0.400   2.040   1.597 -0.2737  0.0001 -0.0220
 6145TIP3    H140070   0.421   2.098   1.671 -0.6894 -0.9880  0.8986
 6145TIP3    H240071   0.348   1.970   1.636  0.1415 -0.9511 -1.1232
 6146TIP3   OH240072   6.819   3.689   7.071  0.2971  0.4888 -0.3956
 6146TIP3    H140073   6.853   3.754   7.009  0.5478 -0.3082 -1.1138
 6146TIP3    H240074   6.748   3.645   7.022  1.1389 -0.8064 -0.4842
 6147TIP3   OH240075   1.309   1.079   7.223 -0.0554  0.6433  0.2633
 6147TIP3    H140076   1.294   1.167   7.188  0.0733  0.8206  0.6511
 6147TIP3    H240077   1.380   1.044   7.169  0.7475  1.2449  0.8885
 6148TIP3   OH240078   1.776   2.070   0.747 -0.0907  0.3369  0.3953
 6148TIP3    H140079   1.683   2.054   0.730  0.2395 -1.2823 -0.0933
 6148TIP3    H240080   1.796   2.150   0.697 -0.3221 -1.5337 -3.0136
 6149TIP3   OH240081   4.354   4.583   2.138  0.1027  0.3681  0.1991
 6149TIP3    H140082   4.293   4.616   2.204 -0.1367 -1.3537  0.8871
 6149TIP3    H240083   4.441   4.606   2.172  0.0161 -1.0341  1.4708
 6150TIP3   OH240084   5.855   3.928   0.844  0.0751 -0.4757 -0.2184
 6150TIP3    H140085   5.844   3.872   0.921  3.0025  0.8319  1.3185
 6150TIP3    H240086   5.833   4.016   0.875  1.0247  0.0274 -0.9192
 6151TIP3   OH240087   6.699   6.464   0.465 -0.1708 -0.2006  0.2354
 6151TIP3    H140088   6.622   6.514   0.438 -1.2940 -1.7265  0.4334
 6151TIP3    H240089   6.720   6.410   0.389 -1.4335 -2.2411  1.2212
 6152TIP3   OH240090   4.713   3.226   0.822  0.0913 -0.0751  0.6295
 6152TIP3    H140091   4.808   3.228   0.818  0.1171  1.4790  1.3839
 6152TIP3    H240092   4.687   3.170   0.749  1.5910 -1.0380  0.7884
 6153TIP3   OH240093   5.616   1.408   1.024  0.2880 -0.0963 -0.2337
 6153TIP3    H140094   5.564   1.329   1.010  0.3931 -0.2686  0.3434
 6153TIP3    H240095   5.644   1.434   0.936 -1.7693  0.6968 -0.7154
 6154TIP3   OH240096   4.086   0.479   2.518  0.1537 -0.0818 -0.3486
 6154TIP3    H140097   4.014   0.530   2.554 -0.1978 -0.7081 -0.1530
 6154TIP3    H240098   4.164   0.531   2.538 -0.1234  0.0263  0.5014
 6155TIP3   OH240099   1.070   4.634   6.971  0.5071 -0.2543 -0.1900
 6155TIP3    H140100   1.056   4.721   6.932  0.5299 -0.6023 -0.9950
 6155TIP3    H240101   1.039   4.573   6.904 -0.6734 -0.8497  0.8656
 6156TIP3   OH240102   3.837   5.925   0.290 -0.0013 -0.0466 -0.0735
 6156TIP3    H140103   3.768   5.991   0.287  0.0619  0.0082 -0.4488
 6156TIP3    H240104   3.902   5.956   0.227  1.5861  1.2335  2.0995
 6157TIP3   OH240105   5.430   6.104   6.532  0.2429 -0.4372 -0.3427
 6157TIP3    H140106   5.523   6.083   6.545  0.1890  0.1344  1.1340
 6157TIP3    H240107   5.417   6.187   6.578 -1.3702 -1.3516  0.9650
 6158TIP3   OH240108   6.316   2.661   8.045  0.0722 -0.2423 -0.0327
 6158TIP3    H140109   6.258   2.702   7.981  0.0785 -1.2849 -0.7157
 6158TIP3    H240110   6.387   2.623   7.993  0.9268  0.2558  0.7185
 6159TIP3   OH240111   3.747   4.410   8.496  0.5569 -0.4470 -0.4504
 6159TIP3    H140112   3.716   4.447   8.579  1.5893 -0.3197 -0.1121
 6159TIP3    H240113   3.667   4.380   8.453 -0.2700  1.6710 -0.5077
 6160TIP3   OH240114   0.370   0.457   0.017  0.3792  0.2301  0.2133
 6160TIP3    H140115   0.340   0.452   0.108 -0.9657 -0.7341 -0.2494
 6160TIP3    H240116   0.459   0.422   0.019 -0.2024 -1.3123  0.9363
 6161TIP3   OH240117   2.736   1.755   2.638  0.8059  0.0421 -0.0241
 6161TIP3    H140118   2.684   1.807   2.699  0.5846 -1.3925  1.0539
 6161TIP3    H240119   2.740   1.809   2.559  0.3473  1.5547  0.9329
 6162TIP3   OH240120   0.935   6.094   0.215 -0.0457 -0.1530  0.1759
 6162TIP3    H140121   0.865   6.136   0.165 -0.1621 -1.2848 -0.6439
 6162TIP3    H240122   0.911   6.001   0.218  0.7888 -0.3635  0.9649
 6163TIP3   OH240123   0.016   4.888   1.438  0.3150  0.3233 -0.0933
 6163TIP3    H140124   0.095   4.943   1.442  0.6471 -0.2139  1.1505
 6163TIP3    H240125   0.019   4.848   1.350  1.0372  0.8665 -0.3273
 6164TIP3   OH240126   4.592   2.813   2.812  0.1437  0.6064 -0.6389
 6164TIP3    H140127   4.683   2.787   2.827 -0.2430  0.7501  2.9617
 6164TIP3    H240128   4.598   2.896   2.765  1.7608 -0.2690 -2.0892
 6165TIP3   OH240129   5.162   6.061   8.317 -0.1110  0.5707 -0.2986
 6165TIP3    H140130   5.226   6.023   8.256 -0.1073 -1.0773  0.6738
 6165TIP3    H240131   5.213   6.086   8.394 -0.2948  1.5207 -0.4737
 6166TIP3   OH240132   5.243   3.536   0.888  0.6416 -0.3575 -0.4137
 6166TIP3    H140133   5.187   3.579   0.824  0.6483  0.4417  0.1107
 6166TIP3    H240134   5.230   3.585   0.969  1.4173 -0.7180 -0.0585
 6167TIP3   OH240135   6.471   4.734   7.819 -0.2354 -0.0023 -0.0127
 6167TIP3    H140136   6.384   4.725   7.858 -0.8587  0.9362 -1.1197
 6167TIP3    H240137   6.510   4.647   7.827 -1.1440 -0.3588  0.7806
 6168TIP3   OH240138   5.101   0.458   1.856  0.8201 -0.0552 -0.7558
 6168TIP3    H140139   5.137   0.369   1.867  1.1878  0.0780 -0.8541
 6168TIP3    H240140   5.061   0.478   1.941 -0.7387 -0.9552 -1.2370
 6169TIP3   OH240141   3.863   5.384   8.613  0.1740 -0.3297  0.0594
 6169TIP3    H140142   3.941   5.421   8.571  1.5440 -0.8145  2.0108
 6169TIP3    H240143   3.867   5.417   8.703 -0.0466 -3.0192  1.1225
 6170TIP3   OH240144   1.034   4.355   8.006 -0.2893 -0.8177  0.3248
 6170TIP3    H140145   0.948   4.356   7.964 -0.0415  0.7043 -0.1948
 6170TIP3    H240146   1.089   4.302   7.948 -0.5546 -0.7461  0.0060
 6171TIP3   OH240147   0.760   0.644   7.530 -0.0344 -0.1412  0.2886
 6171TIP3    H140148   0.709   0.706   7.584  1.0062  0.3147  0.7726
 6171TIP3    H240149   0.758   0.563   7.580 -0.8008 -0.3101  0.0000
 6172TIP3   OH240150   6.765   1.585   2.028  0.1731 -0.3219  0.2246
 6172TIP3    H140151   6.791   1.616   2.114  1.0978 -0.4803  0.0095
 6172TIP3    H240152   6.843   1.595   1.974 -0.2045 -0.8325 -0.4316
 6173TIP3   OH240153   6.183   4.470   7.702  0.0510 -0.5608  0.0645
 6173TIP3    H140154   6.184   4.434   7.613  0.0787 -0.8759  0.1905
 6173TIP3    H240155   6.097   4.511   7.711  0.0791 -0.4595 -0.1357
 6174TIP3   OH240156   3.539   1.268   0.659 -0.3592  0.1879 -0.5486
 6174TIP3    H140157   3.598   1.247   0.587  4.0480  2.0265  2.1195
 6174TIP3    H240158   3.523   1.362   0.650  0.3398  0.4640  0.8541
 6175TIP3   OH240159   2.990   4.334   0.032  0.4481  0.3871 -0.0420
 6175TIP3    H140160   2.924   4.338  -0.037  0.1763 -1.1573  0.0937
 6175TIP3    H240161   3.065   4.382  -0.003 -0.5527  1.7573 -0.3889
 6176TIP3   OH240162   2.873   5.586   1.064  0.0044  0.2108 -0.3822
 6176TIP3    H140163   2.868   5.538   1.147  0.2348 -0.0723 -0.5300
 6176TIP3    H240164   2.816   5.662   1.077  2.3768  1.8663  1.1344
 6177TIP3   OH240165   4.331   3.115   2.364  0.1478 -0.4628 -0.3684
 6177TIP3    H140166   4.378   3.041   2.402  0.6444 -1.4652 -2.7688
 6177TIP3    H240167   4.284   3.078   2.290  0.7025  1.6830 -1.8885
 6178TIP3   OH240168   6.270   0.480   8.226 -0.3819  0.0804 -0.1662
 6178TIP3    H140169   6.175   0.490   8.233 -0.2758  1.6096 -0.4872
 6178TIP3    H240170   6.282   0.419   8.153 -1.1100  1.7708 -1.7811
 6179TIP3   OH240171   4.900   6.787   8.326  0.1560 -0.2649 -0.4386
 6179TIP3    H140172   4.805   6.779   8.320  0.0108 -1.7849  2.1782
 6179TIP3    H240173   4.918   6.877   8.298 -2.1998  0.4564  0.1055
 6180TIP3   OH240174   0.550   6.418   1.606  0.8994  0.0578  0.0697
 6180TIP3    H140175   0.548   6.328   1.572  2.6895 -0.8229  2.0936
 6180TIP3    H240176   0.580   6.409   1.696  0.6487  2.6835  0.4942
 6181TIP3   OH240177   0.540   4.884   0.302  0.0002  0.4908  0.3300
 6181TIP3    H140178   0.455   4.868   0.342 -0.1205 -1.5685 -0.5897
 6181TIP3    H240179   0.520   4.911   0.212  0.3061  0.3545  0.2178
 6182TIP3   OH240180   6.368   3.506   8.030 -0.4618 -0.6241  0.6983
 6182TIP3    H140181   6.355   3.486   7.938  0.3504 -2.9036  1.0005
 6182TIP3    H240182   6.298   3.568   8.052 -1.0360 -0.5082 -1.2733
 6183TIP3   OH240183   0.983   6.329   2.343 -0.6395  0.3704  0.0088
 6183TIP3    H140184   1.007   6.291   2.259 -1.1383 -2.0985  0.9094
 6183TIP3    H240185   1.066   6.362   2.379 -0.2620  0.5169 -0.9688
 6184TIP3   OH240186   1.147   3.478   1.257  0.7383  0.1739  0.3318
 6184TIP3    H140187   1.139   3.462   1.163 -0.0387 -0.5164  0.5055
 6184TIP3    H240188   1.195   3.561   1.263  2.4254 -0.6822 -0.6360
 6185TIP3   OH240189   1.638   1.373   0.447  0.0287 -0.7305  0.1074
 6185TIP3    H140190   1.574   1.440   0.472 -0.6662 -1.8559  1.5526
 6185TIP3    H240191   1.656   1.390   0.355  0.1791  1.6521  0.5031
 6186TIP3   OH240192   1.057   3.941   7.913 -0.5444  0.2406  0.2086
 6186TIP3    H140193   1.102   4.025   7.919 -2.7028  1.5134 -0.2809
 6186TIP3    H240194   1.109   3.890   7.850  0.4823  1.4181  0.0820
 6187TIP3   OH240195   6.422   6.419   1.576 -0.4067 -0.5190  0.3028
 6187TIP3    H140196   6.347   6.364   1.552 -0.9938  0.6941 -0.8105
 6187TIP3    H240197   6.406   6.443   1.667 -1.5819 -0.0164 -0.0081
 6188TIP3   OH240198   4.783   0.069   0.091  0.1917  0.5874 -0.1889
 6188TIP3    H140199   4.833   0.002   0.138  0.4798  0.3135 -0.8757
 6188TIP3    H240200   4.694   0.060   0.125 -0.2137 -1.4501 -1.5946
 6189TIP3   OH240201   1.149   1.858   7.449  0.1029  0.4944 -0.5424
 6189TIP3    H140202   1.171   1.786   7.390  1.2998  0.4732 -0.0889
 6189TIP3    H240203   1.073   1.900   7.408 -0.1789 -0.5974 -1.1685
 6190TIP3   OH240204   1.766   4.584   0.998 -0.2046  0.3493 -0.0744
 6190TIP3    H140205   1.777   4.665   0.948  0.7271 -0.2876 -0.9595
 6190TIP3    H240206   1.693   4.540   0.955  1.0750 -0.5525 -1.4541
 6191TIP3   OH240207   1.586   2.138   2.028 -0.0694  0.0107 -0.4206
 6191TIP3    H140208   1.580   2.112   1.936 -0.4648  0.7381 -0.6103
 6191TIP3    H240209   1.501   2.116   2.065 -0.6888  1.6811 -0.7725
 6192TIP3   OH240210   6.084   2.895   2.246 -0.1846 -0.2676 -0.0510
 6192TIP3    H140211   6.049   2.855   2.326 -0.2654 -2.1158 -0.9633
 6192TIP3    H240212   6.009   2.900   2.187  0.1466 -0.1194 -0.4629
 6193TIP3   OH240213   3.725   3.429   1.639 -0.6928 -0.6953  0.2823
 6193TIP3    H140214   3.638   3.424   1.677 -0.5350  1.3192  1.0027
 6193TIP3    H240215   3.721   3.502   1.577  0.9709  0.8145  1.8336
 6194TIP3   OH240216   3.988   1.131   7.756  0.1980  0.1053 -0.5816
 6194TIP3    H140217   3.995   1.102   7.665 -2.1092 -1.1531 -0.4279
 6194TIP3    H240218   4.009   1.054   7.808  0.5482  0.5481 -0.0551
 6195TIP3   OH240219   1.505   6.530   0.987 -0.5740 -0.3943  0.0477
 6195TIP3    H140220   1.452   6.459   0.952  0.2888 -0.2403 -1.6696
 6195TIP3    H240221   1.573   6.544   0.921  0.2029  0.9795  1.0861
 6196TIP3   OH240222   0.917   0.391   8.171  0.1361  0.6045 -0.4408
 6196TIP3    H140223   0.993   0.449   8.169  0.0266  0.7499 -0.3928
 6196TIP3    H240224   0.870   0.416   8.251 -1.0019  1.8396 -1.4503
 6197TIP3   OH240225   2.385   2.511   8.096  0.3108 -0.1885 -0.8093
 6197TIP3    H140226   2.315   2.503   8.161  1.6867  1.8456  1.0722
 6197TIP3    H240227   2.357   2.584   8.039  0.3431 -0.1656 -0.7965
 6198TIP3   OH240228   3.329   4.940   7.612  0.0850  0.7573  0.2721
 6198TIP3    H140229   3.389   4.875   7.575  1.4489  1.7002  0.7495
 6198TIP3    H240230   3.244   4.918   7.574  0.8581 -0.1642 -1.0195
 6199TIP3   OH240231   3.481   5.478   2.390  0.1244 -0.2560 -0.0627
 6199TIP3    H140232   3.448   5.471   2.480  2.6974 -1.0293  0.9024
 6199TIP3    H240233   3.565   5.431   2.392  0.0407 -0.6791 -2.9950
 6200TIP3   OH240234   4.218   3.598   0.690  0.4199  0.0562 -0.6040
 6200TIP3    H140235   4.173   3.572   0.770  1.5675 -0.3737 -0.0805
 6200TIP3    H240236   4.197   3.691   0.680  1.1556  0.4054  0.8207
 6201TIP3   OH240237   5.521   2.818   0.265  0.0355 -0.5171  0.5679
 6201TIP3    H140238   5.458   2.826   0.336 -2.3091 -0.7552 -1.3517
 6201TIP3    H240239   5.529   2.724   0.248 -2.0801 -0.3996 -1.5794
 6202TIP3   OH240240   3.825   3.550   1.410  0.2615 -0.2171 -0.0737
 6202TIP3    H140241   3.757   3.603   1.368 -0.3551  0.1899  1.3747
 6202TIP3    H240242   3.848   3.484   1.344 -1.1220  0.0059 -0.8171
 6203TIP3   OH240243   0.547   4.307   7.423 -0.2112 -0.1268 -0.5609
 6203TIP3    H140244   0.572   4.216   7.405  0.3657 -0.2070  0.5494
 6203TIP3    H240245   0.534   4.346   7.336 -0.4725 -1.2598 -1.0564
 6204TIP3   OH240246   4.894   5.483   0.881  0.1600  0.2703  0.1218
 6204TIP3    H140247   4.978   5.528   0.867  0.3694  0.8316  2.6909
 6204TIP3    H240248   4.919   5.391   0.891  0.1494  0.0613 -1.5515
 6205TIP3   OH240249   6.647   0.663   1.128  0.1662  0.3792 -0.5024
 6205TIP3    H140250   6.606   0.621   1.052 -0.6001 -0.2004  0.2008
 6205TIP3    H240251   6.734   0.688   1.098 -0.4935  1.1439 -1.8926
 6206TIP3   OH240252   0.708   6.166   1.778 -0.2827 -0.1006  0.2628
 6206TIP3    H140253   0.655   6.234   1.818 -0.0277  0.4528 -0.3232
 6206TIP3    H240254   0.763   6.213   1.715 -2.3094 -1.1930 -2.4849
 6207TIP3   OH240255   6.619   4.579   1.409 -0.3642  0.0556  0.1045
 6207TIP3    H140256   6.562   4.546   1.339 -1.1255  0.5142  0.4955
 6207TIP3    H240257   6.561   4.586   1.485  0.2450  0.4387  0.5380
 6208TIP3   OH240258   6.591   0.883   6.921 -0.1828  0.1503  0.0326
 6208TIP3    H140259   6.568   0.954   6.981 -2.1706 -0.2131 -0.2531
 6208TIP3    H240260   6.680   0.905   6.893  0.0616  1.3716  1.5835
 6209TIP3   OH240261   5.266   0.142   7.043  0.5818 -0.4773 -0.6190
 6209TIP3    H140262   5.259   0.095   6.961  0.4446 -2.9009  0.6894
 6209TIP3    H240263   5.175   0.149   7.074  0.5530  1.0687 -0.9670
 6210TIP3   OH240264   5.804   3.581   7.121 -0.2235  0.3216 -0.2200
 6210TIP3    H140265   5.773   3.656   7.070 -1.3891  0.7751  1.1027
 6210TIP3    H240266   5.897   3.575   7.100 -0.1855  1.9266 -0.6038
 6211TIP3   OH240267   5.707   4.331   0.380  0.0456 -0.2014  0.3567
 6211TIP3    H140268   5.670   4.263   0.324  1.4518 -0.0597 -0.7863
 6211TIP3    H240269   5.667   4.314   0.466 -1.3118 -1.0941 -0.3954
 6212TIP3   OH240270   6.614   4.236   7.554 -0.4040  0.0536  0.4646
 6212TIP3    H140271   6.635   4.329   7.555  1.0463 -0.2380  0.0861
 6212TIP3    H240272   6.573   4.219   7.639  0.1383  0.8697  0.9014
 6213TIP3   OH240273   5.200   1.590   1.082  0.0862  0.2160 -0.0516
 6213TIP3    H140274   5.163   1.617   0.998  0.9522  1.1853 -0.1343
 6213TIP3    H240275   5.273   1.650   1.097  0.0027  0.0002  1.3552
 6214TIP3   OH240276   5.580   5.038   1.134  0.0394  0.3679  0.1209
 6214TIP3    H140277   5.654   5.031   1.194 -1.2469 -0.8375  1.6538
 6214TIP3    H240278   5.509   5.074   1.187 -0.3507  2.1390 -1.4911
 6215TIP3   OH240279   4.149   2.528   8.316  0.5301  0.4258 -0.1997
 6215TIP3    H140280   4.154   2.615   8.277  1.5557 -0.1865 -1.5148
 6215TIP3    H240281   4.065   2.526   8.362 -0.4663  1.3812 -1.9203
 6216TIP3   OH240282   6.648   5.577   7.362  0.1853  0.8316  0.2981
 6216TIP3    H140283   6.566   5.532   7.343  0.4293  0.6544 -0.3559
 6216TIP3    H240284   6.664   5.558   7.455 -0.4770  0.8202  0.4216
 6217TIP3   OH240285   1.663   6.292   0.528 -0.5846  0.0518 -0.4283
 6217TIP3    H140286   1.651   6.360   0.462  0.0365  1.1405  0.5481
 6217TIP3    H240287   1.657   6.210   0.479  0.5242  0.8353 -1.9557
 6218TIP3   OH240288   1.554   6.412   8.370 -0.5399  0.5110  0.3047
 6218TIP3    H140289   1.476   6.385   8.322  0.1833 -1.1041 -0.0154
 6218TIP3    H240290   1.610   6.452   8.304 -1.2368  2.0912  0.6157
 6219TIP3   OH240291   3.915   0.157   2.437  0.8247 -0.2471  0.1737
 6219TIP3    H140292   3.915   0.063   2.454  1.2868  0.0254  1.8667
 6219TIP3    H240293   3.849   0.192   2.495  2.5436  0.7665  1.6211
 6220TIP3   OH240294   4.401   6.468   8.528 -0.2975  0.1221  0.2587
 6220TIP3    H140295   4.340   6.540   8.511  0.2440 -0.1264 -3.5388
 6220TIP3    H240296   4.488   6.508   8.517  0.0447 -0.8303 -0.5481
 6221TIP3   OH240297   6.671   6.335   7.767  0.3280 -0.0102 -0.1879
 6221TIP3    H140298   6.594   6.280   7.783 -0.2186  0.1978 -1.8279
 6221TIP3    H240299   6.644   6.423   7.792 -0.6626  0.3899 -2.4254
 6222TIP3   OH240300   1.921   5.753   0.781  0.0773 -0.1708 -0.1590
 6222TIP3    H140301   1.904   5.797   0.864  1.3779  0.4245 -0.1754
 6222TIP3    H240302   1.835   5.726   0.749 -0.7145  1.7300  0.2087
 6223TIP3   OH240303   6.578   4.251   1.221  0.3962  0.4487 -0.4400
 6223TIP3    H140304   6.504   4.197   1.245 -0.6866  1.0682 -2.1617
 6223TIP3    H240305   6.620   4.275   1.304 -1.7193  0.6267  0.6220
 6224TIP3   OH240306   5.441   3.576   2.983  0.1008 -0.0363 -0.1280
 6224TIP3    H140307   5.360   3.600   3.028  0.8354  0.5600  0.9154
 6224TIP3    H240308   5.417   3.501   2.928 -1.2116  0.3009 -0.0432
 6225TIP3   OH240309   2.484   6.785   1.151  0.7600  0.4015 -0.1210
 6225TIP3    H140310   2.477   6.711   1.211 -1.0099  0.7220  0.1286
 6225TIP3    H240311   2.533   6.851   1.201  2.6261 -0.6516 -0.4585
 6226TIP3   OH240312   4.048   1.222   0.548 -0.2985 -0.3817 -0.0674
 6226TIP3    H140313   4.046   1.310   0.586 -0.5331  0.1365 -1.2406
 6226TIP3    H240314   4.105   1.230   0.471 -2.9839 -0.3401 -2.2205
 6227TIP3   OH240315   1.687   2.648   1.525 -0.1457 -0.1280 -0.7284
 6227TIP3    H140316   1.592   2.644   1.520 -0.2791  1.9521 -0.7224
 6227TIP3    H240317   1.717   2.608   1.443 -1.0880  0.6620 -1.4850
 6228TIP3   OH240318   0.191   4.454   1.601  0.3409  0.1573 -0.2878
 6228TIP3    H140319   0.124   4.477   1.536  0.7378 -1.3259 -1.2692
 6228TIP3    H240320   0.151   4.384   1.653  0.7593 -0.0373 -0.2259
 6229TIP3   OH240321   1.303   5.926   1.892 -1.2789  0.3368  0.1191
 6229TIP3    H140322   1.307   5.958   1.983 -0.8735 -0.0207  0.2281
 6229TIP3    H240323   1.340   5.838   1.896 -1.1954  0.3470 -0.4094
 6230TIP3   OH240324   1.599   3.377   2.374 -0.1780  0.3188  0.1105
 6230TIP3    H140325   1.543   3.309   2.336 -0.7721  1.2545 -0.7583
 6230TIP3    H240326   1.686   3.338   2.377 -0.8328 -1.1521  1.4305
 6231TIP3   OH240327   0.059   0.984   7.835  0.3358 -0.2789 -0.1064
 6231TIP3    H140328   0.031   1.033   7.912 -0.2948 -1.4643  0.4555
 6231TIP3    H240329  -0.023   0.966   7.788  0.6901  0.2271 -0.9271
 6232TIP3   OH240330   5.814   2.657   7.547 -0.3400  0.0376  0.3613
 6232TIP3    H140331   5.836   2.571   7.582 -1.0019 -1.1613 -1.9682
 6232TIP3    H240332   5.789   2.709   7.624  1.6942 -1.2813  2.0201
 6233TIP3   OH240333   2.897   3.913   1.504 -0.3596 -0.0375  0.5340
 6233TIP3    H140334   2.867   3.968   1.577  0.7600  1.6566 -0.2128
 6233TIP3    H240335   2.923   3.831   1.545 -1.0590  0.3631  1.8556
 6234TIP3   OH240336   6.305   5.318   8.177  0.0977  0.4408 -0.1070
 6234TIP3    H140337   6.388   5.363   8.190  0.2902 -0.4792  2.2191
 6234TIP3    H240338   6.258   5.330   8.259 -0.8284 -1.5500 -0.2921
 6235TIP3   OH240339   6.580   0.649   0.651 -0.0360  0.0040  0.2322
 6235TIP3    H140340   6.571   0.572   0.596 -1.6585 -0.5817  1.2495
 6235TIP3    H240341   6.535   0.718   0.602  0.9216  0.2064 -0.4091
 6236TIP3   OH240342   3.846   6.075   1.410  0.2441 -0.2553  0.2583
 6236TIP3    H140343   3.856   5.999   1.469  0.3573 -0.9781 -0.6664
 6236TIP3    H240344   3.766   6.055   1.361  0.7668 -0.2153 -0.6197
 6237TIP3   OH240345   4.678   4.565   2.070  0.3913 -0.4734  0.1258
 6237TIP3    H140346   4.758   4.605   2.036 -0.2347 -0.7405 -1.7389
 6237TIP3    H240347   4.607   4.614   2.029 -0.4041 -1.3099  0.4623
 6238TIP3   OH240348   0.289   5.846   1.605  0.1123  0.9263 -0.1196
 6238TIP3    H140349   0.358   5.873   1.545  0.2876  1.7511  0.4279
 6238TIP3    H240350   0.333   5.789   1.668  0.4754  1.9914  0.6320
 6239TIP3   OH240351   4.568   6.172   7.070 -0.0037  0.0760 -0.0166
 6239TIP3    H140352   4.528   6.085   7.080 -0.7778  0.3924 -0.2577
 6239TIP3    H240353   4.534   6.204   6.987  0.2304  0.6430  0.1032
 6240TIP3   OH240354   1.695   3.652   7.308  0.1346 -0.0093  0.7498
 6240TIP3    H140355   1.775   3.609   7.280  0.1623  1.6866 -2.2157
 6240TIP3    H240356   1.625   3.598   7.273  0.1523  1.2475 -1.4223
 6241TIP3   OH240357   6.385   0.490   7.813  0.4432 -0.1909  0.5278
 6241TIP3    H140358   6.294   0.512   7.832  0.3820 -0.8948  1.0928
 6241TIP3    H240359   6.383   0.397   7.791  0.4552  0.5414 -3.2668
 6242TIP3   OH240360   5.250   0.189   7.688  0.1864  0.3393  0.1984
 6242TIP3    H140361   5.271   0.183   7.594  1.1774  0.1585  0.4249
 6242TIP3    H240362   5.177   0.128   7.699 -1.4840  2.0339 -0.8720
 6243TIP3   OH240363   0.693   0.429   0.254  0.8423  1.1667 -0.2185
 6243TIP3    H140364   0.788   0.414   0.257  0.6795 -0.1847 -0.8679
 6243TIP3    H240365   0.669   0.412   0.163 -0.1964  0.2066  0.2054
 6244TIP3   OH240366   1.202   5.452   6.940 -0.3166  0.0682 -0.1576
 6244TIP3    H140367   1.196   5.456   7.035 -0.2235 -0.2780 -0.1354
 6244TIP3    H240368   1.134   5.512   6.909 -1.5911 -1.1912  0.1108
 6245TIP3   OH240369   1.405   3.585   7.774  0.3396  0.3735  0.0275
 6245TIP3    H140370   1.477   3.610   7.716 -0.4030  0.7932 -0.7364
 6245TIP3    H240371   1.366   3.508   7.732  0.4004  0.0899  0.4864
 6246TIP3   OH240372   1.519   0.404   7.332 -0.0336  0.0830 -0.1856
 6246TIP3    H140373   1.471   0.459   7.270  1.7923  0.8382 -1.0095
 6246TIP3    H240374   1.475   0.419   7.416 -2.4362 -0.8238 -1.1973
 6247TIP3   OH240375   0.968   6.339   8.598 -0.5842 -0.1292 -0.3261
 6247TIP3    H140376   0.872   6.331   8.595 -0.5451 -0.2930 -2.1493
 6247TIP3    H240377   0.999   6.285   8.525  0.7308  2.3321 -1.7191
 6248TIP3   OH240378   3.632   1.482   7.817 -0.4299  0.4074  0.4566
 6248TIP3    H140379   3.552   1.475   7.869 -0.0601  2.2433  1.3619
 6248TIP3    H240380   3.702   1.454   7.877 -0.4533 -3.3326 -0.9694
 6249TIP3   OH240381   0.792   6.416   2.174 -0.2577  0.7942  0.1666
 6249TIP3    H140382   0.710   6.367   2.170 -2.2225  3.7929 -0.1476
 6249TIP3    H240383   0.839   6.378   2.248 -0.2695 -3.2084 -1.6277
 6250TIP3   OH240384   0.758   2.757   8.634  0.7255  0.1865  0.5812
 6250TIP3    H140385   0.675   2.747   8.586  1.3260  0.0485 -0.4525
 6250TIP3    H240386   0.814   2.688   8.599  1.6740  1.0236  0.4278
 6251TIP3   OH240387   3.609   3.095   6.975 -0.2601 -0.0287 -0.0617
 6251TIP3    H140388   3.648   3.120   6.891 -0.2491  0.4613  0.0845
 6251TIP3    H240389   3.638   3.005   6.989  2.1413  0.7839  0.7645
 6252TIP3   OH240390   3.153   6.673   2.215 -0.0517  0.1522 -1.0758
 6252TIP3    H140391   3.141   6.696   2.307  0.3896 -0.0165 -0.9750
 6252TIP3    H240392   3.078   6.714   2.170 -1.0197 -0.9135 -0.4723
 6253TIP3   OH240393   6.506   5.499   8.119  0.6359  0.2432  0.3262
 6253TIP3    H140394   6.585   5.459   8.083 -1.2080 -2.4068 -1.1379
 6253TIP3    H240395   6.474   5.556   8.049  1.4634  1.7328  1.1200
 6254TIP3   OH240396   5.661   4.006   7.943  0.1006  0.2034  0.0915
 6254TIP3    H140397   5.706   4.075   7.991  0.8133  0.8369 -1.4483
 6254TIP3    H240398   5.731   3.954   7.903 -0.4472 -0.9586  0.5730
 6255TIP3   OH240399   2.702   3.448   1.771  0.3463 -0.1021 -0.3322
 6255TIP3    H140400   2.674   3.510   1.839  0.4899 -1.3358  0.8923
 6255TIP3    H240401   2.655   3.476   1.693  2.1153  2.9692 -0.4780
 6256TIP3   OH240402   6.121   6.592   0.623  0.0780 -0.6833  0.0566
 6256TIP3    H140403   6.215   6.580   0.637 -0.2168 -2.0683  1.1831
 6256TIP3    H240404   6.087   6.503   0.614 -1.2487 -0.2623  0.6413
 6257TIP3   OH240405   3.564   2.887   6.737 -0.1878 -0.3195  0.3987
 6257TIP3    H140406   3.623   2.840   6.679  0.5538 -0.8966  1.5883
 6257TIP3    H240407   3.576   2.846   6.823  0.8364  2.2569  1.6116
 6258TIP3   OH240408   0.243   6.159   0.037  0.2577 -0.4421 -0.1022
 6258TIP3    H140409   0.295   6.125  -0.036  1.8427  1.9956 -0.2251
 6258TIP3    H240410   0.204   6.240   0.002 -0.5583 -0.2679  1.1655
 6259TIP3   OH240411   1.135   3.600   7.602  0.0713  0.0557 -0.0961
 6259TIP3    H140412   1.116   3.601   7.508 -0.1333  0.3103 -0.0528
 6259TIP3    H240413   1.218   3.552   7.608 -0.4297 -0.8720 -0.3011
 6260TIP3   OH240414   6.339   1.737   0.429  0.0412  0.2906  0.2222
 6260TIP3    H140415   6.252   1.706   0.453 -0.1456 -0.3545 -1.1673
 6260TIP3    H240416   6.392   1.723   0.507 -0.2266 -2.8354 -0.0135
 6261TIP3   OH240417   3.752   3.725   0.439  0.3670 -0.1498  0.2032
 6261TIP3    H140418   3.687   3.656   0.452 -0.3202  0.5299  0.3939
 6261TIP3    H240419   3.791   3.738   0.525  1.1201 -0.9007 -0.0096
 6262TIP3   OH240420   1.246   1.011   1.562  0.3941  0.2677 -0.0019
 6262TIP3    H140421   1.229   1.006   1.656  1.7375 -0.2007  0.2285
 6262TIP3    H240422   1.171   1.060   1.527 -0.6277 -0.4134  1.1595
 6263TIP3   OH240423   1.969   0.718   0.190  0.1814 -0.5693 -0.0985
 6263TIP3    H140424   2.041   0.657   0.210  0.1579 -0.0607  1.7564
 6263TIP3    H240425   1.978   0.735   0.097  1.7879 -1.4020 -0.1430
 6264TIP3   OH240426   4.067   0.453   0.928  0.5328  0.1278 -0.0100
 6264TIP3    H140427   4.108   0.415   1.006  1.0922 -0.8532 -0.7497
 6264TIP3    H240428   3.976   0.426   0.933  0.5549  0.1182  0.3442
 6265TIP3   OH240429   2.538   3.188   8.397  0.1264  0.3647 -0.2639
 6265TIP3    H140430   2.605   3.138   8.350 -0.2730  0.4798 -0.9773
 6265TIP3    H240431   2.511   3.131   8.469 -0.8025 -0.7556 -1.4483
 6266TIP3   OH240432   3.513   2.658   8.191  0.2357  0.1109 -0.5769
 6266TIP3    H140433   3.460   2.610   8.127  0.7343 -0.6953 -0.4076
 6266TIP3    H240434   3.505   2.606   8.271  0.2282  0.6960 -0.2006
 6267TIP3   OH240435   6.819   0.069   6.212 -0.8265  0.5243  0.0624
 6267TIP3    H140436   6.772   0.060   6.296  0.0715 -1.6972  0.4037
 6267TIP3    H240437   6.833   0.163   6.203 -1.9643  0.9324  1.8341
 6268TIP3   OH240438   5.660   5.467   1.620 -0.3291  0.4232 -0.2021
 6268TIP3    H140439   5.702   5.410   1.683 -0.0987  1.2465  0.4019
 6268TIP3    H240440   5.690   5.435   1.535  0.1882 -0.0378  0.1475
 6269TIP3   OH240441   0.096   2.430   0.293  0.6999  0.0303  0.2888
 6269TIP3    H140442   0.141   2.481   0.226 -0.3611  1.4147  0.5757
 6269TIP3    H240443   0.028   2.489   0.326  1.9301 -0.1547  3.4434
 6270TIP3   OH240444   3.301   3.722   0.256  0.3657  0.0804  0.3329
 6270TIP3    H140445   3.257   3.801   0.223  1.3411 -0.1900 -1.7459
 6270TIP3    H240446   3.340   3.750   0.339 -1.0242  1.1859  0.6574
 6271TIP3   OH240447   5.809   1.949   1.838 -0.3312 -0.6451 -0.0984
 6271TIP3    H140448   5.778   1.975   1.751  1.1124 -0.0860 -0.4839
 6271TIP3    H240449   5.729   1.927   1.886 -1.5320  2.3987 -0.4520
 6272TIP3   OH240450   5.546   4.828   0.320 -0.1289 -0.3309 -0.2779
 6272TIP3    H140451   5.636   4.852   0.341  0.1940 -2.2181  0.7005
 6272TIP3    H240452   5.525   4.878   0.241  0.7107  2.4342  1.1219
 6273TIP3   OH240453   3.198   5.664   1.089 -1.0330 -0.1081  0.5617
 6273TIP3    H140454   3.250   5.719   1.148  0.5191  0.6356 -1.4050
 6273TIP3    H240455   3.122   5.639   1.142 -0.7505  2.1870  2.2288
 6274TIP3   OH240456   2.576   3.827   8.319  0.5765 -0.0192 -0.1625
 6274TIP3    H140457   2.635   3.753   8.307 -0.2448 -0.3195 -2.9439
 6274TIP3    H240458   2.532   3.838   8.235 -0.7390  2.4446  0.7174
 6275TIP3   OH240459   1.339   1.594   2.529  0.6346 -0.1655 -0.0152
 6275TIP3    H140460   1.255   1.602   2.573  1.1096  0.0605  0.8951
 6275TIP3    H240461   1.335   1.656   2.456  0.6072  1.0979  1.0163
 6276TIP3   OH240462   3.805   5.635   1.763 -0.0310 -0.4993 -0.4918
 6276TIP3    H140463   3.755   5.607   1.687 -1.8804  1.9479 -0.2837
 6276TIP3    H240464   3.747   5.620   1.838  1.2922 -1.7256  0.3610
 6277TIP3   OH240465   2.482   0.119   6.525 -0.2519 -0.3118 -0.2887
 6277TIP3    H140466   2.462   0.073   6.444 -1.2641  0.3708 -0.4473
 6277TIP3    H240467   2.464   0.056   6.594  0.5066 -0.8606 -0.5807
 6278TIP3   OH240468   3.401   0.012   8.250  0.3606 -0.7274  0.3508
 6278TIP3    H140469   3.424   0.089   8.197  0.7530 -1.0113  0.1014
 6278TIP3    H240470   3.394   0.046   8.339 -1.3341 -0.0421 -0.0149
 6279TIP3   OH240471   2.909   1.851   0.291  0.3048  0.0393 -0.4815
 6279TIP3    H140472   2.815   1.868   0.291  0.1884 -0.4706  1.0002
 6279TIP3    H240473   2.921   1.785   0.223 -0.8413 -1.8194  1.0066
 6280TIP3   OH240474   4.503   6.117   1.399  0.0986  0.0390  0.2210
 6280TIP3    H140475   4.530   6.171   1.325  0.9539 -0.5941  0.0676
 6280TIP3    H240476   4.539   6.031   1.382  1.6798  0.2442  2.1238
 6281TIP3   OH240477   1.842   3.146   8.042 -0.2475 -0.1115  0.4668
 6281TIP3    H140478   1.932   3.117   8.057 -0.8849 -1.1375  2.7470
 6281TIP3    H240479   1.829   3.216   8.107 -0.5758  1.3409 -1.0848
 6282TIP3   OH240480   0.833   0.817   0.190  0.2689 -0.3491 -0.1718
 6282TIP3    H140481   0.747   0.821   0.232  0.2825  1.2843 -0.2495
 6282TIP3    H240482   0.884   0.757   0.245 -0.6636 -0.6986  0.3334
 6283TIP3   OH240483   0.399   1.773   0.035 -0.1925 -0.1547 -0.3893
 6283TIP3    H140484   0.424   1.800   0.124  0.8873 -1.9737 -0.0813
 6283TIP3    H240485   0.312   1.736   0.044 -0.9551  1.5379 -0.5028
 6284TIP3   OH240486   2.091   0.489   2.014  0.4536 -0.6840  0.0964
 6284TIP3    H140487   2.172   0.463   2.058  0.4620  0.3247  0.6971
 6284TIP3    H240488   2.025   0.489   2.083  0.1417 -0.5932 -0.1992
 6285TIP3   OH240489   6.686   2.500   1.441 -0.9464  0.4740 -0.0024
 6285TIP3    H140490   6.592   2.494   1.462 -0.7883 -0.7493  0.4510
 6285TIP3    H240491   6.727   2.434   1.497 -0.0349 -0.2512 -1.4540
 6286TIP3   OH240492   0.412   5.694   7.667 -0.1236  0.2736  0.3395
 6286TIP3    H140493   0.452   5.766   7.619 -0.5080  0.5854  0.4864
 6286TIP3    H240494   0.366   5.735   7.740 -1.4696  0.0164 -0.3249
 6287TIP3   OH240495   3.106   2.093   6.451 -0.3959  0.4113  0.3532
 6287TIP3    H140496   3.161   2.073   6.375  1.2313  1.6999  1.1607
 6287TIP3    H240497   3.089   2.007   6.491  1.2416  0.0016  0.2295
 6288TIP3   OH240498   5.554   5.016   7.767 -0.3605  0.0308 -0.0928
 6288TIP3    H140499   5.503   4.936   7.753  3.9537 -3.3470  1.1236
 6288TIP3    H240500   5.543   5.035   7.860  1.7015 -1.7854  0.6046
 6289TIP3   OH240501   2.335   1.128   8.106  0.1547  0.2429  0.0192
 6289TIP3    H140502   2.354   1.166   8.192 -0.3169 -1.5576  0.9728
 6289TIP3    H240503   2.239   1.128   8.100  0.1719 -0.0792 -0.2954
 6290TIP3   OH240504   2.351   3.776   7.195 -0.5361 -0.0741  0.1004
 6290TIP3    H140505   2.264   3.811   7.214 -0.5308 -0.1922  0.3501
 6290TIP3    H240506   2.411   3.841   7.230 -0.5237 -0.0209 -0.0194
 6291TIP3   OH240507   0.709   2.163   7.983  0.4214  0.2769  0.0899
 6291TIP3    H140508   0.798   2.165   7.947  0.6645 -1.1528  0.5403
 6291TIP3    H240509   0.665   2.095   7.932 -0.0376  0.1283  0.6744
 6292TIP3   OH240510   3.670   4.540   1.068 -0.0824  0.6518  0.2039
 6292TIP3    H140511   3.738   4.571   1.007 -0.4785 -0.5608 -0.9073
 6292TIP3    H240512   3.719   4.503   1.141  0.5954 -1.9729 -1.4570
 6293TIP3   OH240513   6.516   1.170   7.696  0.0539 -0.7945 -0.3092
 6293TIP3    H140514   6.542   1.101   7.635 -1.1891 -0.5319 -1.1609
 6293TIP3    H240515   6.422   1.160   7.706  0.1576 -0.5385  1.2382
 6294TIP3   OH240516   0.983   5.643   6.431 -0.9444 -0.5048 -0.2714
 6294TIP3    H140517   1.061   5.595   6.461  0.3514  0.5249 -1.8233
 6294TIP3    H240518   0.915   5.576   6.425 -0.1591 -1.4734  0.9733
 6295TIP3   OH240519   2.730   4.843   6.295  0.0892 -0.7174  0.7057
 6295TIP3    H140520   2.819   4.877   6.296 -0.3445  0.4387  0.4502
 6295TIP3    H240521   2.732   4.771   6.232  1.1149 -1.4847  1.5881
 6296TIP3   OH240522   6.339   1.716   8.620  0.3427  0.0735 -0.3328
 6296TIP3    H140523   6.280   1.642   8.604  1.1282 -1.1664  2.0413
 6296TIP3    H240524   6.390   1.690   8.696  0.8357  2.9835  0.4584
 6297TIP3   OH240525   2.521   2.299   2.312  0.0563  0.5044 -0.2713
 6297TIP3    H140526   2.437   2.305   2.266 -0.1325 -0.6119 -0.0877
 6297TIP3    H240527   2.527   2.208   2.340 -0.1130  1.2512  2.4595
 6298TIP3   OH240528   2.791   6.262   7.798  0.3496 -0.5013  0.1544
 6298TIP3    H140529   2.820   6.233   7.712 -0.3999 -0.2904 -0.1835
 6298TIP3    H240530   2.696   6.250   7.797  0.1401  0.9521  0.3772
 6299TIP3   OH240531   4.876   6.227   1.487  0.0025 -0.3575 -0.3113
 6299TIP3    H140532   4.782   6.220   1.472 -0.5507  2.2437  1.2167
 6299TIP3    H240533   4.885   6.223   1.582  1.2131  1.1394 -0.3334
 6300TIP3   OH240534   2.744   2.554   0.569 -0.4239 -0.1763 -0.4448
 6300TIP3    H140535   2.827   2.508   0.580  0.3703  0.9472 -1.4367
 6300TIP3    H240536   2.690   2.494   0.518  0.0218 -0.6544 -0.3557
 6301TIP3   OH240537   2.268   4.737   7.875  0.1402 -0.6670  0.0998
 6301TIP3    H140538   2.346   4.791   7.885 -0.0037 -0.5963  0.9097
 6301TIP3    H240539   2.227   4.737   7.961 -2.4390  1.8493 -0.9722
 6302TIP3   OH240540   1.492   2.161   8.311 -0.4615 -0.3285  0.3289
 6302TIP3    H140541   1.476   2.156   8.217 -0.9565 -2.2331  0.4687
 6302TIP3    H240542   1.542   2.242   8.323  2.3410 -1.5388 -1.9777
 6303TIP3   OH240543   3.658   3.351   7.109 -0.0975 -0.1822  0.1448
 6303TIP3    H140544   3.678   3.268   7.064 -1.4295 -0.2968 -0.2596
 6303TIP3    H240545   3.574   3.335   7.152 -1.4290  1.5902 -1.6223
 6304TIP3   OH240546   5.017   0.791   7.317  0.4929  0.1223  0.0603
 6304TIP3    H140547   5.054   0.724   7.374 -0.1252  1.0011  1.5385
 6304TIP3    H240548   5.003   0.747   7.234  4.9421 -0.2740 -0.7181
 6305TIP3   OH240549   6.059   2.395   7.639  0.3867 -0.8823  0.3027
 6305TIP3    H140550   6.129   2.379   7.702 -0.3253 -0.3356  1.2663
 6305TIP3    H240551   6.093   2.362   7.556  2.0905  0.0667  0.5738
 6306TIP3   OH240552   5.897   2.196   0.861  0.1353  0.1092 -0.5793
 6306TIP3    H140553   5.990   2.171   0.855 -0.2341 -1.8464  0.8463
 6306TIP3    H240554   5.892   2.248   0.941 -0.1207 -0.4766 -0.2107
 6307TIP3   OH240555   4.190   2.059   1.953  0.1393 -0.2090  0.0540
 6307TIP3    H140556   4.157   1.976   1.919 -0.3321 -0.6157  1.4391
 6307TIP3    H240557   4.136   2.126   1.911  0.3767 -0.5996 -0.9038
 6308TIP3   OH240558   6.123   5.307   1.625 -0.3016 -1.0365  0.1754
 6308TIP3    H140559   6.166   5.230   1.587  0.3390 -1.4444  1.6664
 6308TIP3    H240560   6.097   5.280   1.713  0.3292  0.5652  0.8973
 6309TIP3   OH240561   5.545   2.890   8.272  0.1372  0.6013  0.2378
 6309TIP3    H140562   5.574   2.959   8.332  1.0051  0.0347  0.4912
 6309TIP3    H240563   5.578   2.809   8.312 -0.4055  0.0912 -0.3353
 6310TIP3   OH240564   3.064   1.849   6.588 -0.3674 -0.3887 -0.3970
 6310TIP3    H140565   2.994   1.815   6.644  0.9670 -0.4648  1.3149
 6310TIP3    H240566   3.086   1.776   6.530  0.7902 -1.7117  1.5794
 6311TIP3   OH240567   1.850   2.344   8.477  0.3862  0.2274  0.3573
 6311TIP3    H140568   1.831   2.264   8.428 -1.1903  0.4268  0.5830
 6311TIP3    H240569   1.944   2.340   8.494  0.4342 -1.3037 -0.0955
 6312TIP3   OH240570   5.189   5.840   0.604 -0.0704 -0.0773  0.8368
 6312TIP3    H140571   5.215   5.879   0.521  1.1098  0.7111  1.5496
 6312TIP3    H240572   5.234   5.755   0.606 -2.3135 -1.3816 -0.5303
 6313TIP3   OH240573   1.977   0.362   1.283 -0.6462 -0.0148  0.0690
 6313TIP3    H140574   2.017   0.425   1.223 -0.2363 -0.7375 -0.4327
 6313TIP3    H240575   2.051   0.323   1.330 -0.9484  0.4102  0.9310
 6314TIP3   OH240576   3.664   2.155   1.898  0.8379 -0.0215 -0.0351
 6314TIP3    H140577   3.630   2.222   1.957  0.6431 -0.0974 -0.0586
 6314TIP3    H240578   3.661   2.074   1.950  2.2730  0.1964  0.4289
 6315TIP3   OH240579   5.497   3.210   7.545  0.2086  0.5143 -0.0912
 6315TIP3    H140580   5.425   3.167   7.590 -0.8198  0.0806 -2.0269
 6315TIP3    H240581   5.575   3.189   7.597 -0.6662 -1.3784  0.5161
 6316TIP3   OH240582   5.074   4.227   7.797 -0.1039  0.8076  0.3481
 6316TIP3    H140583   5.087   4.278   7.878  1.0115  0.4473  0.4180
 6316TIP3    H240584   5.083   4.136   7.825 -0.3631  0.6559 -0.0702
 6317TIP3   OH240585   4.217   5.741   6.802  0.0678  0.2857  0.4661
 6317TIP3    H140586   4.224   5.650   6.831 -0.0928  0.4105  0.9033
 6317TIP3    H240587   4.307   5.766   6.780  0.0381 -0.1338 -0.1309
 6318TIP3   OH240588   0.592   1.074   0.901 -0.2625 -0.3201  0.4037
 6318TIP3    H140589   0.513   1.020   0.902 -1.0627  0.7998 -0.1698
 6318TIP3    H240590   0.611   1.090   0.993 -2.0975  1.3159  0.5619
 6319TIP3   OH240591   4.462   5.398   1.246  0.2563 -0.2095 -0.4883
 6319TIP3    H140592   4.538   5.446   1.214 -0.5545  1.5068  0.0144
 6319TIP3    H240593   4.423   5.456   1.311  0.9757 -2.8889  2.6093
 6320TIP3   OH240594   6.737   5.786   8.080 -0.2816 -0.4212 -0.2096
 6320TIP3    H140595   6.730   5.881   8.088  0.0150 -0.4947  1.1471
 6320TIP3    H240596   6.715   5.753   8.167 -0.7070 -1.6194 -0.7539
 6321TIP3   OH240597   3.098   6.280   7.814  0.5781 -0.1123  0.4291
 6321TIP3    H140598   3.164   6.350   7.812  1.3631 -0.8467 -1.3543
 6321TIP3    H240599   3.014   6.327   7.810  1.0526  0.7648  0.3228
 6322TIP3   OH240600   3.399   1.910   0.793 -0.6120 -0.4467 -0.1374
 6322TIP3    H140601   3.313   1.891   0.831  0.1626 -1.8341  1.0135
 6322TIP3    H240602   3.461   1.892   0.863  0.6305  0.6480 -0.9125
 6323TIP3   OH240603   3.341   3.223   0.859 -0.8366  0.1016  0.0681
 6323TIP3    H140604   3.421   3.271   0.840 -1.7732  1.3278 -0.9850
 6323TIP3    H240605   3.358   3.134   0.829  0.2613  0.2485  0.2304
 6324TIP3   OH240606   5.764   6.168   8.128 -0.2139  0.9423 -0.1013
 6324TIP3    H140607   5.846   6.218   8.121 -0.9728  2.3208  0.4848
 6324TIP3    H240608   5.745   6.165   8.221 -0.6661  0.3356 -0.2060
 6325TIP3   OH240609   6.554   0.568   8.222 -0.2013 -0.1050  0.2908
 6325TIP3    H140610   6.487   0.594   8.285  0.2104  0.9849  0.2858
 6325TIP3    H240611   6.557   0.640   8.159 -0.3134 -0.9867 -0.7545
 6326TIP3   OH240612   6.172   3.465   2.352  0.3933 -0.5619  0.2015
 6326TIP3    H140613   6.160   3.371   2.343  0.5713 -0.6271  0.5980
 6326TIP3    H240614   6.242   3.474   2.417  0.1271 -0.1537  0.4356
 6327TIP3   OH240615   6.092   5.393   0.683  0.9721 -0.3569 -0.9262
 6327TIP3    H140616   6.021   5.363   0.740  1.4203 -0.1565 -0.2544
 6327TIP3    H240617   6.056   5.385   0.594 -1.4818  3.5997 -0.5694
 6328TIP3   OH240618   0.695   0.413   7.352  0.2296  0.2302  0.1541
 6328TIP3    H140619   0.685   0.486   7.413 -0.8274 -0.1107  0.3980
 6328TIP3    H240620   0.753   0.352   7.397  0.6594  0.6490  0.1843
 6329TIP3   OH240621   6.525   1.071   8.244 -0.2159  0.4032 -0.6948
 6329TIP3    H140622   6.490   1.160   8.251 -0.8531  0.1165 -0.1203
 6329TIP3    H240623   6.503   1.029   8.327  1.7855  0.2917 -0.1771
 6330TIP3   OH240624   6.589   4.092   0.999 -0.3441 -0.2687 -0.3866
 6330TIP3    H140625   6.658   4.027   1.015 -2.2807 -2.0082  1.4612
 6330TIP3    H240626   6.609   4.163   1.061  1.2602  0.5878 -1.7835
 6331TIP3   OH240627   3.468   3.652   6.988  0.2115  0.1598  0.3929
 6331TIP3    H140628   3.445   3.608   6.906 -1.0621  1.8721 -0.2277
 6331TIP3    H240629   3.426   3.600   7.056  1.1268 -1.1778 -0.0256
 6332TIP3   OH240630   3.506   4.151   8.014  0.5449 -0.1339  0.5386
 6332TIP3    H140631   3.438   4.085   8.004 -0.9947  0.4856  4.8163
 6332TIP3    H240632   3.460   4.235   8.013  1.4268  0.4092  1.9182
 6333TIP3   OH240633   3.834   4.408   0.767 -0.4825  0.0370  0.1607
 6333TIP3    H140634   3.867   4.497   0.756 -2.4064  0.8029  0.2929
 6333TIP3    H240635   3.817   4.378   0.678 -1.8432  0.6212  0.2055
 6334TIP3   OH240636   0.167   0.685   1.770  0.0406  0.3398  0.4673
 6334TIP3    H140637   0.110   0.628   1.822 -0.0412 -0.0232 -0.0196
 6334TIP3    H240638   0.242   0.630   1.748 -0.8827 -0.1869 -1.5682
 6335TIP3   OH240639   4.156   4.738   6.093 -0.1607  0.3330  0.6478
 6335TIP3    H140640   4.167   4.643   6.100 -1.7941  0.0641  0.0103
 6335TIP3    H240641   4.222   4.775   6.152  0.3089 -1.1993  1.1149
 6336TIP3   OH240642   1.633   5.747   7.796 -0.2424  0.1530  0.4082
 6336TIP3    H140643   1.701   5.680   7.806 -0.0668 -0.0481 -1.8009
 6336TIP3    H240644   1.598   5.734   7.709 -2.1499  1.1959  0.9665
 6337TIP3   OH240645   1.659   5.644   7.283 -0.2872 -0.2920  0.3311
 6337TIP3    H140646   1.582   5.628   7.228 -0.1771 -0.9375  0.3573
 6337TIP3    H240647   1.729   5.594   7.241 -0.2737 -1.0500  1.2152
 6338TIP3   OH240648   3.921   4.710   8.451 -0.4140  0.9930 -0.8389
 6338TIP3    H140649   3.934   4.632   8.397 -0.6077  1.1100 -1.0605
 6338TIP3    H240650   3.941   4.682   8.540 -0.5418  0.6743 -0.9074
 6339TIP3   OH240651   5.179   0.877   1.484 -0.2826  0.1879 -0.4259
 6339TIP3    H140652   5.171   0.790   1.522  1.0128  0.1650 -0.1546
 6339TIP3    H240653   5.143   0.935   1.551 -0.6534 -0.0894 -0.3805
 6340TIP3   OH240654   0.033   5.125   6.851 -0.1232 -0.0829  0.4206
 6340TIP3    H140655   0.046   5.089   6.764  0.3606  1.3564 -0.1358
 6340TIP3    H240656  -0.054   5.164   6.848 -0.0165  0.1622  0.5102
 6341TIP3   OH240657   3.694   6.541   0.212  0.5517  0.2878  0.3422
 6341TIP3    H140658   3.613   6.509   0.172  0.8621 -1.1580  0.8151
 6341TIP3    H240659   3.671   6.628   0.244 -0.7239  0.0473  0.1618
 6342TIP3   OH240660   1.446   4.419   2.501 -0.7153 -0.0765 -0.0998
 6342TIP3    H140661   1.357   4.412   2.538 -1.2458  1.2762 -1.0392
 6342TIP3    H240662   1.481   4.330   2.505 -3.2217 -1.3148 -2.4203
 6343TIP3   OH240663   3.948   4.102   8.273 -0.2214  0.2500  0.1573
 6343TIP3    H140664   3.856   4.117   8.295 -0.2674 -0.6441  0.6215
 6343TIP3    H240665   3.955   4.007   8.264  1.0825  0.1274  2.0925
 6344TIP3   OH240666   3.914   4.975   0.947  0.0714 -0.1242  0.4323
 6344TIP3    H140667   4.005   4.991   0.922  0.4692 -1.6254  0.7622
 6344TIP3    H240668   3.898   5.035   1.020  1.0063 -0.2260  0.7408
 6345TIP3   OH240669   4.501   6.810   8.464  0.6080  0.2841  0.3953
 6345TIP3    H140670   4.554   6.730   8.463  0.9514  0.4642  1.7128
 6345TIP3    H240671   4.561   6.879   8.437  0.4514  0.1739 -0.2383
 6346TIP3   OH240672   5.705   3.391   8.521 -0.4698 -0.0257  0.7934
 6346TIP3    H140673   5.777   3.452   8.507 -0.4239 -0.6374 -2.4669
 6346TIP3    H240674   5.740   3.306   8.494 -1.5334 -0.8908  2.0303
 6347TIP3   OH240675   1.489   5.016   1.928 -0.3321  0.3976 -0.5314
 6347TIP3    H140676   1.532   5.025   1.843  0.3847  2.3174 -0.0186
 6347TIP3    H240677   1.402   4.981   1.907  1.0272 -2.6988 -1.6826
 6348TIP3   OH240678   3.996   2.216   0.283  0.9495  0.3757  0.1352
 6348TIP3    H140679   4.041   2.217   0.367 -3.0031 -0.6168  2.5261
 6348TIP3    H240680   3.979   2.308   0.263  1.8782  0.6121  0.3967
 6349TIP3   OH240681   3.894   2.253   7.192  0.1333  0.1917 -0.2632
 6349TIP3    H140682   3.989   2.246   7.179  0.2971 -0.6060  1.1637
 6349TIP3    H240683   3.872   2.340   7.161  1.5639  0.8827  0.5686
 6350TIP3   OH240684   3.340   0.651   1.250  0.7325 -0.5804 -0.4715
 6350TIP3    H140685   3.421   0.601   1.256  1.6456  0.7389 -1.2359
 6350TIP3    H240686   3.273   0.587   1.228  1.7054 -1.5865 -0.5727
 6351TIP3   OH240687   3.149   1.964   7.522 -0.1581 -0.7278  0.0470
 6351TIP3    H140688   3.126   2.057   7.513  0.3426 -0.3606  2.0382
 6351TIP3    H240689   3.068   1.922   7.550 -0.2025 -0.7481 -0.1142
 6352TIP3   OH240690   6.045   6.454   0.369  0.2540 -0.0165  0.2189
 6352TIP3    H140691   6.038   6.386   0.436  0.4046 -1.3893 -1.0974
 6352TIP3    H240692   5.965   6.445   0.317  1.1265 -0.5429 -1.1292
 6353TIP3   OH240693   4.282   6.257   6.165 -0.2789 -0.2745  0.9427
 6353TIP3    H140694   4.214   6.266   6.232 -0.5750 -1.7131  0.8684
 6353TIP3    H240695   4.362   6.285   6.209 -0.6318 -0.2541  1.5929
 6354TIP3   OH240696   3.123   3.346   2.006 -0.2167  0.8405 -0.0850
 6354TIP3    H140697   3.048   3.289   1.994  0.3077  0.1172  0.0222
 6354TIP3    H240698   3.104   3.394   2.087 -0.2989  0.2433  0.2519
 6355TIP3   OH240699   1.242   6.831   6.831  0.2655 -0.4327  0.8379
 6355TIP3    H140700   1.234   6.919   6.795  2.7039 -1.3121 -2.2946
 6355TIP3    H240701   1.247   6.774   6.754  2.6365 -2.8841  2.6304
 6356TIP3   OH240702   6.027   1.801   8.420  0.1737  0.0732  0.6228
 6356TIP3    H140703   5.969   1.838   8.354 -0.4206 -1.9792 -0.1087
 6356TIP3    H240704   6.101   1.766   8.369  0.5505 -0.0054  1.2216
 6357TIP3   OH240705   5.800   4.200   0.764 -0.1176  0.0221  0.3688
 6357TIP3    H140706   5.781   4.255   0.687  0.8860  0.6549  0.5535
 6357TIP3    H240707   5.716   4.194   0.810 -0.6590 -0.1002 -0.6030
 6358TIP3   OH240708   5.817   3.363   1.325 -0.2744  0.2512 -0.2926
 6358TIP3    H140709   5.878   3.309   1.375 -0.6306 -0.2902 -0.4413
 6358TIP3    H240710   5.817   3.324   1.238 -0.3322  0.6567 -0.4767
 6359TIP3   OH240711   0.139   6.787   7.185  0.2720 -0.0897 -0.7518
 6359TIP3    H140712   0.130   6.807   7.279  1.3675  0.4870 -0.7634
 6359TIP3    H240713   0.129   6.691   7.181 -1.7683  0.0576 -0.3069
 6360TIP3   OH240714   3.319   3.892   1.948 -0.4479  0.2720 -0.4512
 6360TIP3    H140715   3.345   3.800   1.952 -1.9397 -0.1671 -0.2240
 6360TIP3    H240716   3.367   3.933   2.020 -0.4954 -0.5398  0.0645
 6361TIP3   OH240717   5.693   3.811   6.993 -0.2624  0.6912 -0.0705
 6361TIP3    H140718   5.613   3.762   7.007 -1.0849  2.3228  1.2976
 6361TIP3    H240719   5.684   3.848   6.905 -1.4820  1.6239  0.4156
 6362TIP3   OH240720   3.086   5.195   0.280  0.5131  0.7904 -0.2556
 6362TIP3    H140721   3.164   5.237   0.244  0.6142  1.4404  0.6825
 6362TIP3    H240722   3.029   5.182   0.204  0.3818  2.8471 -0.5599
 6363TIP3   OH240723   0.813   3.566   8.169 -0.3952  0.0006 -0.3208
 6363TIP3    H140724   0.802   3.637   8.232  2.6452 -0.1109  0.4592
 6363TIP3    H240725   0.820   3.609   8.084 -1.5101  0.3737 -0.2377
 6364TIP3   OH240726   1.334   3.038   0.985 -0.2303  0.9628  0.9342
 6364TIP3    H140727   1.411   3.009   1.034  0.3164 -1.0155 -0.9496
 6364TIP3    H240728   1.262   2.989   1.024 -0.1376  0.9846  1.1351
 6365TIP3   OH240729   1.721   0.922   7.498 -0.1533  0.0072  0.4274
 6365TIP3    H140730   1.630   0.951   7.493  0.1664  0.8140 -1.0398
 6365TIP3    H240731   1.715   0.827   7.511 -1.1900  0.1055  0.7770
 6366TIP3   OH240732   3.325   5.063   1.421  0.3801  0.1000  0.0676
 6366TIP3    H140733   3.372   5.002   1.477  0.6964  0.4074  0.1473
 6366TIP3    H240734   3.234   5.034   1.423  0.3787  0.1535  0.8006
 6367TIP3   OH240735   5.135   3.479   7.383 -0.3925 -0.6785 -0.0080
 6367TIP3    H140736   5.222   3.503   7.414 -0.2871 -1.9423  0.7510
 6367TIP3    H240737   5.144   3.472   7.288 -0.1908  1.1770 -0.1615
 6368TIP3   OH240738   5.398   3.562   6.618 -0.2759  0.2587 -0.2047
 6368TIP3    H140739   5.483   3.549   6.660 -0.9843  0.8514  1.4823
 6368TIP3    H240740   5.343   3.493   6.654 -0.8966  0.7664 -0.1648
 6369TIP3   OH240741   3.420   6.255   0.932 -0.2824 -0.2706  0.1632
 6369TIP3    H140742   3.410   6.325   0.867  0.2248  0.9148  1.3171
 6369TIP3    H240743   3.336   6.209   0.930 -2.3918  3.0209  2.3288
 6370TIP3   OH240744   3.748   3.747   8.248  0.1867 -0.2112  0.3025
 6370TIP3    H140745   3.753   3.652   8.244  0.7177 -0.1528 -0.6022
 6370TIP3    H240746   3.840   3.776   8.249  0.0309  0.2990  0.5244
 6371TIP3   OH240747   6.649   3.045   2.244 -0.3521  0.6389  0.4187
 6371TIP3    H140748   6.702   3.095   2.307 -0.8287 -1.0998  2.3000
 6371TIP3    H240749   6.572   3.099   2.229  0.1393  1.4357  0.6796
 6372TIP3   OH240750   0.550   4.382   0.543  0.4465 -0.0280 -0.4915
 6372TIP3    H140751   0.540   4.428   0.460 -0.5220  0.3916 -0.1602
 6372TIP3    H240752   0.491   4.306   0.536  1.0854 -0.5247 -0.5529
 6373TIP3   OH240753   0.796   0.364   7.029 -0.2463  0.1404 -0.2147
 6373TIP3    H140754   0.835   0.423   7.093  0.6076  0.1776 -0.7467
 6373TIP3    H240755   0.704   0.361   7.051  0.0613  0.0205  1.1198
 6374TIP3   OH240756   6.238   5.595   2.089 -0.7495  0.0330  0.6556
 6374TIP3    H140757   6.329   5.613   2.065 -0.5899 -0.6662  0.6956
 6374TIP3    H240758   6.205   5.677   2.124 -0.0514  0.2228  0.8836
 6375TIP3   OH240759   4.892   5.293   7.804 -0.3778  0.0743  0.5441
 6375TIP3    H140760   4.959   5.347   7.846 -0.6983  0.4073  0.6352
 6375TIP3    H240761   4.919   5.203   7.820  1.0023  0.1847 -0.9434
 6376TIP3   OH240762   2.913   2.487   1.052 -0.0517 -0.1808  0.1980
 6376TIP3    H140763   2.984   2.466   1.113 -2.6275  0.2022  3.5855
 6376TIP3    H240764   2.934   2.575   1.021  1.0699 -0.1893  0.8564
 6377TIP3   OH240765   5.035   3.768   7.660 -0.2495 -0.0889 -0.1330
 6377TIP3    H140766   5.058   3.773   7.567  1.6423  0.2020  0.3125
 6377TIP3    H240767   4.993   3.851   7.679  1.0197  0.6241 -0.3399
 6378TIP3   OH240768   1.511   2.422   8.470  0.1608  0.1265 -0.0747
 6378TIP3    H140769   1.584   2.482   8.487  0.3308 -0.4807  1.4225
 6378TIP3    H240770   1.434   2.468   8.502 -0.0553  0.5239 -1.1254
 6379TIP3   OH240771   2.195   4.293   0.088  0.1428 -0.4184  0.2715
 6379TIP3    H140772   2.238   4.266   0.170  0.6893  0.1359  0.1765
 6379TIP3    H240773   2.160   4.380   0.108  1.4727  0.3229 -0.4872
 6380TIP3   OH240774   2.505   3.832   8.068  0.1216 -0.1461 -0.2125
 6380TIP3    H140775   2.511   3.767   7.998 -0.3216 -0.9818  0.5210
 6380TIP3    H240776   2.414   3.861   8.066  0.2223  0.1771 -0.2758
 6381TIP3   OH240777   2.195   1.446   2.456  0.2669 -0.2973  0.5683
 6381TIP3    H140778   2.108   1.477   2.429 -0.2593 -1.6531  0.6614
 6381TIP3    H240779   2.252   1.522   2.442 -1.0799  0.9221  1.4030
 6382TIP3   OH240780   1.053   3.226   2.188  0.8289  0.3177 -0.5288
 6382TIP3    H140781   1.025   3.244   2.278 -0.7635  1.5496 -1.2216
 6382TIP3    H240782   1.070   3.132   2.187  1.6091  0.4082  1.2434
 6383TIP3   OH240783   0.871   2.443   7.893  1.2839  0.4896 -0.7030
 6383TIP3    H140784   0.798   2.474   7.840  0.1612 -1.9293 -0.6524
 6383TIP3    H240785   0.884   2.513   7.958 -1.2377  0.8112 -0.4580
 6384TIP3   OH240786   4.484   6.592   0.141  0.3459 -0.2951  0.2064
 6384TIP3    H140787   4.453   6.507   0.109  1.4208  0.1126 -2.1845
 6384TIP3    H240788   4.579   6.583   0.142  0.5657  1.2375 -1.4051
 6385TIP3   OH240789   5.577   3.908   7.405 -0.3349  0.3208 -0.4465
 6385TIP3    H140790   5.545   3.834   7.457 -0.6722  1.2159  0.6609
 6385TIP3    H240791   5.509   3.975   7.414  1.4676  2.0242  1.3958
 6386TIP3   OH240792   2.015   4.497   8.497 -0.4371 -0.1088  0.3273
 6386TIP3    H140793   1.975   4.578   8.466 -0.0592 -0.2367 -0.5290
 6386TIP3    H240794   1.950   4.458   8.556 -0.2474  1.2634  1.4742
 6387TIP3   OH240795   6.127   0.100   2.449  0.2040  0.1443 -0.2628
 6387TIP3    H140796   6.162   0.011   2.455 -1.6127 -0.6882 -1.3011
 6387TIP3    H240797   6.054   0.093   2.387  0.5521  2.5377 -1.0348
 6388TIP3   OH240798   2.891   5.331   0.690  0.5256  0.4463  0.5230
 6388TIP3    H140799   2.926   5.327   0.779  0.0803 -1.0537  0.6474
 6388TIP3    H240800   2.806   5.374   0.700  0.0712 -0.5244  0.9750
 6389TIP3   OH240801   0.395   4.158   8.616  0.0405 -0.0121 -0.5205
 6389TIP3    H140802   0.310   4.153   8.660 -0.6821 -1.1555 -1.9591
 6389TIP3    H240803   0.454   4.195   8.682 -1.1468 -0.9514  1.1403
 6390TIP3   OH240804   2.527   0.119   6.880 -0.2760  0.5968 -0.3686
 6390TIP3    H140805   2.603   0.074   6.916 -1.0905  0.6165  1.5224
 6390TIP3    H240806   2.484   0.054   6.825 -0.1433 -0.1582  0.4060
 6391TIP3   OH240807   1.472   1.395   1.043 -0.0799 -0.0240 -0.7344
 6391TIP3    H140808   1.483   1.448   0.964  0.7335  1.6377  0.4483
 6391TIP3    H240809   1.560   1.387   1.079 -0.6517  0.7521  0.9236
 6392TIP3   OH240810   1.048   0.652   8.012  0.1750  0.2652 -0.4296
 6392TIP3    H140811   1.095   0.728   7.976 -1.3269  2.0413  1.1135
 6392TIP3    H240812   0.976   0.638   7.950  0.8442 -0.3710 -1.0788
 6393TIP3   OH240813   6.189   1.532   1.910  0.1439  0.1436  0.1477
 6393TIP3    H140814   6.240   1.601   1.954  0.7021  0.3145 -0.7414
 6393TIP3    H240815   6.222   1.451   1.948 -0.9999  0.3624  1.7115
 6394TIP3   OH240816   2.195   1.201   7.120  0.5897 -0.2669 -0.1210
 6394TIP3    H140817   2.100   1.208   7.119  0.5349 -0.9641 -0.7029
 6394TIP3    H240818   2.217   1.156   7.038  1.3028 -1.3926  0.6540
 6395TIP3   OH240819   1.248   3.807   7.755  0.5423 -0.3683  0.0184
 6395TIP3    H140820   1.212   3.747   7.689  1.0826 -2.5537  1.5913
 6395TIP3    H240821   1.312   3.754   7.803  1.9145  1.8358  0.7844
 6396TIP3   OH240822   5.044   0.325   7.365 -1.3187 -0.2622 -0.3693
 6396TIP3    H140823   5.033   0.256   7.300 -1.3990 -1.3347  0.7304
 6396TIP3    H240824   4.979   0.304   7.433 -0.3485  0.0289  0.6847
 6397TIP3   OH240825   5.665   5.985   8.319  0.1504 -0.3182  0.1808
 6397TIP3    H140826   5.759   5.994   8.335  0.1198  0.1014  0.1164
 6397TIP3    H240827   5.647   5.892   8.334  0.7768 -0.6229 -0.8769
 6398TIP3   OH240828   1.693   1.989   2.757  0.1503 -0.1546  0.3788
 6398TIP3    H140829   1.670   1.959   2.845 -1.0953 -0.5499 -0.0698
 6398TIP3    H240830   1.635   1.940   2.698 -0.8915  1.9824 -0.4884
 6399TIP3   OH240831   2.868   2.222   1.201  0.1204 -1.0708 -0.5643
 6399TIP3    H140832   2.912   2.165   1.138  0.2812  1.0437 -2.4882
 6399TIP3    H240833   2.813   2.279   1.148  2.5193  2.8606  0.7522
 6400TIP3   OH240834   0.524   1.990   7.859 -0.2462 -0.0362 -0.6136
 6400TIP3    H140835   0.483   1.914   7.818 -1.2624  1.1196 -1.8214
 6400TIP3    H240836   0.455   2.027   7.914  0.6824 -0.7658  1.1172
 6401TIP3   OH240837   0.610   4.362   1.199  0.1796 -0.5528  0.5573
 6401TIP3    H140838   0.539   4.298   1.201  0.2107 -0.5783  1.5592
 6401TIP3    H240839   0.593   4.419   1.274 -0.4490  1.2870 -0.9153
 6402TIP3   OH240840   5.302   3.405   0.348 -0.5357  0.6595  0.0090
 6402TIP3    H140841   5.355   3.345   0.401 -0.3944  0.7242 -0.0559
 6402TIP3    H240842   5.216   3.404   0.388  0.0223  2.1051  1.3863
 6403TIP3   OH240843   5.895   5.759   7.435  0.2576  0.1341  0.4756
 6403TIP3    H140844   5.841   5.681   7.422 -0.5675  0.7830 -0.0796
 6403TIP3    H240845   5.891   5.805   7.351  1.5412  0.2858  0.4790
 6404TIP3   OH240846   6.122   4.657   0.303 -0.1681 -0.3875 -0.0695
 6404TIP3    H140847   6.135   4.563   0.288 -0.6548 -0.2918 -1.1448
 6404TIP3    H240848   6.037   4.676   0.265  0.6639  0.8167 -1.4568
 6405TIP3   OH240849   3.061   0.802   8.123  0.4449 -0.1699 -0.2086
 6405TIP3    H140850   3.051   0.727   8.182  1.3225 -0.5380 -0.5181
 6405TIP3    H240851   3.147   0.838   8.145  0.0954  0.6592 -0.1738
 6406TIP3   OH240852   4.347   6.157   0.902 -0.1965  0.4342 -0.2065
 6406TIP3    H140853   4.293   6.200   0.836  1.7399  1.9984 -0.8874
 6406TIP3    H240854   4.293   6.155   0.980 -1.9182  0.1297 -1.3631
 6407TIP3   OH240855   1.306   4.002   1.510 -0.3739 -0.5438 -0.0508
 6407TIP3    H140856   1.311   3.915   1.551  0.3930  0.0517  1.2108
 6407TIP3    H240857   1.368   4.055   1.560  0.6822  0.2431 -2.0774
 6408TIP3   OH240858   4.811   6.170   0.148 -0.1453 -0.0018 -0.5145
 6408TIP3    H140859   4.824   6.260   0.178 -0.9470  0.1661 -0.6601
 6408TIP3    H240860   4.899   6.140   0.124 -0.0400  1.2783 -1.9271
 6409TIP3   OH240861   2.486   1.997   2.088  0.0662  0.1523 -0.2655
 6409TIP3    H140862   2.413   1.962   2.037  0.9089 -1.3253 -0.5061
 6409TIP3    H240863   2.505   1.929   2.152  1.0334  0.6587 -0.0063
 6410TIP3   OH240864   1.677   5.032   0.760 -0.4210  0.2295 -0.0537
 6410TIP3    H140865   1.728   5.104   0.798  1.5712 -1.2770  0.3159
 6410TIP3    H240866   1.586   5.053   0.783  0.0980  2.4393  0.3032
 6411TIP3   OH240867   4.857   5.782   7.253  0.1897  0.1347  0.3166
 6411TIP3    H140868   4.934   5.808   7.204  0.7980  1.2119  1.7739
 6411TIP3    H240869   4.810   5.864   7.269 -1.4609 -0.5312 -0.8220
 6412TIP3   OH240870   3.490   0.213   8.118 -0.4295  0.1059 -0.2593
 6412TIP3    H140871   3.457   0.302   8.109  0.2183  0.4132  0.2807
 6412TIP3    H240872   3.529   0.192   8.033 -0.8534  0.2225 -0.4842
 6413TIP3   OH240873   5.595   5.405   8.447 -0.0158  0.2411  0.0761
 6413TIP3    H140874   5.681   5.447   8.458 -0.2035  1.4335 -2.3438
 6413TIP3    H240875   5.613   5.311   8.451  1.5897  0.4468 -1.3269
 6414TIP3   OH240876   5.855   4.057   1.474 -0.2310 -0.0271 -0.0749
 6414TIP3    H140877   5.802   4.080   1.550 -0.2945 -1.5219  0.3530
 6414TIP3    H240878   5.838   4.127   1.411 -0.9252  0.7208  0.9169
 6415TIP3   OH240879   5.967   2.163   0.258  0.2665  0.0046 -0.4929
 6415TIP3    H140880   5.957   2.201   0.171  1.8077  0.2450 -0.5934
 6415TIP3    H240881   5.895   2.101   0.266 -0.3167  0.5039 -1.6421
 6416TIP3   OH240882   0.162   6.885   1.358  0.3294 -0.6052  0.2071
 6416TIP3    H140883   0.113   6.862   1.437  1.0547 -2.0000  0.2695
 6416TIP3    H240884   0.095   6.915   1.297 -0.5391 -1.9120  0.4928
 6417TIP3   OH240885   5.603   5.298   0.109  0.9874  0.3116  0.1611
 6417TIP3    H140886   5.596   5.303   0.014  1.7708  0.4065  0.0976
 6417TIP3    H240887   5.634   5.385   0.135 -1.8320  1.2267  0.7902
 6418TIP3   OH240888   2.459   4.132   2.226 -0.2398  0.0494 -0.6737
 6418TIP3    H140889   2.537   4.135   2.170 -0.5151  0.7263 -1.0341
 6418TIP3    H240890   2.464   4.211   2.279  0.1242 -0.6873  0.4251
 6419TIP3   OH240891   0.537   1.522   0.087  0.2921  0.0992 -0.3970
 6419TIP3    H140892   0.529   1.615   0.066 -0.3619 -0.0163 -0.6885
 6419TIP3    H240893   0.595   1.487   0.019 -0.4225  0.0714 -1.0213
 6420TIP3   OH240894   3.275   1.780   2.056 -0.2624 -0.4452 -0.3532
 6420TIP3    H140895   3.267   1.699   2.004  1.5643 -0.7611 -0.1864
 6420TIP3    H240896   3.352   1.766   2.111  1.0514  2.0208 -1.4140
 6421TIP3   OH240897   6.356   0.628   2.148 -0.0992  0.7182  0.4593
 6421TIP3    H140898   6.279   0.573   2.159  1.1127 -1.0839  0.3700
 6421TIP3    H240899   6.356   0.685   2.226 -0.4260 -0.6740  1.5267
 6422TIP3   OH240900   1.434   3.404   0.332 -0.0189 -0.2908 -1.0900
 6422TIP3    H140901   1.524   3.435   0.317 -0.6590  2.3200 -0.0743
 6422TIP3    H240902   1.410   3.440   0.417 -1.3876 -2.6830 -0.3602
 6423TIP3   OH240903   6.286   5.370   1.357  0.5312  0.3264 -0.5365
 6423TIP3    H140904   6.315   5.406   1.440 -0.2851  0.5007 -0.3204
 6423TIP3    H240905   6.296   5.275   1.367  0.2429  0.3357 -0.1670
 6424TIP3   OH240906   6.876   1.055   2.235 -0.2873  0.0482  0.5105
 6424TIP3    H140907   6.851   1.146   2.255 -1.2130 -0.3743  1.4135
 6424TIP3    H240908   6.969   1.051   2.255 -0.6008  0.3775  2.1896
 6425TIP3   OH240909   0.646   3.910   0.608  0.2006 -0.3900  0.2380
 6425TIP3    H140910   0.553   3.928   0.622 -0.0251 -1.0040 -0.4228
 6425TIP3    H240911   0.672   3.858   0.683  0.4628  1.2405  1.3425
 6426TIP3   OH240912   0.370   1.910   8.449  0.0355 -0.0555 -0.3115
 6426TIP3    H140913   0.381   1.874   8.537  0.6266  0.4190 -0.1847
 6426TIP3    H240914   0.378   2.005   8.461 -0.8012  0.0702 -0.7424
 6427TIP3   OH240915   6.843   4.783   7.686  0.0344  0.2763  0.6484
 6427TIP3    H140916   6.938   4.775   7.699  0.0062 -1.2215  0.1773
 6427TIP3    H240917   6.814   4.841   7.756  1.3984  1.4273  0.3056
 6428TIP3   OH240918   3.271   2.727   8.495  0.8049  0.0039 -0.2849
 6428TIP3    H140919   3.365   2.744   8.493  1.1856 -1.6082  1.0875
 6428TIP3    H240920   3.231   2.813   8.507  2.2558  0.5220  1.2741
 6429TIP3   OH240921   3.579   2.469   7.855  0.3112  0.1628  0.2097
 6429TIP3    H140922   3.674   2.471   7.847  0.2839  1.1401 -0.0350
 6429TIP3    H240923   3.547   2.457   7.766  0.2019  0.6841  0.1720
 6430TIP3   OH240924   1.281   3.638   2.490 -0.0505 -0.1837 -0.0930
 6430TIP3    H140925   1.290   3.719   2.440 -0.9514  0.2094  0.3468
 6430TIP3    H240926   1.328   3.656   2.572 -0.2422 -0.1050  0.0006
 6431TIP3   OH240927   3.842   1.058   1.595  0.4327  0.0800 -0.1861
 6431TIP3    H140928   3.790   1.056   1.675  0.2672  2.7781 -0.1485
 6431TIP3    H240929   3.900   1.134   1.606  0.5557  0.3958 -2.5133
 6432TIP3   OH240930   3.424   0.272   1.058 -0.3884 -0.0375  0.3887
 6432TIP3    H140931   3.339   0.245   1.093 -0.1406 -0.5208  0.6431
 6432TIP3    H240932   3.414   0.266   0.963 -0.7794  0.3639  0.4011
 6433TIP3   OH240933   3.278   2.185   7.861  0.0618  0.8844 -0.5387
 6433TIP3    H140934   3.183   2.178   7.864  0.0779  0.7399 -0.3400
 6433TIP3    H240935   3.302   2.222   7.946  0.2076  0.6035 -0.4545
 6434TIP3   OH240936   5.429   0.332   0.080 -0.0953  0.4969  0.1240
 6434TIP3    H140937   5.382   0.396   0.027  1.1554  0.6322 -0.8721
 6434TIP3    H240938   5.461   0.382   0.155  2.2181  1.4815 -1.4278
 6435TIP3   OH240939   5.503   3.718   0.759  0.3958 -0.2106 -0.7549
 6435TIP3    H140940   5.573   3.767   0.716  0.8938  1.0371  1.3044
 6435TIP3    H240941   5.462   3.668   0.689  1.9322  0.7188 -2.4142
 6436TIP3   OH240942   5.421   2.595   7.664  0.3195  0.7890  0.2598
 6436TIP3    H140943   5.456   2.682   7.648 -0.1317  0.7639 -0.9240
 6436TIP3    H240944   5.459   2.569   7.748 -2.4526  3.6418  2.6715
 6437TIP3   OH240945   4.106   0.552   8.316  0.1234 -0.1560  1.0006
 6437TIP3    H140946   4.200   0.545   8.301  0.3512  0.9442  1.8366
 6437TIP3    H240947   4.074   0.462   8.310  1.1562 -0.4942  0.3092
 6438TIP3   OH240948   0.533   0.782   2.540 -0.2098 -0.0886 -0.4264
 6438TIP3    H140949   0.498   0.739   2.462  0.7957 -0.3116 -0.7672
 6438TIP3    H240950   0.540   0.874   2.515 -2.0590  0.2541  0.1953
 6439TIP3   OH240951   0.935   2.114   1.752 -0.2811  0.6187 -0.0741
 6439TIP3    H140952   0.914   2.140   1.663  2.2750 -0.4340 -1.0875
 6439TIP3    H240953   1.021   2.073   1.745  0.1230  0.7374  2.9318
 6440TIP3   OH240954   2.975   0.953   7.025  0.0894  0.2223 -0.1721
 6440TIP3    H140955   2.912   1.024   7.012  0.6390  0.7224 -0.1533
 6440TIP3    H240956   2.937   0.879   6.978 -0.5793  0.4748 -0.0492
 6441TIP3   OH240957   6.850   3.517   7.563  0.3108 -0.0050 -0.2308
 6441TIP3    H140958   6.862   3.587   7.628  3.1462  1.2825 -1.9221
 6441TIP3    H240959   6.837   3.564   7.480 -0.9993 -1.5732 -0.9643
 6442TIP3   OH240960   0.193   0.267   2.154  0.8011 -0.0611  0.0810
 6442TIP3    H140961   0.264   0.310   2.202  1.4732 -0.5883 -0.4053
 6442TIP3    H240962   0.237   0.200   2.102  0.2527  1.1312 -2.0568
 6443TIP3   OH240963   1.430   4.765   0.732  0.5051  0.2966  0.0513
 6443TIP3    H140964   1.379   4.684   0.739 -0.9551  1.2106  0.4288
 6443TIP3    H240965   1.385   4.816   0.665 -0.3056  1.9592  1.7844
 6444TIP3   OH240966   5.687   2.376   1.512  0.1886 -0.6438  0.4091
 6444TIP3    H140967   5.595   2.380   1.485 -0.1806  3.2441  1.5808
 6444TIP3    H240968   5.736   2.377   1.430 -0.9290  2.1906 -0.3547
 6445TIP3   OH240969   2.505   3.455   0.254 -0.1719 -0.1518  0.0285
 6445TIP3    H140970   2.536   3.540   0.222  0.6477 -0.4533  0.0088
 6445TIP3    H240971   2.573   3.393   0.228 -1.8333 -1.2264 -2.0645
 6446TIP3   OH240972   6.034   1.807   7.985  0.0619  0.4305 -0.0690
 6446TIP3    H140973   6.055   1.894   7.951 -0.6029  0.2685 -0.9345
 6446TIP3    H240974   5.954   1.820   8.035  1.3151  0.7688  1.9722
 6447TIP3   OH240975   0.436   3.561   7.122  0.4171  0.5084 -0.5877
 6447TIP3    H140976   0.454   3.557   7.028 -0.0687  0.3589 -0.6779
 6447TIP3    H240977   0.460   3.650   7.147 -0.2066  0.8067 -1.0206
 6448TIP3   OH240978   6.545   5.651   1.341  0.3039  0.2592  0.6638
 6448TIP3    H140979   6.625   5.654   1.395  0.3894 -0.2065  0.5717
 6448TIP3    H240980   6.522   5.558   1.339  0.0515  0.3312  0.2570
 6449TIP3   OH240981   0.351   5.562   2.098 -0.0567  0.1450 -0.6650
 6449TIP3    H140982   0.427   5.525   2.053  0.2795  0.6503 -0.5209
 6449TIP3    H240983   0.289   5.583   2.028 -0.0805 -0.2999 -0.7800
 6450TIP3   OH240984   5.396   4.372   0.360 -0.3406  0.3725  0.1818
 6450TIP3    H140985   5.465   4.316   0.395 -0.3307  0.8747  0.9992
 6450TIP3    H240986   5.315   4.323   0.373 -0.0642 -0.7526 -1.8811
 6451TIP3   OH240987   2.674   0.417   0.421  0.1040  0.1478  0.6420
 6451TIP3    H140988   2.638   0.437   0.508  3.1428 -2.5993  2.8095
 6451TIP3    H240989   2.738   0.486   0.405 -0.6183  0.7834  0.4860
 6452TIP3   OH240990   0.643   1.341   1.433  0.3058  0.3907 -0.2492
 6452TIP3    H140991   0.727   1.381   1.409  0.9628  0.1666  1.5855
 6452TIP3    H240992   0.657   1.302   1.519 -1.8986  0.9841  0.4523
 6453TIP3   OH240993   1.495   1.082   1.737  0.2765  0.3556 -0.8371
 6453TIP3    H140994   1.400   1.088   1.750  0.2780 -0.6414 -0.2660
 6453TIP3    H240995   1.532   1.094   1.824  0.6805  0.5903 -1.0356
 6454TIP3   OH240996   6.851   5.284   8.426  0.1517  0.2348  0.8452
 6454TIP3    H140997   6.777   5.225   8.412  0.4091  0.1350 -0.1266
 6454TIP3    H240998   6.896   5.249   8.503 -0.3335 -0.1756  0.9465
 6455TIP3   OH240999   5.439   4.275   2.702 -0.3986  0.3092 -0.1960
 6455TIP3    H141000   5.434   4.202   2.763  1.5027  0.6834  0.4860
 6455TIP3    H241001   5.361   4.267   2.648  0.3581 -2.9575 -0.9888
 6456TIP3   OH241002   1.687   1.396   8.538 -0.2527  0.2753  0.0020
 6456TIP3    H141003   1.642   1.437   8.464 -2.7213 -2.3152 -0.1529
 6456TIP3    H241004   1.687   1.302   8.516  1.0868 -0.3160  2.2266
 6457TIP3   OH241005   4.147   6.122   7.106 -0.4257 -0.4014  0.4789
 6457TIP3    H141006   4.068   6.088   7.148 -0.5666 -3.1851 -1.7729
 6457TIP3    H241007   4.207   6.048   7.103  0.2839  0.1579 -2.3905
 6458TIP3   OH241008   3.724   4.938   0.734 -0.8507 -0.3250 -0.2329
 6458TIP3    H141009   3.761   4.856   0.705 -3.3351 -1.5592 -0.2188
 6458TIP3    H241010   3.788   4.974   0.795  0.6086 -1.8561 -0.7957
 6459TIP3   OH241011   5.880   1.016   8.427  0.3626 -0.2035 -0.1512
 6459TIP3    H141012   5.900   1.038   8.336  0.6145  1.1155  0.2011
 6459TIP3    H241013   5.923   1.085   8.479 -1.7805  0.4877  0.8331
 6460TIP3   OH241014   1.749   3.845   0.699  0.2309  0.0122 -0.1300
 6460TIP3    H141015   1.790   3.759   0.684  0.0216  0.1684 -1.7534
 6460TIP3    H241016   1.676   3.848   0.638  0.3824  1.4465 -0.2786
 6461TIP3   OH241017   3.670   0.309   8.591 -0.0077  0.1394  0.0007
 6461TIP3    H141018   3.741   0.245   8.585 -0.7319 -0.6712 -0.3114
 6461TIP3    H241019   3.712   0.394   8.579  1.0363 -0.2386  0.7743
 6462TIP3   OH241020   2.774   3.796   0.027 -0.7030  0.1574 -0.2793
 6462TIP3    H141021   2.869   3.789   0.020 -0.7122  1.0091 -1.5816
 6462TIP3    H241022   2.753   3.883  -0.007 -1.8207  0.6865  1.5519
 6463TIP3   OH241023   4.147   0.087   0.178 -0.4546  0.0210 -0.0950
 6463TIP3    H141024   4.087   0.011   0.178  1.0133 -1.2293  1.6600
 6463TIP3    H241025   4.101   0.153   0.230 -0.7716 -0.5534  0.3742
 6464TIP3   OH241026   1.630   0.683   0.796  0.6185  0.0520  0.0752
 6464TIP3    H141027   1.603   0.623   0.726  1.4118 -0.3849  0.1319
 6464TIP3    H241028   1.572   0.661   0.869  2.3582 -2.3037  0.8873
 6465TIP3   OH241029   5.278   0.923   7.127 -0.2328 -0.0529 -0.1597
 6465TIP3    H141030   5.294   0.911   7.033  0.9498  1.1308 -0.1315
 6465TIP3    H241031   5.312   0.842   7.166 -2.4144 -1.4073 -0.8468
 6466TIP3   OH241032   2.057   3.548   8.001  0.2508 -0.4045 -0.1579
 6466TIP3    H141033   2.135   3.516   8.046  1.1152 -0.2945 -1.5049
 6466TIP3    H241034   2.081   3.547   7.908 -1.0522  0.4744 -0.5350
 6467TIP3   OH241035   0.982   3.223   6.677  0.1257 -0.1631  0.0436
 6467TIP3    H141036   0.975   3.205   6.771  0.2438 -2.1547 -0.2671
 6467TIP3    H241037   0.927   3.156   6.636 -0.3943  1.0475 -1.2999
 6468TIP3   OH241038   3.231   0.935   7.094  0.3723 -0.5257  0.4952
 6468TIP3    H141039   3.249   0.845   7.068 -0.7145 -0.8742  0.8820
 6468TIP3    H241040   3.136   0.944   7.084  0.4793  0.6084  0.3739
 6469TIP3   OH241041   2.138   1.164   8.503 -0.4552  0.4022  0.0015
 6469TIP3    H141042   2.220   1.134   8.463 -1.5584 -0.5027 -1.7300
 6469TIP3    H241043   2.121   1.248   8.460 -2.0343 -0.9251 -2.1619
 6470TIP3   OH241044   6.728   5.902   7.574 -0.0662  0.4229  0.2800
 6470TIP3    H141045   6.797   5.942   7.521  0.3303  0.6947  0.9794
 6470TIP3    H241046   6.653   5.960   7.565  0.1927  0.7973  0.4960
 6471TIP3   OH241047   0.959   4.005   0.819 -0.4384  0.3998 -0.3458
 6471TIP3    H141048   1.035   3.960   0.783 -0.4542 -0.2132  0.3686
 6471TIP3    H241049   0.950   3.971   0.908 -0.2767  2.0352  0.3234
 6472TIP3   OH241050   2.709   0.514   1.530  0.1980 -0.5027  0.4468
 6472TIP3    H141051   2.745   0.431   1.497  2.0856 -0.0175  1.1780
 6472TIP3    H241052   2.630   0.488   1.579  0.6360 -1.8363  0.4953
 6473TIP3   OH241053   6.058   3.597   7.288 -0.3289  0.2229 -0.1094
 6473TIP3    H141054   5.985   3.660   7.282 -0.6352 -0.1624 -0.4908
 6473TIP3    H241055   6.137   3.652   7.282 -0.5931  0.5711 -0.5148
 6474TIP3   OH241056   5.433   6.457   0.719  0.6081 -0.0203  0.1917
 6474TIP3    H141057   5.338   6.454   0.723  0.5158  1.9436  0.1413
 6474TIP3    H241058   5.462   6.394   0.785 -0.7265 -0.0389  0.7795
 6475TIP3   OH241059   2.205   1.710   7.321  0.0930  0.2490  0.0401
 6475TIP3    H141060   2.237   1.624   7.347  1.4814  1.1152  1.3668
 6475TIP3    H241061   2.112   1.697   7.302  0.3941 -1.6168 -0.2761
 6476TIP3   OH241062   0.487   4.713   1.112 -0.4618  0.5717  0.3736
 6476TIP3    H141063   0.529   4.653   1.050 -0.0003  1.0308  0.2342
 6476TIP3    H241064   0.523   4.799   1.091 -1.9734  1.0998 -0.1817
 6477TIP3   OH241065   1.141   2.154   7.552 -0.0655  0.2055 -0.0893
 6477TIP3    H141066   1.101   2.077   7.512  0.1364  0.1321 -0.1556
 6477TIP3    H241067   1.071   2.219   7.558  0.0597  0.4540 -1.1776
 6478TIP3   OH241068   4.768   6.729   2.048 -0.1335  0.5179  0.3321
 6478TIP3    H141069   4.814   6.649   2.071  0.1708  0.5156 -0.2603
 6478TIP3    H241070   4.682   6.719   2.087 -0.4960 -0.6154 -0.6781
 6479TIP3   OH241071   2.433   6.197   0.709  0.4361 -0.4236  0.3168
 6479TIP3    H141072   2.450   6.159   0.623 -2.7034  1.3666 -1.2617
 6479TIP3    H241073   2.443   6.291   0.696 -1.4433 -0.0200  1.5051
 6480TIP3   OH241074   1.288   5.095   1.315 -0.3642 -0.0364 -0.0997
 6480TIP3    H141075   1.222   5.134   1.258 -0.1260 -0.5823 -0.7717
 6480TIP3    H241076   1.368   5.143   1.295 -0.1886 -0.4975 -0.5453
 6481TIP3   OH241077   3.779   0.555   8.562 -0.1193 -0.4960  0.3968
 6481TIP3    H141078   3.733   0.634   8.590 -0.5973 -1.1910  1.6616
 6481TIP3    H241079   3.871   0.581   8.557 -0.2560  0.1224  0.9092
 6482TIP3   OH241080   3.221   1.228   1.195 -0.4434 -0.1990  0.0201
 6482TIP3    H141081   3.145   1.284   1.181 -0.8630 -0.4655  1.1254
 6482TIP3    H241082   3.194   1.168   1.265  1.0925  0.3050  1.1101
 6483TIP3   OH241083   1.454   0.381   0.989 -0.1613  0.0854  0.5450
 6483TIP3    H141084   1.442   0.427   1.072  2.2415  1.9023 -0.0088
 6483TIP3    H241085   1.395   0.425   0.929  2.0972  2.6043  0.0279
 6484TIP3   OH241086   2.295   6.276   0.281 -0.2964  0.2444  0.0648
 6484TIP3    H141087   2.210   6.282   0.324 -2.8230 -3.2128 -3.7220
 6484TIP3    H241088   2.282   6.317   0.196  1.4718 -1.2944 -1.0173
 6485TIP3   OH241089   4.946   2.894   0.873 -0.0556  0.0943  0.5432
 6485TIP3    H141090   4.956   2.862   0.962  0.5830  0.0728  0.4695
 6485TIP3    H241091   4.854   2.876   0.851 -0.4346  0.8311  1.4650
 6486TIP3   OH241092   2.863   2.936   8.066 -0.2468  0.0552  0.4077
 6486TIP3    H141093   2.823   2.853   8.041 -1.0969  0.0168  1.7711
 6486TIP3    H241094   2.926   2.913   8.134  0.8268  0.3315 -0.4753
 6487TIP3   OH241095   5.203   5.763   7.535 -0.1027  0.1383  0.0572
 6487TIP3    H141096   5.113   5.794   7.545 -0.2898 -0.3350 -0.1299
 6487TIP3    H241097   5.250   5.839   7.499 -0.2622  0.6158  0.8212
 6488TIP3   OH241098   6.196   3.445   5.923  0.3381 -0.1034 -0.4927
 6488TIP3    H141099   6.234   3.357   5.919  0.7259  0.0319  0.0520
 6488TIP3    H241100   6.260   3.500   5.876 -0.2145 -0.2074 -1.3902
 6489TIP3   OH241101   6.288   1.227   0.411  0.2638 -0.8302 -0.3991
 6489TIP3    H141102   6.267   1.195   0.498 -1.4143  2.2287  0.4750
 6489TIP3    H241103   6.378   1.261   0.419 -0.1842  0.2091  0.4387
 6490TIP3   OH241104   3.840   0.666   0.586  0.0862 -0.5784 -0.4233
 6490TIP3    H141105   3.840   0.743   0.528  0.7829 -0.0186  0.2858
 6490TIP3    H241106   3.817   0.702   0.672  1.1107 -1.0400  0.0540
 6491TIP3   OH241107   3.591   6.266   1.304  0.0488  0.3413 -0.7052
 6491TIP3    H141108   3.659   6.248   1.239  1.4637 -1.0471  1.0577
 6491TIP3    H241109   3.622   6.343   1.350  0.7410 -0.6055  0.4526
 6492TIP3   OH241110   1.671   0.946   7.957 -0.5528 -0.6924  0.1482
 6492TIP3    H141111   1.646   0.921   8.046  1.3734 -1.6181  0.4938
 6492TIP3    H241112   1.686   0.863   7.912 -1.7838 -0.2447 -1.1590
 6493TIP3   OH241113   0.044   1.137   7.362  0.3655 -0.5059  0.3399
 6493TIP3    H141114  -0.016   1.211   7.357 -0.2470 -0.9168  1.3834
 6493TIP3    H241115  -0.010   1.060   7.348  0.3293 -0.9854  2.6619
 6494TIP3   OH241116   2.570   5.498   0.882  0.3879  0.7459 -0.3297
 6494TIP3    H141117   2.513   5.436   0.927 -0.8147  2.5595  0.7633
 6494TIP3    H241118   2.630   5.529   0.950 -1.2069  3.2441  0.0466
 6495TIP3   OH241119   5.457   1.669   7.550 -0.1931 -0.4680 -0.6472
 6495TIP3    H141120   5.515   1.608   7.596 -0.1559 -0.5233 -0.7670
 6495TIP3    H241121   5.448   1.631   7.462  0.2855 -0.0005 -0.9015
 6496TIP3   OH241122   4.051   6.089   1.739 -0.2465 -0.0251 -0.5054
 6496TIP3    H141123   3.985   6.141   1.786  1.2774  1.7859 -0.2309
 6496TIP3    H241124   4.001   6.039   1.675 -1.9081  1.2157 -0.2490
 6497TIP3   OH241125   2.637   5.978   1.532  0.4162 -0.1284 -0.1999
 6497TIP3    H141126   2.547   5.952   1.553  0.4934 -0.3823 -0.1891
 6497TIP3    H241127   2.682   5.896   1.513  0.8594 -0.0731  0.5899
 6498TIP3   OH241128   2.618   4.712   6.032 -0.3759 -0.1062 -0.3166
 6498TIP3    H141129   2.597   4.625   6.067 -0.0860 -0.2105 -0.4003
 6498TIP3    H241130   2.533   4.748   6.007 -0.4251 -0.6889 -1.0386
 6499TIP3   OH241131   2.867   6.006   1.039 -0.0637 -0.0787  0.4951
 6499TIP3    H141132   2.793   6.032   1.094  1.7049  1.9786  2.0665
 6499TIP3    H241133   2.926   5.960   1.098  0.0687 -1.4612 -0.6680
 6500TIP3   OH241134   6.348   3.964   6.149  0.4850 -0.1722 -0.4591
 6500TIP3    H141135   6.397   3.956   6.232  0.6517 -2.0681 -0.7058
 6500TIP3    H241136   6.389   4.039   6.105  1.6626 -0.3133  0.3451
 6501TIP3   OH241137   3.029   6.116   6.645  0.5438 -0.6119 -0.3809
 6501TIP3    H141138   3.109   6.157   6.614  0.4659  0.8137  1.1826
 6501TIP3    H241139   3.058   6.042   6.698  0.8279 -0.2178  0.0156
 6502TIP3   OH241140   2.459   6.627   7.075 -0.0241  0.0187 -0.0229
 6502TIP3    H141141   2.384   6.570   7.087 -1.4627  1.2805 -2.2219
 6502TIP3    H241142   2.452   6.658   6.984  3.2361  0.1105 -0.3746
 6503TIP3   OH241143   1.722   6.801   7.866 -0.6979  1.1909  0.4817
 6503TIP3    H141144   1.721   6.861   7.940 -0.8972  0.2572  1.2454
 6503TIP3    H241145   1.754   6.718   7.901  1.4204  1.3217 -0.9531
 6504TIP3   OH241146   6.599   0.709   1.837  0.3255  0.3076  0.5569
 6504TIP3    H141147   6.586   0.730   1.929 -1.0352 -0.9044  0.6667
 6504TIP3    H241148   6.521   0.742   1.793 -0.2825 -1.4775  0.2511
 6505TIP3   OH241149   6.405   0.782   8.130  0.3882  0.4378 -0.2304
 6505TIP3    H141150   6.318   0.752   8.103  0.1131 -0.5492  1.5802
 6505TIP3    H241151   6.389   0.867   8.171  0.5032  0.9411 -1.2102
 6506TIP3   OH241152   0.158   0.254   6.804  0.7705 -0.4877  0.1973
 6506TIP3    H141153   0.155   0.280   6.896  0.5955 -1.6050  0.5261
 6506TIP3    H241154   0.070   0.218   6.787  0.8099 -0.3082 -0.4029
 6507TIP3   OH241155   4.635   4.686   7.822  0.5299  0.0922  0.1987
 6507TIP3    H141156   4.677   4.613   7.868  2.2323  1.0690  0.2656
 6507TIP3    H241157   4.589   4.645   7.750  1.8522 -1.0427 -0.0461
 6508TIP3   OH241158   4.005   6.574   0.478 -0.0194  0.2312  0.6702
 6508TIP3    H141159   4.070   6.615   0.419 -0.3213 -3.1117 -2.2871
 6508TIP3    H241160   4.056   6.550   0.555  2.3961 -2.0460 -1.4372
 6509TIP3   OH241161   6.783   4.226   1.987 -0.1885  0.3181 -0.6431
 6509TIP3    H141162   6.778   4.284   2.063  1.4852  1.0117 -1.0247
 6509TIP3    H241163   6.776   4.138   2.024  1.5395  0.5961  0.4484
 6510TIP3   OH241164   3.555   5.850   6.604 -0.5624 -0.1660 -0.3612
 6510TIP3    H141165   3.625   5.831   6.666 -1.5916 -0.7018  0.6859
 6510TIP3    H241166   3.560   5.945   6.590 -1.2028  0.2313  1.7306
 6511TIP3   OH241167   6.068   3.333   7.818  0.3963 -0.2097  0.0185
 6511TIP3    H141168   6.044   3.381   7.898  0.3618 -1.9810  1.1170
 6511TIP3    H241169   6.161   3.313   7.830  0.0913 -1.5792  0.2342
 6512TIP3   OH241170   0.848   3.144   0.112 -0.3903 -0.4853  0.4170
 6512TIP3    H141171   0.754   3.142   0.094 -0.4781 -0.5159  0.8450
 6512TIP3    H241172   0.882   3.064   0.073 -0.4291 -0.1467 -0.3146
 6513TIP3   OH241173   1.426   0.121   6.872  0.2406 -0.6601  0.1062
 6513TIP3    H141174   1.387   0.133   6.785 -0.8355 -0.0635  0.6477
 6513TIP3    H241175   1.360   0.156   6.932  1.1950 -0.5835  1.1288
 6514TIP3   OH241176   1.623   2.705   7.290  0.1045 -0.3199 -0.2791
 6514TIP3    H141177   1.602   2.615   7.317 -1.2577  0.0714  0.0323
 6514TIP3    H241178   1.712   2.699   7.257 -0.0274 -1.8332 -0.4509
 6515TIP3   OH241179   2.717   6.791   8.600  0.0776 -0.5210 -0.2853
 6515TIP3    H141180   2.630   6.753   8.588 -0.7929  1.1029  0.6636
 6515TIP3    H241181   2.745   6.760   8.686 -0.6079  0.8636  0.4628
 6516TIP3   OH241182   2.896   2.346   2.432  0.3532 -0.5841 -0.1288
 6516TIP3    H141183   2.948   2.374   2.507 -1.7666  0.6246  1.0092
 6516TIP3    H241184   2.905   2.251   2.430  0.9420 -0.5792  1.2840
 6517TIP3   OH241185   0.954   0.790   7.412 -0.3503  0.9815  0.3803
 6517TIP3    H141186   0.889   0.727   7.444 -0.9404  1.8397  0.9225
 6517TIP3    H241187   1.020   0.794   7.482 -0.6475  1.4259  0.6450
 6518TIP3   OH241188   1.575   6.506   1.662  0.8948  0.0145 -0.1715
 6518TIP3    H141189   1.634   6.489   1.589 -1.6775 -0.7795 -2.1900
 6518TIP3    H241190   1.508   6.565   1.627 -0.3721 -0.2971  1.5548
 6519TIP3   OH241191   4.982   4.682   8.038 -0.0497 -0.1224 -0.3379
 6519TIP3    H141192   5.001   4.631   7.960 -0.1305  0.0104 -0.4454
 6519TIP3    H241193   4.947   4.765   8.005 -0.4549 -0.2162 -0.1570
 6520TIP3   OH241194   3.056   4.167   6.826 -0.5804 -1.0198  0.0802
 6520TIP3    H141195   3.146   4.134   6.837 -0.4324 -0.7776 -0.3940
 6520TIP3    H241196   3.035   4.148   6.735 -0.3541  0.5283 -0.3239
 6521TIP3   OH241197   6.761   3.642   1.719 -0.1351  0.3222  0.0582
 6521TIP3    H141198   6.828   3.653   1.651 -0.5920  0.1170 -0.4318
 6521TIP3    H241199   6.678   3.649   1.672 -0.4567  0.0383  0.5780
 6522TIP3   OH241200   5.573   5.691   7.622 -0.1504 -0.5320 -0.1045
 6522TIP3    H141201   5.549   5.603   7.592 -2.8807 -0.1937  0.7635
 6522TIP3    H241202   5.576   5.683   7.718 -1.0461  0.3950  0.0277
 6523TIP3   OH241203   5.779   0.565   1.108 -0.0280 -0.3654  0.8861
 6523TIP3    H141204   5.688   0.591   1.099  0.0935 -0.2332 -0.0157
 6523TIP3    H241205   5.776   0.475   1.139 -0.4673 -0.4734  0.5310
 6524TIP3   OH241206   4.557   0.113   7.766 -0.2675 -0.3667  0.1703
 6524TIP3    H141207   4.507   0.194   7.774  0.0643  0.1724 -2.4328
 6524TIP3    H241208   4.595   0.116   7.678  0.3966 -2.9995  0.2756
 6525TIP3   OH241209   5.523   6.766   0.465 -0.1919  0.0602 -0.1821
 6525TIP3    H141210   5.448   6.727   0.419 -1.5029  0.6459  1.3593
 6525TIP3    H241211   5.594   6.702   0.453 -1.7946 -2.0522  0.8584
 6526TIP3   OH241212   1.910   1.029   7.658 -0.5518  0.0379  0.2512
 6526TIP3    H141213   1.849   0.977   7.606 -1.1714  0.6493  0.3538
 6526TIP3    H241214   1.995   1.016   7.615 -0.9799  0.2271 -0.6899
 6527TIP3   OH241215   1.283   6.120   0.726  0.5102  0.2033  0.9549
 6527TIP3    H141216   1.191   6.122   0.751  0.3299  0.3785  0.3029
 6527TIP3    H241217   1.311   6.030   0.745  0.3201  0.2682  1.5440
 6528TIP3   OH241218   4.818   1.384   8.208 -0.0136  0.1485  0.8827
 6528TIP3    H141219   4.772   1.464   8.181 -0.5498  0.2798  2.1061
 6528TIP3    H241220   4.877   1.364   8.135 -0.4098  1.2387  0.2403
 6529TIP3   OH241221   3.625   1.580   7.391 -0.3802  0.7993  0.2419
 6529TIP3    H141222   3.714   1.614   7.378 -0.7033  1.0046 -1.7387
 6529TIP3    H241223   3.594   1.624   7.469 -0.1098  3.7331 -1.1873
 6530TIP3   OH241224   3.853   2.245   7.985  0.2892 -0.4035 -0.1988
 6530TIP3    H141225   3.924   2.192   7.950  0.8718 -0.7301  1.3766
 6530TIP3    H241226   3.882   2.269   8.073  0.6235  3.6590 -1.2251
 6531TIP3   OH241227   4.888   2.597   2.042  0.0878  0.3615  0.3388
 6531TIP3    H141228   4.961   2.612   2.102  0.7585  2.4814 -0.8696
 6531TIP3    H241229   4.852   2.512   2.068 -0.0265  1.3680  4.0385
 6532TIP3   OH241230   2.906   2.288   6.426 -0.3774 -0.7468 -0.3061
 6532TIP3    H141231   2.863   2.266   6.509 -0.4812  1.7378  0.3581
 6532TIP3    H241232   2.984   2.233   6.425 -0.4840 -0.9909  1.3471
 6533TIP3   OH241233   2.290   6.038   7.406 -0.2916  0.2771 -0.1607
 6533TIP3    H141234   2.203   6.079   7.409 -0.5464 -0.2429 -0.4253
 6533TIP3    H241235   2.276   5.949   7.436  0.2579  0.3624  0.3691
 6534TIP3   OH241236   0.823   0.335   6.760 -0.2501  0.3636 -0.0102
 6534TIP3    H141237   0.819   0.338   6.855 -0.5372 -2.5076  0.1614
 6534TIP3    H241238   0.907   0.294   6.740 -1.4584 -1.9149 -0.7944
 6535TIP3   OH241239   1.612   2.375   7.751  0.1754 -0.0221  0.0595
 6535TIP3    H141240   1.702   2.354   7.724  0.4088  1.0010 -0.0113
 6535TIP3    H241241   1.558   2.309   7.708  0.8647 -0.4412 -0.1761
 6536TIP3   OH241242   0.210   4.769   0.976 -0.7472 -0.5457 -0.6750
 6536TIP3    H141243   0.294   4.728   0.996 -0.2881  0.1739 -1.0975
 6536TIP3    H241244   0.201   4.761   0.881 -1.6919 -1.6119 -0.5177
 6537TIP3   OH241245   0.290   4.724   6.851  0.2715 -0.3611 -0.0104
 6537TIP3    H141246   0.378   4.689   6.838  0.2460 -0.3695 -0.1601
 6537TIP3    H241247   0.293   4.813   6.815 -0.4522 -1.1972 -2.3328
 6538TIP3   OH241248   0.023   0.793   7.043 -0.3498 -1.1150 -0.1069
 6538TIP3    H141249   0.055   0.710   7.007  1.1719  0.1725 -1.8895
 6538TIP3    H241250  -0.013   0.840   6.967  0.1709  0.4500  0.5729
 6539TIP3   OH241251   5.449   0.017   1.492 -0.0063  0.3359 -0.9022
 6539TIP3    H141252   5.474   0.108   1.481 -0.0254  0.3194 -1.0811
 6539TIP3    H241253   5.373   0.006   1.434 -0.3994  0.3758 -0.4054
 6540TIP3   OH241254   6.892   1.667   2.303 -0.0026 -0.0828 -0.0087
 6540TIP3    H141255   6.844   1.628   2.376 -0.7764 -1.1328 -1.0314
 6540TIP3    H241256   6.972   1.616   2.296  1.8284  2.2317  2.2657
 6541TIP3   OH241257   5.214   0.732   0.428 -0.2593  0.6222  0.4386
 6541TIP3    H141258   5.173   0.758   0.345  0.1956  1.0147  0.3299
 6541TIP3    H241259   5.167   0.653   0.454  0.6854 -0.4737 -1.0459
 6542TIP3   OH241260   0.374   1.377   0.876  0.1014 -0.6131  0.2245
 6542TIP3    H141261   0.439   1.429   0.923  0.8431 -3.1200  2.1584
 6542TIP3    H241262   0.326   1.331   0.945 -0.6426 -2.3312 -1.3622
 6543TIP3   OH241263   0.767   3.634   7.899 -0.4828  0.0800  0.5578
 6543TIP3    H141264   0.695   3.587   7.942 -1.9789  2.8287  1.3064
 6543TIP3    H241265   0.787   3.582   7.822 -2.7113 -1.2595  0.7901
 6544TIP3   OH241266   3.665   3.717   0.726  0.1752  0.1943  0.2799
 6544TIP3    H141267   3.596   3.782   0.726  0.1507  0.1709  0.9129
 6544TIP3    H241268   3.635   3.649   0.787 -0.4106 -1.0701 -1.3450
 6545TIP3   OH241269   1.981   1.345   2.174 -0.1970 -0.4348 -0.0477
 6545TIP3    H141270   2.077   1.350   2.173 -0.2423  0.7653 -0.8518
 6545TIP3    H241271   1.953   1.422   2.224 -0.7403 -0.4721 -0.2812
 6546TIP3   OH241272   1.942   3.521   7.442 -0.0768 -0.2449  0.3347
 6546TIP3    H141273   1.924   3.551   7.353 -0.0911 -2.3632 -0.4176
 6546TIP3    H241274   2.026   3.477   7.436  0.0649 -0.1624  1.4556
 6547TIP3   OH241275   3.132   1.826   8.574  0.6365 -0.0214  0.0417
 6547TIP3    H141276   3.132   1.886   8.500  0.6449  0.2749  0.2790
 6547TIP3    H241277   3.224   1.802   8.585  0.8396  1.0732  0.8623
 6548TIP3   OH241278   2.954   4.761   1.470 -0.7190 -0.1289  0.1150
 6548TIP3    H141279   2.951   4.668   1.448  0.2754  0.1730 -1.4373
 6548TIP3    H241280   2.865   4.792   1.458 -0.6240 -0.4234 -1.6774
 6549TIP3   OH241281   3.242   2.504   1.478  0.4173  0.2317 -0.1661
 6549TIP3    H141282   3.167   2.560   1.498 -0.3292 -0.3596 -1.2120
 6549TIP3    H241283   3.314   2.565   1.463 -0.1812  0.8691 -0.4855
 6550TIP3   OH241284   0.769   6.830   0.580 -0.8852 -0.3439  0.4169
 6550TIP3    H141285   0.748   6.740   0.606 -3.4221 -0.1961 -0.7592
 6550TIP3    H241286   0.808   6.822   0.493 -0.8503 -0.3400  0.4324
 6551TIP3   OH241287   5.450   2.810   0.556 -0.4605  0.1694 -0.7162
 6551TIP3    H141288   5.419   2.793   0.645 -0.8584 -0.7986 -1.0256
 6551TIP3    H241289   5.544   2.827   0.566 -0.5285  0.1936 -0.0911
 6552TIP3   OH241290   3.101   3.073   7.964  0.2998  0.0491  0.2586
 6552TIP3    H141291   3.084   3.162   7.934  1.2255  0.4523  0.9158
 6552TIP3    H241292   3.015   3.041   7.994  0.0480  0.8747  0.4320
 6553TIP3   OH241293   3.449   2.603   7.385  0.1256  0.1165 -0.0744
 6553TIP3    H141294   3.440   2.691   7.347 -0.9218  0.1298  0.1932
 6553TIP3    H241295   3.360   2.574   7.402  0.3254 -1.7715 -1.8480
 6554TIP3   OH241296   2.178   2.742   2.562  0.2578  0.0180 -0.1810
 6554TIP3    H141297   2.129   2.795   2.499 -0.9093 -1.3225 -0.4853
 6554TIP3    H241298   2.120   2.737   2.638  1.4560  1.2331  0.8484
 6555TIP3   OH241299   4.780   1.974   7.371  0.1442  0.5222 -0.4324
 6555TIP3    H141300   4.838   1.926   7.312  1.3612 -0.9767  1.8235
 6555TIP3    H241301   4.765   2.058   7.327  0.8731 -0.5175 -2.8648
 6556TIP3   OH241302   1.955   6.425   8.294  0.2777  0.0345  0.0253
 6556TIP3    H141303   2.016   6.423   8.368 -0.5086 -1.8599  0.6663
 6556TIP3    H241304   1.946   6.519   8.274  2.0782  0.4724  0.9754
 6557TIP3   OH241305   3.189   4.856   8.096 -0.8408  0.2772 -0.1487
 6557TIP3    H141306   3.238   4.823   8.171 -2.3543 -1.8288 -0.0190
 6557TIP3    H241307   3.256   4.896   8.040  0.7838 -0.9906  0.8045
 6558TIP3   OH241308   5.330   4.042   7.403 -0.5562 -0.2680  0.7785
 6558TIP3    H141309   5.244   4.070   7.372 -0.8476 -0.2775  1.5679
 6558TIP3    H241310   5.317   4.020   7.495  0.0716 -1.2472  0.6484
 6559TIP3   OH241311   3.115   2.389   8.198 -0.0192 -0.2733  0.3681
 6559TIP3    H141312   3.104   2.462   8.137 -0.8731 -0.4405  0.3069
 6559TIP3    H241313   3.186   2.417   8.257  0.0359  0.3677  0.0056
 6560TIP3   OH241314   0.157   3.425   1.167  0.3367  0.0123  0.2377
 6560TIP3    H141315   0.212   3.498   1.197 -0.7494  0.1059  2.1723
 6560TIP3    H241316   0.098   3.409   1.240 -1.9418 -0.3746 -1.5859
 6561TIP3   OH241317   3.549   5.544   0.168  0.6345  0.5727  0.1915
 6561TIP3    H141318   3.549   5.636   0.141 -2.2274  0.3828 -0.8311
 6561TIP3    H241319   3.457   5.524   0.185  1.3110 -1.8076  1.5684
 6562TIP3   OH241320   6.712   1.620   0.230  0.5243 -0.4953  0.1553
 6562TIP3    H141321   6.617   1.627   0.239  0.5637 -1.1720  1.2642
 6562TIP3    H241322   6.726   1.578   0.146 -0.1194  0.3744 -0.4062
 6563TIP3   OH241323   4.241   5.385   6.593 -0.2305  0.1549  0.3633
 6563TIP3    H141324   4.171   5.445   6.565 -0.3455 -0.2894 -0.3238
 6563TIP3    H241325   4.313   5.442   6.619 -0.1426  0.5997 -0.7961
 6564TIP3   OH241326   4.839   1.783   0.697  0.4751 -0.4687 -0.0641
 6564TIP3    H141327   4.805   1.721   0.762  1.0805  0.1781  0.8902
 6564TIP3    H241328   4.934   1.777   0.706  0.6094 -1.1947 -1.6909
 6565TIP3   OH241329   1.473   5.763   0.340  0.4837  0.0239  0.0845
 6565TIP3    H141330   1.417   5.809   0.277  0.1763 -1.2105 -0.5720
 6565TIP3    H241331   1.547   5.732   0.289  0.8876  0.1149  0.6026
 6566TIP3   OH241332   1.542   5.681   1.631  0.4003  0.3554 -0.2562
 6566TIP3    H141333   1.557   5.759   1.685  0.4353 -0.0886  0.3817
 6566TIP3    H241334   1.628   5.661   1.594  0.5593  0.1638  0.2068
 6567TIP3   OH241335   0.453   6.105   1.192  0.1604 -0.3917  0.0437
 6567TIP3    H141336   0.482   6.131   1.280  0.7548  0.5054 -0.3994
 6567TIP3    H241337   0.361   6.083   1.203  0.0947  0.2149  0.8017
 6568TIP3   OH241338   2.724   5.747   8.419 -0.0887  0.2796 -0.4881
 6568TIP3    H141339   2.653   5.715   8.476  0.7419 -0.5337  0.1304
 6568TIP3    H241340   2.682   5.761   8.334 -1.0850  0.2672 -0.0156
 6569TIP3   OH241341   4.354   3.235   7.980  0.7650 -0.1597 -0.4347
 6569TIP3    H141342   4.354   3.210   8.073 -1.5315  0.2975 -0.2776
 6569TIP3    H241343   4.311   3.320   7.978  0.7694 -0.1785 -1.9517
 6570TIP3   OH241344   3.168   3.442   1.246 -0.1051 -0.1936  1.2576
 6570TIP3    H141345   3.230   3.372   1.224 -0.5728 -0.1431 -0.3054
 6570TIP3    H241346   3.083   3.400   1.247 -0.3077  0.1992  1.0232
 6571TIP3   OH241347   1.510   5.125   7.187  0.0879 -0.2581 -0.0851
 6571TIP3    H141348   1.584   5.070   7.213  0.3198  0.4019  0.6755
 6571TIP3    H241349   1.516   5.129   7.092 -0.8065 -2.7655 -0.3020
 6572TIP3   OH241350   2.433   0.950   2.637 -0.0013  0.3915 -0.0689
 6572TIP3    H141351   2.526   0.945   2.661 -0.0792 -0.4825  0.0918
 6572TIP3    H241352   2.408   1.040   2.658  0.9086  0.7565 -0.4988
 6573TIP3   OH241353   0.861   0.823   7.855  0.2927  0.0643 -0.0787
 6573TIP3    H141354   0.801   0.885   7.815 -0.8926 -0.1356  1.3088
 6573TIP3    H241355   0.943   0.872   7.866 -0.6931  1.4970  1.2113
 6574TIP3   OH241356   5.049   6.467   0.371  0.5027 -0.1668 -0.5444
 6574TIP3    H141357   5.070   6.491   0.280  0.9071 -0.3878 -0.5136
 6574TIP3    H241358   5.100   6.387   0.387  1.2690  0.4607  0.2245
 6575TIP3   OH241359   4.399   5.520   7.975  0.6362 -0.4658  0.1900
 6575TIP3    H141360   4.427   5.481   8.057 -0.1147 -0.2834  0.5393
 6575TIP3    H241361   4.480   5.553   7.935  0.7943  0.9674  1.6385
 6576TIP3   OH241362   6.647   2.665   8.586 -0.3185  0.4380  0.0525
 6576TIP3    H141363   6.573   2.609   8.564 -0.3933  0.0015  1.2965
 6576TIP3    H241364   6.609   2.735   8.639  0.0497  0.6315  0.0666
 6577TIP3   OH241365   3.932   3.193   1.007 -0.6126 -0.2297  0.1481
 6577TIP3    H141366   4.008   3.186   0.950 -1.0480 -2.9057 -0.2167
 6577TIP3    H241367   3.857   3.177   0.950 -1.3252  0.3517  0.8804
 6578TIP3   OH241368   2.251   4.953   1.042  0.4087 -0.6566 -0.3348
 6578TIP3    H141369   2.190   4.968   1.114  1.1581  1.0342 -0.0254
 6578TIP3    H241370   2.220   4.871   1.002 -1.8598 -0.0494  0.0003
 6579TIP3   OH241371   6.463   6.891   7.546  0.4953  0.0479  0.0232
 6579TIP3    H141372   6.400   6.920   7.480  0.6883  0.7028  0.1221
 6579TIP3    H241373   6.511   6.820   7.503 -2.0249 -2.2903  0.8446
 6580TIP3   OH241374   3.930   0.155   1.746 -0.0836 -0.3127  0.1671
 6580TIP3    H141375   3.935   0.064   1.716  1.4078 -0.1693 -0.0755
 6580TIP3    H241376   3.900   0.204   1.669 -3.2419 -0.8341  0.9012
 6581TIP3   OH241377   2.634   2.440   8.187 -0.3499  0.2016  0.3070
 6581TIP3    H141378   2.681   2.510   8.233  0.6273 -0.3039  0.1047
 6581TIP3    H241379   2.549   2.478   8.164  0.7651  1.8822 -1.2635
 6582TIP3   OH241380   3.909   3.524   1.780  0.0376  0.1807 -0.1172
 6582TIP3    H141381   3.850   3.471   1.726  0.3248 -2.8714  2.3146
 6582TIP3    H241382   3.993   3.520   1.735 -0.5544  0.9545 -1.3674
 6583TIP3   OH241383   4.841   3.072   8.518 -0.5928 -0.0020  0.2213
 6583TIP3    H141384   4.794   3.051   8.599  0.6396 -0.2114  0.9180
 6583TIP3    H241385   4.933   3.061   8.541 -0.2323 -0.5014 -1.3517
 6584TIP3   OH241386   0.415   2.299   8.203 -0.4568  0.2385  0.7795
 6584TIP3    H141387   0.468   2.363   8.155  0.2677 -0.7793  0.1869
 6584TIP3    H241388   0.470   2.273   8.277 -1.1189  0.9641  1.5388
 6585TIP3   OH241389   3.195   1.161   0.629 -0.3838 -0.5811 -0.5434
 6585TIP3    H141390   3.257   1.149   0.701 -1.5825  0.3065  0.6985
 6585TIP3    H241391   3.184   1.256   0.622 -0.9021 -0.6895 -1.3685
 6586TIP3   OH241392   6.782   6.496   1.185  0.2375 -0.6577 -0.6015
 6586TIP3    H141393   6.760   6.586   1.161  1.0224  0.0994  1.3219
 6586TIP3    H241394   6.699   6.450   1.186 -0.0757 -0.1912 -2.4408
 6587TIP3   OH241395   2.788   1.313   0.316 -0.3537 -0.2288 -0.2117
 6587TIP3    H141396   2.722   1.324   0.247 -0.5682 -0.9268 -0.1189
 6587TIP3    H241397   2.821   1.402   0.331 -2.1264  0.3242  0.6105
 6588TIP3   OH241398   0.566   1.764   7.191  0.0610 -0.6670 -0.1174
 6588TIP3    H141399   0.595   1.855   7.184  0.2614 -0.5909  1.3922
 6588TIP3    H241400   0.474   1.770   7.216 -0.5239 -0.9128 -2.0502
 6589TIP3   OH241401   1.414   3.329   1.171 -0.5188 -0.3928 -0.3522
 6589TIP3    H141402   1.346   3.349   1.106  0.1344  0.8891 -0.6734
 6589TIP3    H241403   1.495   3.327   1.122  0.1157  1.5260  0.5181
 6590TIP3   OH241404   3.814   5.851   6.684  0.6508  0.0318 -0.1026
 6590TIP3    H141405   3.856   5.766   6.686 -0.5080 -0.5837 -0.9198
 6590TIP3    H241406   3.878   5.909   6.643  0.9366 -0.7469 -0.7776
 6591TIP3   OH241407   1.784   6.774   0.327 -0.3657 -0.5505 -0.2484
 6591TIP3    H141408   1.870   6.750   0.362 -0.3025 -1.6729 -1.1103
 6591TIP3    H241409   1.790   6.869   0.313  1.2516 -0.7975 -1.6025
 6592TIP3   OH241410   5.330   3.477   2.034  0.3542  0.2166 -0.4385
 6592TIP3    H141411   5.421   3.448   2.038  0.2636 -0.2099 -1.3555
 6592TIP3    H241412   5.285   3.425   2.100  0.2054 -1.7384 -1.9769
 6593TIP3   OH241413   0.480   4.528   0.304  0.0601 -0.2111  0.5622
 6593TIP3    H141414   0.454   4.619   0.321  2.0868  0.2674  1.3882
 6593TIP3    H241415   0.443   4.508   0.218  1.8526  2.3814 -0.9588
 6594TIP3   OH241416   0.261   3.757   6.887  0.0649  0.3958 -0.3309
 6594TIP3    H141417   0.274   3.666   6.860  1.1367  0.5879 -0.5277
 6594TIP3    H241418   0.309   3.808   6.821 -1.8215  1.2165 -1.1408
 6595TIP3   OH241419   3.625   3.190   8.219  0.4620  0.6661 -0.0398
 6595TIP3    H141420   3.701   3.140   8.190  0.5079  0.2659  0.7682
 6595TIP3    H241421   3.589   3.141   8.293 -1.7073 -0.1899 -1.5308
 6596TIP3   OH241422   5.587   5.174   0.471 -0.1786  0.7483  0.1901
 6596TIP3    H141423   5.617   5.124   0.395 -2.0706 -1.3747  0.7274
 6596TIP3    H241424   5.666   5.187   0.524  0.5975 -0.6979 -0.5361
 6597TIP3   OH241425   0.639   4.785   0.547  0.0528 -0.3549  0.1231
 6597TIP3    H141426   0.589   4.708   0.574 -0.4367 -0.5129 -1.1182
 6597TIP3    H241427   0.613   4.798   0.455  1.5904  0.1345 -0.2646
 6598TIP3   OH241428   0.533   1.728   7.728 -0.0086 -0.4608 -0.1186
 6598TIP3    H141429   0.523   1.688   7.642 -0.5747 -0.6922  0.0493
 6598TIP3    H241430   0.614   1.691   7.763  1.5272  1.3936 -1.4846
 6599TIP3   OH241431   3.216   3.461   0.453 -0.3541  0.0024 -0.0450
 6599TIP3    H141432   3.189   3.427   0.538 -0.6544 -1.2008 -0.5924
 6599TIP3    H241433   3.194   3.554   0.456  2.3868  0.6851  2.2693
 6600TIP3   OH241434   2.062   6.375   0.442 -0.1541  0.5855 -0.0068
 6600TIP3    H141435   2.029   6.365   0.532  1.7021  1.0811  0.7715
 6600TIP3    H241436   1.992   6.339   0.387 -1.3757  0.3427  1.6161
 6601TIP3   OH241437   2.766   1.118   7.926 -0.1329  0.1229 -0.2955
 6601TIP3    H141438   2.841   1.124   7.986 -0.2331  2.0432 -0.3032
 6601TIP3    H241439   2.794   1.055   7.860  1.2009  0.2526  0.1067
 6602TIP3   OH241440   4.231   2.956   7.902  0.3544 -0.5173 -0.0016
 6602TIP3    H141441   4.305   2.900   7.923  0.4458 -1.1070 -1.7438
 6602TIP3    H241442   4.267   3.045   7.903  1.1586 -0.8083 -1.0093
 6603TIP3   OH241443   3.980   6.799   8.542  0.7892 -1.0235 -0.0632
 6603TIP3    H141444   3.935   6.718   8.518  0.1667 -1.5950  2.7424
 6603TIP3    H241445   4.070   6.785   8.513  0.7822 -2.9070  0.6522
 6604TIP3   OH241446   3.521   0.676   7.653  0.6248  0.6683  0.3572
 6604TIP3    H141447   3.455   0.658   7.586 -2.0944 -0.8670  3.1819
 6604TIP3    H241448   3.570   0.594   7.660  1.3342  1.0397 -0.1338
 6605TIP3   OH241449   0.498   6.814   2.087 -0.2570 -0.6545  0.4300
 6605TIP3    H141450   0.569   6.751   2.075 -1.1571 -1.8132  1.0514
 6605TIP3    H241451   0.527   6.869   2.159  1.1052  0.5037 -0.9418
 6606TIP3   OH241452   2.236   5.771   7.493 -0.0110  0.1593  0.3568
 6606TIP3    H141453   2.147   5.753   7.463  0.2777  0.4643 -0.7309
 6606TIP3    H241454   2.255   5.702   7.556 -0.5823 -0.6132 -0.3016
 6607TIP3   OH241455   4.336   2.096   8.518  0.0846 -0.1199  0.1403
 6607TIP3    H141456   4.242   2.114   8.527  0.2802  0.0810  2.2146
 6607TIP3    H241457   4.379   2.176   8.550  0.9906  0.0412 -1.3989
 6608TIP3   OH241458   6.261   5.255   7.413  0.2797  0.0347 -0.4421
 6608TIP3    H141459   6.279   5.168   7.448 -1.0882  0.0845  0.4562
 6608TIP3    H241460   6.304   5.315   7.474  2.0724  0.0129 -1.5972
 6609TIP3   OH241461   5.418   6.706   7.215 -0.0502 -0.0231 -0.0266
 6609TIP3    H141462   5.494   6.764   7.216  0.6617 -0.9427  0.6438
 6609TIP3    H241463   5.376   6.723   7.131  1.4096 -0.1282 -0.8058
 6610TIP3   OH241464   5.265   2.194   0.545 -0.2601  0.4554  0.2160
 6610TIP3    H141465   5.180   2.152   0.530 -1.4666  2.2847  1.6037
 6610TIP3    H241466   5.272   2.201   0.640  1.8286 -0.3152  0.1730
 6611TIP3   OH241467   5.577   3.379   1.749  0.2699 -0.3666 -0.0360
 6611TIP3    H141468   5.560   3.362   1.841  0.0466  1.4424  0.2881
 6611TIP3    H241469   5.669   3.356   1.736  1.0339  1.6976  1.2737
 6612TIP3   OH241470   4.038   6.735   0.202 -0.0899  0.2709  0.0734
 6612TIP3    H141471   4.110   6.708   0.258  1.1003  0.7767 -1.1595
 6612TIP3    H241472   4.000   6.653   0.170  0.5605  0.0058 -0.0319
 6613TIP3   OH241473   2.393   5.209   7.960  0.1666 -0.4055 -0.1634
 6613TIP3    H141474   2.381   5.155   7.881  0.1390  0.5698 -0.8433
 6613TIP3    H241475   2.485   5.237   7.955 -0.0680  0.3408 -0.2867
 6614TIP3   OH241476   2.245   3.421   8.194  0.3197  0.5964  0.2414
 6614TIP3    H141477   2.339   3.437   8.183  0.4795  0.5200  1.3527
 6614TIP3    H241478   2.239   3.330   8.223 -0.0928  0.6106  0.2046
 6615TIP3   OH241479   3.315   4.671   1.323  0.6250  0.3714  0.2338
 6615TIP3    H141480   3.306   4.726   1.401  1.2479 -0.2968  0.7985
 6615TIP3    H241481   3.295   4.582   1.354 -0.2491  0.2588 -0.6364
 6616TIP3   OH241482   0.782   6.003   7.305 -0.1483  0.1905 -0.6916
 6616TIP3    H141483   0.748   6.048   7.382  0.1367 -0.3086 -0.2630
 6616TIP3    H241484   0.781   6.069   7.236 -0.5158  0.6121 -0.2908
 6617TIP3   OH241485   4.292   2.570   1.934  0.5384  0.0940  0.0208
 6617TIP3    H141486   4.228   2.586   2.004  0.7969 -0.5575  0.4123
 6617TIP3    H241487   4.253   2.499   1.882 -0.4209  1.6182 -1.4814
 6618TIP3   OH241488   4.510   1.816   6.595  0.3916 -0.6055  0.2572
 6618TIP3    H141489   4.606   1.813   6.602  0.4252  0.6421  0.4509
 6618TIP3    H241490   4.493   1.861   6.513 -0.0356 -0.7729  0.2535
 6619TIP3   OH241491   0.853   1.210   0.212 -0.1287 -0.1963 -0.3805
 6619TIP3    H141492   0.798   1.153   0.266 -1.6118 -0.4409 -2.0964
 6619TIP3    H241493   0.880   1.155   0.139 -0.1785  0.8152 -1.1753
 6620TIP3   OH241494   5.689   3.592   6.686 -0.6475  0.0448 -0.0591
 6620TIP3    H141495   5.700   3.687   6.679  0.9687  0.2761  3.5203
 6620TIP3    H241496   5.777   3.559   6.702 -1.3663 -1.9381  0.0625
 6621TIP3   OH241497   5.016   6.460   1.024  0.0977 -0.1242 -0.5656
 6621TIP3    H141498   4.942   6.410   0.988 -0.0379  0.2570 -0.8248
 6621TIP3    H241499   4.978   6.545   1.045  0.9031  0.7888 -2.6218
 6622TIP3   OH241500   5.668   2.503   8.144  0.0451 -0.3767 -0.0363
 6622TIP3    H141501   5.605   2.548   8.088  3.2303  1.7463 -2.2394
 6622TIP3    H241502   5.721   2.451   8.084  0.4380 -2.1360  1.7325
 6623TIP3   OH241503   0.082   5.795   8.008 -0.3005 -0.3666 -0.1221
 6623TIP3    H141504   0.147   5.725   8.021  1.6560  1.4655  0.4338
 6623TIP3    H241505   0.019   5.782   8.079  0.4858 -1.0920  0.4679
 6624TIP3   OH241506   6.050   1.571   0.718 -0.7468 -0.4046  0.1421
 6624TIP3    H141507   6.079   1.481   0.704  1.2451 -0.2011  2.3435
 6624TIP3    H241508   6.022   1.574   0.809  1.6750  1.6876  0.9607
 6625TIP3   OH241509   0.257   6.905   6.941  0.1884  0.1450  0.3295
 6625TIP3    H141510   0.198   6.872   7.008 -0.8297 -0.1416 -0.6831
 6625TIP3    H241511   0.242   6.849   6.865 -0.1991  1.7080 -0.8110
 6626TIP3   OH241512   0.640   2.770   6.883  0.3486 -0.0519  0.1022
 6626TIP3    H141513   0.680   2.856   6.894 -0.8203  0.3204  1.8259
 6626TIP3    H241514   0.680   2.717   6.952  0.8644 -0.8381 -0.7812
 6627TIP3   OH241515   2.281   0.970   2.374  0.2001  0.1355  0.3914
 6627TIP3    H141516   2.332   0.958   2.455 -0.3468 -0.9334  0.5985
 6627TIP3    H241517   2.212   0.904   2.380 -2.9294  3.1731  1.4128
 6628TIP3   OH241518   4.319   4.654   8.344  0.6836  0.6879  0.6302
 6628TIP3    H141519   4.383   4.590   8.315 -2.2297 -1.3822 -1.9879
 6628TIP3    H241520   4.296   4.627   8.433  0.7120 -0.9577  0.1720
 6629TIP3   OH241521   2.083   2.241   8.137  0.0776 -0.0517 -0.6895
 6629TIP3    H141522   2.130   2.305   8.190 -1.2290 -1.1413  1.9374
 6629TIP3    H241523   2.120   2.156   8.162 -1.2509 -0.6777 -0.7263
 6630TIP3   OH241524   0.068   2.791   2.040  0.0358  0.2593  0.3587
 6630TIP3    H141525   0.059   2.744   1.958 -2.4022  0.0662  0.6392
 6630TIP3    H241526  -0.003   2.855   2.038  1.1035  1.5453  1.5166
 6631TIP3   OH241527   2.390   4.330   1.482  0.1836  0.4862  0.4296
 6631TIP3    H141528   2.338   4.279   1.544  1.0214 -2.6842 -1.2671
 6631TIP3    H241529   2.333   4.337   1.404  1.0812 -0.2702 -0.3143
 6632TIP3   OH241530   4.564   1.294   8.398  0.0771  0.2789 -0.7033
 6632TIP3    H141531   4.608   1.356   8.456 -0.1981 -1.0012  0.9514
 6632TIP3    H241532   4.626   1.280   8.326  1.0304  0.8558 -0.0124
 6633TIP3   OH241533   2.229   0.044   1.284 -0.6586 -0.4549  0.3715
 6633TIP3    H141534   2.189   0.029   1.198 -1.7992 -2.2987  1.1767
 6633TIP3    H241535   2.321   0.021   1.272 -1.2042 -2.6780  0.0985
 6634TIP3   OH241536   5.040   5.018   7.820 -0.2646 -0.1144  0.2102
 6634TIP3    H141537   5.085   5.021   7.905  1.1492 -1.7599 -0.4152
 6634TIP3    H241538   4.962   4.964   7.836  0.7398 -1.6270  0.1960
 6635TIP3   OH241539   1.683   6.874   8.430  0.3171  0.4533 -0.4160
 6635TIP3    H141540   1.699   6.874   8.524 -1.0906  0.3212 -0.1581
 6635TIP3    H241541   1.759   6.828   8.393  0.0010 -1.1487  0.8194
 6636TIP3   OH241542   2.801   3.675   7.101 -0.5584  0.1951 -0.8946
 6636TIP3    H141543   2.852   3.608   7.055 -0.2043  0.4655 -0.9014
 6636TIP3    H241544   2.719   3.631   7.124 -0.0302 -0.4602 -0.2307
 6637TIP3   OH241545   1.152   3.586   7.142 -0.1524  0.4535 -0.5928
 6637TIP3    H141546   1.208   3.625   7.075 -1.8026  0.4586 -2.0538
 6637TIP3    H241547   1.211   3.570   7.216  1.6204  1.0020 -1.8053
 6638TIP3   OH241548   0.481   3.912   1.160 -0.0718  0.0967 -0.2386
 6638TIP3    H141549   0.524   3.996   1.173 -2.4169  1.7290 -2.0570
 6638TIP3    H241550   0.476   3.873   1.247 -0.2699  2.5890  0.9558
 6639TIP3   OH241551   5.631   1.360   1.788 -0.4697  0.3047 -0.1055
 6639TIP3    H141552   5.547   1.353   1.745 -0.6923  1.5939  0.0838
 6639TIP3    H241553   5.681   1.423   1.735  0.4450 -0.5574 -0.3116
 6640TIP3   OH241554   3.478   0.881   1.172 -0.0430 -0.1574 -0.7752
 6640TIP3    H141555   3.423   0.805   1.190  0.1567 -0.3791 -1.0966
 6640TIP3    H241556   3.484   0.927   1.256 -2.1288  0.8243 -1.0969
 6641TIP3   OH241557   5.922   6.596   1.674 -0.2544 -0.5355 -0.4402
 6641TIP3    H141558   5.963   6.680   1.695  0.6002 -0.8926 -0.6728
 6641TIP3    H241559   5.954   6.536   1.740 -1.8353 -0.4319  0.4866
 6642TIP3   OH241560   1.379   0.907   1.350 -0.2710 -0.2251 -0.3058
 6642TIP3    H141561   1.465   0.869   1.369 -0.5684 -1.4405 -1.2373
 6642TIP3    H241562   1.353   0.950   1.431  1.0177 -0.2165  0.1271
 6643TIP3   OH241563   3.905   5.023   7.654 -0.2344 -0.1599 -0.2137
 6643TIP3    H141564   3.833   4.971   7.689 -1.4300  2.0745  0.8256
 6643TIP3    H241565   3.865   5.081   7.590  0.4534  1.6258  0.8926
 6644TIP3   OH241566   6.275   0.961   1.314  0.2747  0.0686  0.1284
 6644TIP3    H141567   6.306   0.891   1.256  0.2867 -0.7634  1.1251
 6644TIP3    H241568   6.216   0.918   1.375 -1.7885  1.3869 -0.8224
 6645TIP3   OH241569   2.681   1.157   7.359  0.2497  0.0755  0.5664
 6645TIP3    H141570   2.600   1.162   7.411  0.7087  3.5970  1.2116
 6645TIP3    H241571   2.654   1.115   7.277 -1.8302 -0.4224  1.4323
 6646TIP3   OH241572   1.159   2.804   1.453 -0.1137 -0.1326  0.3647
 6646TIP3    H141573   1.106   2.880   1.428 -0.8490 -0.5936  0.5193
 6646TIP3    H241574   1.155   2.803   1.548 -1.8336 -1.5612  0.3258
 6647TIP3   OH241575   3.065   3.597   7.423  0.1775 -0.5360 -0.4365
 6647TIP3    H141576   3.018   3.659   7.479 -0.7909  0.2591 -2.0721
 6647TIP3    H241577   3.112   3.652   7.360  1.3373 -1.4094 -0.3809
 6648TIP3   OH241578   3.957   0.707   7.233  0.0671 -0.5075  0.2009
 6648TIP3    H141579   3.911   0.628   7.204 -1.4363  1.0538 -2.0243
 6648TIP3    H241580   4.047   0.694   7.203  0.5049 -2.3682  2.0731
 6649TIP3   OH241581   4.666   1.136   0.905 -0.1805  0.2382 -0.0199
 6649TIP3    H141582   4.622   1.054   0.883  1.3478 -0.7209  0.3321
 6649TIP3    H241583   4.596   1.201   0.909 -1.2182 -0.6880 -1.9807
 6650TIP3   OH241584   4.285   2.344   1.785 -0.2362 -0.1972  1.0031
 6650TIP3    H141585   4.278   2.340   1.690  0.4766 -0.8499  0.9661
 6650TIP3    H241586   4.368   2.301   1.805 -0.2502  0.1612  1.9042
 6651TIP3   OH241587   0.025   5.418   8.198  0.4672 -0.1057 -0.0651
 6651TIP3    H141588  -0.005   5.388   8.284  1.6676  2.1086  1.2128
 6651TIP3    H241589  -0.051   5.409   8.141 -1.1595  0.7939  1.8591
 6652TIP3   OH241590   5.593   5.360   0.749 -0.9534 -0.1629 -0.1777
 6652TIP3    H141591   5.590   5.347   0.844 -0.5487 -0.8900 -0.2550
 6652TIP3    H241592   5.528   5.298   0.714 -1.0797  0.0795 -0.3767
 6653TIP3   OH241593   0.904   3.963   7.368 -0.0705  0.6734  0.6462
 6653TIP3    H141594   0.916   4.033   7.433  0.6455 -0.2826  1.5778
 6653TIP3    H241595   0.986   3.961   7.319 -0.0032  0.3522  0.7671
 6654TIP3   OH241596   2.666   3.707   1.396 -0.0297 -0.5731 -0.1042
 6654TIP3    H141597   2.760   3.691   1.391  0.1633  0.7425 -2.5531
 6654TIP3    H241598   2.631   3.632   1.443  2.2585 -0.9271  1.1926
 6655TIP3   OH241599   5.168   3.903   7.113  0.7237 -0.1790 -0.6135
 6655TIP3    H141600   5.247   3.865   7.150  0.2494 -0.4448  0.1489
 6655TIP3    H241601   5.153   3.853   7.032 -0.2257 -2.0966  0.6737
 6656TIP3   OH241602   3.118   1.918   8.294  0.7237 -0.3175 -0.1363
 6656TIP3    H141603   3.153   1.912   8.205 -0.5921  0.6023 -0.7467
 6656TIP3    H241604   3.089   2.009   8.302 -2.9584 -1.3150 -0.3006
 6657TIP3   OH241605   1.103   4.176   1.573 -0.2019 -0.3164 -0.1110
 6657TIP3    H141606   1.155   4.103   1.538  1.1170 -0.2025  1.4752
 6657TIP3    H241607   1.066   4.142   1.655  0.5139  0.7962  0.7011
 6658TIP3   OH241608   1.315   4.764   1.947 -0.1697  0.0014  0.3933
 6658TIP3    H141609   1.361   4.705   1.887 -0.2413  0.3695 -0.0319
 6658TIP3    H241610   1.328   4.726   2.033  1.3947  0.3719  0.3501
 6659TIP3   OH241611   4.238   5.419   6.289 -0.4605 -0.6920  0.5177
 6659TIP3    H141612   4.188   5.485   6.241 -0.9822  0.1542  2.1832
 6659TIP3    H241613   4.270   5.464   6.367  1.7104 -1.6135  0.2293
 6660TIP3   OH241614   3.125   6.360   6.530 -0.2875 -0.0838  0.0180
 6660TIP3    H141615   3.148   6.282   6.479 -1.0254  0.7455 -1.6594
 6660TIP3    H241616   3.198   6.420   6.516 -0.6886  0.3077 -0.4433
 6661TIP3   OH241617   6.803   1.169   7.966 -0.6274  0.1538 -0.9466
 6661TIP3    H141618   6.719   1.134   7.936 -0.3004 -0.7723 -0.7973
 6661TIP3    H241619   6.816   1.131   8.053  0.1808 -0.0972 -1.1722
 6662TIP3   OH241620   3.272   5.923   7.278 -0.2708 -0.4240 -0.1198
 6662TIP3    H141621   3.207   5.943   7.210 -1.6795  1.2258  1.6253
 6662TIP3    H241622   3.243   5.839   7.314 -0.7258 -0.3031 -0.1890
 6663TIP3   OH241623   1.401   2.229   0.995 -0.5504 -0.2482 -0.1885
 6663TIP3    H141624   1.381   2.310   1.042  0.1266  0.7752 -1.5992
 6663TIP3    H241625   1.411   2.256   0.904  0.7682 -1.7392 -0.5341
 6664TIP3   OH241626   5.166   2.417   0.416 -0.3713 -0.0189  0.3550
 6664TIP3    H141627   5.096   2.449   0.473 -1.8800  0.3754 -1.6160
 6664TIP3    H241628   5.212   2.351   0.469 -3.3671 -1.6310  1.1446
 6665TIP3   OH241629   5.814   5.102   7.231  0.3440  0.7097  0.2455
 6665TIP3    H141630   5.785   5.088   7.141 -0.7127 -0.7323  0.7850
 6665TIP3    H241631   5.893   5.049   7.239  0.1701  0.4604  0.3076
 6666TIP3   OH241632   2.000   0.162   7.742  0.4314  0.1905  1.0209
 6666TIP3    H141633   2.068   0.183   7.805  0.0916  1.5501  0.9668
 6666TIP3    H241634   2.009   0.228   7.673 -0.3891 -0.1304  0.5857
 6667TIP3   OH241635   6.350   2.158   7.270  0.0871  0.2513  0.1178
 6667TIP3    H141636   6.386   2.173   7.183 -0.4346  0.6186 -0.0385
 6667TIP3    H241637   6.287   2.087   7.257 -0.3021  0.5936  0.1091
 6668TIP3   OH241638   0.225   5.151   7.887  0.0433 -0.2316  0.0372
 6668TIP3    H141639   0.206   5.236   7.925 -0.9583  0.9521 -2.8570
 6668TIP3    H241640   0.320   5.146   7.885  0.1385 -0.1858  2.1785
 6669TIP3   OH241641   2.101   3.879   7.273 -0.4347 -0.3194  0.2415
 6669TIP3    H141642   2.121   3.968   7.300  2.0486 -1.4161  2.4441
 6669TIP3    H241643   2.037   3.848   7.337 -0.9798 -0.2825 -0.2732
 6670TIP3   OH241644   2.768   2.367   6.980 -0.0585  0.0367  0.0577
 6670TIP3    H141645   2.816   2.352   7.062  0.7826  0.0038 -0.4220
 6670TIP3    H241646   2.780   2.461   6.963  0.0853 -0.0309 -0.2138
 6671TIP3   OH241647   6.885   1.288   1.427 -0.0591  0.0448  0.1368
 6671TIP3    H141648   6.922   1.364   1.471 -0.6780  1.1100 -1.1036
 6671TIP3    H241649   6.957   1.226   1.421  0.7557  0.9659  0.2374
 6672TIP3   OH241650   0.534   2.013   2.430  0.4125 -0.3381 -0.3567
 6672TIP3    H141651   0.608   2.056   2.472  0.4550  1.3332 -1.9980
 6672TIP3    H241652   0.473   2.084   2.409 -1.1348 -1.5289 -0.1158
 6673TIP3   OH241653   4.736   2.835   2.076 -0.1827  0.0895 -0.0678
 6673TIP3    H141654   4.793   2.758   2.069 -0.1647  0.0861  0.1004
 6673TIP3    H241655   4.651   2.800   2.102  0.1586  0.2391  1.3315
 6674TIP3   OH241656   6.557   0.130   7.942 -0.3237 -0.0665  0.4190
 6674TIP3    H141657   6.631   0.179   7.979 -0.8571 -0.0595  1.5019
 6674TIP3    H241658   6.564   0.145   7.847  1.8865 -1.2100  0.3353
 6675TIP3   OH241659   1.739   1.673   6.925  0.8297  0.0623 -0.2329
 6675TIP3    H141660   1.726   1.584   6.894  0.9996 -0.2521  0.5740
 6675TIP3    H241661   1.663   1.721   6.891 -0.4808 -0.8943  1.1617
 6676TIP3   OH241662   0.663   4.488   7.593 -0.2010 -0.2894  0.2502
 6676TIP3    H141663   0.750   4.504   7.557  0.0318  0.3926  1.0658
 6676TIP3    H241664   0.629   4.414   7.543  1.4717 -1.6139  0.9380
 6677TIP3   OH241665   3.140   4.956   7.205  0.2510 -0.3289 -0.1878
 6677TIP3    H141666   3.078   4.943   7.278 -3.1662  0.0699 -2.7595
 6677TIP3    H241667   3.152   4.868   7.170 -1.4779 -0.0941 -1.5263
 6678TIP3   OH241668   0.967   2.158   0.942  0.2790 -0.4734 -0.0846
 6678TIP3    H141669   0.990   2.066   0.958 -0.1383 -0.9188 -1.7803
 6678TIP3    H241670   0.882   2.153   0.898  1.2170  0.5771 -2.1144
 6679TIP3   OH241671   3.219   2.780   7.625  0.8299  0.1448  0.3674
 6679TIP3    H141672   3.274   2.721   7.677  1.9071 -1.8942 -2.7595
 6679TIP3    H241673   3.207   2.734   7.542 -2.3831  2.2996 -0.5617
 6680TIP3   OH241674   6.590   6.877   1.596 -0.1338  0.1985  0.7533
 6680TIP3    H141675   6.665   6.830   1.634  0.4615 -0.5790 -1.2903
 6680TIP3    H241676   6.514   6.825   1.623  0.2436 -0.2171  1.0397
 6681TIP3   OH241677   0.103   1.359   1.024 -0.3310 -0.5945  0.0724
 6681TIP3    H141678   0.151   1.439   1.044 -0.9574 -0.1243 -0.2713
 6681TIP3    H241679   0.015   1.374   1.059  0.0397 -1.8918  1.7368
 6682TIP3   OH241680   3.126   5.148   0.633 -0.0572  0.3326  0.5973
 6682TIP3    H141681   3.211   5.176   0.666  0.1068  0.7822 -0.1818
 6682TIP3    H241682   3.095   5.084   0.697  2.3903 -2.4830 -0.7719
 6683TIP3   OH241683   4.186   0.668   0.278 -0.0612  0.1706 -0.5744
 6683TIP3    H141684   4.269   0.709   0.252  0.8137 -0.2392  1.4032
 6683TIP3    H241685   4.201   0.638   0.368 -1.2430 -2.9052 -1.2809
 6684TIP3   OH241686   3.328   6.281   8.509 -0.5695  0.2385 -0.0775
 6684TIP3    H141687   3.245   6.319   8.482 -1.9301 -3.2613 -1.3905
 6684TIP3    H241688   3.375   6.265   8.427  1.0657  1.3359  0.5908
 6685TIP3   OH241689   1.363   2.475   2.429  0.0969 -0.5719  0.5809
 6685TIP3    H141690   1.359   2.418   2.506 -0.7440 -1.2417  0.0621
 6685TIP3    H241691   1.401   2.557   2.462 -0.8913 -0.5927  1.8633
 6686TIP3   OH241692   6.712   1.062   1.306 -0.2371 -0.1879  0.4115
 6686TIP3    H141693   6.780   1.110   1.352 -0.4396  0.7146 -0.2177
 6686TIP3    H241694   6.631   1.084   1.353 -0.2165 -0.5897  0.6401
 6687TIP3   OH241695   3.181   2.566   7.423  0.3377 -0.5111 -0.6100
 6687TIP3    H141696   3.140   2.569   7.336 -0.8049  0.4030 -0.0751
 6687TIP3    H241697   3.160   2.480   7.457  0.4690 -0.7348 -1.0769
 6688TIP3   OH241698   6.063   6.266   8.005  0.3454  0.4827 -0.4681
 6688TIP3    H141699   6.078   6.212   8.082 -0.1255 -0.7580 -1.2325
 6688TIP3    H241700   6.102   6.351   8.028 -0.7939  0.5227  1.5707
 6689TIP3   OH241701   5.026   5.230   1.736  0.0297  0.4091 -0.0995
 6689TIP3    H141702   4.930   5.225   1.738  0.0234  0.7750  0.8159
 6689TIP3    H241703   5.052   5.237   1.828  1.0038 -0.7507 -0.2633
 6690TIP3   OH241704   6.711   3.363   6.937  0.1452  0.2782 -0.2285
 6690TIP3    H141705   6.666   3.445   6.957 -0.0078  0.5390 -1.5275
 6690TIP3    H241706   6.666   3.329   6.859  2.5667  0.9214 -2.0547
 6691TIP3   OH241707   5.476   1.314   8.022  0.3103 -0.2204  0.1706
 6691TIP3    H141708   5.454   1.266   7.943  1.0990  2.0485 -1.5499
 6691TIP3    H241709   5.526   1.253   8.076  0.6358 -1.5263 -1.5490
 6692TIP3   OH241710   4.815   0.749   1.042  0.1403 -0.3253  0.0844
 6692TIP3    H141711   4.802   0.749   1.136 -1.5148  2.2097 -0.0504
 6692TIP3    H241712   4.834   0.658   1.020  3.0830 -0.6479  3.1197
 6693TIP3   OH241713   3.207   4.827   1.545  0.3494 -0.6175 -0.5908
 6693TIP3    H141714   3.115   4.810   1.525 -1.0751  2.0282  2.7600
 6693TIP3    H241715   3.226   4.770   1.619  1.7912 -1.7600 -1.7661
 6694TIP3   OH241716   6.199   4.882   6.911  0.0436 -0.0449 -0.0106
 6694TIP3    H141717   6.166   4.825   6.980  0.7637  0.6833  0.9434
 6694TIP3    H241718   6.293   4.888   6.927 -0.2637  3.0529  1.1920
 6695TIP3   OH241719   2.626   1.722   7.884 -0.4381  0.3544 -0.1723
 6695TIP3    H141720   2.592   1.763   7.804 -1.4430 -0.5914 -0.2712
 6695TIP3    H241721   2.609   1.628   7.871 -1.1769  0.2282  1.3849
 6696TIP3   OH241722   4.920   0.723   7.070 -0.1758  0.5639  0.5653
 6696TIP3    H141723   4.901   0.675   6.990 -2.2791 -1.7069  2.2523
 6696TIP3    H241724   4.898   0.814   7.050 -3.0574 -0.3112 -0.8323
 6697TIP3   OH241725   4.484   1.229   6.536 -0.8321 -0.8387  0.0051
 6697TIP3    H141726   4.431   1.169   6.483 -1.6458  0.2225 -0.4405
 6697TIP3    H241727   4.447   1.315   6.517 -1.5124 -0.4373  2.6829
 6698TIP3   OH241728   5.043   6.273   1.240  0.7882  0.0441 -0.4402
 6698TIP3    H141729   5.018   6.331   1.168  0.8781  0.2017 -0.3446
 6698TIP3    H241730   5.079   6.195   1.197  0.9515  0.1868 -0.5651
 6699TIP3   OH241731   3.548   1.240   2.444 -0.1408 -0.2877 -0.8237
 6699TIP3    H141732   3.596   1.175   2.495 -0.7045 -0.0362  0.0625
 6699TIP3    H241733   3.591   1.241   2.359  1.0942 -0.4284 -0.2263
 6700TIP3   OH241734   1.227   3.320   7.357 -0.1073 -0.2166  0.0753
 6700TIP3    H141735   1.243   3.400   7.307  0.1888 -0.1362  0.2946
 6700TIP3    H241736   1.224   3.251   7.291  1.8857 -0.3461  0.0499
 6701TIP3   OH241737   5.254   1.984   1.641 -0.3281 -0.2666  0.1269
 6701TIP3    H141738   5.280   1.893   1.626  0.3804 -0.2648  1.2141
 6701TIP3    H241739   5.272   2.028   1.558  1.6778 -0.6326  0.3186
 6702TIP3   OH241740   4.001   2.012   7.853  0.2651 -0.2098  0.1079
 6702TIP3    H141741   4.078   2.017   7.797  0.8458 -4.5021  0.1916
 6702TIP3    H241742   4.032   2.039   7.939  1.6020 -1.4168  0.0368
 6703TIP3   OH241743   3.587   3.695   1.011 -0.6004  0.2922 -0.5038
 6703TIP3    H141744   3.562   3.787   1.013  2.9337  1.3880  1.2069
 6703TIP3    H241745   3.656   3.687   1.076 -1.6678 -3.9347  0.4510
 6704TIP3   OH241746   4.892   0.222   1.759 -0.0498 -0.2863 -0.0706
 6704TIP3    H141747   4.887   0.127   1.768 -0.2555 -0.2290  0.4649
 6704TIP3    H241748   4.912   0.253   1.848  1.3941  0.0715 -0.4929
 6705TIP3   OH241749   5.125   4.203   8.379  0.3238  0.2189  0.0618
 6705TIP3    H141750   5.109   4.259   8.454  0.9604  0.1639  0.2418
 6705TIP3    H241751   5.138   4.116   8.415  1.7616  0.3875  0.0010
 6706TIP3   OH241752   3.837   4.583   4.696 -0.5090  0.2872 -0.8322
 6706TIP3    H141753   3.801   4.644   4.761 -2.0153  0.5419 -1.8416
 6706TIP3    H241754   3.850   4.636   4.618 -1.5062 -0.5902 -1.6165
 6707TIP3   OH241755   2.466   0.616   6.492 -0.2577  0.3694 -0.3519
 6707TIP3    H141756   2.503   0.690   6.443 -1.8755  1.0522 -0.6213
 6707TIP3    H241757   2.378   0.605   6.455  0.3737 -2.5830 -1.2591
 6708TIP3   OH241758   5.808   0.713   8.049  0.1947 -0.1583  0.4314
 6708TIP3    H141759   5.826   0.648   8.117  0.4745 -1.2587 -0.6627
 6708TIP3    H241760   5.713   0.712   8.039  0.3047 -1.9800 -1.0221
 6709TIP3   OH241761   2.418   1.926   1.602  0.1022  0.1902 -0.1921
 6709TIP3    H141762   2.441   2.014   1.572  1.3011  0.3530  1.0659
 6709TIP3    H241763   2.469   1.915   1.682 -0.9840 -1.1882  0.3457
 6710TIP3   OH241764   3.829   4.960   0.053  0.5696 -0.1721 -0.0686
 6710TIP3    H141765   3.792   5.048   0.064  0.3997 -0.0070 -1.7009
 6710TIP3    H241766   3.901   4.972  -0.009  0.5259 -1.1977 -0.3364
 6711TIP3   OH241767   3.930   4.414   0.183  0.1145  0.1372 -0.0144
 6711TIP3    H141768   3.838   4.417   0.160 -0.1166 -0.8886  0.7129
 6711TIP3    H241769   3.963   4.334   0.142  0.7630  0.6543 -0.5297
 6712TIP3   OH241770   4.263   4.656   0.580  0.2146  0.2530 -0.1597
 6712TIP3    H141771   4.278   4.605   0.659 -1.1191  0.4904  0.2619
 6712TIP3    H241772   4.236   4.591   0.515 -1.4409  0.3732  0.3652
 6713TIP3   OH241773   4.385   2.174   0.375 -0.5944 -0.9527 -0.3536
 6713TIP3    H141774   4.309   2.135   0.419  0.4343 -1.7173  0.8295
 6713TIP3    H241775   4.455   2.167   0.440  0.4166  0.0051 -1.3133
 6714TIP3   OH241776   0.119   3.720   1.337  0.0809  0.4096  0.7588
 6714TIP3    H141777   0.215   3.730   1.341  0.1745 -0.5053  1.1921
 6714TIP3    H241778   0.089   3.743   1.425  0.0804 -0.8589  1.1063
 6715TIP3   OH241779   6.808   0.062   0.465 -0.2492 -0.5147 -0.0452
 6715TIP3    H141780   6.845   0.133   0.519  0.1554 -0.8847  0.1694
 6715TIP3    H241781   6.724   0.042   0.506  0.0980 -0.8541  0.4973
 6716TIP3   OH241782   3.085   0.844   1.132  0.1212  0.0781 -0.2107
 6716TIP3    H141783   3.142   0.784   1.180  0.2258 -0.0212 -0.4596
 6716TIP3    H241784   3.143   0.915   1.103  0.2196 -0.2784 -0.9027
 6717TIP3   OH241785   4.525   3.478   0.655  0.0159  0.6142  0.0649
 6717TIP3    H141786   4.516   3.386   0.679  1.3390  0.3901 -0.2642
 6717TIP3    H241787   4.522   3.479   0.560 -2.4428  1.2142  0.0601
 6718TIP3   OH241788   0.981   4.887   7.520  0.0247 -0.3732 -0.3447
 6718TIP3    H141789   0.939   4.893   7.605  1.9441  1.3123  0.5683
 6718TIP3    H241790   0.926   4.826   7.470 -1.1754 -1.3837  2.0474
 6719TIP3   OH241791   5.089   1.516   7.865 -0.4587 -0.5944  0.0195
 6719TIP3    H141792   5.081   1.432   7.910  1.8253 -1.5142 -1.1494
 6719TIP3    H241793   5.125   1.575   7.932 -2.0088 -0.5013  0.8253
 6720TIP3   OH241794   4.914   6.505   2.067  0.0277 -0.0812  0.1254
 6720TIP3    H141795   4.983   6.438   2.068 -0.2203 -0.3351  1.5528
 6720TIP3    H241796   4.844   6.466   2.014  0.6395 -0.1546 -0.6496
 6721TIP3   OH241797   0.092   1.983   0.678 -0.0438  0.1166  0.1940
 6721TIP3    H141798   0.144   2.041   0.622  0.0820  0.1931  0.3884
 6721TIP3    H241799   0.124   1.895   0.658 -0.9135  0.0098 -0.8259
 6722TIP3   OH241800   5.169   1.116   7.791  0.3603  0.0987  0.7118
 6722TIP3    H141801   5.202   1.073   7.871  1.6698 -0.6297 -0.1872
 6722TIP3    H241802   5.247   1.131   7.738 -0.7319 -2.8102 -2.0610
 6723TIP3   OH241803   6.662   0.924   2.062  0.1097  0.0448 -0.1327
 6723TIP3    H141804   6.600   0.996   2.054 -2.3572 -1.8185  0.7492
 6723TIP3    H241805   6.728   0.956   2.124 -1.5352  1.1940  1.1350
 6724TIP3   OH241806   2.216   2.035   0.244  0.3436 -0.0860 -0.3143
 6724TIP3    H141807   2.256   1.987   0.317 -1.1259 -1.5625 -0.4228
 6724TIP3    H241808   2.227   1.977   0.169 -0.2401  0.3734 -0.7630
 6725TIP3   OH241809   1.229   2.341   8.608 -0.2730 -0.4058  0.0507
 6725TIP3    H141810   1.228   2.332   8.513 -0.3621 -0.9404  0.0980
 6725TIP3    H241811   1.275   2.423   8.624  0.3508 -0.6590 -0.4304
 6726TIP3   OH241812   0.248   0.850   0.174 -0.1178 -0.1153 -0.3127
 6726TIP3    H141813   0.266   0.855   0.268  1.3968 -0.4201 -0.5676
 6726TIP3    H241814   0.245   0.941   0.146  1.5533 -0.0387 -0.3292
 6727TIP3   OH241815   4.134   1.135   0.156  0.0059 -0.1842  0.3761
 6727TIP3    H141816   4.189   1.200   0.201  0.0940 -0.5981  0.8739
 6727TIP3    H241817   4.061   1.119   0.216  0.5341 -1.3284  0.7341
 6728TIP3   OH241818   2.043   4.306   0.467  0.0794 -0.1536  0.3009
 6728TIP3    H141819   2.062   4.298   0.561  0.7268 -3.2198  0.0083
 6728TIP3    H241820   1.955   4.342   0.463 -0.2436 -0.6405  2.1197
 6729TIP3   OH241821   1.313   0.126   2.119  0.1672  0.1245 -0.2733
 6729TIP3    H141822   1.370   0.068   2.068  0.0394  1.0078 -1.4558
 6729TIP3    H241823   1.345   0.118   2.209  2.4097  0.8553 -0.9358
 6730TIP3   OH241824   5.790   5.048   7.629  0.3089  0.1278 -0.4736
 6730TIP3    H141825   5.794   4.969   7.575  2.1290 -0.1480  0.0238
 6730TIP3    H241826   5.718   5.031   7.690 -0.1752 -0.5690 -1.2103
 6731TIP3   OH241827   6.355   5.315   1.829 -0.3323  0.1890 -0.7760
 6731TIP3    H141828   6.277   5.344   1.875  0.1436  1.1641 -0.5716
 6731TIP3    H241829   6.357   5.220   1.842 -1.2250  0.2206 -0.3936
 6732TIP3   OH241830   1.525   0.404   1.583 -0.5456 -0.4964 -0.2952
 6732TIP3    H141831   1.593   0.395   1.516  0.2882 -0.4502  0.5191
 6732TIP3    H241832   1.463   0.467   1.546  0.8017  0.8605 -0.3444
 6733TIP3   OH241833   1.103   5.363   0.739 -0.0050 -0.1382  0.2187
 6733TIP3    H141834   1.067   5.437   0.689 -1.2453 -1.0742 -0.3378
 6733TIP3    H241835   1.168   5.325   0.680  1.5400  1.2006  0.9895
 6734TIP3   OH241836   4.018   1.630   0.413  0.0923 -0.0951  0.0309
 6734TIP3    H141837   4.113   1.640   0.409  0.0997  1.5264  2.3529
 6734TIP3    H241838   4.001   1.592   0.500 -1.3622 -0.8772 -0.5514
 6735TIP3   OH241839   2.432   2.841   1.380 -0.2846  0.3845  0.2494
 6735TIP3    H141840   2.454   2.933   1.394  2.2100  0.0462 -0.8498
 6735TIP3    H241841   2.473   2.795   1.453 -1.6940  0.1397  0.9034
 6736TIP3   OH241842   1.724   1.368   6.565 -0.6363 -0.2855  0.2382
 6736TIP3    H141843   1.784   1.390   6.494  0.2636  0.1625  1.1199
 6736TIP3    H241844   1.746   1.277   6.587 -1.3430 -0.6363 -0.4561
 6737TIP3   OH241845   2.257   6.649   7.716 -0.6131  0.3805 -0.0063
 6737TIP3    H141846   2.205   6.672   7.639  0.0697 -1.2749 -1.0017
 6737TIP3    H241847   2.334   6.604   7.681  1.3170  2.3109  1.4592
 6738TIP3   OH241848   0.916   6.713   8.056  0.7255 -0.3269  0.0081
 6738TIP3    H141849   0.957   6.795   8.086  2.3373 -0.8254 -0.7063
 6738TIP3    H241850   0.977   6.679   7.991 -1.4158 -0.5523 -1.9966
 6739TIP3   OH241851   4.402   6.262   2.123 -0.4560  0.1716  0.0141
 6739TIP3    H141852   4.345   6.243   2.049 -0.5595  1.1880 -0.1754
 6739TIP3    H241853   4.398   6.183   2.177 -4.5871  1.2599  1.6787
 6740TIP3   OH241854   4.032   2.343   1.986  0.3235 -0.4138  0.5865
 6740TIP3    H141855   4.006   2.265   2.035  0.6815 -0.5447  0.5764
 6740TIP3    H241856   4.043   2.411   2.052  0.0642 -0.3886  0.6020
 6741TIP3   OH241857   0.258   3.555   7.333 -0.2438 -0.2193  0.8785
 6741TIP3    H141858   0.330   3.507   7.292  0.0887  1.0992 -0.1527
 6741TIP3    H241859   0.302   3.624   7.383 -0.7475 -0.3341  1.4876
 6742TIP3   OH241860   1.105   4.858   8.451 -0.3365 -0.5561 -0.0205
 6742TIP3    H141861   1.081   4.765   8.447 -4.4980  0.2893  0.4367
 6742TIP3    H241862   1.127   4.880   8.360  0.8396 -1.9873 -0.1119
 6743TIP3   OH241863   2.021   6.588   2.040  0.0428 -0.3836  0.5219
 6743TIP3    H141864   2.087   6.563   2.105 -0.5945 -0.8368  1.0061
 6743TIP3    H241865   1.938   6.578   2.085 -0.4497 -1.1531 -0.4936
 6744TIP3   OH241866   1.957   2.839   2.415  0.6047  0.7408  0.5884
 6744TIP3    H141867   1.913   2.890   2.347 -2.7258  0.2458  2.1693
 6744TIP3    H241868   1.950   2.894   2.493  2.3073  0.3336  1.0523
 6745TIP3   OH241869   5.167   3.449   8.140 -0.0666  0.6339  0.1687
 6745TIP3    H141870   5.126   3.534   8.126 -3.3503 -0.8722 -0.3904
 6745TIP3    H241871   5.199   3.423   8.054  0.1750  0.9190  0.1697
 6746TIP3   OH241872   4.489   3.436   8.580 -0.3011 -0.1577  0.1250
 6746TIP3    H141873   4.569   3.419   8.531 -0.6454 -1.3159 -0.0509
 6746TIP3    H241874   4.502   3.394   8.664  0.1683  1.5795  0.9667
 6747TIP3   OH241875   2.536   3.427   6.261 -0.4386 -0.2207  0.0419
 6747TIP3    H141876   2.450   3.469   6.264 -0.6590 -0.7405  1.4282
 6747TIP3    H241877   2.591   3.490   6.215 -1.0122  1.1255  1.1225
 6748TIP3   OH241878   0.801   0.365   1.015  0.0767 -0.1753 -0.0767
 6748TIP3    H141879   0.738   0.318   0.961  0.3641  0.0709 -0.6309
 6748TIP3    H241880   0.759   0.448   1.034  1.8555  1.9429 -4.1281
 6749TIP3   OH241881   1.422   0.103   0.923  0.1528  0.2320 -0.2815
 6749TIP3    H141882   1.449   0.194   0.940 -1.4770  1.0144 -1.5356
 6749TIP3    H241883   1.327   0.104   0.935  0.1181 -1.3230 -0.2905
 6750TIP3   OH241884   3.267   2.396   0.545 -0.7135 -0.3247  0.2395
 6750TIP3    H141885   3.218   2.420   0.624  0.0433  2.2841  0.0020
 6750TIP3    H241886   3.279   2.478   0.498 -0.3501 -1.6512 -2.1922
 6751TIP3   OH241887   4.441   1.996   0.161  1.1667 -0.2298  0.2374
 6751TIP3    H141888   4.431   2.042   0.244  0.7024 -0.5478  0.3577
 6751TIP3    H241889   4.369   2.028   0.107 -0.0797 -1.8949  0.8225
 6752TIP3   OH241890   4.781   1.909   8.277 -0.2331 -0.0086  0.4244
 6752TIP3    H141891   4.688   1.901   8.254  0.0754 -0.1102 -0.8253
 6752TIP3    H241892   4.811   1.987   8.231  0.1856  0.3378  1.2619
 6753TIP3   OH241893   2.984   2.363   1.714  0.4879  0.0145 -0.1767
 6753TIP3    H141894   2.999   2.424   1.642  0.2607 -0.4163 -0.5995
 6753TIP3    H241895   2.895   2.330   1.699  1.2478 -1.7940 -1.0198
 6754TIP3   OH241896   0.251   1.091   2.288  0.1285 -0.2237  0.5354
 6754TIP3    H141897   0.298   1.072   2.207 -0.7642  1.6167 -0.4954
 6754TIP3    H241898   0.278   1.180   2.311 -0.8140 -0.1376  1.4069
 6755TIP3   OH241899   5.182   1.354   2.451 -0.2713 -0.0458 -0.0943
 6755TIP3    H141900   5.173   1.409   2.530  0.8833  0.3603 -0.2267
 6755TIP3    H241901   5.098   1.309   2.444 -1.8201  2.6636 -0.7147
 6756TIP3   OH241902   6.200   3.387   0.845  0.5792  0.2713  0.0016
 6756TIP3    H141903   6.270   3.366   0.906  1.0299 -0.3615 -0.7165
 6756TIP3    H241904   6.135   3.317   0.858  0.3546  0.5207  0.2384
 6757TIP3   OH241905   3.539   5.787   1.043 -0.3210 -0.0669  0.6568
 6757TIP3    H141906   3.551   5.765   0.950  0.1451  2.8321 -0.0765
 6757TIP3    H241907   3.550   5.703   1.089  0.5256 -1.4182 -1.8023
 6758TIP3   OH241908   0.220   5.331   1.102  0.1798  0.2492  0.3809
 6758TIP3    H141909   0.258   5.250   1.068  1.1094  1.3963 -1.4468
 6758TIP3    H241910   0.133   5.305   1.133 -0.2310 -1.1648 -1.7302
 6759TIP3   OH241911   2.789   0.393   7.450 -0.1360  0.1191  0.9079
 6759TIP3    H141912   2.856   0.451   7.414  1.2349 -2.2235 -0.6149
 6759TIP3    H241913   2.713   0.406   7.393  0.9090 -1.1043 -0.8842
 6760TIP3   OH241914   6.341   3.243   8.156  0.3550  0.2658 -0.0705
 6760TIP3    H141915   6.353   3.167   8.099 -2.9793 -1.0865  0.7537
 6760TIP3    H241916   6.360   3.319   8.099  1.8588 -1.0943 -1.4903
 6761TIP3   OH241917   6.179   2.339   0.276 -0.6140  0.4098 -0.0117
 6761TIP3    H141918   6.129   2.281   0.218 -0.8580  0.3166  0.2874
 6761TIP3    H241919   6.190   2.288   0.356 -1.5676  1.0828  0.5714
 6762TIP3   OH241920   2.238   2.955   8.430  0.2494 -0.5631  0.4131
 6762TIP3    H141921   2.145   2.964   8.409  0.2777  0.2350  0.5946
 6762TIP3    H241922   2.267   2.881   8.376 -0.6539 -1.3233  0.9271
 6763TIP3   OH241923   2.450   4.583   1.108  0.0009  0.4122  0.2049
 6763TIP3    H141924   2.419   4.647   1.173  1.7254  0.2149  1.2921
 6763TIP3    H241925   2.417   4.615   1.025 -2.7562  0.3934  1.1996
 6764TIP3   OH241926   2.029   1.291   7.846 -0.4726  0.2229 -0.3309
 6764TIP3    H141927   1.976   1.365   7.876  0.6599  0.3778  1.5025
 6764TIP3    H241928   2.003   1.218   7.903  1.6985  0.4997  1.1565
 6765TIP3   OH241929   2.702   0.441   6.511  0.5648  0.5201 -0.1223
 6765TIP3    H141930   2.626   0.499   6.504 -0.1927 -0.4197  0.1080
 6765TIP3    H241931   2.765   0.491   6.564 -0.4320  0.7782  0.8630
 6766TIP3   OH241932   6.113   1.804   1.137 -0.0635 -0.3303  0.3771
 6766TIP3    H141933   6.074   1.826   1.222  0.8278 -1.2693  1.0555
 6766TIP3    H241934   6.070   1.723   1.110  1.2058 -1.2685  1.0383
 6767TIP3   OH241935   3.251   3.764   0.789 -0.0766 -0.0911 -0.0105
 6767TIP3    H141936   3.253   3.682   0.838 -0.2866 -0.0254  0.1085
 6767TIP3    H241937   3.176   3.756   0.731 -0.1624  0.0614  0.0777
 6768TIP3   OH241938   0.807   5.790   6.667 -0.0148  0.1925 -0.1078
 6768TIP3    H141939   0.784   5.863   6.610 -1.6303 -0.2207 -0.0507
 6768TIP3    H241940   0.748   5.719   6.640  0.1496 -0.4482  1.1284
 6769TIP3   OH241941   5.436   3.489   2.510 -0.2638  0.2759 -0.4954
 6769TIP3    H141942   5.458   3.467   2.601 -0.0363  0.3024 -0.5421
 6769TIP3    H241943   5.449   3.584   2.506  0.5532  0.1596 -0.7763
 6770TIP3   OH241944   2.756   3.615   8.309 -0.0850 -0.0401  0.1618
 6770TIP3    H141945   2.720   3.550   8.370 -0.4549 -0.2021 -0.2241
 6770TIP3    H241946   2.841   3.638   8.347  0.4511 -1.4097 -0.1464
 6771TIP3   OH241947   6.813   4.138   7.230  0.1462 -0.1854  0.2494
 6771TIP3    H141948   6.810   4.049   7.265 -3.4079  0.3534  1.6471
 6771TIP3    H241949   6.860   4.188   7.297  0.1230 -0.5648  0.5554
 6772TIP3   OH241950   4.509   4.017   2.441  0.5929  0.0876  0.3209
 6772TIP3    H141951   4.431   4.011   2.495 -0.8854 -2.9478 -1.8726
 6772TIP3    H241952   4.479   3.997   2.352  3.6554  0.1217 -0.8566
 6773TIP3   OH241953   0.888   6.362   7.667  0.3077  0.1006  0.1581
 6773TIP3    H141954   0.885   6.457   7.657  0.7125  0.0794 -0.2289
 6773TIP3    H241955   0.813   6.341   7.723  0.0273  0.6136 -0.0138
 6774TIP3   OH241956   2.450   0.917   8.572 -0.2011  0.1402 -0.2318
 6774TIP3    H141957   2.517   0.861   8.530 -1.9219 -1.6459 -0.7640
 6774TIP3    H241958   2.480   0.926   8.662  1.1943  0.0986 -0.6670
 6775TIP3   OH241959   1.310   5.356   1.075  0.0889  0.2948  0.2423
 6775TIP3    H141960   1.397   5.376   1.039 -0.0699  3.2584  1.2814
 6775TIP3    H241961   1.301   5.261   1.062  2.5245  0.2246 -1.9093
 6776TIP3   OH241962   5.910   0.897   1.356  0.1880  0.1452 -0.5949
 6776TIP3    H141963   5.903   0.992   1.363  1.2632  0.3353 -1.7020
 6776TIP3    H241964   5.895   0.879   1.263 -2.4363 -1.0419 -0.0346
 6777TIP3   OH241965   2.455   5.356   1.131 -0.2895 -0.0803 -0.2400
 6777TIP3    H141966   2.395   5.342   1.058  1.0486  0.0049 -1.3882
 6777TIP3    H241967   2.517   5.284   1.125  0.9783  0.9842 -0.3933
 6778TIP3   OH241968   2.572   4.582   8.446 -0.3849 -0.2843 -0.5342
 6778TIP3    H141969   2.480   4.559   8.457 -0.9032  1.3044 -1.2272
 6778TIP3    H241970   2.613   4.503   8.410 -1.9753 -0.2970 -2.4708
 6779TIP3   OH241971   4.679   4.565   6.991 -0.4657  0.0182  0.3554
 6779TIP3    H141972   4.603   4.624   6.983 -0.4785  0.1809  1.5611
 6779TIP3    H241973   4.755   4.623   6.987 -0.4891  0.1958  2.0192
 6780TIP3   OH241974   6.872   3.554   1.956  0.3662  0.3817  0.1658
 6780TIP3    H141975   6.830   3.590   1.878  0.9303  2.7558  0.8532
 6780TIP3    H241976   6.960   3.531   1.927  0.3628  0.6351 -0.0458
 6781TIP3   OH241977   0.324   2.279   0.704 -0.3038 -0.2519  0.1725
 6781TIP3    H141978   0.374   2.198   0.690  0.1834 -0.0716  0.8168
 6781TIP3    H241979   0.254   2.276   0.639  0.9501 -0.1852 -1.2422
 6782TIP3   OH241980   1.379   0.225   8.034 -0.7133 -0.2520  0.5933
 6782TIP3    H141981   1.319   0.205   7.962  0.9922 -0.1933 -0.8955
 6782TIP3    H241982   1.443   0.154   8.034 -0.1970  0.1855  1.5222
 6783TIP3   OH241983   2.322   1.732   7.621  0.4897 -0.4338 -0.1902
 6783TIP3    H141984   2.318   1.723   7.716 -0.1696  1.0782 -0.0469
 6783TIP3    H241985   2.365   1.652   7.591  4.0146  0.5199  1.6775
 6784TIP3   OH241986   0.303   5.754   0.794 -0.0341 -0.7347  0.0437
 6784TIP3    H141987   0.268   5.794   0.714  0.4953 -0.7421 -0.1938
 6784TIP3    H241988   0.231   5.759   0.857 -0.2121 -0.0637 -0.2055
 6785TIP3   OH241989   4.135   3.197   0.809 -0.9584 -0.3929 -0.2989
 6785TIP3    H141990   4.112   3.257   0.739  0.7263 -0.4441 -0.9270
 6785TIP3    H241991   4.097   3.113   0.782 -0.7134 -0.3083 -0.9082
 6786TIP3   OH241992   5.101   3.603   0.583 -0.1411 -0.0995  0.2891
 6786TIP3    H141993   5.025   3.562   0.541 -0.0187 -2.3132  2.0334
 6786TIP3    H241994   5.064   3.677   0.632 -1.4604 -1.7312  1.9374
 6787TIP3   OH241995   2.652   1.707   7.533  0.0244  0.1972 -0.8977
 6787TIP3    H141996   2.721   1.739   7.476  0.8109  0.6809  0.2950
 6787TIP3    H241997   2.678   1.617   7.555 -0.0104  0.1888 -0.8903
 6788TIP3   OH241998   2.434   5.042   7.742 -0.0869 -0.0896  0.7621
 6788TIP3    H141999   2.497   5.093   7.691 -0.1409 -1.1234 -0.4015
 6788TIP3    H242000   2.371   5.010   7.677  0.4382 -2.3416  1.2791
 6789TIP3   OH242001   4.383   1.994   7.114 -0.5162  0.0259 -0.1616
 6789TIP3    H142002   4.396   1.900   7.129 -2.2778 -0.1553  0.4013
 6789TIP3    H242003   4.373   2.002   7.019  0.1448 -0.2768 -0.2637
 6790TIP3   OH242004   2.500   3.533   0.542 -0.9642 -0.1661  0.2756
 6790TIP3    H142005   2.531   3.443   0.549 -0.6125 -0.0653  0.0347
 6790TIP3    H242006   2.493   3.549   0.447  0.0324  0.4198  0.2899
 6791TIP3   OH242007   3.830   6.771   1.524  0.2571 -0.6094 -0.1290
 6791TIP3    H142008   3.742   6.808   1.513  0.3002  0.5189  2.5151
 6791TIP3    H242009   3.815   6.686   1.565  0.3700 -1.0547 -0.9956
 6792TIP3   OH242010   0.702   0.603   1.270 -0.1050  0.1788 -0.0328
 6792TIP3    H142011   0.667   0.566   1.350  1.4559 -0.6068  0.3253
 6792TIP3    H242012   0.796   0.610   1.286  0.6477 -2.3218 -2.6393
 6793TIP3   OH242013   0.256   5.154   2.132 -0.2415  0.4858  0.2389
 6793TIP3    H142014   0.245   5.219   2.063 -1.5629  0.6476  0.5729
 6793TIP3    H242015   0.188   5.175   2.196  1.8166  1.2033  2.3223
 6794TIP3   OH242016   2.734   0.663   8.019  0.0563 -0.2165 -0.0363
 6794TIP3    H142017   2.760   0.579   7.982  0.0911  0.1354 -0.8178
 6794TIP3    H242018   2.814   0.715   8.020  0.6949 -1.0184  2.9000
 6795TIP3   OH242019   2.306   6.281   8.489 -0.0456 -0.1826  0.5091
 6795TIP3    H142020   2.324   6.280   8.395 -0.9021  4.2431  0.0383
 6795TIP3    H242021   2.392   6.289   8.530  0.2888 -1.3794  0.0607
 6796TIP3   OH242022   2.575   5.326   7.207 -0.1324  0.2043  0.1641
 6796TIP3    H142023   2.603   5.387   7.139  2.2891 -1.3422 -0.3653
 6796TIP3    H242024   2.491   5.291   7.176 -0.0129  0.9631 -1.0640
 6797TIP3   OH242025   2.276   2.954   0.753 -0.1978 -0.1668 -0.1192
 6797TIP3    H142026   2.352   2.926   0.804  1.3114  1.1559 -1.5329
 6797TIP3    H242027   2.248   2.875   0.707  0.5208 -0.6018  0.1731
 6798TIP3   OH242028   0.071   6.594   7.700  0.3251  0.6867  0.5645
 6798TIP3    H142029   0.011   6.631   7.765 -0.4134 -0.0947  0.3482
 6798TIP3    H242030   0.016   6.534   7.649  1.7175 -1.7585  1.7521
 6799TIP3   OH242031   4.217   4.764   6.671  0.4021  0.5061 -0.3358
 6799TIP3    H142032   4.136   4.758   6.722  0.9828  1.8525  0.7877
 6799TIP3    H242033   4.204   4.701   6.600 -0.2672 -1.8161  1.6666
 6800TIP3   OH242034   3.809   6.850   2.031  0.1885  0.0602  0.4057
 6800TIP3    H142035   3.831   6.942   2.044 -0.4824  0.0876  1.5666
 6800TIP3    H242036   3.726   6.839   2.078  0.1462 -1.0833  0.0965
 6801TIP3   OH242037   0.189   4.409   7.919  0.3047  0.4729  0.1191
 6801TIP3    H142038   0.247   4.361   7.861 -0.1186 -0.6071  0.5719
 6801TIP3    H242039   0.244   4.434   7.994  0.0049 -1.4405  1.0474
 6802TIP3   OH242040   3.345   1.759   7.550  0.4220  0.9846 -0.4759
 6802TIP3    H142041   3.266   1.797   7.589 -0.2563 -1.2771  0.4949
 6802TIP3    H242042   3.412   1.771   7.617 -0.0937 -0.5445  0.3513
 6803TIP3   OH242043   0.660   2.861   0.229  0.2774 -0.3372  0.2137
 6803TIP3    H142044   0.699   2.821   0.151 -0.3760 -0.7831  0.1121
 6803TIP3    H242045   0.598   2.925   0.194 -0.6336 -1.1208  0.3388
 6804TIP3   OH242046   0.211   1.836   1.642  0.1628 -0.5617  0.0428
 6804TIP3    H142047   0.229   1.826   1.549 -1.2663  0.5471 -0.3821
 6804TIP3    H242048   0.145   1.905   1.647 -0.6437 -1.3939  1.7913
 6805TIP3   OH242049   1.606   1.988   1.745  0.0340 -0.3086 -0.3803
 6805TIP3    H142050   1.613   1.898   1.776  1.5727 -0.3496 -0.7508
 6805TIP3    H242051   1.572   1.980   1.656 -0.6161 -0.4544 -0.1261
 6806TIP3   OH242052   4.474   2.756   8.617 -0.2917 -0.0391  0.2627
 6806TIP3    H142053   4.394   2.709   8.594 -0.7542  0.1398  1.4543
 6806TIP3    H242054   4.526   2.692   8.666 -0.2191  0.2033  0.5021
 6807TIP3   OH242055   4.962   5.952   0.781 -0.2101 -0.4744 -0.2093
 6807TIP3    H142056   4.948   5.896   0.858 -2.0145 -0.5186 -0.5365
 6807TIP3    H242057   5.045   5.921   0.744 -0.6030 -2.1825  0.2599
 6808TIP3   OH242058   5.796   5.053   2.573  0.2358 -0.2000  0.0599
 6808TIP3    H142059   5.712   5.052   2.619  0.2251  2.2460  0.1862
 6808TIP3    H242060   5.832   5.140   2.589  2.4789 -0.9367 -0.6025
 6809TIP3   OH242061   0.857   4.131   0.611 -0.3722 -1.2928 -0.2324
 6809TIP3    H142062   0.774   4.083   0.600 -1.8191  0.4614  1.9595
 6809TIP3    H242063   0.896   4.093   0.690  0.8520 -1.9271 -1.1056
 6810TIP3   OH242064   0.156   2.189   7.497  0.2305 -0.4139 -0.2543
 6810TIP3    H142065   0.115   2.180   7.584 -0.9187  0.5844 -0.6698
 6810TIP3    H242066   0.129   2.275   7.467  0.3922 -0.8613 -1.7313
 6811TIP3   OH242067   3.887   4.118   1.820 -0.6177  0.1259 -0.1785
 6811TIP3    H142068   3.969   4.137   1.866 -1.7897 -1.6681  2.9790
 6811TIP3    H242069   3.895   4.026   1.794 -1.1394  0.3148 -1.0529
 6812TIP3   OH242070   2.514   1.920   0.784  0.2865  0.6453 -0.1027
 6812TIP3    H142071   2.546   1.838   0.748 -1.8830  0.1223 -0.9965
 6812TIP3    H242072   2.469   1.895   0.864  1.0109  1.2075  0.4961
 6813TIP3   OH242073   5.148   2.863   0.648  0.5297  0.0065 -0.6932
 6813TIP3    H142074   5.063   2.868   0.691  1.0603 -1.0047  0.5665
 6813TIP3    H242075   5.202   2.927   0.693  0.5133  0.4493 -1.3004
 6814TIP3   OH242076   4.415   4.307   0.434 -0.3316  0.3572  0.2121
 6814TIP3    H142077   4.332   4.305   0.481  0.5733  2.0801  2.0795
 6814TIP3    H242078   4.457   4.388   0.463  0.2014  1.8263 -3.9419
 6815TIP3   OH242079   6.374   3.642   1.768 -1.0534 -0.0116 -0.3726
 6815TIP3    H142080   6.279   3.654   1.771 -0.9621  0.6174  0.3955
 6815TIP3    H242081   6.407   3.720   1.724 -0.8925 -0.2366 -0.6542
 6816TIP3   OH242082   3.889   3.309   1.974 -0.3972  0.1403 -0.3344
 6816TIP3    H142083   3.974   3.319   2.017 -0.6663  0.8071  0.0584
 6816TIP3    H242084   3.880   3.389   1.921 -0.8653  0.1740 -0.2103
 6817TIP3   OH242085   0.140   4.872   8.618  0.6080 -0.4623  0.3098
 6817TIP3    H142086   0.106   4.783   8.612  2.0855 -1.0797  0.8070
 6817TIP3    H242087   0.061   4.926   8.630 -0.5322 -1.4073 -2.1966
 6818TIP3   OH242088   1.106   4.566   7.644 -0.6029 -0.2405  0.0770
 6818TIP3    H142089   1.177   4.505   7.628  0.5710  0.7436  1.3192
 6818TIP3    H242090   1.141   4.652   7.621 -0.4580  0.5926  3.0399
 6819TIP3   OH242091   5.736   6.064   7.502 -0.6444 -0.6479 -0.3515
 6819TIP3    H142092   5.820   6.020   7.515  0.7102  2.3093  2.3019
 6819TIP3    H242093   5.741   6.098   7.413  1.2898 -0.0397 -0.0604
 6820TIP3   OH242094   5.582   4.392   1.650 -0.2011 -0.1354  1.0524
 6820TIP3    H142095   5.587   4.451   1.725 -3.0924 -0.9080  1.9874
 6820TIP3    H242096   5.529   4.319   1.681 -0.4588 -1.0761 -1.4086
 6821TIP3   OH242097   3.125   2.498   0.749 -0.3072 -0.0837  0.0606
 6821TIP3    H142098   3.136   2.587   0.716 -0.2268 -0.3856 -0.7322
 6821TIP3    H242099   3.180   2.495   0.827  1.5484 -0.1201 -1.1796
 6822TIP3   OH242100   1.125   6.586   6.953  0.1634 -0.4138 -0.1512
 6822TIP3    H142101   1.080   6.552   6.875 -0.9974 -0.7630  0.6450
 6822TIP3    H242102   1.166   6.667   6.923 -0.7859 -0.2138 -0.9874
 6823TIP3   OH242103   4.442   2.563   1.428 -0.1889 -0.0371  0.3237
 6823TIP3    H142104   4.490   2.512   1.363 -0.5351  0.1686 -0.1007
 6823TIP3    H242105   4.483   2.541   1.511  0.6463  0.1420 -0.0307
 6824TIP3   OH242106   4.710   1.456   1.390 -0.5727  0.4008 -0.4557
 6824TIP3    H142107   4.763   1.519   1.438 -1.0787 -0.1561  0.8764
 6824TIP3    H242108   4.626   1.456   1.436 -0.1731 -2.2122  0.4376
 6825TIP3   OH242109   1.529   1.398   2.016 -0.3068 -0.0539 -0.2883
 6825TIP3    H142110   1.442   1.362   2.002  0.1105 -1.2406  0.0648
 6825TIP3    H242111   1.517   1.463   2.085 -0.8613 -0.3888 -0.0654
 6826TIP3   OH242112   1.569   5.546   1.162  0.5143  0.4649  0.7898
 6826TIP3    H142113   1.640   5.488   1.189  0.0238 -0.1023  0.8866
 6826TIP3    H242114   1.497   5.524   1.221 -0.7784 -1.1979 -1.2673
 6827TIP3   OH242115   4.602   0.467   7.593  0.6466 -0.3015 -0.2787
 6827TIP3    H142116   4.554   0.424   7.523  3.0250 -0.6278 -1.8244
 6827TIP3    H242117   4.557   0.550   7.605 -0.2875 -0.5718 -1.6588
 6828TIP3   OH242118   2.417   4.718   0.131 -0.6290 -0.7338  0.1739
 6828TIP3    H142119   2.342   4.732   0.189 -0.3175 -1.2709  0.7174
 6828TIP3    H242120   2.408   4.628   0.100 -1.2648 -0.1778 -1.3210
 6829TIP3   OH242121   3.356   6.352   7.220  0.1428 -0.1016 -0.0146
 6829TIP3    H142122   3.373   6.374   7.311  1.0728 -1.0118  0.0473
 6829TIP3    H242123   3.420   6.404   7.170  1.6817 -1.8367  0.0708
 6830TIP3   OH242124   1.228   1.808   0.554 -0.0291  0.2460  0.3752
 6830TIP3    H142125   1.189   1.755   0.485  1.2129  0.6373 -0.6645
 6830TIP3    H242126   1.172   1.793   0.630 -0.7282 -1.1452 -0.3741
 6831TIP3   OH242127   4.890   6.067   7.588 -0.2870  0.2858  0.2834
 6831TIP3    H142128   4.873   6.063   7.682  0.8976  0.0211  0.5000
 6831TIP3    H242129   4.871   6.158   7.564  1.8862  1.1044  1.3217
 6832TIP3   OH242130   0.336   5.755   7.289 -0.1829  0.0072  0.7509
 6832TIP3    H142131   0.263   5.815   7.280 -0.8964 -0.8368  0.8249
 6832TIP3    H242132   0.309   5.694   7.358  0.6607 -0.2051  0.9055
 6833TIP3   OH242133   0.371   0.317   1.314 -0.1416 -0.7039 -0.4866
 6833TIP3    H142134   0.431   0.242   1.316  1.1300  0.2960  0.3945
 6833TIP3    H242135   0.299   0.291   1.372  0.1665 -1.3386 -0.3770
 6834TIP3   OH242136   0.243   3.277   0.699  0.1223 -0.1842  0.3898
 6834TIP3    H142137   0.181   3.262   0.627 -0.7337 -1.3225  1.3237
 6834TIP3    H242138   0.273   3.367   0.687 -1.2681  0.1945 -0.4308
 6835TIP3   OH242139   6.472   3.235   2.170 -0.2101  0.0000 -0.0634
 6835TIP3    H142140   6.415   3.196   2.104 -0.2613 -0.6692  0.3729
 6835TIP3    H242141   6.544   3.273   2.119 -1.2842  1.3242 -0.6715
 6836TIP3   OH242142   5.928   1.993   0.512 -0.1057  0.0315  0.0611
 6836TIP3    H142143   5.998   2.050   0.481  0.9068  0.0706  2.2247
 6836TIP3    H242144   5.971   1.908   0.526 -1.0519 -0.6194 -0.8216
 6837TIP3   OH242145   0.782   1.557   7.858  0.2835 -0.0739 -0.5521
 6837TIP3    H142146   0.803   1.477   7.810  0.4028 -0.0364 -0.5628
 6837TIP3    H242147   0.850   1.619   7.832 -0.4769  0.4084 -1.4614
 6838TIP3   OH242148   3.358   0.164   1.327  0.1655 -0.1812  0.1743
 6838TIP3    H142149   3.301   0.088   1.324  0.5927 -0.4921 -1.2892
 6838TIP3    H242150   3.406   0.156   1.409 -1.7964  0.0532  1.4060
 6839TIP3   OH242151   2.043   6.147   7.549  0.0105  0.2178 -0.0530
 6839TIP3    H142152   1.957   6.113   7.577 -0.2488  0.8519 -0.0634
 6839TIP3    H242153   2.094   6.152   7.630  0.6565 -1.8228 -0.2655
 6840TIP3   OH242154   5.099   5.742   0.143  0.0662  0.0549 -0.2589
 6840TIP3    H142155   5.019   5.727   0.193  0.2168 -0.5874 -0.1983
 6840TIP3    H242156   5.072   5.797   0.070 -0.7926 -1.5744 -1.2090
 6841TIP3   OH242157   1.761   2.767   1.146 -0.0692 -0.1893  0.5010
 6841TIP3    H142158   1.823   2.696   1.129  0.5821  0.2411  1.0226
 6841TIP3    H242159   1.814   2.835   1.188 -0.8417  0.2963  0.7009
 6842TIP3   OH242160   2.738   2.847   0.569 -0.5716  0.7080  0.0107
 6842TIP3    H142161   2.767   2.758   0.588 -0.1345  0.7179 -0.5987
 6842TIP3    H242162   2.643   2.845   0.584 -0.5687  0.1281 -0.0573
 6843TIP3   OH242163   2.079   3.499   8.398 -0.0949 -0.2710 -0.5562
 6843TIP3    H142164   2.104   3.590   8.412 -1.0973 -0.0282 -0.2635
 6843TIP3    H242165   2.140   3.467   8.331 -1.2972  1.3477 -2.5440
 6844TIP3   OH242166   4.157   6.295   8.319  0.0498 -0.2033  0.2191
 6844TIP3    H142167   4.102   6.254   8.253  0.0938 -0.4285  0.3195
 6844TIP3    H242168   4.218   6.350   8.270 -0.1091 -0.1405  0.0927
 6845TIP3   OH242169   4.669   2.588   0.062 -0.8030 -0.5069  0.2692
 6845TIP3    H142170   4.630   2.545   0.138 -0.8096  1.2486  1.3102
 6845TIP3    H242171   4.745   2.533   0.040 -0.4969 -0.7713  1.8754
 6846TIP3   OH242172   0.674   3.061   2.125 -0.8667 -0.2747 -0.4127
 6846TIP3    H142173   0.761   3.032   2.097 -0.8774 -0.8223  0.1081
 6846TIP3    H242174   0.679   3.157   2.124 -0.0811 -0.3012  0.1562
 6847TIP3   OH242175   0.078   5.151   7.338  0.6957  0.0374  0.2466
 6847TIP3    H142176   0.049   5.240   7.356 -1.0281 -0.1545 -1.3455
 6847TIP3    H242177   0.017   5.096   7.387  1.5315 -0.3056  0.9336
 6848TIP3   OH242178   0.231   2.546   0.523  0.3893 -0.1372 -0.4053
 6848TIP3    H142179   0.178   2.494   0.462 -0.5906 -0.3004  0.5422
 6848TIP3    H242180   0.230   2.634   0.486  0.4345 -0.3875 -1.0112
 6849TIP3   OH242181   3.122   2.075   1.050 -0.1463  0.4021  0.3818
 6849TIP3    H142182   3.145   1.986   1.023  3.8134  1.9726 -2.2556
 6849TIP3    H242183   3.158   2.083   1.139 -0.1508 -0.4862  0.4726
 6850TIP3   OH242184   1.660   1.086   0.195 -0.4540  0.2125  0.7435
 6850TIP3    H142185   1.714   1.012   0.224  0.8037  0.2736 -1.2351
 6850TIP3    H242186   1.723   1.151   0.164 -1.6123  0.6715 -0.8037
 6851TIP3   OH242187   1.581   6.404   6.183 -0.0187  0.0934 -0.1569
 6851TIP3    H142188   1.674   6.384   6.197 -0.3977 -0.5580  1.6995
 6851TIP3    H242189   1.567   6.486   6.230 -0.1384  0.8480 -1.4655
 6852TIP3   OH242190   6.795   0.893   0.838  0.3347 -0.4471 -0.4770
 6852TIP3    H142191   6.837   0.854   0.915  4.4595 -0.8158 -2.6818
 6852TIP3    H242192   6.786   0.821   0.776  1.1935  0.6519 -1.9236
 6853TIP3   OH242193   6.834   4.072   7.575 -0.4120 -0.3133  0.2269
 6853TIP3    H142194   6.839   4.082   7.670 -1.7113 -3.3931  0.7564
 6853TIP3    H242195   6.758   4.125   7.549 -1.6197 -1.3947  1.3636
 6854TIP3   OH242196   0.573   0.067   7.636  0.2993 -0.3599  0.5151
 6854TIP3    H142197   0.479   0.056   7.626  0.5345 -1.1710 -1.3355
 6854TIP3    H242198   0.609   0.040   7.551  2.0849  1.4093  0.6275
 6855TIP3   OH242199   1.076   1.299   0.046  0.1323  0.1482 -0.2470
 6855TIP3    H142200   1.076   1.266  -0.044  1.1898  0.4056 -0.3502
 6855TIP3    H242201   0.983   1.302   0.070 -0.1549 -0.0598 -1.2784
 6856TIP3   OH242202   3.503   3.747   1.453  0.0647  0.4636 -0.0778
 6856TIP3    H142203   3.526   3.814   1.518 -1.0375  1.5033 -0.7271
 6856TIP3    H242204   3.408   3.743   1.455  0.0917 -0.6154 -0.5404
 6857TIP3   OH242205   0.855   5.364   1.226  0.1771  0.2598 -0.1992
 6857TIP3    H142206   0.797   5.438   1.245 -1.1126 -0.8284  0.2068
 6857TIP3    H242207   0.931   5.404   1.183  1.1434  2.2924  3.0069
 6858TIP3   OH242208   2.953   4.290   8.181  0.2723  0.6591  0.1927
 6858TIP3    H142209   2.905   4.246   8.112 -0.1920  1.8680 -0.2866
 6858TIP3    H242210   3.030   4.235   8.197 -0.7061 -0.7516  0.2330
 6859TIP3   OH242211   3.797   2.935   2.145 -0.3819 -0.3654 -0.1420
 6859TIP3    H142212   3.709   2.942   2.182  0.8677  1.1638  2.8632
 6859TIP3    H242213   3.833   2.855   2.183  0.9279  1.2327  2.1822
 6860TIP3   OH242214   0.850   4.341   7.050 -0.6548 -0.2751  1.0006
 6860TIP3    H142215   0.761   4.359   7.021 -0.8557 -0.2209  1.6444
 6860TIP3    H242216   0.875   4.417   7.101  0.8574  1.1088 -1.5559
 6861TIP3   OH242217   1.303   4.399   7.215  0.1239 -0.3034  0.3451
 6861TIP3    H142218   1.344   4.368   7.135 -1.4854 -0.1661 -0.5620
 6861TIP3    H242219   1.376   4.409   7.277  1.2052 -1.7869 -0.6344
 6862TIP3   OH242220   3.365   5.225   0.709 -0.4657  0.0778 -0.4886
 6862TIP3    H142221   3.368   5.321   0.714  4.0079  0.1407 -0.8933
 6862TIP3    H242222   3.391   5.196   0.796 -1.0076 -0.7774 -0.6025
 6863TIP3   OH242223   0.073   5.712   0.960 -0.2263 -0.0563  0.6203
 6863TIP3    H142224   0.131   5.660   1.016 -0.4501 -1.0819 -0.0716
 6863TIP3    H242225  -0.013   5.704   1.001 -0.0550  0.7524  1.1634
 6864TIP3   OH242226   0.387   3.799   7.363 -0.4560  0.1160 -0.4020
 6864TIP3    H142227   0.311   3.856   7.376 -0.4095  0.2015 -0.5111
 6864TIP3    H242228   0.406   3.804   7.270 -2.1388 -2.1834 -0.9826
 6865TIP3   OH242229   5.693   4.805   7.951 -0.5247  0.4488  0.0154
 6865TIP3    H142230   5.599   4.822   7.947 -0.4768  0.5247 -1.0786
 6865TIP3    H242231   5.704   4.718   7.913 -0.1431  0.4625  0.0853
 6866TIP3   OH242232   6.604   2.581   1.127  0.0807  0.8015  0.1761
 6866TIP3    H142233   6.695   2.609   1.116  0.0507  1.4859  1.5632
 6866TIP3    H242234   6.609   2.509   1.190 -0.0269 -1.3909 -2.1173
 6867TIP3   OH242235   1.155   4.571   8.163 -0.0189 -0.1155  0.4110
 6867TIP3    H142236   1.234   4.568   8.110 -0.8767  0.1623 -0.9170
 6867TIP3    H242237   1.112   4.487   8.145 -0.5812  0.2093  0.2407
 6868TIP3   OH242238   0.954   2.949   0.929  0.1804 -0.0644 -0.2193
 6868TIP3    H142239   1.027   2.889   0.944 -1.0371 -1.6057 -0.2071
 6868TIP3    H242240   0.916   2.919   0.846 -0.9532  0.1544  0.2099
 6869TIP3   OH242241   3.923   1.047   8.202 -0.6384 -0.1486  0.3770
 6869TIP3    H142242   3.885   1.019   8.119  1.5617  0.0181 -0.7765
 6869TIP3    H242243   3.959   1.134   8.184 -0.3329 -0.0086  1.5773
 6870TIP3   OH242244   4.383   2.619   2.829 -0.0591  0.2509 -1.0378
 6870TIP3    H142245   4.445   2.691   2.824 -0.1893  0.3389 -1.4287
 6870TIP3    H242246   4.417   2.553   2.768  0.3749 -0.2660 -0.2491
 6871TIP3   OH242247   5.161   3.692   1.099  0.9970  0.0667 -0.9254
 6871TIP3    H142248   5.226   3.728   1.159 -1.0590  0.0196  1.4956
 6871TIP3    H242249   5.100   3.765   1.084  0.1312 -0.6370 -0.9170
 6872TIP3   OH242250   6.547   3.921   7.833  0.8143 -0.0478 -0.1501
 6872TIP3    H142251   6.568   3.877   7.751  1.6425 -1.6733  0.8916
 6872TIP3    H242252   6.629   3.918   7.883  0.4096  1.2013  0.6328
 6873TIP3   OH242253   5.770   3.131   8.621 -0.2079  0.4783 -0.0416
 6873TIP3    H142254   5.768   3.067   8.692  0.0916 -0.2572 -0.6862
 6873TIP3    H242255   5.851   3.112   8.574 -0.9008  0.2752 -1.1914
 6874TIP3   OH242256   5.296   3.271   0.885 -0.4856  0.1604  0.4249
 6874TIP3    H142257   5.273   3.364   0.883 -2.3590 -0.2648  0.2885
 6874TIP3    H242258   5.369   3.266   0.947  1.3972  2.0204 -1.4649
 6875TIP3   OH242259   1.028   1.543   8.251 -0.1062 -0.1567  0.3874
 6875TIP3    H142260   0.974   1.560   8.329  0.8868  0.0238  1.0469
 6875TIP3    H242261   1.068   1.627   8.231  0.3998 -0.4254  0.2585
 6876TIP3   OH242262   2.858   3.253   7.049 -0.1706  0.4095 -0.4266
 6876TIP3    H142263   2.912   3.323   7.087  0.0245  0.6308 -1.0905
 6876TIP3    H242264   2.833   3.287   6.963 -0.8676  0.0503 -0.3695
 6877TIP3   OH242265   5.351   3.731   7.478 -0.2274  0.9077  0.3584
 6877TIP3    H142266   5.375   3.642   7.452 -0.3650 -0.0138  3.0752
 6877TIP3    H242267   5.261   3.742   7.447 -0.1563  0.1774 -0.1170
 6878TIP3   OH242268   6.646   6.380   0.739  0.6116 -0.3855  0.6168
 6878TIP3    H142269   6.690   6.426   0.668 -0.0403 -0.1093  0.3820
 6878TIP3    H242270   6.713   6.321   0.775  1.6597  1.1721  1.3357
 6879TIP3   OH242271   2.343   5.609   1.180  0.1252 -0.1864 -0.1096
 6879TIP3    H142272   2.273   5.644   1.124 -2.1514 -1.3982  1.7584
 6879TIP3    H242273   2.347   5.516   1.157  1.5102 -0.0416 -0.5223
 6880TIP3   OH242274   1.509   1.370   7.211  0.0019 -0.1337  0.2945
 6880TIP3    H142275   1.568   1.321   7.154 -0.0069  0.0819  0.0944
 6880TIP3    H242276   1.431   1.386   7.156 -0.1835 -0.2979  0.5098
 6881TIP3   OH242277   3.379   6.343   1.555 -0.1668  0.1604  0.4647
 6881TIP3    H142278   3.462   6.385   1.531  0.6172 -1.3438  0.4126
 6881TIP3    H242279   3.353   6.295   1.476  0.3722 -1.6140  1.3061
 6882TIP3   OH242280   0.530   5.937   7.095  0.1095  0.2110  0.7677
 6882TIP3    H142281   0.469   5.882   7.047  2.3931 -1.7868 -0.0258
 6882TIP3    H242282   0.509   5.921   7.187 -0.7195 -0.2533  0.5043
 6883TIP3   OH242283   0.211   6.488   1.462 -0.3860 -0.5688 -0.4732
 6883TIP3    H142284   0.238   6.487   1.553 -2.7291 -2.9219  0.2976
 6883TIP3    H242285   0.182   6.399   1.443  0.5491 -0.3334 -3.7260
 6884TIP3   OH242286   2.110   6.052   0.495  0.3122 -0.0383  0.1695
 6884TIP3    H142287   2.060   6.075   0.417 -0.3226  0.5079  0.7140
 6884TIP3    H242288   2.195   6.094   0.482 -0.9150  3.1375  1.2731
 6885TIP3   OH242289   6.479   6.162   7.859  0.5117  0.1286 -0.5831
 6885TIP3    H142290   6.421   6.088   7.877  1.3162 -0.2706  0.5584
 6885TIP3    H242291   6.459   6.225   7.928  2.9606 -0.9980  1.3895
 6886TIP3   OH242292   3.766   6.494   0.620 -0.2483  0.5433  0.4400
 6886TIP3    H142293   3.762   6.564   0.685  2.5963  1.2382  0.0238
 6886TIP3    H242294   3.839   6.519   0.562 -0.5623 -1.6707 -1.0489
 6887TIP3   OH242295   4.567   2.240   7.518 -0.3720 -0.2082  0.0873
 6887TIP3    H142296   4.533   2.307   7.459 -2.0590 -0.2186  0.9572
 6887TIP3    H242297   4.567   2.160   7.467  0.6641  0.2508 -0.6507
 6888TIP3   OH242298   1.957   0.077   7.239  0.7302  0.3020  0.3681
 6888TIP3    H142299   1.936   0.164   7.275  3.6041  1.5042 -0.5940
 6888TIP3    H242300   1.992   0.095   7.152 -1.0241 -2.1176 -0.9577
 6889TIP3   OH242301   1.714   0.596   8.558 -0.7473 -0.1041  0.5375
 6889TIP3    H142302   1.775   0.541   8.508 -3.1711 -1.8767 -0.6615
 6889TIP3    H242303   1.702   0.549   8.641  1.9819  1.9919  2.3157
 6890TIP3   OH242304   5.772   5.219   1.683  0.0214 -0.3059  0.5764
 6890TIP3    H142305   5.730   5.220   1.769 -0.2153  0.1616  0.4551
 6890TIP3    H242306   5.851   5.166   1.697 -0.7999 -1.5521  0.7036
 6891TIP3   OH242307   1.505   4.868   0.268  0.4056 -0.4943  0.1478
 6891TIP3    H142308   1.412   4.891   0.270  0.4308 -0.0968 -1.5309
 6891TIP3    H242309   1.538   4.893   0.355 -1.6759 -3.6671  2.0500
 6892TIP3   OH242310   1.300   2.582   0.667  0.1958  0.4445 -0.6631
 6892TIP3    H142311   1.256   2.632   0.736 -0.6795  0.9774 -1.5858
 6892TIP3    H242312   1.309   2.644   0.595  1.6846  0.0847 -0.8122
 6893TIP3   OH242313   6.078   2.944   7.240 -0.1558  0.5108 -0.4318
 6893TIP3    H142314   6.062   2.890   7.318  0.7516  0.5655 -0.1876
 6893TIP3    H242315   6.027   2.903   7.171 -2.0527  1.2154  0.4642
 6894TIP3   OH242316   1.140   5.172   7.974 -0.8980 -0.0202 -0.2448
 6894TIP3    H142317   1.083   5.100   7.947 -1.9594  0.8608 -0.4355
 6894TIP3    H242318   1.212   5.169   7.911 -1.5564 -0.1679 -1.0137
 6895TIP3   OH242319   6.136   2.256   1.603 -0.0313  0.1823  0.2230
 6895TIP3    H142320   6.227   2.285   1.590 -0.2978  1.1236  0.4076
 6895TIP3    H242321   6.089   2.335   1.627 -0.7997 -0.4113  0.6929
 6896TIP3   OH242322   2.301   0.609   8.081 -0.4615 -0.0306  0.1246
 6896TIP3    H142323   2.258   0.682   8.035 -0.2982 -0.4227 -0.6589
 6896TIP3    H242324   2.366   0.651   8.137  0.2507  0.3858 -0.9877
 6897TIP3   OH242325   5.412   3.422   8.508 -0.2443  0.5356  0.3032
 6897TIP3    H142326   5.375   3.393   8.425 -0.4484 -2.0130  1.1924
 6897TIP3    H242327   5.507   3.418   8.496 -0.2733 -0.3081  0.3285
 6898TIP3   OH242328   0.232   3.152   7.860 -0.6351  0.6179 -0.3286
 6898TIP3    H142329   0.193   3.109   7.936 -0.1433  1.5195  0.4620
 6898TIP3    H242330   0.326   3.157   7.881 -0.4932  0.8923 -0.9855
 6899TIP3   OH242331   3.297   5.965   8.412  0.3945 -0.3113 -0.4326
 6899TIP3    H142332   3.312   5.999   8.324  0.1256  2.2372  0.4119
 6899TIP3    H242333   3.384   5.959   8.451  0.3340  1.5924  0.0961
 6900TIP3   OH242334   5.875   6.884   7.813  0.0636  0.0548 -0.4315
 6900TIP3    H142335   5.915   6.798   7.820  0.7915  0.2246 -2.0592
 6900TIP3    H242336   5.826   6.882   7.731  0.8687  1.4810 -0.9890
 6901TIP3   OH242337   6.488   2.280   1.201 -0.1511 -0.0354 -0.2626
 6901TIP3    H142338   6.398   2.311   1.188 -0.0122  0.3090 -0.4066
 6901TIP3    H242339   6.505   2.297   1.294  0.2515  1.1991 -0.5470
 6902TIP3   OH242340   2.287   2.145   2.547  0.0843 -0.1967  0.3037
 6902TIP3    H142341   2.317   2.220   2.598  0.4572  0.4973 -0.8906
 6902TIP3    H242342   2.363   2.118   2.496 -0.1704 -1.1210  0.3867
 6903TIP3   OH242343   3.015   2.165   8.329 -0.2791 -0.3356 -0.3475
 6903TIP3    H142344   2.954   2.197   8.396  0.9248  0.1346  0.5719
 6903TIP3    H242345   3.037   2.242   8.277  1.9746  0.3034  1.3481
 6904TIP3   OH242346   0.312   4.298   1.899 -0.2045  0.4163  0.2575
 6904TIP3    H142347   0.352   4.373   1.854  0.2142 -0.4680 -0.9066
 6904TIP3    H242348   0.387   4.245   1.927 -0.4598 -1.1155 -1.6980
 6905TIP3   OH242349   5.452   5.754   0.114 -0.3860 -0.3663  0.5741
 6905TIP3    H142350   5.468   5.844   0.088 -1.0644 -0.3251  0.2879
 6905TIP3    H242351   5.393   5.760   0.189  1.9778 -0.4528  2.5792
 6906TIP3   OH242352   1.431   0.982   6.793  0.4026  0.1517 -0.6593
 6906TIP3    H142353   1.500   0.942   6.739 -0.3300 -0.2347 -1.3366
 6906TIP3    H242354   1.349   0.950   6.754 -0.1686  0.9589 -0.1457
 6907TIP3   OH242355   2.290   6.422   8.127 -0.4104 -0.9626  0.1386
 6907TIP3    H142356   2.385   6.426   8.126 -0.3357 -2.2586 -1.7115
 6907TIP3    H242357   2.269   6.342   8.175 -0.5314 -1.3688 -0.5942
 6908TIP3   OH242358   5.346   6.155   8.501 -0.0207  0.1728  0.2623
 6908TIP3    H142359   5.372   6.203   8.580  0.8777 -0.2569  0.2476
 6908TIP3    H242360   5.425   6.155   8.447 -0.5990  0.3721 -0.6002
 6909TIP3   OH242361   2.404   1.918   0.042 -0.2132  0.5173  0.0070
 6909TIP3    H142362   2.358   1.835   0.052 -0.3375  0.7520  1.5397
 6909TIP3    H242363   2.461   1.905  -0.035 -1.6649 -0.2945 -0.9727
 6910TIP3   OH242364   2.942   1.171   7.489  0.1128  0.3946  0.6298
 6910TIP3    H142365   2.854   1.192   7.458 -0.1218 -1.6167 -0.2455
 6910TIP3    H242366   2.937   1.078   7.513  1.4300  0.8107  2.7204
 6911TIP3   OH242367   4.035   0.676   8.564 -0.5632 -0.3141  0.3916
 6911TIP3    H142368   4.057   0.628   8.484  1.3503  1.3274 -0.1174
 6911TIP3    H242369   3.994   0.756   8.533  2.0110  1.2929  0.8639
 6912TIP3   OH242370   0.095   2.022   7.102  0.2201 -0.1356 -0.0689
 6912TIP3    H142371   0.182   2.051   7.129  0.7147 -1.2203 -0.4082
 6912TIP3    H242372   0.068   2.085   7.036  0.1745  0.9612  0.9781
 6913TIP3   OH242373   2.457   1.597   1.156 -0.1125 -0.2086 -0.0824
 6913TIP3    H142374   2.409   1.609   1.075 -1.9231  0.3730  1.0203
 6913TIP3    H242375   2.547   1.579   1.128 -0.5270  0.6865 -2.1857
 6914TIP3   OH242376   4.153   2.399   7.667  0.3259 -0.5782  0.6103
 6914TIP3    H142377   4.151   2.494   7.669 -0.5351 -0.5442 -0.5306
 6914TIP3    H242378   4.151   2.377   7.573 -0.9628 -1.7212  0.8667
 6915TIP3   OH242379   4.315   0.394   0.749 -0.6610  0.7246 -0.7263
 6915TIP3    H142380   4.273   0.470   0.788 -1.0641  0.8617 -1.4055
 6915TIP3    H242381   4.314   0.328   0.817 -1.3183  0.9671 -0.4984
 6916TIP3   OH242382   2.332   2.124   1.193 -0.6303  0.4035  0.0094
 6916TIP3    H142383   2.317   2.119   1.287 -0.1427  0.8215  0.1160
 6916TIP3    H242384   2.373   2.041   1.170  0.9720  1.0183  0.5107
 6917TIP3   OH242385   5.556   4.200   2.378  0.2643 -0.1512  0.3369
 6917TIP3    H142386   5.499   4.269   2.344  0.0257 -1.0435 -1.2235
 6917TIP3    H242387   5.497   4.141   2.425  0.7319  1.5647  3.2480
 6918TIP3   OH242388   0.168   5.808   8.416  0.8118 -0.0259  1.1424
 6918TIP3    H142389   0.131   5.730   8.458  0.2605  0.3252  1.3080
 6918TIP3    H242390   0.097   5.871   8.414  0.5167 -0.3336 -1.2080
 6919TIP3   OH242391   5.351   0.240   1.818  0.2326 -0.2460 -0.0304
 6919TIP3    H142392   5.437   0.262   1.782 -0.1739  0.2688 -0.7037
 6919TIP3    H242393   5.369   0.214   1.908  1.0329  0.4127  0.0090
 6920TIP3   OH242394   1.261   1.353   2.018  0.2214 -0.9066  0.0305
 6920TIP3    H142395   1.195   1.416   2.047  0.1717 -1.1719  0.4965
 6920TIP3    H242396   1.230   1.269   2.050  1.1203 -0.9526  0.8538
 6921TIP3   OH242397   6.211   0.095   0.591  0.4695  0.1871  0.3281
 6921TIP3    H142398   6.263   0.138   0.659 -1.0874 -0.7575  2.1941
 6921TIP3    H242399   6.121   0.121   0.609  0.0600  0.6073 -1.9475
 6922TIP3   OH242400   4.551   2.242   1.850 -0.5114  0.3577 -0.7899
 6922TIP3    H142401   4.588   2.246   1.938 -0.1029  2.8397 -1.0040
 6922TIP3    H242402   4.628   2.239   1.792 -0.7614  0.0902 -1.1130
 6923TIP3   OH242403   0.526   1.404   0.549  0.2238  0.0914 -0.0080
 6923TIP3    H142404   0.552   1.494   0.568  0.7465  0.5270 -2.4029
 6923TIP3    H242405   0.435   1.399   0.578  0.2499  1.3468  0.3454
 6924TIP3   OH242406   0.245   6.646   1.257 -0.5522 -0.4718 -0.2725
 6924TIP3    H142407   0.232   6.590   1.333 -1.2744  0.6672  0.4705
 6924TIP3    H242408   0.229   6.735   1.289 -0.2735  0.0913 -1.6136
 6925TIP3   OH242409   5.679   5.441   1.358  0.2812 -0.4183  0.2416
 6925TIP3    H142410   5.598   5.487   1.339 -0.9206 -2.4920  0.0593
 6925TIP3    H242411   5.739   5.468   1.288 -0.5285  0.4596 -0.1324
 6926TIP3   OH242412   4.411   4.755   7.970 -0.1723  0.0025  0.0979
 6926TIP3    H142413   4.339   4.699   7.940 -0.6885  0.0590  1.2170
 6926TIP3    H242414   4.481   4.739   7.906 -0.3289 -1.8754  0.3510
 6927TIP3   OH242415   4.579   0.059   8.070  0.5850  0.6102 -0.3551
 6927TIP3    H142416   4.576   0.038   7.977  0.0091  1.1770 -0.4717
 6927TIP3    H242417   4.640  -0.005   8.107 -0.9510 -1.1914 -0.7256
 6928TIP3   OH242418   6.316   0.067   1.965  0.1093  0.0234 -0.8158
 6928TIP3    H142419   6.258   0.139   1.941 -0.1559  0.0876  0.0198
 6928TIP3    H242420   6.363   0.099   2.042 -3.3732 -2.3593  2.6400
 6929TIP3   OH242421   5.193   6.813   7.345  0.0013 -0.4184 -0.4685
 6929TIP3    H142422   5.286   6.799   7.330  0.5296 -0.5506  2.3210
 6929TIP3    H242423   5.189   6.892   7.398 -1.4424 -0.5419 -0.3474
 6930TIP3   OH242424   1.029   1.213   8.426  0.2282  0.5447  0.1618
 6930TIP3    H142425   0.993   1.229   8.339 -0.3198 -0.6442  0.1405
 6930TIP3    H242426   0.989   1.130   8.453  0.2342  0.9867  1.6232
 6931TIP3   OH242427   6.524   5.909   1.010  0.2690 -0.4017  0.5301
 6931TIP3    H142428   6.544   5.961   1.088 -1.6432 -0.7490  1.3115
 6931TIP3    H242429   6.434   5.878   1.024  0.0273 -0.8327 -1.6257
 6932TIP3   OH242430   4.502   2.056   6.408  0.0475 -0.1121 -0.2648
 6932TIP3    H142431   4.460   2.102   6.480 -0.3901 -0.9628  0.0399
 6932TIP3    H242432   4.595   2.079   6.415  0.1967 -1.0368  1.2580
 6933TIP3   OH242433   6.388   2.661   6.474  0.1387 -0.1741 -0.0852
 6933TIP3    H142434   6.357   2.750   6.489 -0.3215 -0.7269  2.8025
 6933TIP3    H242435   6.313   2.605   6.493  0.1117 -1.2523 -2.8113
 6934TIP3   OH242436   2.147   6.274   0.952  0.5599  0.1485  0.2117
 6934TIP3    H142437   2.091   6.205   0.915  1.7806 -1.4868  1.2745
 6934TIP3    H242438   2.232   6.232   0.965  0.7297  1.1580  3.0465
 6935TIP3   OH242439   4.854   6.296   7.805  0.3658  0.7488 -0.0582
 6935TIP3    H142440   4.869   6.367   7.869  0.6689 -0.0370  0.7656
 6935TIP3    H242441   4.767   6.313   7.770 -0.1831  0.7065  1.2228
 6936TIP3   OH242442   2.185   6.798   1.741  0.4805  0.4796  0.7120
 6936TIP3    H142443   2.259   6.856   1.757  2.0357 -1.3646  0.5974
 6936TIP3    H242444   2.206   6.718   1.789 -0.8865 -0.5055 -0.2468
 6937TIP3   OH242445   6.106   0.933   1.934 -0.2654 -0.2619 -0.4915
 6937TIP3    H142446   6.029   0.928   1.991 -0.9516 -0.4316 -1.4285
 6937TIP3    H242447   6.163   0.996   1.977 -0.0729 -1.5159  1.2193
 6938TIP3   OH242448   6.372   3.833   0.286 -0.4352 -0.1647 -0.0244
 6938TIP3    H142449   6.299   3.893   0.302  0.3760  0.3537  2.0167
 6938TIP3    H242450   6.351   3.756   0.339  1.3640  0.7801  2.2269
 6939TIP3   OH242451   1.246   1.604   1.041 -0.4975 -0.2319 -0.6046
 6939TIP3    H142452   1.275   1.519   1.006 -0.6061 -0.6305  0.2567
 6939TIP3    H242453   1.279   1.668   0.978  1.1007 -0.7751 -0.3698
 6940TIP3   OH242454   3.216   4.171   2.172 -0.3105 -0.7842  0.3280
 6940TIP3    H142455   3.210   4.140   2.263  0.9714  0.3191  0.8175
 6940TIP3    H242456   3.310   4.173   2.154 -0.4856  0.3295 -0.5564
 6941TIP3   OH242457   1.456   1.149   0.427  0.5489 -0.2270  0.3887
 6941TIP3    H142458   1.502   1.118   0.349 -0.9251 -0.2474 -0.5097
 6941TIP3    H242459   1.499   1.232   0.449  1.6346 -0.7152  0.1768
 6942TIP3   OH242460   3.291   1.563   0.246 -0.8581 -0.4718  0.7517
 6942TIP3    H142461   3.327   1.561   0.335  1.8026 -0.4260 -0.2212
 6942TIP3    H242462   3.277   1.656   0.228  0.4237 -0.2992  0.5130
 6943TIP3   OH242463   1.810   1.762   1.616  0.5828 -0.2388 -0.2274
 6943TIP3    H142464   1.853   1.843   1.642  0.3522  0.0353 -0.6823
 6943TIP3    H242465   1.824   1.702   1.689  0.1533  0.4376  0.4233
 6944TIP3   OH242466   4.135   1.926   0.418  0.3398 -0.3504 -0.5936
 6944TIP3    H142467   4.174   1.904   0.503  0.0365  2.2050  0.2958
 6944TIP3    H242468   4.040   1.923   0.433  0.2747  2.2314 -0.1584
 6945TIP3   OH242469   3.071   6.646   1.901 -0.0124  0.2707  0.1711
 6945TIP3    H142470   3.101   6.571   1.952  0.6293  0.2823 -0.1815
 6945TIP3    H242471   3.021   6.699   1.964  0.6148  0.1976  0.7440
 6946TIP3   OH242472   0.409   2.660   7.654  0.2297 -0.2080  0.7816
 6946TIP3    H142473   0.396   2.566   7.669 -1.7596  0.2566  2.4352
 6946TIP3    H242474   0.429   2.695   7.741  1.5892  0.8617  0.0852
 6947TIP3   OH242475   2.398   0.027   6.272 -0.5847 -0.0808  0.4711
 6947TIP3    H142476   2.452   0.063   6.202 -3.6816  2.9414 -0.6762
 6947TIP3    H242477   2.377  -0.062   6.243  3.4767 -1.4144  1.0065
 6948TIP3   OH242478   2.046   6.640   0.395  0.4181 -0.4455  0.4312
 6948TIP3    H142479   2.114   6.686   0.346  0.6320  0.8073  1.8164
 6948TIP3    H242480   2.069   6.547   0.388  0.8815 -0.2432 -1.1237
 6949TIP3   OH242481   5.582   5.422   7.528 -0.4163 -0.1774  0.5526
 6949TIP3    H142482   5.522   5.419   7.453 -0.2967 -2.6567  0.4597
 6949TIP3    H242483   5.651   5.358   7.506 -0.6332 -1.3462  2.9324
 6950TIP3   OH242484   5.469   6.295   0.080  0.1544  0.0589 -0.3608
 6950TIP3    H142485   5.402   6.265   0.141  1.0332 -2.0704 -0.3490
 6950TIP3    H242486   5.541   6.323   0.136 -0.2922  1.2898 -0.3897
 6951TIP3   OH242487   0.891   1.342   7.678  0.0619 -0.0619 -0.4411
 6951TIP3    H142488   0.950   1.417   7.673  1.1274 -0.4281  3.3577
 6951TIP3    H242489   0.912   1.290   7.601  0.3173  2.7563 -2.4154
 6952TIP3   OH242490   2.335   6.099   6.689 -0.0324  0.1125  0.4602
 6952TIP3    H142491   2.367   6.174   6.738 -0.6953 -0.0722  1.2050
 6952TIP3    H242492   2.248   6.081   6.726  0.1455 -1.0571  0.3513
 6953TIP3   OH242493   4.230   6.799   1.762  1.1882  0.3235 -0.2014
 6953TIP3    H142494   4.318   6.807   1.725  0.9493 -1.3351 -1.2403
 6953TIP3    H242495   4.174   6.775   1.688  0.1138 -0.0184  0.6890
 6954TIP3   OH242496   2.656   6.615   1.935  0.2752 -0.6910 -0.2903
 6954TIP3    H142497   2.723   6.562   1.979 -0.0098 -1.6279 -0.9539
 6954TIP3    H242498   2.621   6.672   2.004  1.9011 -0.0172  0.0099
 6955TIP3   OH242499   1.204   3.308   6.995  0.3760  0.3149  0.3659
 6955TIP3    H142500   1.146   3.377   6.964 -0.2036 -0.4183 -0.2134
 6955TIP3    H242501   1.290   3.330   6.958  0.3262  1.0380  0.6744
 6956TIP3   OH242502   5.500   0.288   1.435 -0.2470  0.2077  0.2306
 6956TIP3    H142503   5.586   0.317   1.464 -0.6914  1.9271 -0.0546
 6956TIP3    H242504   5.473   0.355   1.372 -1.2328 -1.0131 -0.6851
 6957TIP3   OH242505   0.447   2.586   0.695 -0.2365 -0.4145 -0.2786
 6957TIP3    H142506   0.497   2.507   0.672 -0.2326 -0.9321  1.3837
 6957TIP3    H242507   0.364   2.576   0.649  0.2773 -0.7251 -1.1623
 6958TIP3   OH242508   4.024   1.452   8.097 -0.7847 -0.0461  0.0384
 6958TIP3    H142509   3.985   1.422   8.180  1.2631 -1.1810  0.6724
 6958TIP3    H242510   4.117   1.460   8.117 -0.0008 -1.7153 -2.5071
 6959TIP3   OH242511   6.365   6.881   1.320  0.5053 -0.7949  0.1369
 6959TIP3    H142512   6.426   6.811   1.347  1.2582 -0.2230 -0.0434
 6959TIP3    H242513   6.389   6.955   1.376 -1.0793 -1.0127  1.1710
 6960TIP3   OH242514   2.231   0.585   2.382 -0.2486 -0.0307 -0.1605
 6960TIP3    H142515   2.298   0.579   2.450 -0.3083 -0.1103 -0.1091
 6960TIP3    H242516   2.169   0.650   2.415 -1.0018 -1.0540  0.4874
 6961TIP3   OH242517   4.437   1.286   7.851  0.6548  0.0607  0.5092
 6961TIP3    H142518   4.416   1.199   7.885  0.1380 -0.1342 -0.2759
 6961TIP3    H242519   4.364   1.341   7.879  1.8239  0.6718  2.5123
 6962TIP3   OH242520   6.845   5.363   0.606 -0.3205  0.0936 -0.6242
 6962TIP3    H142521   6.809   5.445   0.640 -0.7588 -0.0611 -0.7080
 6962TIP3    H242522   6.889   5.323   0.681 -1.7895 -0.5307 -0.0407
 6963TIP3   OH242523   3.130   1.836   1.465  0.0069  0.3370 -0.1080
 6963TIP3    H142524   3.067   1.906   1.447  0.6124  1.5724  2.1631
 6963TIP3    H242525   3.139   1.837   1.561  1.8287 -1.2906 -0.2113
 6964TIP3   OH242526   4.654   5.307   8.597 -0.3632  0.2237  0.1141
 6964TIP3    H142527   4.578   5.296   8.654 -0.3028 -1.3927 -0.0760
 6964TIP3    H242528   4.723   5.341   8.654 -0.5075 -0.6880  0.8427
 6965TIP3   OH242529   0.659   1.671   7.441  0.1319  0.4897 -0.3762
 6965TIP3    H142530   0.652   1.726   7.363 -2.2956 -1.1778 -1.4526
 6965TIP3    H242531   0.676   1.583   7.407 -2.5989 -0.5916  0.7591
 6966TIP3   OH242532   3.112   5.181   7.058  0.6538  0.2741  0.5264
 6966TIP3    H142533   3.139   5.111   7.117  1.3363  0.4203  0.3913
 6966TIP3    H242534   3.034   5.147   7.014  1.5280 -0.7836 -0.2328
 6967TIP3   OH242535   4.316   3.887   1.134 -0.5056 -0.1730 -0.0684
 6967TIP3    H142536   4.393   3.831   1.144 -0.6222 -0.1542  1.0085
 6967TIP3    H242537   4.285   3.902   1.223 -0.8319  1.1229 -0.3764
 6968TIP3   OH242538   0.328   3.265   2.375  0.3244 -0.1593 -0.6261
 6968TIP3    H142539   0.247   3.215   2.381  1.0829 -1.3356  0.2291
 6968TIP3    H242540   0.325   3.324   2.451  0.8812 -1.1888  0.2254
 6969TIP3   OH242541   6.490   6.399   8.339 -0.3626  0.4901  0.3835
 6969TIP3    H142542   6.396   6.383   8.338 -0.2252 -0.7646 -2.2702
 6969TIP3    H242543   6.524   6.334   8.400 -1.1518  0.4774  0.8205
 6970TIP3   OH242544   5.038   6.452   1.716 -0.1615 -0.1681  0.0337
 6970TIP3    H142545   5.053   6.394   1.791  2.7293  0.3818 -0.0109
 6970TIP3    H242546   5.093   6.528   1.733 -1.4386  1.1734 -1.4540
 6971TIP3   OH242547   6.053   2.634   1.011 -0.1417 -0.7769  0.1767
 6971TIP3    H142548   6.145   2.661   1.016 -0.6979  1.1495  0.8127
 6971TIP3    H242549   6.018   2.682   0.935 -0.9890 -0.2836  0.8656
 6972TIP3   OH242550   0.817   4.433   0.690 -0.0139  0.2179  0.4718
 6972TIP3    H142551   0.768   4.354   0.668 -0.9710  0.6763  0.9087
 6972TIP3    H242552   0.850   4.416   0.778  0.3073  0.0589  0.3222
 6973TIP3   OH242553   4.164   1.571   8.438 -0.2832 -0.2961 -0.8598
 6973TIP3    H142554   4.128   1.656   8.413  0.4211  0.1698 -0.3123
 6973TIP3    H242555   4.258   1.586   8.448 -0.3790 -0.6659  1.0743
 6974TIP3   OH242556   4.917   1.612   0.325  0.1210 -0.5026  0.4421
 6974TIP3    H142557   4.873   1.529   0.310 -0.1353 -0.0692 -1.4536
 6974TIP3    H242558   4.860   1.678   0.285  1.4578  0.2958 -0.2727
 6975TIP3   OH242559   5.970   3.000   0.451  0.2993 -0.1110 -0.0898
 6975TIP3    H142560   5.983   3.028   0.360 -1.1874 -1.3359 -0.7156
 6975TIP3    H242561   6.048   2.947   0.471  1.3298  1.3383 -0.1314
 6976TIP3   OH242562   0.045   5.089   1.789 -0.4064  0.1276 -0.3340
 6976TIP3    H142563   0.129   5.077   1.745 -1.5706 -2.0019 -2.1568
 6976TIP3    H242564   0.063   5.066   1.880  1.2015  0.7896 -0.4478
 6977TIP3   OH242565   2.848   3.023   7.595  0.2965 -0.2390  0.0601
 6977TIP3    H142566   2.803   2.939   7.610  0.0256 -0.6895 -2.7097
 6977TIP3    H242567   2.941   3.002   7.605  0.2536 -0.9916 -0.9711
 6978TIP3   OH242568   2.835   6.036   8.542 -0.9638 -0.3363 -0.2943
 6978TIP3    H142569   2.879   5.962   8.502 -0.7771 -0.1689 -0.4008
 6978TIP3    H242570   2.791   6.000   8.619  0.5536 -0.2562  0.6513
 6979TIP3   OH242571   0.221   3.653   7.696 -0.3488 -0.1785 -0.5212
 6979TIP3    H142572   0.211   3.596   7.773  0.4096 -1.4181 -1.3091
 6979TIP3    H242573   0.134   3.692   7.684 -0.8141 -0.9514  0.2196
 6980TIP3   OH242574   4.027   3.613   7.013  0.5451 -0.2250  0.0375
 6980TIP3    H142575   4.083   3.674   7.061  1.0392 -0.4238 -0.2826
 6980TIP3    H242576   4.064   3.610   6.925 -0.2161 -0.0480 -0.2902
 6981TIP3   OH242577   5.404   4.300   1.202 -0.0027 -0.4925  0.0049
 6981TIP3    H142578   5.367   4.224   1.158 -0.3533 -0.9122  0.9919
 6981TIP3    H242579   5.453   4.346   1.134 -2.6428  0.3116 -1.5173
 6982TIP3   OH242580   0.585   2.392   1.222 -0.1932  0.3922 -0.6156
 6982TIP3    H142581   0.545   2.305   1.216  0.8715 -0.1439 -0.3517
 6982TIP3    H242582   0.512   2.452   1.229 -0.9561 -0.4924 -0.7864
 6983TIP3   OH242583   2.368   6.340   6.797  0.2967  0.0988  0.4172
 6983TIP3    H142584   2.373   6.431   6.766  0.0032 -0.3761 -1.1057
 6983TIP3    H242585   2.403   6.344   6.886 -0.7675  1.8997  0.8200
 6984TIP3   OH242586   2.042   2.531   1.763 -0.1885  0.5182  0.1654
 6984TIP3    H142587   1.965   2.537   1.707  0.3882  0.8382 -0.6092
 6984TIP3    H242588   2.071   2.621   1.775  0.6624  0.3343 -0.4006
 6985TIP3   OH242589   5.663   4.586   1.197  0.0740  0.1836 -0.1801
 6985TIP3    H142590   5.624   4.546   1.119 -0.3655  1.2685 -0.5292
 6985TIP3    H242591   5.588   4.619   1.247  0.4199  0.3889  0.2098
 6986TIP3   OH242592   5.588   3.717   1.420  0.0359  0.2275 -0.3531
 6986TIP3    H142593   5.679   3.687   1.414  0.2017  0.4569  0.8280
 6986TIP3    H242594   5.573   3.730   1.513 -0.2376  3.1079 -0.7035
 6987TIP3   OH242595   5.671   6.256   7.708  0.3722 -0.0966 -0.4288
 6987TIP3    H142596   5.576   6.243   7.705  0.0287  2.0920 -3.7322
 6987TIP3    H242597   5.704   6.201   7.637  1.4250  0.2976 -0.2544
 6988TIP3   OH242598   3.133   6.291   2.195 -0.0195 -0.0644  0.7360
 6988TIP3    H142599   3.162   6.209   2.233 -0.2530 -0.6041 -0.2263
 6988TIP3    H242600   3.039   6.294   2.213 -0.0768 -0.1830  0.4647
 6989TIP3   OH242601   1.456   3.600   1.351  0.7849 -0.0755 -0.4432
 6989TIP3    H142602   1.382   3.634   1.301  0.1098  0.1075  0.6664
 6989TIP3    H242603   1.433   3.508   1.368  0.9485 -0.0955 -0.3303
 6990TIP3   OH242604   1.624   0.110   2.209  0.0554  0.0273  0.1946
 6990TIP3    H142605   1.587   0.034   2.164  0.2095  0.1877 -0.2061
 6990TIP3    H242606   1.659   0.074   2.290  0.1771 -0.3411 -0.0169
 6991TIP3   OH242607   0.051   1.935   0.125 -0.3024  0.1356  0.2608
 6991TIP3    H142608   0.093   1.852   0.103 -0.8528 -0.4506  1.3552
 6991TIP3    H242609  -0.041   1.922   0.102 -0.0201  1.2488 -1.6839
 6992TIP3   OH242610   6.259   5.101   1.482 -0.3514 -0.4676 -0.0572
 6992TIP3    H142611   6.252   5.076   1.390  0.7014 -1.6107  0.1452
 6992TIP3    H242612   6.249   5.019   1.530  1.4670 -0.2911  0.7202
 6993TIP3   OH242613   4.733   3.598   6.825 -0.1817  0.0514  0.3002
 6993TIP3    H142614   4.661   3.575   6.766  1.1459  0.0497 -1.4317
 6993TIP3    H242615   4.698   3.669   6.879 -1.7060 -0.4664  0.0344
 6994TIP3   OH242616   3.851   3.086   1.402 -0.3647 -0.2377  0.8959
 6994TIP3    H142617   3.906   3.041   1.466  0.6434  2.7430  2.3062
 6994TIP3    H242618   3.803   3.150   1.454 -1.5110  0.5147 -1.0244
 6995TIP3   OH242619   5.971   0.216   0.701  0.6689 -0.0082  0.5723
 6995TIP3    H142620   5.933   0.260   0.778  0.0214  1.4767 -0.5461
 6995TIP3    H242621   5.902   0.156   0.672 -0.2411  1.4791 -0.4711
 6996TIP3   OH242622   4.776   0.536   1.700 -0.2727  0.5129  1.0902
 6996TIP3    H142623   4.690   0.554   1.662 -0.7629 -0.9264  1.4589
 6996TIP3    H242624   4.769   0.565   1.791  0.2820  2.1665  0.6476
 6997TIP3   OH242625   0.879   1.304   1.152 -0.2375 -0.0618 -0.4382
 6997TIP3    H142626   0.798   1.254   1.146  0.5815 -1.5159  0.1149
 6997TIP3    H242627   0.941   1.256   1.098  0.3395  0.8863 -0.6456
 6998TIP3   OH242628   2.437   6.529   2.168  0.2688  0.4316  0.4391
 6998TIP3    H142629   2.469   6.587   2.237  0.4431 -0.4091  1.0790
 6998TIP3    H242630   2.342   6.533   2.175  0.2851  0.4297  0.6614
 6999TIP3   OH242631   1.517   3.179   1.688 -0.3570  0.1303  0.3954
 6999TIP3    H142632   1.562   3.223   1.760  0.7014 -0.6655  0.2442
 6999TIP3    H242633   1.579   3.112   1.659 -0.4398  0.9447 -1.7816
 7000TIP3   OH242634   0.466   0.732   7.413 -0.2236  0.2824 -0.2646
 7000TIP3    H142635   0.487   0.667   7.346  0.3271  1.1323 -0.9252
 7000TIP3    H242636   0.515   0.703   7.490 -1.1637 -0.9116 -0.0794
 7001TIP3   OH242637   4.315   1.099   7.253 -0.4006  0.6703 -0.9793
 7001TIP3    H142638   4.277   1.177   7.214  1.6614  1.5127 -1.4634
 7001TIP3    H242639   4.395   1.130   7.295 -0.0220 -1.0297 -0.3524
 7002TIP3   OH242640   0.459   4.665   8.118 -0.3463  0.4752  0.8286
 7002TIP3    H142641   0.366   4.685   8.129 -1.0949 -2.3839  0.5263
 7002TIP3    H242642   0.480   4.607   8.191  0.0810 -2.0938 -1.1733
 7003TIP3   OH242643   3.093   1.654   6.835 -0.0708  0.0341  0.8832
 7003TIP3    H142644   3.188   1.668   6.833 -0.3513  2.0779 -0.1443
 7003TIP3    H242645   3.081   1.569   6.793  1.3103 -0.2544  1.0234
 7004TIP3   OH242646   0.419   2.634   1.562  0.0359 -0.4955  0.2265
 7004TIP3    H142647   0.464   2.691   1.623 -1.0852  0.0511  0.5626
 7004TIP3    H242648   0.461   2.651   1.477  0.3195  0.1472  0.4924
 7005TIP3   OH242649   3.467   1.087   7.716 -0.5621 -0.4632  0.0676
 7005TIP3    H142650   3.410   1.164   7.711 -1.2163 -0.9810 -0.6981
 7005TIP3    H242651   3.554   1.120   7.691 -0.6567  0.1866  0.5612
 7006TIP3   OH242652   2.968   3.117   1.529 -0.3486 -0.2233 -0.6597
 7006TIP3    H142653   3.034   3.051   1.506  0.0451 -0.1466  0.2011
 7006TIP3    H242654   2.891   3.067   1.554  0.5651 -0.4797  1.9147
 7007TIP3   OH242655   6.026   5.944   7.913 -0.0038  0.3183  0.1743
 7007TIP3    H142656   5.936   5.936   7.946  0.4241  0.8039  1.5249
 7007TIP3    H242657   6.049   5.856   7.885 -0.2352 -0.2543  1.6697
 7008TIP3   OH242658   3.977   5.997   6.536 -0.3715  0.0964  0.1812
 7008TIP3    H142659   3.972   6.093   6.539 -0.8933  0.3870 -4.0249
 7008TIP3    H242660   4.063   5.978   6.500 -0.5664 -0.9692  0.2453
 7009TIP3   OH242661   2.071   3.241   7.190 -0.3019  0.3680 -0.1376
 7009TIP3    H142662   1.998   3.208   7.243  1.2513 -1.3576  1.0608
 7009TIP3    H242663   2.061   3.197   7.106  0.8024 -2.0125  0.9009
 7010TIP3   OH242664   2.567   2.373   0.469  0.2496  0.4938 -0.7547
 7010TIP3    H142665   2.585   2.330   0.552  0.6941  0.1406 -1.0281
 7010TIP3    H242666   2.473   2.360   0.455  0.0868  0.9197 -0.1119
 7011TIP3   OH242667   3.542   0.077   7.880  0.2585 -0.0621 -0.3790
 7011TIP3    H142668   3.513  -0.013   7.895  2.1170 -0.7353 -0.5685
 7011TIP3    H242669   3.472   0.117   7.829 -0.9171 -1.1771  0.3060
 7012TIP3   OH242670   0.976   6.319   0.359  0.2386 -0.0547 -0.9377
 7012TIP3    H142671   1.038   6.299   0.429 -0.6567 -0.2176 -0.1661
 7012TIP3    H242672   0.977   6.242   0.302  0.6424 -0.1107 -0.8530
 7013TIP3   OH242673   0.449   0.540   0.600  0.0851  0.3785 -0.3997
 7013TIP3    H142674   0.393   0.462   0.598  1.4925 -0.6860  0.1248
 7013TIP3    H242675   0.404   0.600   0.660 -0.9515 -0.0608 -0.7089
 7014TIP3   OH242676   0.598   6.692   7.997  0.3378  0.2941  0.1992
 7014TIP3    H142677   0.614   6.762   7.933  0.5384 -0.8248 -1.0238
 7014TIP3    H242678   0.683   6.647   8.005  0.4665  0.7633  1.7108
 7015TIP3   OH242679   3.689   2.684   1.093 -0.2541  0.1659  1.0913
 7015TIP3    H142680   3.731   2.755   1.141  0.2902  0.6815 -0.0966
 7015TIP3    H242681   3.616   2.726   1.047 -0.2827 -0.1461  0.8486
 7016TIP3   OH242682   3.974   2.943   1.588  0.1134 -0.4168  0.2112
 7016TIP3    H142683   4.025   2.863   1.579  0.4647 -0.5249  2.5483
 7016TIP3    H242684   3.896   2.916   1.636 -2.3902 -0.2837 -3.3509
 7017TIP3   OH242685   5.010   5.722   8.350 -0.6487  0.4276  0.9781
 7017TIP3    H142686   5.075   5.683   8.409  0.2625 -2.5564 -1.7023
 7017TIP3    H242687   5.061   5.747   8.273 -2.2005  1.5901  0.2833
 7018TIP3   OH242688   6.467   6.882   0.489 -0.1136  0.3010 -0.0723
 7018TIP3    H142689   6.416   6.871   0.409  0.0441 -0.7728 -0.0382
 7018TIP3    H242690   6.403   6.903   0.557 -0.4049 -0.1717 -0.2023
 7019TIP3   OH242691   4.044   5.087   8.553  0.3912 -0.4627  0.0052
 7019TIP3    H142692   4.099   5.019   8.516 -1.5990 -0.7706 -2.6518
 7019TIP3    H242693   4.001   5.128   8.478 -1.5486  1.0192  1.7810
 7020TIP3   OH242694   6.608   1.177   0.207  0.5827  0.2124  0.2404
 7020TIP3    H142695   6.673   1.235   0.167  0.4443 -0.4191 -0.9377
 7020TIP3    H242696   6.660   1.108   0.248  0.6998  0.4133  0.4301
 7021TIP3   OH242697   1.174   0.234   7.322 -0.0842  0.5957  0.7183
 7021TIP3    H142698   1.160   0.166   7.388  1.3755 -0.1237  0.3381
 7021TIP3    H242699   1.146   0.315   7.364 -0.3697 -0.0197  1.7526
 7022TIP3   OH242700   1.689   1.254   7.033 -0.3388 -0.7954 -0.4351
 7022TIP3    H142701   1.777   1.257   7.071  0.5570 -2.1011 -2.2015
 7022TIP3    H242702   1.691   1.320   6.964 -1.4892  0.6286  0.8435
 7023TIP3   OH242703   4.504   4.845   0.778  0.2205  0.2915  0.0401
 7023TIP3    H142704   4.452   4.911   0.824  0.6438 -0.1591  1.1804
 7023TIP3    H242705   4.448   4.818   0.705 -1.3222 -0.4314  1.4283
 7024TIP3   OH242706   6.063   0.992   1.658  0.3066  0.1893 -0.2411
 7024TIP3    H142707   6.078   0.962   1.748  0.3076 -2.3808 -1.0216
 7024TIP3    H242708   5.969   1.011   1.655  0.1102 -0.6891  0.0614
 7025TIP3   OH242709   1.065   6.010   6.157  0.6889 -0.4278  0.0578
 7025TIP3    H142710   1.009   5.963   6.219  0.3586 -1.2542 -0.8321
 7025TIP3    H242711   1.022   6.095   6.145 -0.5679 -1.1545 -0.8247
 7026TIP3   OH242712   5.473   2.843   8.622 -0.2586 -0.1038  0.2936
 7026TIP3    H142713   5.406   2.899   8.583  0.3382  0.9200  0.6903
 7026TIP3    H242714   5.473   2.865   8.715  1.0466  0.3981  0.2035
 7027TIP3   OH242715   2.112   3.260   7.614 -0.1815 -0.3897  0.3211
 7027TIP3    H142716   2.100   3.304   7.530 -2.2820 -2.5091 -0.6228
 7027TIP3    H242717   2.203   3.274   7.637  1.0363 -1.3460 -3.3235
 7028TIP3   OH242718   1.432   0.713   0.982 -0.0024 -0.3350  0.0687
 7028TIP3    H142719   1.380   0.781   0.939 -0.6579 -0.3620  0.8136
 7028TIP3    H242720   1.370   0.642   0.999  1.0967 -2.1628 -2.8068
 7029TIP3   OH242721   2.763   1.151   6.951  0.4085  0.1185 -0.3443
 7029TIP3    H142722   2.783   1.245   6.958  0.8665 -0.0987  2.1410
 7029TIP3    H242723   2.679   1.148   6.905 -0.2789  1.8580  0.6670
 7030TIP3   OH242724   2.025   5.573   1.056  0.0414  0.4053 -0.3649
 7030TIP3    H142725   2.063   5.531   1.133 -2.1742 -2.9643 -0.9181
 7030TIP3    H242726   1.965   5.639   1.092 -0.4634 -0.6577  0.8121
 7031TIP3   OH242727   1.830   4.648   7.069 -0.0634  0.1513 -0.0052
 7031TIP3    H142728   1.758   4.697   7.108 -1.6362 -1.3467 -0.8951
 7031TIP3    H242729   1.824   4.666   6.975 -0.3177 -1.2674 -0.2772
 7032TIP3   OH242730   5.203   2.505   1.490 -0.2048  0.2944 -0.3360
 7032TIP3    H142731   5.231   2.593   1.516 -0.0371  0.3029 -0.5495
 7032TIP3    H242732   5.147   2.476   1.562 -0.1433  0.5184 -0.1969
 7033TIP3   OH242733   4.202   0.693   0.875 -0.2160 -0.0753 -0.5675
 7033TIP3    H142734   4.221   0.722   0.964  0.0213  0.3695 -0.7636
 7033TIP3    H242735   4.135   0.625   0.887  0.9741 -1.1856  0.0845
 7034TIP3   OH242736   2.283   1.045   1.584 -0.1260  0.4431  0.3898
 7034TIP3    H142737   2.235   1.095   1.651  0.6126  1.1928  0.3830
 7034TIP3    H242738   2.235   1.060   1.503 -2.3965 -2.3499  1.0828
 7035TIP3   OH242739   6.464   6.879   6.977  0.2223 -0.6063 -0.8160
 7035TIP3    H142740   6.379   6.836   6.967 -0.5946  0.6949  0.2588
 7035TIP3    H242741   6.460   6.922   7.062  1.5901  0.3001 -1.1726
 7036TIP3   OH242742   3.069   2.161   0.459  0.1122 -0.2574 -0.6238
 7036TIP3    H142743   3.066   2.257   0.457 -2.0547 -0.1899  1.2407
 7036TIP3    H242744   3.160   2.141   0.481 -0.0149  1.5560  2.0530
 7037TIP3   OH242745   5.265   5.472   6.647 -0.5745 -0.0809  0.1544
 7037TIP3    H142746   5.222   5.425   6.575  0.9473 -0.0999 -0.7898
 7037TIP3    H242747   5.329   5.410   6.681 -1.1109  0.0239  1.3871
 7038TIP3   OH242748   2.449   4.751   7.620 -0.1587 -0.0299 -0.7629
 7038TIP3    H142749   2.395   4.760   7.542  0.4287 -1.7142 -1.3955
 7038TIP3    H242750   2.432   4.831   7.670 -1.3460  0.5913 -2.0992
 7039TIP3   OH242751   1.826   4.036   8.243  0.1357  0.2120 -0.2063
 7039TIP3    H142752   1.885   4.055   8.171  0.5108 -1.3511 -0.3382
 7039TIP3    H242753   1.755   3.986   8.204 -1.1274  1.7286  0.0254
 7040TIP3   OH242754   4.684   5.307   7.612  0.7674 -0.2442  0.1409
 7040TIP3    H142755   4.733   5.293   7.693  0.3674 -1.0531  0.2627
 7040TIP3    H242756   4.730   5.377   7.567  0.3081  1.0717  1.6220
 7041TIP3   OH242757   3.647   6.678   6.923  0.0326  0.1676 -0.3266
 7041TIP3    H142758   3.554   6.692   6.902  0.1279 -0.1890 -1.0025
 7041TIP3    H242759   3.693   6.694   6.841  0.2439 -3.1519 -0.9996
 7042TIP3   OH242760   1.627   3.752   1.519 -0.2191 -0.0372 -0.0148
 7042TIP3    H142761   1.549   3.716   1.477  0.2652 -1.7941  0.5001
 7042TIP3    H242762   1.696   3.687   1.502  1.0581  1.3034 -0.1537
 7043TIP3   OH242763   3.088   3.813   7.949  0.0950 -0.3627  0.2359
 7043TIP3    H142764   3.001   3.775   7.963  0.0587  0.1903  1.6778
 7043TIP3    H242765   3.140   3.740   7.914 -1.3878 -0.2151 -2.4944
 7044TIP3   OH242766   3.680   1.564   8.080  0.0423 -0.0145 -0.3846
 7044TIP3    H142767   3.702   1.490   8.138 -0.2327  0.7292  0.7076
 7044TIP3    H242768   3.764   1.607   8.064 -0.1575  1.2870  1.6351
 7045TIP3   OH242769   0.280   2.013   1.966  0.7024  0.0905 -0.6970
 7045TIP3    H142770   0.300   2.078   1.898  1.1133 -1.7969 -2.4835
 7045TIP3    H242771   0.185   2.006   1.965  0.6946  0.2030 -0.9717
 7046TIP3   OH242772   4.649   6.077   1.710 -0.2430  0.0359  0.1212
 7046TIP3    H142773   4.711   6.094   1.781 -1.4219 -0.5130  1.3226
 7046TIP3    H242774   4.613   6.163   1.688 -1.9235 -0.0688  2.1648
 7047TIP3   OH242775   2.489   3.540   1.540 -0.3449  0.1378 -0.0444
 7047TIP3    H142776   2.444   3.465   1.502 -1.3519  0.8439 -0.2587
 7047TIP3    H242777   2.423   3.586   1.591  1.1067 -1.2750  3.4910
 7048TIP3   OH242778   6.189   5.749   8.425 -0.1335  0.1959 -0.3741
 7048TIP3    H142779   6.134   5.741   8.347  1.0685 -0.2728 -1.1978
 7048TIP3    H242780   6.277   5.726   8.396  0.6602  1.5878  0.7555
 7049TIP3   OH242781   6.789   4.626   2.066 -0.4238 -0.2674  0.0336
 7049TIP3    H142782   6.794   4.651   1.973 -3.5625 -0.3251 -0.2679
 7049TIP3    H242783   6.708   4.667   2.097  0.7757  0.1449  2.9311
 7050TIP3   OH242784   1.767   4.999   8.210 -0.6069 -0.0263  0.2923
 7050TIP3    H142785   1.700   4.973   8.273 -0.9667 -0.0261 -0.0902
 7050TIP3    H242786   1.850   4.981   8.255 -0.8561 -0.6315  0.5173
 7051TIP3   OH242787   1.913   3.627   0.613 -0.2159  0.3091 -0.3590
 7051TIP3    H142788   1.934   3.570   0.539  0.2518  1.0546 -0.8063
 7051TIP3    H242789   1.994   3.633   0.663 -0.6899 -0.6974  0.5854
 7052TIP3   OH242790   4.254   0.365   1.202 -0.0872 -0.2094 -0.6952
 7052TIP3    H142791   4.314   0.387   1.130  0.9569  1.6543  0.6443
 7052TIP3    H242792   4.274   0.274   1.223  2.5896  0.4119 -0.1104
 7053TIP3   OH242793   1.160   1.166   0.473  0.5956 -0.5955 -0.5518
 7053TIP3    H142794   1.256   1.175   0.470  0.7433 -1.7411  0.1440
 7053TIP3    H242795   1.143   1.117   0.553 -0.5926 -0.2954 -0.6024
 7054TIP3   OH242796   3.434   0.603   8.609 -0.4531 -0.2720  0.0699
 7054TIP3    H142797   3.480   0.525   8.640  2.4472  1.1721 -0.3138
 7054TIP3    H242798   3.447   0.667   8.679 -1.9653  0.2033 -0.0553
 7055TIP3   OH242799   1.316   2.747   0.449  0.0107 -0.3580 -0.2355
 7055TIP3    H142800   1.285   2.792   0.370  2.0332  1.3838 -0.1212
 7055TIP3    H242801   1.412   2.756   0.446  0.1311  0.0907  2.6016
 7056TIP3   OH242802   5.674   1.766   2.384 -0.3515 -0.1465 -0.1234
 7056TIP3    H142803   5.706   1.694   2.330 -0.3853 -0.3099  0.0720
 7056TIP3    H242804   5.694   1.844   2.334 -1.6053 -0.3602 -1.0088
 7057TIP3   OH242805   0.668   0.393   7.925 -0.3993  0.4727  0.2556
 7057TIP3    H142806   0.693   0.312   7.969  0.2779 -0.3357 -1.5257
 7057TIP3    H242807   0.610   0.438   7.987  1.4546 -0.0026  2.4477
 7058TIP3   OH242808   1.522   1.744   8.372  0.3015  0.0763  0.0172
 7058TIP3    H142809   1.614   1.744   8.399 -0.4818  0.0947  3.0108
 7058TIP3    H242810   1.478   1.800   8.435 -2.4124 -3.2888  1.4123
 7059TIP3   OH242811   0.508   4.089   1.697 -0.5657 -0.0179  0.3211
 7059TIP3    H142812   0.508   4.109   1.790  0.3931 -1.3746  0.6385
 7059TIP3    H242813   0.508   4.175   1.654  1.3797  0.6758  1.5826
 7060TIP3   OH242814   6.598   3.045   1.073  0.0615 -0.5560  0.5619
 7060TIP3    H142815   6.662   3.110   1.044  0.8444 -1.6855 -0.3886
 7060TIP3    H242816   6.651   2.967   1.093 -0.9689 -1.3794  0.1797
 7061TIP3   OH242817   6.653   2.987   8.236 -0.6512  0.3489  0.5463
 7061TIP3    H142818   6.699   2.909   8.205 -0.1807  0.2878  1.3614
 7061TIP3    H242819   6.675   3.055   8.172  0.5008  0.2898  0.8511
 7062TIP3   OH242820   2.127   1.629   8.092  0.0338  0.3952  0.9899
 7062TIP3    H142821   2.135   1.647   7.998  0.3501  0.5458  1.0447
 7062TIP3    H242822   2.064   1.694   8.123 -3.3550 -2.2094  0.1383
 7063TIP3   OH242823   6.919   6.173   8.189 -0.1725  0.4005 -0.3093
 7063TIP3    H142824   6.975   6.213   8.254 -0.5912  1.1222 -0.3820
 7063TIP3    H242825   6.978   6.150   8.117  0.0434  1.0890 -0.3576
 7064TIP3   OH242826   2.869   2.610   0.056  0.0943  0.5595 -0.3433
 7064TIP3    H142827   2.821   2.533   0.084  0.9598 -0.5254 -1.7058
 7064TIP3    H242828   2.873   2.666   0.134  0.7710 -1.4440  1.1352
 7065TIP3   OH242829   3.979   5.373   1.347  0.3742  0.0438 -0.2721
 7065TIP3    H142830   3.992   5.468   1.351 -0.8538  0.2019  0.6722
 7065TIP3    H242831   4.066   5.337   1.326  1.3713  1.2297  1.5522
 7066TIP3   OH242832   5.687   6.306   2.266 -0.0559 -0.1788 -0.1048
 7066TIP3    H142833   5.767   6.337   2.307 -0.1003  0.0439 -0.1851
 7066TIP3    H242834   5.714   6.272   2.181  0.2261 -1.7679  0.5689
 7067TIP3   OH242835   5.016   6.135   0.493  0.0905 -0.0565 -0.2608
 7067TIP3    H142836   5.047   6.162   0.407 -1.4895  0.2144 -0.7820
 7067TIP3    H242837   4.939   6.081   0.475  0.2334 -0.7113  0.9591
 7068TIP3   OH242838   1.586   4.257   7.755 -0.6784 -0.2034 -0.4667
 7068TIP3    H142839   1.586   4.195   7.828 -2.7975 -0.2100 -0.4105
 7068TIP3    H242840   1.550   4.207   7.681  0.7912  0.0029 -1.3652
 7069TIP3   OH242841   0.448   6.661   1.839 -0.0908 -0.1328  0.1775
 7069TIP3    H142842   0.421   6.721   1.909  2.0112 -0.2833  1.1871
 7069TIP3    H242843   0.427   6.709   1.758 -2.9580 -0.1351  0.8177
 7070TIP3   OH242844   5.599   1.397   0.640  0.0159 -0.2099 -0.1239
 7070TIP3    H142845   5.521   1.446   0.614  0.3649  0.2057 -0.4184
 7070TIP3    H242846   5.653   1.461   0.687  0.1505 -0.5077  0.1274
 7071TIP3   OH242847   4.251   0.788   1.701  0.0434  0.0059  0.1623
 7071TIP3    H142848   4.210   0.858   1.753 -0.2320 -0.3989  0.4958
 7071TIP3    H242849   4.291   0.730   1.766  4.1693  2.1083 -0.1755
 7072TIP3   OH242850   1.030   4.921   0.961 -0.4382  0.2041  0.1203
 7072TIP3    H142851   0.953   4.957   0.918 -0.3827  1.3403  0.9572
 7072TIP3    H242852   0.996   4.876   1.038 -0.4238 -0.8605 -0.4748
 7073TIP3   OH242853   4.601   3.398   1.579  0.1995  0.2578 -0.1697
 7073TIP3    H142854   4.642   3.432   1.499  0.1984 -0.1350 -0.3403
 7073TIP3    H242855   4.673   3.361   1.629  0.1507  0.1785 -0.1572
 7074TIP3   OH242856   4.548   0.300   0.242  0.2199  0.0022  0.0087
 7074TIP3    H142857   4.533   0.266   0.331  3.2032 -2.3405 -0.2000
 7074TIP3    H242858   4.482   0.257   0.188 -1.2101  0.9457  0.9401
 7075TIP3   OH242859   0.654   3.475   8.483 -0.3293 -0.2399 -0.0536
 7075TIP3    H142860   0.740   3.436   8.503  0.2319  1.1438  0.3294
 7075TIP3    H242861   0.675   3.559   8.443 -1.5079  0.8906  1.6099
 7076TIP3   OH242862   4.741   0.788   7.414  0.2003  0.4032  0.3540
 7076TIP3    H142863   4.703   0.838   7.342  0.5370  1.7019  1.0245
 7076TIP3    H242864   4.836   0.800   7.404  0.2573  0.4349  0.8903
 7077TIP3   OH242865   3.900   0.091   6.925  0.5562  0.2229  0.7007
 7077TIP3    H142866   3.962   0.129   6.862  1.9044 -1.1383  1.1569
 7077TIP3    H242867   3.940   0.107   7.010 -0.0424 -0.1155  1.0499
 7078TIP3   OH242868   6.502   0.200   0.170  0.1979 -0.0185 -0.3369
 7078TIP3    H142869   6.444   0.276   0.165 -0.1339 -0.1874  0.7938
 7078TIP3    H242870   6.443   0.124   0.164  0.4474 -0.1916 -0.6363
 7079TIP3   OH242871   3.467   3.309   1.759  0.4195 -0.1161  0.4015
 7079TIP3    H142872   3.389   3.267   1.723  1.5306 -1.3649 -0.6738
 7079TIP3    H242873   3.508   3.241   1.812  0.9411  0.4338  0.7147
 7080TIP3   OH242874   3.196   1.052   0.979 -0.5610  0.2174  0.1290
 7080TIP3    H142875   3.277   1.071   0.932 -0.6576 -0.3794 -0.2902
 7080TIP3    H242876   3.180   1.130   1.032 -1.5967  1.8674 -2.4161
 7081TIP3   OH242877   2.772   1.801   6.397 -0.3148 -0.1320  0.3389
 7081TIP3    H142878   2.745   1.879   6.348 -1.4039  0.0190  1.1562
 7081TIP3    H242879   2.819   1.836   6.473  1.0610 -0.3582 -0.3681
 7082TIP3   OH242880   2.238   4.265   8.313  0.2215  0.2831 -0.4830
 7082TIP3    H142881   2.235   4.287   8.220  1.6469  1.8440 -0.2134
 7082TIP3    H242882   2.171   4.198   8.324  0.0744  0.0058 -2.6411
 7083TIP3   OH242883   2.915   4.580   7.552  0.2488  0.6093 -0.0200
 7083TIP3    H142884   2.980   4.514   7.578  0.0039  0.6280  0.6516
 7083TIP3    H242885   2.932   4.655   7.609 -0.0226  0.8163 -0.2074
 7084TIP3   OH242886   2.357   5.444   7.043 -0.5314  0.4480 -0.3942
 7084TIP3    H142887   2.285   5.430   6.981  1.2820  1.1465 -2.7798
 7084TIP3    H242888   2.434   5.459   6.988  1.4729 -0.2333  2.0504
 7085TIP3   OH242889   3.197   1.553   7.772  0.6450 -0.2975 -0.1028
 7085TIP3    H142890   3.215   1.646   7.766  2.1665 -0.6544 -2.3931
 7085TIP3    H242891   3.111   1.542   7.732  0.2564  0.1303  0.5845
 7086TIP3   OH242892   0.950   2.026   0.636  0.3518  0.2375 -0.1559
 7086TIP3    H142893   0.980   1.966   0.567  2.0329  0.0640  0.6735
 7086TIP3    H242894   0.866   2.058   0.604  0.7341 -0.3904 -1.9483
 7087TIP3   OH242895   6.649   2.953   6.983 -0.6782 -0.3602  0.0812
 7087TIP3    H142896   6.722   2.991   6.933 -1.9545  1.4041 -0.5431
 7087TIP3    H242897   6.571   2.983   6.938 -1.8752  0.2375  2.3853
 7088TIP3   OH242898   1.508   0.785   1.651  0.2306 -0.2210 -0.2597
 7088TIP3    H142899   1.601   0.795   1.669  0.8670 -0.4364 -2.9750
 7088TIP3    H242900   1.467   0.862   1.689  1.6312  0.2455  0.3402
 7089TIP3   OH242901   2.311   0.438   7.193 -0.6585 -0.1375 -0.0875
 7089TIP3    H142902   2.394   0.472   7.228 -0.2111  0.3368 -1.5444
 7089TIP3    H242903   2.331   0.347   7.170 -0.0347  0.4176 -1.9135
 7090TIP3   OH242904   1.600   1.728   1.866  0.0753 -0.0825  0.1994
 7090TIP3    H142905   1.643   1.648   1.833  0.6649  0.1201  0.4582
 7090TIP3    H242906   1.650   1.750   1.945 -2.4942 -1.6935  2.4533
 7091TIP3   OH242907   1.763   0.529   1.130  0.7654  0.3095 -0.3279
 7091TIP3    H142908   1.745   0.462   1.064  0.1793 -0.8037  0.8984
 7091TIP3    H242909   1.818   0.593   1.085  1.6856 -1.1890 -1.4658
 7092TIP3   OH242910   6.507   2.844   3.022 -0.7159  0.6573  0.0776
 7092TIP3    H142911   6.543   2.931   3.038  0.1264  0.0472  1.7957
 7092TIP3    H242912   6.428   2.859   2.971 -0.3670  2.3872 -0.0076
 7093TIP3   OH242913   4.839   6.163   1.864 -0.0836 -0.5088 -0.1270
 7093TIP3    H142914   4.811   6.143   1.953 -0.6357  2.4933  0.4874
 7093TIP3    H242915   4.906   6.230   1.874 -2.7837  2.7982 -1.9006
 7094TIP3   OH242916   3.386   2.538   1.096 -0.1946 -0.2729  0.0893
 7094TIP3    H142917   3.448   2.585   1.041 -0.2796  1.7105  1.6051
 7094TIP3    H242918   3.340   2.479   1.035  1.2358  0.2123 -1.5263
 7095TIP3   OH242919   4.412   2.092   7.999  0.1162 -0.5770 -0.0711
 7095TIP3    H142920   4.462   2.172   7.981 -2.0376  0.6286 -1.0326
 7095TIP3    H242921   4.404   2.050   7.913 -2.2236  0.3474 -0.3757
 7096TIP3   OH242922   3.988   0.681   6.552  0.2243 -0.2358 -1.4472
 7096TIP3    H142923   3.944   0.613   6.604  0.6825  0.2439 -0.4024
 7096TIP3    H242924   3.926   0.754   6.550  0.6925  0.2150 -0.4808
 7097TIP3   OH242925   5.719   1.893   7.330  0.5760  0.4386 -0.7652
 7097TIP3    H142926   5.796   1.880   7.385  0.8304  0.7891 -1.0278
 7097TIP3    H242927   5.687   1.981   7.354 -0.7646 -0.3696  0.5743
 7098TIP3   OH242928   2.928   2.917   0.778  0.2432  0.3654 -0.4315
 7098TIP3    H142929   2.851   2.917   0.721  0.3772  1.2893 -0.6299
 7098TIP3    H242930   2.931   3.006   0.813 -1.5422 -0.8685  3.3772
 7099TIP3   OH242931   1.599   1.128   1.990 -0.2575 -0.2743  0.0078
 7099TIP3    H142932   1.593   1.221   2.009 -0.9677 -0.4722  0.8205
 7099TIP3    H242933   1.668   1.096   2.049 -1.1257 -0.5416  0.8974
 7100TIP3   OH242934   2.670   5.391   8.279  0.4792 -0.1732  0.2291
 7100TIP3    H142935   2.605   5.458   8.300  0.5262  0.0485 -0.3104
 7100TIP3    H242936   2.669   5.386   8.183  3.0391  1.6491 -0.0058
 7101TIP3   OH242937   2.842   0.415   7.978  0.1178 -0.2585  0.0453
 7101TIP3    H142938   2.935   0.404   7.962  0.1916 -0.2588  0.4725
 7101TIP3    H242939   2.799   0.371   7.904  0.4611  0.1993 -0.4243
 7102TIP3   OH242940   2.826   0.067   6.995  0.2893 -0.1964  0.2549
 7102TIP3    H142941   2.815   0.157   7.026 -1.7321 -0.6665  1.0408
 7102TIP3    H242942   2.918   0.062   6.969  0.0058  2.7229 -1.8363
 7103TIP3   OH242943   4.227   1.935   1.051 -0.6837 -0.0791 -0.0127
 7103TIP3    H142944   4.257   2.025   1.066 -1.7598  0.5150 -1.2583
 7103TIP3    H242945   4.149   1.926   1.106  0.3032 -0.8017  1.3207
 7104TIP3   OH242946   0.888   0.177   1.829 -0.4334 -0.1940  0.2671
 7104TIP3    H142947   0.955   0.115   1.854 -1.3486 -0.8837  1.0994
 7104TIP3    H242948   0.895   0.248   1.894  1.4766  1.2963 -1.4437
 7105TIP3   OH242949   4.361   6.914   7.372 -0.2416  0.3461 -0.7945
 7105TIP3    H142950   4.429   6.971   7.336  0.6415 -1.4420 -2.1766
 7105TIP3    H242951   4.282   6.968   7.374  0.6867  1.7794 -1.4480
 7106TIP3   OH242952   6.726   4.108   2.452 -0.0991 -0.2994  0.2130
 7106TIP3    H142953   6.682   4.075   2.531 -2.3847  0.3195 -0.7099
 7106TIP3    H242954   6.717   4.203   2.457  0.1012 -0.2293 -0.5651
 7107TIP3   OH242955   1.862   4.378   7.513  0.0892 -0.0435 -0.1965
 7107TIP3    H142956   1.788   4.428   7.481  0.5629  2.1995  1.9415
 7107TIP3    H242957   1.934   4.441   7.517  0.8955 -0.9831  1.9584
 7108TIP3   OH242958   0.809   2.760   2.321  0.0202  0.3725 -0.9370
 7108TIP3    H142959   0.876   2.821   2.353  1.0887 -0.7713 -0.9420
 7108TIP3    H242960   0.783   2.710   2.398  0.7132 -0.6116 -1.3195
 7109TIP3   OH242961   5.845   2.357   1.307 -0.5163  0.7467  0.0518
 7109TIP3    H142962   5.880   2.353   1.218 -1.5297  0.1587 -0.3265
 7109TIP3    H242963   5.921   2.382   1.361  0.3361  0.1526 -0.8362
 7110TIP3   OH242964   0.120   0.304   1.145 -0.1749 -0.0527 -0.0708
 7110TIP3    H142965   0.191   0.265   1.196  0.0433 -1.9338 -1.6994
 7110TIP3    H242966   0.163   0.348   1.073 -0.6025 -0.5244 -0.6274
 7111TIP3   OH242967   5.179   2.165   7.728 -0.1933 -0.0440  0.3021
 7111TIP3    H142968   5.168   2.077   7.766 -1.1056  0.8415  2.2442
 7111TIP3    H242969   5.177   2.151   7.634 -0.6524 -2.0842  0.5689
 7112TIP3   OH242970   0.871   3.876   1.884  0.2516  0.1453 -0.4439
 7112TIP3    H142971   0.914   3.812   1.828 -0.1379  1.8056 -2.8020
 7112TIP3    H242972   0.931   3.888   1.958  1.9011 -0.5100 -1.6224
 7113TIP3   OH242973   6.396   2.823   6.737 -0.2759  0.0791 -0.2748
 7113TIP3    H142974   6.426   2.875   6.663  1.5743  2.7912  2.1209
 7113TIP3    H242975   6.301   2.818   6.727 -0.0529  0.1152 -2.8873
 7114TIP3   OH242976   4.179   4.844   7.148 -0.1051 -0.2599  0.4239
 7114TIP3    H142977   4.272   4.828   7.161 -0.0669 -0.7013 -0.2974
 7114TIP3    H242978   4.151   4.893   7.225  0.3116 -1.7368  1.5520
 7115TIP3   OH242979   2.708   6.343   1.750 -0.2755  0.1764 -0.3112
 7115TIP3    H142980   2.720   6.333   1.844 -1.9826  1.4698  0.1124
 7115TIP3    H242981   2.740   6.432   1.732 -1.2982  0.4903 -0.6471
 7116TIP3   OH242982   6.383   6.347   2.801  0.3182  0.3292  0.5394
 7116TIP3    H142983   6.418   6.263   2.829 -2.3198 -1.2946 -0.6000
 7116TIP3    H242984   6.360   6.334   2.709  0.1082  2.4018  0.2490
 7117TIP3   OH242985   4.280   2.348   1.504 -0.4950 -0.3534  0.6379
 7117TIP3    H142986   4.314   2.423   1.456 -0.4804 -0.4802  0.4495
 7117TIP3    H242987   4.195   2.330   1.464  0.1189 -1.3328 -0.2907
 7118TIP3   OH242988   1.017   1.334   8.070  0.2279 -0.5144  0.3773
 7118TIP3    H142989   0.936   1.298   8.108 -0.4209 -0.7761 -1.1582
 7118TIP3    H242990   1.039   1.408   8.125 -0.3861 -1.1713  1.5439
 7119TIP3   OH242991   2.313   6.441   7.375  0.3960 -0.4947  0.6080
 7119TIP3    H142992   2.381   6.394   7.327  1.1560  0.1859  1.0036
 7119TIP3    H242993   2.356   6.470   7.455  0.5258  2.5012 -0.4410
 7120TIP3   OH242994   0.614   2.842   1.624  0.6096  0.6291  0.3357
 7120TIP3    H142995   0.609   2.896   1.703 -1.2787 -0.0944  0.7849
 7120TIP3    H242996   0.581   2.899   1.554  1.8258  1.1151  0.1444
 7121TIP3   OH242997   0.101   1.898   7.539  0.0786 -0.0797 -0.3024
 7121TIP3    H142998   0.113   1.990   7.517  3.4946 -0.0923  0.7959
 7121TIP3    H242999   0.115   1.851   7.457  2.3910  0.2955 -0.1883
 7122TIP3   OH243000   0.924   3.603   1.002 -1.0648 -0.0772 -0.3574
 7122TIP3    H143001   0.970   3.519   1.004  0.8748  0.9240  0.6380
 7122TIP3    H243002   0.994   3.668   0.995 -2.1081  1.6519  3.0274
 7123TIP3   OH243003   5.984   6.457   1.100  0.8805  0.3200  0.0754
 7123TIP3    H143004   5.904   6.491   1.140  1.2505  1.3349 -0.0147
 7123TIP3    H243005   5.961   6.368   1.073  0.0095  0.3394  0.7020
 7124TIP3   OH243006   2.934   5.186   1.129 -0.2317 -0.3773  0.6636
 7124TIP3    H143007   2.945   5.277   1.100  2.1674 -0.9498 -0.4509
 7124TIP3    H243008   2.976   5.134   1.061 -1.9415 -2.4166  1.0486
 7125TIP3   OH243009   5.999   0.613   0.202  0.5907  0.2343  0.8876
 7125TIP3    H143010   5.931   0.625   0.269  0.3632 -1.2182  0.9572
 7125TIP3    H243011   5.955   0.631   0.119 -0.2810 -1.8437  0.8237
 7126TIP3   OH243012   0.568   5.852   7.926 -0.2159  0.1852 -0.1352
 7126TIP3    H143013   0.483   5.848   7.884  0.5002 -0.7440 -1.5904
 7126TIP3    H243014   0.581   5.764   7.962  0.4411  0.0690 -0.6229
 7127TIP3   OH243015   1.265   6.222   8.481  0.5008 -0.1452 -0.0802
 7127TIP3    H143016   1.300   6.305   8.513  0.5535 -0.4875  0.7583
 7127TIP3    H243017   1.241   6.174   8.559  1.2771 -1.2811 -0.5096
 7128TIP3   OH243018   1.368   0.549   7.131 -0.7012  0.4418  0.5723
 7128TIP3    H143019   1.396   0.543   7.040 -1.0276 -1.7634  0.5614
 7128TIP3    H243020   1.321   0.631   7.137 -2.8598 -0.5017 -1.9068
 7129TIP3   OH243021   0.735   2.389   1.623 -0.5297 -0.0233 -0.0835
 7129TIP3    H143022   0.782   2.417   1.544  0.5921  1.9956  1.2105
 7129TIP3    H243023   0.710   2.298   1.606  0.3261  0.1282 -2.4459
 7130TIP3   OH243024   3.996   4.475   7.034 -0.4840 -0.3098 -0.2563
 7130TIP3    H143025   4.084   4.439   7.026 -0.9529 -1.2077 -1.5972
 7130TIP3    H243026   3.952   4.418   7.098  0.8249  2.0871  3.0589
 7131TIP3   OH243027   2.548   4.140   1.797  0.1776  0.0299  0.1242
 7131TIP3    H143028   2.625   4.090   1.771 -0.4365 -1.4424  1.0004
 7131TIP3    H243029   2.582   4.227   1.819  1.4984 -0.4169 -0.0675
 7132TIP3   OH243030   3.249   5.841   0.164  0.4463  0.1320 -0.9782
 7132TIP3    H143031   3.217   5.864   0.251  1.3764 -0.1914 -0.5278
 7132TIP3    H243032   3.182   5.871   0.104 -0.4082 -0.0147 -0.1149
 7133TIP3   OH243033   1.575   5.393   0.239  0.0610 -0.8384 -0.2165
 7133TIP3    H143034   1.482   5.399   0.258  0.1774  0.7988 -0.0338
 7133TIP3    H243035   1.595   5.471   0.188  1.7107 -0.0620  1.4662
 7134TIP3   OH243036   3.618   3.612   7.780 -0.4371  0.0694 -0.3817
 7134TIP3    H143037   3.629   3.703   7.805 -1.0740  0.2946 -0.8852
 7134TIP3    H243038   3.626   3.563   7.862  0.7242  0.4922 -0.2210
 7135TIP3   OH243039   4.431   5.525   0.873 -0.4433 -0.6529  0.3117
 7135TIP3    H143040   4.384   5.543   0.954  1.2579  0.6042  1.0646
 7135TIP3    H243041   4.387   5.578   0.807 -2.1859 -2.0932  0.2219
 7136TIP3   OH243042   5.534   0.698   0.183  0.1228 -0.1782  0.5181
 7136TIP3    H143043   5.540   0.618   0.237  1.5716 -1.9071 -1.9823
 7136TIP3    H243044   5.486   0.670   0.105 -1.1041  1.9993  0.4180
 7137TIP3   OH243045   1.290   5.481   6.445  0.6599  0.1578  0.0102
 7137TIP3    H143046   1.378   5.519   6.448  0.9977 -0.4341 -1.4064
 7137TIP3    H243047   1.301   5.392   6.479  0.5829  0.1264 -0.0463
 7138TIP3   OH243048   6.732   5.374   8.025  0.7144  0.1142  0.0140
 7138TIP3    H143049   6.732   5.335   7.937  2.2821 -0.9641  0.4345
 7138TIP3    H243050   6.708   5.302   8.083  1.5078  0.3086  0.6092
 7139TIP3   OH243051   2.561   3.120   0.408 -0.1624  0.2429  0.4134
 7139TIP3    H143052   2.478   3.136   0.362 -1.5513  0.1391  2.7296
 7139TIP3    H243053   2.627   3.124   0.339 -2.0991  0.0430 -1.5899
 7140TIP3   OH243054   6.403   3.508   0.112 -0.5053  0.0736  0.4937
 7140TIP3    H143055   6.414   3.418   0.142  1.0891  0.1808  0.3267
 7140TIP3    H243056   6.488   3.549   0.128  0.2417  0.3804 -3.4310
 7141TIP3   OH243057   0.382   6.653   0.840 -0.1564 -0.3800 -0.0487
 7141TIP3    H143058   0.328   6.622   0.912  0.7768  1.4277  1.5321
 7141TIP3    H243059   0.327   6.645   0.762 -1.7938 -0.8409  1.1140
 7142TIP3   OH243060   1.682   5.925   1.678  0.1842 -0.1430  0.0942
 7142TIP3    H143061   1.751   5.879   1.631 -0.3767 -2.0555  1.0504
 7142TIP3    H243062   1.705   5.915   1.771  0.0068  1.4837  0.3459
 7143TIP3   OH243063   2.642   1.873   0.207 -0.5623  0.5352  0.2936
 7143TIP3    H143064   2.585   1.799   0.228 -1.4383  0.9980 -0.4095
 7143TIP3    H243065   2.585   1.937   0.165  0.4359  1.0885 -0.2597
 7144TIP3   OH243066   6.621   0.692   0.269  0.7038 -0.0469  0.1096
 7144TIP3    H143067   6.539   0.717   0.311  0.1496 -0.5497 -0.6477
 7144TIP3    H243068   6.604   0.703   0.175  0.1590 -3.7585 -0.4011
 7145TIP3   OH243069   3.372   0.773   8.411  0.1291 -0.8564 -0.6700
 7145TIP3    H143070   3.369   0.724   8.493 -1.8301  1.9281  1.0754
 7145TIP3    H243071   3.460   0.810   8.408 -0.1965  0.0949  0.8872
 7146TIP3   OH243072   0.844   4.663   8.217  0.4034 -0.2102  0.4305
 7146TIP3    H143073   0.931   4.685   8.249  0.2995 -0.1410  0.6741
 7146TIP3    H243074   0.829   4.574   8.248  0.6640 -0.4823 -0.2107
 7147TIP3   OH243075   2.613   0.799   2.243  0.9109  0.0815 -0.5546
 7147TIP3    H143076   2.699   0.763   2.220  2.0293  2.3198 -0.1155
 7147TIP3    H243077   2.626   0.841   2.328 -1.0969 -1.0001  0.3621
 7148TIP3   OH243078   5.900   6.487   2.323  0.8418 -0.3103 -0.3475
 7148TIP3    H143079   5.950   6.513   2.401 -1.5859 -0.2344  1.2965
 7148TIP3    H243080   5.878   6.570   2.280 -0.8674 -0.0145  0.9691
 7149TIP3   OH243081   0.799   1.230   8.214  0.5041 -0.6572 -0.1108
 7149TIP3    H143082   0.732   1.276   8.163  0.3547  0.3304  0.9327
 7149TIP3    H243083   0.777   1.137   8.205 -2.2285 -0.3080  1.7895
 7150TIP3   OH243084   5.397   6.240   1.178 -0.5651 -0.5654  0.2064
 7150TIP3    H143085   5.414   6.319   1.126  2.1003 -1.0924  0.1442
 7150TIP3    H243086   5.338   6.188   1.123 -0.3416  0.2668 -0.8661
 7151TIP3   OH243087   6.411   3.860   8.082 -0.6118  0.4405  0.2545
 7151TIP3    H143088   6.412   3.868   7.986  0.0240  1.6237  0.3396
 7151TIP3    H243089   6.352   3.930   8.111 -0.2364  0.5531  0.7512
 7152TIP3   OH243090   4.268   1.676   8.061  0.0204 -0.3346  0.5152
 7152TIP3    H143091   4.217   1.713   8.133 -0.9580 -0.7012  0.0366
 7152TIP3    H243092   4.294   1.589   8.092 -0.4059 -0.4943  0.4375
 7153TIP3   OH243093   4.873   4.657   0.176  0.3082  0.2886  0.1699
 7153TIP3    H143094   4.779   4.672   0.166  0.3530 -0.0172 -0.7335
 7153TIP3    H243095   4.887   4.567   0.146  0.4947 -0.6813  2.8341
 7154TIP3   OH243096   1.294   5.641   7.758  0.1695 -0.4112 -0.0242
 7154TIP3    H143097   1.250   5.611   7.837 -0.5323  1.0671  0.1757
 7154TIP3    H243098   1.385   5.615   7.770  0.1087 -0.0312  1.3594
 7155TIP3   OH243099   6.122   1.508   7.223 -0.1538 -0.3945 -0.5535
 7155TIP3    H143100   6.142   1.589   7.271 -0.3963 -0.5231 -0.2245
 7155TIP3    H243101   6.171   1.515   7.141  0.6602 -0.3893 -0.0772
 7156TIP3   OH243102   6.210   1.497   8.594 -0.2087  0.2111 -0.0353
 7156TIP3    H143103   6.138   1.490   8.531 -0.2945 -0.0454  0.0893
 7156TIP3    H243104   6.171   1.473   8.678  0.3483 -1.3690 -0.1955
 7157TIP3   OH243105   1.444   4.204   1.632  0.1888  0.4242 -0.8228
 7157TIP3    H143106   1.526   4.223   1.679 -0.9108  2.6441  0.3954
 7157TIP3    H243107   1.376   4.227   1.695 -1.4253 -2.0012 -1.5654
 7158TIP3   OH243108   4.916   3.428   6.724 -0.2424  0.6816  0.4190
 7158TIP3    H143109   4.834   3.470   6.748 -0.8396  0.0567 -0.4757
 7158TIP3    H243110   4.894   3.336   6.713  0.1822  0.7546 -1.5019
 7159TIP3   OH243111   0.491   6.893   0.920  0.5732  0.1532  0.2829
 7159TIP3    H143112   0.464   6.889   1.012 -2.4120 -1.4354 -0.5302
 7159TIP3    H243113   0.446   6.818   0.879 -0.3470  2.2762 -2.9395
 7160TIP3   OH243114   6.131   2.491   8.270  0.7084  0.4924 -0.0902
 7160TIP3    H143115   6.223   2.519   8.273  0.8172  0.2548 -1.0498
 7160TIP3    H243116   6.100   2.521   8.185 -0.2636  1.0359  0.4403
 7161TIP3   OH243117   4.175   4.254   8.191 -0.2669 -0.6054  0.2907
 7161TIP3    H143118   4.104   4.202   8.229 -0.2259 -0.9942 -0.1593
 7161TIP3    H243119   4.253   4.226   8.237  0.0009 -2.0294 -0.9294
 7162TIP3   OH243120   1.372   5.736   1.420  0.4119 -0.0484 -0.6066
 7162TIP3    H143121   1.306   5.669   1.437  0.4365 -0.0295 -0.4349
 7162TIP3    H243122   1.439   5.721   1.486  0.5128  0.0210 -0.6929
 7163TIP3   OH243123   2.742   1.792   2.001 -0.3754  0.0830 -0.0399
 7163TIP3    H143124   2.790   1.838   2.070 -0.0136  0.5718 -0.6028
 7163TIP3    H243125   2.801   1.794   1.926  0.4664 -2.9433  0.4147
 7164TIP3   OH243126   3.089   5.980   7.082 -0.4833  0.4749  0.1413
 7164TIP3    H143127   3.098   6.070   7.051 -0.5009 -0.0693 -1.5465
 7164TIP3    H243128   3.015   5.945   7.033  0.2429 -0.8130 -0.0799
 7165TIP3   OH243129   3.180   6.064   1.436  0.2562  0.4995  0.2586
 7165TIP3    H143130   3.269   6.074   1.402  0.1377 -2.9023 -1.4810
 7165TIP3    H243131   3.192   6.029   1.525  0.6050  0.8733  0.3654
 7166TIP3   OH243132   4.366   4.142   0.246  0.3754  0.1968  0.1843
 7166TIP3    H143133   4.271   4.153   0.246  0.3276 -0.1821  0.0550
 7166TIP3    H243134   4.394   4.176   0.330  0.1943  0.8745 -0.0220
 7167TIP3   OH243135   3.688   5.610   6.967 -0.3006  0.5864 -0.1889
 7167TIP3    H143136   3.702   5.619   7.061  0.8899  1.7137 -0.4515
 7167TIP3    H243137   3.619   5.673   6.947  0.0270  0.9458 -0.1963
 7168TIP3   OH243138   5.272   6.002   7.941 -0.5189 -0.2457 -0.4807
 7168TIP3    H143139   5.226   6.076   7.901 -0.0646 -0.0062 -0.5730
 7168TIP3    H243140   5.287   6.029   8.032  1.6004  0.7494 -1.0528
 7169TIP3   OH243141   1.297   5.333   2.247 -0.5297 -0.7529  0.1145
 7169TIP3    H143142   1.202   5.337   2.252 -0.6603  2.2849 -1.9666
 7169TIP3    H243143   1.327   5.373   2.328 -0.9927 -1.9912  0.9113
 7170TIP3   OH243144   4.191   6.241   0.701 -0.7498 -0.2707 -0.0956
 7170TIP3    H143145   4.167   6.332   0.683 -1.9745 -0.3288  1.1153
 7170TIP3    H243146   4.116   6.190   0.672  0.0209 -0.9592 -0.9764
 7171TIP3   OH243147   5.773   5.070   0.918 -0.5540 -0.6293 -0.2169
 7171TIP3    H143148   5.844   5.018   0.957 -0.2762  0.4785  0.8281
 7171TIP3    H243149   5.701   5.061   0.981  0.4901  2.6858  1.7168
 7172TIP3   OH243150   3.291   1.295   2.678 -0.2007 -0.1540  0.0781
 7172TIP3    H143151   3.234   1.284   2.602 -1.2417  1.0181  0.6540
 7172TIP3    H243152   3.344   1.372   2.658  1.1799 -1.1880 -0.4182
 7173TIP3   OH243153   4.174   3.566   6.767 -0.0547  0.2596 -0.8859
 7173TIP3    H143154   4.231   3.585   6.692 -0.1426  1.2038 -0.7204
 7173TIP3    H243155   4.142   3.477   6.750  2.1080 -0.6523 -0.5666
 7174TIP3   OH243156   6.730   1.864   1.713 -0.0775 -0.3946 -0.1241
 7174TIP3    H143157   6.802   1.816   1.753  0.2356 -1.4643 -1.8832
 7174TIP3    H243158   6.669   1.880   1.785  1.6551  0.1189  1.3142
 7175TIP3   OH243159   6.452   0.153   0.757  0.2689 -0.3084  0.5506
 7175TIP3    H143160   6.544   0.130   0.767  0.3933  0.8177  2.6673
 7175TIP3    H243161   6.443   0.235   0.805 -1.9405 -0.6587  0.8406
 7176TIP3   OH243162   6.249   3.650   0.803 -0.2326 -0.4282 -0.2429
 7176TIP3    H143163   6.243   3.680   0.894 -0.9114 -0.8277 -0.1509
 7176TIP3    H243164   6.221   3.559   0.805 -1.0211 -0.2150 -0.9746
 7177LIG     O143165   3.900   4.169   4.187  0.1124 -0.0940  0.1962
 7177LIG     O243166   3.935   4.615   4.282 -0.2591 -0.3235  0.1643
 7177LIG     N143167   3.814   4.555   4.094 -0.6416 -0.1759 -0.0005
 7177LIG     N243168   3.770   4.243   3.922 -0.2252 -0.1265 -0.7872
 7177LIG     N343169   3.922   4.390   4.234  0.9172  0.1360 -0.3528
 7177LIG     N443170   3.728   4.450   3.879  0.5035 -0.6720 -0.0563
 7177LIG     C143171   3.807   4.323   4.035  0.2440  0.2314 -0.0477
 7177LIG     C243172   3.779   4.450   4.002 -0.0788  0.0686 -0.2528
 7177LIG     C343173   3.869   4.284   4.157 -0.1557  0.5985  0.2349
 7177LIG     C443174   3.895   4.524   4.207  0.7072 -0.4418  0.4848
 7177LIG     C543175   3.721   4.322   3.836 -0.2805 -0.2688  0.3841
 7177LIG     C643176   3.780   4.693   4.070 -0.0755 -0.4848 -0.3570
 7177LIG     C743177   3.791   4.095   3.916  0.5937  0.0755 -0.7463
 7177LIG     C843178   4.010   4.365   4.351 -1.2126 -0.4974  0.1745
 7177LIG     H143179   3.700   4.302   3.731 -1.1909 -0.7595  0.6565
 7177LIG     H243180   3.841   4.759   4.134 -0.1278 -0.7102 -0.0749
 7177LIG     H343181   3.676   4.729   4.084  0.5988  1.9537 -1.0171
 7177LIG     H443182   3.804   4.721   3.965 -0.6960  2.1802  0.1391
 7177LIG     H543183   3.883   4.055   3.868  0.7399  0.6142 -0.9210
 7177LIG     H643184   3.703   4.048   3.867  0.5586 -0.7275  0.0578
 7177LIG     H743185   3.801   4.057   4.020 -0.9611 -0.0374 -0.6112
 7177LIG     H843186   4.047   4.264   4.379 -0.8849 -1.1170 -2.2719
 7177LIG     H943187   3.964   4.397   4.446 -0.6322  1.1333 -0.0566
 7177LIG    H1043188   4.096   4.435   4.342 -0.5751 -1.2299  0.3855
   6.92062   6.92062   8.64246
