Title
43188
    1CHL1    C3    1   3.097   3.969   5.841 -0.2956  0.6440 -0.7835
    1CHL1    H3    2   3.112   3.865   5.805  0.1708 -0.2402  1.7397
    1CHL1    O3    3   3.088   3.955   5.986 -0.0674  0.3986 -0.6892
    1CHL1   H3'    4   3.126   4.039   6.012  0.9228  0.4476 -2.1518
    1CHL1    C4    5   3.204   4.064   5.793 -0.0002 -0.0619  0.0091
    1CHL1   H4A    6   3.190   4.161   5.846  0.2741  0.5214 -0.9715
    1CHL1   H4B    7   3.303   4.025   5.823  0.1403  2.1421  2.8906
    1CHL1    C5    8   3.204   4.087   5.640  0.6980 -0.6110 -0.1049
    1CHL1    C6    9   3.309   4.054   5.561 -0.5451  0.5674 -0.8744
    1CHL1    H6   10   3.399   4.017   5.612 -1.7196 -1.1375  0.1113
    1CHL1    C7   11   3.314   4.056   5.415  0.3538  1.0240  0.0474
    1CHL1   H7A   12   3.409   4.102   5.379  0.6799  1.1239  0.9912
    1CHL1   H7B   13   3.316   3.952   5.376  2.4023  0.7319  0.7758
    1CHL1    C8   14   3.192   4.136   5.345  0.0248 -0.3592 -0.3602
    1CHL1    H8   15   3.216   4.242   5.367  1.4054 -0.7664  0.2061
    1CHL1   C14   16   3.176   4.111   5.199 -0.4052 -0.0524  0.1302
    1CHL1   H14   17   3.175   4.000   5.199  1.4199 -0.1221  1.6752
    1CHL1   C15   18   3.294   4.154   5.118 -0.1965  0.4311  0.0997
    1CHL1  H15A   19   3.336   4.249   5.159  1.7088 -0.2231 -0.2398
    1CHL1  H15B   20   3.365   4.071   5.141 -1.4273 -0.9116 -0.7773
    1CHL1   C16   21   3.249   4.173   4.977 -0.0199 -0.3429 -0.4939
    1CHL1  H16A   22   3.275   4.278   4.951 -0.4977 -0.3557 -1.0559
    1CHL1  H16B   23   3.300   4.101   4.909  2.8685 -1.7849  2.9140
    1CHL1   C17   24   3.091   4.145   4.978 -0.4009 -0.1564 -0.3207
    1CHL1   H17   25   3.091   4.034   4.982 -0.7617 -0.1296  0.7437
    1CHL1   C13   26   3.060   4.177   5.124  0.7040  0.2356  0.5225
    1CHL1   C18   27   3.051   4.329   5.144 -0.2001 -0.3372 -0.1481
    1CHL1  H18A   28   2.968   4.375   5.087  0.0338 -0.4545 -0.5880
    1CHL1  H18B   29   3.049   4.360   5.251 -2.7962  1.5277 -0.6460
    1CHL1  H18C   30   3.131   4.387   5.094  0.6017 -1.6358 -0.4125
    1CHL1   C12   31   2.931   4.114   5.184  0.2791  0.1154 -0.4243
    1CHL1  H12A   32   2.844   4.158   5.130  0.9686  0.2372 -1.4578
    1CHL1  H12B   33   2.922   4.004   5.172 -2.1984  0.2683 -0.4172
    1CHL1   C11   34   2.934   4.129   5.344  0.1947 -0.1527  0.8547
    1CHL1  H11A   35   2.916   4.235   5.374 -0.5864  0.4158 -1.4104
    1CHL1  H11B   36   2.845   4.077   5.385 -0.0276  0.1252  0.7264
    1CHL1    C9   37   3.063   4.092   5.420  0.4012 -0.0806 -0.1359
    1CHL1    H9   38   3.074   3.983   5.402  0.0062 -0.0156 -0.7987
    1CHL1   C10   39   3.062   4.123   5.573 -0.4340  0.0585  0.2189
    1CHL1   C19   40   3.043   4.272   5.597  0.0072 -1.0177  0.5977
    1CHL1  H19A   41   2.947   4.303   5.550  0.6443 -0.8407 -0.6155
    1CHL1  H19B   42   3.056   4.300   5.703  1.3684 -0.1350  0.2216
    1CHL1  H19C   43   3.123   4.328   5.545  0.6557 -2.4971 -0.0662
    1CHL1    C1   44   2.946   4.038   5.649 -0.7466  0.9680  0.2810
    1CHL1   H1A   45   2.853   4.094   5.626 -1.6404 -0.7065 -0.3683
    1CHL1   H1B   46   2.934   3.943   5.592 -1.9595  2.1553 -1.5731
    1CHL1    C2   47   2.964   4.017   5.802  0.5412 -0.1185 -0.4796
    1CHL1   H2A   48   2.890   3.940   5.833 -0.6272  1.1422 -0.0115
    1CHL1   H2B   49   2.946   4.114   5.853 -0.4454 -0.9775  0.8963
    1CHL1   C20   50   3.006   4.199   4.864 -0.4301  0.1025 -0.1031
    1CHL1   H20   51   2.904   4.211   4.906 -0.1169  0.9076  0.4451
    1CHL1   C21   52   3.008   4.088   4.753 -0.7377 -0.1961  0.4956
    1CHL1  H21A   53   2.979   3.988   4.791 -2.1548 -0.3453 -0.9130
    1CHL1  H21B   54   3.116   4.072   4.731 -0.6326  1.3778 -0.3184
    1CHL1  H21C   55   2.956   4.114   4.659 -0.6154  1.4822  0.8617
    1CHL1   C22   56   3.052   4.333   4.802  0.4709  0.0766  0.0845
    1CHL1  H22A   57   3.082   4.397   4.887 -0.5668  0.7076  0.0000
    1CHL1  H22B   58   3.142   4.323   4.737  1.3466  2.1572  0.9112
    1CHL1   C23   59   2.940   4.407   4.730 -0.0248 -0.5067 -0.0525
    1CHL1  H23A   60   2.895   4.350   4.646  0.0742 -2.0108  0.8850
    1CHL1  H23B   61   2.861   4.436   4.803 -0.2709 -0.4691 -0.3319
    1CHL1   C24   62   3.000   4.539   4.674  0.0774 -0.1208  0.8304
    1CHL1  H24A   63   3.047   4.600   4.754  1.6464  0.2507 -0.3199
    1CHL1  H24B   64   3.089   4.508   4.616  0.5470 -1.6483  2.2657
    1CHL1   C25   65   2.895   4.619   4.584 -0.3333 -0.0875  0.3658
    1CHL1   H25   66   2.863   4.564   4.493  1.3668 -1.6654  0.6455
    1CHL1   C26   67   2.767   4.651   4.664 -0.1500 -0.0588 -0.1585
    1CHL1  H26A   68   2.706   4.561   4.688 -1.0977  0.7650  0.6386
    1CHL1  H26B   69   2.802   4.702   4.756  3.1837  1.6662 -2.2034
    1CHL1  H26C   70   2.709   4.721   4.601 -0.3492  1.3641  1.5244
    1CHL1   C27   71   2.967   4.744   4.548 -0.6392 -0.2196  0.4442
    1CHL1  H27A   72   2.976   4.796   4.646  1.5706 -0.8067  0.6227
    1CHL1  H27B   73   3.061   4.739   4.489 -2.5163  2.1409 -3.1179
    1CHL1  H27C   74   2.911   4.821   4.491 -3.7978 -1.8512  1.1383
    2CHL1    C3   75   4.096   4.370   5.962 -0.1961 -0.8038  0.0046
    2CHL1    H3   76   4.163   4.285   5.937 -0.1727 -0.1854 -2.3404
    2CHL1    O3   77   4.141   4.424   6.084  0.4017  0.4269 -0.0794
    2CHL1   H3'   78   4.237   4.413   6.087  0.2806 -0.5767  1.7435
    2CHL1    C4   79   4.114   4.485   5.862  0.4769 -0.1878 -0.2596
    2CHL1   H4A   80   4.043   4.568   5.883  1.5257  0.8690 -0.7302
    2CHL1   H4B   81   4.213   4.536   5.867 -0.2335  1.1350  0.7649
    2CHL1    C5   82   4.068   4.440   5.729  0.1135  0.1239  0.0147
    2CHL1    C6   83   4.159   4.446   5.628  0.3885  0.3664  0.0728
    2CHL1    H6   84   4.255   4.495   5.649 -0.3866  1.3259  1.5924
    2CHL1    C7   85   4.131   4.406   5.489  0.3038  0.1896 -0.0106
    2CHL1   H7A   86   4.175   4.487   5.426 -0.5098 -0.1901 -1.1033
    2CHL1   H7B   87   4.173   4.309   5.455 -0.9699  0.0502 -1.2653
    2CHL1    C8   88   3.981   4.388   5.459  0.2484  0.0914 -0.0705
    2CHL1    H8   89   3.934   4.488   5.443 -0.2779 -0.3990 -1.7461
    2CHL1   C14   90   3.953   4.300   5.331  0.2895  0.0748  0.2417
    2CHL1   H14   91   3.997   4.200   5.353  0.5069  0.0180 -0.3974
    2CHL1   C15   92   4.029   4.337   5.205 -0.1534 -0.4599  0.4067
    2CHL1  H15A   93   4.022   4.446   5.181  0.7742 -0.4407  0.1927
    2CHL1  H15B   94   4.137   4.311   5.206  0.1168  0.5332 -0.2277
    2CHL1   C16   95   3.947   4.257   5.096  0.0278 -0.2397 -0.2952
    2CHL1  H16A   96   3.911   4.335   5.026 -0.1225  0.6453  0.7304
    2CHL1  H16B   97   4.016   4.186   5.045  0.8694  0.7173 -0.5228
    2CHL1   C17   98   3.838   4.177   5.163 -0.8536 -0.6028  0.4957
    2CHL1   H17   99   3.881   4.082   5.200 -1.0281 -0.2563  1.6326
    2CHL1   C13  100   3.813   4.270   5.287  0.4977 -0.0549  0.1123
    2CHL1   C18  101   3.739   4.401   5.243 -0.0225 -0.8055 -0.0702
    2CHL1  H18A  102   3.786   4.479   5.307 -0.1799 -2.9469  2.8816
    2CHL1  H18B  103   3.759   4.428   5.137  1.7490  1.1359  0.6878
    2CHL1  H18C  104   3.630   4.394   5.265  0.0289  0.8923  0.9615
    2CHL1   C12  105   3.748   4.206   5.409  0.7780  0.6222 -0.0460
    2CHL1  H12A  106   3.639   4.184   5.395  0.9285 -0.4208  0.3073
    2CHL1  H12B  107   3.799   4.110   5.433  0.6056  0.7757  0.9845
    2CHL1   C11  108   3.762   4.294   5.535 -0.0157 -0.1207  0.4172
    2CHL1  H11A  109   3.711   4.391   5.519  0.2663 -0.3155 -2.1111
    2CHL1  H11B  110   3.713   4.244   5.621 -1.7233  0.4191 -0.2103
    2CHL1    C9  111   3.907   4.318   5.575  0.3133  0.3645 -0.4581
    2CHL1    H9  112   3.959   4.220   5.586 -0.6780 -0.2525 -1.1528
    2CHL1   C10  113   3.932   4.378   5.710  0.3539 -0.3478 -0.6337
    2CHL1   C19  114   3.826   4.493   5.730  0.3990 -0.3182 -0.0840
    2CHL1  H19A  115   3.828   4.539   5.831 -1.7168 -1.5124  0.5658
    2CHL1  H19B  116   3.819   4.574   5.654 -1.4346  1.5082  1.8989
    2CHL1  H19C  117   3.728   4.442   5.725  0.8223 -1.1550 -0.1350
    2CHL1    C1  118   3.909   4.276   5.824  0.1963 -0.0482  0.7559
    2CHL1   H1A  119   3.805   4.237   5.812 -0.0969  1.1032 -0.6583
    2CHL1   H1B  120   3.974   4.187   5.806 -0.0339  0.0123 -0.5042
    2CHL1    C2  121   3.949   4.332   5.962  0.0924  0.1831 -0.5386
    2CHL1   H2A  122   3.927   4.251   6.035  2.0058  1.8579  2.0783
    2CHL1   H2B  123   3.884   4.413   6.001 -1.8197 -2.2112  1.6238
    2CHL1   C20  124   3.720   4.142   5.065  0.2062  0.3024 -0.5495
    2CHL1   H20  125   3.644   4.223   5.058  1.0026  0.9865 -1.6321
    2CHL1   C21  126   3.656   4.012   5.126 -0.1041 -0.1167  0.2941
    2CHL1  H21A  127   3.564   3.981   5.072  0.3651  1.4877 -1.5580
    2CHL1  H21B  128   3.621   4.021   5.231  0.8436 -1.1461  0.7143
    2CHL1  H21C  129   3.730   3.930   5.120  0.7120  0.6731 -0.8601
    2CHL1   C22  130   3.764   4.108   4.923 -0.2857 -0.1124  0.1106
    2CHL1  H22A  131   3.842   4.175   4.882 -0.2986 -0.1298  0.0582
    2CHL1  H22B  132   3.795   4.001   4.920 -0.6770 -0.2254 -0.1331
    2CHL1   C23  133   3.643   4.105   4.817 -0.6439  0.0831 -0.4736
    2CHL1  H23A  134   3.690   4.062   4.726  0.8792  0.5536  0.0674
    2CHL1  H23B  135   3.559   4.037   4.844  0.0535 -0.0533  1.5717
    2CHL1   C24  136   3.596   4.252   4.795 -0.1684  0.0620 -0.3716
    2CHL1  H24A  137   3.545   4.283   4.889 -0.6279 -0.5240 -0.4235
    2CHL1  H24B  138   3.687   4.312   4.775  0.3412 -0.4013  0.5019
    2CHL1   C25  139   3.496   4.265   4.679  0.1823  0.0680 -0.5441
    2CHL1   H25  140   3.418   4.190   4.701 -0.6786  1.2931  0.7353
    2CHL1   C26  141   3.423   4.403   4.688  0.2190 -0.9879  0.5246
    2CHL1  H26A  142   3.378   4.415   4.789  2.7457 -0.3600  1.6565
    2CHL1  H26B  143   3.489   4.491   4.674  0.4394 -0.9410  1.7740
    2CHL1  H26C  144   3.352   4.409   4.603  0.0509  0.2766  0.7363
    2CHL1   C27  145   3.553   4.243   4.548  0.5015 -0.1736 -0.0455
    2CHL1  H27A  146   3.570   4.133   4.545 -2.4788 -0.7061 -0.5401
    2CHL1  H27B  147   3.484   4.263   4.464 -0.8624 -2.4006  0.4808
    2CHL1  H27C  148   3.645   4.304   4.533  0.2823 -0.4228 -3.0152
    3CHL1    C3  149   6.553   4.878   6.311 -0.1724  0.2179 -0.1699
    3CHL1    H3  150   6.583   4.983   6.289  1.5582 -0.2255 -0.0830
    3CHL1    O3  151   6.548   4.842   6.449  0.3338  0.0458  0.1000
    3CHL1   H3'  152   6.588   4.755   6.461  0.6643  0.0510 -0.8527
    3CHL1    C4  153   6.416   4.859   6.246  0.1907 -0.4816 -0.5949
    3CHL1   H4A  154   6.366   4.763   6.272  0.5016 -1.1196 -2.2244
    3CHL1   H4B  155   6.364   4.942   6.299  1.4284 -0.3934  0.5259
    3CHL1    C5  156   6.420   4.857   6.095  0.2194 -0.3746  0.3129
    3CHL1    C6  157   6.343   4.937   6.021 -0.1650 -1.0927  0.0514
    3CHL1    H6  158   6.271   5.008   6.064 -0.0180  0.4619 -2.1017
    3CHL1    C7  159   6.339   4.941   5.874  0.0938 -0.0038 -0.1045
    3CHL1   H7A  160   6.231   4.950   5.850 -0.1278  0.2539  0.9151
    3CHL1   H7B  161   6.389   5.038   5.853 -2.8629  1.2110 -2.2382
    3CHL1    C8  162   6.409   4.819   5.811  0.4886 -0.1712 -0.0055
    3CHL1    H8  163   6.339   4.733   5.820 -1.1175  0.8081 -2.1916
    3CHL1   C14  164   6.419   4.849   5.668 -0.8223  0.4928  0.7719
    3CHL1   H14  165   6.482   4.940   5.662 -0.2346  0.0159 -0.3997
    3CHL1   C15  166   6.302   4.899   5.583  0.2748 -0.0741  0.3309
    3CHL1  H15A  167   6.216   4.828   5.587  0.5188 -0.3680  0.3442
    3CHL1  H15B  168   6.276   5.005   5.604 -0.4582 -0.2078  0.1354
    3CHL1   C16  169   6.343   4.880   5.436 -0.4787  0.4400 -0.0959
    3CHL1  H16A  170   6.274   4.805   5.393 -0.0053 -0.5239  0.7612
    3CHL1  H16B  171   6.346   4.980   5.387  1.0783  0.1188 -0.7344
    3CHL1   C17  172   6.479   4.811   5.441 -0.4091 -0.3172  0.6045
    3CHL1   H17  173   6.553   4.893   5.448 -0.6772  0.4124 -3.0812
    3CHL1   C13  174   6.494   4.734   5.582  0.2429 -0.0739 -0.0877
    3CHL1   C18  175   6.406   4.604   5.576  0.4429 -0.0610 -0.0660
    3CHL1  H18A  176   6.381   4.560   5.675 -1.7660  0.1344 -0.5003
    3CHL1  H18B  177   6.316   4.618   5.513 -0.0405 -0.2943  0.5628
    3CHL1  H18C  178   6.469   4.535   5.517  1.6884  0.9698  0.0147
    3CHL1   C12  179   6.634   4.727   5.646 -0.0421 -0.7541 -0.1181
    3CHL1  H12A  180   6.706   4.655   5.603  1.3595 -0.5601  1.8066
    3CHL1  H12B  181   6.683   4.826   5.632  1.7159 -1.4563  0.8058
    3CHL1   C11  182   6.629   4.697   5.794  0.3581 -0.3078 -0.1284
    3CHL1  H11A  183   6.590   4.593   5.801 -0.4491 -0.2268 -2.4177
    3CHL1  H11B  184   6.725   4.705   5.849  0.9192  0.1653 -1.1552
    3CHL1    C9  185   6.542   4.797   5.872 -0.7056 -0.0620  0.6462
    3CHL1    H9  186   6.590   4.896   5.857  0.5723 -1.0577 -2.4703
    3CHL1   C10  187   6.529   4.771   6.027  0.0971 -0.3005  0.1994
    3CHL1   C19  188   6.484   4.623   6.033  0.1643  0.4134  0.0530
    3CHL1  H19A  189   6.562   4.554   5.994  1.0392  0.7965  1.1024
    3CHL1  H19B  190   6.460   4.599   6.139 -2.5890 -2.6350 -1.0491
    3CHL1  H19C  191   6.390   4.599   5.978  1.2446  2.5624 -2.9840
    3CHL1    C1  192   6.667   4.782   6.091 -0.7865 -0.1278  0.6453
    3CHL1   H1A  193   6.738   4.700   6.065  2.8023  3.4566 -2.3499
    3CHL1   H1B  194   6.714   4.876   6.054  0.9592 -1.7611 -1.6241
    3CHL1    C2  195   6.659   4.783   6.247  0.5980 -0.3877 -0.8708
    3CHL1   H2A  196   6.758   4.801   6.293  1.0582 -1.3697 -1.4585
    3CHL1   H2B  197   6.628   4.682   6.281 -0.9786  0.4642  0.4085
    3CHL1   C20  198   6.503   4.730   5.313 -0.1669  1.0157  0.0741
    3CHL1   H20  199   6.435   4.642   5.311  1.7961 -0.5817  0.7629
    3CHL1   C21  200   6.637   4.647   5.314 -0.0651 -0.0866  0.7178
    3CHL1  H21A  201   6.625   4.564   5.241 -1.6148 -0.4245  1.3314
    3CHL1  H21B  202   6.651   4.596   5.411 -1.3319  0.6553  1.3100
    3CHL1  H21C  203   6.722   4.714   5.287  1.9561 -2.5089  0.7086
    3CHL1   C22  204   6.479   4.807   5.179  0.5800  0.7139  0.7556
    3CHL1  H22A  205   6.381   4.857   5.192  0.5827  1.2356 -1.0391
    3CHL1  H22B  206   6.561   4.880   5.166  1.8639 -0.9919 -1.5936
    3CHL1   C23  207   6.464   4.706   5.057  0.2979 -0.4271 -0.2127
    3CHL1  H23A  208   6.559   4.652   5.036  1.1652  0.4542  1.2790
    3CHL1  H23B  209   6.385   4.632   5.081 -1.9703  1.3779 -1.7716
    3CHL1   C24  210   6.429   4.780   4.933  0.1696  0.0744  0.1151
    3CHL1  H24A  211   6.516   4.844   4.907  0.5710 -0.6767 -0.4268
    3CHL1  H24B  212   6.420   4.713   4.846  3.4323 -1.6705  0.9386
    3CHL1   C25  213   6.307   4.870   4.924 -0.3670 -0.2654  0.5546
    3CHL1   H25  214   6.322   4.949   5.001 -0.0544 -1.6313  1.9276
    3CHL1   C26  215   6.307   4.958   4.795  0.0293  0.6545 -0.1260
    3CHL1  H26A  216   6.284   4.878   4.721 -4.3118 -0.5108  2.1106
    3CHL1  H26B  217   6.230   5.036   4.778 -0.1033  0.2742 -1.3965
    3CHL1  H26C  218   6.411   4.995   4.794  1.1176 -2.1536  0.0910
    3CHL1   C27  219   6.179   4.793   4.951  0.9536  0.0121 -0.4123
    3CHL1  H27A  220   6.149   4.708   4.885  1.4582  0.8895 -1.8072
    3CHL1  H27B  221   6.173   4.752   5.054  0.2042 -0.5213 -0.6626
    3CHL1  H27C  222   6.089   4.859   4.952  0.9208 -0.0151 -1.1577
    4CHL1    C3  223   5.798   5.590   6.335 -0.2220 -0.0818 -0.3866
    4CHL1    H3  224   5.905   5.601   6.308 -0.7345 -0.4970 -2.8619
    4CHL1    O3  225   5.784   5.599   6.477 -0.0094 -0.0602 -0.3803
    4CHL1   H3'  226   5.770   5.511   6.512  3.0958 -0.2780  0.5766
    4CHL1    C4  227   5.736   5.723   6.275  0.4917  0.1564  0.2846
    4CHL1   H4A  228   5.629   5.730   6.305  0.0387  2.1777 -1.5523
    4CHL1   H4B  229   5.793   5.803   6.327  2.0282 -0.7619  0.0749
    4CHL1    C5  230   5.735   5.726   6.123  0.2354  0.3443 -0.1063
    4CHL1    C6  231   5.784   5.835   6.057  0.9150 -0.3998 -0.6250
    4CHL1    H6  232   5.800   5.926   6.117 -2.5368 -0.4612  0.6475
    4CHL1    C7  233   5.781   5.851   5.908  0.0982  0.2158 -0.0398
    4CHL1   H7A  234   5.740   5.951   5.882 -0.6590  0.0419  0.4466
    4CHL1   H7B  235   5.884   5.846   5.868  0.1575  0.7497  0.0323
    4CHL1    C8  236   5.693   5.743   5.839  0.7295 -0.0107 -0.3709
    4CHL1    H8  237   5.585   5.768   5.847  0.5645  0.5769 -3.3225
    4CHL1   C14  238   5.732   5.738   5.695  0.0073 -0.3120  0.1012
    4CHL1   H14  239   5.837   5.702   5.698 -0.0423 -0.3933  1.8725
    4CHL1   C15  240   5.732   5.871   5.613  0.0747  0.7657  0.1490
    4CHL1  H15A  241   5.628   5.905   5.633 -0.6638 -0.6413 -1.1067
    4CHL1  H15B  242   5.799   5.952   5.649 -0.3315  1.2777 -0.2276
    4CHL1   C16  243   5.749   5.822   5.470 -0.2074 -0.5158  0.6317
    4CHL1  H16A  244   5.670   5.880   5.417  0.4622  0.7171  0.9607
    4CHL1  H16B  245   5.850   5.852   5.435  0.1140 -0.4319  1.6008
    4CHL1   C17  246   5.734   5.669   5.471  0.0645 -0.6899 -0.0802
    4CHL1   H17  247   5.840   5.638   5.477 -0.1847 -1.4409  0.6719
    4CHL1   C13  248   5.665   5.638   5.609 -0.2115  0.1332  0.4914
    4CHL1   C18  249   5.519   5.666   5.597  0.7488 -0.0700 -0.1822
    4CHL1  H18A  250   5.505   5.755   5.531  0.0614  1.0597  1.4292
    4CHL1  H18B  251   5.459   5.583   5.556 -0.9047 -0.1703  2.2383
    4CHL1  H18C  252   5.474   5.703   5.691 -0.3716 -0.8918 -0.3859
    4CHL1   C12  253   5.697   5.498   5.681 -0.2001  0.5197  0.0401
    4CHL1  H12A  254   5.644   5.419   5.623  0.4854  1.7044 -2.3150
    4CHL1  H12B  255   5.805   5.475   5.678 -0.4763 -0.8067 -1.7040
    4CHL1   C11  256   5.641   5.492   5.821 -0.1611  0.0713 -0.2604
    4CHL1  H11A  257   5.533   5.520   5.820  0.4525  3.0033  2.0127
    4CHL1  H11B  258   5.646   5.385   5.850 -0.1833  0.0839 -0.2100
    4CHL1    C9  259   5.714   5.600   5.907 -0.3821 -0.7612 -0.4287
    4CHL1    H9  260   5.823   5.580   5.897  0.4482  1.9782  1.8080
    4CHL1   C10  261   5.684   5.594   6.060 -0.1811  0.0352  0.6612
    4CHL1   C19  262   5.534   5.585   6.085 -0.1722 -0.3358  1.2211
    4CHL1  H19A  263   5.477   5.667   6.036 -3.5491 -1.9947  2.0162
    4CHL1  H19B  264   5.506   5.484   6.047 -0.1248  0.7440 -1.9981
    4CHL1  H19C  265   5.504   5.589   6.192  2.6693 -0.5560  2.0889
    4CHL1    C1  266   5.767   5.482   6.118 -0.0138 -0.0040  0.0582
    4CHL1   H1A  267   5.732   5.384   6.080  0.2444 -0.5877  1.2871
    4CHL1   H1B  268   5.873   5.493   6.086 -0.4712  2.3591 -0.8878
    4CHL1    C2  269   5.745   5.466   6.274 -0.2101  0.3470 -0.1540
    4CHL1   H2A  270   5.800   5.376   6.307 -1.7273 -0.7892 -0.5985
    4CHL1   H2B  271   5.638   5.456   6.303  0.5590 -0.7915  2.6168
    4CHL1   C20  272   5.678   5.600   5.351  0.5005  0.0200 -0.5113
    4CHL1   H20  273   5.570   5.624   5.344 -0.0646  0.4012  5.2321
    4CHL1   C21  274   5.681   5.439   5.374  0.3163 -0.8774  0.3417
    4CHL1  H21A  275   5.765   5.413   5.441  0.2281  1.2017  1.3441
    4CHL1  H21B  276   5.704   5.402   5.272  1.4510  1.1195 -0.1929
    4CHL1  H21C  277   5.584   5.401   5.412 -0.3354 -0.4346 -0.7909
    4CHL1   C22  278   5.770   5.641   5.227  0.1993  0.3453 -0.9710
    4CHL1  H22A  279   5.820   5.740   5.232  0.0271  0.5348 -2.6248
    4CHL1  H22B  280   5.860   5.576   5.219 -0.6896 -1.1047  0.2162
    4CHL1   C23  281   5.686   5.635   5.097 -0.1296  0.5035 -0.5600
    4CHL1  H23A  282   5.657   5.531   5.072  1.5955  0.8542 -4.7240
    4CHL1  H23B  283   5.596   5.701   5.096 -1.1897 -0.8560  0.4618
    4CHL1   C24  284   5.765   5.677   4.964 -0.3727 -0.2190  0.4453
    4CHL1  H24A  285   5.795   5.784   4.958  2.7508 -0.8436  2.4819
    4CHL1  H24B  286   5.855   5.613   4.957 -1.3663 -1.4551 -2.5614
    4CHL1   C25  287   5.687   5.631   4.846 -0.0399 -0.3805  0.6388
    4CHL1   H25  288   5.667   5.522   4.837 -1.3380 -0.0385 -1.3895
    4CHL1   C26  289   5.546   5.696   4.836 -0.3424 -0.6020 -0.0497
    4CHL1  H26A  290   5.490   5.660   4.925  1.6076 -1.4821  0.8963
    4CHL1  H26B  291   5.553   5.807   4.831  0.7495 -0.6097  0.6955
    4CHL1  H26C  292   5.508   5.657   4.740  0.5516  4.0554 -2.5953
    4CHL1   C27  293   5.771   5.670   4.716  0.1081  0.2098 -0.8982
    4CHL1  H27A  294   5.700   5.650   4.633 -2.0641  2.3412  0.3018
    4CHL1  H27B  295   5.786   5.780   4.711  0.3797  0.3345  1.4744
    4CHL1  H27C  296   5.867   5.615   4.715 -0.6610 -1.1981 -0.4124
    5CHL1    C3  297   4.420   6.633   5.900 -0.0613  0.6785  0.2437
    5CHL1    H3  298   4.325   6.601   5.852 -0.0067  0.1060  0.5094
    5CHL1    O3  299   4.428   6.560   6.022 -0.1586 -0.6036  0.1241
    5CHL1   H3'  300   4.472   6.620   6.083  1.7869 -0.4582 -1.3280
    5CHL1    C4  301   4.539   6.593   5.811 -0.7767  0.2793  0.3425
    5CHL1   H4A  302   4.638   6.621   5.853  0.2566 -2.0630 -0.3596
    5CHL1   H4B  303   4.547   6.483   5.803  0.1405  0.2644  1.2133
    5CHL1    C5  304   4.518   6.665   5.672 -0.2714 -0.3771  0.1721
    5CHL1    C6  305   4.489   6.587   5.567 -0.4492 -0.5728  0.1475
    5CHL1    H6  306   4.501   6.478   5.571 -1.3203 -0.7421 -1.3228
    5CHL1    C7  307   4.465   6.639   5.433 -0.2395 -0.0586  0.0940
    5CHL1   H7A  308   4.529   6.587   5.359 -1.6422 -1.1476 -0.4116
    5CHL1   H7B  309   4.358   6.621   5.409 -0.0213 -0.0373 -0.9248
    5CHL1    C8  310   4.491   6.794   5.417 -0.0749 -0.6054  0.2540
    5CHL1    H8  311   4.602   6.801   5.424 -0.1926  4.6801  0.6381
    5CHL1   C14  312   4.437   6.849   5.293 -0.2882 -1.4589 -0.0882
    5CHL1   H14  313   4.329   6.823   5.302 -1.2570  1.6490 -1.2656
    5CHL1   C15  314   4.483   6.781   5.162 -0.4316 -0.5685 -0.2757
    5CHL1  H15A  315   4.594   6.775   5.160 -0.4319 -0.6251 -0.1493
    5CHL1  H15B  316   4.443   6.678   5.150 -0.2634 -1.4077  4.5022
    5CHL1   C16  317   4.426   6.874   5.044 -0.5268  0.8399  0.1890
    5CHL1  H16A  318   4.513   6.898   4.980 -0.2666 -2.4249 -0.8758
    5CHL1  H16B  319   4.343   6.839   4.979 -1.6942  1.0846  1.4949
    5CHL1   C17  320   4.371   7.003   5.118  0.2220 -0.5466  0.2375
    5CHL1   H17  321   4.261   6.998   5.124  0.0295  0.5974 -1.7195
    5CHL1   C13  322   4.441   6.997   5.264 -0.6200 -0.2787  0.4344
    5CHL1   C18  323   4.597   7.044   5.254  0.5105  0.2914 -0.4626
    5CHL1  H18A  324   4.628   7.034   5.360 -1.2008 -2.9970 -0.1502
    5CHL1  H18B  325   4.666   6.980   5.195  1.8656  1.7668 -0.5496
    5CHL1  H18C  326   4.604   7.146   5.210  1.4136 -1.0981 -3.8894
    5CHL1   C12  327   4.364   7.060   5.385 -0.2565 -0.1758  1.1028
    5CHL1  H12A  328   4.345   7.170   5.384  1.0390  0.1204  3.1617
    5CHL1  H12B  329   4.260   7.024   5.372 -0.3252  0.5997 -0.7696
    5CHL1   C11  330   4.423   7.031   5.518 -0.3626  0.1526 -0.5180
    5CHL1  H11A  331   4.526   7.068   5.539  0.1482 -1.1122 -0.7073
    5CHL1  H11B  332   4.347   7.062   5.592  0.4690 -0.2657  0.5338
    5CHL1    C9  333   4.435   6.869   5.540  0.3397  0.0592  0.7603
    5CHL1    H9  334   4.329   6.838   5.533  0.5921 -0.5545 -0.6542
    5CHL1   C10  335   4.503   6.823   5.677  0.1664  0.3257 -0.3632
    5CHL1   C19  336   4.633   6.896   5.702 -0.1292  0.1974 -0.4400
    5CHL1  H19A  337   4.625   7.005   5.723  1.6195  0.8753 -2.8314
    5CHL1  H19B  338   4.685   6.845   5.786 -2.4574  0.0583  0.9899
    5CHL1  H19C  339   4.697   6.897   5.612  0.1675  0.1876 -0.2307
    5CHL1    C1  340   4.406   6.856   5.796 -0.0719 -0.8636  0.7004
    5CHL1   H1A  341   4.406   6.964   5.822  0.6739 -0.9992  1.2645
    5CHL1   H1B  342   4.307   6.814   5.765  0.3262 -0.5015 -1.2327
    5CHL1    C2  343   4.417   6.783   5.927 -0.1811 -0.1009 -0.1465
    5CHL1   H2A  344   4.334   6.820   5.992  1.5899  3.4436  0.3268
    5CHL1   H2B  345   4.509   6.814   5.981 -1.2550  1.5847  0.8209
    5CHL1   C20  346   4.391   7.135   5.038 -0.1498 -0.6744 -0.5084
    5CHL1   H20  347   4.499   7.157   5.033  0.1086 -1.4054  1.3344
    5CHL1   C21  348   4.334   7.252   5.119  0.2142  0.2377 -0.7585
    5CHL1  H21A  349   4.244   7.247   5.184  1.3270  0.7044  0.8903
    5CHL1  H21B  350   4.323   7.346   5.060  0.5665 -0.4017 -1.8582
    5CHL1  H21C  351   4.405   7.287   5.197  0.1020 -2.5390  0.7176
    5CHL1   C22  352   4.336   7.133   4.890 -0.2319  0.0784 -0.2068
    5CHL1  H22A  353   4.372   7.228   4.844  0.5197  0.8698  1.8538
    5CHL1  H22B  354   4.387   7.047   4.841  1.4026  1.0949 -0.3815
    5CHL1   C23  355   4.182   7.137   4.889  0.7930  0.0345 -0.0160
    5CHL1  H23A  356   4.143   7.041   4.931  2.5483 -0.7451 -0.0810
    5CHL1  H23B  357   4.143   7.224   4.946  0.5315  0.0660 -0.2383
    5CHL1   C24  358   4.134   7.157   4.743  0.6479 -0.1101  0.3618
    5CHL1  H24A  359   4.036   7.209   4.743  0.1120 -1.0261 -1.8903
    5CHL1  H24B  360   4.201   7.229   4.691  0.4407 -1.7184 -2.3189
    5CHL1   C25  361   4.125   7.030   4.657 -0.2567  0.3369 -0.4972
    5CHL1   H25  362   4.204   6.955   4.676 -0.9651 -1.1394 -2.9209
    5CHL1   C26  363   3.983   6.958   4.683 -0.0344  0.0247 -0.0472
    5CHL1  H26A  364   3.985   6.863   4.626 -3.3739  0.1377 -0.5394
    5CHL1  H26B  365   3.976   6.944   4.793  2.3937 -0.4699  0.0868
    5CHL1  H26C  366   3.898   7.022   4.653 -0.7213 -0.3989  0.9104
    5CHL1   C27  367   4.132   7.072   4.511  0.4616  0.0015 -0.0241
    5CHL1  H27A  368   4.080   7.011   4.434  2.9954  0.9430 -2.6657
    5CHL1  H27B  369   4.101   7.179   4.501  0.9778  0.7052  4.0157
    5CHL1  H27C  370   4.237   7.059   4.477  0.5630  0.9155 -0.0825
    6CHL1    C3  371   4.688   4.357   5.885 -0.1016  0.7223 -0.8937
    6CHL1    H3  372   4.784   4.399   5.847  0.7595 -2.2354 -2.3445
    6CHL1    O3  373   4.688   4.368   6.028 -0.6159  0.2158  0.5609
    6CHL1   H3'  374   4.715   4.281   6.059 -0.1603 -0.0015 -0.4176
    6CHL1    C4  375   4.569   4.423   5.832  0.5001 -0.4658  0.3044
    6CHL1   H4A  376   4.478   4.388   5.884 -0.5105  2.1081  0.3988
    6CHL1   H4B  377   4.581   4.532   5.849  2.5103 -0.6761  0.4707
    6CHL1    C5  378   4.543   4.404   5.681  0.5588  0.3986  0.0172
    6CHL1    C6  379   4.529   4.506   5.593 -0.2949 -0.4371  0.8535
    6CHL1    H6  380   4.549   4.607   5.632  3.6000 -0.4068 -0.7236
    6CHL1    C7  381   4.517   4.492   5.446 -0.2448  0.3804  0.0020
    6CHL1   H7A  382   4.440   4.556   5.397  3.1883  3.6636 -1.6317
    6CHL1   H7B  383   4.612   4.522   5.396 -0.0233  0.7154  0.6114
    6CHL1    C8  384   4.491   4.345   5.405 -0.6554 -0.0704  0.5223
    6CHL1    H8  385   4.389   4.311   5.433 -0.1826 -0.0336  2.4197
    6CHL1   C14  386   4.530   4.323   5.257 -0.0067 -0.1261 -0.3035
    6CHL1   H14  387   4.640   4.335   5.247  0.1340 -2.4173 -2.7664
    6CHL1   C15  388   4.467   4.423   5.152 -0.6074 -0.2452 -0.1949
    6CHL1  H15A  389   4.357   4.430   5.158 -0.6656 -0.4042 -0.9773
    6CHL1  H15B  390   4.501   4.529   5.147  1.0487 -0.6450  1.2821
    6CHL1   C16  391   4.501   4.353   5.019  0.6254  0.0585  0.4777
    6CHL1  H16A  392   4.405   4.339   4.965  0.7937 -1.6088  0.5406
    6CHL1  H16B  393   4.579   4.399   4.954 -0.1849  0.3292 -0.3312
    6CHL1   C17  394   4.563   4.213   5.055 -0.1359  0.6065  0.8730
    6CHL1   H17  395   4.673   4.225   5.061  0.3816 -2.0142 -1.2626
    6CHL1   C13  396   4.511   4.185   5.202  0.1755  0.1393  0.1994
    6CHL1   C18  397   4.358   4.143   5.205  0.2216 -0.3137  0.3563
    6CHL1  H18A  398   4.293   4.178   5.122 -0.6290 -1.7220  0.3932
    6CHL1  H18B  399   4.350   4.033   5.192  0.6225 -0.5077  1.5969
    6CHL1  H18C  400   4.306   4.159   5.303 -0.7898 -1.6267  0.0703
    6CHL1   C12  401   4.607   4.087   5.281 -0.2232 -0.1136 -0.1290
    6CHL1  H12A  402   4.581   3.981   5.257 -2.2252  0.5111 -0.8916
    6CHL1  H12B  403   4.714   4.097   5.253  0.4529 -0.7139  2.0159
    6CHL1   C11  404   4.579   4.098   5.428  0.1687 -1.0142 -0.2244
    6CHL1  H11A  405   4.480   4.053   5.451 -1.3007  1.7959 -0.5350
    6CHL1  H11B  406   4.665   4.048   5.478  0.4556  1.2270  1.7149
    6CHL1    C9  407   4.581   4.245   5.481 -0.0747 -0.0685 -0.0431
    6CHL1    H9  408   4.681   4.285   5.453 -0.6513 -0.3183 -2.8225
    6CHL1   C10  409   4.560   4.262   5.636  0.9942 -0.5597 -0.4230
    6CHL1   C19  410   4.426   4.190   5.672 -0.5979  0.0019 -0.1362
    6CHL1  H19A  411   4.445   4.081   5.672 -0.4896  0.0060  1.0773
    6CHL1  H19B  412   4.404   4.208   5.779  2.6845  0.8492  0.5111
    6CHL1  H19C  413   4.342   4.201   5.600 -1.0944 -2.3701  0.0162
    6CHL1    C1  414   4.674   4.185   5.711 -0.4242 -0.3635 -0.2610
    6CHL1   H1A  415   4.664   4.075   5.702  1.0094 -0.6180  0.9051
    6CHL1   H1B  416   4.773   4.222   5.678 -0.2255  2.2344  2.6864
    6CHL1    C2  417   4.681   4.205   5.858  0.4726  0.5141  0.4635
    6CHL1   H2A  418   4.777   4.164   5.897  1.6414  2.2136 -0.4848
    6CHL1   H2B  419   4.597   4.152   5.907 -0.3185  1.8921  0.6617
    6CHL1   C20  420   4.536   4.104   4.945  0.0757 -0.2333 -0.7337
    6CHL1   H20  421   4.425   4.096   4.941  0.1349 -0.5687 -3.3393
    6CHL1   C21  422   4.583   3.956   4.990 -0.1750 -0.2326 -1.0877
    6CHL1  H21A  423   4.509   3.906   5.058  0.1530  1.4923  0.6119
    6CHL1  H21B  424   4.681   3.960   5.041 -0.5322  1.7287 -0.4692
    6CHL1  H21C  425   4.594   3.889   4.902 -1.1287 -0.7819 -0.8082
    6CHL1   C22  426   4.585   4.141   4.807 -0.5616 -0.4989 -0.6395
    6CHL1  H22A  427   4.566   4.248   4.783  0.5323 -0.1440 -0.0093
    6CHL1  H22B  428   4.696   4.137   4.795 -0.4923  0.3880 -0.3500
    6CHL1   C23  429   4.533   4.062   4.691  0.4186 -0.2841 -1.0681
    6CHL1  H23A  430   4.562   3.956   4.709 -0.9031 -0.2116  2.1261
    6CHL1  H23B  431   4.422   4.067   4.696  0.5068  1.7948 -0.4859
    6CHL1   C24  432   4.562   4.121   4.558  0.2854  0.0278  0.0394
    6CHL1  H24A  433   4.480   4.087   4.491  0.3689 -0.4033  0.1531
    6CHL1  H24B  434   4.560   4.232   4.548 -1.1250  0.0677  0.6199
    6CHL1   C25  435   4.700   4.077   4.498 -0.0569  0.0312 -0.2146
    6CHL1   H25  436   4.716   3.973   4.532 -0.5319  0.1120  0.2652
    6CHL1   C26  437   4.692   4.067   4.344 -0.5145 -0.0535 -0.1754
    6CHL1  H26A  438   4.589   4.034   4.318 -0.1764 -0.7226 -0.7244
    6CHL1  H26B  439   4.701   4.173   4.312 -0.8509  1.2369  3.5131
    6CHL1  H26C  440   4.778   4.005   4.310  0.5730  1.0960  0.4002
    6CHL1   C27  441   4.833   4.159   4.539  0.4815  0.6751 -0.8270
    6CHL1  H27A  442   4.917   4.094   4.509  0.6324  1.2689 -1.7393
    6CHL1  H27B  443   4.849   4.243   4.468 -0.5458  1.1308 -0.5427
    6CHL1  H27C  444   4.833   4.187   4.647 -0.9731 -2.3857  0.0726
    7CHL1    C3  445   6.170   3.824   5.794  0.1442  0.1983  0.1680
    7CHL1    H3  446   6.277   3.795   5.779  0.2571  1.7144 -2.8397
    7CHL1    O3  447   6.152   3.857   5.932 -0.1477  0.0030  0.0350
    7CHL1   H3'  448   6.060   3.874   5.952  0.2836  2.3734  0.2557
    7CHL1    C4  449   6.149   3.941   5.703 -0.4686 -0.1439  0.4977
    7CHL1   H4A  450   6.043   3.976   5.708 -0.8828 -1.0257 -1.3429
    7CHL1   H4B  451   6.223   4.019   5.731  0.5019 -0.5247 -0.8978
    7CHL1    C5  452   6.184   3.899   5.561 -0.9703 -0.2730  0.6009
    7CHL1    C6  453   6.275   3.965   5.487 -0.2492 -0.5443  0.0927
    7CHL1    H6  454   6.323   4.051   5.536 -1.8296  0.3237  0.1632
    7CHL1    C7  455   6.323   3.942   5.347  0.1236  0.5777  0.1887
    7CHL1   H7A  456   6.335   4.036   5.291 -1.9873  0.0031 -1.3399
    7CHL1   H7B  457   6.415   3.882   5.330 -0.0744  0.9556 -2.7368
    7CHL1    C8  458   6.211   3.859   5.276 -0.2795  1.5853  0.2199
    7CHL1    H8  459   6.123   3.926   5.262 -0.9813  0.4851 -0.9096
    7CHL1   C14  460   6.272   3.814   5.145  0.2503  0.4534  0.3418
    7CHL1   H14  461   6.353   3.746   5.178  0.7028  0.3762 -0.8918
    7CHL1   C15  462   6.322   3.930   5.050 -0.2830  0.3628  0.3747
    7CHL1  H15A  463   6.242   4.006   5.057  1.4716  2.3255  0.2644
    7CHL1  H15B  464   6.413   3.985   5.083 -0.0728 -0.5515  1.3793
    7CHL1   C16  465   6.323   3.874   4.906  0.1417  0.1879 -0.5473
    7CHL1  H16A  466   6.267   3.943   4.839  0.6954  2.2795  1.0252
    7CHL1  H16B  467   6.430   3.873   4.876 -0.2826  0.3835 -2.1794
    7CHL1   C17  468   6.261   3.734   4.924  0.5317 -0.4554 -0.2127
    7CHL1   H17  469   6.350   3.668   4.938  0.5830 -0.7030 -1.5664
    7CHL1   C13  470   6.182   3.732   5.050  0.3684 -0.7830 -0.0778
    7CHL1   C18  471   6.051   3.813   5.022 -0.6202 -0.6441 -0.2771
    7CHL1  H18A  472   6.001   3.842   5.117 -1.8233  1.1301 -1.4039
    7CHL1  H18B  473   6.064   3.914   4.977 -3.1376  0.6671  1.6660
    7CHL1  H18C  474   5.984   3.749   4.962  0.8644 -1.8869 -0.6694
    7CHL1   C12  475   6.146   3.601   5.124 -0.0359  0.3744 -0.6473
    7CHL1  H12A  476   6.061   3.562   5.065  0.2116  0.9116 -1.3707
    7CHL1  H12B  477   6.225   3.523   5.126 -1.3899 -1.0383 -0.8956
    7CHL1   C11  478   6.103   3.630   5.271  0.0767 -0.6254 -0.1543
    7CHL1  H11A  479   6.001   3.670   5.259  0.6643  0.6557 -1.0618
    7CHL1  H11B  480   6.084   3.527   5.309 -1.4350 -1.2464 -2.4058
    7CHL1    C9  481   6.179   3.733   5.361  0.1035 -0.6140 -0.6870
    7CHL1    H9  482   6.269   3.675   5.388  1.1939  0.8613 -1.0438
    7CHL1   C10  483   6.118   3.767   5.503 -0.3001 -0.7666 -0.8365
    7CHL1   C19  484   5.963   3.808   5.479 -0.3589  0.6225  0.4963
    7CHL1  H19A  485   5.913   3.848   5.570  0.4339  0.5518  0.9698
    7CHL1  H19B  486   5.952   3.873   5.390  1.0416  1.9126  1.2198
    7CHL1  H19C  487   5.900   3.722   5.448  3.1384 -1.1636 -2.4804
    7CHL1    C1  488   6.130   3.651   5.606 -0.0031 -0.0143  0.8906
    7CHL1   H1A  489   6.067   3.573   5.558 -0.1492  0.5662  0.1074
    7CHL1   H1B  490   6.234   3.613   5.603 -0.1154 -0.2655  0.1343
    7CHL1    C2  491   6.085   3.704   5.745 -0.0244  0.2623 -0.1737
    7CHL1   H2A  492   6.111   3.622   5.816 -1.4027  0.2559  0.3660
    7CHL1   H2B  493   5.978   3.729   5.765 -0.1266  0.7619 -1.3033
    7CHL1   C20  494   6.198   3.673   4.787 -0.5442 -0.0225 -0.4957
    7CHL1   H20  495   6.088   3.680   4.783 -0.7056 -1.1504  1.1100
    7CHL1   C21  496   6.229   3.520   4.782  0.5197  0.0799  0.5031
    7CHL1  H21A  497   6.154   3.469   4.717 -0.1514  1.1633  0.4045
    7CHL1  H21B  498   6.227   3.478   4.884  1.4873 -1.2577  0.0053
    7CHL1  H21C  499   6.331   3.500   4.743 -0.2295 -1.7373 -0.7130
    7CHL1   C22  500   6.247   3.745   4.661 -0.3768  0.1096  0.4310
    7CHL1  H22A  501   6.243   3.856   4.659 -1.6462  0.1075  1.3638
    7CHL1  H22B  502   6.355   3.720   4.656 -0.6230 -1.0007  0.3958
    7CHL1   C23  503   6.167   3.697   4.533 -0.3270 -0.6167 -0.6864
    7CHL1  H23A  504   6.171   3.586   4.542  0.7947 -0.6291 -1.1994
    7CHL1  H23B  505   6.068   3.741   4.559  0.8085  1.0929  1.0047
    7CHL1   C24  506   6.222   3.752   4.402  1.2459  0.4499 -0.0006
    7CHL1  H24A  507   6.180   3.854   4.407 -0.5813 -0.2603 -0.3500
    7CHL1  H24B  508   6.333   3.751   4.409  1.3881  1.2197 -1.5842
    7CHL1   C25  509   6.182   3.682   4.266  0.3870 -0.2462 -0.5110
    7CHL1   H25  510   6.207   3.575   4.278 -0.7237 -0.4216  0.4537
    7CHL1   C26  511   6.031   3.689   4.248 -0.5029  0.4001 -0.3221
    7CHL1  H26A  512   5.987   3.641   4.338  0.9373  0.7442  0.6066
    7CHL1  H26B  513   5.993   3.793   4.237 -0.6518  0.5445  1.3335
    7CHL1  H26C  514   6.000   3.642   4.153  1.1362  1.0641 -1.2377
    7CHL1   C27  515   6.266   3.731   4.151  0.3115  0.5668  0.3334
    7CHL1  H27A  516   6.243   3.670   4.061  2.1692  0.5663 -0.1746
    7CHL1  H27B  517   6.256   3.840   4.131 -1.6068  0.4587  0.5336
    7CHL1  H27C  518   6.371   3.710   4.178  0.3218  0.9513  0.6044
    8CHL1    C3  519   4.080   6.238   5.646 -0.3990  0.2014 -0.1085
    8CHL1    H3  520   4.182   6.228   5.603  0.7065 -0.9870  2.5745
    8CHL1    O3  521   4.072   6.207   5.783  0.2928  0.6778  0.4855
    8CHL1   H3'  522   4.138   6.263   5.824 -0.0595  1.7230 -0.3253
    8CHL1    C4  523   4.040   6.386   5.629  0.0346  0.1660 -0.1872
    8CHL1   H4A  524   3.940   6.400   5.676  0.1205  1.4459 -0.3486
    8CHL1   H4B  525   4.106   6.442   5.699  0.7518  1.3189 -1.7158
    8CHL1    C5  526   4.025   6.437   5.485  0.0708 -0.6068  0.1775
    8CHL1    C6  527   4.086   6.541   5.428 -0.1706 -0.9732  0.5195
    8CHL1    H6  528   4.148   6.605   5.493  0.9108 -0.4393 -1.0080
    8CHL1    C7  529   4.083   6.586   5.285 -0.4710 -0.0661  0.3742
    8CHL1   H7A  530   4.099   6.695   5.277  0.5441 -0.1867  0.6097
    8CHL1   H7B  531   4.185   6.553   5.254 -0.4264 -0.4270  0.8714
    8CHL1    C8  532   3.962   6.525   5.213 -0.1210  0.7604 -0.0921
    8CHL1    H8  533   3.875   6.579   5.253 -0.3249  0.7265 -0.4833
    8CHL1   C14  534   3.971   6.536   5.064  0.1614 -0.5789 -0.5246
    8CHL1   H14  535   4.068   6.493   5.030  1.1192 -0.2585  1.6198
    8CHL1   C15  536   3.972   6.681   5.018 -0.9044 -0.5432 -0.5271
    8CHL1  H15A  537   3.913   6.755   5.075 -0.7681 -0.6520 -0.2466
    8CHL1  H15B  538   4.076   6.720   5.012 -0.2860 -1.7587  1.4144
    8CHL1   C16  539   3.914   6.675   4.879 -0.0523  0.3166  0.0934
    8CHL1  H16A  540   3.835   6.752   4.870 -2.4033 -1.9526  0.0336
    8CHL1  H16B  541   4.008   6.700   4.825 -0.5734  1.4377 -0.3183
    8CHL1   C17  542   3.872   6.531   4.847  0.2516  0.4935 -0.3626
    8CHL1   H17  543   3.951   6.471   4.798 -0.2873  0.6929 -1.5080
    8CHL1   C13  544   3.851   6.472   4.992  0.5065 -0.0866 -0.1107
    8CHL1   C18  545   3.714   6.529   5.042 -0.1853 -0.5192  0.0269
    8CHL1  H18A  546   3.700   6.505   5.150  2.2170 -1.3077  0.2244
    8CHL1  H18B  547   3.713   6.640   5.047  0.9871 -0.4964  0.2347
    8CHL1  H18C  548   3.628   6.498   4.979 -0.7664  0.0221  0.5416
    8CHL1   C12  549   3.866   6.322   5.014 -0.9355 -0.5998 -0.5915
    8CHL1  H12A  550   3.803   6.263   4.944 -0.4995 -1.6204 -0.1301
    8CHL1  H12B  551   3.973   6.314   4.986 -0.6697  0.5637  0.0143
    8CHL1   C11  552   3.857   6.284   5.160 -0.5938 -0.2254  0.6076
    8CHL1  H11A  553   3.751   6.286   5.194  0.3185  2.8601  3.9209
    8CHL1  H11B  554   3.894   6.179   5.159 -1.4292 -0.5505  1.8523
    8CHL1    C9  555   3.952   6.373   5.243 -0.2080 -0.5102 -0.0189
    8CHL1    H9  556   4.056   6.349   5.212 -0.4964  2.0001 -3.5960
    8CHL1   C10  557   3.946   6.341   5.395 -0.0729  0.4406  0.0460
    8CHL1   C19  558   3.798   6.375   5.443  0.0172  0.2049  0.3323
    8CHL1  H19A  559   3.779   6.485   5.435  3.5200  0.9088  0.1358
    8CHL1  H19B  560   3.715   6.315   5.402 -1.2530  2.1161 -0.0384
    8CHL1  H19C  561   3.777   6.350   5.550 -0.4036 -0.7169  0.0380
    8CHL1    C1  562   3.995   6.192   5.417  0.3145  0.1106  0.8086
    8CHL1   H1A  563   3.926   6.130   5.357 -1.1725  0.9330  1.6124
    8CHL1   H1B  564   4.098   6.181   5.376  0.4681  0.7353  1.0072
    8CHL1    C2  565   3.992   6.154   5.566  0.0778  0.4319  0.2865
    8CHL1   H2A  566   4.017   6.046   5.573 -0.5644  0.2226 -0.5080
    8CHL1   H2B  567   3.888   6.161   5.605 -0.0437 -1.2229  0.3280
    8CHL1   C20  568   3.755   6.528   4.747  0.9506 -0.1114  0.0534
    8CHL1   H20  569   3.666   6.587   4.778 -0.4242 -1.2090 -1.6003
    8CHL1   C21  570   3.707   6.381   4.730 -0.0697  0.2368  0.4976
    8CHL1  H21A  571   3.793   6.314   4.708  0.1306  0.6001  0.1683
    8CHL1  H21B  572   3.631   6.380   4.648 -0.2459 -0.0616  0.6656
    8CHL1  H21C  573   3.657   6.342   4.821 -1.2932  1.4259  0.3712
    8CHL1   C22  574   3.788   6.594   4.608  0.2302  0.7471 -0.8927
    8CHL1  H22A  575   3.698   6.574   4.545 -1.1629  0.0424  1.1996
    8CHL1  H22B  576   3.782   6.703   4.625 -0.0983  0.6066 -0.0420
    8CHL1   C23  577   3.909   6.541   4.531 -0.7449  0.7674 -0.5207
    8CHL1  H23A  578   3.997   6.583   4.585  0.9833 -3.7555  0.7295
    8CHL1  H23B  579   3.912   6.430   4.538 -2.6189  0.6950 -0.4120
    8CHL1   C24  580   3.907   6.600   4.391  0.5650 -0.8502  0.1971
    8CHL1  H24A  581   3.813   6.587   4.334  0.5832 -0.5680  0.1023
    8CHL1  H24B  582   3.921   6.709   4.404 -2.0375 -0.3578 -0.5658
    8CHL1   C25  583   4.015   6.544   4.301 -0.0058 -0.5020 -0.4104
    8CHL1   H25  584   3.992   6.436   4.284 -1.7853 -0.3040  0.4593
    8CHL1   C26  585   4.011   6.619   4.170 -0.2692 -0.3257 -0.0411
    8CHL1  H26A  586   3.917   6.613   4.111 -0.7147  1.2687  0.4698
    8CHL1  H26B  587   4.026   6.725   4.197  2.0994 -0.1571 -1.7032
    8CHL1  H26C  588   4.095   6.602   4.099 -1.0341 -0.8912 -0.8362
    8CHL1   C27  589   4.156   6.542   4.371  0.0469  0.0028  0.1881
    8CHL1  H27A  590   4.197   6.639   4.405 -1.0365  1.4273 -2.3021
    8CHL1  H27B  591   4.165   6.457   4.442  0.8042 -2.7117 -2.8785
    8CHL1  H27C  592   4.223   6.510   4.288 -0.1613 -1.2942  0.4959
    9CHL1    C3  593   0.169   6.245   6.107 -0.0456  0.8116 -0.4116
    9CHL1    H3  594   0.071   6.261   6.056  0.3731  1.3514 -1.0735
    9CHL1    O3  595   0.159   6.290   6.244 -0.3392  0.1232  0.2019
    9CHL1   H3'  596   0.171   6.385   6.234 -1.8875  0.4070  0.7722
    9CHL1    C4  597   0.205   6.091   6.103  0.2330  0.0552 -0.5254
    9CHL1   H4A  598   0.294   6.061   6.162 -0.0382  0.3212  0.0319
    9CHL1   H4B  599   0.132   6.032   6.162 -3.3710  2.4381 -2.2062
    9CHL1    C5  600   0.223   6.057   5.956 -0.0650 -0.1103  0.0047
    9CHL1    C6  601   0.143   5.950   5.920  0.5770 -0.6837  0.7930
    9CHL1    H6  602   0.080   5.904   5.997  0.0191  0.4331  1.0327
    9CHL1    C7  603   0.139   5.907   5.771 -0.0853  0.3472 -0.2041
    9CHL1   H7A  604   0.129   5.798   5.752  0.1214  0.4226 -0.7587
    9CHL1   H7B  605   0.052   5.963   5.729  1.4511  0.6622 -3.1698
    9CHL1    C8  606   0.252   5.966   5.684  0.3437 -0.8269  0.1862
    9CHL1    H8  607   0.350   5.921   5.710  0.3049 -0.2048  1.5128
    9CHL1   C14  608   0.219   5.957   5.527  0.0223  0.5222 -0.7153
    9CHL1   H14  609   0.131   6.023   5.517 -1.2643 -0.5017  2.5232
    9CHL1   C15  610   0.179   5.816   5.472  0.1371 -0.1459  0.2187
    9CHL1  H15A  611   0.240   5.733   5.512  0.8398 -0.3897 -1.2882
    9CHL1  H15B  612   0.070   5.801   5.491  0.1260  0.7954  0.9875
    9CHL1   C16  613   0.206   5.824   5.322 -0.4944  0.0855  0.5582
    9CHL1  H16A  614   0.266   5.731   5.309 -1.2284 -0.3692  0.3903
    9CHL1  H16B  615   0.110   5.814   5.267 -0.8483  2.6028  0.6356
    9CHL1   C17  616   0.284   5.955   5.295 -0.3315 -0.2809  0.6326
    9CHL1   H17  617   0.208   6.033   5.270  0.2315 -0.2628 -1.1457
    9CHL1   C13  618   0.330   6.006   5.436 -0.6110  0.0230 -0.2322
    9CHL1   C18  619   0.456   5.916   5.478 -0.0966  0.1801 -0.4295
    9CHL1  H18A  620   0.442   5.806   5.486 -0.3399 -0.0396 -3.1689
    9CHL1  H18B  621   0.523   5.922   5.390 -0.7680  0.6509 -0.9162
    9CHL1  H18C  622   0.510   5.951   5.569  0.0511  0.8564 -0.7693
    9CHL1   C12  623   0.337   6.149   5.461 -0.2493 -0.8519 -0.5814
    9CHL1  H12A  624   0.417   6.193   5.397  1.5259 -2.2906  0.5465
    9CHL1  H12B  625   0.245   6.197   5.421  0.1720 -1.0557 -1.8427
    9CHL1   C11  626   0.370   6.192   5.610 -0.1845 -0.6190 -1.0865
    9CHL1  H11A  627   0.477   6.172   5.632 -0.8156 -0.8275  2.3143
    9CHL1  H11B  628   0.357   6.302   5.618 -0.4577 -0.6708 -0.7959
    9CHL1    C9  629   0.272   6.124   5.713 -0.3152  0.5866  0.0753
    9CHL1    H9  630   0.170   6.164   5.691 -0.1041  0.0017 -2.3601
    9CHL1   C10  631   0.307   6.150   5.864  0.3367 -0.4927  0.4291
    9CHL1   C19  632   0.452   6.100   5.890 -0.7957 -0.2990 -0.6377
    9CHL1  H19A  633   0.478   6.108   5.998  1.0589 -0.6991 -1.0245
    9CHL1  H19B  634   0.472   5.992   5.873  1.0133  0.0158 -0.7005
    9CHL1  H19C  635   0.537   6.142   5.832 -0.0332 -1.0564 -0.0891
    9CHL1    C1  636   0.286   6.306   5.889  0.4268  0.1196  0.4856
    9CHL1   H1A  637   0.368   6.370   5.850  1.5760 -1.7869 -0.3332
    9CHL1   H1B  638   0.190   6.329   5.837  1.0958 -0.1979 -0.9480
    9CHL1    C2  639   0.274   6.329   6.042 -0.1388  0.2515 -0.0636
    9CHL1   H2A  640   0.257   6.439   6.055 -1.5439  0.1164 -0.5831
    9CHL1   H2B  641   0.369   6.297   6.088 -0.2079  0.2402  0.0721
    9CHL1   C20  642   0.377   5.939   5.173  0.1651 -0.3217  0.6178
    9CHL1   H20  643   0.446   6.026   5.175 -1.5063  1.0878  2.7868
    9CHL1   C21  644   0.297   5.974   5.051 -0.8591 -0.0861  0.2753
    9CHL1  H21A  645   0.194   5.933   5.041 -0.5981 -0.5149 -0.8076
    9CHL1  H21B  646   0.350   5.957   4.955  2.1775  1.4990  1.5477
    9CHL1  H21C  647   0.285   6.083   5.066  0.6573  0.4165 -1.7401
    9CHL1   C22  648   0.466   5.803   5.161  0.1822  0.0160  0.2125
    9CHL1  H22A  649   0.524   5.784   5.253 -0.6502 -0.3249  0.6756
    9CHL1  H22B  650   0.380   5.735   5.139  0.1030 -0.4132  1.7584
    9CHL1   C23  651   0.563   5.784   5.041  0.2218 -0.2593 -0.3249
    9CHL1  H23A  652   0.617   5.691   5.069 -0.3639 -0.0568  1.6256
    9CHL1  H23B  653   0.511   5.779   4.943  2.3106  0.9038 -1.5625
    9CHL1   C24  654   0.665   5.895   5.034 -0.2346 -0.2773 -0.6576
    9CHL1  H24A  655   0.621   5.992   5.001  0.1467 -1.0570 -3.8651
    9CHL1  H24B  656   0.712   5.908   5.134 -3.2382  1.2724  0.6612
    9CHL1   C25  657   0.773   5.869   4.932 -0.5517  0.4908  0.1545
    9CHL1   H25  658   0.723   5.867   4.833  0.3538  0.7705 -0.3295
    9CHL1   C26  659   0.887   5.980   4.928 -0.0313 -0.2495 -0.0053
    9CHL1  H26A  660   0.839   6.080   4.931  0.4190 -0.0564  1.0427
    9CHL1  H26B  661   0.955   5.968   5.015 -1.9631  1.0594  1.7894
    9CHL1  H26C  662   0.942   5.969   4.832  1.5572  1.1861  0.6759
    9CHL1   C27  663   0.851   5.736   4.945  0.2052  0.3512  0.2762
    9CHL1  H27A  664   0.936   5.755   5.015  0.9174  0.0140 -0.4757
    9CHL1  H27B  665   0.788   5.660   4.995 -0.1050  1.6691  1.9782
    9CHL1  H27C  666   0.891   5.709   4.845  0.1561 -1.2037  0.6504
   10CHL1    C3  667   2.392   0.651   6.455  0.3225  0.1400  0.3660
   10CHL1    H3  668   2.410   0.755   6.419 -0.5343  0.1863  0.0642
   10CHL1    O3  669   2.417   0.649   6.595 -0.0709  0.3037 -0.4937
   10CHL1   H3'  670   2.511   0.646   6.613 -0.3532 -3.1843  1.2780
   10CHL1    C4  671   2.240   0.630   6.437 -0.2272 -0.0781 -0.5125
   10CHL1   H4A  672   2.212   0.525   6.460 -0.3170 -0.5409 -2.5714
   10CHL1   H4B  673   2.185   0.695   6.508 -0.7432 -0.5127 -0.5049
   10CHL1    C5  674   2.190   0.653   6.299 -0.0065  0.2842  0.5179
   10CHL1    C6  675   2.092   0.735   6.274  0.9923  0.2545  0.4229
   10CHL1    H6  676   2.042   0.797   6.351  1.4301  0.9288  0.1749
   10CHL1    C7  677   2.042   0.747   6.129 -0.3653  0.7766 -0.0056
   10CHL1   H7A  678   1.933   0.735   6.111 -0.1348  0.1579 -1.1359
   10CHL1   H7B  679   2.063   0.854   6.106  0.0241  0.8852  0.8511
   10CHL1    C8  680   2.111   0.657   6.028  0.2404 -0.1103  0.4486
   10CHL1    H8  681   2.047   0.566   6.019 -0.7400  0.4865  1.2062
   10CHL1   C14  682   2.103   0.736   5.893  0.2175  0.3264 -0.4043
   10CHL1   H14  683   2.174   0.820   5.914  0.3189  0.1596 -0.0646
   10CHL1   C15  684   1.973   0.798   5.848  0.0544 -0.0261 -0.3177
   10CHL1  H15A  685   1.890   0.729   5.875 -0.6633  1.4565  1.5163
   10CHL1  H15B  686   1.969   0.898   5.896 -0.9173  0.6867 -1.8121
   10CHL1   C16  687   1.989   0.813   5.699 -0.1499 -0.2748  0.0362
   10CHL1  H16A  688   1.904   0.768   5.644 -0.9787 -0.7037  1.6165
   10CHL1  H16B  689   1.978   0.917   5.661 -1.8278  0.1009  1.4138
   10CHL1   C17  690   2.124   0.756   5.652  0.0305 -0.0365 -0.2061
   10CHL1   H17  691   2.190   0.846   5.658 -0.1920  0.0929  0.4159
   10CHL1   C13  692   2.155   0.660   5.772  0.0937  0.7722 -0.1249
   10CHL1   C18  693   2.073   0.528   5.766 -0.0875  0.0898  0.2561
   10CHL1  H18A  694   1.969   0.520   5.803  0.1053 -2.0686  0.5105
   10CHL1  H18B  695   2.091   0.478   5.668  0.9055  2.5117 -0.8736
   10CHL1  H18C  696   2.106   0.449   5.838  0.5550  0.6776  0.6210
   10CHL1   C12  697   2.305   0.623   5.803 -0.2095 -0.0579  0.2648
   10CHL1  H12A  698   2.338   0.558   5.719 -1.1871 -0.7486  0.4009
   10CHL1  H12B  699   2.370   0.713   5.805  0.0693 -0.2421 -0.1897
   10CHL1   C11  700   2.322   0.550   5.934 -0.5844  0.0661 -0.8058
   10CHL1  H11A  701   2.291   0.443   5.929  0.1907 -0.1104 -2.4654
   10CHL1  H11B  702   2.432   0.548   5.948 -0.4678  1.8659 -1.2616
   10CHL1    C9  703   2.257   0.621   6.054 -0.3937 -0.3606  0.6225
   10CHL1    H9  704   2.313   0.717   6.059 -1.7414  0.4726  0.2278
   10CHL1   C10  705   2.279   0.566   6.196 -0.1257  0.0990 -0.3035
   10CHL1   C19  706   2.238   0.420   6.205  0.6372 -0.4892 -0.9134
   10CHL1  H19A  707   2.285   0.355   6.129  0.2376  0.3890 -1.9425
   10CHL1  H19B  708   2.238   0.374   6.306  1.8057  0.2687 -0.5488
   10CHL1  H19C  709   2.135   0.428   6.165  0.2629  0.6696  0.1785
   10CHL1    C1  710   2.435   0.573   6.228  0.3049  0.5523 -0.0858
   10CHL1   H1A  711   2.486   0.511   6.151 -1.8067  1.3854 -2.2580
   10CHL1   H1B  712   2.470   0.677   6.208 -0.9613  0.7087 -1.7835
   10CHL1    C2  713   2.471   0.553   6.374 -0.5029  0.1967  0.1613
   10CHL1   H2A  714   2.581   0.570   6.384 -0.0277 -0.9913 -2.2616
   10CHL1   H2B  715   2.455   0.448   6.406  2.2279 -0.2859  0.2249
   10CHL1   C20  716   2.123   0.709   5.505 -0.3085  0.7519  0.1897
   10CHL1   H20  717   2.043   0.635   5.486 -0.0860  0.3287  0.8826
   10CHL1   C21  718   2.263   0.646   5.473  0.0254  0.0950  0.2454
   10CHL1  H21A  719   2.287   0.649   5.365 -0.0342 -1.5231  0.1642
   10CHL1  H21B  720   2.272   0.539   5.500 -1.3498 -0.1613 -0.2334
   10CHL1  H21C  721   2.341   0.705   5.525 -0.2151  0.4289  0.2281
   10CHL1   C22  722   2.072   0.823   5.415  0.0601  0.2295  1.1193
   10CHL1  H22A  723   1.972   0.861   5.447 -0.5708 -0.1786 -0.2905
   10CHL1  H22B  724   2.138   0.910   5.434 -0.7099  0.7167  1.6213
   10CHL1   C23  725   2.077   0.800   5.263  0.0231 -0.3796 -0.0306
   10CHL1  H23A  726   2.176   0.754   5.239 -1.2395 -3.4863  0.1799
   10CHL1  H23B  727   2.002   0.723   5.237  2.1563 -3.2321  1.5664
   10CHL1   C24  728   2.046   0.928   5.180  0.1351  0.4440 -0.0883
   10CHL1  H24A  729   1.951   0.977   5.211 -0.3464  0.1230 -1.0319
   10CHL1  H24B  730   2.120   1.008   5.202 -1.9857  2.1945  1.0999
   10CHL1   C25  731   2.041   0.899   5.032 -0.8412  0.4302  0.4904
   10CHL1   H25  732   2.131   0.844   4.998 -0.9868  0.1371  0.5786
   10CHL1   C26  733   1.929   0.809   4.989 -0.1949  0.1502 -0.0615
   10CHL1  H26A  734   1.835   0.860   5.019 -0.0311  0.3649  0.0868
   10CHL1  H26B  735   1.938   0.790   4.880 -0.4146  1.0670 -0.2522
   10CHL1  H26C  736   1.944   0.715   5.046  1.6106  0.2413 -0.3361
   10CHL1   C27  737   2.038   1.030   4.960  0.6180 -0.5328 -0.4291
   10CHL1  H27A  738   2.090   1.033   4.862  0.5367  1.1793 -0.4486
   10CHL1  H27B  739   1.933   1.067   4.965  0.7644 -0.2388  0.7040
   10CHL1  H27C  740   2.102   1.097   5.021  0.6137 -1.2783  0.4042
   11CHL1    C3  741   5.671   2.850   5.852  0.1458  0.1552  0.0740
   11CHL1    H3  742   5.704   2.955   5.837  2.6769 -0.4591  0.8688
   11CHL1    O3  743   5.637   2.836   5.985 -0.5206 -0.8869  0.1128
   11CHL1   H3'  744   5.631   2.741   5.977  1.6098 -1.0384 -0.2762
   11CHL1    C4  745   5.538   2.822   5.793  0.5938  0.3182 -0.5189
   11CHL1   H4A  746   5.487   2.729   5.829 -2.7382  2.0773 -0.2765
   11CHL1   H4B  747   5.466   2.905   5.809 -1.2851 -0.9979 -1.5880
   11CHL1    C5  748   5.564   2.793   5.645  1.1835 -0.7024 -0.1323
   11CHL1    C6  749   5.505   2.863   5.552 -0.5064 -0.3713  0.0526
   11CHL1    H6  750   5.439   2.948   5.576 -0.9006 -0.0876 -1.8489
   11CHL1    C7  751   5.527   2.850   5.410 -0.3548 -0.2620  0.3910
   11CHL1   H7A  752   5.431   2.867   5.357  0.7518 -0.8593 -1.9358
   11CHL1   H7B  753   5.590   2.931   5.367 -0.6046 -0.1180  0.2909
   11CHL1    C8  754   5.587   2.717   5.363 -0.1657 -0.1442  0.9109
   11CHL1    H8  755   5.512   2.635   5.374 -1.2316  0.7863  0.6823
   11CHL1   C14  756   5.647   2.726   5.225 -0.0253  0.5221  0.1525
   11CHL1   H14  757   5.724   2.806   5.236  1.7417 -1.2577  1.6004
   11CHL1   C15  758   5.549   2.768   5.113  0.4812 -0.5227  0.0026
   11CHL1  H15A  759   5.449   2.726   5.134 -0.3847  1.6486  0.4669
   11CHL1  H15B  760   5.535   2.878   5.119 -0.1859 -0.6266  0.4317
   11CHL1   C16  761   5.607   2.719   4.981 -0.3553  0.6437 -0.1993
   11CHL1  H16A  762   5.540   2.636   4.950  2.1696 -1.0586 -1.4534
   11CHL1  H16B  763   5.614   2.784   4.892 -1.5385 -1.2876 -1.7734
   11CHL1   C17  764   5.741   2.645   5.021  0.3208  0.5046  0.0289
   11CHL1   H17  765   5.821   2.721   5.030  0.4967  0.2473  0.6858
   11CHL1   C13  766   5.720   2.604   5.169  0.7847 -0.1201 -0.5049
   11CHL1   C18  767   5.624   2.485   5.163  0.1042 -0.3155 -0.1354
   11CHL1  H18A  768   5.587   2.449   5.262 -1.1298 -0.8628 -0.7791
   11CHL1  H18B  769   5.530   2.508   5.107 -1.0466 -1.3709  1.2641
   11CHL1  H18C  770   5.677   2.396   5.125  0.2869 -0.7132  1.0047
   11CHL1   C12  771   5.837   2.577   5.262  0.7968 -0.3875  0.3116
   11CHL1  H12A  772   5.888   2.482   5.237 -0.7032 -1.2923  0.5591
   11CHL1  H12B  773   5.903   2.666   5.249 -0.7772  0.9989  1.2392
   11CHL1   C11  774   5.801   2.566   5.414  0.1636 -0.0908 -0.7090
   11CHL1  H11A  775   5.740   2.473   5.423  1.1105 -0.6363  0.2035
   11CHL1  H11B  776   5.893   2.555   5.475  0.3773 -3.1790 -1.3959
   11CHL1    C9  777   5.707   2.689   5.458 -0.2099  0.9653 -0.1791
   11CHL1    H9  778   5.770   2.781   5.449  0.5657  0.6134  1.3185
   11CHL1   C10  779   5.671   2.689   5.604 -0.2042  0.4373 -0.1325
   11CHL1   C19  780   5.622   2.548   5.649  0.1391  0.3830  0.2751
   11CHL1  H19A  781   5.613   2.548   5.760  0.1388  2.1443  0.2966
   11CHL1  H19B  782   5.525   2.534   5.597 -1.2453  1.2621  2.4773
   11CHL1  H19C  783   5.700   2.476   5.617 -0.0234  0.4409 -0.2611
   11CHL1    C1  784   5.807   2.730   5.680 -0.2592  0.0740 -0.1388
   11CHL1   H1A  785   5.879   2.645   5.670 -2.3195 -1.7887 -0.0247
   11CHL1   H1B  786   5.847   2.824   5.637  0.7090 -0.4289 -0.3652
   11CHL1    C2  787   5.785   2.747   5.834  0.4941 -0.0936  1.4460
   11CHL1   H2A  788   5.882   2.769   5.884  2.0745 -0.1854 -1.3875
   11CHL1   H2B  789   5.761   2.643   5.867 -1.2967 -1.2632 -2.8865
   11CHL1   C20  790   5.799   2.536   4.923 -0.8654  0.2812  0.3340
   11CHL1   H20  791   5.721   2.460   4.899 -0.2643  0.2465 -1.6911
   11CHL1   C21  792   5.937   2.472   4.965  0.7493 -0.0847  0.4000
   11CHL1  H21A  793   5.921   2.406   5.053 -0.5954  2.3927  2.1641
   11CHL1  H21B  794   6.000   2.554   5.008 -0.3691 -0.2163  2.4020
   11CHL1  H21C  795   5.978   2.409   4.883  0.1007 -0.4102  0.3221
   11CHL1   C22  796   5.819   2.583   4.779  0.1302 -0.9238 -0.1416
   11CHL1  H22A  797   5.850   2.491   4.726 -0.8335 -1.8086  0.7729
   11CHL1  H22B  798   5.716   2.604   4.742 -0.4625 -3.3835 -0.0655
   11CHL1   C23  799   5.918   2.700   4.764  0.7657  0.4170 -0.4077
   11CHL1  H23A  800   5.874   2.795   4.802  0.1722 -0.4114  1.0395
   11CHL1  H23B  801   6.008   2.687   4.828  1.0736  0.7955 -0.7511
   11CHL1   C24  802   5.956   2.736   4.615  0.0361  0.4123 -0.0571
   11CHL1  H24A  803   6.019   2.827   4.601  1.1521 -0.3883 -0.3684
   11CHL1  H24B  804   6.026   2.656   4.583  0.5782  1.3489 -1.3206
   11CHL1   C25  805   5.845   2.752   4.514  0.2745  0.0159  0.0049
   11CHL1   H25  806   5.785   2.659   4.502  0.4078 -0.1768  0.8232
   11CHL1   C26  807   5.750   2.873   4.539 -0.1688  0.9475  0.1134
   11CHL1  H26A  808   5.735   2.874   4.649  1.5775  2.1307  0.3852
   11CHL1  H26B  809   5.807   2.967   4.524  1.8373  0.0707  1.7721
   11CHL1  H26C  810   5.665   2.880   4.468 -0.6317  0.8084  0.6451
   11CHL1   C27  811   5.909   2.766   4.372  0.3486 -0.4317  0.1271
   11CHL1  H27A  812   5.831   2.760   4.292  0.3813 -0.5267  0.1017
   11CHL1  H27B  813   5.956   2.865   4.354  4.0704 -2.5188 -3.3710
   11CHL1  H27C  814   5.989   2.689   4.365  1.4341  0.6563  0.2309
   12CHL1    C3  815   5.393   2.120   6.175 -0.1467 -0.0045  0.4705
   12CHL1    H3  816   5.306   2.158   6.117 -0.2935  1.2265  1.4394
   12CHL1    O3  817   5.359   2.105   6.312 -0.1852 -0.7199 -0.2658
   12CHL1   H3'  818   5.411   2.032   6.347  1.2834  0.5807  0.4797
   12CHL1    C4  819   5.422   1.978   6.123 -0.0912 -0.2286  0.3803
   12CHL1   H4A  820   5.504   1.935   6.184  0.1630  0.8688  0.8392
   12CHL1   H4B  821   5.335   1.915   6.151  0.4973 -0.3759  1.9581
   12CHL1    C5  822   5.461   1.969   5.976 -0.5465 -0.1561 -0.4869
   12CHL1    C6  823   5.392   1.897   5.891 -0.5094  0.8378 -0.0789
   12CHL1    H6  824   5.300   1.845   5.921  0.8044 -2.2249 -0.9447
   12CHL1    C7  825   5.426   1.872   5.747 -0.2617  0.1597 -0.0287
   12CHL1   H7A  826   5.448   1.763   5.739  1.8918  0.6006 -0.8381
   12CHL1   H7B  827   5.338   1.895   5.684 -0.3145  0.6355  0.2189
   12CHL1    C8  828   5.558   1.944   5.695  0.5577 -0.3445 -0.5526
   12CHL1    H8  829   5.644   1.877   5.717 -0.8879 -1.8277  0.9232
   12CHL1   C14  830   5.558   1.968   5.550 -0.7128 -0.7015  0.3250
   12CHL1   H14  831   5.487   2.052   5.543  0.2246  0.1122  0.3612
   12CHL1   C15  832   5.519   1.844   5.463  0.1235  0.3710 -0.5822
   12CHL1  H15A  833   5.567   1.748   5.490 -1.6557 -0.3856  0.0186
   12CHL1  H15B  834   5.409   1.834   5.475  0.1857  0.0199 -0.3200
   12CHL1   C16  835   5.560   1.888   5.322 -0.5755  0.8777 -0.2870
   12CHL1  H16A  836   5.619   1.813   5.264  1.2644  3.2048 -1.5921
   12CHL1  H16B  837   5.468   1.922   5.270 -2.2424 -1.0439  1.2077
   12CHL1   C17  838   5.653   2.011   5.343  0.1203  0.4498  0.2148
   12CHL1   H17  839   5.572   2.087   5.332 -0.4270 -0.2622 -0.8212
   12CHL1   C13  840   5.688   2.017   5.495 -0.2211 -0.0898  0.7694
   12CHL1   C18  841   5.806   1.920   5.520  0.1950 -0.0578  0.1232
   12CHL1  H18A  842   5.844   1.917   5.624  2.2061  1.5866 -0.4764
   12CHL1  H18B  843   5.772   1.816   5.505 -2.0710  0.8218 -1.4329
   12CHL1  H18C  844   5.892   1.950   5.455 -0.4258 -0.2610 -0.8101
   12CHL1   C12  845   5.712   2.156   5.560  0.1759 -1.1643 -0.0538
   12CHL1  H12A  846   5.816   2.192   5.538 -0.3194  1.6068  1.6076
   12CHL1  H12B  847   5.637   2.230   5.525 -1.0486 -1.9340  0.8977
   12CHL1   C11  848   5.708   2.148   5.718  0.5351  0.0929 -0.2536
   12CHL1  H11A  849   5.806   2.098   5.733  1.3616  1.4602 -0.8573
   12CHL1  H11B  850   5.709   2.254   5.752 -0.1126  0.3812 -1.0791
   12CHL1    C9  851   5.585   2.077   5.773  0.1480 -0.0328  0.5265
   12CHL1    H9  852   5.498   2.141   5.747  0.4750  1.2431  2.3608
   12CHL1   C10  853   5.577   2.054   5.928  0.0696  0.0095  0.4199
   12CHL1   C19  854   5.709   1.995   5.971  0.6149  0.1706  0.2520
   12CHL1  H19A  855   5.721   1.890   5.938  0.7700  0.2357  0.1005
   12CHL1  H19B  856   5.799   2.048   5.933  2.5006 -2.5083  0.7287
   12CHL1  H19C  857   5.720   1.995   6.081  1.7386  2.3039  0.1951
   12CHL1    C1  858   5.553   2.193   5.997 -0.0361 -0.3765  0.3340
   12CHL1   H1A  859   5.648   2.249   5.984 -0.8704  1.6138  2.1982
   12CHL1   H1B  860   5.462   2.238   5.953 -0.1042 -0.8780 -0.0456
   12CHL1    C2  861   5.515   2.205   6.147  0.0101  0.2492  0.4750
   12CHL1   H2A  862   5.498   2.309   6.181 -0.0145 -0.2153  1.9304
   12CHL1   H2B  863   5.601   2.173   6.209 -0.7927 -3.1090  0.0811
   12CHL1   C20  864   5.761   2.038   5.239 -0.2871 -0.1086 -0.1443
   12CHL1   H20  865   5.832   1.953   5.242 -1.1676 -1.0316 -2.7244
   12CHL1   C21  866   5.826   2.173   5.266 -0.8626 -0.0223 -0.3811
   12CHL1  H21A  867   5.745   2.246   5.286 -0.8221 -0.2600  0.7067
   12CHL1  H21B  868   5.876   2.218   5.177 -3.1390 -0.0639 -1.7415
   12CHL1  H21C  869   5.895   2.162   5.352 -2.0824 -2.1572  0.4047
   12CHL1   C22  870   5.709   2.022   5.085 -0.1522  0.6794 -0.6786
   12CHL1  H22A  871   5.644   1.933   5.077  0.1030  0.5018 -0.7842
   12CHL1  H22B  872   5.643   2.107   5.059 -1.7170 -0.0563  0.7067
   12CHL1   C23  873   5.823   2.008   4.984 -0.3924 -0.5814 -0.1284
   12CHL1  H23A  874   5.849   2.114   4.965  0.5942 -0.9282 -0.8212
   12CHL1  H23B  875   5.906   1.955   5.035 -0.6903  0.8572  1.9303
   12CHL1   C24  876   5.796   1.938   4.843 -0.6031  0.1166  0.2105
   12CHL1  H24A  877   5.766   1.831   4.852  0.9918 -0.5170 -1.4166
   12CHL1  H24B  878   5.705   1.989   4.806 -1.7441  0.3353  3.0864
   12CHL1   C25  879   5.910   1.964   4.737 -0.1620  0.5292 -0.2153
   12CHL1   H25  880   5.992   1.894   4.762 -2.5729 -1.8764  1.6575
   12CHL1   C26  881   5.863   1.918   4.598 -0.2583 -0.6785 -0.3805
   12CHL1  H26A  882   5.760   1.949   4.573 -0.3267 -1.1693 -0.7284
   12CHL1  H26B  883   5.930   1.958   4.518 -0.4874 -0.5448 -0.5042
   12CHL1  H26C  884   5.848   1.808   4.588 -1.1503 -0.7468  1.3677
   12CHL1   C27  885   5.969   2.104   4.727  0.0024 -0.3029  0.8147
   12CHL1  H27A  886   5.890   2.181   4.718 -1.4573 -1.5398  2.3200
   12CHL1  H27B  887   6.036   2.129   4.812 -1.2031 -0.1034  1.7260
   12CHL1  H27C  888   6.039   2.119   4.642 -2.0402  0.1995 -0.8676
   13CHL1    C3  889   5.954   3.338   5.812 -0.0685 -0.2122 -0.1216
   13CHL1    H3  890   6.038   3.409   5.792 -1.2272  1.4159  0.5443
   13CHL1    O3  891   5.945   3.332   5.958 -0.1072 -0.1646 -0.3344
   13CHL1   H3'  892   5.911   3.415   5.992  2.0023  0.7761 -0.3772
   13CHL1    C4  893   5.818   3.379   5.757  0.0336  0.0469  0.1128
   13CHL1   H4A  894   5.748   3.306   5.801 -0.4565  0.8851  0.7662
   13CHL1   H4B  895   5.782   3.474   5.802 -1.2112 -0.1607 -0.4157
   13CHL1    C5  896   5.807   3.370   5.607 -0.1615  0.1835  0.3836
   13CHL1    C6  897   5.760   3.480   5.539  0.3800  0.2120  0.3085
   13CHL1    H6  898   5.725   3.565   5.598 -0.8753 -0.4565  0.5551
   13CHL1    C7  899   5.738   3.482   5.387  0.4812  0.2956 -1.1053
   13CHL1   H7A  900   5.640   3.520   5.351  0.1035 -1.2797 -1.7998
   13CHL1   H7B  901   5.813   3.551   5.343  1.5646 -0.0145  0.1743
   13CHL1    C8  902   5.761   3.340   5.326  0.4227  0.0592  0.5928
   13CHL1    H8  903   5.663   3.288   5.337 -1.2509  2.5420 -1.1713
   13CHL1   C14  904   5.787   3.355   5.175 -0.4904 -0.0784  0.3473
   13CHL1   H14  905   5.880   3.415   5.163 -1.5798  1.5277 -0.3531
   13CHL1   C15  906   5.692   3.439   5.093 -0.6296  0.4469  0.2010
   13CHL1  H15A  907   5.590   3.412   5.129 -0.1087 -1.7742  0.1238
   13CHL1  H15B  908   5.720   3.545   5.109 -0.5228  0.1447  2.2717
   13CHL1   C16  909   5.712   3.390   4.949 -0.0111 -0.1340  0.0803
   13CHL1  H16A  910   5.618   3.354   4.903  0.6455  0.4920 -1.8569
   13CHL1  H16B  911   5.761   3.469   4.887 -2.0852  0.9708 -0.2362
   13CHL1   C17  912   5.821   3.271   4.954 -0.4731 -0.1304 -0.0733
   13CHL1   H17  913   5.923   3.315   4.945 -1.0897  1.0065 -1.9440
   13CHL1   C13  914   5.808   3.225   5.102  0.3319  0.7636  0.7284
   13CHL1   C18  915   5.681   3.138   5.118 -0.6306  0.1358  0.1804
   13CHL1  H18A  916   5.699   3.041   5.066  0.3658 -0.5257  1.6671
   13CHL1  H18B  917   5.672   3.111   5.226 -0.9792  0.3691  0.2120
   13CHL1  H18C  918   5.588   3.189   5.085  0.4060  1.0583 -1.4673
   13CHL1   C12  919   5.936   3.156   5.156 -0.0370  0.0782  0.3335
   13CHL1  H12A  920   5.957   3.060   5.104  0.5334 -0.6663  1.8874
   13CHL1  H12B  921   6.019   3.227   5.134 -1.5350  1.2667 -1.9066
   13CHL1   C11  922   5.922   3.141   5.308  0.0062  0.8810  0.1820
   13CHL1  H11A  923   5.853   3.055   5.325  0.5941 -0.0200 -1.7716
   13CHL1  H11B  924   6.029   3.126   5.333 -0.2078  0.1726  0.7140
   13CHL1    C9  925   5.882   3.266   5.387  0.9734  0.3018 -0.4283
   13CHL1    H9  926   5.975   3.326   5.376  0.3253  1.7735  1.4775
   13CHL1   C10  927   5.858   3.238   5.540 -0.1749 -0.4868 -0.4174
   13CHL1   C19  928   5.743   3.134   5.558 -0.8882  0.0361  0.1376
   13CHL1  H19A  929   5.796   3.039   5.538  0.7245  0.7672  0.7284
   13CHL1  H19B  930   5.724   3.118   5.666 -0.2510  1.1266  0.4290
   13CHL1  H19C  931   5.652   3.162   5.502 -2.1548 -2.0070  1.0924
   13CHL1    C1  932   5.987   3.194   5.608 -0.3778 -0.3461 -0.1841
   13CHL1   H1A  933   6.006   3.090   5.575 -1.1176  0.1033 -2.1596
   13CHL1   H1B  934   6.061   3.271   5.575  0.9512 -1.7137 -0.4930
   13CHL1    C2  935   5.983   3.202   5.760  0.6136  0.1390 -0.2827
   13CHL1   H2A  936   6.087   3.176   5.791 -0.0691  0.3462  2.5079
   13CHL1   H2B  937   5.913   3.123   5.793 -0.0512  0.7665 -0.1758
   13CHL1   C20  938   5.806   3.174   4.841  0.1640 -0.3063  0.1589
   13CHL1   H20  939   5.721   3.105   4.862 -0.5380 -0.0534 -1.6574
   13CHL1   C21  940   5.930   3.092   4.828 -0.5355 -0.3483  0.4170
   13CHL1  H21A  941   5.915   3.025   4.741 -0.2739 -0.7055  0.6452
   13CHL1  H21B  942   5.948   3.028   4.917 -0.8495  0.9033  1.4087
   13CHL1  H21C  943   6.013   3.166   4.822 -0.7857 -0.1553 -1.1355
   13CHL1   C22  944   5.759   3.232   4.704 -1.0581 -0.2891  0.4758
   13CHL1  H22A  945   5.745   3.141   4.643 -0.5607 -0.1874  0.1991
   13CHL1  H22B  946   5.661   3.283   4.714 -1.4983 -1.1700  0.6833
   13CHL1   C23  947   5.855   3.330   4.626  0.9248 -0.7846  0.1019
   13CHL1  H23A  948   5.892   3.400   4.704 -1.0886  1.3499 -0.7294
   13CHL1  H23B  949   5.939   3.279   4.574  0.3335 -2.3016  0.5644
   13CHL1   C24  950   5.779   3.421   4.522  0.3014  0.5319  0.1918
   13CHL1  H24A  951   5.697   3.473   4.575 -0.4694  0.1545 -0.6134
   13CHL1  H24B  952   5.851   3.490   4.473  3.8351 -3.2648 -0.6021
   13CHL1   C25  953   5.712   3.348   4.409 -0.2412  0.7347 -0.2547
   13CHL1   H25  954   5.659   3.258   4.447 -0.0040  0.5861 -0.2748
   13CHL1   C26  955   5.609   3.448   4.345 -0.8794 -0.0484 -0.0750
   13CHL1  H26A  956   5.532   3.477   4.420 -1.3601 -1.8542  0.1779
   13CHL1  H26B  957   5.664   3.540   4.316 -0.4784  0.1636  1.2550
   13CHL1  H26C  958   5.549   3.400   4.265 -1.9929  1.9001 -0.4730
   13CHL1   C27  959   5.818   3.304   4.317  0.2971 -0.2926 -0.5123
   13CHL1  H27A  960   5.761   3.251   4.238 -1.7267 -2.0117  1.9593
   13CHL1  H27B  961   5.872   3.389   4.271 -0.7561  1.4358  1.2950
   13CHL1  H27C  962   5.890   3.233   4.363  0.3453 -0.4225 -0.7852
   14CHL1    C3  963   6.144   6.766   6.417  0.4057 -0.3210 -0.7595
   14CHL1    H3  964   6.040   6.737   6.391  0.1733 -0.1392 -0.0529
   14CHL1    O3  965   6.138   6.793   6.553 -0.7039  0.3496 -0.2180
   14CHL1   H3'  966   6.224   6.777   6.594 -1.9095 -1.2050  1.9501
   14CHL1    C4  967   6.233   6.653   6.376 -0.1596 -0.4130 -0.5685
   14CHL1   H4A  968   6.340   6.666   6.401 -0.3403 -0.1222  0.0801
   14CHL1   H4B  969   6.210   6.559   6.430  1.5878 -0.0390  0.9276
   14CHL1    C5  970   6.213   6.643   6.228 -0.1195 -0.1153 -0.1943
   14CHL1    C6  971   6.163   6.535   6.167 -0.4164 -0.0454  0.3324
   14CHL1    H6  972   6.143   6.448   6.230  1.7554 -0.2753  0.7681
   14CHL1    C7  973   6.153   6.524   6.016 -0.1819 -0.3953 -0.2628
   14CHL1   H7A  974   6.174   6.421   5.981 -0.5462 -0.6811  0.3516
   14CHL1   H7B  975   6.049   6.541   5.981 -1.3730 -2.4491  1.9752
   14CHL1    C8  976   6.255   6.612   5.938  0.3643 -0.4745 -0.5300
   14CHL1    H8  977   6.355   6.571   5.963  0.5350 -0.9594 -1.9538
   14CHL1   C14  978   6.220   6.605   5.785 -0.0838  0.0907  0.3232
   14CHL1   H14  979   6.114   6.636   5.777  0.0316  0.0151 -2.0741
   14CHL1   C15  980   6.218   6.475   5.704 -0.0199  0.9487 -0.3656
   14CHL1  H15A  981   6.294   6.410   5.752 -2.0078 -0.5543  0.8968
   14CHL1  H15B  982   6.121   6.420   5.707  1.0438 -1.0019 -0.0078
   14CHL1   C16  983   6.249   6.502   5.561  0.3882  0.4894  0.6644
   14CHL1  H16A  984   6.349   6.456   5.544  0.5891  1.2494 -0.3303
   14CHL1  H16B  985   6.172   6.467   5.490  0.3170 -0.3988  1.1642
   14CHL1   C17  986   6.250   6.659   5.559 -0.4442  0.1181  0.1248
   14CHL1   H17  987   6.147   6.692   5.535 -0.7060 -0.8129 -0.0569
   14CHL1   C13  988   6.292   6.705   5.704 -0.2570  0.1366  0.3082
   14CHL1   C18  989   6.445   6.678   5.729  0.3893  0.6829  0.4095
   14CHL1  H18A  990   6.475   6.689   5.835  2.2998 -3.9887  0.6050
   14CHL1  H18B  991   6.476   6.579   5.689  2.7017  2.4561 -2.6375
   14CHL1  H18C  992   6.506   6.751   5.672 -0.4495  1.1071  0.0454
   14CHL1   C12  993   6.248   6.844   5.748  0.0042  0.4962  0.3657
   14CHL1  H12A  994   6.306   6.926   5.702  2.0602 -1.2011 -0.2181
   14CHL1  H12B  995   6.139   6.859   5.733  0.0526  1.6890  1.1130
   14CHL1   C11  996   6.275   6.870   5.900 -0.9649  0.0590  0.6731
   14CHL1  H11A  997   6.381   6.903   5.902 -1.0283  0.5706 -1.4544
   14CHL1  H11B  998   6.229   6.967   5.928 -2.4661 -0.5694  0.5023
   14CHL1    C9  999   6.236   6.756   5.989  0.3671 -0.7220  0.4520
   14CHL1    H9 1000   6.125   6.763   5.979  0.3088 -2.7220 -0.9187
   14CHL1   C10 1001   6.252   6.767   6.144 -0.5836  0.7968  0.7361
   14CHL1   C19 1002   6.406   6.778   6.161  0.1539 -0.3596  0.2912
   14CHL1  H19A 1003   6.432   6.806   6.265  2.1138 -0.4045 -0.1373
   14CHL1  H19B 1004   6.471   6.690   6.137  0.7805  0.2298 -0.2167
   14CHL1  H19C 1005   6.447   6.865   6.106  1.7070 -0.9080  0.5153
   14CHL1    C1 1006   6.179   6.890   6.194 -0.7844  0.4189 -0.8960
   14CHL1   H1A 1007   6.219   6.984   6.150 -0.0970  0.3548 -0.4196
   14CHL1   H1B 1008   6.071   6.889   6.168 -1.2215  1.9197  0.6624
   14CHL1    C2 1009   6.180   6.897   6.345 -0.3743  0.2270 -0.2223
   14CHL1   H2A 1010   6.110   6.972   6.388 -0.9614 -1.0452  1.1355
   14CHL1   H2B 1011   6.282   6.932   6.373 -0.6456  0.3558  0.6674
   14CHL1   C20 1012   6.345   6.702   5.446  0.9172 -0.0583  0.4824
   14CHL1   H20 1013   6.449   6.673   5.472  1.4220  0.7670 -0.5167
   14CHL1   C21 1014   6.353   6.851   5.427 -0.2424 -0.4564  0.2360
   14CHL1  H21A 1015   6.249   6.889   5.415  0.0840  0.7256  0.9975
   14CHL1  H21B 1016   6.414   6.884   5.340  0.4534 -0.3069  0.7706
   14CHL1  H21C 1017   6.400   6.897   5.517 -1.5636 -1.3452  1.4153
   14CHL1   C22 1018   6.300   6.643   5.312  0.5386 -0.0697  1.1252
   14CHL1  H22A 1019   6.303   6.532   5.315  0.5590 -0.1910 -1.1123
   14CHL1  H22B 1020   6.203   6.688   5.280 -0.5088 -2.8273  0.0787
   14CHL1   C23 1021   6.395   6.678   5.190  0.8886  0.5488 -0.2843
   14CHL1  H23A 1022   6.358   6.613   5.108 -0.3465  2.9743 -1.7505
   14CHL1  H23B 1023   6.397   6.782   5.150  1.4117  0.4030 -0.6435
   14CHL1   C24 1024   6.539   6.621   5.213  0.0994  0.3330  0.1412
   14CHL1  H24A 1025   6.594   6.682   5.289  0.8928  0.7617 -0.7578
   14CHL1  H24B 1026   6.540   6.517   5.251  0.2816  0.4985  0.6066
   14CHL1   C25 1027   6.623   6.608   5.090 -0.2313  0.5851  0.8125
   14CHL1   H25 1028   6.596   6.512   5.041 -1.9028  0.8857  1.1001
   14CHL1   C26 1029   6.613   6.721   4.985 -0.2998  0.2017 -0.1281
   14CHL1  H26A 1030   6.644   6.819   5.027 -0.8863  0.9305 -1.3403
   14CHL1  H26B 1031   6.677   6.690   4.900 -0.0101  0.0336  0.1486
   14CHL1  H26C 1032   6.517   6.719   4.929  0.0040  0.5754 -0.6663
   14CHL1   C27 1033   6.771   6.600   5.131  0.1967 -0.0470  0.4012
   14CHL1  H27A 1034   6.830   6.588   5.038 -3.1688 -2.2286 -1.6714
   14CHL1  H27B 1035   6.804   6.694   5.181 -0.1268 -0.5822  1.6737
   14CHL1  H27C 1036   6.798   6.508   5.188 -0.4041 -1.4767 -1.5419
   15CHL1    C3 1037   5.018   6.279   5.847  0.0020 -0.0348  0.2682
   15CHL1    H3 1038   5.121   6.318   5.851  1.5237 -3.2523 -2.5998
   15CHL1    O3 1039   4.996   6.210   5.967  0.2234 -0.0801 -0.2296
   15CHL1   H3' 1040   4.905   6.181   5.960  0.2589 -0.3364  0.3848
   15CHL1    C4 1041   4.911   6.393   5.825 -0.2114 -0.2703  0.0789
   15CHL1   H4A 1042   4.811   6.346   5.829 -0.3093 -0.1852 -1.0815
   15CHL1   H4B 1043   4.916   6.469   5.906  1.1493  0.7824 -0.9450
   15CHL1    C5 1044   4.934   6.464   5.694  0.2410 -0.1055 -0.7586
   15CHL1    C6 1045   4.949   6.599   5.692 -0.2856  0.3342 -0.3109
   15CHL1    H6 1046   4.927   6.652   5.786 -0.4194 -0.4360  0.1072
   15CHL1    C7 1047   4.966   6.673   5.564  1.0009 -0.0456  0.4013
   15CHL1   H7A 1048   4.893   6.756   5.558 -1.1255 -1.7819  0.9792
   15CHL1   H7B 1049   5.071   6.707   5.561  1.8195 -2.4444 -1.4188
   15CHL1    C8 1050   4.942   6.587   5.431  0.6064  0.7287 -0.3446
   15CHL1    H8 1051   4.831   6.579   5.430  0.4399  2.0216  1.5463
   15CHL1   C14 1052   4.983   6.652   5.303  1.0415 -0.0732 -0.3890
   15CHL1   H14 1053   5.094   6.645   5.308  1.0144 -2.1089 -1.7015
   15CHL1   C15 1054   4.947   6.797   5.278 -0.0929 -0.4874 -0.1035
   15CHL1  H15A 1055   4.840   6.825   5.288  0.4740  1.8884 -0.1100
   15CHL1  H15B 1056   5.004   6.859   5.350  1.2789 -1.5467 -0.2427
   15CHL1   C16 1057   4.986   6.806   5.130 -0.7004  1.2036 -0.4102
   15CHL1  H16A 1058   4.904   6.854   5.072  0.0116 -0.5533 -3.0690
   15CHL1  H16B 1059   5.066   6.882   5.114 -0.7266  1.0432 -1.3582
   15CHL1   C17 1060   5.022   6.665   5.073  0.2609 -0.5753 -0.2191
   15CHL1   H17 1061   5.133   6.665   5.081  0.1940  2.1980  3.7421
   15CHL1   C13 1062   4.961   6.571   5.174  0.4616 -0.0631 -0.8095
   15CHL1   C18 1063   4.805   6.566   5.148  0.6763  0.1809  0.3198
   15CHL1  H18A 1064   4.749   6.504   5.220 -0.2870  0.8259  0.1528
   15CHL1  H18B 1065   4.757   6.667   5.144  1.1722  0.4899  1.7747
   15CHL1  H18C 1066   4.785   6.510   5.054  0.2829  1.9046 -0.6859
   15CHL1   C12 1067   5.028   6.437   5.194 -0.3165 -0.2987  0.2280
   15CHL1  H12A 1068   5.006   6.365   5.112  0.2039 -1.6481  1.2437
   15CHL1  H12B 1069   5.138   6.452   5.201 -0.3293 -0.3361  0.5167
   15CHL1   C11 1070   4.972   6.367   5.315 -0.4284 -0.6981  0.3933
   15CHL1  H11A 1071   4.867   6.342   5.288  0.3751 -0.8765 -2.9579
   15CHL1  H11B 1072   5.026   6.272   5.333  0.0360 -0.1369  2.1409
   15CHL1    C9 1073   4.990   6.448   5.445 -0.2029  0.7573 -0.9029
   15CHL1    H9 1074   5.100   6.461   5.457 -0.3477  4.8595 -2.2761
   15CHL1   C10 1075   4.940   6.365   5.570 -0.0258 -0.2522 -0.2045
   15CHL1   C19 1076   4.791   6.315   5.550  0.0807 -0.4306 -0.4955
   15CHL1  H19A 1077   4.790   6.231   5.477 -2.9170  0.5585 -1.7175
   15CHL1  H19B 1078   4.746   6.280   5.646  1.3884 -0.6918  0.0511
   15CHL1  H19C 1079   4.729   6.398   5.510 -1.7645 -0.6290  1.7384
   15CHL1    C1 1080   5.034   6.233   5.592 -0.1372  0.0831 -0.2725
   15CHL1   H1A 1081   5.012   6.161   5.510  1.0795  0.0037 -0.5482
   15CHL1   H1B 1082   5.136   6.276   5.596 -0.2959  0.4125  0.2833
   15CHL1    C2 1083   5.025   6.171   5.732  0.6196  0.1519 -0.1497
   15CHL1   H2A 1084   5.109   6.102   5.756 -0.2459 -0.1761  2.1468
   15CHL1   H2B 1085   4.927   6.120   5.739  1.1635 -1.2061 -1.9059
   15CHL1   C20 1086   4.996   6.642   4.922  0.1337  0.0187  0.4401
   15CHL1   H20 1087   4.887   6.651   4.907 -0.6248 -4.9441  1.3947
   15CHL1   C21 1088   5.044   6.502   4.882  0.1485 -0.3920  0.1228
   15CHL1  H21A 1089   5.149   6.480   4.912  0.8534  0.7640 -1.3448
   15CHL1  H21B 1090   5.041   6.480   4.773  2.0483 -0.0540 -0.0315
   15CHL1  H21C 1091   4.978   6.421   4.922 -0.8913  1.2874  1.9466
   15CHL1   C22 1092   5.060   6.759   4.834  0.0490  0.5391 -0.3968
   15CHL1  H22A 1093   5.027   6.844   4.898 -0.6079 -0.5218  0.7243
   15CHL1  H22B 1094   5.171   6.758   4.835  0.0524  0.4125  1.0372
   15CHL1   C23 1095   4.994   6.772   4.696  0.4899  0.0811  0.0804
   15CHL1  H23A 1096   5.081   6.763   4.628  1.1631 -0.6328  0.9959
   15CHL1  H23B 1097   4.920   6.690   4.692  3.0839 -2.5165  1.2550
   15CHL1   C24 1098   4.923   6.905   4.682 -0.8934 -0.6260 -0.2268
   15CHL1  H24A 1099   4.856   6.917   4.770 -1.7445 -1.3222 -0.7679
   15CHL1  H24B 1100   4.996   6.989   4.679  1.2822 -2.3155  1.3067
   15CHL1   C25 1101   4.832   6.894   4.557 -0.0037  0.0308 -0.2425
   15CHL1   H25 1102   4.768   6.803   4.563 -2.1502  1.5392  1.1347
   15CHL1   C26 1103   4.735   7.010   4.565  0.0109 -0.0887  0.6221
   15CHL1  H26A 1104   4.792   7.097   4.603 -1.3051  0.7296  0.8232
   15CHL1  H26B 1105   4.682   7.039   4.471 -0.1553 -2.1994  0.0260
   15CHL1  H26C 1106   4.659   6.988   4.643  0.8374 -3.1283  0.6910
   15CHL1   C27 1107   4.911   6.902   4.429 -0.1981  0.4572  0.0867
   15CHL1  H27A 1108   4.974   6.992   4.418  1.7780 -0.7266  1.1174
   15CHL1  H27B 1109   4.976   6.812   4.435  0.5992  1.0539  0.5776
   15CHL1  H27C 1110   4.846   6.896   4.339  1.1181 -0.9378 -0.8215
   16CHL1    C3 1111   2.869   3.718   6.126 -0.1133 -0.8258  0.7179
   16CHL1    H3 1112   2.918   3.811   6.088 -0.1932 -1.6193 -1.4783
   16CHL1    O3 1113   2.891   3.712   6.263 -0.6040  0.1302 -0.3318
   16CHL1   H3' 1114   2.812   3.672   6.300  0.0276 -0.4091  0.4582
   16CHL1    C4 1115   2.719   3.734   6.097  0.1661 -0.5079 -0.1841
   16CHL1   H4A 1116   2.663   3.640   6.119 -1.1084 -0.1872 -1.8953
   16CHL1   H4B 1117   2.680   3.813   6.164 -2.2031 -1.8558  0.1529
   16CHL1    C5 1118   2.695   3.755   5.949 -0.2334 -0.2057 -0.3870
   16CHL1    C6 1119   2.628   3.869   5.908 -0.2540 -0.6165 -0.2570
   16CHL1    H6 1120   2.592   3.943   5.981  1.5778 -0.2930  0.3792
   16CHL1    C7 1121   2.580   3.890   5.764 -0.5396  0.7072  0.1398
   16CHL1   H7A 1122   2.472   3.912   5.777 -0.6132 -0.2070  1.2348
   16CHL1   H7B 1123   2.635   3.980   5.731 -0.8808  1.3631  1.3226
   16CHL1    C8 1124   2.608   3.772   5.667 -0.7453  0.4102 -0.3187
   16CHL1    H8 1125   2.519   3.705   5.670  0.6838 -1.5450 -0.3513
   16CHL1   C14 1126   2.618   3.813   5.520 -0.5472 -0.0592 -0.2983
   16CHL1   H14 1127   2.713   3.870   5.514 -1.3320  1.2884 -0.5003
   16CHL1   C15 1128   2.504   3.891   5.458 -0.5771  0.2253 -0.4975
   16CHL1  H15A 1129   2.405   3.852   5.490 -0.1483 -0.5126 -0.0292
   16CHL1  H15B 1130   2.508   4.002   5.467 -3.1172  0.2901  0.6873
   16CHL1   C16 1131   2.526   3.866   5.306 -0.1706 -0.8445  0.1530
   16CHL1  H16A 1132   2.435   3.820   5.263  1.4357 -3.3546 -0.7260
   16CHL1  H16B 1133   2.542   3.956   5.243  3.3803 -0.1400  1.8218
   16CHL1   C17 1134   2.650   3.774   5.283 -0.2700 -0.0589 -0.3128
   16CHL1   H17 1135   2.742   3.835   5.286  0.1206 -0.4876 -2.3123
   16CHL1   C13 1136   2.650   3.693   5.421 -0.8608 -0.0659  0.7323
   16CHL1   C18 1137   2.542   3.586   5.426  0.8229  0.0829  0.1493
   16CHL1  H18A 1138   2.520   3.549   5.528  0.8293 -1.3450 -0.3412
   16CHL1  H18B 1139   2.445   3.618   5.383  0.4912 -3.9340 -2.7729
   16CHL1  H18C 1140   2.578   3.498   5.367 -0.0767 -0.0864 -0.1673
   16CHL1   C12 1141   2.788   3.631   5.458  1.3784 -0.0017 -0.0412
   16CHL1  H12A 1142   2.822   3.543   5.399 -0.1311 -0.3675 -0.4274
   16CHL1  H12B 1143   2.864   3.711   5.455 -0.1197  1.5726  1.5177
   16CHL1   C11 1144   2.777   3.577   5.603 -0.1429  0.1204  0.8183
   16CHL1  H11A 1145   2.700   3.496   5.606 -1.1660  0.9959 -0.6156
   16CHL1  H11B 1146   2.876   3.539   5.635  1.1666 -1.2054 -4.0686
   16CHL1    C9 1147   2.741   3.696   5.705  0.0606  1.0117  0.3401
   16CHL1    H9 1148   2.824   3.770   5.702  0.7801  0.2062 -3.0782
   16CHL1   C10 1149   2.749   3.644   5.854  0.5650 -0.2401 -0.8553
   16CHL1   C19 1150   2.654   3.525   5.871  0.4638  0.0017 -0.2730
   16CHL1  H19A 1151   2.619   3.513   5.976 -1.2146  2.1209 -0.5108
   16CHL1  H19B 1152   2.568   3.542   5.802  1.0370 -0.1906 -1.0479
   16CHL1  H19C 1153   2.714   3.435   5.845  2.1821  0.8764  0.5184
   16CHL1    C1 1154   2.898   3.614   5.899 -0.1901  0.0912  0.1205
   16CHL1   H1A 1155   2.925   3.515   5.855  0.4495 -0.4350  1.6161
   16CHL1   H1B 1156   2.968   3.692   5.864 -0.0025 -0.0926  0.0796
   16CHL1    C2 1157   2.933   3.598   6.049 -0.0147  0.9949  0.1808
   16CHL1   H2A 1158   3.043   3.598   6.065 -0.0014 -0.4387  0.2018
   16CHL1   H2B 1159   2.893   3.510   6.103 -0.4569  0.5591 -0.8252
   16CHL1   C20 1160   2.664   3.701   5.156  0.7106  0.1515 -0.3100
   16CHL1   H20 1161   2.570   3.642   5.151  1.0549 -0.7502  2.3087
   16CHL1   C21 1162   2.780   3.603   5.147 -0.4197 -1.0845  0.6139
   16CHL1  H21A 1163   2.751   3.511   5.203 -1.1742 -2.2215 -1.5195
   16CHL1  H21B 1164   2.875   3.643   5.188  0.1958 -0.5133 -1.2705
   16CHL1  H21C 1165   2.783   3.582   5.038 -0.2692 -1.7873  0.7493
   16CHL1   C22 1166   2.674   3.799   5.033 -0.3007 -0.0672  0.1988
   16CHL1  H22A 1167   2.615   3.893   5.042  0.8135  0.4428  4.5195
   16CHL1  H22B 1168   2.781   3.828   5.026  0.1558 -1.1690  1.9775
   16CHL1   C23 1169   2.629   3.734   4.888 -0.3788  0.1391  0.1550
   16CHL1  H23A 1170   2.669   3.631   4.875 -1.0305 -0.1898  0.6692
   16CHL1  H23B 1171   2.518   3.725   4.888 -0.4808  1.2671 -0.3364
   16CHL1   C24 1172   2.681   3.821   4.779 -0.1578 -0.3071  0.6731
   16CHL1  H24A 1173   2.662   3.924   4.814  0.3791  0.1912 -0.4514
   16CHL1  H24B 1174   2.791   3.812   4.767 -0.3896  0.7484 -4.1957
   16CHL1   C25 1175   2.607   3.797   4.645 -0.5042 -0.0925  0.1543
   16CHL1   H25 1176   2.498   3.809   4.660 -0.6078 -0.9498  0.1272
   16CHL1   C26 1177   2.629   3.909   4.541 -0.5112  0.1509  0.3125
   16CHL1  H26A 1178   2.726   3.897   4.487 -0.8802 -2.3045  0.1164
   16CHL1  H26B 1179   2.550   3.900   4.464  0.2508 -3.8669 -0.1931
   16CHL1  H26C 1180   2.636   4.006   4.596  2.1062 -0.0674  0.4993
   16CHL1   C27 1181   2.616   3.659   4.578  0.3385  0.0182  0.1364
   16CHL1  H27A 1182   2.631   3.586   4.660 -0.0105 -1.8295 -1.3778
   16CHL1  H27B 1183   2.532   3.622   4.516  1.9051  0.6381 -2.4929
   16CHL1  H27C 1184   2.708   3.655   4.515 -0.4065 -0.9176 -0.9373
   17CHL1    C3 1185   6.697   0.875   6.133  0.9399 -0.1729 -0.4918
   17CHL1    H3 1186   6.793   0.821   6.117  1.6413  0.9984 -0.4123
   17CHL1    O3 1187   6.705   0.912   6.268  0.5625  0.1976 -0.4610
   17CHL1   H3' 1188   6.705   1.008   6.263  1.5972  0.1381 -2.7906
   17CHL1    C4 1189   6.700   1.006   6.052  0.6426  0.1496  0.3157
   17CHL1   H4A 1190   6.613   1.066   6.086  0.0598  0.1496 -1.0870
   17CHL1   H4B 1191   6.799   1.051   6.076  0.8496 -0.1550  0.0430
   17CHL1    C5 1192   6.671   0.973   5.903 -0.5055  0.2306 -0.0308
   17CHL1    C6 1193   6.759   1.013   5.804 -0.1228 -0.6546  0.0207
   17CHL1    H6 1194   6.848   1.072   5.833 -1.9984  1.6335  1.4475
   17CHL1    C7 1195   6.732   0.991   5.660  0.6399  0.3198  0.0751
   17CHL1   H7A 1196   6.744   1.084   5.601 -2.4363  0.7255 -0.0430
   17CHL1   H7B 1197   6.796   0.905   5.628 -1.1240 -1.4716  1.1308
   17CHL1    C8 1198   6.589   0.940   5.619 -0.0321  0.9512 -0.4958
   17CHL1    H8 1199   6.525   1.031   5.616 -0.4971  0.6137 -1.0742
   17CHL1   C14 1200   6.590   0.880   5.487  0.2033  0.2203  1.0130
   17CHL1   H14 1201   6.663   0.797   5.490  1.8005  1.2167 -3.1314
   17CHL1   C15 1202   6.654   0.966   5.374 -0.1562  0.1779  0.0265
   17CHL1  H15A 1203   6.604   1.064   5.388  0.2318  0.3423  0.2586
   17CHL1  H15B 1204   6.765   0.968   5.370 -0.1802  0.1759 -1.6662
   17CHL1   C16 1205   6.599   0.897   5.246 -0.0684 -0.8525 -0.4092
   17CHL1  H16A 1206   6.554   0.980   5.186 -1.0587 -0.9074  0.2307
   17CHL1  H16B 1207   6.673   0.845   5.182 -0.7251  0.7105 -2.5783
   17CHL1   C17 1208   6.491   0.793   5.291 -0.4322  0.5346 -0.0365
   17CHL1   H17 1209   6.540   0.693   5.286 -0.2221  0.6612 -0.6244
   17CHL1   C13 1210   6.457   0.820   5.436  0.0792  0.1108  0.3184
   17CHL1   C18 1211   6.340   0.925   5.441 -0.6351  1.2091 -0.4119
   17CHL1  H18A 1212   6.339   0.971   5.542  0.6511 -0.3463  0.3516
   17CHL1  H18B 1213   6.364   1.008   5.371  2.0819  1.7481  1.0236
   17CHL1  H18C 1214   6.242   0.883   5.409 -0.3945 -0.8033  1.3058
   17CHL1   C12 1215   6.422   0.708   5.531  0.7488  0.0468 -0.0070
   17CHL1  H12A 1216   6.318   0.677   5.505  1.0720 -3.0857  1.8831
   17CHL1  H12B 1217   6.486   0.618   5.522 -0.0550 -0.6288  0.7294
   17CHL1   C11 1218   6.412   0.758   5.677 -0.5546 -0.3674 -0.3664
   17CHL1  H11A 1219   6.326   0.826   5.694 -0.1585 -0.3273  1.7854
   17CHL1  H11B 1220   6.406   0.673   5.748  0.4797  1.3647  1.9155
   17CHL1    C9 1221   6.537   0.840   5.724 -0.6100  0.1043  1.1039
   17CHL1    H9 1222   6.623   0.770   5.728 -0.5211  0.1283 -0.1050
   17CHL1   C10 1223   6.548   0.893   5.871  0.6406  0.7526  0.4104
   17CHL1   C19 1224   6.420   0.987   5.881 -0.1938  0.9054 -0.0750
   17CHL1  H19A 1225   6.426   1.049   5.974  1.8030  0.7081 -0.0375
   17CHL1  H19B 1226   6.417   1.056   5.794 -1.6412 -1.3489 -1.9394
   17CHL1  H19C 1227   6.323   0.932   5.881 -1.9747  3.8331 -0.6219
   17CHL1    C1 1228   6.543   0.761   5.963 -0.1554 -0.8232 -0.1351
   17CHL1   H1A 1229   6.444   0.711   5.964  0.8414 -2.9311 -0.0741
   17CHL1   H1B 1230   6.619   0.689   5.924 -0.5736 -1.3065 -0.0666
   17CHL1    C2 1231   6.571   0.794   6.112 -0.6981  0.6676 -0.4329
   17CHL1   H2A 1232   6.581   0.698   6.168  1.3386  1.2516  0.3004
   17CHL1   H2B 1233   6.483   0.848   6.153 -1.1345 -0.1600 -0.2517
   17CHL1   C20 1234   6.378   0.771   5.182 -0.1565 -0.5780 -1.1213
   17CHL1   H20 1235   6.314   0.861   5.170 -0.2101 -0.9182 -4.1669
   17CHL1   C21 1236   6.290   0.655   5.231 -0.9311  0.0737 -0.0328
   17CHL1  H21A 1237   6.215   0.637   5.151 -0.9494 -0.4253  0.0891
   17CHL1  H21B 1238   6.227   0.683   5.318 -2.0572  0.7387 -1.0413
   17CHL1  H21C 1239   6.351   0.566   5.260 -0.8401 -0.3185 -1.3654
   17CHL1   C22 1240   6.431   0.739   5.038  0.4714 -0.2396 -0.5518
   17CHL1  H22A 1241   6.514   0.805   5.006  1.6451 -0.8323  1.1384
   17CHL1  H22B 1242   6.494   0.648   5.046  1.1677  0.3209  0.5007
   17CHL1   C23 1243   6.327   0.717   4.933 -0.0213 -0.3980 -0.2267
   17CHL1  H23A 1244   6.247   0.648   4.967 -2.2137  1.3904 -1.4465
   17CHL1  H23B 1245   6.264   0.806   4.911 -2.2955 -1.8446  0.0139
   17CHL1   C24 1246   6.397   0.650   4.810 -0.3850  0.3921  0.0795
   17CHL1  H24A 1247   6.497   0.693   4.786  0.2191  0.1471  1.9968
   17CHL1  H24B 1248   6.418   0.542   4.830 -0.3701  0.7668  2.4295
   17CHL1   C25 1249   6.312   0.660   4.686 -1.0218 -0.0082  0.2431
   17CHL1   H25 1250   6.308   0.765   4.648 -4.2148  0.2119  0.8507
   17CHL1   C26 1251   6.368   0.559   4.574  0.7026 -0.8101 -0.4358
   17CHL1  H26A 1252   6.376   0.462   4.628 -0.7532 -0.5352  0.3144
   17CHL1  H26B 1253   6.307   0.569   4.482  2.6455 -0.9563 -1.8037
   17CHL1  H26C 1254   6.470   0.592   4.545  0.3970  2.0529  1.3276
   17CHL1   C27 1255   6.165   0.628   4.718 -1.0832 -0.9075  0.4599
   17CHL1  H27A 1256   6.156   0.522   4.750 -0.8362 -1.4201 -1.0764
   17CHL1  H27B 1257   6.121   0.692   4.797  0.7254 -1.7382  2.2252
   17CHL1  H27C 1258   6.095   0.642   4.632 -0.9897  1.0638  0.6466
   18CHL1    C3 1259   5.215   3.854   5.993  0.1930  0.0563 -0.1925
   18CHL1    H3 1260   5.185   3.747   5.997 -0.3620  0.1889 -0.6467
   18CHL1    O3 1261   5.270   3.888   6.123 -0.0162  0.1043 -0.4211
   18CHL1   H3' 1262   5.280   3.802   6.164 -4.5145  0.2610  1.5410
   18CHL1    C4 1263   5.329   3.873   5.893  0.3396 -0.2343  0.1192
   18CHL1   H4A 1264   5.378   3.970   5.917 -2.6250  1.7724 -1.3433
   18CHL1   H4B 1265   5.393   3.787   5.924 -1.0118 -1.7133 -1.0124
   18CHL1    C5 1266   5.289   3.859   5.750 -0.3925  0.2349 -0.5128
   18CHL1    C6 1267   5.345   3.765   5.675 -0.2746  0.0706  0.4538
   18CHL1    H6 1268   5.409   3.693   5.728  0.7703 -0.3784 -1.3326
   18CHL1    C7 1269   5.321   3.753   5.529  0.7192  0.0378 -0.5553
   18CHL1   H7A 1270   5.412   3.743   5.466  0.0446 -2.6909 -1.2457
   18CHL1   H7B 1271   5.263   3.660   5.505  0.4940 -0.3786  1.4268
   18CHL1    C8 1272   5.250   3.885   5.473 -0.9189  0.5139 -0.7762
   18CHL1    H8 1273   5.326   3.966   5.475  1.3908 -1.5040 -1.8390
   18CHL1   C14 1274   5.200   3.858   5.330 -0.5820  0.0458 -0.5997
   18CHL1   H14 1275   5.115   3.786   5.335 -0.1086 -0.4531  1.2112
   18CHL1   C15 1276   5.308   3.811   5.229  0.1616  0.6726 -0.7875
   18CHL1  H15A 1277   5.402   3.867   5.250  1.1492 -1.5351  1.1529
   18CHL1  H15B 1278   5.322   3.701   5.233 -1.1749  0.4592 -1.5229
   18CHL1   C16 1279   5.251   3.860   5.092  0.1097  0.2637  0.0662
   18CHL1  H16A 1280   5.334   3.919   5.047  0.1038  1.6348  1.7265
   18CHL1  H16B 1281   5.230   3.777   5.021 -2.0095  1.7467 -1.1314
   18CHL1   C17 1282   5.119   3.937   5.114 -0.0248 -0.3988 -0.3513
   18CHL1   H17 1283   5.031   3.870   5.125 -0.6027  0.5378  1.1653
   18CHL1   C13 1284   5.135   3.982   5.261  0.5724  0.6494 -0.0789
   18CHL1   C18 1285   5.226   4.102   5.259 -0.2054  0.9680  0.1510
   18CHL1  H18A 1286   5.323   4.080   5.210  0.1024  1.5476  0.4831
   18CHL1  H18B 1287   5.186   4.187   5.200  1.4960  0.9330 -1.1153
   18CHL1  H18C 1288   5.254   4.148   5.357 -0.6511 -0.7836  1.1387
   18CHL1   C12 1289   5.011   4.017   5.345  0.6233 -0.3649  0.0129
   18CHL1  H12A 1290   4.965   4.109   5.304 -0.7347 -1.4697 -1.0234
   18CHL1  H12B 1291   4.945   3.929   5.360 -2.1215  1.1659 -2.2294
   18CHL1   C11 1292   5.056   4.043   5.487  0.1123  0.6740 -0.2419
   18CHL1  H11A 1293   5.121   4.133   5.490  0.0020  0.7518 -0.1745
   18CHL1  H11B 1294   4.974   4.074   5.555  0.5129  0.0155  0.5586
   18CHL1    C9 1295   5.131   3.928   5.557 -0.1891  0.6835  0.0645
   18CHL1    H9 1296   5.064   3.841   5.570  2.6658 -1.4498  1.9798
   18CHL1   C10 1297   5.180   3.954   5.704 -0.1427  0.2524  0.4226
   18CHL1   C19 1298   5.239   4.097   5.725  0.2493 -0.6327  0.0272
   18CHL1  H19A 1299   5.275   4.129   5.826  4.1506  2.6944 -2.0979
   18CHL1  H19B 1300   5.329   4.115   5.662  0.0785 -0.6597 -0.2205
   18CHL1  H19C 1301   5.151   4.159   5.701  0.8087 -0.2200 -0.9999
   18CHL1    C1 1302   5.059   3.931   5.809 -0.2720  0.2390  0.0360
   18CHL1   H1A 1303   4.973   3.995   5.781 -1.5069 -1.7151 -0.8746
   18CHL1   H1B 1304   5.022   3.826   5.804  0.4593 -0.0643  0.7774
   18CHL1    C2 1305   5.092   3.944   5.955  0.5316 -0.5230 -0.2552
   18CHL1   H2A 1306   5.007   3.900   6.011 -0.3872  0.6259 -0.7139
   18CHL1   H2B 1307   5.114   4.050   5.978  0.0683 -0.2419 -1.0507
   18CHL1   C20 1308   5.100   4.041   4.999  0.0566 -0.7522 -0.2840
   18CHL1   H20 1309   5.179   4.118   4.998  1.9119 -2.5571  0.6691
   18CHL1   C21 1310   4.968   4.128   5.011  0.4611 -0.3192  0.0772
   18CHL1  H21A 1311   4.889   4.059   5.048  0.2252 -1.1730 -1.9035
   18CHL1  H21B 1312   4.941   4.176   4.915 -1.9117  2.6318  1.9940
   18CHL1  H21C 1313   4.971   4.209   5.087  0.1851  0.4434 -0.7101
   18CHL1   C22 1314   5.096   3.973   4.856  0.2024 -0.6866 -0.3874
   18CHL1  H22A 1315   5.079   4.054   4.782 -1.9080 -0.5718  0.1510
   18CHL1  H22B 1316   5.194   3.930   4.827  1.5442  1.2032  1.0550
   18CHL1   C23 1317   4.993   3.862   4.840 -0.0497 -0.1085  0.0020
   18CHL1  H23A 1318   5.016   3.765   4.890 -3.5640 -2.4928 -2.4647
   18CHL1  H23B 1319   4.899   3.903   4.884  0.5469 -0.0713  1.2959
   18CHL1   C24 1320   4.975   3.823   4.691  0.1327  0.0599 -0.1956
   18CHL1  H24A 1321   4.907   3.892   4.636 -0.1245 -1.0154 -1.2688
   18CHL1  H24B 1322   5.069   3.819   4.632 -0.8391 -0.2964 -1.7945
   18CHL1   C25 1323   4.913   3.684   4.656 -0.4376  0.6398 -0.1840
   18CHL1   H25 1324   4.981   3.609   4.702  0.2134  0.3992 -1.4781
   18CHL1   C26 1325   4.783   3.674   4.730 -0.2124 -0.2957  0.0552
   18CHL1  H26A 1326   4.731   3.576   4.727 -1.7343  0.3986  1.8159
   18CHL1  H26B 1327   4.796   3.706   4.836  1.9013  0.8058 -0.4904
   18CHL1  H26C 1328   4.713   3.743   4.679  1.6679 -0.4477 -2.9695
   18CHL1   C27 1329   4.908   3.669   4.509  0.0492  0.3701 -0.0655
   18CHL1  H27A 1330   4.841   3.742   4.459 -0.9319  0.0185  0.6947
   18CHL1  H27B 1331   5.010   3.685   4.467  0.7633 -1.1186  0.9942
   18CHL1  H27C 1332   4.873   3.566   4.487 -1.0819  0.1561  2.4485
   19CHL1    C3 1333   3.995   6.835   5.975 -0.5256 -0.6258  0.6716
   19CHL1    H3 1334   4.069   6.918   5.972  0.7245 -1.7237 -0.2934
   19CHL1    O3 1335   4.006   6.764   6.101  0.3551  0.0678  0.1477
   19CHL1   H3' 1336   4.092   6.791   6.132  1.2613  1.5143 -3.1846
   19CHL1    C4 1337   3.850   6.898   5.964  0.4020  0.1097 -0.3829
   19CHL1   H4A 1338   3.781   6.824   6.010  1.1626  0.7149  1.8561
   19CHL1   H4B 1339   3.863   6.985   6.033 -1.7365 -1.7761  2.6858
   19CHL1    C5 1340   3.803   6.945   5.828 -0.1506 -0.8262  0.5392
   19CHL1    C6 1341   3.753   7.075   5.817  0.1572  0.3398  0.6995
   19CHL1    H6 1342   3.744   7.136   5.908 -1.3027  1.6164 -0.2476
   19CHL1    C7 1343   3.709   7.138   5.688  0.0477 -0.0903  0.3930
   19CHL1   H7A 1344   3.605   7.175   5.697  0.3078  0.5215  0.9093
   19CHL1   H7B 1345   3.774   7.224   5.663  1.5374 -1.1940  0.3261
   19CHL1    C8 1346   3.727   7.040   5.562  0.8202 -0.0260 -0.7487
   19CHL1    H8 1347   3.637   6.979   5.542  0.1343  0.6605  0.1267
   19CHL1   C14 1348   3.756   7.133   5.441 -0.4441 -0.0535 -0.6560
   19CHL1   H14 1349   3.854   7.186   5.450 -1.4908  2.2504 -2.0730
   19CHL1   C15 1350   3.657   7.245   5.425 -0.0287 -0.2628  0.1900
   19CHL1  H15A 1351   3.555   7.204   5.439  0.2528 -1.6509 -1.5895
   19CHL1  H15B 1352   3.670   7.328   5.498  0.9625 -0.4380  0.2170
   19CHL1   C16 1353   3.670   7.274   5.275 -0.2394 -0.0175  0.6261
   19CHL1  H16A 1354   3.565   7.268   5.239 -0.8342  2.1548  1.8141
   19CHL1  H16B 1355   3.697   7.379   5.250 -1.3122 -0.1309 -1.1960
   19CHL1   C17 1356   3.769   7.168   5.213  0.1623  0.4073  0.6646
   19CHL1   H17 1357   3.872   7.207   5.221  0.3409 -0.0747  0.7266
   19CHL1   C13 1358   3.762   7.052   5.308  0.9726  0.2106  0.2603
   19CHL1   C18 1359   3.627   6.970   5.282 -0.0841 -0.1413  0.0536
   19CHL1  H18A 1360   3.611   6.883   5.349 -2.0698 -1.4038 -1.9107
   19CHL1  H18B 1361   3.540   7.039   5.291  0.0841  0.0238  0.4340
   19CHL1  H18C 1362   3.623   6.910   5.189  0.8204 -0.1659  0.0228
   19CHL1   C12 1363   3.884   6.967   5.314 -0.4757  1.0149  0.1160
   19CHL1  H12A 1364   3.891   6.906   5.222  1.5050 -1.3992  1.7382
   19CHL1  H12B 1365   3.976   7.030   5.321  0.2279  0.1196 -0.6826
   19CHL1   C11 1366   3.879   6.877   5.440 -0.1847  0.2490 -0.6598
   19CHL1  H11A 1367   3.810   6.794   5.414 -0.3139 -0.3648  1.4940
   19CHL1  H11B 1368   3.981   6.836   5.459 -0.1503  1.1033  1.1708
   19CHL1    C9 1369   3.849   6.954   5.576  0.4111  0.6897  0.8857
   19CHL1    H9 1370   3.939   7.017   5.595 -1.3168  3.4455  0.4737
   19CHL1   C10 1371   3.837   6.865   5.705 -0.6657 -0.1171 -0.1862
   19CHL1   C19 1372   3.730   6.752   5.668 -0.1248 -0.2645 -0.5186
   19CHL1  H19A 1373   3.700   6.693   5.757 -0.3535 -0.0084 -0.4272
   19CHL1  H19B 1374   3.638   6.784   5.616 -1.8085 -1.2614  1.7028
   19CHL1  H19C 1375   3.782   6.675   5.607 -0.9423 -1.1433 -0.1190
   19CHL1    C1 1376   3.979   6.803   5.721  0.1764  0.3975  0.2111
   19CHL1   H1A 1377   3.980   6.727   5.640 -2.0654 -2.9595  3.0136
   19CHL1   H1B 1378   4.057   6.881   5.706 -0.0181  0.3418 -1.3228
   19CHL1    C2 1379   4.012   6.742   5.860 -0.0650 -0.5328  0.4479
   19CHL1   H2A 1380   4.121   6.722   5.870  1.0467  4.5912  1.1360
   19CHL1   H2B 1381   3.948   6.652   5.867 -0.8876  0.0793  0.9326
   19CHL1   C20 1382   3.741   7.146   5.061  0.8392  0.4930  0.2064
   19CHL1   H20 1383   3.633   7.117   5.063  1.5546 -2.4322  0.6918
   19CHL1   C21 1384   3.814   7.024   4.994 -0.4877  0.5060 -0.4909
   19CHL1  H21A 1385   3.924   7.041   4.993 -0.8372  3.1359 -0.0552
   19CHL1  H21B 1386   3.777   7.023   4.889 -0.9285  1.3015 -0.3423
   19CHL1  H21C 1387   3.788   6.930   5.047  2.7038 -0.5044 -0.4666
   19CHL1   C22 1388   3.772   7.277   4.988  0.1406 -0.7353  0.6512
   19CHL1  H22A 1389   3.739   7.367   5.045  0.1754  0.4286 -1.0633
   19CHL1  H22B 1390   3.881   7.285   4.969  0.0386  1.8046  0.7446
   19CHL1   C23 1391   3.697   7.289   4.858  0.4261  0.1882 -0.3315
   19CHL1  H23A 1392   3.756   7.244   4.775  0.1117 -0.3296 -0.2745
   19CHL1  H23B 1393   3.599   7.239   4.862  0.9079 -0.7320  0.7575
   19CHL1   C24 1394   3.659   7.433   4.810  0.3534  0.1158 -0.2313
   19CHL1  H24A 1395   3.603   7.487   4.889 -1.6954 -1.1867 -0.7186
   19CHL1  H24B 1396   3.751   7.486   4.777 -0.2805  2.6307  1.7562
   19CHL1   C25 1397   3.565   7.429   4.681  0.1430  0.2577 -0.4773
   19CHL1   H25 1398   3.467   7.386   4.710  0.8647  0.0213  1.7952
   19CHL1   C26 1399   3.550   7.574   4.634 -0.2086  0.4340  0.2433
   19CHL1  H26A 1400   3.651   7.618   4.620 -0.3669  0.8708  0.4561
   19CHL1  H26B 1401   3.512   7.567   4.530  1.8059 -3.1362 -0.4369
   19CHL1  H26C 1402   3.492   7.640   4.702  0.8329 -1.5017  3.2399
   19CHL1   C27 1403   3.636   7.351   4.567  0.1262 -0.3964  0.5240
   19CHL1  H27A 1404   3.582   7.355   4.470  0.5783  1.7604  0.3104
   19CHL1  H27B 1405   3.740   7.379   4.543  0.5291 -2.7364 -0.8138
   19CHL1  H27C 1406   3.640   7.243   4.595  1.5546 -1.0167 -1.7670
   20CHL1    C3 1407   1.432   5.359   6.003  0.1718 -0.5100  0.6967
   20CHL1    H3 1408   1.328   5.359   5.965 -0.2312 -0.3949  1.7637
   20CHL1    O3 1409   1.441   5.443   6.121 -0.3050 -0.2520  0.1148
   20CHL1   H3' 1410   1.466   5.385   6.193  0.4578 -0.4080 -0.2728
   20CHL1    C4 1411   1.485   5.217   6.030  0.6338 -0.1767  0.4277
   20CHL1   H4A 1412   1.583   5.239   6.078 -0.0329  0.1430  1.6581
   20CHL1   H4B 1413   1.425   5.174   6.112  0.0006  0.7114  0.4523
   20CHL1    C5 1414   1.487   5.128   5.906 -0.4253  0.5385 -0.4611
   20CHL1    C6 1415   1.438   5.005   5.896 -0.0313 -0.1047 -0.5557
   20CHL1    H6 1416   1.386   4.954   5.979 -1.1384  0.2207 -1.0349
   20CHL1    C7 1417   1.449   4.918   5.773 -0.2602  0.0828  0.3300
   20CHL1   H7A 1418   1.468   4.814   5.808  1.6212  0.7180  1.3110
   20CHL1   H7B 1419   1.344   4.924   5.737  0.0627  0.7599 -0.5087
   20CHL1    C8 1420   1.560   4.964   5.672 -0.7721  0.4902 -0.2414
   20CHL1    H8 1421   1.650   4.921   5.722 -1.2244 -0.9541 -0.5998
   20CHL1   C14 1422   1.540   4.884   5.536 -0.3232 -0.3828  0.1200
   20CHL1   H14 1423   1.443   4.921   5.496  0.4818  0.6685 -0.9174
   20CHL1   C15 1424   1.531   4.734   5.546  0.5184  0.5000 -0.5398
   20CHL1  H15A 1425   1.609   4.689   5.612 -0.9135 -0.6836  0.4139
   20CHL1  H15B 1426   1.432   4.701   5.584  0.2463  0.5357 -1.2134
   20CHL1   C16 1427   1.551   4.690   5.397  0.5408 -0.3650 -0.3648
   20CHL1  H16A 1428   1.633   4.616   5.406  1.4599  0.7537  0.9044
   20CHL1  H16B 1429   1.459   4.655   5.346 -1.0299  1.6846  0.8978
   20CHL1   C17 1430   1.612   4.814   5.325 -0.1793 -0.2878 -1.0512
   20CHL1   H17 1431   1.532   4.870   5.271 -0.1198  1.7651  0.8395
   20CHL1   C13 1432   1.650   4.918   5.438 -0.6548  0.2000 -0.3009
   20CHL1   C18 1433   1.797   4.886   5.492  0.3903  0.6997 -0.0230
   20CHL1  H18A 1434   1.798   4.779   5.521  1.1794  0.4944 -0.7795
   20CHL1  H18B 1435   1.870   4.909   5.412 -0.7750  1.7596 -0.8167
   20CHL1  H18C 1436   1.807   4.945   5.586 -0.4888 -0.5623  0.8889
   20CHL1   C12 1437   1.631   5.068   5.408  0.5706  0.3245 -0.2945
   20CHL1  H12A 1438   1.712   5.099   5.339  1.0685 -1.6104 -0.6257
   20CHL1  H12B 1439   1.529   5.085   5.368  0.1214  1.0399  1.0680
   20CHL1   C11 1440   1.642   5.163   5.532  1.1077  0.0580  0.0795
   20CHL1  H11A 1441   1.745   5.153   5.574  0.7382 -1.1897  0.7457
   20CHL1  H11B 1442   1.620   5.271   5.520  2.7985  0.5995  1.4148
   20CHL1    C9 1443   1.552   5.112   5.651 -0.0435 -0.0923  0.8381
   20CHL1    H9 1444   1.448   5.119   5.614 -0.0368  0.1740  0.8685
   20CHL1   C10 1445   1.561   5.190   5.783  0.4491 -0.6465 -0.7600
   20CHL1   C19 1446   1.708   5.186   5.822 -0.1636 -0.5030 -0.2202
   20CHL1  H19A 1447   1.736   5.080   5.837  2.0694  0.0319 -0.2837
   20CHL1  H19B 1448   1.764   5.242   5.744  0.0538 -0.0154  0.2836
   20CHL1  H19C 1449   1.720   5.242   5.917 -1.3568 -3.3722  1.7588
   20CHL1    C1 1450   1.518   5.337   5.763 -0.5863 -0.4445  0.4623
   20CHL1   H1A 1451   1.596   5.381   5.698  0.5229 -1.8593  0.8039
   20CHL1   H1B 1452   1.422   5.341   5.707 -0.1910  0.1922 -0.1914
   20CHL1    C2 1453   1.511   5.427   5.891 -0.7967 -0.6840  0.0131
   20CHL1   H2A 1454   1.469   5.527   5.866  0.2843 -0.5723 -1.4881
   20CHL1   H2B 1455   1.611   5.441   5.939 -1.3222  1.8002  0.5442
   20CHL1   C20 1456   1.725   4.778   5.227  0.6491  0.2049 -0.2373
   20CHL1   H20 1457   1.813   4.740   5.284 -0.7963 -0.9830  1.3340
   20CHL1   C21 1458   1.773   4.897   5.151 -0.2107 -0.1211 -0.2404
   20CHL1  H21A 1459   1.830   4.971   5.211  1.4477 -2.3176  1.0893
   20CHL1  H21B 1460   1.690   4.940   5.090 -0.5325 -1.8436 -1.0766
   20CHL1  H21C 1461   1.843   4.850   5.080  0.2782 -2.5974  1.7375
   20CHL1   C22 1462   1.682   4.667   5.129  0.1335 -0.3916  0.6733
   20CHL1  H22A 1463   1.771   4.632   5.073  0.0697 -0.6205  0.7148
   20CHL1  H22B 1464   1.646   4.577   5.183 -2.0843 -0.2502 -0.4587
   20CHL1   C23 1465   1.569   4.699   5.030 -0.3795  0.3772  0.4005
   20CHL1  H23A 1466   1.488   4.738   5.095 -1.1842  0.1358 -0.4414
   20CHL1  H23B 1467   1.603   4.778   4.959 -0.7855 -0.1499 -0.3995
   20CHL1   C24 1468   1.517   4.579   4.956 -0.3580  0.0698  0.8065
   20CHL1  H24A 1469   1.600   4.552   4.887 -1.6091  0.4100 -0.8945
   20CHL1  H24B 1470   1.486   4.497   5.025 -0.7167  0.2169  0.8212
   20CHL1   C25 1471   1.392   4.597   4.868 -0.3802  0.1454  0.0127
   20CHL1   H25 1472   1.309   4.647   4.922 -1.1054  0.9880 -1.7687
   20CHL1   C26 1473   1.420   4.693   4.752  0.7265 -0.2663  0.0279
   20CHL1  H26A 1474   1.470   4.636   4.671  0.2199 -1.1334  0.3165
   20CHL1  H26B 1475   1.327   4.738   4.710 -0.1846 -1.2692  0.8957
   20CHL1  H26C 1476   1.487   4.777   4.781  2.1504 -0.6137 -2.0034
   20CHL1   C27 1477   1.339   4.468   4.815 -0.6767 -0.4390 -0.0233
   20CHL1  H27A 1478   1.399   4.424   4.733  1.7196  2.0025  0.2631
   20CHL1  H27B 1479   1.345   4.385   4.889  0.1886  0.2196  0.6657
   20CHL1  H27C 1480   1.231   4.476   4.789 -1.1006  0.3081  1.8055
   21CHL1    C3 1481   6.697   3.855   6.100 -0.2574  0.5567  0.0091
   21CHL1    H3 1482   6.654   3.956   6.079 -0.0741  0.4486 -0.9333
   21CHL1    O3 1483   6.672   3.823   6.236 -0.2973  0.3873 -0.8361
   21CHL1   H3' 1484   6.696   3.731   6.246 -1.8352  0.1144  0.7064
   21CHL1    C4 1485   6.637   3.750   6.004 -0.0693 -0.5522  0.3696
   21CHL1   H4A 1486   6.675   3.654   6.044  0.4223 -0.9592 -1.0339
   21CHL1   H4B 1487   6.530   3.743   6.033 -0.5357  2.8669 -0.0842
   21CHL1    C5 1488   6.671   3.774   5.869  0.0001 -0.1337 -0.1007
   21CHL1    C6 1489   6.571   3.793   5.782 -0.4622 -0.8461 -0.4478
   21CHL1    H6 1490   6.466   3.786   5.813 -0.4123  1.2996  0.3556
   21CHL1    C7 1491   6.606   3.794   5.634 -0.8821 -0.5711  0.6506
   21CHL1   H7A 1492   6.559   3.705   5.586 -0.6298 -1.1057  1.3696
   21CHL1   H7B 1493   6.564   3.886   5.589 -0.9472 -0.7843  0.2752
   21CHL1    C8 1494   6.756   3.758   5.595 -0.2126  0.2784  0.5395
   21CHL1    H8 1495   6.773   3.648   5.601  0.3450  0.3353  0.0831
   21CHL1   C14 1496   6.792   3.808   5.454 -0.2451 -0.3647 -0.8688
   21CHL1   H14 1497   6.793   3.919   5.460  2.3712 -0.2353 -2.4518
   21CHL1   C15 1498   6.703   3.779   5.342 -0.3982 -1.2788 -0.1798
   21CHL1  H15A 1499   6.667   3.674   5.343  0.9893 -1.7655  0.4624
   21CHL1  H15B 1500   6.607   3.836   5.345  0.6465  0.6395 -1.0700
   21CHL1   C16 1501   6.783   3.823   5.215  0.3096 -0.5998 -1.2736
   21CHL1  H16A 1502   6.759   3.755   5.130  0.2890  0.0705 -1.8170
   21CHL1  H16B 1503   6.758   3.928   5.189 -0.8053 -0.6675 -0.5112
   21CHL1   C17 1504   6.931   3.838   5.261 -0.5099  0.0774  0.0213
   21CHL1   H17 1505   6.966   3.943   5.265  2.5158 -0.7988 -0.4481
   21CHL1   C13 1506   6.940   3.776   5.403  0.9287  0.3140 -0.3500
   21CHL1   C18 1507   6.966   3.626   5.389 -0.2756  0.3555  0.1896
   21CHL1  H18A 1508   7.075   3.606   5.382 -0.0830  0.6400  1.7805
   21CHL1  H18B 1509   6.935   3.570   5.480 -2.5600  0.1147 -0.6841
   21CHL1  H18C 1510   6.905   3.587   5.305  0.7539 -1.5710  0.2658
   21CHL1   C12 1511   7.037   3.849   5.504  0.5746 -0.3781  0.3580
   21CHL1  H12A 1512   7.137   3.803   5.492 -0.0708 -1.7432  0.0268
   21CHL1  H12B 1513   7.045   3.959   5.490  0.7654 -0.5026 -0.5793
   21CHL1   C11 1514   7.000   3.819   5.653  0.5814  0.4895  0.5008
   21CHL1  H11A 1515   7.041   3.718   5.671 -1.2548 -0.6349 -1.2314
   21CHL1  H11B 1516   7.052   3.893   5.717 -1.6055  1.5983  1.1102
   21CHL1    C9 1517   6.853   3.827   5.693  0.3658  0.0771  0.0219
   21CHL1    H9 1518   6.818   3.932   5.690 -1.4568 -0.4650  0.9004
   21CHL1   C10 1519   6.825   3.781   5.835 -0.5340 -0.3230  0.2601
   21CHL1   C19 1520   6.875   3.649   5.863 -0.7702  0.1663 -0.4323
   21CHL1  H19A 1521   6.819   3.573   5.807  0.4897 -1.0562 -0.0932
   21CHL1  H19B 1522   6.981   3.633   5.833 -0.6887  1.3558 -0.8547
   21CHL1  H19C 1523   6.865   3.623   5.971  1.6675  1.1402  0.1181
   21CHL1    C1 1524   6.875   3.896   5.933  0.0788  0.7075  0.0803
   21CHL1   H1A 1525   6.986   3.904   5.925  0.2567 -0.1444  1.2687
   21CHL1   H1B 1526   6.842   3.996   5.899  1.9731  1.4694  0.3403
   21CHL1    C2 1527   6.851   3.875   6.082 -0.4478 -0.6506 -0.2531
   21CHL1   H2A 1528   6.887   3.962   6.141  1.4071 -2.1615  0.9498
   21CHL1   H2B 1529   6.914   3.788   6.111  0.1042 -1.5402 -3.6970
   21CHL1   C20 1530   7.028   3.779   5.146 -0.0648  0.6930  0.3489
   21CHL1   H20 1531   6.999   3.672   5.137 -4.8403  1.7451  0.3914
   21CHL1   C21 1532   7.175   3.791   5.198 -0.6013  0.2678  0.9434
   21CHL1  H21A 1533   7.213   3.893   5.179 -0.2901 -0.5928 -4.7961
   21CHL1  H21B 1534   7.250   3.732   5.141  0.7076  2.0919  0.7100
   21CHL1  H21C 1535   7.193   3.755   5.302 -2.2572 -0.5122  0.9908
   21CHL1   C22 1536   7.010   3.845   5.001  0.1578 -0.4841 -0.2464
   21CHL1  H22A 1537   6.906   3.843   4.961  0.2655  2.1963 -0.8362
   21CHL1  H22B 1538   7.031   3.953   5.018 -2.3895 -0.2697  2.1740
   21CHL1   C23 1539   7.110   3.787   4.900 -0.3095 -0.5266 -0.4649
   21CHL1  H23A 1540   7.203   3.846   4.918  0.1242 -1.2819 -0.1787
   21CHL1  H23B 1541   7.128   3.681   4.926 -3.7337 -1.2328 -0.4813
   21CHL1   C24 1542   7.057   3.820   4.762  0.3804 -0.6969 -0.6843
   21CHL1  H24A 1543   6.952   3.784   4.757 -0.7020  2.1229  0.0068
   21CHL1  H24B 1544   7.045   3.930   4.762  1.5126 -0.5427 -2.1107
   21CHL1   C25 1545   7.138   3.779   4.641 -0.6455 -0.0715 -0.7991
   21CHL1   H25 1546   7.245   3.794   4.670  0.6755 -0.9775 -4.5530
   21CHL1   C26 1547   7.112   3.632   4.608 -0.1667 -0.2117 -0.7559
   21CHL1  H26A 1548   7.192   3.585   4.547  0.3267 -1.2954  0.6573
   21CHL1  H26B 1549   7.099   3.571   4.700  1.7433  2.8794  1.7869
   21CHL1  H26C 1550   7.017   3.622   4.551 -0.3099  2.1421 -1.0305
   21CHL1   C27 1551   7.103   3.866   4.526  0.5608  0.5427 -0.1141
   21CHL1  H27A 1552   7.125   3.974   4.537 -1.8204  1.0096  0.7420
   21CHL1  H27B 1553   7.151   3.823   4.435  0.0555  2.3403 -1.2828
   21CHL1  H27C 1554   6.993   3.853   4.513  0.7413 -1.0962 -0.2806
   22CHL1    C3 1555   3.252   1.962   6.276  0.2181 -0.3620 -1.1379
   22CHL1    H3 1556   3.190   1.872   6.259  0.0464 -0.6912  0.8884
   22CHL1    O3 1557   3.240   1.994   6.413  0.4352 -0.0030 -0.8927
   22CHL1   H3' 1558   3.292   2.071   6.439  0.6176 -1.2627  3.0659
   22CHL1    C4 1559   3.403   1.938   6.222  0.4962 -1.1522  0.0490
   22CHL1   H4A 1560   3.460   2.019   6.272  0.4428 -0.1469 -1.4268
   22CHL1   H4B 1561   3.427   1.837   6.261  0.4235 -0.6511  1.4408
   22CHL1    C5 1562   3.418   1.931   6.069 -0.4668  0.2676  0.9658
   22CHL1    C6 1563   3.489   1.838   6.006 -0.0336  0.5880  0.0131
   22CHL1    H6 1564   3.542   1.758   6.060  0.0044  0.3892 -0.3138
   22CHL1    C7 1565   3.505   1.826   5.853  0.6324 -0.0385 -0.2013
   22CHL1   H7A 1566   3.605   1.781   5.837  1.1648  1.0440  0.0083
   22CHL1   H7B 1567   3.431   1.753   5.814  2.5943 -2.4107  0.3024
   22CHL1    C8 1568   3.468   1.953   5.776  1.3592  0.3276 -0.0035
   22CHL1    H8 1569   3.549   2.028   5.783 -0.7054  2.6434  0.3891
   22CHL1   C14 1570   3.454   1.920   5.631  0.7167  0.9390 -0.0732
   22CHL1   H14 1571   3.369   1.849   5.626  1.5719 -0.3858  2.6454
   22CHL1   C15 1572   3.568   1.843   5.558  0.7177 -0.3967 -0.2198
   22CHL1  H15A 1573   3.668   1.866   5.601  1.5162 -2.0560 -1.1038
   22CHL1  H15B 1574   3.569   1.732   5.564 -0.0265 -0.5194 -1.7990
   22CHL1   C16 1575   3.548   1.889   5.408  1.0083  0.2090 -0.1293
   22CHL1  H16A 1576   3.631   1.955   5.375  0.3840 -0.0993 -2.5088
   22CHL1  H16B 1577   3.547   1.802   5.339 -1.0456  0.9947 -1.1596
   22CHL1   C17 1578   3.419   1.972   5.404 -0.6891  1.0231  0.6121
   22CHL1   H17 1579   3.336   1.898   5.409 -0.9336  1.3006  0.7021
   22CHL1   C13 1580   3.413   2.036   5.537  0.5536  0.4033 -1.2789
   22CHL1   C18 1581   3.527   2.145   5.536  0.3002  0.3087  0.9333
   22CHL1  H18A 1582   3.543   2.179   5.640 -2.3176 -0.1176  1.5617
   22CHL1  H18B 1583   3.631   2.110   5.519 -0.4614 -1.5652 -0.2264
   22CHL1  H18C 1584   3.501   2.237   5.480 -1.0146 -1.4995 -1.6733
   22CHL1   C12 1585   3.277   2.087   5.588 -0.1208 -0.0794  0.0132
   22CHL1  H12A 1586   3.261   2.181   5.532 -0.7047  0.1747  0.5877
   22CHL1  H12B 1587   3.194   2.023   5.549 -0.5220 -0.8962  2.0485
   22CHL1   C11 1588   3.283   2.126   5.736  0.2232  0.4926  0.0224
   22CHL1  H11A 1589   3.345   2.218   5.745 -1.5195  1.8829 -1.3322
   22CHL1  H11B 1590   3.184   2.170   5.761  0.8635  1.0288  1.7237
   22CHL1    C9 1591   3.335   2.009   5.827 -0.4137 -1.2250  0.4520
   22CHL1    H9 1592   3.256   1.932   5.822 -0.3347 -1.3010  0.3476
   22CHL1   C10 1593   3.343   2.037   5.982  0.6156 -0.5168 -0.1380
   22CHL1   C19 1594   3.410   2.181   6.006  0.6693  0.9611 -0.0686
   22CHL1  H19A 1595   3.501   2.186   5.943  0.4359  2.0135 -0.3429
   22CHL1  H19B 1596   3.331   2.249   5.969 -2.2156 -1.1173  1.8142
   22CHL1  H19C 1597   3.431   2.208   6.111 -0.4471 -0.7782  0.6455
   22CHL1    C1 1598   3.205   2.049   6.039 -0.2276  0.0072  1.0927
   22CHL1   H1A 1599   3.135   2.118   5.987 -1.5514 -3.5415 -2.3231
   22CHL1   H1B 1600   3.159   1.948   6.030  1.5048 -0.6992 -0.4711
   22CHL1    C2 1601   3.198   2.082   6.193 -0.0076 -0.1081  0.7956
   22CHL1   H2A 1602   3.090   2.099   6.211 -0.6559 -0.0250 -2.5618
   22CHL1   H2B 1603   3.256   2.172   6.224  0.8404  0.0385 -1.0710
   22CHL1   C20 1604   3.402   2.054   5.275  0.7769  0.0004 -0.2465
   22CHL1   H20 1605   3.427   2.161   5.290  2.6269 -0.4921  0.4746
   22CHL1   C21 1606   3.253   2.049   5.238 -0.5897  0.6252 -0.4269
   22CHL1  H21A 1607   3.209   1.947   5.233  0.8124  0.0025 -0.5297
   22CHL1  H21B 1608   3.226   2.092   5.139  1.0317  0.6692 -0.8786
   22CHL1  H21C 1609   3.198   2.116   5.307 -1.1762  0.9910 -1.2323
   22CHL1   C22 1610   3.492   2.005   5.159  0.8584  0.4054  0.0600
   22CHL1  H22A 1611   3.597   2.036   5.176  0.2656  2.1596  0.7771
   22CHL1  H22B 1612   3.476   1.896   5.157  0.4517  0.4575 -1.9053
   22CHL1   C23 1613   3.448   2.061   5.024 -0.9203  0.0791  0.2172
   22CHL1  H23A 1614   3.528   2.024   4.956 -0.9213 -1.4305  0.9817
   22CHL1  H23B 1615   3.356   2.009   4.989 -1.3604 -0.0336  1.4801
   22CHL1   C24 1616   3.442   2.212   5.008 -0.2956  0.4773  0.4692
   22CHL1  H24A 1617   3.357   2.252   5.067 -1.5790  1.0384 -1.6556
   22CHL1  H24B 1618   3.530   2.263   5.052  1.3216 -0.2105 -1.8054
   22CHL1   C25 1619   3.420   2.252   4.861  0.0277 -0.0023 -0.0801
   22CHL1   H25 1620   3.319   2.220   4.828  0.2685 -0.1199 -0.7262
   22CHL1   C26 1621   3.433   2.403   4.845 -0.4891  0.5540 -0.0494
   22CHL1  H26A 1622   3.369   2.457   4.918  0.2230 -1.3345  2.0797
   22CHL1  H26B 1623   3.536   2.439   4.868  0.0230 -0.2253 -1.0199
   22CHL1  H26C 1624   3.406   2.436   4.743  3.9519 -0.3314 -1.7481
   22CHL1   C27 1625   3.513   2.185   4.761  0.1959  0.3611  0.2727
   22CHL1  H27A 1626   3.618   2.180   4.798  1.1048 -3.7077 -2.2050
   22CHL1  H27B 1627   3.476   2.081   4.747  2.3096 -0.2730 -1.1355
   22CHL1  H27C 1628   3.526   2.236   4.663 -1.5104  0.6775  0.1857
   23CHL1    C3 1629   6.818   4.292   6.233 -0.6776 -0.3106  1.0833
   23CHL1    H3 1630   6.777   4.191   6.212 -1.2127  0.1331 -0.0969
   23CHL1    O3 1631   6.796   4.341   6.364  0.1190  0.5191 -0.3437
   23CHL1   H3' 1632   6.704   4.329   6.389  0.7717  1.6601  3.1823
   23CHL1    C4 1633   6.970   4.299   6.209  0.0625 -0.0535 -0.1462
   23CHL1   H4A 1634   7.006   4.397   6.244 -0.6222 -0.1360  0.8197
   23CHL1   H4B 1635   7.018   4.230   6.282 -0.7787 -0.3159  0.1782
   23CHL1    C5 1636   7.020   4.275   6.072  0.5894 -0.4621  0.1077
   23CHL1    C6 1637   7.105   4.173   6.042  0.1723 -1.0140  0.2155
   23CHL1    H6 1638   7.159   4.133   6.129  3.5048  1.3958 -0.5373
   23CHL1    C7 1639   7.171   4.152   5.907 -0.6222  0.2359 -0.9447
   23CHL1   H7A 1640   7.280   4.166   5.927 -0.6156 -2.1522  1.2435
   23CHL1   H7B 1641   7.160   4.047   5.872  0.3837 -0.8732  1.7487
   23CHL1    C8 1642   7.128   4.262   5.805 -0.4229 -0.4021  0.4747
   23CHL1    H8 1643   7.197   4.348   5.816 -1.1504  0.0872  1.4158
   23CHL1   C14 1644   7.131   4.205   5.662 -1.0080  0.1553 -0.3527
   23CHL1   H14 1645   7.070   4.114   5.650 -0.5716 -0.0361 -1.2212
   23CHL1   C15 1646   7.269   4.143   5.614  0.9170  0.1364 -0.8008
   23CHL1  H15A 1647   7.350   4.205   5.658  1.0812 -0.1735 -0.6651
   23CHL1  H15B 1648   7.286   4.036   5.642  2.6856  0.9354  1.5382
   23CHL1   C16 1649   7.258   4.144   5.462 -0.4535 -0.0677 -0.3073
   23CHL1  H16A 1650   7.341   4.204   5.419 -0.7497  2.0129  1.8247
   23CHL1  H16B 1651   7.269   4.048   5.407 -0.7579  0.0196 -0.5291
   23CHL1   C17 1652   7.127   4.217   5.427  0.2829  0.2510  0.3234
   23CHL1   H17 1653   7.046   4.141   5.420  1.0383 -0.5369 -0.0959
   23CHL1   C13 1654   7.094   4.298   5.554  0.7855 -1.0540  0.2732
   23CHL1   C18 1655   7.185   4.424   5.549  0.3559 -0.5166 -0.4536
   23CHL1  H18A 1656   7.168   4.483   5.641 -1.4861  0.1285 -1.1674
   23CHL1  H18B 1657   7.291   4.390   5.551  1.2088  1.9455 -0.4771
   23CHL1  H18C 1658   7.159   4.497   5.470 -0.6405 -0.5299 -0.1482
   23CHL1   C12 1659   6.949   4.350   5.574 -0.1570 -1.1731 -0.2704
   23CHL1  H12A 1660   6.920   4.420   5.493 -0.7516  1.2803  1.9430
   23CHL1  H12B 1661   6.875   4.267   5.563 -0.7218 -0.7289  0.1239
   23CHL1   C11 1662   6.927   4.405   5.716 -0.4101 -0.3345 -0.1205
   23CHL1  H11A 1663   6.984   4.499   5.730 -2.0085  0.5145  1.0124
   23CHL1  H11B 1664   6.828   4.453   5.731 -0.2025 -0.1908  0.8460
   23CHL1    C9 1665   6.979   4.312   5.825 -0.2127 -0.0782 -0.3099
   23CHL1    H9 1666   6.926   4.214   5.820  1.4542 -1.1795  1.8060
   23CHL1   C10 1667   6.953   4.360   5.971  0.0100  0.0480  0.5969
   23CHL1   C19 1668   7.007   4.509   5.988 -0.2030  1.1184 -0.2406
   23CHL1  H19A 1669   7.007   4.541   6.094  4.6966  0.3339  0.2140
   23CHL1  H19B 1670   7.115   4.510   5.962 -0.2751  0.5233 -0.5940
   23CHL1  H19C 1671   6.941   4.577   5.930 -1.6282  0.5969  0.7313
   23CHL1    C1 1672   6.799   4.352   5.989  0.7759  0.1522  0.0025
   23CHL1   H1A 1673   6.755   4.435   5.928 -0.9726 -0.3322  0.5417
   23CHL1   H1B 1674   6.750   4.262   5.947 -1.8830  0.7901  1.5340
   23CHL1    C2 1675   6.746   4.380   6.133 -1.0025  0.1306 -1.0328
   23CHL1   H2A 1676   6.637   4.365   6.139 -1.3613  0.9227 -4.0510
   23CHL1   H2B 1677   6.764   4.487   6.155 -0.7049 -0.3061  1.0938
   23CHL1   C20 1678   7.129   4.278   5.287  0.8812 -0.3379  0.2488
   23CHL1   H20 1679   7.211   4.353   5.288 -1.0887  2.1297 -3.0375
   23CHL1   C21 1680   7.001   4.360   5.266  0.4799 -0.0350 -0.2137
   23CHL1  H21A 1681   6.913   4.312   5.314  1.0805  0.0752  1.0111
   23CHL1  H21B 1682   6.972   4.355   5.158 -0.0196  1.4966 -0.1709
   23CHL1  H21C 1683   7.029   4.463   5.296  0.0831  0.0467 -0.1108
   23CHL1   C22 1684   7.149   4.176   5.167 -0.3279  0.4837 -0.4013
   23CHL1  H22A 1685   7.224   4.105   5.208 -0.1812  1.0267  0.2897
   23CHL1  H22B 1686   7.057   4.121   5.136 -0.2129 -0.4220  0.8237
   23CHL1   C23 1687   7.217   4.242   5.048  0.0132 -0.4796 -0.4350
   23CHL1  H23A 1688   7.144   4.313   5.002  0.0666 -1.1693 -1.6302
   23CHL1  H23B 1689   7.303   4.301   5.087  2.7174 -3.3480 -1.6973
   23CHL1   C24 1690   7.270   4.136   4.947  0.1267  0.4730 -0.5417
   23CHL1  H24A 1691   7.334   4.059   4.997 -1.2629 -0.2717  0.1588
   23CHL1  H24B 1692   7.185   4.078   4.906  0.6693  0.8783 -2.3277
   23CHL1   C25 1693   7.357   4.208   4.831  0.1019  0.6995 -0.5018
   23CHL1   H25 1694   7.431   4.269   4.887 -1.9410  3.7168 -0.8246
   23CHL1   C26 1695   7.417   4.096   4.751 -0.5938  0.4438  0.3517
   23CHL1  H26A 1696   7.344   4.029   4.700 -0.7454  0.6290  0.3274
   23CHL1  H26B 1697   7.488   4.132   4.673 -1.9765 -2.3381 -2.4110
   23CHL1  H26C 1698   7.463   4.026   4.824  1.6961  2.6988  1.2031
   23CHL1   C27 1699   7.278   4.305   4.739  0.0869 -0.2169 -0.1115
   23CHL1  H27A 1700   7.186   4.253   4.704 -0.7487 -0.1033  1.7980
   23CHL1  H27B 1701   7.253   4.396   4.796  1.2148 -0.3063  0.5486
   23CHL1  H27C 1702   7.341   4.329   4.650 -1.6325  0.0420 -1.3098
   24CHL1    C3 1703   4.774   1.630   5.977  0.3865 -0.3653  0.2249
   24CHL1    H3 1704   4.670   1.600   5.954 -1.2810  2.4370  3.2781
   24CHL1    O3 1705   4.804   1.585   6.109 -0.1271 -0.8405 -0.4366
   24CHL1   H3' 1706   4.879   1.633   6.143 -1.0663 -0.9297  2.0208
   24CHL1    C4 1707   4.875   1.567   5.875  0.3788  0.1386  0.2548
   24CHL1   H4A 1708   4.982   1.573   5.903  0.3302 -1.5441  0.9220
   24CHL1   H4B 1709   4.863   1.457   5.867 -1.6077  0.3298  0.2023
   24CHL1    C5 1710   4.863   1.630   5.735 -0.4419 -0.3841 -0.8965
   24CHL1    C6 1711   4.836   1.553   5.633  0.4088  0.3369  0.4895
   24CHL1    H6 1712   4.834   1.446   5.655 -0.3495 -0.3473 -2.4564
   24CHL1    C7 1713   4.824   1.587   5.490 -0.2666  0.1318 -0.3044
   24CHL1   H7A 1714   4.876   1.507   5.434 -0.9761 -0.0870 -0.6589
   24CHL1   H7B 1715   4.719   1.592   5.454 -0.3185  0.8000 -0.0770
   24CHL1    C8 1716   4.895   1.721   5.465 -0.2783  0.3503  0.3483
   24CHL1    H8 1717   5.004   1.704   5.477  0.4507  3.6353 -0.5074
   24CHL1   C14 1718   4.877   1.767   5.323  0.0662 -0.3565  1.0360
   24CHL1   H14 1719   4.766   1.777   5.316  0.0353 -1.3042 -0.4825
   24CHL1   C15 1720   4.913   1.682   5.208  0.6505 -0.7380  0.7211
   24CHL1  H15A 1721   5.020   1.652   5.202  1.2063  1.3316 -0.6708
   24CHL1  H15B 1722   4.846   1.593   5.207 -2.2152  1.2560 -2.5175
   24CHL1   C16 1723   4.881   1.777   5.087 -0.4624  0.6616  0.7662
   24CHL1  H16A 1724   4.968   1.774   5.017 -1.7418  3.1721 -1.0942
   24CHL1  H16B 1725   4.784   1.755   5.038  0.1939 -0.9588  0.0980
   24CHL1   C17 1726   4.881   1.922   5.145  0.0792  1.0101  0.0997
   24CHL1   H17 1727   4.774   1.944   5.158  0.0652  0.2584  1.4081
   24CHL1   C13 1728   4.936   1.902   5.292  0.7376  0.2727  0.5493
   24CHL1   C18 1729   5.089   1.903   5.291 -0.1845  0.0699  0.1228
   24CHL1  H18A 1730   5.136   1.999   5.263  1.0310 -0.5246  0.0503
   24CHL1  H18B 1731   5.125   1.880   5.394  0.3777  2.5495  0.5255
   24CHL1  H18C 1732   5.139   1.827   5.226  0.6964  1.6653 -1.1252
   24CHL1   C12 1733   4.887   2.010   5.400  0.3395 -0.0036 -0.6274
   24CHL1  H12A 1734   4.912   2.116   5.377 -1.4558  0.8167  0.9432
   24CHL1  H12B 1735   4.777   1.996   5.391  0.3791 -0.4816 -0.4064
   24CHL1   C11 1736   4.923   1.964   5.541  0.4920 -0.2812  0.0219
   24CHL1  H11A 1737   5.032   1.984   5.548  0.1975  1.0141  1.3648
   24CHL1  H11B 1738   4.879   2.041   5.608 -1.1524  0.3872 -1.7272
   24CHL1    C9 1739   4.853   1.824   5.573 -0.4839 -0.6376  0.0377
   24CHL1    H9 1740   4.745   1.850   5.567  0.1890  2.4172 -0.8596
   24CHL1   C10 1741   4.880   1.776   5.724 -0.1362  0.0112  0.2947
   24CHL1   C19 1742   5.019   1.821   5.764  0.2589  0.6656 -0.3506
   24CHL1  H19A 1743   5.092   1.812   5.681  2.4235  1.4581  1.3767
   24CHL1  H19B 1744   5.009   1.931   5.778 -1.8311  0.4217  0.6109
   24CHL1  H19C 1745   5.044   1.779   5.864 -1.0219  1.2259  0.2346
   24CHL1    C1 1746   4.782   1.835   5.821  0.8457  1.1627  0.0189
   24CHL1   H1A 1747   4.792   1.946   5.818  1.1548  1.3578  3.5066
   24CHL1   H1B 1748   4.678   1.816   5.786  0.8957 -0.0362  0.4882
   24CHL1    C2 1749   4.786   1.785   5.970 -0.0492  1.0684  0.3877
   24CHL1   H2A 1750   4.709   1.837   6.030 -1.0597  0.6776 -0.5511
   24CHL1   H2B 1751   4.886   1.813   6.012 -0.0134  0.7246  0.5369
   24CHL1   C20 1752   4.941   2.026   5.052 -0.1788  0.3109 -0.3096
   24CHL1   H20 1753   5.050   2.007   5.054  0.0878  1.6621 -0.8687
   24CHL1   C21 1754   4.920   2.162   5.109  0.5076 -0.4548  0.5474
   24CHL1  H21A 1755   4.954   2.244   5.043 -1.9159 -0.7149 -1.1832
   24CHL1  H21B 1756   4.976   2.178   5.204  0.8906  1.0798  0.0932
   24CHL1  H21C 1757   4.811   2.172   5.130  0.6993 -1.2114  2.0743
   24CHL1   C22 1758   4.885   2.009   4.904 -0.7927 -0.8032  1.0810
   24CHL1  H22A 1759   4.915   1.910   4.863 -1.1975 -0.3480 -0.3801
   24CHL1  H22B 1760   4.774   2.013   4.905 -0.9161  0.4177 -2.2550
   24CHL1   C23 1761   4.940   2.119   4.809  0.3959  0.2225 -0.3982
   24CHL1  H23A 1762   4.903   2.220   4.836 -0.7707 -0.4584  0.6776
   24CHL1  H23B 1763   5.048   2.136   4.830  0.5040 -0.3909 -0.4539
   24CHL1   C24 1764   4.925   2.075   4.663  0.6310 -0.1664  0.3614
   24CHL1  H24A 1765   4.960   1.972   4.642 -0.3479 -0.2352 -1.0907
   24CHL1  H24B 1766   4.815   2.081   4.652  0.5441 -1.8638  0.0705
   24CHL1   C25 1767   5.009   2.153   4.553 -0.1099 -0.5994 -0.4859
   24CHL1   H25 1768   5.118   2.146   4.576 -0.0188 -0.1504 -0.7664
   24CHL1   C26 1769   4.978   2.101   4.411  0.4584  0.1581  0.8020
   24CHL1  H26A 1770   4.874   2.122   4.378  0.3987  1.8138  1.9154
   24CHL1  H26B 1771   5.049   2.140   4.335  0.5491 -0.8960  0.3260
   24CHL1  H26C 1772   5.010   1.995   4.415  3.1709  0.8870  0.5715
   24CHL1   C27 1773   4.971   2.298   4.563  0.4229  0.0982 -0.1996
   24CHL1  H27A 1774   4.867   2.305   4.526  0.8284  0.1223 -1.3754
   24CHL1  H27B 1775   5.002   2.346   4.658  1.7743 -1.5316  0.2209
   24CHL1  H27C 1776   5.024   2.358   4.485 -1.4679 -0.1618 -1.7558
   25CHL1    C3 1777   4.963   4.633   6.105  0.0191 -0.5056  0.0635
   25CHL1    H3 1778   4.888   4.551   6.102  1.1987 -1.6859  1.1927
   25CHL1    O3 1779   4.994   4.656   6.242  0.0859  0.1332 -0.3236
   25CHL1   H3' 1780   5.069   4.598   6.258  2.2546  2.7367 -0.5410
   25CHL1    C4 1781   5.090   4.591   6.024 -0.2636  0.3089 -0.3894
   25CHL1   H4A 1782   5.167   4.669   6.042  1.3493 -1.5392  1.1248
   25CHL1   H4B 1783   5.119   4.494   6.070 -2.8927 -0.4893 -0.2796
   25CHL1    C5 1784   5.055   4.574   5.879  0.3828 -0.3154 -0.2180
   25CHL1    C6 1785   5.069   4.453   5.816 -0.5438 -0.3208  0.3247
   25CHL1    H6 1786   5.109   4.368   5.873  2.1630 -1.1466 -2.5218
   25CHL1    C7 1787   5.027   4.436   5.677 -0.1055  0.8621 -0.7884
   25CHL1   H7A 1788   5.106   4.378   5.624  0.2530 -1.3774  1.9868
   25CHL1   H7B 1789   4.934   4.375   5.673 -0.8138  1.9001 -0.6839
   25CHL1    C8 1790   4.997   4.565   5.600 -0.1956 -0.3924 -0.7084
   25CHL1    H8 1791   5.100   4.602   5.582  1.0519 -2.2763  1.8546
   25CHL1   C14 1792   4.929   4.550   5.466 -0.2378  0.1582 -0.0726
   25CHL1   H14 1793   4.826   4.513   5.484 -0.4958 -1.8115 -4.3601
   25CHL1   C15 1794   4.992   4.437   5.383  0.4120 -0.6522 -0.3015
   25CHL1  H15A 1795   5.102   4.430   5.399  0.5340  2.3736  0.9011
   25CHL1  H15B 1796   4.960   4.333   5.405 -1.8474  0.4292  2.0299
   25CHL1   C16 1797   4.946   4.479   5.234  0.0937 -0.7343 -0.0303
   25CHL1  H16A 1798   5.043   4.500   5.182  1.2632  1.0834  2.6745
   25CHL1  H16B 1799   4.889   4.401   5.179  1.2158 -1.5257 -0.1004
   25CHL1   C17 1800   4.864   4.616   5.246  0.4188  0.3880 -0.1069
   25CHL1   H17 1801   4.763   4.572   5.255  0.9639 -0.7105  0.9796
   25CHL1   C13 1802   4.908   4.678   5.383 -0.2812 -0.6685 -0.2536
   25CHL1   C18 1803   5.047   4.745   5.358 -0.1834  0.1228 -0.0581
   25CHL1  H18A 1804   5.094   4.760   5.458 -2.6177  0.2254  1.1422
   25CHL1  H18B 1805   5.108   4.673   5.300  0.0747 -0.3891  0.8321
   25CHL1  H18C 1806   5.059   4.842   5.304  2.2554 -0.3474 -0.4778
   25CHL1   C12 1807   4.812   4.769   5.467 -0.5764 -0.7453 -0.3195
   25CHL1  H12A 1808   4.792   4.869   5.422 -2.7235 -1.2129 -0.5145
   25CHL1  H12B 1809   4.712   4.723   5.481 -0.7540 -0.6716 -1.2814
   25CHL1   C11 1810   4.874   4.790   5.607 -0.4021  0.7185  1.0604
   25CHL1  H11A 1811   4.960   4.856   5.581 -0.4046  0.5317  0.5659
   25CHL1  H11B 1812   4.804   4.857   5.662 -0.8436  0.7484  0.4697
   25CHL1    C9 1813   4.913   4.665   5.680  0.0366  0.4196 -0.2547
   25CHL1    H9 1814   4.814   4.616   5.693 -0.4932  0.8224 -2.3681
   25CHL1   C10 1815   4.982   4.696   5.816 -0.0583  0.6184  0.0337
   25CHL1   C19 1816   5.091   4.809   5.797  0.5414 -0.4170  0.1391
   25CHL1  H19A 1817   5.166   4.757   5.734  1.3484 -1.6351  2.0197
   25CHL1  H19B 1818   5.054   4.909   5.767 -2.0518 -1.0546  0.9493
   25CHL1  H19C 1819   5.151   4.824   5.889  1.5657  2.1365 -0.8473
   25CHL1    C1 1820   4.870   4.749   5.903 -0.0496 -0.0065 -0.4358
   25CHL1   H1A 1821   4.845   4.851   5.867 -2.7598 -0.8948 -1.3318
   25CHL1   H1B 1822   4.779   4.686   5.893 -0.6470  1.1298 -2.7530
   25CHL1    C2 1823   4.912   4.763   6.053 -0.0218 -0.1200 -0.3146
   25CHL1   H2A 1824   4.822   4.806   6.102 -0.7531 -0.7633 -1.0836
   25CHL1   H2B 1825   4.996   4.836   6.060  0.6815 -1.0268  1.4816
   25CHL1   C20 1826   4.872   4.701   5.112  0.3422 -0.1282  0.1575
   25CHL1   H20 1827   4.975   4.741   5.096 -0.3469  1.9650  0.6433
   25CHL1   C21 1828   4.782   4.829   5.126 -0.2670 -0.6380 -0.3761
   25CHL1  H21A 1829   4.819   4.882   5.216  0.0249 -2.5718  0.6828
   25CHL1  H21B 1830   4.675   4.805   5.138 -0.2275 -0.0775  1.2838
   25CHL1  H21C 1831   4.790   4.893   5.035 -0.8883  0.8127  0.5632
   25CHL1   C22 1832   4.843   4.617   4.980  0.0331  1.0670 -0.6501
   25CHL1  H22A 1833   4.906   4.526   4.979 -0.3820  0.7812 -0.9477
   25CHL1  H22B 1834   4.745   4.571   5.002  1.0611  0.7999  4.8435
   25CHL1   C23 1835   4.843   4.700   4.855  0.0132 -0.1119  0.0900
   25CHL1  H23A 1836   4.777   4.789   4.856  1.3577  0.9237  0.5852
   25CHL1  H23B 1837   4.949   4.734   4.847  0.7280 -2.1369  0.5307
   25CHL1   C24 1838   4.806   4.619   4.727 -0.6195  0.0925  0.4255
   25CHL1  H24A 1839   4.869   4.527   4.724 -0.1262  0.4552 -0.9505
   25CHL1  H24B 1840   4.699   4.593   4.744 -0.6191 -1.9070 -2.0138
   25CHL1   C25 1841   4.803   4.681   4.582  0.3271  0.0900  0.9254
   25CHL1   H25 1842   4.743   4.775   4.587 -2.2964 -1.3747 -1.0220
   25CHL1   C26 1843   4.944   4.738   4.533  0.6030  0.3606  0.2811
   25CHL1  H26A 1844   4.967   4.839   4.574  0.5203 -0.0333  1.3288
   25CHL1  H26B 1845   5.018   4.660   4.558 -1.6942 -2.5249 -1.2930
   25CHL1  H26C 1846   4.939   4.759   4.424  3.6601  0.3977  0.0539
   25CHL1   C27 1847   4.740   4.580   4.485 -1.1709 -0.3735  0.5425
   25CHL1  H27A 1848   4.794   4.484   4.469 -1.1000 -0.2193 -0.1552
   25CHL1  H27B 1849   4.631   4.562   4.497 -1.0479 -0.9230  0.9291
   25CHL1  H27C 1850   4.740   4.624   4.383 -1.1356 -2.2608 -0.3295
   26CHL1    C3 1851   5.258   1.275   6.090 -0.3499  0.1657  0.0035
   26CHL1    H3 1852   5.357   1.318   6.113 -1.0942  1.6806  0.5314
   26CHL1    O3 1853   5.176   1.251   6.206  0.4255 -0.1453  0.0102
   26CHL1   H3' 1854   5.190   1.167   6.250 -1.6314 -0.2570  0.5437
   26CHL1    C4 1855   5.178   1.358   5.989 -0.1694 -0.5351  0.5477
   26CHL1   H4A 1856   5.073   1.323   5.996 -0.2651 -0.9433 -2.0368
   26CHL1   H4B 1857   5.179   1.464   6.023  1.5891  0.7799 -3.0011
   26CHL1    C5 1858   5.209   1.355   5.839  0.5711  0.8415 -0.4293
   26CHL1    C6 1859   5.213   1.472   5.774 -0.5848  0.6664  1.2544
   26CHL1    H6 1860   5.184   1.572   5.809 -2.1304  1.7729 -2.6584
   26CHL1    C7 1861   5.241   1.474   5.620  0.1392  0.6891 -0.0112
   26CHL1   H7A 1862   5.158   1.534   5.578  0.1156  0.1236 -0.7876
   26CHL1   H7B 1863   5.338   1.528   5.606  0.0663  0.5381 -1.1933
   26CHL1    C8 1864   5.256   1.336   5.555  0.0388  1.0099 -0.8027
   26CHL1    H8 1865   5.154   1.295   5.536  0.2259  0.2474 -0.2035
   26CHL1   C14 1866   5.329   1.350   5.423 -0.2185  0.1285 -0.7211
   26CHL1   H14 1867   5.428   1.383   5.462  0.1174 -1.4975 -0.1019
   26CHL1   C15 1868   5.296   1.471   5.332  0.6808 -0.0382 -0.2134
   26CHL1  H15A 1869   5.185   1.481   5.323  0.7132  2.0914  0.9412
   26CHL1  H15B 1870   5.343   1.561   5.376 -0.0272 -0.7847  2.2080
   26CHL1   C16 1871   5.351   1.423   5.196 -0.6401  0.2089  0.0403
   26CHL1  H16A 1872   5.261   1.409   5.131  1.3189 -0.4248 -2.6872
   26CHL1  H16B 1873   5.423   1.494   5.152 -1.7219  0.4832 -1.3541
   26CHL1   C17 1874   5.417   1.284   5.215 -1.0356 -0.6947 -0.2230
   26CHL1   H17 1875   5.517   1.309   5.256 -0.9642 -1.4052  0.0622
   26CHL1   C13 1876   5.347   1.223   5.345 -0.5547 -0.5063  0.5724
   26CHL1   C18 1877   5.215   1.162   5.305  0.3407  0.6424  0.3157
   26CHL1  H18A 1878   5.147   1.142   5.390 -0.8433 -2.7274 -1.2177
   26CHL1  H18B 1879   5.157   1.219   5.229 -0.1884 -1.3637 -0.8611
   26CHL1  H18C 1880   5.235   1.064   5.257 -0.6595  0.9637 -0.8089
   26CHL1   C12 1881   5.431   1.123   5.433  0.0594 -0.4219 -0.1772
   26CHL1  H12A 1882   5.428   1.023   5.385  1.3982 -0.4413 -0.2747
   26CHL1  H12B 1883   5.540   1.145   5.437 -0.4521  2.4490  0.0681
   26CHL1   C11 1884   5.372   1.102   5.574  0.1869 -0.2564 -0.4260
   26CHL1  H11A 1885   5.279   1.040   5.567 -0.9566  1.3151  0.1196
   26CHL1  H11B 1886   5.445   1.047   5.637  0.3525  0.7820  0.3019
   26CHL1    C9 1887   5.339   1.239   5.646  0.8771  0.4785 -0.4286
   26CHL1    H9 1888   5.432   1.298   5.665 -0.6427  3.3186 -1.1950
   26CHL1   C10 1889   5.256   1.221   5.779  0.0654 -0.2894 -0.1840
   26CHL1   C19 1890   5.133   1.132   5.762  1.1335 -0.1469  0.0266
   26CHL1  H19A 1891   5.065   1.134   5.851 -1.1108 -1.0101 -1.5725
   26CHL1  H19B 1892   5.077   1.175   5.676  1.8275  0.5778 -0.0808
   26CHL1  H19C 1893   5.146   1.026   5.732 -0.0075  0.1106 -1.4989
   26CHL1    C1 1894   5.353   1.158   5.890  0.3985  0.1228 -0.2113
   26CHL1   H1A 1895   5.382   1.057   5.854 -2.2375 -1.2792  1.3416
   26CHL1   H1B 1896   5.448   1.217   5.891  1.5103 -1.5736  2.2243
   26CHL1    C2 1897   5.286   1.145   6.028  0.1592  0.1044 -0.2806
   26CHL1   H2A 1898   5.346   1.087   6.101 -0.7212 -0.2041  0.2122
   26CHL1   H2B 1899   5.189   1.092   6.014 -0.2224  1.0323 -1.3440
   26CHL1   C20 1900   5.427   1.213   5.086  0.3266 -0.2901 -0.3255
   26CHL1   H20 1901   5.328   1.175   5.054  0.8236 -0.1586 -2.0969
   26CHL1   C21 1902   5.524   1.090   5.107  0.9383 -0.1454  0.0287
   26CHL1  H21A 1903   5.487   1.011   5.176  0.8990  0.8067  1.1313
   26CHL1  H21B 1904   5.624   1.129   5.137  0.4481  1.3423 -0.1841
   26CHL1  H21C 1905   5.532   1.039   5.008  1.6277  0.5052 -0.2582
   26CHL1   C22 1906   5.479   1.295   4.973  0.0407 -0.2323 -0.1252
   26CHL1  H22A 1907   5.399   1.370   4.958  1.2045  0.6225 -2.5038
   26CHL1  H22B 1908   5.567   1.357   4.998 -0.1817  0.1947 -0.3995
   26CHL1   C23 1909   5.480   1.224   4.827 -0.2864  0.0099 -0.6508
   26CHL1  H23A 1910   5.547   1.135   4.827  1.8894  1.5306  1.1279
   26CHL1  H23B 1911   5.377   1.182   4.817  0.4464 -2.6998  1.7152
   26CHL1   C24 1912   5.513   1.310   4.711  0.4098 -0.7645 -0.1435
   26CHL1  H24A 1913   5.503   1.249   4.619  1.8722 -2.5811  0.8470
   26CHL1  H24B 1914   5.439   1.393   4.707 -0.5451 -1.4551  1.8732
   26CHL1   C25 1915   5.655   1.381   4.711 -0.8384  0.1682  0.0069
   26CHL1   H25 1916   5.681   1.427   4.809  0.5222 -2.8134  1.1919
   26CHL1   C26 1917   5.777   1.286   4.686 -0.3809 -0.1786  0.1889
   26CHL1  H26A 1918   5.771   1.195   4.749 -0.5136  0.6035  1.3386
   26CHL1  H26B 1919   5.782   1.249   4.581  0.6025  1.0279 -0.2194
   26CHL1  H26C 1920   5.873   1.339   4.700 -0.6705  0.0501  1.3629
   26CHL1   C27 1921   5.660   1.501   4.612 -0.1414  0.6663 -0.5308
   26CHL1  H27A 1922   5.601   1.586   4.653  1.2549  0.9713  0.9658
   26CHL1  H27B 1923   5.764   1.538   4.596 -0.5943  1.6951 -1.2173
   26CHL1  H27C 1924   5.614   1.473   4.515  0.0048  2.9571 -1.3276
   27CHL1    C3 1925   3.192   0.472   5.990 -0.3062 -0.3151  0.3236
   27CHL1    H3 1926   3.200   0.583   5.995  0.0965 -0.3929  1.7263
   27CHL1    O3 1927   3.198   0.417   6.120  0.4382 -0.3077  0.2397
   27CHL1   H3' 1928   3.121   0.453   6.166  0.2623 -1.1276  0.6151
   27CHL1    C4 1929   3.066   0.419   5.923  0.4293 -0.6094  0.5032
   27CHL1   H4A 1930   3.069   0.308   5.934 -0.0594 -0.8733 -1.5562
   27CHL1   H4B 1931   2.982   0.460   5.982  0.8945  0.2312  0.5885
   27CHL1    C5 1932   3.057   0.468   5.783  0.4878  0.3177 -0.1361
   27CHL1    C6 1933   2.948   0.535   5.734  0.0773 -0.3956 -0.3284
   27CHL1    H6 1934   2.866   0.560   5.803 -0.6311  0.1943 -1.3559
   27CHL1    C7 1935   2.932   0.576   5.592 -0.8146 -0.0103  0.4828
   27CHL1   H7A 1936   2.827   0.556   5.563 -0.2617 -1.8087 -0.4563
   27CHL1   H7B 1937   2.935   0.686   5.578  2.5517 -0.0165  0.2613
   27CHL1    C8 1938   3.031   0.502   5.496  0.0577 -0.6354  0.2315
   27CHL1    H8 1939   3.011   0.393   5.491  1.0426 -0.9369  1.9278
   27CHL1   C14 1940   3.036   0.578   5.370  0.0132 -0.4298 -0.1002
   27CHL1   H14 1941   3.088   0.676   5.381  0.6063 -0.7548  0.0015
   27CHL1   C15 1942   2.905   0.616   5.309  1.4630 -0.5705 -0.6221
   27CHL1  H15A 1943   2.823   0.540   5.309 -0.6549  1.5935  0.3115
   27CHL1  H15B 1944   2.874   0.710   5.360  1.3797 -1.2925  0.7194
   27CHL1   C16 1945   2.934   0.626   5.157 -0.3856  0.8285  0.5091
   27CHL1  H16A 1946   2.867   0.560   5.099 -0.6782  1.9678 -0.5012
   27CHL1  H16B 1947   2.921   0.727   5.112 -1.6165  0.3206 -0.3127
   27CHL1   C17 1948   3.090   0.586   5.138 -0.1637 -0.1820 -0.0346
   27CHL1   H17 1949   3.143   0.683   5.154 -0.2916  0.1918 -1.6786
   27CHL1   C13 1950   3.117   0.507   5.262 -0.3029  0.6172  0.2527
   27CHL1   C18 1951   3.065   0.365   5.240 -0.3924  0.8093  0.4498
   27CHL1  H18A 1952   3.058   0.297   5.327  3.6480  1.1219  1.2284
   27CHL1  H18B 1953   2.967   0.363   5.188 -0.0416  0.0070 -0.2091
   27CHL1  H18C 1954   3.126   0.322   5.158 -1.7129  0.6951 -0.4948
   27CHL1   C12 1955   3.262   0.497   5.308 -0.0423  0.2743  0.0908
   27CHL1  H12A 1956   3.329   0.444   5.237  1.4864  1.8118  0.3000
   27CHL1  H12B 1957   3.307   0.599   5.306 -0.0470  0.3209  1.4788
   27CHL1   C11 1958   3.281   0.439   5.451  0.0541 -0.6171 -0.3405
   27CHL1  H11A 1959   3.265   0.330   5.438  1.7718 -0.7597 -1.5988
   27CHL1  H11B 1960   3.387   0.456   5.479  0.1388 -0.2069 -0.8869
   27CHL1    C9 1961   3.172   0.498   5.552 -0.0562 -0.2310 -0.4439
   27CHL1    H9 1962   3.203   0.602   5.574 -1.0020  0.2591 -1.3347
   27CHL1   C10 1963   3.182   0.431   5.698  0.6403 -0.0407  0.1485
   27CHL1   C19 1964   3.177   0.274   5.681 -0.2837  0.7311 -0.2578
   27CHL1  H19A 1965   3.192   0.225   5.779  0.8824 -1.9775 -1.6914
   27CHL1  H19B 1966   3.072   0.257   5.647 -0.0946  1.9841 -1.6188
   27CHL1  H19C 1967   3.251   0.234   5.609  1.1513  0.2782  1.4151
   27CHL1    C1 1968   3.313   0.474   5.776  0.9092 -0.0578  0.0997
   27CHL1   H1A 1969   3.398   0.430   5.720  0.0093  0.3381 -1.6722
   27CHL1   H1B 1970   3.313   0.585   5.766 -1.5167 -0.0015 -0.0053
   27CHL1    C2 1971   3.323   0.426   5.921 -0.0285 -0.0058 -0.1939
   27CHL1   H2A 1972   3.413   0.464   5.973  0.3735  0.7332 -1.3831
   27CHL1   H2B 1973   3.323   0.315   5.916 -0.8734  0.0381 -3.0659
   27CHL1   C20 1974   3.118   0.534   4.998  0.2682  0.3843  0.4246
   27CHL1   H20 1975   3.067   0.436   4.994  0.5787  0.1274  2.2524
   27CHL1   C21 1976   3.265   0.515   4.969 -0.2577 -0.1917 -0.8150
   27CHL1  H21A 1977   3.305   0.430   5.028 -0.0902 -0.6915 -1.6349
   27CHL1  H21B 1978   3.329   0.603   4.992 -2.3996  1.8443 -2.2026
   27CHL1  H21C 1979   3.284   0.498   4.861  2.4981 -0.3021 -0.4039
   27CHL1   C22 1980   3.065   0.616   4.878 -0.0884 -0.4185 -0.3118
   27CHL1  H22A 1981   3.085   0.571   4.778 -0.9971 -1.3653 -0.0856
   27CHL1  H22B 1982   2.955   0.631   4.887  0.2489  1.2170  1.7830
   27CHL1   C23 1983   3.111   0.762   4.876 -0.2345  0.8580  0.2552
   27CHL1  H23A 1984   3.127   0.818   4.971  1.2913  0.5470  0.2052
   27CHL1  H23B 1985   3.213   0.759   4.832 -0.7257 -2.4341 -0.9303
   27CHL1   C24 1986   3.020   0.853   4.793  0.0398  0.2788  0.2477
   27CHL1  H24A 1987   2.927   0.882   4.848 -0.3122  1.4888 -0.9206
   27CHL1  H24B 1988   3.072   0.951   4.782  1.5588 -0.4878  0.3232
   27CHL1   C25 1989   2.998   0.803   4.648  0.0758  0.1066 -0.4449
   27CHL1   H25 1990   2.939   0.709   4.655  0.2960  0.0100  0.2165
   27CHL1   C26 1991   2.895   0.917   4.597 -0.4473  0.2482 -0.9673
   27CHL1  H26A 1992   2.932   1.022   4.595  1.7212 -0.4175  0.1078
   27CHL1  H26B 1993   2.860   0.878   4.500 -1.2687 -0.4670 -0.3951
   27CHL1  H26C 1994   2.812   0.917   4.671  1.2280  2.0873  1.0561
   27CHL1   C27 1995   3.124   0.807   4.568 -0.4078 -0.0053  0.3174
   27CHL1  H27A 1996   3.093   0.810   4.461 -2.4665 -2.3903  0.7540
   27CHL1  H27B 1997   3.185   0.897   4.590 -0.2688 -0.0832  0.2450
   27CHL1  H27C 1998   3.187   0.717   4.584 -2.3201 -1.2503  1.3419
   28CHL1    C3 1999   0.778   3.531   6.092 -0.0340  0.1885 -0.1307
   28CHL1    H3 2000   0.671   3.517   6.064 -0.0998  0.7789 -0.1905
   28CHL1    O3 2001   0.792   3.566   6.230 -0.2369 -0.3351  0.1508
   28CHL1   H3' 2002   0.855   3.504   6.268 -0.6049 -0.7300  0.1099
   28CHL1    C4 2003   0.851   3.395   6.071 -0.9265  0.9055  0.0251
   28CHL1   H4A 2004   0.953   3.407   6.114 -0.9076  0.5881  0.0719
   28CHL1   H4B 2005   0.804   3.318   6.136  0.8797  0.8040  1.3033
   28CHL1    C5 2006   0.857   3.345   5.927 -0.2674  0.0137 -0.3310
   28CHL1    C6 2007   0.827   3.216   5.899 -0.3918 -0.2780  0.2527
   28CHL1    H6 2008   0.791   3.152   5.980  0.6713 -1.0540  0.1271
   28CHL1    C7 2009   0.832   3.157   5.762  0.0389  0.4973  0.1874
   28CHL1   H7A 2010   0.885   3.059   5.753  0.1627  0.7309 -1.9787
   28CHL1   H7B 2011   0.728   3.140   5.728  0.5654  2.2509 -2.5340
   28CHL1    C8 2012   0.915   3.244   5.665 -0.1585  0.6683  0.9456
   28CHL1    H8 2013   1.025   3.232   5.676 -0.3600 -0.2083  2.1094
   28CHL1   C14 2014   0.877   3.205   5.522  0.5532  0.3154 -0.6339
   28CHL1   H14 2015   0.771   3.233   5.506  0.6861  0.8326 -0.6275
   28CHL1   C15 2016   0.880   3.057   5.483 -0.8907  0.3380  0.1375
   28CHL1  H15A 2017   0.986   3.031   5.508 -0.9321 -1.0151 -0.9532
   28CHL1  H15B 2018   0.812   2.988   5.537  0.7225 -0.0786  1.7437
   28CHL1   C16 2019   0.874   3.051   5.330 -0.0197 -0.0547 -0.1034
   28CHL1  H16A 2020   0.961   2.992   5.294  1.0694  0.6635  1.2156
   28CHL1  H16B 2021   0.779   2.998   5.310 -0.9683  1.5340 -0.0243
   28CHL1   C17 2022   0.877   3.206   5.293 -0.3472  0.2331 -0.3550
   28CHL1   H17 2023   0.770   3.234   5.296 -1.1431 -2.5915  0.2577
   28CHL1   C13 2024   0.943   3.282   5.414  0.1581 -0.2491  0.1865
   28CHL1   C18 2025   1.095   3.263   5.400 -0.0346 -0.2148  0.2129
   28CHL1  H18A 2026   1.132   3.321   5.312  1.7232 -1.6194 -0.0305
   28CHL1  H18B 2027   1.145   3.306   5.489 -1.1979  2.6471 -0.3936
   28CHL1  H18C 2028   1.125   3.158   5.383 -2.0323 -0.7101 -0.4642
   28CHL1   C12 2029   0.904   3.427   5.442 -0.7384 -1.0302  0.9419
   28CHL1  H12A 2030   0.945   3.485   5.357 -0.0891  0.0660  1.9742
   28CHL1  H12B 2031   0.794   3.438   5.428 -0.8239 -1.1788  1.4576
   28CHL1   C11 2032   0.955   3.481   5.576 -0.1570  0.3992 -0.1022
   28CHL1  H11A 2033   1.066   3.474   5.582 -0.2747 -1.2144  1.0726
   28CHL1  H11B 2034   0.926   3.587   5.591  1.4144  1.1273 -1.7620
   28CHL1    C9 2035   0.880   3.393   5.684 -0.2671 -0.9636 -0.0776
   28CHL1    H9 2036   0.769   3.393   5.674 -0.4213 -2.3535  1.3177
   28CHL1   C10 2037   0.914   3.450   5.828  0.1739 -0.0051  0.0621
   28CHL1   C19 2038   1.064   3.474   5.836 -0.3330  0.0721 -0.6825
   28CHL1  H19A 2039   1.100   3.565   5.784 -0.3698  1.0069  0.8748
   28CHL1  H19B 2040   1.096   3.482   5.942 -1.3462  0.0765 -0.3729
   28CHL1  H19C 2041   1.119   3.382   5.806  0.4527  0.3550 -0.1266
   28CHL1    C1 2042   0.836   3.579   5.848  0.0294 -0.5779 -0.2951
   28CHL1   H1A 2043   0.875   3.659   5.781 -2.1269 -0.7260 -1.8348
   28CHL1   H1B 2044   0.731   3.554   5.819 -0.5555  0.4820  0.8297
   28CHL1    C2 2045   0.834   3.636   5.991 -0.5434 -0.1754 -0.5209
   28CHL1   H2A 2046   0.768   3.726   5.997 -1.2075 -0.6664 -0.3713
   28CHL1   H2B 2047   0.938   3.655   6.024 -0.6243 -1.1152  0.3407
   28CHL1   C20 2048   0.915   3.254   5.150  0.5553  0.3333  0.1868
   28CHL1   H20 2049   0.990   3.336   5.145 -0.5915  1.3871 -0.1638
   28CHL1   C21 2050   0.785   3.301   5.080  0.5979  0.1632 -0.4594
   28CHL1  H21A 2051   0.809   3.333   4.976  3.3858  1.9156  0.5895
   28CHL1  H21B 2052   0.746   3.394   5.128  0.9002 -0.0544  0.2136
   28CHL1  H21C 2053   0.706   3.224   5.074  1.5798 -0.7806 -2.2149
   28CHL1   C22 2054   0.994   3.145   5.068  0.4843 -0.2916 -0.3802
   28CHL1  H22A 2055   1.065   3.103   5.142 -1.4589 -1.3669  0.9663
   28CHL1  H22B 2056   0.937   3.055   5.036  2.0595 -0.1409 -4.1343
   28CHL1   C23 2057   1.067   3.198   4.941 -1.1214  0.2716 -0.3213
   28CHL1  H23A 2058   0.985   3.217   4.868 -1.7124 -0.7912  0.0454
   28CHL1  H23B 2059   1.125   3.289   4.966 -0.8564  0.7751 -2.5537
   28CHL1   C24 2060   1.153   3.089   4.878 -0.4196 -0.3282 -0.1528
   28CHL1  H24A 2061   1.228   3.061   4.956 -1.5687 -3.1113  0.0829
   28CHL1  H24B 2062   1.088   2.999   4.875  1.8252 -2.0964  0.8987
   28CHL1   C25 2063   1.219   3.125   4.749 -0.3743  0.1682  0.0726
   28CHL1   H25 2064   1.263   3.226   4.765  3.8176 -1.5748  1.0757
   28CHL1   C26 2065   1.336   3.031   4.724  0.2847  0.1674  0.2109
   28CHL1  H26A 2066   1.391   3.056   4.631  0.6580 -1.5947 -0.0634
   28CHL1  H26B 2067   1.416   3.048   4.799  2.5179 -0.3621 -1.9426
   28CHL1  H26C 2068   1.308   2.924   4.719  3.9013 -0.8864  0.2921
   28CHL1   C27 2069   1.126   3.129   4.633 -0.4121 -0.0321 -0.2286
   28CHL1  H27A 2070   1.038   3.191   4.662  0.6509  0.1685  3.0628
   28CHL1  H27B 2071   1.176   3.167   4.542 -2.4274 -0.6404 -1.6512
   28CHL1  H27C 2072   1.081   3.028   4.625  1.4835 -1.0700  1.3157
   29CHL1    C3 2073   4.192   1.224   2.822  0.2436  0.1779 -0.3474
   29CHL1    H3 2074   4.283   1.161   2.833 -0.6219 -1.0869 -0.2034
   29CHL1    O3 2075   4.157   1.207   2.693  0.0930 -0.2670 -0.0847
   29CHL1   H3' 2076   4.202   1.276   2.645 -0.2443 -0.8862 -1.3340
   29CHL1    C4 2077   4.083   1.163   2.909  0.5208  0.1895 -0.9965
   29CHL1   H4A 2078   3.989   1.220   2.900 -0.4914 -0.6864  2.6102
   29CHL1   H4B 2079   4.071   1.057   2.879  0.4492 -0.0417 -0.1657
   29CHL1    C5 2080   4.119   1.173   3.058 -0.0533 -0.5815  0.4481
   29CHL1    C6 2081   4.123   1.069   3.140  0.0857 -0.2627  0.2806
   29CHL1    H6 2082   4.103   0.966   3.107 -0.1388  0.4389 -1.9395
   29CHL1    C7 2083   4.140   1.083   3.286 -1.4715 -0.4188 -0.7562
   29CHL1   H7A 2084   4.073   1.018   3.346  0.4479 -1.7853  0.0221
   29CHL1   H7B 2085   4.244   1.050   3.309 -1.7984 -1.1787 -0.2882
   29CHL1    C8 2086   4.140   1.224   3.337  0.1737 -0.6748  0.4356
   29CHL1    H8 2087   4.033   1.254   3.331 -0.1588 -2.1208 -2.7677
   29CHL1   C14 2088   4.202   1.227   3.474  0.2546  0.6439 -0.0484
   29CHL1   H14 2089   4.305   1.189   3.455 -0.1436 -0.0305 -0.9340
   29CHL1   C15 2090   4.144   1.126   3.578 -0.4484 -0.3777  0.0308
   29CHL1  H15A 2091   4.033   1.133   3.589 -0.3012 -0.2713  1.7444
   29CHL1  H15B 2092   4.171   1.021   3.554 -1.2095 -0.3068 -1.2111
   29CHL1   C16 2093   4.196   1.169   3.718 -0.0104 -1.0141 -0.5092
   29CHL1  H16A 2094   4.108   1.177   3.785  0.7775  0.3002  0.4023
   29CHL1  H16B 2095   4.276   1.099   3.748 -0.1274 -0.7809  0.3777
   29CHL1   C17 2096   4.261   1.313   3.692 -0.0076  0.2630 -0.5059
   29CHL1   H17 2097   4.371   1.305   3.680  0.0641  1.3762 -0.6885
   29CHL1   C13 2098   4.215   1.353   3.547 -0.0055 -0.2041 -0.1139
   29CHL1   C18 2099   4.078   1.411   3.562  0.1142 -0.4138 -0.1028
   29CHL1  H18A 2100   4.002   1.349   3.613 -0.1821  1.2283  1.5787
   29CHL1  H18B 2101   4.089   1.513   3.605 -1.4690 -0.1153 -0.3293
   29CHL1  H18C 2102   4.032   1.410   3.461  0.6519 -1.9251 -0.3596
   29CHL1   C12 2103   4.308   1.451   3.463  0.3518 -0.1740  0.4619
   29CHL1  H12A 2104   4.324   1.543   3.522  0.9629  2.3279 -3.2864
   29CHL1  H12B 2105   4.411   1.410   3.451  0.5175  0.2448  0.4483
   29CHL1   C11 2106   4.247   1.459   3.314 -0.1517 -0.1678  0.1664
   29CHL1  H11A 2107   4.150   1.513   3.315  0.8097  1.7582 -1.9343
   29CHL1  H11B 2108   4.313   1.519   3.249 -1.8883 -1.0019 -2.5107
   29CHL1    C9 2109   4.225   1.325   3.242  0.5854 -0.0551  0.2654
   29CHL1    H9 2110   4.324   1.276   3.228 -0.2064 -2.0978  1.3683
   29CHL1   C10 2111   4.159   1.323   3.103 -0.1764  0.1923  0.8200
   29CHL1   C19 2112   4.023   1.399   3.110  0.6062 -0.5440 -0.1755
   29CHL1  H19A 2113   3.969   1.401   3.013 -2.4138 -2.1636  1.3371
   29CHL1  H19B 2114   3.962   1.340   3.183  2.6797 -4.6903 -1.5028
   29CHL1  H19C 2115   4.045   1.505   3.136  1.3112 -0.5638 -0.6727
   29CHL1    C1 2116   4.258   1.384   3.001 -0.2390 -0.5448 -0.4966
   29CHL1   H1A 2117   4.271   1.494   3.018 -1.2461  0.1223 -3.4477
   29CHL1   H1B 2118   4.359   1.339   3.013  0.2748  0.4894 -0.7678
   29CHL1    C2 2119   4.205   1.373   2.862 -0.0333  0.0480  0.3842
   29CHL1   H2A 2120   4.255   1.435   2.784 -0.1301  0.6017  0.7566
   29CHL1   H2B 2121   4.105   1.420   2.857 -0.6130 -0.7231  3.2162
   29CHL1   C20 2122   4.234   1.414   3.814  0.6846 -0.4264  0.0153
   29CHL1   H20 2123   4.125   1.426   3.827  0.5270 -2.1426  0.5308
   29CHL1   C21 2124   4.307   1.546   3.783  0.9289  0.0335  0.0305
   29CHL1  H21A 2125   4.411   1.539   3.743 -0.3390 -2.4453 -3.3746
   29CHL1  H21B 2126   4.310   1.603   3.878  0.6758  1.9461 -1.0667
   29CHL1  H21C 2127   4.252   1.601   3.704  0.1672  1.7749  1.7141
   29CHL1   C22 2128   4.285   1.351   3.944  0.0414 -0.0046 -0.4748
   29CHL1  H22A 2129   4.256   1.244   3.950  0.0649  0.0758  1.7529
   29CHL1  H22B 2130   4.396   1.353   3.934  0.2056  2.8976  0.9294
   29CHL1   C23 2131   4.250   1.429   4.071  0.2364  0.0516  0.2085
   29CHL1  H23A 2132   4.260   1.540   4.063 -3.7391  0.4384 -1.9773
   29CHL1  H23B 2133   4.141   1.410   4.085 -0.0008  0.2838 -1.1613
   29CHL1   C24 2134   4.335   1.383   4.197  0.1825  0.8209 -0.0144
   29CHL1  H24A 2135   4.347   1.273   4.186  0.3782  0.7824  0.5836
   29CHL1  H24B 2136   4.440   1.420   4.193 -0.0719  1.6723  0.8484
   29CHL1   C25 2137   4.287   1.416   4.340  0.2830  0.6611  0.3133
   29CHL1   H25 2138   4.345   1.341   4.398  0.6235 -1.0720 -2.0869
   29CHL1   C26 2139   4.332   1.561   4.391  0.1398 -0.1060  0.6871
   29CHL1  H26A 2140   4.275   1.631   4.326  1.5106 -0.8425 -1.3939
   29CHL1  H26B 2141   4.317   1.564   4.501  1.8793 -1.8547  1.0366
   29CHL1  H26C 2142   4.441   1.578   4.383 -0.0208  0.0709 -1.7266
   29CHL1   C27 2143   4.135   1.392   4.358  0.8746  0.5197  0.5079
   29CHL1  H27A 2144   4.078   1.468   4.300  2.0603  1.4966  0.5539
   29CHL1  H27B 2145   4.095   1.297   4.317 -0.5733  2.2069 -2.2867
   29CHL1  H27C 2146   4.102   1.397   4.464 -2.5240  1.0186 -0.4505
   30CHL1    C3 2147   1.131   5.365   3.064 -0.4098 -0.3743 -0.4889
   30CHL1    H3 2148   1.210   5.429   3.110 -3.0650  2.6135  0.3008
   30CHL1    O3 2149   1.163   5.362   2.928  0.2085 -0.0268 -0.5697
   30CHL1   H3' 2150   1.104   5.426   2.888 -1.0335 -1.0257 -0.3899
   30CHL1    C4 2151   1.128   5.219   3.118 -0.2634 -0.4895  0.0614
   30CHL1   H4A 2152   1.052   5.160   3.062 -2.6147 -1.1183  3.5371
   30CHL1   H4B 2153   1.234   5.187   3.109 -0.3714 -0.8297 -0.0270
   30CHL1    C5 2154   1.093   5.210   3.270  0.0817  0.0827  0.2417
   30CHL1    C6 2155   1.159   5.140   3.354 -0.3066 -0.1665  0.3548
   30CHL1    H6 2156   1.247   5.090   3.311 -1.0734 -2.1673  0.9885
   30CHL1    C7 2157   1.128   5.114   3.493  0.6534  0.5464 -0.4158
   30CHL1   H7A 2158   1.125   5.008   3.525  1.3315  1.2244  2.1691
   30CHL1   H7B 2159   1.216   5.156   3.547 -0.4481  0.8313  1.2251
   30CHL1    C8 2160   0.988   5.162   3.535  0.1202  0.1478  0.5940
   30CHL1    H8 2161   0.921   5.075   3.519 -0.9408  1.0521 -0.0199
   30CHL1   C14 2162   0.978   5.187   3.680  0.1034 -1.0884  0.4484
   30CHL1   H14 2163   1.038   5.280   3.690 -0.2358 -0.5865 -1.7413
   30CHL1   C15 2164   1.030   5.076   3.772 -0.2329 -0.6659 -0.0454
   30CHL1  H15A 2165   0.982   4.977   3.757 -2.4439  0.2282  0.6994
   30CHL1  H15B 2166   1.139   5.054   3.769  0.2985  1.4047  1.3496
   30CHL1   C16 2167   0.978   5.114   3.907  0.1993 -0.0921  0.2568
   30CHL1  H16A 2168   0.923   5.035   3.962  0.1080  1.5617  2.7133
   30CHL1  H16B 2169   1.065   5.140   3.972 -0.7818 -1.9471  2.4596
   30CHL1   C17 2170   0.878   5.234   3.889  0.2182 -0.9744  0.2760
   30CHL1   H17 2171   0.933   5.330   3.903  0.5961 -0.5929 -3.0550
   30CHL1   C13 2172   0.841   5.225   3.737  0.2305 -0.3684 -0.7079
   30CHL1   C18 2173   0.734   5.117   3.724  0.3385 -0.0648 -0.3834
   30CHL1  H18A 2174   0.731   5.066   3.625  1.6994 -1.5455  0.2992
   30CHL1  H18B 2175   0.757   5.036   3.797 -0.9435  0.8497  1.1019
   30CHL1  H18C 2176   0.633   5.161   3.740  0.6353  0.0695  1.2948
   30CHL1   C12 2177   0.795   5.359   3.665  0.3371 -0.5486  0.0737
   30CHL1  H12A 2178   0.696   5.390   3.705  1.0351  0.6901  0.9056
   30CHL1  H12B 2179   0.877   5.433   3.683  2.8151 -2.7168 -1.4905
   30CHL1   C11 2180   0.792   5.332   3.511  0.1478  0.0871 -0.7044
   30CHL1  H11A 2181   0.706   5.267   3.486 -1.1918  1.6895 -0.3957
   30CHL1  H11B 2182   0.765   5.431   3.468  0.2559  0.0744 -0.8011
   30CHL1    C9 2183   0.934   5.285   3.461  0.0618 -0.4172 -0.0270
   30CHL1    H9 2184   1.005   5.366   3.487 -0.6216 -0.5779  2.6333
   30CHL1   C10 2185   0.962   5.279   3.304  0.1746 -0.3092  0.0898
   30CHL1   C19 2186   0.833   5.209   3.246  0.1354  0.6278 -0.2481
   30CHL1  H19A 2187   0.826   5.105   3.284 -3.7792  0.1102 -1.9461
   30CHL1  H19B 2188   0.736   5.254   3.277  0.9964  2.0711  0.4379
   30CHL1  H19C 2189   0.839   5.208   3.135  0.2102 -0.0178 -0.2444
   30CHL1    C1 2190   0.974   5.426   3.245 -0.7545  0.2452  0.2306
   30CHL1   H1A 2191   0.885   5.487   3.272 -1.0808  0.2416 -0.7938
   30CHL1   H1B 2192   1.060   5.483   3.286 -0.0088 -0.0279 -0.9008
   30CHL1    C2 2193   1.001   5.435   3.098 -0.0850 -0.2455  0.7089
   30CHL1   H2A 2194   1.022   5.538   3.061  0.9774 -0.1719  1.4961
   30CHL1   H2B 2195   0.915   5.397   3.038  0.5859 -2.6069  1.1742
   30CHL1   C20 2196   0.766   5.233   4.003 -0.0288  0.3741 -0.2188
   30CHL1   H20 2197   0.711   5.138   3.986  0.6082  0.4281 -3.1741
   30CHL1   C21 2198   0.668   5.345   3.981  0.5119 -0.1625  0.3736
   30CHL1  H21A 2199   0.711   5.446   3.997  0.9411 -0.3375  0.3318
   30CHL1  H21B 2200   0.581   5.340   4.050  0.3998 -0.5296  0.2058
   30CHL1  H21C 2201   0.620   5.333   3.882  0.1411 -2.4777  0.7932
   30CHL1   C22 2202   0.826   5.236   4.140 -0.6747  0.2356 -0.3319
   30CHL1  H22A 2203   0.923   5.183   4.138 -1.4610 -1.2593 -2.2037
   30CHL1  H22B 2204   0.852   5.340   4.170  0.1782  0.2328 -1.0431
   30CHL1   C23 2205   0.733   5.172   4.242  0.2852 -0.4053  0.2011
   30CHL1  H23A 2206   0.634   5.222   4.250  0.6232  0.2380  0.4003
   30CHL1  H23B 2207   0.711   5.066   4.217  1.0195 -0.2256 -1.3335
   30CHL1   C24 2208   0.781   5.174   4.392 -1.3049  0.6994 -0.6795
   30CHL1  H24A 2209   0.878   5.121   4.398 -2.7505 -2.1197 -0.3457
   30CHL1  H24B 2210   0.810   5.280   4.408 -3.0451  1.4276 -2.0333
   30CHL1   C25 2211   0.690   5.126   4.510  1.2722  0.3962  0.9810
   30CHL1   H25 2212   0.741   5.129   4.609  2.4845  2.9870  0.3378
   30CHL1   C26 2213   0.563   5.207   4.538  0.6764  0.7589 -0.4436
   30CHL1  H26A 2214   0.497   5.207   4.449  1.4341 -4.4689 -1.2868
   30CHL1  H26B 2215   0.507   5.151   4.615  1.0496  1.4289  0.3349
   30CHL1  H26C 2216   0.590   5.305   4.583  0.4227  0.0034  1.4109
   30CHL1   C27 2217   0.648   4.982   4.475 -0.4174 -0.3666 -0.3332
   30CHL1  H27A 2218   0.735   4.933   4.427 -0.1879 -2.2697  1.8496
   30CHL1  H27B 2219   0.611   4.925   4.563 -1.5574  0.3741 -0.3068
   30CHL1  H27C 2220   0.562   4.979   4.405 -0.8864 -0.1419  0.2264
   31CHL1    C3 2221   4.718   1.210   2.872  0.4541 -0.2226 -1.1000
   31CHL1    H3 2222   4.641   1.143   2.916  0.2716  1.5865  1.5862
   31CHL1    O3 2223   4.693   1.233   2.738 -0.0651 -0.5399  0.5579
   31CHL1   H3' 2224   4.761   1.297   2.714 -1.0847  1.0588  1.7385
   31CHL1    C4 2225   4.717   1.345   2.949  0.5655 -0.2479 -0.3533
   31CHL1   H4A 2226   4.799   1.406   2.905  1.9253 -1.0039  1.0327
   31CHL1   H4B 2227   4.617   1.390   2.933  0.4711  0.9501  2.7835
   31CHL1    C5 2228   4.750   1.321   3.099  0.0057 -0.3899  0.1508
   31CHL1    C6 2229   4.658   1.357   3.195 -0.4241 -0.3353  0.2766
   31CHL1    H6 2230   4.565   1.409   3.166  0.7470  0.2473 -2.8782
   31CHL1    C7 2231   4.695   1.349   3.340 -0.1268  0.2170 -0.0614
   31CHL1   H7A 2232   4.669   1.444   3.391 -2.1691 -0.8914  1.0576
   31CHL1   H7B 2233   4.627   1.272   3.382  0.5480 -1.6725 -2.2071
   31CHL1    C8 2234   4.845   1.320   3.367  0.0504  0.1590 -0.2104
   31CHL1    H8 2235   4.896   1.418   3.353 -0.0504  0.1337 -0.7749
   31CHL1   C14 2236   4.860   1.264   3.505 -0.7127 -0.0324 -0.5652
   31CHL1   H14 2237   4.812   1.164   3.497 -0.4680 -0.5048  2.5047
   31CHL1   C15 2238   4.787   1.335   3.620  0.0200 -0.2349  0.0419
   31CHL1  H15A 2239   4.805   1.444   3.618 -1.4416  0.0332  0.4635
   31CHL1  H15B 2240   4.677   1.320   3.623  0.2392 -2.0187  2.4828
   31CHL1   C16 2241   4.862   1.299   3.741  0.3094  0.4908 -0.3620
   31CHL1  H16A 2242   4.912   1.384   3.792  0.5151  1.5055 -2.1450
   31CHL1  H16B 2243   4.786   1.249   3.805  0.5611 -0.1775 -0.5709
   31CHL1   C17 2244   4.966   1.181   3.696 -0.2760 -0.5464  0.2103
   31CHL1   H17 2245   4.906   1.089   3.679 -0.6432 -0.5359  1.3632
   31CHL1   C13 2246   5.003   1.230   3.556 -0.3399  0.7769  0.5385
   31CHL1   C18 2247   5.094   1.351   3.569 -0.0924 -0.4952 -0.2966
   31CHL1  H18A 2248   5.056   1.439   3.625  0.6004  1.5960 -2.9086
   31CHL1  H18B 2249   5.193   1.327   3.614 -0.5001 -0.0227  0.8782
   31CHL1  H18C 2250   5.115   1.403   3.473  0.4316  2.6780  1.4112
   31CHL1   C12 2251   5.059   1.130   3.455 -0.4548  0.1187 -0.1315
   31CHL1  H12A 2252   5.161   1.094   3.481 -2.1076 -2.5529  3.5291
   31CHL1  H12B 2253   5.002   1.035   3.445  1.8032 -1.2247 -1.1052
   31CHL1   C11 2254   5.057   1.184   3.310  0.3880  0.4933 -0.0121
   31CHL1  H11A 2255   5.120   1.276   3.306 -1.0703  1.5373  0.1776
   31CHL1  H11B 2256   5.092   1.106   3.239 -0.4894  1.6706 -1.8164
   31CHL1    C9 2257   4.913   1.221   3.267  0.0939 -0.6008  0.2886
   31CHL1    H9 2258   4.859   1.125   3.277 -0.3846 -0.3070  0.5839
   31CHL1   C10 2259   4.889   1.261   3.123  0.4483  0.6334 -0.0883
   31CHL1   C19 2260   5.004   1.357   3.074  0.2769  0.6181 -0.1060
   31CHL1  H19A 2261   5.007   1.447   3.140  0.2699  0.2733  0.3740
   31CHL1  H19B 2262   5.105   1.309   3.073 -0.7193 -1.5905 -1.7205
   31CHL1  H19C 2263   4.987   1.377   2.966  0.6367 -0.9935 -0.4909
   31CHL1    C1 2264   4.908   1.129   3.030  0.1047 -0.3615  0.2471
   31CHL1   H1A 2265   5.015   1.100   3.033  0.5718  1.2056 -0.3003
   31CHL1   H1B 2266   4.845   1.045   3.066 -0.5527 -1.3633 -2.8577
   31CHL1    C2 2267   4.856   1.145   2.880 -0.4933  0.4244  0.0234
   31CHL1   H2A 2268   4.864   1.057   2.814 -3.7898 -0.3410  0.4678
   31CHL1   H2B 2269   4.930   1.215   2.836  0.0041  0.0076  0.1828
   31CHL1   C20 2270   5.074   1.152   3.795 -0.1611 -0.1153 -0.3946
   31CHL1   H20 2271   5.130   1.243   3.825 -0.4365  0.3009 -1.1310
   31CHL1   C21 2272   5.171   1.044   3.741  0.7097 -0.2238 -0.3890
   31CHL1  H21A 2273   5.243   1.091   3.670  0.3500  2.1497  0.6967
   31CHL1  H21B 2274   5.113   0.966   3.687  1.6188  0.4864 -2.5069
   31CHL1  H21C 2275   5.246   1.022   3.819  1.1004  2.3784  0.0871
   31CHL1   C22 2276   5.012   1.104   3.929  0.7742  0.2756 -0.7673
   31CHL1  H22A 2277   4.939   1.182   3.961  1.9850 -0.2077  3.8126
   31CHL1  H22B 2278   4.959   1.006   3.930 -0.6075  1.0035  0.2869
   31CHL1   C23 2279   5.117   1.089   4.036  0.7133 -1.0629  0.0220
   31CHL1  H23A 2280   5.182   1.004   4.008 -0.4237 -1.3612 -1.9096
   31CHL1  H23B 2281   5.178   1.182   4.046 -1.3754  0.2182  1.8674
   31CHL1   C24 2282   5.047   1.058   4.170 -0.0850  0.1859  0.7924
   31CHL1  H24A 2283   4.970   1.134   4.197  0.4471  0.5794  1.2319
   31CHL1  H24B 2284   5.007   0.955   4.159  1.0215 -0.2022  0.3365
   31CHL1   C25 2285   5.136   1.039   4.287 -0.0804  0.4634 -0.0328
   31CHL1   H25 2286   5.196   0.952   4.253 -1.3515  0.0277 -1.2559
   31CHL1   C26 2287   5.228   1.158   4.314 -0.0912 -0.5387  0.2896
   31CHL1  H26A 2288   5.329   1.148   4.270  0.7853  2.7002  1.2925
   31CHL1  H26B 2289   5.188   1.258   4.287  0.7392 -1.2611 -4.4434
   31CHL1  H26C 2290   5.258   1.153   4.421  0.7324  0.1150  0.1008
   31CHL1   C27 2291   5.043   1.012   4.408 -0.2650 -0.4166 -1.1426
   31CHL1  H27A 2292   4.979   0.922   4.393  0.1187 -0.5208 -2.2191
   31CHL1  H27B 2293   5.108   0.999   4.497 -2.1384  0.4254  0.4107
   31CHL1  H27C 2294   4.969   1.094   4.422  2.4762  2.1333 -0.5066
   32CHL1    C3 2295   0.108   2.713   2.746 -0.0669 -0.2698 -0.1545
   32CHL1    H3 2296   0.126   2.605   2.764 -3.4589 -0.5582  2.7229
   32CHL1    O3 2297   0.089   2.748   2.607  0.1688 -0.0238 -0.2163
   32CHL1   H3' 2298   0.069   2.841   2.614 -0.4120 -0.1176 -0.6119
   32CHL1    C4 2299  -0.023   2.732   2.821  0.2437 -0.3726  0.4979
   32CHL1   H4A 2300  -0.067   2.828   2.784  0.1623 -0.9930 -1.0726
   32CHL1   H4B 2301  -0.086   2.649   2.783  0.2753 -0.7363  1.2331
   32CHL1    C5 2302  -0.007   2.729   2.972  1.5150  0.3814  0.0532
   32CHL1    C6 2303  -0.077   2.636   3.045  1.3351 -0.3064  0.5565
   32CHL1    H6 2304  -0.146   2.564   3.000  0.4102  0.4259  0.7697
   32CHL1    C7 2305  -0.067   2.628   3.199  0.7301 -0.2596 -0.0450
   32CHL1   H7A 2306  -0.163   2.591   3.241 -0.2664  2.7243  0.5051
   32CHL1   H7B 2307   0.004   2.545   3.220  1.5078  0.1600 -0.9268
   32CHL1    C8 2308  -0.013   2.756   3.267  0.8715 -0.2970  0.7125
   32CHL1    H8 2309  -0.087   2.839   3.261  0.7067 -0.1514  3.4574
   32CHL1   C14 2310   0.029   2.736   3.413  0.0041  0.2319 -0.0066
   32CHL1   H14 2311   0.115   2.666   3.413  1.0950  1.5034  1.1945
   32CHL1   C15 2312  -0.081   2.680   3.503 -0.1466 -0.2554 -0.0031
   32CHL1  H15A 2313  -0.173   2.742   3.501  0.0809  0.0769 -0.9333
   32CHL1  H15B 2314  -0.117   2.576   3.488 -0.9534 -0.1900  1.3906
   32CHL1   C16 2315  -0.018   2.700   3.644  0.1887  0.1717 -0.1607
   32CHL1  H16A 2316  -0.099   2.739   3.709  0.7570  1.5536 -0.2514
   32CHL1  H16B 2317  -0.003   2.601   3.692 -0.6426  0.2110  0.1880
   32CHL1   C17 2318   0.106   2.782   3.625 -0.4006 -0.4177  0.2971
   32CHL1   H17 2319   0.192   2.712   3.622  0.5122  0.6946 -0.1156
   32CHL1   C13 2320   0.096   2.850   3.482  0.2022  0.2862  0.0528
   32CHL1   C18 2321  -0.008   2.962   3.488 -0.0738  0.7731  0.1598
   32CHL1  H18A 2322  -0.049   2.998   3.391  2.6435  1.5227 -0.7925
   32CHL1  H18B 2323  -0.089   2.946   3.563 -0.5777  0.3241 -0.4652
   32CHL1  H18C 2324   0.053   3.051   3.513  1.8736 -1.0664  2.3703
   32CHL1   C12 2325   0.226   2.879   3.406 -0.0154 -0.6425  0.5649
   32CHL1  H12A 2326   0.296   2.954   3.449 -0.6672 -0.7224  1.8291
   32CHL1  H12B 2327   0.290   2.789   3.408  0.8953 -0.1665 -2.3728
   32CHL1   C11 2328   0.195   2.906   3.257  0.2412  0.2104 -0.1750
   32CHL1  H11A 2329   0.144   3.005   3.251 -1.2220 -0.4686  0.5216
   32CHL1  H11B 2330   0.293   2.921   3.207  0.6037  2.4605  1.0412
   32CHL1    C9 2331   0.107   2.794   3.188 -0.2984  0.4393 -0.4825
   32CHL1    H9 2332   0.168   2.701   3.187 -3.7717 -2.1294  1.9051
   32CHL1   C10 2333   0.093   2.825   3.037 -0.1024 -0.1623  0.3187
   32CHL1   C19 2334   0.053   2.970   3.015 -0.3139  0.1388 -0.5573
   32CHL1  H19A 2335  -0.000   2.984   2.919 -0.5289  0.7023 -0.3593
   32CHL1  H19B 2336  -0.025   2.994   3.090  0.4737 -2.2036  1.1566
   32CHL1  H19C 2337   0.139   3.040   3.023  1.3539 -1.9563  1.0735
   32CHL1    C1 2338   0.226   2.799   2.951  0.1904 -0.3584  0.2176
   32CHL1   H1A 2339   0.307   2.871   2.977  0.8787 -0.2983 -1.9134
   32CHL1   H1B 2340   0.263   2.697   2.976  1.2544 -0.8570 -2.8874
   32CHL1    C2 2341   0.208   2.808   2.804  0.1401 -0.1716  0.3130
   32CHL1   H2A 2342   0.307   2.792   2.756  1.0882  0.3530  2.0104
   32CHL1   H2B 2343   0.191   2.912   2.771  0.7384 -0.2088 -0.1400
   32CHL1   C20 2344   0.127   2.875   3.749 -0.0094 -0.2509  0.2576
   32CHL1   H20 2345   0.044   2.948   3.743  0.3142  0.0471 -0.5731
   32CHL1   C21 2346   0.258   2.959   3.734 -0.0852 -0.2535  0.1774
   32CHL1  H21A 2347   0.247   3.015   3.639  1.1256  1.1893  0.8426
   32CHL1  H21B 2348   0.355   2.906   3.735  0.8342  1.3621 -0.1031
   32CHL1  H21C 2349   0.271   3.029   3.820 -0.0871 -0.7003  0.5481
   32CHL1   C22 2350   0.123   2.805   3.887  0.5983 -0.6557 -0.1870
   32CHL1  H22A 2351   0.179   2.876   3.952 -1.0239  0.4209  0.1082
   32CHL1  H22B 2352   0.017   2.804   3.921  1.1934 -2.9190  1.8562
   32CHL1   C23 2353   0.187   2.669   3.902  0.3327 -0.3438  0.2434
   32CHL1  H23A 2354   0.163   2.594   3.824 -1.6431 -0.6846  1.1182
   32CHL1  H23B 2355   0.297   2.676   3.891  0.2977  1.7832  0.7934
   32CHL1   C24 2356   0.144   2.607   4.039 -0.1222 -0.1009 -0.2241
   32CHL1  H24A 2357   0.156   2.685   4.117 -1.8055  1.5242 -1.5139
   32CHL1  H24B 2358   0.034   2.597   4.046 -0.4170  3.1212  1.7458
   32CHL1   C25 2359   0.232   2.485   4.083  0.3854 -0.4853 -0.2098
   32CHL1   H25 2360   0.331   2.531   4.099 -0.3270  0.7896  0.7079
   32CHL1   C26 2361   0.195   2.436   4.222 -0.7085  0.4470 -0.4916
   32CHL1  H26A 2362   0.218   2.512   4.300 -0.1011 -0.6271  0.4022
   32CHL1  H26B 2363   0.087   2.415   4.239 -0.1946 -1.1343  1.2521
   32CHL1  H26C 2364   0.253   2.344   4.243 -1.9918 -0.1621  0.5607
   32CHL1   C27 2365   0.221   2.376   3.978 -0.3679  1.0389 -0.3295
   32CHL1  H27A 2366   0.292   2.408   3.899  0.3614  2.4025  0.8296
   32CHL1  H27B 2367   0.245   2.275   4.016 -2.2436  0.5564 -0.3582
   32CHL1  H27C 2368   0.120   2.386   3.932 -0.8994  0.1295  0.6044
   33CHL1    C3 2369   1.453   1.284   3.146 -0.4118  0.6497  0.2926
   33CHL1    H3 2370   1.558   1.316   3.165  0.9594 -1.9021 -2.2575
   33CHL1    O3 2371   1.444   1.273   3.002  0.2496  0.4089  0.1583
   33CHL1   H3' 2372   1.456   1.359   2.962  1.4433 -0.2872 -1.0659
   33CHL1    C4 2373   1.418   1.154   3.214  0.5832  0.7906  0.0808
   33CHL1   H4A 2374   1.319   1.124   3.175  1.1932  0.0200 -0.9353
   33CHL1   H4B 2375   1.477   1.075   3.163 -2.4281 -1.1973 -0.5797
   33CHL1    C5 2376   1.424   1.152   3.363 -0.2645  0.6921 -1.0017
   33CHL1    C6 2377   1.504   1.061   3.430  0.1523 -0.3942 -0.1024
   33CHL1    H6 2378   1.562   0.993   3.366 -0.3011  1.2907 -2.4325
   33CHL1    C7 2379   1.515   1.061   3.578 -0.2111 -0.4156  0.3553
   33CHL1   H7A 2380   1.511   0.955   3.611 -0.8038  0.2867  2.7276
   33CHL1   H7B 2381   1.612   1.105   3.609  0.8767 -1.3601 -1.4808
   33CHL1    C8 2382   1.406   1.151   3.643 -0.3261 -0.2924 -0.6732
   33CHL1    H8 2383   1.315   1.087   3.638  0.2154 -1.2446  0.7646
   33CHL1   C14 2384   1.437   1.170   3.787  0.2083 -0.3007  0.1404
   33CHL1   H14 2385   1.528   1.234   3.785  0.4060 -0.5307  1.0963
   33CHL1   C15 2386   1.469   1.050   3.880 -0.5252  0.4736  0.1878
   33CHL1  H15A 2387   1.389   0.973   3.870  0.0965 -0.1500 -0.0657
   33CHL1  H15B 2388   1.564   1.003   3.849 -1.0907 -0.5365 -0.0629
   33CHL1   C16 2389   1.455   1.107   4.024 -0.2523 -0.6755 -0.0752
   33CHL1  H16A 2390   1.387   1.039   4.079  0.1023  0.0394  1.2871
   33CHL1  H16B 2391   1.554   1.106   4.075  0.1328 -0.3578 -0.7924
   33CHL1   C17 2392   1.396   1.252   4.009  0.4463 -0.3104 -0.0292
   33CHL1   H17 2393   1.487   1.315   4.002  0.8602 -1.0472 -2.1212
   33CHL1   C13 2394   1.334   1.257   3.858  0.6862  0.2067  0.5550
   33CHL1   C18 2395   1.206   1.176   3.871 -0.0059  0.1854 -0.0901
   33CHL1  H18A 2396   1.232   1.087   3.932 -1.8521  0.2680  0.8875
   33CHL1  H18B 2397   1.130   1.238   3.923  0.6284  1.0468 -0.1607
   33CHL1  H18C 2398   1.155   1.141   3.779  0.1415  0.5569 -0.3136
   33CHL1   C12 2399   1.315   1.391   3.795 -0.1672 -0.3064 -0.1339
   33CHL1  H12A 2400   1.224   1.442   3.831 -1.3603 -1.4344 -1.4454
   33CHL1  H12B 2401   1.407   1.454   3.795 -1.9970  2.5644 -1.5944
   33CHL1   C11 2402   1.277   1.380   3.649 -0.5743  0.2087 -0.1969
   33CHL1  H11A 2403   1.175   1.338   3.652 -0.1848 -0.8186 -0.8304
   33CHL1  H11B 2404   1.280   1.481   3.603 -0.5695  0.2175 -0.1774
   33CHL1    C9 2405   1.380   1.282   3.573 -1.1543  0.2869  0.0696
   33CHL1    H9 2406   1.469   1.348   3.578  0.1282 -1.1623 -2.1232
   33CHL1   C10 2407   1.343   1.273   3.425 -0.1330 -0.3229  0.8179
   33CHL1   C19 2408   1.194   1.229   3.405 -0.4796  0.7958 -0.7466
   33CHL1  H19A 2409   1.126   1.311   3.437 -0.6251  0.8306 -1.1383
   33CHL1  H19B 2410   1.165   1.210   3.300 -0.7194  0.5166 -0.6340
   33CHL1  H19C 2411   1.173   1.136   3.464 -2.0509  1.5983  0.0505
   33CHL1    C1 2412   1.382   1.412   3.351 -0.5259  0.0470  0.0464
   33CHL1   H1A 2413   1.314   1.495   3.379 -0.4476 -0.1754  0.9263
   33CHL1   H1B 2414   1.485   1.443   3.379 -1.4845  2.7063  0.9419
   33CHL1    C2 2415   1.369   1.404   3.201  0.2683  0.3250  0.4273
   33CHL1   H2A 2416   1.397   1.498   3.149 -2.8704  0.1388 -1.9016
   33CHL1   H2B 2417   1.266   1.391   3.161  1.1337 -0.3598 -1.7607
   33CHL1   C20 2418   1.324   1.303   4.133 -0.5729  0.0200  0.9300
   33CHL1   H20 2419   1.245   1.227   4.151  0.5828 -2.0380 -1.9301
   33CHL1   C21 2420   1.251   1.440   4.118  0.3092  0.6076 -0.1612
   33CHL1  H21A 2421   1.169   1.429   4.043  0.0021  1.6380  0.0073
   33CHL1  H21B 2422   1.322   1.522   4.096  3.0267 -0.9841  2.0221
   33CHL1  H21C 2423   1.199   1.460   4.214 -3.4539  2.2578 -2.3011
   33CHL1   C22 2424   1.416   1.307   4.253  0.0784  0.2995 -0.5832
   33CHL1  H22A 2425   1.453   1.203   4.263  0.5464  0.3001 -2.0751
   33CHL1  H22B 2426   1.506   1.370   4.235  0.5177 -0.2342 -0.2645
   33CHL1   C23 2427   1.363   1.351   4.390 -0.0237  0.2218  0.9208
   33CHL1  H23A 2428   1.323   1.454   4.378 -0.6889 -0.1592 -0.2770
   33CHL1  H23B 2429   1.285   1.282   4.429 -0.2473 -1.9903 -2.9779
   33CHL1   C24 2430   1.474   1.370   4.498  0.0924  0.7895  0.1754
   33CHL1  H24A 2431   1.537   1.281   4.521 -1.0147 -0.4159 -1.2170
   33CHL1  H24B 2432   1.549   1.438   4.452  1.3550 -0.9424 -0.4468
   33CHL1   C25 2433   1.430   1.422   4.634  0.3095 -1.1268  0.3422
   33CHL1   H25 2434   1.401   1.527   4.615  1.9598 -0.9645 -1.6628
   33CHL1   C26 2435   1.305   1.353   4.687  0.2106 -0.0321  0.0267
   33CHL1  H26A 2436   1.211   1.373   4.632  0.1122 -2.4086 -0.7739
   33CHL1  H26B 2437   1.317   1.246   4.717 -1.5694 -0.1819  0.3111
   33CHL1  H26C 2438   1.296   1.391   4.791  0.4774  0.6828 -0.2070
   33CHL1   C27 2439   1.549   1.430   4.731 -0.5880  0.5355 -0.1726
   33CHL1  H27A 2440   1.580   1.324   4.734  0.8734  0.9490  0.5041
   33CHL1  H27B 2441   1.630   1.490   4.685 -0.2269 -1.4502 -2.2562
   33CHL1  H27C 2442   1.519   1.466   4.833 -0.6903  0.6344 -0.2363
   34CHL1    C3 2443   4.763   3.357   3.564 -0.2451 -0.0996  0.2841
   34CHL1    H3 2444   4.695   3.396   3.485  1.2637 -0.1550 -1.1158
   34CHL1    O3 2445   4.785   3.220   3.542  0.5427 -0.6389 -0.1372
   34CHL1   H3' 2446   4.711   3.178   3.498  1.3346 -2.7898  0.4773
   34CHL1    C4 2447   4.904   3.421   3.549  0.2120  0.0147  0.1710
   34CHL1   H4A 2448   4.968   3.388   3.633 -0.7938 -0.5941  0.7058
   34CHL1   H4B 2449   4.954   3.387   3.455 -1.6088 -0.1278 -0.7872
   34CHL1    C5 2450   4.889   3.567   3.563 -0.6396 -0.4919  0.7041
   34CHL1    C6 2451   4.931   3.657   3.470  0.0494 -0.0598 -0.2017
   34CHL1    H6 2452   4.981   3.627   3.377  0.5363  0.6119 -0.1689
   34CHL1    C7 2453   4.926   3.806   3.493 -0.0511  0.3556  0.4593
   34CHL1   H7A 2454   5.025   3.852   3.469  0.2499 -0.5857 -0.1373
   34CHL1   H7B 2455   4.850   3.852   3.426 -0.0658 -1.5408 -0.9178
   34CHL1    C8 2456   4.905   3.846   3.640  0.1031  0.1774  0.0908
   34CHL1    H8 2457   4.996   3.834   3.702  0.7415 -2.5357 -1.2126
   34CHL1   C14 2458   4.857   3.994   3.645 -0.4933  0.4147 -0.4535
   34CHL1   H14 2459   4.765   3.990   3.582  0.5735 -0.1830 -2.0330
   34CHL1   C15 2460   4.948   4.098   3.578 -0.8436  0.9360  0.9975
   34CHL1  H15A 2461   5.053   4.074   3.604 -1.4264 -0.9171  1.7583
   34CHL1  H15B 2462   4.957   4.092   3.468 -0.1807  0.7419  1.0567
   34CHL1   C16 2463   4.904   4.223   3.641  0.3965 -0.3772  0.6458
   34CHL1  H16A 2464   4.992   4.279   3.679  2.5570 -2.3340 -1.1822
   34CHL1  H16B 2465   4.863   4.290   3.562  1.3086  0.4133  0.8184
   34CHL1   C17 2466   4.797   4.193   3.745  0.0056 -0.7609  0.6850
   34CHL1   H17 2467   4.701   4.204   3.691  1.3045 -1.8633 -2.0450
   34CHL1   C13 2468   4.824   4.046   3.783  0.7547  0.0822  0.6486
   34CHL1   C18 2469   4.953   4.035   3.866 -0.1240 -0.1964 -0.2012
   34CHL1  H18A 2470   4.989   3.930   3.863  1.9950  0.5017 -2.2265
   34CHL1  H18B 2471   5.044   4.086   3.829  1.0281 -0.6736  1.8194
   34CHL1  H18C 2472   4.933   4.068   3.970  0.2519  0.9601 -0.4764
   34CHL1   C12 2473   4.707   3.974   3.839  0.6683  0.6501  0.0667
   34CHL1  H12A 2474   4.685   4.016   3.939  0.8368 -0.5333  0.6183
   34CHL1  H12B 2475   4.620   3.993   3.772  1.2681 -2.5178 -1.7885
   34CHL1   C11 2476   4.740   3.816   3.848 -0.1064  0.0142 -0.3495
   34CHL1  H11A 2477   4.819   3.808   3.926 -1.5365  0.2477  1.1843
   34CHL1  H11B 2478   4.658   3.754   3.890  0.2737 -0.1633  0.1339
   34CHL1    C9 2479   4.795   3.764   3.712 -0.4335  0.1812 -0.4783
   34CHL1    H9 2480   4.708   3.781   3.645 -0.0240  0.4487 -0.9490
   34CHL1   C10 2481   4.828   3.610   3.703 -0.2125  0.2421 -0.8695
   34CHL1   C19 2482   4.914   3.567   3.824  0.0473  0.1747 -0.6597
   34CHL1  H19A 2483   5.014   3.614   3.817 -0.3471  1.3677  1.1183
   34CHL1  H19B 2484   4.858   3.591   3.916  0.5091  1.5053 -0.6980
   34CHL1  H19C 2485   4.936   3.458   3.822 -0.0632  0.1618 -2.3159
   34CHL1    C1 2486   4.688   3.533   3.724 -0.1900  0.0589 -0.5738
   34CHL1   H1A 2487   4.653   3.548   3.829 -0.8343 -0.3513 -0.7243
   34CHL1   H1B 2488   4.614   3.575   3.652  1.5983 -0.6295 -2.9078
   34CHL1    C2 2489   4.700   3.382   3.700 -0.5577  0.2098  0.2258
   34CHL1   H2A 2490   4.603   3.328   3.695  0.7220 -2.1310 -1.1907
   34CHL1   H2B 2491   4.761   3.347   3.786  0.0631 -1.0102 -0.6847
   34CHL1   C20 2492   4.786   4.299   3.862  0.2491  0.6585 -0.1488
   34CHL1   H20 2493   4.814   4.241   3.953  0.7369 -1.9659 -1.8805
   34CHL1   C21 2494   4.631   4.349   3.876 -0.6055 -0.0621 -0.0031
   34CHL1  H21A 2495   4.616   4.401   3.973 -0.9716  1.0824 -0.6619
   34CHL1  H21B 2496   4.564   4.261   3.865  1.3471 -1.7144  0.7327
   34CHL1  H21C 2497   4.605   4.425   3.800 -0.1898 -0.6599 -0.7606
   34CHL1   C22 2498   4.885   4.414   3.863 -0.4592 -0.3564 -0.6523
   34CHL1  H22A 2499   4.989   4.376   3.850 -0.2006  0.0987 -0.0023
   34CHL1  H22B 2500   4.867   4.481   3.777  0.5285  2.1622  0.9757
   34CHL1   C23 2501   4.885   4.491   4.000 -0.8104 -0.3313  0.4056
   34CHL1  H23A 2502   4.793   4.554   4.004 -0.0243  0.9341 -0.8577
   34CHL1  H23B 2503   4.865   4.422   4.086 -4.7913 -0.0005 -0.0328
   34CHL1   C24 2504   5.014   4.575   4.029  0.1488 -0.5632 -0.7963
   34CHL1  H24A 2505   5.098   4.503   4.036  0.5485 -0.0247  0.1701
   34CHL1  H24B 2506   5.037   4.642   3.944 -2.9203  0.1763 -1.1579
   34CHL1   C25 2507   4.999   4.659   4.156 -0.3101 -0.5083 -0.7086
   34CHL1   H25 2508   4.942   4.606   4.235  0.4041  0.8930  0.7927
   34CHL1   C26 2509   5.134   4.694   4.207  0.3072 -0.3014  0.7043
   34CHL1  H26A 2510   5.190   4.769   4.147  3.3850 -0.8987  2.6282
   34CHL1  H26B 2511   5.132   4.728   4.313  0.8044 -0.4003  0.7481
   34CHL1  H26C 2512   5.191   4.599   4.210  2.5171  0.9163 -0.3906
   34CHL1   C27 2513   4.926   4.789   4.132 -0.3997  0.5983  0.5140
   34CHL1  H27A 2514   4.817   4.770   4.116 -1.1998  2.2257  3.2312
   34CHL1  H27B 2515   4.922   4.856   4.221  0.9403  1.4315 -0.0301
   34CHL1  H27C 2516   4.961   4.848   4.044 -0.4229  2.7347  1.8553
   35CHL1    C3 2517   2.743   6.239   2.986 -0.0005 -0.0957 -0.0663
   35CHL1    H3 2518   2.800   6.150   3.019 -1.4887 -2.5706 -3.5449
   35CHL1    O3 2519   2.726   6.224   2.838  0.0779  0.2440 -0.3077
   35CHL1   H3' 2520   2.676   6.302   2.812  0.1988  0.2799 -0.4346
   35CHL1    C4 2521   2.599   6.241   3.048 -0.0907  0.1909  0.0498
   35CHL1   H4A 2522   2.542   6.330   3.015  1.0983  0.1490 -2.3128
   35CHL1   H4B 2523   2.538   6.154   3.016 -0.6725  0.3393  0.7213
   35CHL1    C5 2524   2.628   6.241   3.199  0.2502  0.3939  0.0185
   35CHL1    C6 2525   2.574   6.144   3.273  0.2399  0.0242 -0.8973
   35CHL1    H6 2526   2.518   6.063   3.223  1.5844 -1.3824 -0.2102
   35CHL1    C7 2527   2.584   6.143   3.422  0.0304 -0.0774 -0.4863
   35CHL1   H7A 2528   2.495   6.115   3.482  1.8116  1.3200  3.0695
   35CHL1   H7B 2529   2.651   6.062   3.456 -0.3005  0.5546  1.8448
   35CHL1    C8 2530   2.627   6.277   3.491  0.5011  0.6400 -0.0187
   35CHL1    H8 2531   2.543   6.350   3.490  0.5509  0.7014  0.1766
   35CHL1   C14 2532   2.665   6.248   3.636 -0.6674  0.2793 -0.1941
   35CHL1   H14 2533   2.754   6.182   3.633  0.9145  2.2768  0.8303
   35CHL1   C15 2534   2.565   6.187   3.724 -0.5609  0.2307  0.3653
   35CHL1  H15A 2535   2.467   6.239   3.718 -1.4013 -1.1543  1.5308
   35CHL1  H15B 2536   2.554   6.079   3.705 -1.3653  0.5291 -0.9818
   35CHL1   C16 2537   2.614   6.223   3.865 -0.3191  0.4570  0.3198
   35CHL1  H16A 2538   2.539   6.283   3.921  0.1244  0.7069  0.6555
   35CHL1  H16B 2539   2.640   6.136   3.930  2.2109  0.8728 -0.0130
   35CHL1   C17 2540   2.745   6.313   3.836  0.1185 -0.2112  0.0363
   35CHL1   H17 2541   2.827   6.241   3.818  0.2330  0.3427 -1.8710
   35CHL1   C13 2542   2.719   6.377   3.701  0.6427  0.7625 -0.2193
   35CHL1   C18 2543   2.613   6.492   3.708  0.1311  0.4672 -0.3620
   35CHL1  H18A 2544   2.580   6.520   3.606 -0.4603  2.7536  0.3986
   35CHL1  H18B 2545   2.526   6.451   3.764  0.1455  0.0176 -0.6609
   35CHL1  H18C 2546   2.646   6.580   3.767  1.2572 -0.7558  0.8905
   35CHL1   C12 2547   2.837   6.428   3.620 -0.3531  0.1945  0.4884
   35CHL1  H12A 2548   2.874   6.520   3.670 -0.3124  0.3616  0.1568
   35CHL1  H12B 2549   2.917   6.351   3.622 -2.7577 -2.5290 -0.6122
   35CHL1   C11 2550   2.808   6.457   3.470 -0.4789  0.5922 -0.2785
   35CHL1  H11A 2551   2.738   6.544   3.466 -1.5119 -0.2690 -1.7856
   35CHL1  H11B 2552   2.906   6.480   3.424 -0.0619 -0.1894  0.2055
   35CHL1    C9 2553   2.744   6.335   3.408  0.4911 -0.3149 -0.4349
   35CHL1    H9 2554   2.821   6.255   3.405 -0.1979 -1.0873  1.2469
   35CHL1   C10 2555   2.710   6.356   3.255 -0.2184 -0.8753  0.0832
   35CHL1   C19 2556   2.627   6.497   3.242  0.9937  0.0963  0.3928
   35CHL1  H19A 2557   2.606   6.508   3.134  1.5006  0.3405  0.3189
   35CHL1  H19B 2558   2.531   6.497   3.298  0.4389  0.6881 -0.5407
   35CHL1  H19C 2559   2.685   6.589   3.265 -1.3573  2.0426 -1.0359
   35CHL1    C1 2560   2.847   6.364   3.180 -0.4839 -0.5656  0.3718
   35CHL1   H1A 2561   2.891   6.462   3.209 -0.4329 -0.6745  0.6671
   35CHL1   H1B 2562   2.920   6.285   3.204  0.7342  0.4996  0.3069
   35CHL1    C2 2563   2.825   6.365   3.026 -0.5038  0.4901  0.5140
   35CHL1   H2A 2564   2.923   6.366   2.973 -0.1240 -0.0439  1.1915
   35CHL1   H2B 2565   2.758   6.446   2.990 -1.5718 -0.9432 -0.8785
   35CHL1   C20 2566   2.789   6.414   3.943  0.2535  0.1920  0.9136
   35CHL1   H20 2567   2.753   6.517   3.921 -0.0634  0.3028  1.8969
   35CHL1   C21 2568   2.944   6.398   3.954  0.2876 -0.3671 -0.1848
   35CHL1  H21A 2569   2.981   6.457   4.041 -0.7188  1.5890 -1.0188
   35CHL1  H21B 2570   2.988   6.438   3.860  1.0751 -1.2974 -0.2196
   35CHL1  H21C 2571   2.968   6.292   3.975 -3.8675 -1.4365  0.0364
   35CHL1   C22 2572   2.712   6.398   4.075 -0.0173  0.4465 -0.8753
   35CHL1  H22A 2573   2.730   6.488   4.137 -0.3617  0.4496 -0.7793
   35CHL1  H22B 2574   2.602   6.407   4.061 -0.3414  1.6675  1.8405
   35CHL1   C23 2575   2.740   6.274   4.162 -0.1102 -0.6167  0.4576
   35CHL1  H23A 2576   2.727   6.182   4.101 -0.0798  0.2481 -0.8999
   35CHL1  H23B 2577   2.845   6.284   4.196 -0.5105  0.6469  1.4048
   35CHL1   C24 2578   2.651   6.261   4.295  0.0034 -0.2532 -0.0446
   35CHL1  H24A 2579   2.670   6.343   4.367 -1.5224  0.6713 -0.6416
   35CHL1  H24B 2580   2.544   6.271   4.268  0.2911  1.1754 -0.7325
   35CHL1   C25 2581   2.675   6.128   4.369 -0.0719 -0.3609  0.0246
   35CHL1   H25 2582   2.677   6.049   4.292  3.5851  0.0048 -0.4345
   35CHL1   C26 2583   2.811   6.133   4.429 -0.7360 -0.3092 -0.7222
   35CHL1  H26A 2584   2.838   6.041   4.485  0.5346 -0.3331 -1.3177
   35CHL1  H26B 2585   2.877   6.133   4.339 -3.9017  1.3881 -3.2569
   35CHL1  H26C 2586   2.837   6.221   4.490  0.1296 -1.0545  0.0143
   35CHL1   C27 2587   2.580   6.099   4.476  0.4469  0.7221 -0.9135
   35CHL1  H27A 2588   2.580   6.178   4.554 -1.3933 -1.8158  1.8483
   35CHL1  H27B 2589   2.476   6.095   4.436  0.2317  1.2359 -0.4268
   35CHL1  H27C 2590   2.610   6.009   4.534  0.1417 -0.9478 -3.2041
   36CHL1    C3 2591   3.176   6.157   2.961  0.2086 -0.0256  0.1397
   36CHL1    H3 2592   3.073   6.143   3.001 -0.3386 -2.0260 -1.7957
   36CHL1    O3 2593   3.178   6.166   2.813  0.0018  0.1387  0.8479
   36CHL1   H3' 2594   3.264   6.158   2.770 -1.7387  0.6675 -3.1904
   36CHL1    C4 2595   3.233   6.287   3.029 -0.3754  0.7959 -0.6513
   36CHL1   H4A 2596   3.330   6.314   2.982 -0.7121 -0.0028 -1.8694
   36CHL1   H4B 2597   3.166   6.374   3.016  0.5285  1.7335  0.7455
   36CHL1    C5 2598   3.260   6.260   3.180  0.0273 -0.1675 -0.0571
   36CHL1    C6 2599   3.196   6.324   3.275  0.1332 -0.4289  0.0906
   36CHL1    H6 2600   3.128   6.404   3.242  0.6475  0.1380  0.3875
   36CHL1    C7 2601   3.203   6.310   3.425 -0.5365 -0.0726 -0.4454
   36CHL1   H7A 2602   3.202   6.408   3.479 -2.0272 -1.7738  2.9623
   36CHL1   H7B 2603   3.120   6.253   3.473  0.0175 -0.2941  0.2666
   36CHL1    C8 2604   3.328   6.230   3.456 -0.2586  0.4343  0.6180
   36CHL1    H8 2605   3.420   6.289   3.437  0.4442 -0.9637 -0.5652
   36CHL1   C14 2606   3.327   6.185   3.602 -0.3867 -0.3908 -0.1481
   36CHL1   H14 2607   3.243   6.113   3.613 -1.7978  1.3874  1.4208
   36CHL1   C15 2608   3.296   6.295   3.703  0.2778 -0.4306 -0.1852
   36CHL1  H15A 2609   3.326   6.396   3.666 -3.0810  0.6167 -0.3743
   36CHL1  H15B 2610   3.189   6.306   3.729  0.6358 -0.3535  1.3517
   36CHL1   C16 2611   3.361   6.249   3.835  0.2676 -0.1800  0.0347
   36CHL1  H16A 2612   3.429   6.331   3.866 -1.7420  2.0618 -1.2101
   36CHL1  H16B 2613   3.280   6.244   3.910 -3.1939  1.0606 -3.2555
   36CHL1   C17 2614   3.426   6.112   3.809 -0.1014  0.1440 -0.0085
   36CHL1   H17 2615   3.348   6.036   3.826  0.7098 -0.9932 -1.1614
   36CHL1   C13 2616   3.450   6.113   3.656 -0.0634 -0.1994 -0.1007
   36CHL1   C18 2617   3.572   6.204   3.631  1.0076  0.3755  0.0562
   36CHL1  H18A 2618   3.586   6.224   3.523 -3.7171 -1.8632 -1.2384
   36CHL1  H18B 2619   3.561   6.299   3.688 -1.7613 -0.7861  1.6710
   36CHL1  H18C 2620   3.669   6.158   3.660  0.6890 -0.0786  0.4249
   36CHL1   C12 2621   3.460   5.982   3.575 -0.5385  0.2938 -0.3476
   36CHL1  H12A 2622   3.557   5.935   3.601 -0.8769 -0.6022 -0.6775
   36CHL1  H12B 2623   3.379   5.914   3.606 -0.2303 -0.6971 -1.6014
   36CHL1   C11 2624   3.452   6.000   3.421 -0.0525  0.2565  0.7330
   36CHL1  H11A 2625   3.552   6.046   3.410 -0.0192  0.1830  0.7266
   36CHL1  H11B 2626   3.451   5.905   3.364 -0.0452  0.8745 -0.3311
   36CHL1    C9 2627   3.341   6.101   3.370 -0.1060 -0.0312 -0.1340
   36CHL1    H9 2628   3.244   6.052   3.393 -0.5715  1.9103  2.4314
   36CHL1   C10 2629   3.352   6.139   3.218  0.1725 -0.5059 -0.2705
   36CHL1   C19 2630   3.500   6.161   3.178  0.3686  0.2239 -0.2304
   36CHL1  H19A 2631   3.536   6.237   3.250 -0.3375 -1.3749  1.8849
   36CHL1  H19B 2632   3.552   6.065   3.197  0.1233  0.0335 -0.5106
   36CHL1  H19C 2633   3.522   6.205   3.078 -0.3871 -0.1630 -0.5713
   36CHL1    C1 2634   3.288   6.020   3.142 -0.1477  0.1100 -0.5221
   36CHL1   H1A 2635   3.344   5.926   3.156  0.0833  0.1226 -1.2735
   36CHL1   H1B 2636   3.185   6.001   3.179 -0.1492  1.0215 -0.0253
   36CHL1    C2 2637   3.275   6.037   2.993  0.5020 -0.3632  0.1241
   36CHL1   H2A 2638   3.236   5.944   2.948  2.4355 -0.8615 -0.6165
   36CHL1   H2B 2639   3.373   6.077   2.956  0.1022  2.3894  1.7414
   36CHL1   C20 2640   3.540   6.075   3.902 -0.5528 -0.2167 -0.2419
   36CHL1   H20 2641   3.619   6.152   3.893 -2.1183  1.5106  0.2743
   36CHL1   C21 2642   3.606   5.938   3.867 -0.1631 -0.0117 -0.4292
   36CHL1  H21A 2643   3.533   5.855   3.856 -0.3438  0.0412  0.2794
   36CHL1  H21B 2644   3.659   5.896   3.955 -0.5833  1.5207  0.6058
   36CHL1  H21C 2645   3.689   5.942   3.794 -1.2955  2.3541 -1.6975
   36CHL1   C22 2646   3.491   6.073   4.047  0.5993  0.5717  0.1349
   36CHL1  H22A 2647   3.417   6.153   4.068 -3.3294 -2.3955 -1.2109
   36CHL1  H22B 2648   3.439   5.977   4.064 -1.3819  1.4419 -0.6823
   36CHL1   C23 2649   3.593   6.088   4.162  0.2662 -0.3722  0.4636
   36CHL1  H23A 2650   3.656   5.996   4.166  1.7605  0.6314  0.7813
   36CHL1  H23B 2651   3.665   6.170   4.140  2.2120 -1.7672  1.3120
   36CHL1   C24 2652   3.511   6.101   4.296 -0.1622 -0.0781  0.7537
   36CHL1  H24A 2653   3.449   6.191   4.277  0.1703  0.2175  1.0579
   36CHL1  H24B 2654   3.440   6.015   4.293  1.2711 -1.2915 -0.2423
   36CHL1   C25 2655   3.593   6.094   4.425  0.8127 -0.1536 -0.3375
   36CHL1   H25 2656   3.649   6.003   4.396  1.3446  0.6703 -1.9942
   36CHL1   C26 2657   3.693   6.205   4.443  0.4381 -0.1296  0.0496
   36CHL1  H26A 2658   3.770   6.220   4.365 -0.9375  0.1727 -1.2937
   36CHL1  H26B 2659   3.639   6.302   4.454  0.5383 -0.1597  0.9383
   36CHL1  H26C 2660   3.741   6.193   4.543 -2.0211  0.3534  1.3818
   36CHL1   C27 2661   3.504   6.075   4.543 -0.3848  0.6801  0.2715
   36CHL1  H27A 2662   3.463   6.175   4.569 -1.0281  0.9086 -1.4876
   36CHL1  H27B 2663   3.425   5.998   4.526 -2.4010  2.3478  1.5334
   36CHL1  H27C 2664   3.565   6.054   4.634 -0.4604  0.0215  0.1734
   37CHL1    C3 2665   1.190   0.651   3.109  0.3480 -0.3481 -0.5078
   37CHL1    H3 2666   1.295   0.618   3.120 -0.0466 -1.3443  0.4950
   37CHL1    O3 2667   1.154   0.652   2.966  0.1735 -0.3137  0.0606
   37CHL1   H3' 2668   1.234   0.684   2.925  0.3234  1.3888  1.5452
   37CHL1    C4 2669   1.109   0.546   3.192  0.2135  0.2631 -0.5805
   37CHL1   H4A 2670   1.003   0.569   3.167 -0.5982 -0.9129  1.5239
   37CHL1   H4B 2671   1.126   0.446   3.148 -0.8741  0.4031 -1.3699
   37CHL1    C5 2672   1.120   0.556   3.346 -0.1991  0.3414  0.0250
   37CHL1    C6 2673   1.158   0.448   3.421  0.0887 -0.3131  0.2690
   37CHL1    H6 2674   1.180   0.355   3.367 -0.3561 -0.7571  0.8349
   37CHL1    C7 2675   1.174   0.439   3.566 -0.1267 -0.9896 -0.6380
   37CHL1   H7A 2676   1.130   0.347   3.611  1.4761 -0.9448  1.1900
   37CHL1   H7B 2677   1.279   0.444   3.601 -0.4127  0.0548  0.1151
   37CHL1    C8 2678   1.101   0.559   3.627 -0.1446  0.0170  0.1509
   37CHL1    H8 2679   0.991   0.562   3.617 -0.1627 -0.7053  0.0717
   37CHL1   C14 2680   1.137   0.569   3.771  0.7696  1.0459 -0.2436
   37CHL1   H14 2681   1.245   0.594   3.774  0.3470  2.9215  0.7957
   37CHL1   C15 2682   1.118   0.446   3.864  0.0282 -0.5598 -0.3893
   37CHL1  H15A 2683   1.022   0.391   3.853 -0.9550  0.8355  0.9021
   37CHL1  H15B 2684   1.199   0.372   3.845  0.3936  0.1993 -2.0034
   37CHL1   C16 2685   1.127   0.506   4.003  0.6060  0.4349 -0.3581
   37CHL1  H16A 2686   1.026   0.490   4.045  1.0970 -0.6569  0.4559
   37CHL1  H16B 2687   1.197   0.457   4.074 -2.3975  0.0800  2.5996
   37CHL1   C17 2688   1.139   0.667   3.992  0.3501 -0.3011  0.1837
   37CHL1   H17 2689   1.247   0.692   3.980  0.5730 -1.4486 -0.4084
   37CHL1   C13 2690   1.073   0.691   3.854 -0.2866 -0.4475 -0.2096
   37CHL1   C18 2691   0.919   0.676   3.876  0.1316 -0.1817  1.1018
   37CHL1  H18A 2692   0.868   0.691   3.779 -0.4219 -3.1544  0.8284
   37CHL1  H18B 2693   0.886   0.575   3.909  1.2306 -1.0701 -0.4335
   37CHL1  H18C 2694   0.872   0.746   3.949  1.1637 -0.4167  2.0241
   37CHL1   C12 2695   1.105   0.818   3.785  0.4476 -0.3165 -0.6516
   37CHL1  H12A 2696   1.046   0.901   3.828 -0.1154 -0.3276 -1.3760
   37CHL1  H12B 2697   1.209   0.856   3.796 -1.0923  3.9962  0.9726
   37CHL1   C11 2698   1.082   0.822   3.632 -0.2763 -0.2309  0.4402
   37CHL1  H11A 2699   0.971   0.828   3.621 -0.0328  1.5803 -1.5519
   37CHL1  H11B 2700   1.108   0.920   3.588  1.6347 -1.1643 -0.6597
   37CHL1    C9 2701   1.135   0.697   3.556  0.4461 -0.1027 -0.6207
   37CHL1    H9 2702   1.245   0.705   3.565  0.7464 -0.3717 -3.3482
   37CHL1   C10 2703   1.100   0.695   3.402  0.0804 -0.4500 -0.1711
   37CHL1   C19 2704   0.949   0.739   3.382 -0.3250 -0.0270  0.1630
   37CHL1  H19A 2705   0.892   0.673   3.451  0.0477  0.9501  1.4389
   37CHL1  H19B 2706   0.930   0.847   3.397 -0.0216  0.4015 -2.1826
   37CHL1  H19C 2707   0.927   0.719   3.275  0.4408 -0.6090  0.1018
   37CHL1    C1 2708   1.186   0.794   3.325  0.3964  0.1982  0.2108
   37CHL1   H1A 2709   1.157   0.897   3.356 -0.4567 -0.3319  1.2545
   37CHL1   H1B 2710   1.287   0.803   3.370  0.3730 -0.3129  0.3621
   37CHL1    C2 2711   1.175   0.789   3.171  0.5919 -0.3573  0.6747
   37CHL1   H2A 2712   1.247   0.860   3.123 -0.1904 -1.3726 -2.2278
   37CHL1   H2B 2713   1.070   0.810   3.141  0.3001  2.4954  3.1593
   37CHL1   C20 2714   1.096   0.738   4.119  0.1723 -0.2849  0.0950
   37CHL1   H20 2715   0.995   0.703   4.150 -0.4372 -0.3806 -1.8739
   37CHL1   C21 2716   1.109   0.891   4.101 -0.0663  0.1180 -0.4050
   37CHL1  H21A 2717   1.085   0.947   4.194  0.0761  0.9797 -0.8765
   37CHL1  H21B 2718   1.042   0.944   4.030  3.1261  2.4787 -1.8575
   37CHL1  H21C 2719   1.213   0.918   4.074 -0.2990  1.3439 -0.1401
   37CHL1   C22 2720   1.172   0.698   4.248 -0.0639 -0.0162  0.2874
   37CHL1  H22A 2721   1.178   0.587   4.251  1.4773  0.0588  2.2215
   37CHL1  H22B 2722   1.276   0.738   4.244 -1.1021  2.7913 -3.9646
   37CHL1   C23 2723   1.097   0.738   4.381 -0.0046  0.2887  0.1988
   37CHL1  H23A 2724   1.072   0.847   4.375  0.3501  0.4033  0.7435
   37CHL1  H23B 2725   0.997   0.689   4.377 -0.4818  1.3165 -1.2762
   37CHL1   C24 2726   1.173   0.712   4.514  0.0560 -0.1937 -0.2769
   37CHL1  H24A 2727   1.219   0.612   4.500  1.2764  0.2147  0.6338
   37CHL1  H24B 2728   1.255   0.785   4.531 -1.0229  0.1362  5.6167
   37CHL1   C25 2729   1.089   0.722   4.637  0.1650  0.8713  0.5441
   37CHL1   H25 2730   1.001   0.655   4.621  0.8452 -0.0341  0.5098
   37CHL1   C26 2731   1.164   0.672   4.761 -0.3182  0.4268 -0.5099
   37CHL1  H26A 2732   1.237   0.737   4.814  0.9788 -2.0385  0.9035
   37CHL1  H26B 2733   1.091   0.648   4.841  0.6013 -3.2010 -0.5836
   37CHL1  H26C 2734   1.213   0.572   4.754 -0.4647  0.1092  1.9449
   37CHL1   C27 2735   1.040   0.858   4.662  0.1089 -1.4074  0.3462
   37CHL1  H27A 2736   0.992   0.865   4.762 -1.1298 -1.3198 -0.2400
   37CHL1  H27B 2737   1.130   0.923   4.660  1.0912 -2.7280 -0.1186
   37CHL1  H27C 2738   0.962   0.906   4.598  0.3751  2.7862  2.8417
   38CHL1    C3 2739   3.354   4.082   2.629 -0.4771 -0.7327  0.9884
   38CHL1    H3 2740   3.398   4.183   2.646 -0.2696 -0.9805  1.9745
   38CHL1    O3 2741   3.341   4.082   2.486 -0.5500  0.5999  0.0095
   38CHL1   H3' 2742   3.258   4.122   2.461 -0.2902 -0.3143 -2.6450
   38CHL1    C4 2743   3.444   3.971   2.681 -0.7145  0.0997 -0.1118
   38CHL1   H4A 2744   3.396   3.880   2.640 -0.4346 -0.8655  1.6105
   38CHL1   H4B 2745   3.542   3.985   2.631 -1.1981  0.1333 -1.0674
   38CHL1    C5 2746   3.458   3.956   2.834  0.1157  0.0025  0.3523
   38CHL1    C6 2747   3.571   3.955   2.902  0.4823  0.1137 -0.3620
   38CHL1    H6 2748   3.669   3.957   2.852  1.8832 -1.6688  2.0808
   38CHL1    C7 2749   3.583   3.932   3.050 -0.6084 -0.0534  0.8148
   38CHL1   H7A 2750   3.654   3.848   3.069  0.7636  0.3443 -1.9584
   38CHL1   H7B 2751   3.618   4.031   3.087  0.0525  0.8861 -2.0123
   38CHL1    C8 2752   3.457   3.898   3.124 -0.0126 -0.0921 -0.2959
   38CHL1    H8 2753   3.435   3.790   3.113 -2.1431 -0.0760  2.5224
   38CHL1   C14 2754   3.468   3.921   3.275 -0.5475 -0.2116  1.3561
   38CHL1   H14 2755   3.494   4.028   3.289 -1.8396  0.3396 -0.2674
   38CHL1   C15 2756   3.589   3.863   3.345  0.1301 -0.8624  0.5761
   38CHL1  H15A 2757   3.614   3.763   3.303 -1.1105 -0.3952 -1.4428
   38CHL1  H15B 2758   3.672   3.937   3.351 -1.8037  1.5320 -0.5011
   38CHL1   C16 2759   3.528   3.850   3.494 -0.2211  0.1244 -0.2162
   38CHL1  H16A 2760   3.528   3.739   3.507 -0.4535  0.2117  0.6319
   38CHL1  H16B 2761   3.589   3.883   3.581 -1.6104  1.9486  0.1318
   38CHL1   C17 2762   3.379   3.906   3.496 -0.0419  0.7815 -0.5123
   38CHL1   H17 2763   3.393   4.015   3.512 -0.8888  1.1026 -1.8351
   38CHL1   C13 2764   3.338   3.886   3.351  0.4308 -0.1202  0.4867
   38CHL1   C18 2765   3.300   3.739   3.345 -0.2833  0.3073  0.8973
   38CHL1  H18A 2766   3.201   3.709   3.386  0.0513 -1.9356  0.2302
   38CHL1  H18B 2767   3.296   3.702   3.240 -0.8869  0.0096  1.0205
   38CHL1  H18C 2768   3.372   3.675   3.399  1.2645  0.8604 -0.4473
   38CHL1   C12 2769   3.220   3.969   3.307  0.0841 -0.0057  0.2711
   38CHL1  H12A 2770   3.127   3.925   3.347  0.3180  0.8092  1.7954
   38CHL1  H12B 2771   3.207   4.070   3.352  0.4371  0.7602 -1.2562
   38CHL1   C11 2772   3.211   3.978   3.151 -0.1661 -0.8289 -0.7582
   38CHL1  H11A 2773   3.155   3.885   3.129 -1.0048 -1.6154  3.6714
   38CHL1  H11B 2774   3.135   4.054   3.122  0.8593  0.7184  0.4044
   38CHL1    C9 2775   3.342   3.984   3.065  0.2496  0.3026 -0.2908
   38CHL1    H9 2776   3.369   4.090   3.086 -1.9320  0.5935  1.5067
   38CHL1   C10 2777   3.327   3.957   2.908  0.2518  0.0061 -1.1562
   38CHL1   C19 2778   3.258   3.819   2.894 -0.5746  0.0870 -0.0410
   38CHL1  H19A 2779   3.250   3.792   2.786  0.3353 -2.2507  0.4363
   38CHL1  H19B 2780   3.307   3.733   2.943  1.0370 -0.8227 -2.9957
   38CHL1  H19C 2781   3.152   3.817   2.929  0.0509  1.9800  2.2115
   38CHL1    C1 2782   3.236   4.074   2.850 -0.2733  0.4836 -0.4222
   38CHL1   H1A 2783   3.136   4.039   2.883 -0.5169  0.4837 -1.1326
   38CHL1   H1B 2784   3.259   4.179   2.877  1.6346  0.5153 -1.8953
   38CHL1    C2 2785   3.216   4.078   2.696  0.0881  0.3261 -0.2392
   38CHL1   H2A 2786   3.153   4.166   2.670 -0.6309 -0.6142 -1.8601
   38CHL1   H2B 2787   3.161   3.991   2.653  0.3645  0.0324 -0.0078
   38CHL1   C20 2788   3.302   3.848   3.614 -0.0528 -0.1700  0.3557
   38CHL1   H20 2789   3.318   3.739   3.601 -0.8889 -0.2261 -0.2355
   38CHL1   C21 2790   3.157   3.899   3.633 -0.1719 -0.2387 -0.1603
   38CHL1  H21A 2791   3.148   4.009   3.638  1.9346  0.1083 -2.1330
   38CHL1  H21B 2792   3.114   3.863   3.729  0.0938  1.9518  0.8247
   38CHL1  H21C 2793   3.093   3.863   3.549  1.2523  0.6342 -1.6943
   38CHL1   C22 2794   3.374   3.862   3.753 -0.4307 -0.5224  0.5036
   38CHL1  H22A 2795   3.301   3.824   3.827  2.8722 -3.3024  2.6078
   38CHL1  H22B 2796   3.458   3.791   3.766  0.0619  0.1664  1.2050
   38CHL1   C23 2797   3.422   4.014   3.780  0.1562  0.1961 -0.0685
   38CHL1  H23A 2798   3.504   4.040   3.710 -0.2437  2.4641  0.2112
   38CHL1  H23B 2799   3.338   4.081   3.751 -1.8385 -2.2099 -0.1844
   38CHL1   C24 2800   3.463   4.055   3.914 -0.8822  0.6066  0.0230
   38CHL1  H24A 2801   3.550   3.992   3.944 -0.4568  2.1120  2.2505
   38CHL1  H24B 2802   3.503   4.159   3.915  1.3470 -0.1861  0.0266
   38CHL1   C25 2803   3.359   4.042   4.022  0.5171  0.3454 -0.1367
   38CHL1   H25 2804   3.332   3.934   4.028  0.1807  0.4144 -0.4277
   38CHL1   C26 2805   3.416   4.080   4.164 -0.5914  0.2698 -0.7348
   38CHL1  H26A 2806   3.499   4.021   4.208 -1.1308  0.2284  0.2599
   38CHL1  H26B 2807   3.444   4.187   4.157  0.3359  0.1814  1.1010
   38CHL1  H26C 2808   3.338   4.077   4.242  1.3259  0.3112  1.2692
   38CHL1   C27 2809   3.237   4.130   3.982  0.0362 -0.0536  0.2251
   38CHL1  H27A 2810   3.186   4.088   3.893 -0.0191  1.0670 -0.2858
   38CHL1  H27B 2811   3.162   4.127   4.064 -1.1438  2.6748 -0.6338
   38CHL1  H27C 2812   3.259   4.237   3.960 -0.3896  0.0188  0.1219
   39CHL1    C3 2813   3.623   3.538   2.777  0.1107 -0.4019 -0.0570
   39CHL1    H3 2814   3.689   3.615   2.823  1.5349 -2.2725  1.2153
   39CHL1    O3 2815   3.622   3.564   2.641  0.9072  0.6990  0.2027
   39CHL1   H3' 2816   3.552   3.504   2.615 -1.6546  2.9359  1.4073
   39CHL1    C4 2817   3.663   3.394   2.804  0.2822  0.3716 -0.6989
   39CHL1   H4A 2818   3.595   3.339   2.736  0.4490  0.5324 -1.0046
   39CHL1   H4B 2819   3.764   3.375   2.761  0.6733 -0.0006  0.3575
   39CHL1    C5 2820   3.652   3.349   2.949 -0.1624  0.2929 -0.2442
   39CHL1    C6 2821   3.759   3.303   3.010  0.1367 -0.0725  0.6987
   39CHL1    H6 2822   3.851   3.298   2.951 -0.3154 -0.1576 -0.0128
   39CHL1    C7 2823   3.768   3.250   3.149  0.5655  0.2789  0.1569
   39CHL1   H7A 2824   3.810   3.147   3.162  0.3781  0.5374  4.2773
   39CHL1   H7B 2825   3.842   3.308   3.209 -0.3103  0.3520  1.2022
   39CHL1    C8 2826   3.624   3.246   3.217 -0.1019  0.0768  0.6897
   39CHL1    H8 2827   3.590   3.152   3.168  0.8292 -0.0222  0.2092
   39CHL1   C14 2828   3.635   3.242   3.364  0.1901 -0.1808 -0.1490
   39CHL1   H14 2829   3.662   3.350   3.374  0.4315 -0.3606  1.3846
   39CHL1   C15 2830   3.744   3.155   3.436 -0.4898  0.6326  0.0488
   39CHL1  H15A 2831   3.752   3.055   3.387  0.1707  0.1372  1.1235
   39CHL1  H15B 2832   3.838   3.213   3.437  1.6401 -2.5176 -0.7143
   39CHL1   C16 2833   3.697   3.130   3.571  0.2749 -0.2997  0.1378
   39CHL1  H16A 2834   3.651   3.030   3.585 -0.1072 -0.0359  0.8386
   39CHL1  H16B 2835   3.764   3.150   3.657  1.1370 -0.5208 -0.4693
   39CHL1   C17 2836   3.566   3.218   3.578 -0.2287 -0.2247  0.3946
   39CHL1   H17 2837   3.601   3.318   3.609 -0.5004 -0.0615  0.1766
   39CHL1   C13 2838   3.507   3.227   3.439 -0.5555 -0.2546  0.6084
   39CHL1   C18 2839   3.441   3.096   3.395 -0.3326  0.0261  0.3847
   39CHL1  H18A 2840   3.419   3.083   3.286  3.7058  1.2074 -0.7476
   39CHL1  H18B 2841   3.512   3.018   3.428  1.1554  0.9860 -0.4473
   39CHL1  H18C 2842   3.348   3.076   3.453  0.1129 -0.0843  1.0601
   39CHL1   C12 2843   3.420   3.356   3.401 -0.1665 -0.0733 -0.1469
   39CHL1  H12A 2844   3.317   3.349   3.442  0.2677  0.1328  1.0084
   39CHL1  H12B 2845   3.471   3.444   3.445 -1.7036  0.4535  0.6534
   39CHL1   C11 2846   3.406   3.376   3.247 -0.4140 -0.0974  0.4991
   39CHL1  H11A 2847   3.341   3.290   3.219 -0.4990  0.1988 -0.2367
   39CHL1  H11B 2848   3.351   3.468   3.218  0.8994  1.6035  3.0136
   39CHL1    C9 2849   3.534   3.367   3.166  0.0490  0.3830 -0.5938
   39CHL1    H9 2850   3.589   3.460   3.192 -1.6455  2.2233 -3.0849
   39CHL1   C10 2851   3.519   3.382   3.012  1.2617 -0.1253 -0.5235
   39CHL1   C19 2852   3.407   3.280   2.960  0.2605 -0.4886  0.9840
   39CHL1  H19A 2853   3.305   3.316   2.987 -0.1014  2.8213 -3.7095
   39CHL1  H19B 2854   3.409   3.275   2.849 -2.8530 -1.1686  0.8694
   39CHL1  H19C 2855   3.432   3.177   2.996  1.4337 -1.3705 -2.0328
   39CHL1    C1 2856   3.472   3.531   2.978 -0.0244 -0.2184  0.7816
   39CHL1   H1A 2857   3.363   3.549   2.996 -0.3296 -1.3466  0.1380
   39CHL1   H1B 2858   3.543   3.596   3.033 -0.2537 -0.3225  1.2020
   39CHL1    C2 2859   3.478   3.561   2.823  0.3085  0.8778 -0.3988
   39CHL1   H2A 2860   3.440   3.662   2.795 -0.4347  0.0442 -2.6259
   39CHL1   H2B 2861   3.408   3.494   2.769 -0.3163  2.2186 -1.3279
   39CHL1   C20 2862   3.467   3.167   3.690 -0.3130  0.1868 -0.1114
   39CHL1   H20 2863   3.402   3.090   3.643  1.4772 -2.0377  0.8805
   39CHL1   C21 2864   3.376   3.278   3.742  0.2408  0.2191  0.8606
   39CHL1  H21A 2865   3.309   3.309   3.659 -0.3874  0.4334  1.4332
   39CHL1  H21B 2866   3.430   3.374   3.756 -0.1886  0.9138 -1.6330
   39CHL1  H21C 2867   3.321   3.247   3.833  0.9759 -0.1025  1.1994
   39CHL1   C22 2868   3.523   3.104   3.810  0.6822  0.1249 -0.6490
   39CHL1  H22A 2869   3.439   3.076   3.877  0.8926  2.0883  0.4985
   39CHL1  H22B 2870   3.585   3.015   3.790  1.2396  0.3484  0.0425
   39CHL1   C23 2871   3.606   3.177   3.915  0.4367  0.1139  0.2998
   39CHL1  H23A 2872   3.688   3.229   3.861 -0.5092  1.3903  0.0396
   39CHL1  H23B 2873   3.540   3.257   3.955 -1.8722 -0.8612 -1.3080
   39CHL1   C24 2874   3.655   3.080   4.021 -0.8288 -0.3070 -0.1964
   39CHL1  H24A 2875   3.565   3.043   4.074 -0.2255 -1.1413  0.2813
   39CHL1  H24B 2876   3.713   2.998   3.973 -1.3586 -0.8528  0.0845
   39CHL1   C25 2877   3.758   3.141   4.115 -0.2411 -0.3403 -0.0091
   39CHL1   H25 2878   3.844   3.176   4.053  0.0404 -0.0175  0.5527
   39CHL1   C26 2879   3.695   3.271   4.172  0.0091  0.1312  0.1380
   39CHL1  H26A 2880   3.692   3.337   4.083  2.0959 -0.3309 -0.3343
   39CHL1  H26B 2881   3.597   3.244   4.216  1.3147 -3.2987  1.3180
   39CHL1  H26C 2882   3.752   3.320   4.254  0.2103  2.7282 -1.4515
   39CHL1   C27 2883   3.790   3.029   4.216  0.0945 -0.2424 -0.1262
   39CHL1  H27A 2884   3.700   2.988   4.267 -0.3980 -0.4288 -1.1192
   39CHL1  H27B 2885   3.822   2.940   4.157 -1.3883 -0.3492 -0.8177
   39CHL1  H27C 2886   3.862   3.059   4.295 -1.7128  3.8579  0.2184
   40CHL1    C3 2887   5.519   3.290   2.551 -0.3161  0.2027 -0.0995
   40CHL1    H3 2888   5.511   3.389   2.601 -0.3237 -0.7358  1.8237
   40CHL1    O3 2889   5.573   3.298   2.418  0.4941 -0.3846  0.6662
   40CHL1   H3' 2890   5.580   3.209   2.385  0.5446 -0.3697  0.6363
   40CHL1    C4 2891   5.614   3.202   2.631  0.5061  0.2047 -0.0257
   40CHL1   H4A 2892   5.629   3.109   2.572  0.8895  1.1883 -1.5327
   40CHL1   H4B 2893   5.712   3.253   2.643  3.4483 -4.4482 -1.5301
   40CHL1    C5 2894   5.564   3.179   2.775  0.8756  0.0449  0.2744
   40CHL1    C6 2895   5.638   3.202   2.884 -0.6056  0.4324  0.3979
   40CHL1    H6 2896   5.736   3.251   2.883 -0.0608 -0.6251 -0.2528
   40CHL1    C7 2897   5.590   3.165   3.024  0.0444 -0.4635  0.5616
   40CHL1   H7A 2898   5.670   3.125   3.090 -1.1397 -3.9336  0.1094
   40CHL1   H7B 2899   5.553   3.259   3.070  1.1676 -0.1958  0.9389
   40CHL1    C8 2900   5.456   3.080   3.022 -0.1877 -0.4113 -0.5024
   40CHL1    H8 2901   5.487   2.975   3.001 -2.4523 -1.0752 -0.8368
   40CHL1   C14 2902   5.391   3.068   3.162 -0.2264 -0.4454  0.3928
   40CHL1   H14 2903   5.349   3.169   3.181 -0.5597 -0.4623 -0.2141
   40CHL1   C15 2904   5.482   3.045   3.277  0.1194  0.2452 -0.1538
   40CHL1  H15A 2905   5.546   2.956   3.261 -0.3111 -0.1778  0.4595
   40CHL1  H15B 2906   5.528   3.139   3.315 -2.5222  2.0302 -1.0431
   40CHL1   C16 2907   5.381   2.994   3.387  0.1978 -0.4124  0.0369
   40CHL1  H16A 2908   5.411   2.889   3.408  0.7803 -0.3411 -0.4016
   40CHL1  H16B 2909   5.388   3.051   3.483  1.1130 -1.1864  0.4499
   40CHL1   C17 2910   5.240   2.997   3.320  0.2169  0.7732 -0.2730
   40CHL1   H17 2911   5.195   3.099   3.327 -0.8601  0.3877 -1.2352
   40CHL1   C13 2912   5.271   2.981   3.167 -0.3638 -0.8320 -0.3244
   40CHL1   C18 2913   5.303   2.834   3.143  1.2557 -0.6854  0.3281
   40CHL1  H18A 2914   5.368   2.788   3.220  1.9592  1.6671  1.2456
   40CHL1  H18B 2915   5.210   2.774   3.136 -0.9465  2.4924  0.2695
   40CHL1  H18C 2916   5.357   2.821   3.046  2.6961  2.1182  0.6476
   40CHL1   C12 2917   5.167   3.032   3.080  0.8911 -0.0864 -0.0214
   40CHL1  H12A 2918   5.075   2.974   3.059  0.3598  0.3981  0.9065
   40CHL1  H12B 2919   5.133   3.132   3.113  0.0800 -1.1085  2.4581
   40CHL1   C11 2920   5.220   3.047   2.932 -0.4256  0.2453  0.0646
   40CHL1  H11A 2921   5.249   2.944   2.900  2.4856  1.1932 -0.6056
   40CHL1  H11B 2922   5.145   3.080   2.857  0.3959 -3.2031 -2.5349
   40CHL1    C9 2923   5.354   3.124   2.921  0.5329  0.2625 -0.6295
   40CHL1    H9 2924   5.327   3.229   2.945 -1.8767 -0.2437 -0.8193
   40CHL1   C10 2925   5.417   3.125   2.780 -0.0367  0.2243  0.2222
   40CHL1   C19 2926   5.424   2.977   2.733  0.1641 -0.1751 -0.6278
   40CHL1  H19A 2927   5.492   2.925   2.804  1.0839 -1.1115 -2.1407
   40CHL1  H19B 2928   5.326   2.925   2.730  0.5689 -1.0077  0.0245
   40CHL1  H19C 2929   5.455   2.966   2.627  0.4801  1.1444 -0.6900
   40CHL1    C1 2930   5.325   3.219   2.693 -0.2874  0.6992 -0.3735
   40CHL1   H1A 2931   5.222   3.175   2.690 -0.7799  1.8782 -1.6876
   40CHL1   H1B 2932   5.316   3.313   2.751 -1.7050  0.1780  0.3026
   40CHL1    C2 2933   5.373   3.235   2.546 -0.2592 -0.0138  0.0882
   40CHL1   H2A 2934   5.310   3.302   2.485 -1.8489 -0.7373  0.8828
   40CHL1   H2B 2935   5.369   3.139   2.489  0.3227  0.2451 -0.4019
   40CHL1   C20 2936   5.143   2.896   3.378 -0.1507  0.2638 -0.4509
   40CHL1   H20 2937   5.185   2.797   3.352 -1.6020 -0.9492  1.5209
   40CHL1   C21 2938   4.999   2.917   3.315  0.2958  0.7773  0.0008
   40CHL1  H21A 2939   4.985   2.881   3.211  0.7913  0.1469  0.1437
   40CHL1  H21B 2940   4.969   3.023   3.302 -0.1611  0.6888  0.3196
   40CHL1  H21C 2941   4.918   2.870   3.374 -2.5402  1.9623 -2.6790
   40CHL1   C22 2942   5.131   2.895   3.532 -0.0485 -0.4820 -0.7969
   40CHL1  H22A 2943   5.059   2.814   3.554  1.4391 -1.6961 -0.2642
   40CHL1  H22B 2944   5.223   2.869   3.588 -1.1138 -1.4797  0.5560
   40CHL1   C23 2945   5.075   3.032   3.589 -0.0107  0.4449 -0.1034
   40CHL1  H23A 2946   5.152   3.106   3.556  1.2833 -0.6290  0.4432
   40CHL1  H23B 2947   4.974   3.047   3.545  0.1873  1.0496 -0.3684
   40CHL1   C24 2948   5.057   3.054   3.740  0.9610 -0.3993 -0.6773
   40CHL1  H24A 2949   5.027   3.159   3.761  0.9888 -0.7732  1.4779
   40CHL1  H24B 2950   4.964   3.000   3.769  1.3722 -0.1537  1.2725
   40CHL1   C25 2951   5.165   3.021   3.834  0.8809 -0.8366  0.0745
   40CHL1   H25 2952   5.214   2.928   3.799  2.2182 -0.2688  0.3405
   40CHL1   C26 2953   5.298   3.109   3.832  0.1330 -0.5388 -0.1953
   40CHL1  H26A 2954   5.326   3.142   3.730 -1.5812  1.1077 -0.1644
   40CHL1  H26B 2955   5.273   3.202   3.886  0.4736  0.1558 -1.2166
   40CHL1  H26C 2956   5.386   3.067   3.888 -1.7376 -1.3231  2.3629
   40CHL1   C27 2957   5.112   3.004   3.977 -0.2964 -0.4237  0.6574
   40CHL1  H27A 2958   5.064   3.097   4.015 -2.3819 -1.5284  0.8318
   40CHL1  H27B 2959   5.026   2.935   3.983 -1.5902  1.1038  0.3945
   40CHL1  H27C 2960   5.191   2.978   4.051  0.9057 -0.0392 -0.4694
   41CHL1    C3 2961   4.972   2.369   2.710  0.0940  0.5908  0.8327
   41CHL1    H3 2962   4.944   2.267   2.745 -2.9520  1.4746  1.2621
   41CHL1    O3 2963   4.981   2.370   2.565  0.8981 -0.6016 -1.1115
   41CHL1   H3' 2964   4.980   2.463   2.542  0.4584 -0.4146 -0.3580
   41CHL1    C4 2965   4.861   2.466   2.743 -0.6980 -0.3567  0.0832
   41CHL1   H4A 2966   4.897   2.570   2.729 -5.1540  1.2897 -0.5613
   41CHL1   H4B 2967   4.769   2.458   2.682  0.3668 -2.5572 -1.4004
   41CHL1    C5 2968   4.833   2.450   2.894  1.2613 -0.1076  0.3872
   41CHL1    C6 2969   4.707   2.424   2.935 -0.3962  0.5325 -0.0909
   41CHL1    H6 2970   4.628   2.417   2.858 -0.9059 -1.0377  0.5348
   41CHL1    C7 2971   4.678   2.396   3.079 -0.6656  0.1613 -0.2095
   41CHL1   H7A 2972   4.576   2.426   3.110 -0.2778 -0.2764  1.5740
   41CHL1   H7B 2973   4.670   2.286   3.095 -0.9369  0.4310  1.7617
   41CHL1    C8 2974   4.786   2.444   3.184  0.3111 -0.2110  0.1568
   41CHL1    H8 2975   4.770   2.553   3.196  0.4676 -0.2772  0.9971
   41CHL1   C14 2976   4.777   2.368   3.311 -1.0607 -0.1124  0.0611
   41CHL1   H14 2977   4.807   2.264   3.282 -0.1763  0.2910 -0.5108
   41CHL1   C15 2978   4.640   2.362   3.385 -0.2970 -0.2284  0.3608
   41CHL1  H15A 2979   4.590   2.462   3.392  0.8174  0.3006  1.1004
   41CHL1  H15B 2980   4.573   2.292   3.332  1.1592  0.3236 -2.3628
   41CHL1   C16 2981   4.675   2.309   3.529 -0.4643 -0.2603  0.9477
   41CHL1  H16A 2982   4.633   2.375   3.608 -1.1224 -2.0614  2.1619
   41CHL1  H16B 2983   4.636   2.205   3.536 -0.8931 -0.2293 -0.5538
   41CHL1   C17 2984   4.828   2.311   3.532 -0.1451 -0.1862  0.0601
   41CHL1   H17 2985   4.860   2.212   3.493 -0.0061  0.8011 -2.5156
   41CHL1   C13 2986   4.877   2.409   3.420  0.7655  0.2101  0.3979
   41CHL1   C18 2987   4.851   2.555   3.463 -0.1635  0.7781  0.8170
   41CHL1  H18A 2988   4.925   2.586   3.540  0.9735 -0.4329  0.2593
   41CHL1  H18B 2989   4.872   2.620   3.376  2.4174 -0.8412  0.1260
   41CHL1  H18C 2990   4.744   2.572   3.489 -0.7881 -1.0561 -0.3865
   41CHL1   C12 2991   5.018   2.384   3.365 -0.3543 -0.7000  0.1066
   41CHL1  H12A 2992   5.097   2.412   3.438  1.0861 -2.3736 -0.7550
   41CHL1  H12B 2993   5.018   2.273   3.359 -2.0995 -0.7653  0.6728
   41CHL1   C11 2994   5.044   2.444   3.224  0.1053 -0.9111 -0.4012
   41CHL1  H11A 2995   5.048   2.554   3.242 -1.6344 -1.1117  1.6654
   41CHL1  H11B 2996   5.137   2.406   3.177 -0.0325 -1.7575 -0.0045
   41CHL1    C9 2997   4.923   2.411   3.119  0.4823  0.4455 -0.3399
   41CHL1    H9 2998   4.924   2.300   3.104  0.0535  0.5116 -0.8904
   41CHL1   C10 2999   4.957   2.469   2.981  0.1654  0.4372  0.1870
   41CHL1   C19 3000   4.974   2.622   2.995  0.0921  0.0296  0.2032
   41CHL1  H19A 3001   5.076   2.626   3.037  0.7740  0.5442 -1.4234
   41CHL1  H19B 3002   4.980   2.678   2.899 -0.5889  0.0318  0.1526
   41CHL1  H19C 3003   4.898   2.659   3.068  3.1977 -0.5313  4.0189
   41CHL1    C1 3004   5.084   2.396   2.921 -0.1612 -0.4217 -0.3482
   41CHL1   H1A 3005   5.171   2.439   2.975 -1.1091 -0.5384  1.3594
   41CHL1   H1B 3006   5.074   2.290   2.952 -0.8423 -0.6257 -1.2226
   41CHL1    C2 3007   5.097   2.420   2.776  0.0874  0.3103  0.7590
   41CHL1   H2A 3008   5.182   2.361   2.737  0.8681  1.1905  1.0809
   41CHL1   H2B 3009   5.115   2.529   2.760 -0.6543  0.5923  1.7146
   41CHL1   C20 3010   4.892   2.318   3.670 -0.2931 -0.0091 -0.1354
   41CHL1   H20 3011   4.990   2.367   3.651 -0.5137  0.4119 -0.2054
   41CHL1   C21 3012   4.916   2.172   3.715  0.4421 -0.1495  0.0787
   41CHL1  H21A 3013   4.975   2.165   3.809 -1.4741 -0.0646  1.3477
   41CHL1  H21B 3014   4.965   2.105   3.642  0.8805  0.5072 -0.2324
   41CHL1  H21C 3015   4.814   2.136   3.742 -0.8719  1.8591 -1.8254
   41CHL1   C22 3016   4.828   2.407   3.778 -0.5426 -0.1442  0.4065
   41CHL1  H22A 3017   4.798   2.503   3.731 -1.6605 -1.3898 -1.5466
   41CHL1  H22B 3018   4.730   2.373   3.818 -0.8754 -0.8916 -1.0081
   41CHL1   C23 3019   4.918   2.445   3.896  1.2082 -0.3208 -0.6645
   41CHL1  H23A 3020   4.938   2.355   3.957  1.4977  0.7265  0.8388
   41CHL1  H23B 3021   5.014   2.480   3.852 -0.3319  1.5012 -2.8057
   41CHL1   C24 3022   4.860   2.546   3.993  0.1408 -0.1865 -0.0519
   41CHL1  H24A 3023   4.842   2.644   3.944 -0.2918 -0.0332  0.4019
   41CHL1  H24B 3024   4.763   2.502   4.025  2.4173 -2.5496  4.6093
   41CHL1   C25 3025   4.946   2.567   4.115  0.6714 -0.2345  0.2563
   41CHL1   H25 3026   4.899   2.649   4.173  0.5035  1.2277 -1.8331
   41CHL1   C26 3027   4.946   2.450   4.212  0.1437  0.5875  0.3617
   41CHL1  H26A 3028   4.846   2.405   4.228  0.4177 -0.1280  0.0764
   41CHL1  H26B 3029   5.003   2.366   4.168  0.1286 -0.6471  2.5844
   41CHL1  H26C 3030   4.984   2.470   4.314  1.4603 -0.6104  0.1323
   41CHL1   C27 3031   5.085   2.632   4.088  0.8675 -0.4198 -0.5061
   41CHL1  H27A 3032   5.064   2.736   4.056  0.0139 -0.1886  0.7417
   41CHL1  H27B 3033   5.147   2.632   4.180  1.2945 -0.2179 -0.7925
   41CHL1  H27C 3034   5.142   2.575   4.011  0.6012  0.5232 -1.4209
   42CHL1    C3 3035   1.966   1.399   3.073  0.1936  0.8189 -0.2123
   42CHL1    H3 3036   2.025   1.493   3.068 -0.6482  1.3543 -0.2058
   42CHL1    O3 3037   1.963   1.333   2.935  0.2553 -0.5514 -0.2520
   42CHL1   H3' 3038   1.913   1.253   2.954 -1.7265  0.6987  0.0580
   42CHL1    C4 3039   2.039   1.299   3.168 -0.1314 -0.9317 -0.7228
   42CHL1   H4A 3040   1.998   1.196   3.165  0.5515 -1.3253  1.4678
   42CHL1   H4B 3041   2.147   1.307   3.143  0.2521  0.7789  1.2217
   42CHL1    C5 3042   2.030   1.349   3.316  0.1794 -0.5027 -0.2634
   42CHL1    C6 3043   2.136   1.366   3.397 -0.4003  0.3960 -0.1294
   42CHL1    H6 3044   2.236   1.342   3.359  0.0132  1.7300  0.0751
   42CHL1    C7 3045   2.129   1.400   3.541  0.6190  0.2716 -0.6749
   42CHL1   H7A 3046   2.200   1.337   3.601  0.9095 -0.5226 -1.8274
   42CHL1   H7B 3047   2.152   1.507   3.556  2.4545 -0.1460 -0.1449
   42CHL1    C8 3048   1.983   1.386   3.603 -0.1980  0.9692 -0.3677
   42CHL1    H8 3049   1.967   1.276   3.602 -1.1757  1.0932 -1.5833
   42CHL1   C14 3050   1.967   1.467   3.726 -0.4475  0.7209 -0.4240
   42CHL1   H14 3051   1.998   1.572   3.707  3.0097  0.0957  1.0434
   42CHL1   C15 3052   2.078   1.438   3.836  0.2042 -0.4410 -0.6473
   42CHL1  H15A 3053   2.100   1.331   3.855  1.1933 -0.0619  0.4690
   42CHL1  H15B 3054   2.173   1.490   3.813  0.0329  0.7127  1.0650
   42CHL1   C16 3055   2.020   1.504   3.963  0.4320 -0.5372  0.7318
   42CHL1  H16A 3056   2.008   1.433   4.047  0.2654  1.1031  2.1608
   42CHL1  H16B 3057   2.083   1.589   3.997  0.5148  0.5017 -1.7517
   42CHL1   C17 3058   1.873   1.553   3.923 -0.5450  0.3548  0.1254
   42CHL1   H17 3059   1.889   1.660   3.901  3.0498  0.0441  0.6017
   42CHL1   C13 3060   1.838   1.473   3.795  0.3062 -0.2463  0.4986
   42CHL1   C18 3061   1.797   1.326   3.833  0.1731 -0.3802  0.3263
   42CHL1  H18A 3062   1.878   1.277   3.891  0.6901  0.3642  0.2463
   42CHL1  H18B 3063   1.693   1.326   3.872 -0.2180  0.3134 -0.6701
   42CHL1  H18C 3064   1.774   1.264   3.744 -2.0355 -1.3698  1.5060
   42CHL1   C12 3065   1.740   1.544   3.697  0.6126 -0.0766  0.4771
   42CHL1  H12A 3066   1.639   1.582   3.725 -0.3913 -0.4394 -2.2810
   42CHL1  H12B 3067   1.785   1.643   3.676 -0.5563  0.3328 -0.2108
   42CHL1   C11 3068   1.738   1.469   3.560 -0.2716 -0.0654  0.5494
   42CHL1  H11A 3069   1.693   1.368   3.573 -2.1956  0.6353 -0.2403
   42CHL1  H11B 3070   1.670   1.530   3.497 -1.0387  2.3416  3.4373
   42CHL1    C9 3071   1.879   1.446   3.502 -0.2987 -0.3009  0.6974
   42CHL1    H9 3072   1.917   1.550   3.499 -0.7722 -0.0638  2.0456
   42CHL1   C10 3073   1.883   1.378   3.360  0.5797  0.3464  0.1465
   42CHL1   C19 3074   1.816   1.242   3.371  0.1086  1.1565 -0.5628
   42CHL1  H19A 3075   1.864   1.185   3.453 -2.8832  0.6085  0.9621
   42CHL1  H19B 3076   1.710   1.244   3.405  0.6493  0.3724  1.2461
   42CHL1  H19C 3077   1.812   1.181   3.278 -1.6806 -1.0948  0.8691
   42CHL1    C1 3078   1.809   1.473   3.259 -0.2282  0.6557  0.0753
   42CHL1   H1A 3079   1.702   1.482   3.289  0.3117 -0.2989  2.5915
   42CHL1   H1B 3080   1.850   1.576   3.271 -2.2187  1.6704 -1.2735
   42CHL1    C2 3081   1.822   1.427   3.117  0.2356 -0.6018  0.5023
   42CHL1   H2A 3082   1.779   1.500   3.045  2.2087  0.0162 -0.1135
   42CHL1   H2B 3083   1.771   1.329   3.104 -0.4503 -0.3916  1.4698
   42CHL1   C20 3084   1.776   1.539   4.047  0.2279 -0.2733  0.0497
   42CHL1   H20 3085   1.776   1.435   4.089  0.6108  0.1752  1.2119
   42CHL1   C21 3086   1.628   1.568   4.002 -0.8084 -0.3472  0.1335
   42CHL1  H21A 3087   1.616   1.675   3.978  1.3397  0.1243  0.9412
   42CHL1  H21B 3088   1.552   1.535   4.076  0.4475  0.7779  1.9856
   42CHL1  H21C 3089   1.603   1.511   3.910  0.1643 -1.9862  0.8155
   42CHL1   C22 3090   1.819   1.636   4.160 -0.6173 -0.2222  0.4867
   42CHL1  H22A 3091   1.910   1.588   4.202 -0.9891 -1.7489 -0.3691
   42CHL1  H22B 3092   1.850   1.739   4.133 -1.4404  0.3417  1.5938
   42CHL1   C23 3093   1.724   1.651   4.278 -0.0210 -0.3392  0.2231
   42CHL1  H23A 3094   1.619   1.665   4.244 -0.4922 -0.2829  1.6097
   42CHL1  H23B 3095   1.725   1.554   4.332  0.1459 -1.4991 -1.7843
   42CHL1   C24 3096   1.760   1.765   4.380  0.2592  0.2602  0.6953
   42CHL1  H24A 3097   1.751   1.862   4.327  0.4490 -0.4881 -0.7651
   42CHL1  H24B 3098   1.693   1.761   4.468  0.6471  1.7534  1.0969
   42CHL1   C25 3099   1.907   1.763   4.426  0.0277 -0.0755  0.0135
   42CHL1   H25 3100   1.976   1.774   4.340  0.9949  0.5900  0.8488
   42CHL1   C26 3101   1.925   1.885   4.514 -0.0235 -0.1402 -0.9024
   42CHL1  H26A 3102   1.840   1.900   4.583  0.1810  0.1338 -0.7052
   42CHL1  H26B 3103   2.012   1.879   4.583 -0.5730 -0.2332 -0.2196
   42CHL1  H26C 3104   1.940   1.979   4.455 -3.6451 -0.3447 -2.3836
   42CHL1   C27 3105   1.940   1.638   4.498 -0.2833  0.3443 -0.4000
   42CHL1  H27A 3106   1.939   1.541   4.444  0.1642 -0.5904  1.1855
   42CHL1  H27B 3107   2.044   1.644   4.536 -0.4477  1.4824 -0.0784
   42CHL1  H27C 3108   1.880   1.612   4.589 -1.1425 -0.0166 -1.0542
   43CHL1    C3 3109   4.115   2.743   3.051  0.3067  0.0724  0.7896
   43CHL1    H3 3110   4.016   2.794   3.038  0.3561 -0.0104  0.0049
   43CHL1    O3 3111   4.189   2.730   2.928  0.4271 -0.3407 -0.4180
   43CHL1   H3' 3112   4.216   2.638   2.926 -0.4322 -0.6208  0.1412
   43CHL1    C4 3113   4.198   2.841   3.145 -0.3395  0.8502 -0.3279
   43CHL1   H4A 3114   4.302   2.804   3.135 -0.0435  0.0504  3.9167
   43CHL1   H4B 3115   4.203   2.941   3.095 -1.8393 -0.0425 -2.4488
   43CHL1    C5 3116   4.166   2.830   3.291  1.5690 -0.1965  0.7943
   43CHL1    C6 3117   4.134   2.938   3.365 -0.2113 -0.4932  0.4679
   43CHL1    H6 3118   4.159   3.031   3.311  0.7114 -0.4414  0.9718
   43CHL1    C7 3119   4.098   2.938   3.510 -0.1922 -0.2885  0.4997
   43CHL1   H7A 3120   4.157   3.016   3.564  0.2563 -1.6901  2.1038
   43CHL1   H7B 3121   3.990   2.967   3.513  0.2728  1.8996 -0.9293
   43CHL1    C8 3122   4.139   2.801   3.571  0.1975 -0.6118 -0.3695
   43CHL1    H8 3123   4.249   2.799   3.583 -0.0713 -1.1006  2.9538
   43CHL1   C14 3124   4.090   2.792   3.708 -0.1109 -0.2100 -0.4950
   43CHL1   H14 3125   3.979   2.788   3.703 -0.8234  4.2658  3.6827
   43CHL1   C15 3126   4.115   2.907   3.805  0.1186 -0.6314  0.3836
   43CHL1  H15A 3127   4.213   2.955   3.784 -0.9277  1.5811  0.3188
   43CHL1  H15B 3128   4.046   2.992   3.786 -0.5226 -1.1856  0.1783
   43CHL1   C16 3129   4.097   2.847   3.944  0.9694 -0.0333  0.1655
   43CHL1  H16A 3130   4.195   2.832   3.994  0.6389 -1.7374  0.3836
   43CHL1  H16B 3131   4.029   2.914   4.000  0.6086  2.5119 -3.0506
   43CHL1   C17 3132   4.049   2.697   3.927  0.1539 -0.6752  0.2595
   43CHL1   H17 3133   3.939   2.711   3.914 -0.3009 -1.3259  2.7617
   43CHL1   C13 3134   4.115   2.662   3.789 -0.5034 -0.6147 -0.2691
   43CHL1   C18 3135   4.270   2.640   3.812  0.6913  0.3224  0.4385
   43CHL1  H18A 3136   4.291   2.540   3.854 -0.9649 -1.0983 -1.8658
   43CHL1  H18B 3137   4.326   2.647   3.716  1.4912 -3.2845  0.5070
   43CHL1  H18C 3138   4.315   2.720   3.874 -0.7074  1.4278  0.1051
   43CHL1   C12 3139   4.049   2.552   3.710 -0.3384 -0.1848 -0.2524
   43CHL1  H12A 3140   4.084   2.456   3.753  0.8402 -0.1316 -1.0399
   43CHL1  H12B 3141   3.939   2.565   3.704 -0.0813  2.2045 -1.0471
   43CHL1   C11 3142   4.102   2.548   3.569  0.0237 -0.3203  0.3863
   43CHL1  H11A 3143   4.208   2.517   3.569 -0.1213 -0.8273  0.1182
   43CHL1  H11B 3144   4.045   2.467   3.518 -1.9211  0.9045  0.4727
   43CHL1    C9 3145   4.083   2.684   3.491 -0.4313  0.3911 -0.0462
   43CHL1    H9 3146   3.974   2.697   3.478 -0.5154  1.6217  1.6219
   43CHL1   C10 3147   4.143   2.686   3.344  0.0765 -0.2916 -0.7328
   43CHL1   C19 3148   4.280   2.621   3.347  0.3271  0.0472 -0.1651
   43CHL1  H19A 3149   4.336   2.665   3.432  0.9437 -1.2623  0.1286
   43CHL1  H19B 3150   4.270   2.511   3.364  1.1442 -0.2650 -1.5796
   43CHL1  H19C 3151   4.343   2.624   3.256  0.4262 -0.3606 -0.1145
   43CHL1    C1 3152   4.058   2.600   3.249  0.1388 -0.4945  0.2532
   43CHL1   H1A 3153   4.037   2.504   3.301 -2.3375  0.7128  1.6573
   43CHL1   H1B 3154   3.957   2.644   3.233 -0.8181 -3.4367 -3.1117
   43CHL1    C2 3155   4.113   2.603   3.105  0.6799  0.9696 -0.5043
   43CHL1   H2A 3156   4.048   2.542   3.038 -0.2759  0.3004  0.9657
   43CHL1   H2B 3157   4.217   2.563   3.114  0.1767 -0.0814  1.1333
   43CHL1   C20 3158   4.079   2.602   4.045  1.3527  0.2026  0.1556
   43CHL1   H20 3159   4.186   2.606   4.075  1.2805  3.9507  0.3686
   43CHL1   C21 3160   4.028   2.465   4.024 -0.3836  0.0751  0.2531
   43CHL1  H21A 3161   4.019   2.406   4.117 -1.8266 -3.7360 -2.0765
   43CHL1  H21B 3162   4.111   2.417   3.967 -2.2944 -1.7852 -1.1079
   43CHL1  H21C 3163   3.928   2.464   3.975 -1.0946  0.0059  1.6524
   43CHL1   C22 3164   3.998   2.666   4.165 -0.1554  0.6762  0.6114
   43CHL1  H22A 3165   4.046   2.765   4.181  1.4006 -0.3208  2.6373
   43CHL1  H22B 3166   3.891   2.685   4.139 -0.5358 -1.6969  0.2062
   43CHL1   C23 3167   4.008   2.603   4.308  0.1541  0.3105  0.4742
   43CHL1  H23A 3168   3.963   2.502   4.299  0.9372  0.0914 -1.1674
   43CHL1  H23B 3169   4.116   2.594   4.331  0.1115 -0.0874  0.5202
   43CHL1   C24 3170   3.932   2.691   4.402  0.7949 -0.2016 -0.5247
   43CHL1  H24A 3171   3.829   2.712   4.366  0.8026 -0.7581 -0.8886
   43CHL1  H24B 3172   3.915   2.646   4.502  0.2268  0.9635 -0.0758
   43CHL1   C25 3173   3.990   2.822   4.453 -0.1318 -0.0927 -0.4082
   43CHL1   H25 3174   3.984   2.888   4.363 -0.2302 -1.5083 -1.4830
   43CHL1   C26 3175   3.904   2.884   4.565 -0.2545 -0.0221  0.2029
   43CHL1  H26A 3176   3.799   2.906   4.535  0.8151  1.7683 -2.5706
   43CHL1  H26B 3177   3.909   2.816   4.652  1.5487 -2.3579 -1.5943
   43CHL1  H26C 3178   3.946   2.983   4.592 -0.0967  0.1867 -0.7654
   43CHL1   C27 3179   4.138   2.807   4.501 -0.2985  0.3358 -0.2702
   43CHL1  H27A 3180   4.200   2.795   4.410  0.4298 -1.1640  0.3946
   43CHL1  H27B 3181   4.177   2.900   4.549 -0.2606 -0.0286  0.4164
   43CHL1  H27C 3182   4.145   2.716   4.564 -1.1501 -0.6726 -1.5932
   44CHL1    C3 3183   1.610   5.192   3.105 -0.5615  0.2898 -0.1842
   44CHL1    H3 3184   1.533   5.265   3.139  0.9680  1.1887  1.5810
   44CHL1    O3 3185   1.596   5.185   2.967  0.0093 -0.1046  0.3519
   44CHL1   H3' 3186   1.635   5.105   2.930  0.3411  0.6401 -0.9662
   44CHL1    C4 3187   1.756   5.240   3.146 -0.1339 -0.3451  1.1046
   44CHL1   H4A 3188   1.834   5.170   3.108 -0.9749 -1.3661  1.2202
   44CHL1   H4B 3189   1.762   5.338   3.095 -2.7790 -0.8121 -0.2756
   44CHL1    C5 3190   1.767   5.249   3.296 -0.1376 -0.8466 -0.4962
   44CHL1    C6 3191   1.801   5.364   3.361 -0.5371  0.8000  0.0546
   44CHL1    H6 3192   1.832   5.448   3.298 -3.1257 -0.2080 -2.8472
   44CHL1    C7 3193   1.813   5.376   3.510  0.1941  0.1680 -0.2248
   44CHL1   H7A 3194   1.916   5.411   3.534  0.2216  0.8354 -1.2604
   44CHL1   H7B 3195   1.739   5.452   3.543 -0.4021 -0.8142  0.7772
   44CHL1    C8 3196   1.804   5.240   3.587 -0.3403 -0.0359 -0.4643
   44CHL1    H8 3197   1.900   5.184   3.594 -0.1760  0.2946  0.0224
   44CHL1   C14 3198   1.765   5.268   3.737 -0.3646  0.1177  0.9424
   44CHL1   H14 3199   1.658   5.296   3.731 -1.3078 -3.3061 -2.1499
   44CHL1   C15 3200   1.855   5.376   3.808  0.1680 -0.2190  0.2231
   44CHL1  H15A 3201   1.956   5.339   3.782 -0.7579 -2.0843 -0.9724
   44CHL1  H15B 3202   1.834   5.481   3.778  1.8699 -0.4615 -2.0699
   44CHL1   C16 3203   1.825   5.342   3.952  0.2312  0.0506 -0.4400
   44CHL1  H16A 3204   1.919   5.313   4.003 -0.4642  1.7067  1.9004
   44CHL1  H16B 3205   1.799   5.435   4.006  0.1116 -0.8951  1.1779
   44CHL1   C17 3206   1.730   5.222   3.957  0.0728  0.4189 -0.3508
   44CHL1   H17 3207   1.628   5.262   3.938  0.8880  1.9259 -1.6738
   44CHL1   C13 3208   1.754   5.145   3.824  0.0817  0.1294 -0.6044
   44CHL1   C18 3209   1.883   5.061   3.847 -0.0991  0.7028  0.1621
   44CHL1  H18A 3210   1.975   5.113   3.882  0.1255  0.0540  0.5647
   44CHL1  H18B 3211   1.857   4.986   3.925  0.0770  1.6074  1.0990
   44CHL1  H18C 3212   1.904   4.991   3.763 -0.0259 -2.2516  2.4333
   44CHL1   C12 3213   1.648   5.052   3.761  0.2154 -0.1744 -0.1557
   44CHL1  H12A 3214   1.637   4.957   3.817  3.7990 -1.0754 -0.7567
   44CHL1  H12B 3215   1.552   5.109   3.771 -0.0795 -0.7844  0.5986
   44CHL1   C11 3216   1.670   5.020   3.612 -0.0425 -0.3827  0.6160
   44CHL1  H11A 3217   1.752   4.945   3.613  1.5269  1.2380  0.0808
   44CHL1  H11B 3218   1.576   4.969   3.583 -1.6030  0.1524  4.1309
   44CHL1    C9 3219   1.701   5.149   3.524  0.5189 -0.0631  0.4015
   44CHL1    H9 3220   1.606   5.205   3.525  0.8142  0.4563  0.0276
   44CHL1   C10 3221   1.712   5.117   3.369  0.3401 -0.3656 -0.1652
   44CHL1   C19 3222   1.827   5.011   3.341 -0.3903  0.3707 -0.1879
   44CHL1  H19A 3223   1.897   5.036   3.423  1.3027 -0.5156 -1.3105
   44CHL1  H19B 3224   1.800   4.905   3.358 -0.2227  0.3859  0.1943
   44CHL1  H19C 3225   1.895   5.026   3.255 -0.7582 -1.4099 -0.8161
   44CHL1    C1 3226   1.579   5.068   3.314  0.5041 -0.0399  0.4312
   44CHL1   H1A 3227   1.561   4.963   3.346 -1.2242 -0.0180 -0.3345
   44CHL1   H1B 3228   1.496   5.139   3.331 -1.7514 -1.7432 -2.4076
   44CHL1    C2 3229   1.578   5.059   3.166  0.1446 -0.1601  0.3769
   44CHL1   H2A 3230   1.483   5.027   3.120  1.6484 -0.6919 -2.5960
   44CHL1   H2B 3231   1.645   4.980   3.127 -2.5273 -1.0261 -2.8942
   44CHL1   C20 3232   1.725   5.154   4.091 -0.4069 -0.2752  0.3100
   44CHL1   H20 3233   1.816   5.091   4.102 -0.7127 -0.8589 -0.3920
   44CHL1   C21 3234   1.595   5.066   4.095  0.4054  0.4478 -0.1870
   44CHL1  H21A 3235   1.503   5.127   4.094  0.0791 -0.0076  0.7214
   44CHL1  H21B 3236   1.588   4.996   4.181  0.1243 -2.0979 -2.1703
   44CHL1  H21C 3237   1.591   5.003   4.004  2.6980 -1.2780  0.7902
   44CHL1   C22 3238   1.736   5.258   4.208 -0.1820  0.7926  0.2639
   44CHL1  H22A 3239   1.845   5.281   4.212  0.0597 -0.4368  2.3810
   44CHL1  H22B 3240   1.662   5.340   4.199  1.3568  2.0232 -2.0446
   44CHL1   C23 3241   1.694   5.207   4.350  0.5774 -0.7409  0.2065
   44CHL1  H23A 3242   1.585   5.184   4.348  0.7559 -1.6361  0.1451
   44CHL1  H23B 3243   1.734   5.105   4.367 -0.0921 -0.8750  1.0493
   44CHL1   C24 3244   1.743   5.305   4.456 -0.4257 -0.1478  0.3623
   44CHL1  H24A 3245   1.853   5.304   4.465 -0.4644  0.3986  1.0150
   44CHL1  H24B 3246   1.711   5.410   4.439  0.3229  0.6246  3.1255
   44CHL1   C25 3247   1.687   5.285   4.604 -1.0672  0.2830 -0.1033
   44CHL1   H25 3248   1.577   5.301   4.604 -0.9951  0.8220 -0.3283
   44CHL1   C26 3249   1.726   5.147   4.664  0.0329 -0.1690  0.0599
   44CHL1  H26A 3250   1.698   5.142   4.771  1.0809  1.7557  0.4752
   44CHL1  H26B 3251   1.677   5.066   4.605 -0.2605 -0.8599  1.2246
   44CHL1  H26C 3252   1.835   5.126   4.652 -0.6769 -5.1088  0.0193
   44CHL1   C27 3253   1.752   5.399   4.691  0.3128 -0.4146  0.1071
   44CHL1  H27A 3254   1.861   5.384   4.706  0.4704  0.8669  0.3405
   44CHL1  H27B 3255   1.750   5.499   4.642 -0.7456 -1.4029 -2.0034
   44CHL1  H27C 3256   1.708   5.398   4.793  1.9633 -0.1372  0.8533
   45CHL1    C3 3257   3.376   4.992   2.977  0.2751  0.3096 -0.4855
   45CHL1    H3 3258   3.365   5.103   2.981  0.8268  0.4511 -2.0059
   45CHL1    O3 3259   3.379   4.957   2.837 -0.1272  0.7967  0.6127
   45CHL1   H3' 3260   3.289   4.968   2.804 -0.0011  1.4488  0.4613
   45CHL1    C4 3261   3.507   4.957   3.045 -0.6571  0.2221 -0.1448
   45CHL1   H4A 3262   3.523   4.847   3.040 -1.4517  0.1317 -0.7629
   45CHL1   H4B 3263   3.580   5.013   2.983 -0.6894  0.4035 -0.0207
   45CHL1    C5 3264   3.509   4.990   3.195 -0.4374  0.1605  0.2151
   45CHL1    C6 3265   3.607   5.054   3.260  0.7822 -0.3445 -0.8093
   45CHL1    H6 3266   3.694   5.091   3.203  1.1235 -2.3425 -1.6626
   45CHL1    C7 3267   3.618   5.073   3.410 -0.1798 -0.0476  0.6055
   45CHL1   H7A 3268   3.715   5.030   3.442  0.3701 -0.6338 -1.6309
   45CHL1   H7B 3269   3.613   5.183   3.421 -0.4734 -0.1839  2.0331
   45CHL1    C8 3270   3.516   5.000   3.491  0.7630 -0.7852 -0.3712
   45CHL1    H8 3271   3.552   4.896   3.503 -2.2883 -1.6345  4.1686
   45CHL1   C14 3272   3.504   5.062   3.627  0.4673  0.2475 -0.3876
   45CHL1   H14 3273   3.470   5.167   3.609 -3.5105 -1.0820 -1.5950
   45CHL1   C15 3274   3.627   5.076   3.714 -0.2668  0.2018 -0.4986
   45CHL1  H15A 3275   3.669   4.973   3.703  1.4320  0.8848 -0.6098
   45CHL1  H15B 3276   3.699   5.150   3.675 -0.1267 -0.7139 -2.0949
   45CHL1   C16 3277   3.574   5.117   3.850 -0.4426 -0.8817  0.2961
   45CHL1  H16A 3278   3.614   5.048   3.927 -1.2184  0.5792  2.0922
   45CHL1  H16B 3279   3.597   5.224   3.867  0.8363 -0.7385 -1.9470
   45CHL1   C17 3280   3.421   5.105   3.845 -0.1992 -0.0842 -0.8342
   45CHL1   H17 3281   3.380   5.207   3.831 -4.1041 -1.6446 -2.1368
   45CHL1   C13 3282   3.388   5.013   3.718  0.2227  0.9519  0.5503
   45CHL1   C18 3283   3.424   4.866   3.759  0.3906 -0.0215 -0.3709
   45CHL1  H18A 3284   3.331   4.827   3.805 -1.3302  3.1582 -0.8427
   45CHL1  H18B 3285   3.442   4.801   3.670  0.7547  0.3039 -0.5400
   45CHL1  H18C 3286   3.511   4.846   3.825  1.5367 -0.7900 -2.0367
   45CHL1   C12 3287   3.257   5.031   3.636  0.4290  0.4205 -0.5225
   45CHL1  H12A 3288   3.174   4.986   3.696  0.1192 -0.1267 -1.3471
   45CHL1  H12B 3289   3.231   5.138   3.625 -1.8451 -0.2060 -1.9091
   45CHL1   C11 3290   3.254   4.960   3.502  0.0268  0.0126 -0.3891
   45CHL1  H11A 3291   3.244   4.851   3.524  1.6901  0.2447  1.9800
   45CHL1  H11B 3292   3.168   5.001   3.446  0.4162  1.2716 -0.0931
   45CHL1    C9 3293   3.382   5.003   3.419  0.9946  0.4012 -0.1029
   45CHL1    H9 3294   3.372   5.111   3.397  1.4345  0.1668 -1.5916
   45CHL1   C10 3295   3.386   4.937   3.278  0.0136  0.2276  0.4531
   45CHL1   C19 3296   3.395   4.782   3.295  0.4845  0.5186 -0.0819
   45CHL1  H19A 3297   3.465   4.744   3.373  0.8774 -0.1500 -0.7505
   45CHL1  H19B 3298   3.299   4.746   3.339  0.9260 -2.5608 -1.3407
   45CHL1  H19C 3299   3.397   4.713   3.208 -2.0295 -0.1445  0.2984
   45CHL1    C1 3300   3.252   4.971   3.205  0.2376  0.5442 -0.1002
   45CHL1   H1A 3301   3.168   4.919   3.255 -2.5170  3.5253 -1.2114
   45CHL1   H1B 3302   3.237   5.082   3.205  1.4932  0.7858 -3.0293
   45CHL1    C2 3303   3.249   4.928   3.051 -0.0131 -0.0219 -0.1461
   45CHL1   H2A 3304   3.152   4.965   3.014 -0.8140 -0.3839  1.5061
   45CHL1   H2B 3305   3.251   4.817   3.047  0.4726 -0.1212  1.5978
   45CHL1   C20 3306   3.365   5.057   3.982  0.4200  0.2200  0.7195
   45CHL1   H20 3307   3.398   4.951   3.989 -1.2155 -0.3421  0.3569
   45CHL1   C21 3308   3.210   5.055   3.971  0.6751  0.5803  0.6664
   45CHL1  H21A 3309   3.178   4.969   3.909  0.1747  0.6491  0.8282
   45CHL1  H21B 3310   3.158   5.135   3.914  0.1872  0.4787  0.9598
   45CHL1  H21C 3311   3.163   5.029   4.068 -0.7958  1.1566  0.1336
   45CHL1   C22 3312   3.408   5.137   4.107  0.4174  0.3252  0.5386
   45CHL1  H22A 3313   3.518   5.137   4.119  0.4959  0.6247 -0.1241
   45CHL1  H22B 3314   3.386   5.246   4.108  0.9501  0.4601  2.5358
   45CHL1   C23 3315   3.355   5.078   4.240 -0.2323 -0.1656  1.1710
   45CHL1  H23A 3316   3.248   5.109   4.244  0.2872  2.7221 -2.1992
   45CHL1  H23B 3317   3.373   4.969   4.235  2.7370  0.2510  1.0509
   45CHL1   C24 3318   3.422   5.112   4.370 -0.2023 -0.7105  0.6966
   45CHL1  H24A 3319   3.523   5.068   4.360  0.5001  0.7332  1.2034
   45CHL1  H24B 3320   3.439   5.222   4.371  2.2112 -0.9190 -2.1495
   45CHL1   C25 3321   3.348   5.072   4.496 -0.2198  0.1233 -0.1760
   45CHL1   H25 3322   3.253   5.129   4.498 -0.5163 -0.3913  1.4052
   45CHL1   C26 3323   3.311   4.924   4.501 -0.7860  0.4638 -0.1008
   45CHL1  H26A 3324   3.245   4.914   4.590  1.2653 -0.4629  1.4214
   45CHL1  H26B 3325   3.268   4.886   4.406  0.0056 -0.3356 -0.1526
   45CHL1  H26C 3326   3.405   4.869   4.526 -0.5841 -0.1839 -2.1450
   45CHL1   C27 3327   3.428   5.117   4.621  0.4463 -0.4368  0.0244
   45CHL1  H27A 3328   3.378   5.067   4.708 -1.2618 -0.3182 -0.8413
   45CHL1  H27B 3329   3.534   5.086   4.608 -0.2656 -2.2478 -2.1125
   45CHL1  H27C 3330   3.422   5.227   4.628  0.3194 -0.4944  0.9194
   46CHL1    C3 3331   6.273   0.317   2.900  0.2300  0.1774  0.5135
   46CHL1    H3 3332   6.175   0.289   2.857  1.6001  0.4586 -3.1649
   46CHL1    O3 3333   6.367   0.274   2.803 -0.0572 -0.3925  0.3395
   46CHL1   H3' 3334   6.438   0.332   2.827 -1.2511  0.5975  1.6277
   46CHL1    C4 3335   6.288   0.471   2.914 -0.5218 -0.6039  0.4332
   46CHL1   H4A 3336   6.395   0.495   2.928 -0.6481  0.2514  0.0276
   46CHL1   H4B 3337   6.249   0.510   2.817  1.9922 -2.0769 -1.2910
   46CHL1    C5 3338   6.213   0.518   3.035 -0.1104  0.3734 -0.5620
   46CHL1    C6 3339   6.117   0.613   3.017 -0.7706  0.2311 -0.2517
   46CHL1    H6 3340   6.105   0.665   2.921 -0.9013  0.5416 -0.0691
   46CHL1    C7 3341   6.038   0.672   3.133 -0.6395 -0.5890  0.7069
   46CHL1   H7A 3342   6.035   0.781   3.110  1.9984 -1.0927 -2.9689
   46CHL1   H7B 3343   5.933   0.638   3.124 -1.4177  1.7417  0.3513
   46CHL1    C8 3344   6.097   0.645   3.272  0.1563  0.6529  0.0156
   46CHL1    H8 3345   6.188   0.708   3.268  0.7423 -0.2385 -1.6428
   46CHL1   C14 3346   6.002   0.680   3.384  0.4868 -0.5452  0.0444
   46CHL1   H14 3347   5.912   0.615   3.376 -0.2896 -0.2689  4.2493
   46CHL1   C15 3348   5.943   0.820   3.379  0.2879  0.6494  0.2641
   46CHL1  H15A 3349   6.021   0.892   3.346  0.2427  0.2112 -0.8396
   46CHL1  H15B 3350   5.861   0.831   3.306 -0.7220 -1.3698  1.0138
   46CHL1   C16 3351   5.886   0.840   3.520  0.3690 -0.6349 -1.1231
   46CHL1  H16A 3352   5.922   0.933   3.570 -3.8240  0.5242  0.2427
   46CHL1  H16B 3353   5.775   0.844   3.528  0.5030  0.2083  0.9224
   46CHL1   C17 3354   5.933   0.715   3.600 -0.0717 -0.7146 -0.2236
   46CHL1   H17 3355   5.855   0.637   3.583  0.3744 -1.0680 -0.6892
   46CHL1   C13 3356   6.054   0.660   3.524 -0.1824 -0.1699 -0.2318
   46CHL1   C18 3357   6.183   0.746   3.556  0.3328 -0.0358  0.1835
   46CHL1  H18A 3358   6.227   0.724   3.655  1.4905  0.2428 -0.2517
   46CHL1  H18B 3359   6.260   0.744   3.476  1.3224  2.3921  1.0157
   46CHL1  H18C 3360   6.157   0.853   3.566  1.6498  0.3807 -0.6256
   46CHL1   C12 3361   6.089   0.512   3.537 -0.0342 -0.3515 -0.0937
   46CHL1  H12A 3362   6.125   0.502   3.641 -2.6722 -1.1936  0.8301
   46CHL1  H12B 3363   5.998   0.449   3.523  0.1593 -0.4867 -0.7938
   46CHL1   C11 3364   6.188   0.472   3.432 -0.1641 -0.0430  0.3932
   46CHL1  H11A 3365   6.284   0.522   3.456 -0.1109  1.3110 -2.2601
   46CHL1  H11B 3366   6.213   0.365   3.451  1.4972  0.7589  3.3092
   46CHL1    C9 3367   6.140   0.498   3.288  0.2047  0.3192 -0.1359
   46CHL1    H9 3368   6.047   0.439   3.273  1.4568 -2.3833  1.7879
   46CHL1   C10 3369   6.238   0.452   3.175 -1.0084 -0.1486  0.5102
   46CHL1   C19 3370   6.381   0.500   3.212  0.1382 -0.5479 -0.0365
   46CHL1  H19A 3371   6.386   0.574   3.294 -1.5543 -2.0378  1.4976
   46CHL1  H19B 3372   6.446   0.418   3.251  2.4263  1.3375  0.3670
   46CHL1  H19C 3373   6.435   0.549   3.128 -3.8081  2.4342 -1.1010
   46CHL1    C1 3374   6.224   0.297   3.151 -0.5745 -0.4833  0.4391
   46CHL1   H1A 3375   6.257   0.250   3.246  2.7981  1.4186  0.3830
   46CHL1   H1B 3376   6.117   0.281   3.126 -0.0208  0.3453 -3.0878
   46CHL1    C2 3377   6.312   0.246   3.034  0.7411 -0.4166 -0.9825
   46CHL1   H2A 3378   6.293   0.136   3.029 -0.3986 -0.2968  0.1925
   46CHL1   H2B 3379   6.420   0.269   3.049  0.0595  3.1323 -0.6250
   46CHL1   C20 3380   5.935   0.726   3.754  0.1076  0.1688 -0.2172
   46CHL1   H20 3381   5.962   0.624   3.788 -3.0347 -0.1400  1.8580
   46CHL1   C21 3382   5.788   0.724   3.803  0.0721 -0.5424  0.3178
   46CHL1  H21A 3383   5.722   0.668   3.733  0.2856  1.3237 -1.4695
   46CHL1  H21B 3384   5.756   0.830   3.805  1.4378 -0.1027  0.0684
   46CHL1  H21C 3385   5.784   0.677   3.903  2.2800 -2.6240 -0.4764
   46CHL1   C22 3386   6.017   0.833   3.823 -0.6035 -0.8242 -0.1313
   46CHL1  H22A 3387   6.124   0.836   3.791 -1.1709  0.6540 -2.0738
   46CHL1  H22B 3388   5.977   0.933   3.798  2.9196  0.9021  0.4287
   46CHL1   C23 3389   6.009   0.821   3.979 -0.0573 -0.1052 -1.0089
   46CHL1  H23A 3390   5.904   0.839   4.010 -0.3620 -0.9378 -1.5320
   46CHL1  H23B 3391   6.035   0.721   4.019 -0.3144  0.3105  0.2244
   46CHL1   C24 3392   6.112   0.919   4.042 -0.4887  1.5133 -0.9811
   46CHL1  H24A 3393   6.213   0.892   4.005 -1.2106 -3.1129 -0.1724
   46CHL1  H24B 3394   6.087   1.020   4.003 -0.8904  1.7040 -0.2507
   46CHL1   C25 3395   6.136   0.896   4.194  0.2042 -0.3904 -0.6330
   46CHL1   H25 3396   6.205   0.975   4.231 -0.5078  0.7049 -1.5433
   46CHL1   C26 3397   6.000   0.915   4.263  0.4101  0.0962  0.5659
   46CHL1  H26A 3398   5.942   1.008   4.246 -0.7969 -0.3887  1.8274
   46CHL1  H26B 3399   5.930   0.831   4.245  0.2012 -0.2299  2.5757
   46CHL1  H26C 3400   6.019   0.907   4.373  1.9644  0.5280  0.3485
   46CHL1   C27 3401   6.199   0.764   4.248  0.0769  0.1578 -0.7573
   46CHL1  H27A 3402   6.168   0.672   4.194 -2.3147 -0.1626  1.0214
   46CHL1  H27B 3403   6.309   0.778   4.259  0.2614 -1.1911 -0.7547
   46CHL1  H27C 3404   6.158   0.755   4.350 -0.7967  1.4109 -0.9726
   47CHL1    C3 3405   2.828   0.658   2.851 -0.5903  0.6549  0.6781
   47CHL1    H3 3406   2.874   0.759   2.860  1.8099 -0.0358 -2.3981
   47CHL1    O3 3407   2.797   0.643   2.712 -0.1514 -0.0784 -0.1300
   47CHL1   H3' 3408   2.872   0.602   2.669  1.0357 -0.9956  2.6439
   47CHL1    C4 3409   2.936   0.546   2.892 -0.4575  0.0085 -0.0685
   47CHL1   H4A 3410   2.891   0.448   2.868 -0.5942 -0.0416  0.3772
   47CHL1   H4B 3411   3.029   0.567   2.835 -1.1403  1.3072 -0.7499
   47CHL1    C5 3412   2.958   0.546   3.039  0.1735  0.1098 -0.2339
   47CHL1    C6 3413   3.084   0.565   3.087  0.5071 -0.6281  0.4047
   47CHL1    H6 3414   3.166   0.583   3.015 -0.2749 -1.3905 -0.6981
   47CHL1    C7 3415   3.118   0.575   3.233 -0.4710 -0.7325 -0.1428
   47CHL1   H7A 3416   3.212   0.521   3.257 -0.1049 -1.2180 -2.4168
   47CHL1   H7B 3417   3.139   0.680   3.261  0.9742 -1.0884  0.2212
   47CHL1    C8 3418   3.008   0.516   3.326 -0.5273 -0.2931  1.0010
   47CHL1    H8 3419   3.015   0.405   3.318 -1.0361 -0.2852  0.3766
   47CHL1   C14 3420   3.041   0.568   3.467  0.0726 -0.4534  0.6160
   47CHL1   H14 3421   3.025   0.678   3.469  3.1561  0.0718  0.5186
   47CHL1   C15 3422   3.179   0.552   3.524 -0.0624  0.5200 -0.2244
   47CHL1  H15A 3423   3.214   0.453   3.487  2.8632  1.6470 -0.7684
   47CHL1  H15B 3424   3.246   0.633   3.487 -0.7148  0.3089 -1.9187
   47CHL1   C16 3425   3.161   0.561   3.675  0.7466 -0.8714 -0.3623
   47CHL1  H16A 3426   3.194   0.472   3.732 -1.9181 -1.5735  0.2067
   47CHL1  H16B 3427   3.208   0.656   3.708 -0.4881  0.1726 -1.4524
   47CHL1   C17 3428   3.003   0.580   3.695 -0.2600  0.1526 -0.8036
   47CHL1   H17 3429   2.977   0.687   3.693  1.3363  0.5693 -1.8881
   47CHL1   C13 3430   2.943   0.519   3.566  0.0449 -0.4225 -0.3708
   47CHL1   C18 3431   2.957   0.367   3.578 -0.2640 -0.4672 -0.3592
   47CHL1  H18A 3432   2.878   0.332   3.648  0.3070 -2.0027 -0.4475
   47CHL1  H18B 3433   2.934   0.305   3.489  0.6873  0.5353 -1.3374
   47CHL1  H18C 3434   3.052   0.329   3.620 -0.0848 -0.8485 -1.0946
   47CHL1   C12 3435   2.796   0.562   3.528 -0.8339 -0.2444 -0.1345
   47CHL1  H12A 3436   2.720   0.510   3.590  0.8844 -3.5335 -0.5451
   47CHL1  H12B 3437   2.778   0.670   3.545  2.2579  0.7111 -2.0904
   47CHL1   C11 3438   2.756   0.525   3.384  0.1750  0.0127  1.0054
   47CHL1  H11A 3439   2.759   0.415   3.397  0.5154 -0.1574 -0.3399
   47CHL1  H11B 3440   2.651   0.550   3.357  0.3716  0.9061  1.0493
   47CHL1    C9 3441   2.869   0.569   3.284  0.4864  0.5336 -0.2013
   47CHL1    H9 3442   2.887   0.679   3.295  0.1542  0.6084 -0.4125
   47CHL1   C10 3443   2.836   0.542   3.131  0.5712 -0.7727 -0.1508
   47CHL1   C19 3444   2.771   0.401   3.117  0.0030 -0.6559  0.2800
   47CHL1  H19A 3445   2.820   0.327   3.184 -0.1979  0.3934  1.6292
   47CHL1  H19B 3446   2.662   0.404   3.135  0.0462 -0.6216  0.5508
   47CHL1  H19C 3447   2.779   0.358   3.015 -2.4280 -0.8465  0.1301
   47CHL1    C1 3448   2.746   0.658   3.082  0.0704  0.7432 -0.2167
   47CHL1   H1A 3449   2.657   0.676   3.145  0.6744  0.1733  0.8285
   47CHL1   H1B 3450   2.807   0.748   3.101 -0.7399  0.8036  2.4653
   47CHL1    C2 3451   2.704   0.651   2.937  0.0550 -0.2696 -0.5660
   47CHL1   H2A 3452   2.634   0.736   2.919  0.0085 -0.2590 -0.3441
   47CHL1   H2B 3453   2.644   0.559   2.924 -1.1162  0.6581 -2.0415
   47CHL1   C20 3454   2.950   0.530   3.839 -0.1113 -0.1157  0.7366
   47CHL1   H20 3455   2.967   0.420   3.844 -0.0454 -0.0986  0.8917
   47CHL1   C21 3456   2.795   0.557   3.860 -0.0534 -0.0977  0.0842
   47CHL1  H21A 3457   2.724   0.502   3.794 -0.2512  0.6174 -0.3051
   47CHL1  H21B 3458   2.770   0.662   3.832  0.7044 -0.1455 -0.7947
   47CHL1  H21C 3459   2.763   0.535   3.965  1.1065  0.0427  0.4749
   47CHL1   C22 3460   3.033   0.600   3.947 -0.1570 -0.1815  0.0884
   47CHL1  H22A 3461   3.134   0.555   3.939  1.0174  1.9831  1.5839
   47CHL1  H22B 3462   3.046   0.711   3.945 -0.5419 -0.0847  1.6574
   47CHL1   C23 3463   2.996   0.561   4.089 -0.2773 -0.5957 -0.6989
   47CHL1  H23A 3464   2.905   0.617   4.119 -0.4443 -0.4832 -1.3886
   47CHL1  H23B 3465   2.975   0.452   4.086 -0.6184 -0.5436 -0.3000
   47CHL1   C24 3466   3.104   0.604   4.194  0.3740 -0.4454  0.2404
   47CHL1  H24A 3467   3.106   0.715   4.203 -0.4151 -0.3298 -0.8673
   47CHL1  H24B 3468   3.080   0.557   4.292 -1.6983 -0.5805 -0.2845
   47CHL1   C25 3469   3.252   0.571   4.166 -0.3763 -0.2376 -0.2961
   47CHL1   H25 3470   3.289   0.612   4.069  1.7529 -1.3058 -0.0135
   47CHL1   C26 3471   3.338   0.626   4.279 -0.4065 -0.0476  0.5402
   47CHL1  H26A 3472   3.318   0.735   4.285  2.0091  0.7321 -2.8938
   47CHL1  H26B 3473   3.303   0.570   4.369  0.3419 -1.8685 -0.2508
   47CHL1  H26C 3474   3.443   0.595   4.260 -0.5794 -1.1148  1.1948
   47CHL1   C27 3475   3.262   0.417   4.174 -0.0881 -0.1936  0.0892
   47CHL1  H27A 3476   3.367   0.382   4.165 -0.7830 -1.9626 -1.8015
   47CHL1  H27B 3477   3.228   0.377   4.272  0.4240 -2.7447 -0.6947
   47CHL1  H27C 3478   3.204   0.375   4.089 -0.6174  1.0143 -0.1704
   48CHL1    C3 3479   4.061   5.677   2.784  1.0390  0.1500 -0.3864
   48CHL1    H3 3480   3.971   5.625   2.821  1.4514  0.2571  0.8077
   48CHL1    O3 3481   4.030   5.728   2.655  0.5651  0.8703  0.3829
   48CHL1   H3' 3482   4.114   5.753   2.615 -0.1592  1.4540 -0.8207
   48CHL1    C4 3483   4.114   5.790   2.871  0.6082 -0.3743  0.1877
   48CHL1   H4A 3484   4.195   5.846   2.819  0.3914 -0.5111 -0.2987
   48CHL1   H4B 3485   4.034   5.867   2.868 -0.0305 -1.0684 -1.1723
   48CHL1    C5 3486   4.158   5.746   3.006 -0.5927 -0.4420 -0.2168
   48CHL1    C6 3487   4.107   5.809   3.109 -0.2321  0.1986 -1.0157
   48CHL1    H6 3488   4.037   5.893   3.099  1.0244  1.4496  0.2489
   48CHL1    C7 3489   4.132   5.753   3.251  0.5621  0.5331  0.6062
   48CHL1   H7A 3490   4.152   5.836   3.322 -0.2704  0.2760  1.1539
   48CHL1   H7B 3491   4.040   5.699   3.285  1.2632 -1.0492  0.0868
   48CHL1    C8 3492   4.257   5.665   3.260  1.0654 -0.3100  0.5688
   48CHL1    H8 3493   4.337   5.742   3.252 -0.5608  1.2500 -1.8430
   48CHL1   C14 3494   4.275   5.602   3.401  0.1641 -0.4610 -0.0065
   48CHL1   H14 3495   4.179   5.548   3.404  0.5537 -1.3629 -2.1034
   48CHL1   C15 3496   4.275   5.700   3.522  0.0360 -0.4752 -0.0035
   48CHL1  H15A 3497   4.342   5.786   3.501 -2.9566  1.6011 -1.8411
   48CHL1  H15B 3498   4.173   5.742   3.540  0.2159  0.2305 -0.5753
   48CHL1   C16 3499   4.322   5.613   3.639  0.2902 -0.4036  0.6286
   48CHL1  H16A 3500   4.407   5.665   3.686 -0.0962  1.3465 -0.4692
   48CHL1  H16B 3501   4.238   5.602   3.711 -0.9292 -2.7342 -0.9876
   48CHL1   C17 3502   4.370   5.476   3.572  0.6504  0.3223 -0.5089
   48CHL1   H17 3503   4.283   5.406   3.573 -0.9486  2.1918 -1.1369
   48CHL1   C13 3504   4.396   5.509   3.426  0.2252 -0.4654 -0.0481
   48CHL1   C18 3505   4.526   5.595   3.421 -0.5917 -0.4782  0.3077
   48CHL1  H18A 3506   4.533   5.641   3.320 -0.4651  1.7724  1.2786
   48CHL1  H18B 3507   4.532   5.676   3.497 -3.4689  1.2803 -1.1710
   48CHL1  H18C 3508   4.621   5.541   3.437  0.7836  1.5355 -0.7281
   48CHL1   C12 3509   4.384   5.394   3.318 -0.1925 -0.3263  0.5973
   48CHL1  H12A 3510   4.477   5.334   3.311 -0.2254 -0.1901 -2.0605
   48CHL1  H12B 3511   4.290   5.338   3.335 -1.2970  1.0926 -0.5103
   48CHL1   C11 3512   4.365   5.452   3.175  0.8562 -0.1573 -0.0352
   48CHL1  H11A 3513   4.460   5.498   3.139  1.4200 -1.1224  0.1767
   48CHL1  H11B 3514   4.345   5.377   3.095  0.0250  1.2259 -1.1600
   48CHL1    C9 3515   4.257   5.562   3.151  0.2093 -0.5624 -0.8777
   48CHL1    H9 3516   4.165   5.507   3.178  2.2809 -1.6932  5.6349
   48CHL1   C10 3517   4.252   5.627   3.006 -0.3417 -0.4693 -0.3710
   48CHL1   C19 3518   4.397   5.677   2.969  0.0314 -0.2779  0.4948
   48CHL1  H19A 3519   4.436   5.754   3.039  3.3072 -2.7270  1.6341
   48CHL1  H19B 3520   4.472   5.594   2.970 -0.9545 -1.1964  0.1917
   48CHL1  H19C 3521   4.413   5.715   2.866  0.0120  0.9274  0.9257
   48CHL1    C1 3522   4.222   5.515   2.902  0.2344 -0.0522  0.6439
   48CHL1   H1A 3523   4.313   5.456   2.877  0.1830 -0.5334  1.5733
   48CHL1   H1B 3524   4.137   5.452   2.933 -1.8973  1.9399 -0.8348
   48CHL1    C2 3525   4.169   5.564   2.767 -0.2717 -0.2108 -0.4747
   48CHL1   H2A 3526   4.122   5.474   2.722 -2.7212  0.6353  0.2511
   48CHL1   H2B 3527   4.245   5.596   2.692 -3.1006  3.2756 -2.1553
   48CHL1   C20 3528   4.485   5.404   3.646  0.3150  0.4136 -0.3807
   48CHL1   H20 3529   4.580   5.460   3.633  2.4372 -2.7342  0.3424
   48CHL1   C21 3530   4.496   5.263   3.581  0.3717  1.0892 -0.0407
   48CHL1  H21A 3531   4.562   5.259   3.492 -0.2532  0.9885 -0.5123
   48CHL1  H21B 3532   4.396   5.215   3.568  1.3628 -1.5565  1.2057
   48CHL1  H21C 3533   4.546   5.197   3.655  0.3630 -0.0093 -0.9793
   48CHL1   C22 3534   4.477   5.412   3.798  0.0859  0.6606  0.0818
   48CHL1  H22A 3535   4.564   5.364   3.848  0.3790 -0.5057 -1.4710
   48CHL1  H22B 3536   4.473   5.521   3.820 -0.8025  0.8894 -1.1253
   48CHL1   C23 3537   4.361   5.320   3.849 -0.5256  0.7913 -0.1161
   48CHL1  H23A 3538   4.260   5.344   3.810 -1.0337  0.4603  0.9626
   48CHL1  H23B 3539   4.382   5.216   3.815  1.9364  0.5277  1.9368
   48CHL1   C24 3540   4.341   5.312   4.003  0.0678 -0.3340 -0.0253
   48CHL1  H24A 3541   4.441   5.286   4.045  0.0828 -0.0880  0.0955
   48CHL1  H24B 3542   4.307   5.409   4.045  0.5008  0.6402 -1.8486
   48CHL1   C25 3543   4.236   5.204   4.039 -0.1549 -0.4843  0.5140
   48CHL1   H25 3544   4.223   5.216   4.148  0.8906  0.9977  0.5073
   48CHL1   C26 3545   4.101   5.234   3.978  0.1197  0.2515 -0.1893
   48CHL1  H26A 3546   4.083   5.344   3.985  0.5452  0.3224 -0.2218
   48CHL1  H26B 3547   4.102   5.206   3.870 -0.0913 -2.1547  0.3653
   48CHL1  H26C 3548   4.017   5.178   4.024  1.2819 -0.8104  0.6963
   48CHL1   C27 3549   4.277   5.057   4.015  0.5629  0.3683 -0.2802
   48CHL1  H27A 3550   4.388   5.051   4.011  0.4671 -2.7474 -2.6770
   48CHL1  H27B 3551   4.233   4.985   4.087  0.7943 -1.4665 -1.8905
   48CHL1  H27C 3552   4.251   5.024   3.912  1.9602 -0.0278 -0.5359
   49CHL1    C3 3553   1.427   5.821   3.163  0.0463  0.7733 -0.2113
   49CHL1    H3 3554   1.442   5.929   3.183  0.5674  0.1342  3.6447
   49CHL1    O3 3555   1.454   5.798   3.022  0.3952 -0.5962  0.3374
   49CHL1   H3' 3556   1.445   5.705   3.002 -0.6445 -0.5111  0.3503
   49CHL1    C4 3557   1.524   5.730   3.249  0.4456 -0.0896 -0.0361
   49CHL1   H4A 3558   1.517   5.626   3.211 -0.1553 -0.1552  0.2399
   49CHL1   H4B 3559   1.626   5.770   3.231  0.9028 -1.7132 -1.3852
   49CHL1    C5 3560   1.487   5.716   3.394  0.0868  0.1742  0.5880
   49CHL1    C6 3561   1.573   5.749   3.484  0.3006 -0.1033  0.0816
   49CHL1    H6 3562   1.674   5.771   3.446  0.1611 -1.6038 -1.2595
   49CHL1    C7 3563   1.563   5.723   3.626 -0.2728 -0.2487 -0.7048
   49CHL1   H7A 3564   1.656   5.672   3.660 -0.7651 -0.3287  0.6021
   49CHL1   H7B 3565   1.563   5.819   3.683  0.4065 -1.8906  2.3039
   49CHL1    C8 3566   1.441   5.627   3.657 -0.1958 -0.4609  0.2026
   49CHL1    H8 3567   1.463   5.523   3.622 -1.7338 -0.3384 -1.3020
   49CHL1   C14 3568   1.403   5.624   3.807  0.2665  0.3794 -0.0533
   49CHL1   H14 3569   1.363   5.727   3.817  1.7653  0.9936 -0.0807
   49CHL1   C15 3570   1.510   5.618   3.922  0.0649 -0.2776  0.2412
   49CHL1  H15A 3571   1.588   5.546   3.889  0.5353  0.8047 -1.1160
   49CHL1  H15B 3572   1.547   5.723   3.928 -0.9794  0.0223  1.8400
   49CHL1   C16 3573   1.429   5.565   4.036 -0.3132 -0.0746 -0.3663
   49CHL1  H16A 3574   1.458   5.461   4.059 -0.1062 -0.0105 -0.3405
   49CHL1  H16B 3575   1.432   5.626   4.129  1.9544 -0.7438  0.0585
   49CHL1   C17 3576   1.280   5.558   3.996 -1.2906  0.0226  0.3264
   49CHL1   H17 3577   1.247   5.664   4.000  0.3358  0.6304 -1.0777
   49CHL1   C13 3578   1.286   5.536   3.847  0.3808 -0.5339  0.4923
   49CHL1   C18 3579   1.309   5.388   3.810 -0.4471  0.0172 -0.9150
   49CHL1  H18A 3580   1.351   5.379   3.707  0.8499  0.3119 -0.4259
   49CHL1  H18B 3581   1.382   5.344   3.881 -0.3334  1.1956 -0.2924
   49CHL1  H18C 3582   1.210   5.340   3.822  0.5723 -1.9066  0.4724
   49CHL1   C12 3583   1.156   5.589   3.772 -0.2042  0.1375  0.2353
   49CHL1  H12A 3584   1.079   5.510   3.788 -1.9425  1.6266 -0.4027
   49CHL1  H12B 3585   1.128   5.686   3.819  1.0809  1.0262 -0.7557
   49CHL1   C11 3586   1.180   5.596   3.621 -0.6818  0.2251 -0.2623
   49CHL1  H11A 3587   1.190   5.490   3.591  0.7400  0.0266  0.8544
   49CHL1  H11B 3588   1.093   5.649   3.577 -0.1948 -0.0290 -1.5886
   49CHL1    C9 3589   1.314   5.671   3.575  0.4486 -0.2894 -0.0554
   49CHL1    H9 3590   1.297   5.776   3.606 -1.4229 -0.7133  0.4319
   49CHL1   C10 3591   1.347   5.668   3.417  0.4853 -0.4898  0.1397
   49CHL1   C19 3592   1.338   5.517   3.372 -0.5843  0.3374  0.0790
   49CHL1  H19A 3593   1.233   5.482   3.387 -0.4526  0.0747  0.4203
   49CHL1  H19B 3594   1.350   5.501   3.263 -2.8304 -0.2406 -0.1498
   49CHL1  H19C 3595   1.412   5.459   3.431 -0.2542  0.9298  0.2507
   49CHL1    C1 3596   1.258   5.771   3.340 -0.2984  0.4955  0.1204
   49CHL1   H1A 3597   1.150   5.749   3.353 -0.0289 -1.0153 -0.0556
   49CHL1   H1B 3598   1.279   5.875   3.375 -0.2207  0.4109  0.3217
   49CHL1    C2 3599   1.282   5.778   3.184  0.2407  0.0225  0.1281
   49CHL1   H2A 3600   1.215   5.853   3.136 -0.4555 -0.1416  0.8267
   49CHL1   H2B 3601   1.267   5.672   3.155  2.5553 -2.0131  5.1213
   49CHL1   C20 3602   1.186   5.467   4.080 -0.1466 -0.1768 -0.1873
   49CHL1   H20 3603   1.164   5.376   4.021  0.1918  0.6378 -1.6344
   49CHL1   C21 3604   1.055   5.546   4.093 -0.1160  0.3590  0.4263
   49CHL1  H21A 3605   1.011   5.553   3.992 -0.3689 -0.2280  0.4872
   49CHL1  H21B 3606   1.074   5.646   4.137 -0.2634 -0.2033  1.8369
   49CHL1  H21C 3607   0.982   5.498   4.162 -1.3316  2.5268  0.7144
   49CHL1   C22 3608   1.241   5.437   4.223 -0.4599 -0.2982  0.2983
   49CHL1  H22A 3609   1.336   5.388   4.191  0.3333  1.1353  0.3365
   49CHL1  H22B 3610   1.277   5.529   4.275  1.8076 -0.6385 -0.5236
   49CHL1   C23 3611   1.159   5.331   4.295 -0.2168 -0.0375  0.5722
   49CHL1  H23A 3612   1.104   5.370   4.384  0.4155 -0.0558  0.9738
   49CHL1  H23B 3613   1.091   5.285   4.220  1.9094 -0.6133 -1.0792
   49CHL1   C24 3614   1.252   5.217   4.347 -0.5344 -0.5479 -0.1321
   49CHL1  H24A 3615   1.254   5.130   4.279  0.2739  0.8196 -1.9345
   49CHL1  H24B 3616   1.357   5.253   4.348 -1.2185  1.5976  0.8463
   49CHL1   C25 3617   1.236   5.164   4.492 -0.3042  0.1801 -0.6473
   49CHL1   H25 3618   1.133   5.124   4.499 -0.7304  1.4440  1.0814
   49CHL1   C26 3619   1.333   5.051   4.529  0.1519  0.7333  0.4070
   49CHL1  H26A 3620   1.355   4.987   4.441 -1.4651 -0.6886  0.9798
   49CHL1  H26B 3621   1.426   5.090   4.575  1.1541 -1.5340  0.4126
   49CHL1  H26C 3622   1.286   4.987   4.607  0.1186  0.4584  0.1623
   49CHL1   C27 3623   1.255   5.273   4.597 -0.3594 -0.7107 -0.8494
   49CHL1  H27A 3624   1.228   5.233   4.697 -2.5657 -0.5336 -1.3144
   49CHL1  H27B 3625   1.365   5.287   4.600 -0.0030 -3.2389 -0.7191
   49CHL1  H27C 3626   1.208   5.373   4.581  0.3113 -0.5794 -2.1419
   50CHL1    C3 3627   0.260   0.119   2.944  0.1125  0.1248 -0.5291
   50CHL1    H3 3628   0.184   0.194   2.974  1.7635  1.3439  0.8642
   50CHL1    O3 3629   0.291   0.146   2.805 -0.5199 -0.0980  0.3651
   50CHL1   H3' 3630   0.373   0.196   2.800 -0.7518  0.4890  2.0229
   50CHL1    C4 3631   0.380   0.143   3.034 -0.0854 -0.3655 -0.2510
   50CHL1   H4A 3632   0.453   0.070   2.992  0.4755  0.9508 -1.6696
   50CHL1   H4B 3633   0.428   0.241   3.017  2.2101 -1.3108  0.3751
   50CHL1    C5 3634   0.348   0.113   3.184 -0.3744 -0.1851  0.0935
   50CHL1    C6 3635   0.365   0.198   3.290  0.0527 -0.3146  0.0113
   50CHL1    H6 3636   0.410   0.298   3.281 -2.7567  1.0937  0.5409
   50CHL1    C7 3637   0.317   0.158   3.429 -0.5665  0.5160 -0.5982
   50CHL1   H7A 3638   0.393   0.209   3.493  0.8162  0.4770 -2.1315
   50CHL1   H7B 3639   0.221   0.206   3.457 -0.2514  1.9875 -1.8908
   50CHL1    C8 3640   0.309   0.007   3.452  0.2810 -0.5457 -0.4296
   50CHL1    H8 3641   0.414  -0.027   3.447  0.6967  0.7564 -0.9155
   50CHL1   C14 3642   0.242  -0.027   3.586  0.1439 -0.1073  0.8048
   50CHL1   H14 3643   0.139   0.013   3.586  0.2973  0.3086 -0.1568
   50CHL1   C15 3644   0.308   0.043   3.709 -0.4132 -0.1489  0.2541
   50CHL1  H15A 3645   0.419   0.050   3.706 -0.1913 -2.8524 -0.3209
   50CHL1  H15B 3646   0.262   0.143   3.722  0.2148  0.2496 -0.4970
   50CHL1   C16 3647   0.278  -0.046   3.830  0.0372 -0.5197  0.8286
   50CHL1  H16A 3648   0.373  -0.074   3.881  1.2031  1.4170 -0.1681
   50CHL1  H16B 3649   0.214   0.007   3.904 -0.6429 -0.1357 -0.0224
   50CHL1   C17 3650   0.211  -0.171   3.767 -0.1949  0.1988 -1.1444
   50CHL1   H17 3651   0.102  -0.152   3.764 -0.0129  1.3324 -1.1476
   50CHL1   C13 3652   0.248  -0.179   3.619  0.2406 -0.2341  0.8452
   50CHL1   C18 3653   0.389  -0.240   3.590  0.8251  0.2277  0.1207
   50CHL1  H18A 3654   0.401  -0.228   3.481 -2.9126 -0.0154 -0.4453
   50CHL1  H18B 3655   0.464  -0.186   3.653  0.0948 -1.2799  2.4399
   50CHL1  H18C 3656   0.375  -0.350   3.603  1.1430  0.2190  0.4262
   50CHL1   C12 3657   0.143  -0.228   3.519  0.3259  0.3266  0.3939
   50CHL1  H12A 3658   0.129  -0.338   3.527 -2.4670  0.4298 -1.4341
   50CHL1  H12B 3659   0.040  -0.197   3.550  0.1522 -1.1389  1.4219
   50CHL1   C11 3660   0.179  -0.197   3.367 -0.1048  1.0415 -0.1109
   50CHL1  H11A 3661   0.257  -0.268   3.332 -2.2849 -1.3002 -0.5054
   50CHL1  H11B 3662   0.095  -0.217   3.297 -0.4166  1.3811  0.1603
   50CHL1    C9 3663   0.224  -0.052   3.344  0.1334 -0.1597 -0.7442
   50CHL1    H9 3664   0.132   0.010   3.346  0.8231  0.8736  1.1425
   50CHL1   C10 3665   0.285  -0.028   3.203 -0.0381 -0.2671 -0.8118
   50CHL1   C19 3666   0.402  -0.132   3.181 -0.4249 -0.4131  0.4468
   50CHL1  H19A 3667   0.369  -0.239   3.180 -1.0161 -0.2946  2.4117
   50CHL1  H19B 3668   0.443  -0.124   3.078 -2.3637  0.5423 -0.3076
   50CHL1  H19C 3669   0.474  -0.128   3.265  0.6970 -1.1740 -0.4557
   50CHL1    C1 3670   0.173  -0.059   3.102  0.1467 -0.2581  0.2450
   50CHL1   H1A 3671   0.141  -0.165   3.096  1.2697 -0.6757  1.2972
   50CHL1   H1B 3672   0.082   0.001   3.124 -1.0299 -2.1506  0.7224
   50CHL1    C2 3673   0.211  -0.026   2.957  0.0627 -0.7651  0.4627
   50CHL1   H2A 3674   0.127  -0.043   2.886 -1.2388  0.6756  1.5803
   50CHL1   H2B 3675   0.304  -0.075   2.922 -0.7961 -1.2589 -1.2267
   50CHL1   C20 3676   0.241  -0.293   3.854  0.7679 -0.2783 -0.2794
   50CHL1   H20 3677   0.345  -0.331   3.844  0.7077 -0.1926 -1.2805
   50CHL1   C21 3678   0.161  -0.422   3.807  0.2899 -0.4983 -0.5062
   50CHL1  H21A 3679   0.229  -0.469   3.733 -1.0651 -2.8314 -0.4060
   50CHL1  H21B 3680   0.069  -0.392   3.751 -1.8600 -2.0244  1.9506
   50CHL1  H21C 3681   0.135  -0.492   3.890 -0.4790 -1.2443 -1.3451
   50CHL1   C22 3682   0.218  -0.277   4.005  1.1908 -0.6285 -0.6639
   50CHL1  H22A 3683   0.227  -0.376   4.055  3.0769  0.0927  0.5382
   50CHL1  H22B 3684   0.299  -0.213   4.045  0.5231  0.5660 -1.1744
   50CHL1   C23 3685   0.074  -0.231   4.035 -0.4264  0.2781 -0.6736
   50CHL1  H23A 3686   0.060  -0.121   4.025 -1.9442  0.4532  2.3056
   50CHL1  H23B 3687   0.006  -0.290   3.971 -2.2283 -0.1003  1.4866
   50CHL1   C24 3688   0.048  -0.259   4.179  0.0670 -0.5191  0.3455
   50CHL1  H24A 3689   0.077  -0.363   4.205 -1.9597 -1.1542  0.2712
   50CHL1  H24B 3690   0.111  -0.198   4.247 -0.1103  0.4374 -0.3246
   50CHL1   C25 3691  -0.102  -0.245   4.238 -0.6895  0.3868  0.6639
   50CHL1   H25 3692  -0.166  -0.330   4.206 -1.1818  1.0658 -0.1952
   50CHL1   C26 3693  -0.100  -0.236   4.396  0.1201  0.8414 -0.4565
   50CHL1  H26A 3694  -0.198  -0.218   4.445 -0.1787 -0.5223 -0.5040
   50CHL1  H26B 3695  -0.074  -0.334   4.441 -0.5626  0.6045 -0.5702
   50CHL1  H26C 3696  -0.020  -0.168   4.431 -0.1793  1.4428 -0.9163
   50CHL1   C27 3697  -0.173  -0.124   4.175  0.3481  0.0083 -0.1158
   50CHL1  H27A 3698  -0.263  -0.093   4.233 -0.1232  1.3474 -1.4849
   50CHL1  H27B 3699  -0.110  -0.033   4.175  1.0061 -0.4429 -0.4001
   50CHL1  H27C 3700  -0.209  -0.147   4.072  0.1937 -0.0617 -0.0469
   51CHL1    C3 3701   2.226   4.788   2.954 -0.1082 -0.2351  0.6920
   51CHL1    H3 3702   2.290   4.877   2.975  1.1895 -1.2537  1.2613
   51CHL1    O3 3703   2.186   4.794   2.821  0.3186  0.7403 -0.0612
   51CHL1   H3' 3704   2.156   4.703   2.812  2.1392 -0.1642  1.9569
   51CHL1    C4 3705   2.296   4.658   2.990 -0.0993 -0.1771 -0.4267
   51CHL1   H4A 3706   2.236   4.575   2.947 -0.2901  0.4050 -1.3263
   51CHL1   H4B 3707   2.388   4.654   2.927 -1.8635 -2.0155 -3.0900
   51CHL1    C5 3708   2.334   4.639   3.136 -0.0005  0.2215 -0.3334
   51CHL1    C6 3709   2.451   4.612   3.182 -0.1252 -0.2512  0.5052
   51CHL1    H6 3710   2.529   4.601   3.105 -0.7846  2.0307 -0.5802
   51CHL1    C7 3711   2.491   4.594   3.325 -0.3392  0.1481  0.1588
   51CHL1   H7A 3712   2.559   4.508   3.339  0.7833  1.2106  1.6904
   51CHL1   H7B 3713   2.539   4.692   3.349  2.3328 -0.7286 -1.1912
   51CHL1    C8 3714   2.373   4.559   3.412 -0.3172 -0.0108  0.2838
   51CHL1    H8 3715   2.351   4.452   3.392  0.7622 -0.2224  0.1880
   51CHL1   C14 3716   2.410   4.576   3.558 -0.3091  0.0619 -0.0945
   51CHL1   H14 3717   2.433   4.685   3.566 -1.4709  0.3038  0.1142
   51CHL1   C15 3718   2.528   4.500   3.618 -0.5909  0.0276 -0.3955
   51CHL1  H15A 3719   2.522   4.392   3.591  2.2559  0.1257 -1.8203
   51CHL1  H15B 3720   2.624   4.553   3.597 -1.2242  0.9675 -0.9537
   51CHL1   C16 3721   2.505   4.531   3.769 -0.1827 -0.9079  0.1728
   51CHL1  H16A 3722   2.503   4.433   3.822 -1.3481 -2.0138 -1.7650
   51CHL1  H16B 3723   2.591   4.585   3.812 -1.5035  2.0055 -0.5988
   51CHL1   C17 3724   2.375   4.607   3.787 -0.0968  0.9472  0.0114
   51CHL1   H17 3725   2.401   4.714   3.773 -2.9225  1.5057 -1.7874
   51CHL1   C13 3726   2.299   4.567   3.662  0.3151  0.2760 -0.2575
   51CHL1   C18 3727   2.252   4.416   3.680 -0.3568  1.1155  0.6091
   51CHL1  H18A 3728   2.152   4.419   3.728  0.4775  0.1476  2.5346
   51CHL1  H18B 3729   2.241   4.355   3.589  1.6833 -0.9329  1.6407
   51CHL1  H18C 3730   2.318   4.366   3.755  0.7665  0.6831 -0.6387
   51CHL1   C12 3731   2.176   4.654   3.623  0.3366 -0.0005 -0.0846
   51CHL1  H12A 3732   2.095   4.628   3.695  0.5236 -0.9791 -0.2082
   51CHL1  H12B 3733   2.201   4.758   3.653 -1.1293  0.1575  0.6796
   51CHL1   C11 3734   2.128   4.635   3.482  0.6057  0.0416  0.6216
   51CHL1  H11A 3735   2.096   4.530   3.469 -0.0584  0.2571  0.5017
   51CHL1  H11B 3736   2.047   4.703   3.449  0.8805 -0.5534 -1.4342
   51CHL1    C9 3737   2.250   4.651   3.381 -0.0089 -0.3806  0.5142
   51CHL1    H9 3738   2.294   4.750   3.404 -1.2876 -0.0197  1.5438
   51CHL1   C10 3739   2.215   4.663   3.228 -0.4337  0.7967  0.1326
   51CHL1   C19 3740   2.117   4.544   3.205 -0.1465  0.4585 -0.1852
   51CHL1  H19A 3741   2.017   4.555   3.251 -1.8826  0.5962 -3.6340
   51CHL1  H19B 3742   2.090   4.527   3.098  0.2302 -0.0439 -0.2082
   51CHL1  H19C 3743   2.156   4.446   3.241 -3.1556 -0.4338  0.9379
   51CHL1    C1 3744   2.136   4.787   3.196 -0.2929  0.5137  0.8618
   51CHL1   H1A 3745   2.046   4.804   3.259  1.3925  0.8739  3.3321
   51CHL1   H1B 3746   2.209   4.865   3.225  0.8010 -0.1322 -0.0624
   51CHL1    C2 3747   2.092   4.796   3.046  0.1218 -0.0415 -0.3493
   51CHL1   H2A 3748   2.057   4.897   3.016 -0.0681  0.2992  0.9507
   51CHL1   H2B 3749   2.019   4.714   3.028  1.1508 -1.4471  1.4940
   51CHL1   C20 3750   2.295   4.596   3.921  0.0888 -0.1060  0.2028
   51CHL1   H20 3751   2.218   4.517   3.910 -0.8174  0.5414  1.5139
   51CHL1   C21 3752   2.225   4.736   3.941 -0.0015  0.4793 -0.4636
   51CHL1  H21A 3753   2.123   4.742   3.897  0.5297 -0.3194 -1.8467
   51CHL1  H21B 3754   2.268   4.824   3.889 -1.5478  0.8797 -1.1412
   51CHL1  H21C 3755   2.220   4.751   4.052 -1.2276  0.7400 -0.5330
   51CHL1   C22 3756   2.385   4.563   4.044 -0.0530  0.7590  0.6009
   51CHL1  H22A 3757   2.439   4.470   4.016 -1.4525  0.5754 -1.7077
   51CHL1  H22B 3758   2.452   4.645   4.075  2.2484 -1.8651  3.2638
   51CHL1   C23 3759   2.307   4.529   4.169 -0.3657  0.6885 -0.2035
   51CHL1  H23A 3760   2.262   4.620   4.215 -2.3366 -0.8518  1.0388
   51CHL1  H23B 3761   2.216   4.475   4.136 -0.6842  0.1185  1.5405
   51CHL1   C24 3762   2.371   4.455   4.283  0.0479  0.4082 -0.0655
   51CHL1  H24A 3763   2.434   4.369   4.252 -0.1582 -0.2422  1.2524
   51CHL1  H24B 3764   2.450   4.520   4.328 -0.9903  1.4535  0.2872
   51CHL1   C25 3765   2.289   4.412   4.414 -0.2873 -0.6533 -0.0221
   51CHL1   H25 3766   2.215   4.337   4.379  0.0042 -0.6716 -0.6082
   51CHL1   C26 3767   2.374   4.339   4.508 -0.2304  0.5550 -1.0667
   51CHL1  H26A 3768   2.307   4.279   4.574 -0.6224  1.7353 -0.3523
   51CHL1  H26B 3769   2.435   4.262   4.456 -0.5209 -1.0618  0.8637
   51CHL1  H26C 3770   2.448   4.395   4.568  1.8375 -0.6704 -2.3515
   51CHL1   C27 3771   2.216   4.530   4.476  0.3174  0.0253  0.1457
   51CHL1  H27A 3772   2.133   4.562   4.410 -0.9155 -2.0876  0.5692
   51CHL1  H27B 3773   2.165   4.511   4.573  1.1718  1.2481  0.8660
   51CHL1  H27C 3774   2.289   4.611   4.495  0.0730  0.6846 -1.6117
   52CHL1    C3 3775   2.385   1.003   3.148 -0.3043 -0.4306 -0.1663
   52CHL1    H3 3776   2.411   1.099   3.198 -3.8577  0.7693 -0.3278
   52CHL1    O3 3777   2.422   0.990   3.014  0.2945 -0.0525  0.0984
   52CHL1   H3' 3778   2.378   0.911   2.983 -0.2050  1.7822 -4.5685
   52CHL1    C4 3779   2.437   0.884   3.237 -0.4098  0.7171 -0.0012
   52CHL1   H4A 3780   2.430   0.795   3.172  2.3417  1.0968 -0.9318
   52CHL1   H4B 3781   2.546   0.902   3.245 -0.7836  3.0623  0.7722
   52CHL1    C5 3782   2.389   0.882   3.379 -0.4841  0.1103 -0.2595
   52CHL1    C6 3783   2.481   0.876   3.484 -0.0233 -0.1843 -0.1382
   52CHL1    H6 3784   2.591   0.878   3.474  0.3602 -0.9918  2.8288
   52CHL1    C7 3785   2.429   0.883   3.628  0.0668  0.0855  0.5589
   52CHL1   H7A 3786   2.477   0.802   3.688  0.1618  0.7897  1.4631
   52CHL1   H7B 3787   2.462   0.977   3.678  2.3499  0.1567 -0.9508
   52CHL1    C8 3788   2.282   0.862   3.635 -0.3240 -0.9118 -0.6289
   52CHL1    H8 3789   2.255   0.754   3.630  0.9191 -1.2641 -0.2219
   52CHL1   C14 3790   2.233   0.916   3.776 -0.0356  0.5793  0.0718
   52CHL1   H14 3791   2.249   1.026   3.785  1.5039  0.4560 -0.6910
   52CHL1   C15 3792   2.313   0.857   3.894  0.0048 -0.0741 -0.1009
   52CHL1  H15A 3793   2.358   0.757   3.873 -0.1263 -0.0845 -0.3352
   52CHL1  H15B 3794   2.396   0.924   3.927 -1.6208  1.4075  1.1296
   52CHL1   C16 3795   2.202   0.851   4.005 -0.4646  0.2367 -0.2399
   52CHL1  H16A 3796   2.199   0.742   4.030  1.9172 -0.5675 -2.9271
   52CHL1  H16B 3797   2.242   0.906   4.093 -0.0632  1.3625 -1.1124
   52CHL1   C17 3798   2.068   0.911   3.949  0.6823 -0.4864 -0.3195
   52CHL1   H17 3799   2.060   1.022   3.958 -1.9276 -0.4256 -2.0479
   52CHL1   C13 3800   2.085   0.886   3.795  0.2991  0.2037 -0.0471
   52CHL1   C18 3801   2.049   0.731   3.769  0.4768  0.1800  0.8952
   52CHL1  H18A 3802   2.106   0.675   3.847  2.4956  0.1698 -0.5069
   52CHL1  H18B 3803   1.940   0.721   3.785  0.2379  1.4079  0.1619
   52CHL1  H18C 3804   2.073   0.687   3.670 -3.5828 -1.5840  0.4961
   52CHL1   C12 3805   2.006   0.976   3.702  0.7301  0.3656 -0.1627
   52CHL1  H12A 3806   1.899   0.944   3.706  1.0500 -0.7251  0.0703
   52CHL1  H12B 3807   2.020   1.083   3.728 -0.7550  1.3585 -3.0557
   52CHL1   C11 3808   2.041   0.938   3.555  0.3579 -0.7855 -0.0466
   52CHL1  H11A 3809   2.001   0.835   3.548  0.8836 -0.9405 -0.9696
   52CHL1  H11B 3810   1.990   1.014   3.493 -0.5098 -1.2558  0.0726
   52CHL1    C9 3811   2.194   0.931   3.533 -0.2125  0.3850  0.5919
   52CHL1    H9 3812   2.227   1.037   3.541 -0.9750  0.6498  0.2944
   52CHL1   C10 3813   2.239   0.885   3.393  0.3449 -0.2548  0.0783
   52CHL1   C19 3814   2.171   0.749   3.357 -0.5937 -0.7849 -0.5219
   52CHL1  H19A 3815   2.192   0.671   3.434 -0.2365 -0.4107 -0.2358
   52CHL1  H19B 3816   2.062   0.761   3.345 -0.2358  2.9213 -1.0147
   52CHL1  H19C 3817   2.219   0.723   3.260  0.1476 -0.5989 -0.2115
   52CHL1    C1 3818   2.191   0.999   3.301  1.0048 -0.4111 -0.5591
   52CHL1   H1A 3819   2.080   0.996   3.304  1.0497 -1.6759  1.6443
   52CHL1   H1B 3820   2.224   1.096   3.343 -0.4032  0.4534 -1.3418
   52CHL1    C2 3821   2.237   0.995   3.153  0.0942 -0.3021 -0.1759
   52CHL1   H2A 3822   2.185   1.082   3.108 -0.3759 -0.3165  0.3246
   52CHL1   H2B 3823   2.197   0.906   3.101  0.6488 -0.5063 -0.2597
   52CHL1   C20 3824   1.952   0.850   4.019  0.5858 -0.1994  0.1989
   52CHL1   H20 3825   1.967   0.742   3.998 -0.0147  0.0284 -1.6324
   52CHL1   C21 3826   1.814   0.897   3.963 -0.6215  0.0831  0.1007
   52CHL1  H21A 3827   1.798   0.848   3.865  0.3749  0.6500 -0.3692
   52CHL1  H21B 3828   1.820   1.007   3.945  2.1535  0.0068  0.1762
   52CHL1  H21C 3829   1.730   0.881   4.033  1.5017  0.9588  3.0485
   52CHL1   C22 3830   1.941   0.852   4.169  0.7039 -0.2203 -0.3583
   52CHL1  H22A 3831   1.850   0.793   4.197  0.2926  0.7633  0.4719
   52CHL1  H22B 3832   2.023   0.797   4.219  0.1824 -0.9915 -0.3310
   52CHL1   C23 3833   1.924   0.996   4.231  0.2749  0.2808 -0.2376
   52CHL1  H23A 3834   2.015   1.060   4.223 -1.9556  3.7704  0.2013
   52CHL1  H23B 3835   1.842   1.055   4.185 -1.1652 -2.1529 -0.9338
   52CHL1   C24 3836   1.877   1.001   4.380 -0.1093 -0.4529 -0.2580
   52CHL1  H24A 3837   1.772   0.965   4.383  0.3455 -1.8332  0.5085
   52CHL1  H24B 3838   1.938   0.925   4.434 -0.6890 -1.7089 -1.3091
   52CHL1   C25 3839   1.885   1.140   4.441  0.3882 -0.7578 -0.0485
   52CHL1   H25 3840   1.986   1.187   4.444 -1.2404  3.0530  0.2017
   52CHL1   C26 3841   1.805   1.240   4.353  0.3967 -0.3743  0.3148
   52CHL1  H26A 3842   1.785   1.333   4.410  0.1069 -0.7271  0.7917
   52CHL1  H26B 3843   1.857   1.266   4.258  4.5470 -0.3875  2.3739
   52CHL1  H26C 3844   1.708   1.192   4.326  0.0707 -0.7389  1.9951
   52CHL1   C27 3845   1.833   1.142   4.587  0.1782  0.0368  0.6064
   52CHL1  H27A 3846   1.727   1.111   4.585  0.0164  0.1724  3.1062
   52CHL1  H27B 3847   1.896   1.066   4.638 -1.0036 -1.5290 -0.2150
   52CHL1  H27C 3848   1.846   1.244   4.630  1.5271 -0.1540  0.7112
   53CHL1    C3 3849   0.807   5.804   2.907  0.1321  0.1549  0.0802
   53CHL1    H3 3850   0.850   5.702   2.903  1.3005  0.6801 -1.4342
   53CHL1    O3 3851   0.782   5.842   2.771  0.4503 -0.3667 -0.2797
   53CHL1   H3' 3852   0.864   5.847   2.722  0.8239  0.8655  0.4059
   53CHL1    C4 3853   0.664   5.790   2.979  0.1957 -0.1695 -0.1921
   53CHL1   H4A 3854   0.604   5.876   2.942  1.7597 -0.5396 -4.1077
   53CHL1   H4B 3855   0.617   5.695   2.946 -0.7664 -0.4031  1.7746
   53CHL1    C5 3856   0.667   5.777   3.127 -0.0853 -0.3738  1.0582
   53CHL1    C6 3857   0.592   5.681   3.188 -0.5145  1.1373  0.2810
   53CHL1    H6 3858   0.521   5.626   3.124 -1.9465  2.0658  1.0153
   53CHL1    C7 3859   0.592   5.656   3.331  0.4434  0.5413  0.5057
   53CHL1   H7A 3860   0.486   5.643   3.362 -0.3546  2.9466 -0.9835
   53CHL1   H7B 3861   0.663   5.572   3.345  3.3597  2.9855  1.2550
   53CHL1    C8 3862   0.652   5.776   3.407 -0.6830 -1.1210 -0.0448
   53CHL1    H8 3863   0.578   5.857   3.392 -0.7829 -0.8800  1.5614
   53CHL1   C14 3864   0.671   5.735   3.554 -0.0388 -0.2577  0.7483
   53CHL1   H14 3865   0.752   5.660   3.545  0.0132 -0.4225  2.3631
   53CHL1   C15 3866   0.553   5.666   3.631  0.9654 -0.5820  0.3807
   53CHL1  H15A 3867   0.462   5.714   3.590  2.2171 -0.3140 -2.2464
   53CHL1  H15B 3868   0.548   5.557   3.607 -1.7260 -0.6023  0.7151
   53CHL1   C16 3869   0.576   5.705   3.773  0.0592  0.0664 -0.0254
   53CHL1  H16A 3870   0.495   5.762   3.824  0.6253  0.0403  0.9459
   53CHL1  H16B 3871   0.578   5.613   3.835  0.8751  0.3980  0.4716
   53CHL1   C17 3872   0.710   5.781   3.784  0.1232 -0.2719  0.0798
   53CHL1   H17 3873   0.790   5.705   3.789  0.8379  0.4198 -0.6062
   53CHL1   C13 3874   0.726   5.846   3.642  0.3161 -0.6266  0.4964
   53CHL1   C18 3875   0.625   5.971   3.640  0.0550  0.3353 -0.3468
   53CHL1  H18A 3876   0.532   5.947   3.695 -0.1275 -1.5581 -1.4156
   53CHL1  H18B 3877   0.689   6.052   3.684 -0.5957  0.9727 -0.5574
   53CHL1  H18C 3878   0.601   6.004   3.537 -0.7421  2.6183  0.4992
   53CHL1   C12 3879   0.868   5.890   3.584  0.4184 -0.5711  0.0309
   53CHL1  H12A 3880   0.921   5.970   3.640  0.2783 -3.3659  4.6966
   53CHL1  H12B 3881   0.932   5.799   3.588  0.0688 -0.8087  0.3405
   53CHL1   C11 3882   0.853   5.942   3.439 -0.2404 -0.0076 -0.3113
   53CHL1  H11A 3883   0.803   6.040   3.426 -1.4647 -0.6757 -0.7617
   53CHL1  H11B 3884   0.955   5.951   3.394 -0.0041  0.8402  0.3747
   53CHL1    C9 3885   0.783   5.838   3.354  0.6979 -0.1394  0.5469
   53CHL1    H9 3886   0.862   5.759   3.346  0.0962 -0.7639  0.6742
   53CHL1   C10 3887   0.757   5.876   3.200  0.1319 -0.8506  0.1662
   53CHL1   C19 3888   0.704   6.022   3.186 -0.2841 -0.1674  0.1067
   53CHL1  H19A 3889   0.599   6.032   3.221 -1.7828 -1.7317 -3.4443
   53CHL1  H19B 3890   0.762   6.096   3.245  0.3163 -1.2303  0.9019
   53CHL1  H19C 3891   0.697   6.074   3.088  2.1075  0.1820  0.0714
   53CHL1    C1 3892   0.896   5.869   3.128 -0.3598 -0.2130  0.7381
   53CHL1   H1A 3893   0.963   5.934   3.189  0.4045 -0.0339 -0.2593
   53CHL1   H1B 3894   0.942   5.769   3.143  0.0773  0.2251  2.6295
   53CHL1    C2 3895   0.899   5.901   2.983  0.2112  0.5836 -0.5082
   53CHL1   H2A 3896   1.002   5.881   2.948  0.8307 -0.4448  1.7096
   53CHL1   H2B 3897   0.866   6.007   2.974 -0.3583  0.4437 -0.1798
   53CHL1   C20 3898   0.723   5.874   3.914 -0.6643 -0.0337  0.3922
   53CHL1   H20 3899   0.633   5.938   3.905 -0.3196  0.4200  0.1889
   53CHL1   C21 3900   0.855   5.957   3.920  0.5300  0.2834 -0.1850
   53CHL1  H21A 3901   0.847   6.042   3.991  1.9974  3.2661 -3.2940
   53CHL1  H21B 3902   0.882   6.008   3.825 -1.7488 -0.1033 -1.0948
   53CHL1  H21C 3903   0.943   5.896   3.949  0.7113  0.3470 -0.5917
   53CHL1   C22 3904   0.708   5.794   4.044 -0.6383 -0.6547 -0.3044
   53CHL1  H22A 3905   0.750   5.692   4.032  1.7293  0.2790 -0.4666
   53CHL1  H22B 3906   0.788   5.833   4.110  1.0372 -0.4164 -2.3408
   53CHL1   C23 3907   0.568   5.774   4.108  0.3933 -0.2292  0.1199
   53CHL1  H23A 3908   0.523   5.875   4.119  1.1625  0.0989  0.2718
   53CHL1  H23B 3909   0.492   5.725   4.042 -1.0660  0.4811  1.2254
   53CHL1   C24 3910   0.579   5.707   4.247 -0.6718 -0.3522  0.3814
   53CHL1  H24A 3911   0.627   5.608   4.228 -1.6390 -0.7574  0.0246
   53CHL1  H24B 3912   0.650   5.769   4.306  2.4038 -0.1341 -3.1118
   53CHL1   C25 3913   0.450   5.708   4.336 -0.4061 -0.1102  0.8754
   53CHL1   H25 3914   0.459   5.626   4.409  1.6004 -1.3638 -0.6623
   53CHL1   C26 3915   0.444   5.839   4.415 -0.1848 -0.0045  1.1240
   53CHL1  H26A 3916   0.532   5.849   4.483 -0.4003  2.8793  1.0847
   53CHL1  H26B 3917   0.452   5.930   4.352 -0.1613 -0.7066  0.0833
   53CHL1  H26C 3918   0.345   5.848   4.464 -1.4383 -2.3927 -0.7844
   53CHL1   C27 3919   0.321   5.674   4.254  0.4448 -0.5693  0.5365
   53CHL1  H27A 3920   0.281   5.756   4.191 -2.8573 -2.0273  0.5146
   53CHL1  H27B 3921   0.345   5.593   4.183 -0.6087  0.0603 -0.5679
   53CHL1  H27C 3922   0.236   5.630   4.311 -1.0722  1.7810  0.2646
   54CHL1    C3 3923   2.335   5.319   2.912  0.0648  0.1066  0.4205
   54CHL1    H3 3924   2.431   5.369   2.937 -0.7880  1.5717  0.8941
   54CHL1    O3 3925   2.304   5.311   2.766 -0.0299 -0.5480 -0.1419
   54CHL1   H3' 3926   2.218   5.269   2.754 -0.0119  0.1558 -4.2183
   54CHL1    C4 3927   2.351   5.171   2.954 -0.0653  0.6335 -0.0533
   54CHL1   H4A 3928   2.268   5.112   2.911  1.1834 -0.3251 -1.2526
   54CHL1   H4B 3929   2.445   5.134   2.907  0.2097  1.7739 -0.4557
   54CHL1    C5 3930   2.363   5.143   3.102  0.2131  0.3805 -0.4167
   54CHL1    C6 3931   2.461   5.067   3.148 -0.1316 -0.5515  0.0540
   54CHL1    H6 3932   2.513   5.017   3.065  0.0131  1.0755 -0.8801
   54CHL1    C7 3933   2.476   5.031   3.295 -0.5464  0.2949 -0.3186
   54CHL1   H7A 3934   2.480   4.922   3.319 -1.8043  0.7061  2.0972
   54CHL1   H7B 3935   2.577   5.061   3.330 -2.0819  1.4929  3.6281
   54CHL1    C8 3936   2.376   5.091   3.395 -0.4233  0.5581 -0.1608
   54CHL1    H8 3937   2.289   5.022   3.406  1.0653 -1.1801  1.2193
   54CHL1   C14 3938   2.436   5.109   3.534  0.2282  0.2175  0.4316
   54CHL1   H14 3939   2.526   5.175   3.530  0.5862 -0.1353  1.8484
   54CHL1   C15 3940   2.500   4.984   3.601  0.3416 -0.2109 -0.1978
   54CHL1  H15A 3941   2.425   4.902   3.595 -0.4415  0.1379  2.9492
   54CHL1  H15B 3942   2.602   4.955   3.566  1.3312  2.3405  0.3888
   54CHL1   C16 3943   2.495   5.025   3.749  0.4641  0.6690 -0.1879
   54CHL1  H16A 3944   2.456   4.942   3.811  2.0518  1.4404  1.9550
   54CHL1  H16B 3945   2.598   5.043   3.787  0.5950  0.6183 -0.5160
   54CHL1   C17 3946   2.412   5.156   3.757 -0.2893  0.6746 -0.6185
   54CHL1   H17 3947   2.494   5.230   3.746  0.0397  0.6108  1.0652
   54CHL1   C13 3948   2.333   5.164   3.629  0.3075  1.5113 -0.8602
   54CHL1   C18 3949   2.211   5.062   3.657 -1.0081 -0.7308 -0.3333
   54CHL1  H18A 3950   2.148   5.114   3.733  2.2339  0.5729  1.7335
   54CHL1  H18B 3951   2.159   5.044   3.561  0.7315 -0.0867 -1.4567
   54CHL1  H18C 3952   2.247   4.970   3.708  0.3198  0.9737  2.0224
   54CHL1   C12 3953   2.285   5.297   3.588 -0.1431  0.0589  0.0582
   54CHL1  H12A 3954   2.211   5.337   3.661 -0.9488 -0.0076 -0.6978
   54CHL1  H12B 3955   2.371   5.367   3.582  0.8031 -1.1233 -0.4325
   54CHL1   C11 3956   2.225   5.290   3.453  0.2290 -0.5391 -0.6482
   54CHL1  H11A 3957   2.126   5.239   3.458  0.3082 -1.0410 -2.9825
   54CHL1  H11B 3958   2.204   5.395   3.425  0.9199 -0.1997  0.0534
   54CHL1    C9 3959   2.322   5.231   3.349  1.0481 -0.0491  0.5010
   54CHL1    H9 3960   2.410   5.299   3.349 -0.2482  1.7174 -0.2910
   54CHL1   C10 3961   2.266   5.222   3.199  0.2494 -0.7048  0.5529
   54CHL1   C19 3962   2.129   5.152   3.200  1.1048  0.0682 -0.1335
   54CHL1  H19A 3963   2.049   5.204   3.258  1.9056  1.3321 -0.1214
   54CHL1  H19B 3964   2.102   5.131   3.095  1.6881 -2.0777  0.1011
   54CHL1  H19C 3965   2.132   5.048   3.240  1.5538  0.2551  0.3298
   54CHL1    C1 3966   2.244   5.369   3.135 -0.5277 -0.4608  0.5108
   54CHL1   H1A 3967   2.178   5.424   3.206  1.3377  0.9891  1.2239
   54CHL1   H1B 3968   2.345   5.415   3.146  0.4459 -2.0346 -1.3193
   54CHL1    C2 3969   2.215   5.382   2.982 -0.2879 -0.2252 -0.4262
   54CHL1   H2A 3970   2.186   5.486   2.953  2.1415  0.0112 -2.2895
   54CHL1   H2B 3971   2.117   5.331   2.966 -0.2183  0.0424 -1.9094
   54CHL1   C20 3972   2.356   5.168   3.902  0.4327 -0.2865 -0.7348
   54CHL1   H20 3973   2.252   5.128   3.897  0.1211  0.3143  0.4503
   54CHL1   C21 3974   2.343   5.321   3.914  0.9935  0.4485 -0.0721
   54CHL1  H21A 3975   2.438   5.363   3.952  0.3314  1.1903  0.7893
   54CHL1  H21B 3976   2.254   5.356   3.971 -0.9229  1.2012 -3.2131
   54CHL1  H21C 3977   2.322   5.371   3.817 -0.0919  1.0152  0.4297
   54CHL1   C22 3978   2.430   5.111   4.028  0.2829  0.7072 -1.3598
   54CHL1  H22A 3979   2.422   5.000   4.023 -0.4491  0.6259  0.7951
   54CHL1  H22B 3980   2.540   5.128   4.030  0.2264  1.0745 -1.2678
   54CHL1   C23 3981   2.371   5.142   4.169  0.2415  0.0110 -0.2668
   54CHL1  H23A 3982   2.429   5.083   4.243 -0.3593  1.7286  1.6884
   54CHL1  H23B 3983   2.405   5.244   4.196  1.7990 -0.8265  1.1497
   54CHL1   C24 3984   2.219   5.127   4.186  0.1666 -0.2331  0.6802
   54CHL1  H24A 3985   2.159   5.194   4.122 -1.3581 -1.7860  0.4170
   54CHL1  H24B 3986   2.184   5.024   4.164  0.7930 -0.2295 -0.4364
   54CHL1   C25 3987   2.190   5.180   4.331 -0.3223 -0.0366  0.6434
   54CHL1   H25 3988   2.275   5.161   4.399 -0.2579 -2.2066  0.0125
   54CHL1   C26 3989   2.171   5.331   4.329  0.3793 -0.3153  0.0409
   54CHL1  H26A 3990   2.145   5.366   4.431 -1.1888 -1.1502 -0.0374
   54CHL1  H26B 3991   2.263   5.382   4.294 -0.8535  1.3500 -0.8863
   54CHL1  H26C 3992   2.083   5.365   4.270 -0.1966  0.9257  1.5387
   54CHL1   C27 3993   2.071   5.114   4.403  0.4243  0.0019  0.3554
   54CHL1  H27A 3994   2.074   5.130   4.513  0.8805 -2.5211  0.7717
   54CHL1  H27B 3995   1.971   5.153   4.374  1.2864  1.7728 -0.4217
   54CHL1  H27C 3996   2.078   5.004   4.387  1.6090 -0.1469  1.6127
   55CHL1    C3 3997   5.679   0.068   2.958 -0.1370  0.2140  0.7349
   55CHL1    H3 3998   5.654  -0.039   2.976  1.1275 -0.1618  0.3899
   55CHL1    O3 3999   5.680   0.095   2.821  0.1484  0.0983 -0.0380
   55CHL1   H3' 4000   5.612   0.157   2.795 -0.3345 -0.7845 -0.9753
   55CHL1    C4 4001   5.566   0.150   3.029 -0.0874  0.3538 -0.3530
   55CHL1   H4A 4002   5.574   0.259   3.006  0.1767  0.0220 -1.9215
   55CHL1   H4B 4003   5.468   0.111   2.994  0.4803 -1.3896 -0.0819
   55CHL1    C5 4004   5.581   0.135   3.183 -0.1765 -0.0639  0.0817
   55CHL1    C6 4005   5.488   0.094   3.269  0.2938  0.7285 -0.0079
   55CHL1    H6 4006   5.386   0.072   3.234  0.8129 -0.5490 -0.7909
   55CHL1    C7 4007   5.483   0.090   3.418 -0.0437  0.5969  0.0357
   55CHL1   H7A 4008   5.395   0.130   3.474 -0.3856 -2.5943  1.9959
   55CHL1   H7B 4009   5.487  -0.020   3.435  0.8509  0.6291  0.0589
   55CHL1    C8 4010   5.611   0.157   3.477 -0.3126  0.5034  0.0122
   55CHL1    H8 4011   5.590   0.265   3.470 -1.2415  0.4554  1.6225
   55CHL1   C14 4012   5.623   0.111   3.625 -0.1883  0.4617  0.7348
   55CHL1   H14 4013   5.641   0.001   3.621  1.5368  0.6590  2.0965
   55CHL1   C15 4014   5.501   0.123   3.721  0.4231 -0.1511  0.0760
   55CHL1  H15A 4015   5.443   0.213   3.691  0.4178 -0.3651 -0.5730
   55CHL1  H15B 4016   5.438   0.033   3.704  2.5797 -1.2871 -2.8231
   55CHL1   C16 4017   5.559   0.141   3.859  0.3637  0.5927 -0.4644
   55CHL1  H16A 4018   5.547   0.242   3.903 -1.1010  0.6680 -1.0014
   55CHL1  H16B 4019   5.520   0.069   3.933  0.4370  1.3829  0.3600
   55CHL1   C17 4020   5.715   0.124   3.838  0.1978 -0.0642  0.4923
   55CHL1   H17 4021   5.720   0.014   3.833  1.2746  0.0014 -0.1759
   55CHL1   C13 4022   5.743   0.177   3.696  0.1828 -0.1553  0.5940
   55CHL1   C18 4023   5.717   0.330   3.688  0.0658 -0.2063 -0.0914
   55CHL1  H18A 4024   5.790   0.375   3.759 -0.4708 -0.7288  0.8069
   55CHL1  H18B 4025   5.737   0.386   3.594  0.4080 -0.1188  0.0322
   55CHL1  H18C 4026   5.614   0.361   3.713  0.3008  0.4369  0.1163
   55CHL1   C12 4027   5.873   0.141   3.619 -0.1673  0.2470 -0.4332
   55CHL1  H12A 4028   5.968   0.188   3.652  0.6185 -0.0031 -2.2299
   55CHL1  H12B 4029   5.886   0.031   3.623 -0.7875  0.1699 -0.3560
   55CHL1   C11 4030   5.863   0.187   3.473 -0.7165  0.3858 -0.0116
   55CHL1  H11A 4031   5.859   0.298   3.464 -2.0848  0.3121 -0.6853
   55CHL1  H11B 4032   5.954   0.148   3.424 -0.9576 -0.6237  0.3011
   55CHL1    C9 4033   5.735   0.128   3.394  0.0349  0.7539 -0.5376
   55CHL1    H9 4034   5.754   0.018   3.387  0.6568  0.7950  0.3792
   55CHL1   C10 4035   5.724   0.162   3.244  0.4934 -0.1462 -0.5654
   55CHL1   C19 4036   5.760   0.312   3.225  0.5670 -0.0915 -0.0298
   55CHL1  H19A 4037   5.758   0.347   3.120 -0.6387 -0.8717 -0.2814
   55CHL1  H19B 4038   5.682   0.370   3.278 -1.4824 -2.2720 -0.4666
   55CHL1  H19C 4039   5.859   0.335   3.272 -0.2810 -0.7684  2.2263
   55CHL1    C1 4040   5.828   0.074   3.181  0.0066  0.1128  0.3922
   55CHL1   H1A 4041   5.928   0.095   3.223 -0.3103 -0.0706  1.2592
   55CHL1   H1B 4042   5.812  -0.036   3.193  1.1870 -0.2935 -1.4187
   55CHL1    C2 4043   5.828   0.090   3.026  0.0799  0.2412 -0.1371
   55CHL1   H2A 4044   5.899   0.011   2.996  1.0772  0.4322  1.5810
   55CHL1   H2B 4045   5.874   0.188   3.000  0.3221  0.7190  1.9031
   55CHL1   C20 4046   5.808   0.164   3.951  0.2874  0.4158 -0.2367
   55CHL1   H20 4047   5.910   0.149   3.910 -0.0457 -1.7884 -0.4139
   55CHL1   C21 4048   5.794   0.053   4.060 -0.1171  0.5435  0.6487
   55CHL1  H21A 4049   5.691   0.039   4.098  0.5277 -0.4376  2.1096
   55CHL1  H21B 4050   5.852   0.071   4.153 -0.6528  0.7943  0.9379
   55CHL1  H21C 4051   5.815  -0.044   4.011 -0.4801  0.6469  0.2803
   55CHL1   C22 4052   5.788   0.297   4.019  0.4833 -0.5245 -0.1902
   55CHL1  H22A 4053   5.790   0.380   3.946  0.0298 -0.3714 -0.0313
   55CHL1  H22B 4054   5.690   0.300   4.071 -0.2815  0.2843 -1.6408
   55CHL1   C23 4055   5.907   0.333   4.111 -0.7595 -0.0419 -1.1818
   55CHL1  H23A 4056   5.934   0.256   4.186 -1.4463  1.4887  0.7204
   55CHL1  H23B 4057   5.997   0.334   4.045  1.6060 -0.0310  1.8250
   55CHL1   C24 4058   5.878   0.467   4.179 -0.4796 -0.5522  0.2423
   55CHL1  H24A 4059   5.936   0.548   4.130 -2.3642  0.4423 -0.4426
   55CHL1  H24B 4060   5.772   0.495   4.164  0.2524  3.4235  1.2025
   55CHL1   C25 4061   5.896   0.477   4.335 -0.5750 -0.4593 -0.2395
   55CHL1   H25 4062   5.867   0.578   4.373 -1.0460 -0.6367 -0.1148
   55CHL1   C26 4063   5.802   0.381   4.407 -0.3597 -0.2527 -0.3301
   55CHL1  H26A 4064   5.805   0.407   4.515 -2.6310  2.8069 -0.8551
   55CHL1  H26B 4065   5.700   0.409   4.374  0.3862  2.0296 -0.9046
   55CHL1  H26C 4066   5.815   0.271   4.395  0.7772 -0.0785 -0.9219
   55CHL1   C27 4067   6.044   0.445   4.370  0.4801 -0.2141  0.0933
   55CHL1  H27A 4068   6.058   0.434   4.480  0.7667 -0.1656  0.0633
   55CHL1  H27B 4069   6.063   0.349   4.319 -0.5853  0.1467 -1.0322
   55CHL1  H27C 4070   6.110   0.527   4.334  1.1099 -0.3848  0.8079
   56CHL1    C3 4071   0.918   0.213   3.068 -0.4153 -0.2401 -0.1828
   56CHL1    H3 4072   0.995   0.291   3.088  1.0857 -1.2866 -1.5490
   56CHL1    O3 4073   0.901   0.204   2.925 -0.6835  0.4278  0.2257
   56CHL1   H3' 4074   0.816   0.161   2.915  1.5527 -4.6580  0.0406
   56CHL1    C4 4075   0.965   0.081   3.130  0.6548  0.3476 -0.5627
   56CHL1   H4A 4076   0.892   0.009   3.087  1.2913  0.9623 -2.8071
   56CHL1   H4B 4077   1.064   0.051   3.090  0.1407 -2.4361  0.0142
   56CHL1    C5 4078   0.954   0.074   3.275 -0.5666  0.0315 -0.0814
   56CHL1    C6 4079   1.059   0.025   3.348  0.4189  0.4722 -0.8917
   56CHL1    H6 4080   1.143  -0.015   3.290  0.5194  1.9423 -1.7993
   56CHL1    C7 4081   1.057   0.004   3.497  0.3257 -0.3934 -0.1388
   56CHL1   H7A 4082   1.077  -0.103   3.521 -1.7905 -0.5910  0.9483
   56CHL1   H7B 4083   1.120   0.083   3.546 -3.8352  3.2480 -0.0312
   56CHL1    C8 4084   0.916   0.027   3.561  0.2633  0.4669  0.5542
   56CHL1    H8 4085   0.845  -0.057   3.548 -1.6569  1.7785  1.9703
   56CHL1   C14 4086   0.925   0.056   3.711  0.2299  0.2252  0.0265
   56CHL1   H14 4087   0.995   0.141   3.726  0.5569 -0.1908  0.9399
   56CHL1   C15 4088   0.993  -0.048   3.800  0.1126 -0.2061  0.1743
   56CHL1  H15A 4089   0.953  -0.145   3.763  0.5638 -0.7306  1.0234
   56CHL1  H15B 4090   1.103  -0.042   3.786 -0.0411  0.2909 -0.9336
   56CHL1   C16 4091   0.943  -0.011   3.943 -0.5026  0.2129  0.2874
   56CHL1  H16A 4092   0.883  -0.088   3.997 -1.8177  1.6170  0.8933
   56CHL1  H16B 4093   1.027   0.011   4.012 -1.1622  1.2816  0.7729
   56CHL1   C17 4094   0.851   0.117   3.926 -0.0008  0.2976  0.4178
   56CHL1   H17 4095   0.923   0.202   3.921  1.4229 -0.9305 -1.4103
   56CHL1   C13 4096   0.800   0.096   3.784 -0.8971  0.1737  0.5930
   56CHL1   C18 4097   0.700  -0.021   3.780  0.3252  0.2709  0.6258
   56CHL1  H18A 4098   0.604  -0.005   3.833  0.6903  1.0879  1.0544
   56CHL1  H18B 4099   0.682  -0.047   3.673  0.7491 -0.5697  0.7558
   56CHL1  H18C 4100   0.743  -0.113   3.824 -0.2607 -0.8178 -0.9800
   56CHL1   C12 4101   0.730   0.215   3.719 -0.1897  0.2518 -0.2003
   56CHL1  H12A 4102   0.632   0.223   3.770  0.5856 -1.0283  1.6182
   56CHL1  H12B 4103   0.790   0.306   3.741 -1.9214  0.7941  2.8463
   56CHL1   C11 4104   0.706   0.187   3.570  0.5637 -0.4931 -0.0993
   56CHL1  H11A 4105   0.620   0.120   3.548  0.3528 -0.3528  0.2887
   56CHL1  H11B 4106   0.678   0.291   3.544  2.4756 -0.5243 -2.7512
   56CHL1    C9 4107   0.835   0.144   3.494 -0.3092 -0.0314  0.2176
   56CHL1    H9 4108   0.898   0.235   3.506 -1.7882  1.3571 -1.7771
   56CHL1   C10 4109   0.822   0.127   3.340  0.4100  0.0578  0.4223
   56CHL1   C19 4110   0.718   0.016   3.322  0.6163  0.4015  0.7987
   56CHL1  H19A 4111   0.616   0.040   3.359 -0.0784 -0.4299 -0.5051
   56CHL1  H19B 4112   0.700  -0.003   3.214  1.6147 -0.9925  0.8544
   56CHL1  H19C 4113   0.740  -0.083   3.368 -1.6313 -1.2485 -1.3841
   56CHL1    C1 4114   0.772   0.261   3.279 -0.4876  0.2831 -0.7948
   56CHL1   H1A 4115   0.672   0.278   3.323 -0.2632  3.3492 -1.2311
   56CHL1   H1B 4116   0.832   0.349   3.312  1.4925 -0.5236 -2.0501
   56CHL1    C2 4117   0.780   0.257   3.123  0.0747  0.2638 -0.1988
   56CHL1   H2A 4118   0.732   0.346   3.078  0.7272  0.4257 -0.5910
   56CHL1   H2B 4119   0.711   0.180   3.082  0.1755  0.4671 -0.7540
   56CHL1   C20 4120   0.739   0.156   4.028 -1.1073  0.2636 -0.0428
   56CHL1   H20 4121   0.647   0.159   3.965 -0.8339 -2.3605 -0.6927
   56CHL1   C21 4122   0.765   0.305   4.074  0.0115 -0.6988  0.1520
   56CHL1  H21A 4123   0.862   0.297   4.127  0.4864 -0.7496 -0.7093
   56CHL1  H21B 4124   0.678   0.339   4.135  0.1073 -0.9869  0.4536
   56CHL1  H21C 4125   0.770   0.371   3.986  0.9769 -1.4295 -0.3550
   56CHL1   C22 4126   0.732   0.065   4.146 -0.3273  0.4280  0.1251
   56CHL1  H22A 4127   0.716  -0.035   4.102 -0.1207 -0.0739  1.1557
   56CHL1  H22B 4128   0.832   0.063   4.195 -0.9127  0.2310  1.3483
   56CHL1   C23 4129   0.629   0.093   4.257  0.6209 -1.7174  0.0441
   56CHL1  H23A 4130   0.648   0.013   4.332  2.3128 -2.0807 -0.7166
   56CHL1  H23B 4131   0.649   0.195   4.296  1.1417 -2.4409  1.7413
   56CHL1   C24 4132   0.485   0.093   4.209 -0.0094  0.4235 -0.6463
   56CHL1  H24A 4133   0.470   0.164   4.125 -1.5381 -1.1345 -1.7756
   56CHL1  H24B 4134   0.455  -0.002   4.159  0.7005  0.8564 -1.9597
   56CHL1   C25 4135   0.385   0.118   4.320  0.3863  0.1148 -0.0871
   56CHL1   H25 4136   0.406   0.037   4.393 -0.6147 -1.2613 -1.2605
   56CHL1   C26 4137   0.391   0.255   4.385 -0.4857  0.4421 -0.8154
   56CHL1  H26A 4138   0.309   0.268   4.458  0.7042  1.2387  0.4140
   56CHL1  H26B 4139   0.493   0.259   4.427  0.5040 -2.0131 -2.6737
   56CHL1  H26C 4140   0.388   0.334   4.307 -0.3934  2.3447  1.0379
   56CHL1   C27 4141   0.239   0.099   4.273 -0.4375  0.9217  0.3344
   56CHL1  H27A 4142   0.167   0.076   4.355 -0.4085 -0.2937  0.0395
   56CHL1  H27B 4143   0.211   0.188   4.212 -0.7252 -0.4128 -1.5746
   56CHL1  H27C 4144   0.241   0.011   4.206  0.3978  0.7147  0.6171
   57SAPC     N 4145   5.500   4.762   7.000  0.3255  0.4963 -0.7510
   57SAPC   C12 4146   5.543   4.698   6.877  0.8477  1.0266  0.2724
   57SAPC  H12A 4147   5.455   4.654   6.832  1.4022  0.1849 -0.0307
   57SAPC  H12B 4148   5.603   4.613   6.907 -0.8858 -0.2402  0.3019
   57SAPC   C13 4149   5.622   4.811   7.079  0.3198  0.3465 -0.1558
   57SAPC  H13A 4150   5.688   4.743   7.129 -0.5982  0.7491  1.7152
   57SAPC  H13B 4151   5.686   4.865   7.011 -0.5452  4.0923  1.6914
   57SAPC  H13C 4152   5.599   4.881   7.158  0.1381 -2.9650  2.9696
   57SAPC   C14 4153   5.407   4.878   6.970 -0.2491 -0.0042  0.2226
   57SAPC  H14A 4154   5.375   4.924   7.063  0.4819  0.8931  0.0473
   57SAPC  H14B 4155   5.464   4.948   6.911 -1.5770  0.5007 -0.4875
   57SAPC  H14C 4156   5.323   4.858   6.906 -0.5404  2.1697 -0.1235
   57SAPC   C15 4157   5.427   4.662   7.084 -0.3122 -0.6650 -0.8795
   57SAPC  H15A 4158   5.348   4.617   7.027  0.0407 -0.7885 -1.2753
   57SAPC  H15B 4159   5.487   4.582   7.125 -1.0221 -0.1138  1.3561
   57SAPC  H15C 4160   5.389   4.710   7.173 -0.6096  0.2449 -1.4836
   57SAPC   C11 4161   5.614   4.780   6.771 -0.8428 -0.2039 -0.0895
   57SAPC  H11A 4162   5.543   4.859   6.737 -0.2903  0.0388 -0.7053
   57SAPC  H11B 4163   5.630   4.718   6.681 -0.5845 -0.7997  0.3553
   57SAPC     P 4164   5.870   4.779   6.826 -0.5507  0.0047  0.7439
   57SAPC   O13 4165   5.970   4.881   6.867  0.0838 -0.3299  0.5652
   57SAPC   O14 4166   5.853   4.652   6.902 -0.0493 -0.0252  0.0891
   57SAPC   O12 4167   5.734   4.848   6.815 -0.2339  0.0018  0.2974
   57SAPC   O11 4168   5.899   4.742   6.673  0.0083 -0.4540  0.0254
   57SAPC    C1 4169   5.965   4.623   6.627 -0.3331 -0.2647 -0.0166
   57SAPC    HA 4170   6.075   4.640   6.617 -0.4577  1.8890  1.4341
   57SAPC    HB 4171   5.936   4.539   6.693 -1.1979  0.8417  1.0656
   57SAPC    C2 4172   5.913   4.594   6.480 -0.1258 -0.7667 -0.8907
   57SAPC    HS 4173   5.978   4.518   6.431  1.1729  0.0191 -0.4299
   57SAPC   O21 4174   5.908   4.717   6.412 -0.2475  0.3678  0.3226
   57SAPC   C21 4175   6.026   4.764   6.369 -0.2599  0.3823  0.4848
   57SAPC   O22 4176   6.131   4.717   6.402  0.1017 -0.0792 -0.5943
   57SAPC   C22 4177   6.018   4.885   6.271 -0.1125 -0.3010 -0.4325
   57SAPC   H2R 4178   6.120   4.884   6.228 -0.0754 -1.9518 -0.3801
   57SAPC   H2S 4179   5.932   4.867   6.203 -0.6295  1.6728 -0.3597
   57SAPC    C3 4180   5.768   4.540   6.482  0.0140  0.1260  0.0619
   57SAPC    HX 4181   5.694   4.601   6.538 -0.8261 -0.0162 -0.8778
   57SAPC    HY 4182   5.759   4.442   6.534 -0.8495  0.0146 -0.2915
   57SAPC   O31 4183   5.729   4.510   6.345 -0.5542  0.3064 -0.6053
   57SAPC   C31 4184   5.605   4.542   6.308 -0.6627 -0.2086 -0.0485
   57SAPC   O32 4185   5.520   4.584   6.381  0.1288 -0.0429  0.1854
   57SAPC   C32 4186   5.604   4.525   6.153  0.2558  0.2638 -0.6710
   57SAPC   H2X 4187   5.628   4.419   6.135  0.6288  0.4949 -1.6032
   57SAPC   H2Y 4188   5.681   4.595   6.114 -1.0771  1.5305 -1.1416
   57SAPC   C23 4189   5.989   5.009   6.355 -0.3902  0.0240 -0.0856
   57SAPC   H3R 4190   6.078   5.034   6.416 -1.5157 -0.3318  1.7891
   57SAPC   H3S 4191   5.917   4.989   6.437 -0.4703 -1.5569 -0.5200
   57SAPC   C24 4192   5.954   5.127   6.264  0.3728  0.9577 -0.4313
   57SAPC   H4R 4193   5.929   5.213   6.329  1.8797  1.2017 -0.1491
   57SAPC   H4S 4194   5.858   5.105   6.213 -1.2098  2.9589  1.4888
   57SAPC   C25 4195   6.049   5.163   6.156 -0.5262  0.7918  0.1122
   57SAPC   H5R 4196   6.148   5.190   6.197 -0.0790  0.0339 -0.4247
   57SAPC   C26 4197   6.028   5.156   6.024  0.3217  0.3318  0.7993
   57SAPC   H6R 4198   6.110   5.185   5.956 -0.6427 -0.0890 -0.6032
   57SAPC   C27 4199   5.904   5.132   5.947 -0.2803  0.0034  0.1554
   57SAPC   H7R 4200   5.907   5.173   5.843 -0.5908  0.3030  0.2614
   57SAPC   H7S 4201   5.824   5.200   5.985 -0.1484  0.9759 -1.2258
   57SAPC   C28 4202   5.859   4.989   5.943  0.5249 -0.4068 -0.3938
   57SAPC   H8R 4203   5.801   4.945   6.025  0.0060 -1.6363 -1.3946
   57SAPC   C29 4204   5.896   4.902   5.850 -0.9026  0.3395  0.6827
   57SAPC   H9R 4205   5.853   4.801   5.853 -1.3560  0.4914 -0.3171
   57SAPC  C210 4206   5.963   4.925   5.713  0.5825  0.3069  0.3809
   57SAPC  H10R 4207   6.046   4.853   5.700  3.3970  3.1355  1.2050
   57SAPC  H10S 4208   6.029   5.014   5.721  0.5966  0.2326  1.2764
   57SAPC  C211 4209   5.861   4.922   5.599 -0.2869 -0.0476  0.5153
   57SAPC  H11R 4210   5.790   5.006   5.600 -0.1452  0.2284 -2.7506
   57SAPC  C212 4211   5.820   4.813   5.533  0.0855 -0.4368  0.2235
   57SAPC  H12R 4212   5.749   4.827   5.450  1.4254 -0.0793 -0.9053
   57SAPC  C213 4213   5.900   4.688   5.532 -0.0334 -0.6120  0.3154
   57SAPC  H13R 4214   5.901   4.644   5.634  4.7948 -0.6112  0.4930
   57SAPC  H13S 4215   6.004   4.726   5.522 -0.3877  0.5888  0.9353
   57SAPC  C214 4216   5.858   4.595   5.427 -0.1280  0.0846  0.6685
   57SAPC  H14R 4217   5.810   4.508   5.475  1.4266 -1.7644 -0.9638
   57SAPC  C215 4218   5.873   4.588   5.297  0.1989  0.4425  0.4282
   57SAPC  H15R 4219   5.817   4.509   5.245  0.5967  0.0345  0.6089
   57SAPC  C216 4220   5.929   4.691   5.200 -0.2169  0.5446  0.5807
   57SAPC  H16R 4221   6.004   4.640   5.137 -1.5941 -1.7411  0.6604
   57SAPC  H16S 4222   5.987   4.775   5.243  2.3984 -1.0943  0.4203
   57SAPC  C217 4223   5.830   4.755   5.102 -0.4554  1.6220 -0.2808
   57SAPC  H17R 4224   5.889   4.807   5.024  2.0005  1.9330  1.6648
   57SAPC  H17S 4225   5.762   4.824   5.158  1.3770  2.6309  0.8054
   57SAPC  C218 4226   5.742   4.651   5.025  0.0715 -0.0032 -0.3976
   57SAPC  H18R 4227   5.684   4.585   5.093  1.7590 -1.9322 -0.7388
   57SAPC  H18S 4228   5.819   4.602   4.961  0.8377  0.5150  0.1062
   57SAPC  C219 4229   5.630   4.708   4.936  0.6791 -0.6981 -0.0609
   57SAPC  H19R 4230   5.558   4.770   4.992 -0.4169 -2.1854  0.2196
   57SAPC  H19S 4231   5.586   4.617   4.890 -1.8203  0.6411 -0.4525
   57SAPC  C220 4232   5.685   4.794   4.828 -0.5052  0.1542  0.3163
   57SAPC  H20R 4233   5.755   4.733   4.767 -4.1713 -2.0410 -2.0136
   57SAPC  H20S 4234   5.728   4.895   4.850  2.0797 -0.2433 -2.3347
   57SAPC  H20T 4235   5.602   4.802   4.755 -0.7238 -3.0473  0.0774
   57SAPC   C33 4236   5.462   4.573   6.113 -0.2753 -0.0471 -0.5886
   57SAPC   H3X 4237   5.429   4.665   6.165 -2.6161 -0.0966 -1.8765
   57SAPC   H3Y 4238   5.391   4.488   6.120 -0.4410  0.1240 -0.1984
   57SAPC   C34 4239   5.451   4.609   5.958  0.0001 -0.5053 -1.0864
   57SAPC   H4X 4240   5.351   4.644   5.922 -0.9468 -2.4424 -0.4954
   57SAPC   H4Y 4241   5.468   4.515   5.902  0.7762 -0.8817 -0.2461
   57SAPC   C35 4242   5.557   4.710   5.908 -0.4051  0.9040  0.5808
   57SAPC   H5X 4243   5.650   4.655   5.881 -1.1680 -2.1178  3.3546
   57SAPC   H5Y 4244   5.570   4.789   5.985 -0.4628  0.1895  1.3395
   57SAPC   C36 4245   5.509   4.775   5.781 -0.3605  0.0980  0.5540
   57SAPC   H6X 4246   5.582   4.852   5.751 -0.8567  0.1671 -0.5281
   57SAPC   H6Y 4247   5.412   4.825   5.803  0.8518  1.9220  2.1529
   57SAPC   C37 4248   5.509   4.692   5.652 -0.1044 -0.0682 -0.1955
   57SAPC   H7X 4249   5.437   4.611   5.677 -0.6791  1.3608  3.3755
   57SAPC   H7Y 4250   5.610   4.654   5.628 -0.5962  0.1132 -2.8670
   57SAPC   C38 4251   5.453   4.755   5.525 -0.3008  0.5295 -0.7937
   57SAPC   H8X 4252   5.528   4.828   5.487  1.2086  0.4781  1.8271
   57SAPC   H8Y 4253   5.368   4.815   5.566  1.5009  0.9718  2.7047
   57SAPC   C39 4254   5.405   4.655   5.421 -0.4534  0.5456  0.0442
   57SAPC   H9X 4255   5.353   4.708   5.339 -0.0987 -1.5193 -1.5806
   57SAPC   H9Y 4256   5.335   4.583   5.470  0.0420  0.7405  1.0635
   57SAPC  C310 4257   5.525   4.587   5.345  0.7043  0.3868 -0.9319
   57SAPC  H10X 4258   5.591   4.543   5.423 -1.7118 -0.2247  0.9218
   57SAPC  H10Y 4259   5.583   4.670   5.299  1.8095  1.6554  2.3800
   57SAPC  C311 4260   5.482   4.477   5.260 -0.0263 -0.8260  0.3823
   57SAPC  H11X 4261   5.431   4.397   5.318 -1.9442 -0.5124 -0.7968
   57SAPC  H11Y 4262   5.571   4.431   5.213 -0.7528 -0.8480 -1.0330
   57SAPC  C312 4263   5.376   4.512   5.148 -0.2144 -0.5426  0.2455
   57SAPC  H12X 4264   5.403   4.603   5.091  1.0492 -1.3129 -0.4497
   57SAPC  H12Y 4265   5.281   4.530   5.202  0.4787 -2.3658  2.2463
   57SAPC  C313 4266   5.352   4.403   5.043 -0.8371  0.2671  0.3738
   57SAPC  H13X 4267   5.296   4.323   5.096 -0.3686 -0.9779 -0.9694
   57SAPC  H13Y 4268   5.445   4.362   4.999 -1.5286  0.1276 -0.9952
   57SAPC  C314 4269   5.271   4.461   4.925  0.2441 -0.6314  0.1835
   57SAPC  H14X 4270   5.318   4.554   4.887  0.5984 -1.1356 -0.6297
   57SAPC  H14Y 4271   5.165   4.478   4.955  0.7055  4.1113 -0.2489
   57SAPC  C315 4272   5.271   4.362   4.805 -1.1196  0.1056  0.1814
   57SAPC  H15X 4273   5.178   4.304   4.824 -1.4170  0.8390  0.9896
   57SAPC  H15Y 4274   5.355   4.289   4.813  0.3916  1.6851 -0.7173
   57SAPC  C316 4275   5.254   4.434   4.675 -0.2591 -0.1521  0.3226
   57SAPC  H16X 4276   5.343   4.488   4.635 -1.5078  2.0028  0.3453
   57SAPC  H16Y 4277   5.181   4.516   4.687 -1.5043 -1.1895  0.0506
   57SAPC  C317 4278   5.205   4.335   4.573  0.1471 -0.0132 -0.2462
   57SAPC  H17X 4279   5.113   4.292   4.617 -0.1267  0.6236 -0.1903
   57SAPC  H17Y 4280   5.282   4.256   4.556 -0.7181 -0.6468 -1.2849
   57SAPC  C318 4281   5.170   4.391   4.436 -0.4357  0.6436 -0.3177
   57SAPC  H18X 4282   5.106   4.318   4.383  0.1010  1.0724 -1.5777
   57SAPC  H18Y 4283   5.265   4.424   4.389  0.7478 -0.5297  1.1477
   57SAPC  H18Z 4284   5.118   4.488   4.444  0.5978  1.0728  1.8423
   58SAPC     N 4285   6.289   3.326   6.650 -0.4376  0.0041  0.1107
   58SAPC   C12 4286   6.213   3.230   6.742  0.0806 -0.3781  0.5133
   58SAPC  H12A 4287   6.113   3.271   6.740  0.2874  0.1617  1.0694
   58SAPC  H12B 4288   6.246   3.249   6.843 -0.9882 -0.6232  0.9258
   58SAPC   C13 4289   6.242   3.297   6.511  0.1519  0.4583 -0.1937
   58SAPC  H13A 4290   6.297   3.362   6.444  0.0252  0.7614 -0.0057
   58SAPC  H13B 4291   6.253   3.192   6.489 -0.3562  0.1074  1.1685
   58SAPC  H13C 4292   6.138   3.325   6.503 -0.8897 -2.5297  1.5502
   58SAPC   C14 4293   6.275   3.473   6.688  0.2362 -0.4886 -0.5753
   58SAPC  H14A 4294   6.173   3.509   6.691  0.5209  0.3159 -0.3200
   58SAPC  H14B 4295   6.327   3.502   6.778  0.9348 -2.9373 -0.1047
   58SAPC  H14C 4296   6.318   3.530   6.607  0.2497  1.4644  0.7408
   58SAPC   C15 4297   6.434   3.294   6.664  0.3543  0.0786  0.3650
   58SAPC  H15A 4298   6.478   3.322   6.758  2.0328  0.1285 -0.4091
   58SAPC  H15B 4299   6.456   3.189   6.653  1.3634  0.0509  2.1731
   58SAPC  H15C 4300   6.486   3.350   6.588  1.1276 -3.5394 -1.9941
   58SAPC   C11 4301   6.207   3.077   6.727 -0.1385  0.2857  0.3745
   58SAPC  H11A 4302   6.138   3.051   6.810 -1.3263  3.7611  0.6197
   58SAPC  H11B 4303   6.311   3.038   6.731 -0.2314  0.0175  0.1935
   58SAPC     P 4304   6.120   2.898   6.559 -0.4467 -0.6179 -0.2203
   58SAPC   O13 4305   6.014   2.852   6.652  0.6678 -0.9228 -0.5856
   58SAPC   O14 4306   6.089   2.884   6.418 -0.0101 -0.6090  0.5762
   58SAPC   O12 4307   6.150   3.053   6.598 -0.5489  0.0572  0.1936
   58SAPC   O11 4308   6.246   2.823   6.614 -0.2871 -0.2009 -0.0033
   58SAPC    C1 4309   6.358   2.780   6.532 -0.6428 -0.0680  0.2513
   58SAPC    HA 4310   6.408   2.871   6.495  0.0157 -0.3895  0.3328
   58SAPC    HB 4311   6.440   2.743   6.597  1.5246  0.1057 -2.2392
   58SAPC    C2 4312   6.329   2.654   6.446 -0.3628  0.1431 -0.1632
   58SAPC    HS 4313   6.431   2.612   6.437 -0.6251 -0.5732  0.1124
   58SAPC   O21 4314   6.268   2.677   6.314  0.0914  0.2940  0.0235
   58SAPC   C21 4315   6.328   2.755   6.231 -0.1508 -0.1775  0.2848
   58SAPC   O22 4316   6.442   2.804   6.251  0.1160 -0.1546 -0.2870
   58SAPC   C22 4317   6.236   2.748   6.109 -0.3681 -0.1228 -0.3000
   58SAPC   H2R 4318   6.213   2.642   6.083  2.9626 -1.5260  1.7693
   58SAPC   H2S 4319   6.140   2.782   6.152 -0.4678 -2.0895  1.2076
   58SAPC    C3 4320   6.254   2.545   6.523  0.3407  0.3464 -0.0667
   58SAPC    HX 4321   6.159   2.577   6.571  1.8784 -0.2038  3.6749
   58SAPC    HY 4322   6.319   2.518   6.609  0.5837 -3.0780 -1.1884
   58SAPC   O31 4323   6.239   2.420   6.451 -0.1095 -0.2948  0.2913
   58SAPC   C31 4324   6.118   2.400   6.396  0.3522  0.1148 -0.7507
   58SAPC   O32 4325   6.019   2.462   6.426  0.0654  0.2984 -0.2200
   58SAPC   C32 4326   6.119   2.280   6.300 -0.2254 -0.4225 -0.2053
   58SAPC   H2X 4327   6.028   2.221   6.320 -1.4735  0.7871 -2.0127
   58SAPC   H2Y 4328   6.198   2.202   6.303  0.3993  0.1506 -1.1772
   58SAPC   C23 4329   6.285   2.828   5.988 -0.2632 -0.4902  0.7287
   58SAPC   H3R 4330   6.381   2.798   5.940 -0.3111 -0.0714  0.3581
   58SAPC   H3S 4331   6.296   2.936   6.014 -0.7686  0.2485 -1.8365
   58SAPC   C24 4332   6.178   2.828   5.867 -0.8548  0.0151 -0.1814
   58SAPC   H4R 4333   6.085   2.864   5.916  0.6377  1.7777  1.4852
   58SAPC   H4S 4334   6.184   2.724   5.827  1.0355 -0.5691  1.4966
   58SAPC   C25 4335   6.214   2.925   5.761 -0.0493  0.3613  0.0474
   58SAPC   H5R 4336   6.223   3.028   5.799 -1.3560  0.8235 -0.8650
   58SAPC   C26 4337   6.217   2.911   5.628  0.8792  0.3186 -0.0872
   58SAPC   H6R 4338   6.250   3.003   5.576 -0.8822  0.2627 -1.3976
   58SAPC   C27 4339   6.189   2.792   5.545 -0.2650 -0.2803 -0.3032
   58SAPC   H7R 4340   6.123   2.714   5.587  1.2276 -1.4422 -0.0063
   58SAPC   H7S 4341   6.289   2.746   5.527 -0.2117 -0.1283 -0.3925
   58SAPC   C28 4342   6.117   2.844   5.426  0.3428 -0.3073 -0.3852
   58SAPC   H8R 4343   6.016   2.882   5.446 -0.1038 -0.8230 -1.5741
   58SAPC   C29 4344   6.157   2.839   5.300 -0.2708  0.6314 -0.5135
   58SAPC   H9R 4345   6.100   2.889   5.220 -1.0969 -0.6351 -0.7501
   58SAPC  C210 4346   6.282   2.768   5.257 -0.7698 -0.2183  0.0511
   58SAPC  H10R 4347   6.256   2.713   5.164 -0.5799  2.2317 -1.5419
   58SAPC  H10S 4348   6.302   2.689   5.332 -2.5816 -1.1217 -0.3492
   58SAPC  C211 4349   6.406   2.851   5.238 -0.0550  0.2116 -0.1527
   58SAPC  H11R 4350   6.475   2.850   5.324  1.2962 -0.5767 -1.1998
   58SAPC  C212 4351   6.432   2.921   5.129 -0.7178  0.4346 -0.4105
   58SAPC  H12R 4352   6.534   2.961   5.122  0.0793 -1.6608 -1.5667
   58SAPC  C213 4353   6.351   2.942   5.009 -0.1124 -0.2340  0.4156
   58SAPC  H13R 4354   6.272   2.868   4.985  0.3543  0.2266 -3.1035
   58SAPC  H13S 4355   6.421   2.928   4.924  1.0290  0.5814  1.1951
   58SAPC  C214 4356   6.288   3.071   4.990 -0.3068 -0.7735  0.5136
   58SAPC  H14R 4357   6.227   3.103   5.075 -0.3840  1.8569 -0.4293
   58SAPC  C215 4358   6.275   3.147   4.872 -0.0961 -0.1573 -0.1418
   58SAPC  H15R 4359   6.215   3.239   4.873 -1.7125 -1.1099 -2.4553
   58SAPC  C216 4360   6.339   3.119   4.732  0.1354  0.0060 -0.4110
   58SAPC  H16R 4361   6.386   3.018   4.725 -0.1125 -0.2514  1.1974
   58SAPC  H16S 4362   6.411   3.199   4.703  0.1987  1.7651  3.9238
   58SAPC  C217 4363   6.230   3.118   4.626  0.5689  0.2496 -0.3140
   58SAPC  H17R 4364   6.162   3.206   4.630  1.5815  1.0213  1.1915
   58SAPC  H17S 4365   6.168   3.031   4.655  0.1503  0.8761  0.7471
   58SAPC  C218 4366   6.289   3.089   4.479  0.1725 -0.2193  0.6883
   58SAPC  H18R 4367   6.304   2.979   4.471  2.3192  0.1127 -0.7973
   58SAPC  H18S 4368   6.387   3.140   4.463  0.6113 -0.5726  2.0955
   58SAPC  C219 4369   6.179   3.111   4.371 -0.8240 -0.4402  0.0060
   58SAPC  H19R 4370   6.182   3.218   4.339 -1.9071 -0.7949 -1.4089
   58SAPC  H19S 4371   6.078   3.098   4.415 -0.6160 -2.0563  0.0499
   58SAPC  C220 4372   6.197   3.041   4.229  0.4746 -0.0913  0.2152
   58SAPC  H20R 4373   6.224   2.935   4.249  0.7744  0.2607  1.7935
   58SAPC  H20S 4374   6.271   3.092   4.163  1.3838  0.6254  1.7279
   58SAPC  H20T 4375   6.098   3.063   4.185  0.2521 -1.0878  0.1928
   58SAPC   C33 4376   6.111   2.327   6.156 -0.4854 -0.0756 -0.6064
   58SAPC   H3X 4377   6.145   2.238   6.099 -1.6575  0.6255 -2.4724
   58SAPC   H3Y 4378   6.167   2.421   6.140 -0.4309 -0.4694 -3.1812
   58SAPC   C34 4379   5.968   2.354   6.098  0.5014  0.1130  0.2318
   58SAPC   H4X 4380   5.919   2.423   6.170 -0.9955  0.7046 -1.2807
   58SAPC   H4Y 4381   5.905   2.264   6.112  1.7272 -0.5781  1.4839
   58SAPC   C35 4382   5.967   2.420   5.953 -0.5403  1.1072 -0.1744
   58SAPC   H5X 4383   6.032   2.508   5.971  1.0285  0.1027 -0.7830
   58SAPC   H5Y 4384   5.861   2.445   5.928 -0.6452  0.0342 -0.8881
   58SAPC   C36 4385   6.027   2.332   5.842  0.0525  1.2688  0.8255
   58SAPC   H6X 4386   5.950   2.263   5.804  0.5714  0.6226  0.9321
   58SAPC   H6Y 4387   6.095   2.258   5.890 -0.8771 -1.3911 -1.7106
   58SAPC   C37 4388   6.090   2.406   5.720 -0.2473  0.4643 -0.2716
   58SAPC   H7X 4389   6.185   2.445   5.760 -0.4913 -0.3702  1.1823
   58SAPC   H7Y 4390   6.021   2.492   5.705 -3.3068 -1.6012  0.8251
   58SAPC   C38 4391   6.114   2.314   5.598 -0.1407  0.6318 -0.4433
   58SAPC   H8X 4392   6.014   2.276   5.568  0.3496 -1.7382  0.6565
   58SAPC   H8Y 4393   6.190   2.242   5.635 -1.2073  0.3873  1.4219
   58SAPC   C39 4394   6.177   2.404   5.482  0.7092 -0.1414  0.2503
   58SAPC   H9X 4395   6.274   2.445   5.516  0.6464 -0.9152  1.4049
   58SAPC   H9Y 4396   6.109   2.490   5.463 -1.3965 -1.7516  0.0982
   58SAPC  C310 4397   6.192   2.324   5.352 -0.0062 -1.0373 -0.0002
   58SAPC  H10X 4398   6.092   2.284   5.323 -0.2988 -0.4768  0.2190
   58SAPC  H10Y 4399   6.265   2.240   5.351 -0.3883 -1.4031 -2.0721
   58SAPC  C311 4400   6.241   2.416   5.234  0.1879  0.0789 -0.0395
   58SAPC  H11X 4401   6.334   2.474   5.252 -0.8794  1.2112  2.3987
   58SAPC  H11Y 4402   6.164   2.497   5.226 -1.3017 -1.4558 -2.3633
   58SAPC  C312 4403   6.249   2.335   5.112  0.0890 -0.7612 -0.4481
   58SAPC  H12X 4404   6.156   2.277   5.094  1.4031 -2.8792 -0.8242
   58SAPC  H12Y 4405   6.326   2.261   5.143 -0.4513 -0.0791  2.9758
   58SAPC  C313 4406   6.291   2.421   4.994  0.3437 -0.8859  0.2326
   58SAPC  H13X 4407   6.386   2.478   5.000  0.5676 -1.2523  0.1841
   58SAPC  H13Y 4408   6.212   2.500   4.989  0.7276 -0.3527  1.9623
   58SAPC  C314 4409   6.297   2.334   4.866 -0.6332 -0.2448  0.4288
   58SAPC  H14X 4410   6.209   2.267   4.866 -1.5879  0.9691  0.5363
   58SAPC  H14Y 4411   6.386   2.270   4.884 -0.8666 -1.2758 -1.7296
   58SAPC  C315 4412   6.302   2.422   4.744 -0.2032 -0.5510 -0.1447
   58SAPC  H15X 4413   6.351   2.518   4.772 -1.7887  0.1006  0.5284
   58SAPC  H15Y 4414   6.198   2.445   4.711  0.0441 -1.2717 -1.4948
   58SAPC  C316 4415   6.367   2.347   4.622 -0.3784 -0.7534  0.4868
   58SAPC  H16X 4416   6.350   2.240   4.646 -1.5954 -0.6425  0.2019
   58SAPC  H16Y 4417   6.477   2.362   4.629 -0.3187 -1.1463  0.3966
   58SAPC  C317 4418   6.304   2.377   4.486 -0.0357  0.0314 -0.4685
   58SAPC  H17X 4419   6.196   2.356   4.503  0.4472  0.4526  5.2327
   58SAPC  H17Y 4420   6.353   2.307   4.414  0.3192 -1.5602  1.2381
   58SAPC  C318 4421   6.333   2.519   4.444 -0.1711 -0.5142 -0.8065
   58SAPC  H18X 4422   6.286   2.526   4.344 -0.7309  1.6598 -0.4510
   58SAPC  H18Y 4423   6.442   2.535   4.429  0.0208 -0.7869  0.2211
   58SAPC  H18Z 4424   6.301   2.605   4.506 -3.0376 -1.7659 -0.4253
   59SAPC     N 4425   0.907   4.603   7.281  0.1051 -0.1960 -0.1207
   59SAPC   C12 4426   0.829   4.600   7.151 -0.5980 -0.0277 -0.8302
   59SAPC  H12A 4427   0.760   4.683   7.159 -0.7847 -0.3928  3.4741
   59SAPC  H12B 4428   0.768   4.511   7.153 -1.5630  0.2625 -5.5392
   59SAPC   C13 4429   1.007   4.493   7.291 -0.1162  0.4680  0.3892
   59SAPC  H13A 4430   1.075   4.501   7.374  1.4292  0.8074 -0.8588
   59SAPC  H13B 4431   0.964   4.395   7.280  0.7932  0.1594 -0.5475
   59SAPC  H13C 4432   1.075   4.504   7.208 -0.0537  0.9172  0.4959
   59SAPC   C14 4433   0.979   4.738   7.304 -0.2269  0.6468  0.0322
   59SAPC  H14A 4434   1.027   4.743   7.401  0.5504 -0.4817 -0.2735
   59SAPC  H14B 4435   1.052   4.745   7.225 -0.2724  0.8202  0.0059
   59SAPC  H14C 4436   0.907   4.817   7.293 -1.1101 -0.2880 -1.2345
   59SAPC   C15 4437   0.808   4.577   7.393  0.2171 -0.1921 -0.5462
   59SAPC  H15A 4438   0.737   4.659   7.396  0.5389  0.0572  0.1986
   59SAPC  H15B 4439   0.757   4.484   7.370 -0.1928  0.0485 -0.6141
   59SAPC  H15C 4440   0.862   4.566   7.486 -0.7261 -3.1317 -0.2146
   59SAPC   C11 4441   0.908   4.594   7.021  0.2884  0.0102 -0.1612
   59SAPC  H11A 4442   0.836   4.605   6.938 -0.4613  1.3925  0.6404
   59SAPC  H11B 4443   0.961   4.497   7.008  2.7429  1.3213 -0.5927
   59SAPC     P 4444   1.020   4.811   6.906 -0.2579  0.2392  0.2863
   59SAPC   O13 4445   0.939   4.924   6.950  0.3653 -0.8982 -0.4421
   59SAPC   O14 4446   1.166   4.831   6.887 -0.3688 -0.1677  0.6171
   59SAPC   O12 4447   1.002   4.700   7.013  0.3651 -0.4554 -0.7015
   59SAPC   O11 4448   0.956   4.761   6.774  0.0470  0.3383 -0.3687
   59SAPC    C1 4449   1.026   4.676   6.681 -0.1956 -0.0678  0.2462
   59SAPC    HA 4450   1.087   4.595   6.726 -2.2001 -1.6671  0.2446
   59SAPC    HB 4451   0.956   4.605   6.633  0.9927 -2.3390  1.6811
   59SAPC    C2 4452   1.090   4.752   6.571 -0.4292 -0.5579  0.3196
   59SAPC    HS 4453   1.154   4.823   6.626 -0.8502 -1.7385  2.4309
   59SAPC   O21 4454   0.986   4.817   6.496  0.2800  0.2955  0.1379
   59SAPC   C21 4455   0.995   4.946   6.473 -0.2010  0.2768 -0.8812
   59SAPC   O22 4456   1.081   5.020   6.519  0.2194  0.1219  0.1344
   59SAPC   C22 4457   0.875   5.007   6.401  0.7802 -0.3494  0.0307
   59SAPC   H2R 4458   0.828   4.917   6.356 -0.0224  0.4954 -0.8791
   59SAPC   H2S 4459   0.808   5.064   6.468 -1.4190 -0.7565 -1.7009
   59SAPC    C3 4460   1.174   4.668   6.474 -0.2252  0.5213 -0.0183
   59SAPC    HX 4461   1.243   4.608   6.538 -0.4057 -1.1948 -1.3459
   59SAPC    HY 4462   1.222   4.737   6.401  1.6320 -0.8594 -0.1692
   59SAPC   O31 4463   1.090   4.567   6.400 -0.1607 -0.0057 -0.0315
   59SAPC   C31 4464   1.164   4.496   6.314 -0.1626 -0.7252 -0.2374
   59SAPC   O32 4465   1.276   4.528   6.276 -0.6382  0.2515 -0.4703
   59SAPC   C32 4466   1.097   4.363   6.275 -0.4156 -0.4065 -0.2168
   59SAPC   H2X 4467   0.999   4.382   6.226  0.0305 -0.4482 -1.1402
   59SAPC   H2Y 4468   1.068   4.308   6.367  2.3627  1.1513  1.7355
   59SAPC   C23 4469   0.915   5.112   6.294 -0.3982 -0.4742 -0.3160
   59SAPC   H3R 4470   1.005   5.170   6.322  0.0508 -1.4031  0.2059
   59SAPC   H3S 4471   0.832   5.183   6.275 -0.1021  0.3780  1.4174
   59SAPC   C24 4472   0.951   5.045   6.161 -0.2687  1.1062 -0.1556
   59SAPC   H4R 4473   0.943   5.127   6.087  0.1697 -0.0370 -1.5186
   59SAPC   H4S 4474   0.868   4.979   6.130  0.2211 -0.3708  1.4988
   59SAPC   C25 4475   1.094   4.994   6.159 -0.9896  0.6369  0.0674
   59SAPC   H5R 4476   1.167   5.074   6.180 -0.4497 -0.2098  1.6460
   59SAPC   C26 4477   1.127   4.862   6.131  0.1906  0.1418  0.0153
   59SAPC   H6R 4478   1.234   4.835   6.131  0.1022 -0.2206  0.1062
   59SAPC   C27 4479   1.039   4.739   6.116  0.9995 -0.1977  0.2448
   59SAPC   H7R 4480   1.015   4.706   6.219 -0.0549 -2.9563 -0.7994
   59SAPC   H7S 4481   1.100   4.654   6.079  0.9423 -0.1572  0.0603
   59SAPC   C28 4482   0.914   4.743   6.031  0.1904  0.2478  0.2301
   59SAPC   H8R 4483   0.819   4.719   6.081  0.2584 -1.9680 -0.5928
   59SAPC   C29 4484   0.905   4.763   5.899 -0.6072  0.0011 -0.2068
   59SAPC   H9R 4485   0.811   4.743   5.844 -0.5632 -0.4211 -0.1321
   59SAPC  C210 4486   1.020   4.793   5.812 -0.6278 -0.2966  0.3547
   59SAPC  H10R 4487   1.018   4.712   5.736  1.5916  0.0466 -0.1347
   59SAPC  H10S 4488   1.124   4.773   5.844  0.3276 -2.2531 -3.4126
   59SAPC  C211 4489   1.029   4.927   5.750  0.0095 -0.0715  0.0943
   59SAPC  H11R 4490   0.993   5.002   5.823 -0.0588 -1.6208  1.7275
   59SAPC  C212 4491   1.066   4.966   5.627  0.1883  0.2227  0.7771
   59SAPC  H12R 4492   1.074   5.071   5.596  0.6183 -0.0581 -0.1095
   59SAPC  C213 4493   1.100   4.870   5.517 -0.1303  0.3934 -0.7116
   59SAPC  H13R 4494   1.103   4.767   5.558 -1.2453  0.3820 -0.6442
   59SAPC  H13S 4495   1.202   4.894   5.480  0.7658  1.1674  1.9450
   59SAPC  C214 4496   0.982   4.853   5.419  0.0086 -0.4500 -0.2204
   59SAPC  H14R 4497   0.887   4.858   5.475  0.6436 -1.9955  1.0664
   59SAPC  C215 4498   0.987   4.839   5.287 -0.6228 -0.3193 -0.1829
   59SAPC  H15R 4499   0.897   4.821   5.227  0.1301 -1.4646 -1.0199
   59SAPC  C216 4500   1.115   4.858   5.202  0.0426  0.3956 -0.4071
   59SAPC  H16R 4501   1.170   4.762   5.210 -2.0226 -0.7075  1.6616
   59SAPC  H16S 4502   1.182   4.939   5.237 -0.2601 -0.1001  1.4186
   59SAPC  C217 4503   1.069   4.881   5.056 -0.2855  0.5144  0.8058
   59SAPC  H17R 4504   0.993   4.810   5.018  0.3114  0.3229 -0.0658
   59SAPC  H17S 4505   1.160   4.876   4.992 -0.3353  2.9597  0.4650
   59SAPC  C218 4506   1.022   5.019   5.015  1.0487 -0.9223  0.1030
   59SAPC  H18R 4507   1.101   5.095   5.034 -0.9659  1.2741  0.1730
   59SAPC  H18S 4508   0.932   5.043   5.075 -1.0445 -0.6692 -2.8846
   59SAPC  C219 4509   0.980   5.032   4.864  0.4108 -0.2884  0.0305
   59SAPC  H19R 4510   1.069   5.020   4.798 -0.2607  0.0096 -0.9640
   59SAPC  H19S 4511   0.965   5.140   4.841  0.3211 -0.1256  0.8349
   59SAPC  C220 4512   0.871   4.958   4.803 -0.7480 -0.6012 -0.6835
   59SAPC  H20R 4513   0.890   4.939   4.695 -1.0731 -2.7679 -0.4158
   59SAPC  H20S 4514   0.776   5.014   4.811 -0.3489  0.1175 -0.8635
   59SAPC  H20T 4515   0.863   4.858   4.852  0.0409 -0.0442  0.6182
   59SAPC   C33 4516   1.196   4.265   6.203 -0.3472  0.4721  0.5782
   59SAPC   H3X 4517   1.148   4.168   6.179  2.3994 -1.0883  1.0371
   59SAPC   H3Y 4518   1.284   4.257   6.270  0.3856  1.1265 -0.2969
   59SAPC   C34 4519   1.229   4.311   6.061  0.0269 -0.4694 -0.3108
   59SAPC   H4X 4520   1.298   4.240   6.012  2.4984 -0.1455  2.3900
   59SAPC   H4Y 4521   1.284   4.408   6.060  0.6517 -0.7692  1.5398
   59SAPC   C35 4522   1.111   4.324   5.968 -0.3276  0.7292 -0.1217
   59SAPC   H5X 4523   1.029   4.390   6.005 -0.0512  1.2588 -0.4416
   59SAPC   H5Y 4524   1.073   4.221   5.958 -0.3055  0.7787 -0.7615
   59SAPC   C36 4525   1.159   4.375   5.824 -0.4203 -1.2025 -0.4148
   59SAPC   H6X 4526   1.237   4.312   5.777 -0.4457  0.0626 -2.2492
   59SAPC   H6Y 4527   1.204   4.475   5.842 -0.4801 -1.4003  1.0112
   59SAPC   C37 4528   1.041   4.393   5.727 -0.6976 -0.0298 -0.0273
   59SAPC   H7X 4529   0.952   4.452   5.759 -1.9644 -1.2549 -1.1831
   59SAPC   H7Y 4530   1.013   4.287   5.711  0.4191 -0.2979 -0.2513
   59SAPC   C38 4531   1.084   4.465   5.594 -0.1811  0.3259  0.0996
   59SAPC   H8X 4532   1.114   4.571   5.609 -1.5751  1.2389 -2.8828
   59SAPC   H8Y 4533   0.996   4.474   5.527 -0.1739  0.6899  0.1363
   59SAPC   C39 4534   1.187   4.389   5.519 -0.5530  0.3775 -0.4676
   59SAPC   H9X 4535   1.153   4.283   5.526  0.1787  0.2200  1.0344
   59SAPC   H9Y 4536   1.284   4.387   5.571 -0.5398  0.9173 -0.4716
   59SAPC  C310 4537   1.195   4.433   5.374  0.0033 -0.1130 -0.3602
   59SAPC  H10X 4538   1.203   4.544   5.367  0.1767  0.0819  2.0337
   59SAPC  H10Y 4539   1.107   4.412   5.310  0.8424 -1.7690 -1.0259
   59SAPC  C311 4540   1.301   4.366   5.287 -0.2373  0.3894 -0.3226
   59SAPC  H11X 4541   1.399   4.408   5.319 -0.3074  0.7760 -0.6011
   59SAPC  H11Y 4542   1.289   4.395   5.181 -1.8025  0.3550 -0.1787
   59SAPC  C312 4543   1.319   4.215   5.301  0.7548 -0.5458 -0.4085
   59SAPC  H12X 4544   1.215   4.181   5.325  0.5269 -1.3762 -2.3624
   59SAPC  H12Y 4545   1.384   4.192   5.388 -0.7200 -1.1064  0.5933
   59SAPC  C313 4546   1.363   4.142   5.179  0.8331 -0.4532  0.3388
   59SAPC  H13X 4547   1.423   4.050   5.199 -0.0099 -0.7428  1.6525
   59SAPC  H13Y 4548   1.436   4.209   5.128 -0.7448  1.2493  0.2628
   59SAPC  C314 4549   1.255   4.106   5.076 -0.1552 -0.8070 -0.4144
   59SAPC  H14X 4550   1.180   4.188   5.080 -0.2397 -0.9260  1.2776
   59SAPC  H14Y 4551   1.200   4.016   5.109 -0.6501  0.2374  1.7812
   59SAPC  C315 4552   1.298   4.075   4.933  0.1925 -0.0411  0.3315
   59SAPC  H15X 4553   1.389   4.011   4.936 -0.2392 -0.7483 -1.0430
   59SAPC  H15Y 4554   1.333   4.167   4.881 -3.9390  0.8470 -1.2309
   59SAPC  C316 4555   1.195   4.008   4.843 -0.3459 -0.2326 -0.2734
   59SAPC  H16X 4556   1.109   4.077   4.830  0.2828  1.1151  2.1458
   59SAPC  H16Y 4557   1.152   3.918   4.894 -0.3813  0.5879  1.2055
   59SAPC  C317 4558   1.248   3.974   4.706  0.0338  0.0749  0.2890
   59SAPC  H17X 4559   1.318   3.888   4.705  0.7110  0.5309  2.6930
   59SAPC  H17Y 4560   1.309   4.059   4.668 -0.7630  0.4554 -0.1636
   59SAPC  C318 4561   1.143   3.930   4.608 -0.0109 -0.4442  0.6574
   59SAPC  H18X 4562   1.189   3.903   4.511 -2.0489  2.0873 -1.1491
   59SAPC  H18Y 4563   1.066   4.009   4.596 -1.5348 -2.0552 -0.7962
   59SAPC  H18Z 4564   1.087   3.842   4.647 -2.1070  0.3007 -0.5254
   60SAPC     N 4565   4.667   6.867   6.558  0.2241 -0.0699 -0.6323
   60SAPC   C12 4566   4.611   6.991   6.631  0.4281  0.2681  0.0578
   60SAPC  H12A 4567   4.688   7.066   6.618  0.9662 -0.1369  0.8376
   60SAPC  H12B 4568   4.610   6.949   6.731 -0.2647  0.5103  0.1590
   60SAPC   C13 4569   4.788   6.819   6.621 -0.5119 -0.0943  0.0736
   60SAPC  H13A 4570   4.841   6.736   6.575 -1.1388  0.3558 -1.5468
   60SAPC  H13B 4571   4.866   6.894   6.622 -1.0525  0.4837  1.4610
   60SAPC  H13C 4572   4.777   6.792   6.725  1.3019  1.3400  0.6941
   60SAPC   C14 4573   4.563   6.754   6.563  0.0429  0.0474  0.1781
   60SAPC  H14A 4574   4.463   6.787   6.536  0.9306  2.2848 -0.6393
   60SAPC  H14B 4575   4.597   6.668   6.507 -0.9011  0.8191 -1.6907
   60SAPC  H14C 4576   4.552   6.711   6.661  3.2148 -0.1378  0.5606
   60SAPC   C15 4577   4.688   6.898   6.414 -0.0881  0.0626 -0.4863
   60SAPC  H15A 4578   4.593   6.925   6.371 -0.6205 -2.3063 -0.9318
   60SAPC  H15B 4579   4.764   6.973   6.394  0.2497  0.2867  1.4529
   60SAPC  H15C 4580   4.705   6.801   6.370 -0.6348  0.1697 -0.9531
   60SAPC   C11 4581   4.465   7.034   6.584  0.2229 -0.3400  1.0269
   60SAPC  H11A 4582   4.473   7.046   6.474 -1.1515  0.3725  0.9726
   60SAPC  H11B 4583   4.432   7.134   6.620  0.6348  0.4149 -0.6073
   60SAPC     P 4584   4.231   6.920   6.567 -0.2037  0.2649  0.7319
   60SAPC   O13 4585   4.222   6.787   6.499 -0.1073 -0.0940  0.2633
   60SAPC   O14 4586   4.136   6.941   6.679 -0.1849 -0.6704  0.2877
   60SAPC   O12 4587   4.374   6.938   6.635  0.0984 -0.2803  0.4785
   60SAPC   O11 4588   4.219   7.031   6.459 -0.1501 -0.0036 -0.4850
   60SAPC    C1 4589   4.115   7.116   6.437  0.2842 -0.7125  0.7022
   60SAPC    HA 4590   4.043   7.066   6.369  0.6701  0.5645 -0.6840
   60SAPC    HB 4591   4.065   7.143   6.533 -1.8415  0.9421 -0.7889
   60SAPC    C2 4592   4.152   7.257   6.375  0.2700  0.4425  0.0754
   60SAPC    HS 4593   4.054   7.307   6.389 -0.6477 -1.2803  0.1131
   60SAPC   O21 4594   4.188   7.252   6.239 -0.6386  0.3532 -0.0294
   60SAPC   C21 4595   4.094   7.238   6.154 -0.5053  0.9157 -0.6526
   60SAPC   O22 4596   3.974   7.213   6.178 -0.5329 -0.1542 -0.8398
   60SAPC   C22 4597   4.155   7.264   6.022 -0.1683 -0.3529  0.3982
   60SAPC   H2R 4598   4.192   7.369   6.025  1.5458 -0.9350  0.7446
   60SAPC   H2S 4599   4.251   7.210   6.007 -0.4438 -0.5224 -0.7953
   60SAPC    C3 4600   4.268   7.344   6.443 -0.2871 -0.9248  0.0273
   60SAPC    HX 4601   4.360   7.285   6.464  0.1664 -0.4888 -0.7049
   60SAPC    HY 4602   4.235   7.384   6.541 -0.3549  1.9595 -1.0714
   60SAPC   O31 4603   4.291   7.457   6.363  0.2942  0.7172 -0.0480
   60SAPC   C31 4604   4.392   7.448   6.283  0.3713 -0.3389 -0.0346
   60SAPC   O32 4605   4.453   7.348   6.254 -0.2876 -0.2087 -0.3763
   60SAPC   C32 4606   4.417   7.590   6.229 -0.3348  0.2021  0.2143
   60SAPC   H2X 4607   4.511   7.626   6.277  0.7401  0.7138 -2.1392
   60SAPC   H2Y 4608   4.329   7.650   6.259  0.2661  0.9649  0.4687
   60SAPC   C23 4609   4.065   7.232   5.912 -0.0453  0.5841  0.1644
   60SAPC   H3R 4610   3.991   7.313   5.891  1.3509  1.7625 -0.4080
   60SAPC   H3S 4611   4.027   7.129   5.930  1.3457  0.3644  2.0999
   60SAPC   C24 4612   4.131   7.201   5.776  0.6382  0.6985 -0.0730
   60SAPC   H4R 4613   4.052   7.182   5.699  0.0673  0.5419  0.5431
   60SAPC   H4S 4614   4.175   7.100   5.770 -1.8388 -0.4057 -3.5495
   60SAPC   C25 4615   4.227   7.307   5.733  0.5922  0.2381  0.2288
   60SAPC   H5R 4616   4.314   7.320   5.799  1.5548 -2.6095 -0.3381
   60SAPC   C26 4617   4.220   7.368   5.613  0.1408 -1.0795 -0.5170
   60SAPC   H6R 4618   4.288   7.453   5.596 -2.5496  1.7184  1.4926
   60SAPC   C27 4619   4.117   7.355   5.500 -0.4566 -0.0236  0.2241
   60SAPC   H7R 4620   4.068   7.256   5.500  0.3424 -0.4458 -1.3139
   60SAPC   H7S 4621   4.181   7.351   5.409 -1.4014 -2.5004 -0.4122
   60SAPC   C28 4622   4.012   7.465   5.503 -0.1628 -0.2071 -0.4210
   60SAPC   H8R 4623   3.957   7.475   5.598 -0.3705  0.4794 -0.6132
   60SAPC   C29 4624   3.964   7.526   5.396 -0.0229  0.6763 -0.0517
   60SAPC   H9R 4625   3.887   7.605   5.402 -1.0508 -0.3595  0.9067
   60SAPC  C210 4626   4.005   7.513   5.254  0.0638 -0.1587  0.3636
   60SAPC  H10R 4627   3.990   7.407   5.223  0.4481 -0.2823  0.5936
   60SAPC  H10S 4628   4.115   7.531   5.252  0.2943 -1.0181  2.4747
   60SAPC  C211 4629   3.925   7.612   5.167 -0.4476  0.6553 -0.3967
   60SAPC  H11R 4630   3.837   7.659   5.214 -1.2883 -0.5092 -0.7538
   60SAPC  C212 4631   3.948   7.627   5.039  0.3472 -0.6340  0.4791
   60SAPC  H12R 4632   3.886   7.699   4.984  1.1618  0.2549  0.7048
   60SAPC  C213 4633   4.063   7.565   4.959 -0.4286 -0.3284  0.1134
   60SAPC  H13R 4634   4.119   7.488   5.016 -1.3890 -0.9565  0.2317
   60SAPC  H13S 4635   4.135   7.646   4.935 -0.6197 -0.0531  0.4563
   60SAPC  C214 4636   4.027   7.518   4.820 -0.2511  0.3960  0.9748
   60SAPC  H14R 4637   4.008   7.410   4.817 -0.8117  0.5158 -1.3760
   60SAPC  C215 4638   4.023   7.594   4.713  0.1369 -0.9912  1.0287
   60SAPC  H15R 4639   4.000   7.552   4.614 -0.7186  2.6560 -0.4961
   60SAPC  C216 4640   4.052   7.746   4.707  0.1159 -0.3008  0.2902
   60SAPC  H16R 4641   4.007   7.805   4.790 -0.1678  0.3804 -0.3310
   60SAPC  H16S 4642   3.994   7.787   4.622  0.7087 -0.8098 -0.3626
   60SAPC  C217 4643   4.198   7.767   4.672 -0.0626  0.2197 -0.4895
   60SAPC  H17R 4644   4.226   7.699   4.588  1.6447  0.7462 -0.3915
   60SAPC  H17S 4645   4.262   7.726   4.753 -0.7571  0.9302  0.4321
   60SAPC  C218 4646   4.240   7.913   4.653 -0.1656 -0.2251 -0.1960
   60SAPC  H18R 4647   4.188   7.951   4.562 -0.0857  0.5441  0.0657
   60SAPC  H18S 4648   4.346   7.911   4.622  0.6046  2.0161  1.9979
   60SAPC  C219 4649   4.207   8.010   4.769  0.2966  0.2489  0.6059
   60SAPC  H19R 4650   4.237   7.963   4.865  1.9471 -1.3196 -0.6003
   60SAPC  H19S 4651   4.098   8.027   4.765  0.3186  0.2155 -2.0716
   60SAPC  C220 4652   4.289   8.142   4.755  0.2219 -0.0248  0.0477
   60SAPC  H20R 4653   4.275   8.196   4.851 -1.4120 -1.0116  0.4051
   60SAPC  H20S 4654   4.250   8.207   4.674 -0.5522  0.0902  0.4980
   60SAPC  H20T 4655   4.395   8.115   4.733 -0.4532 -4.0343  0.7847
   60SAPC   C33 4656   4.440   7.595   6.075 -0.3049  0.1455  0.1280
   60SAPC   H3X 4657   4.357   7.539   6.027 -0.8395  0.4193  0.7162
   60SAPC   H3Y 4658   4.540   7.551   6.051  0.2439  0.2995  1.9978
   60SAPC   C34 4659   4.444   7.730   6.008  0.0291 -0.7210  0.2308
   60SAPC   H4X 4660   4.518   7.792   6.063 -2.0067  0.7098  1.4928
   60SAPC   H4Y 4661   4.344   7.779   6.017  0.0578 -0.6804  0.3288
   60SAPC   C35 4662   4.482   7.738   5.848  0.0161  0.0956 -0.5309
   60SAPC   H5X 4663   4.574   7.677   5.836 -0.2076 -0.6342  1.1193
   60SAPC   H5Y 4664   4.516   7.841   5.824  2.6356 -0.4913  0.2927
   60SAPC   C36 4665   4.378   7.691   5.748 -0.0364 -0.3123 -0.4295
   60SAPC   H6X 4666   4.287   7.738   5.790  0.6128 -1.0084  1.9162
   60SAPC   H6Y 4667   4.378   7.582   5.767  2.1582 -0.1693  0.8027
   60SAPC   C37 4668   4.401   7.723   5.597  0.0789 -0.2968 -0.1481
   60SAPC   H7X 4669   4.487   7.667   5.555  1.2731  0.8753  0.6998
   60SAPC   H7Y 4670   4.425   7.831   5.587  0.3774 -0.2909  0.6279
   60SAPC   C38 4671   4.279   7.723   5.502 -0.2428  0.5408  0.4198
   60SAPC   H8X 4672   4.196   7.778   5.552  0.8124  0.8642  1.8972
   60SAPC   H8Y 4673   4.236   7.621   5.490 -0.7550  1.0703 -3.1466
   60SAPC   C39 4674   4.322   7.788   5.365 -0.6780  0.1196  0.3484
   60SAPC   H9X 4675   4.351   7.895   5.372 -3.0314  0.8291  0.2181
   60SAPC   H9Y 4676   4.229   7.791   5.305  0.2707  1.9996 -1.1222
   60SAPC  C310 4677   4.410   7.691   5.284  0.5720  0.1351  0.0373
   60SAPC  H10X 4678   4.364   7.590   5.281  1.4114 -0.3719  2.2499
   60SAPC  H10Y 4679   4.505   7.686   5.342 -0.0858 -0.1083  1.1350
   60SAPC  C311 4680   4.410   7.741   5.141 -0.1661  0.1014  0.3575
   60SAPC  H11X 4681   4.412   7.852   5.139 -0.9974  0.1294  0.5685
   60SAPC  H11Y 4682   4.317   7.711   5.088  0.1600  0.4222 -0.4055
   60SAPC  C312 4683   4.534   7.683   5.082 -0.1802 -0.2932  0.3769
   60SAPC  H12X 4684   4.532   7.572   5.091 -1.6990 -0.3756 -0.6512
   60SAPC  H12Y 4685   4.615   7.730   5.142  1.3677 -0.6794 -1.3183
   60SAPC  C313 4686   4.557   7.729   4.938 -0.2375 -0.2677 -0.1365
   60SAPC  H13X 4687   4.550   7.839   4.919 -2.3811 -0.3565 -0.1063
   60SAPC  H13Y 4688   4.473   7.681   4.883  0.8249 -0.0764 -2.0233
   60SAPC  C314 4689   4.697   7.685   4.891  0.4018 -0.0581 -0.2845
   60SAPC  H14X 4690   4.695   7.668   4.782 -0.7206 -1.6129 -0.0471
   60SAPC  H14Y 4691   4.723   7.586   4.936  1.0838 -0.1575 -0.8802
   60SAPC  C315 4692   4.818   7.771   4.923 -0.7104 -0.5542 -0.3306
   60SAPC  H15X 4693   4.814   7.799   5.030  0.8437 -1.0084 -0.1354
   60SAPC  H15Y 4694   4.803   7.864   4.863  1.0637  0.3672  0.5989
   60SAPC  C316 4695   4.944   7.697   4.881 -1.1738 -0.6658 -0.5766
   60SAPC  H16X 4696   4.937   7.601   4.936 -2.9367  0.7578  1.8802
   60SAPC  H16Y 4697   5.034   7.746   4.924 -1.4078  2.0527 -2.8541
   60SAPC  C317 4698   4.961   7.680   4.726  0.6372  0.1536 -0.2880
   60SAPC  H17X 4699   4.965   7.783   4.685 -0.0098  0.7894  1.1867
   60SAPC  H17Y 4700   4.872   7.630   4.682 -0.4069  1.6251  0.0967
   60SAPC  C318 4701   5.096   7.607   4.677 -0.2691  0.0187  0.0428
   60SAPC  H18X 4702   5.086   7.597   4.567  0.3336  1.2633 -0.1398
   60SAPC  H18Y 4703   5.087   7.508   4.726  1.1172  1.3295  3.2060
   60SAPC  H18Z 4704   5.185   7.668   4.706  0.4262 -1.3844  0.9654
   61SAPC     N 4705   2.065   5.510   7.117 -0.2099 -0.1720  0.0647
   61SAPC   C12 4706   2.132   5.397   7.046  0.0082 -1.0856 -0.3025
   61SAPC  H12A 4707   2.118   5.306   7.104 -0.7575  0.3061  1.7954
   61SAPC  H12B 4708   2.238   5.409   7.030  0.0267 -0.2393  0.4106
   61SAPC   C13 4709   2.151   5.553   7.237  0.5330 -0.6037  0.8568
   61SAPC  H13A 4710   2.176   5.472   7.304 -0.0525 -0.3910  1.3431
   61SAPC  H13B 4711   2.245   5.595   7.204 -0.6983  2.6188  1.0991
   61SAPC  H13C 4712   2.098   5.631   7.289 -0.3461 -0.4685 -0.2096
   61SAPC   C14 4713   2.045   5.625   7.032 -0.1551  1.2200  0.5899
   61SAPC  H14A 4714   2.131   5.646   6.970  1.3086 -0.0169  2.0807
   61SAPC  H14B 4715   1.960   5.598   6.972  1.3225 -1.6049 -0.4277
   61SAPC  H14C 4716   2.022   5.713   7.090  0.3428  0.7395  1.5401
   61SAPC   C15 4717   1.935   5.459   7.182  0.0370  0.1177  0.3827
   61SAPC  H15A 4718   1.884   5.532   7.243 -0.6707  0.8825 -1.0691
   61SAPC  H15B 4719   1.855   5.433   7.114  0.4729 -1.4012  0.4155
   61SAPC  H15C 4720   1.954   5.377   7.250 -0.3069 -0.7675 -0.5633
   61SAPC   C11 4721   2.082   5.355   6.903 -0.1315  0.6861  0.1127
   61SAPC  H11A 4722   2.158   5.306   6.838 -1.7439  0.4086 -1.6511
   61SAPC  H11B 4723   2.069   5.450   6.847 -1.4859 -0.5706 -1.8159
   61SAPC     P 4724   1.937   5.124   6.880 -0.3259  0.3830  0.6648
   61SAPC   O13 4725   2.059   5.054   6.931 -0.3597 -0.5277  0.3784
   61SAPC   O14 4726   1.808   5.082   6.936  0.5869 -0.2178 -0.4641
   61SAPC   O12 4727   1.955   5.280   6.893 -0.7559 -0.4793 -0.3298
   61SAPC   O11 4728   1.941   5.107   6.723 -0.2152 -0.1430  0.3528
   61SAPC    C1 4729   1.834   5.168   6.653  0.3072  0.7927  0.1098
   61SAPC    HA 4730   1.753   5.094   6.636 -1.5101  2.6331  0.3655
   61SAPC    HB 4731   1.789   5.256   6.704 -1.0357  0.6874 -0.8641
   61SAPC    C2 4732   1.869   5.213   6.515 -0.9105  0.4943  0.8023
   61SAPC    HS 4733   1.785   5.257   6.457 -0.5283 -0.0880 -0.2093
   61SAPC   O21 4734   1.926   5.094   6.445  0.4266  0.2213  0.9417
   61SAPC   C21 4735   1.840   5.009   6.395 -0.6336  0.0131  0.6482
   61SAPC   O22 4736   1.723   5.028   6.389  0.2017 -0.2905  0.1542
   61SAPC   C22 4737   1.922   4.890   6.339  0.6719  0.0305 -0.4261
   61SAPC   H2R 4738   2.030   4.912   6.329  1.0050 -0.9549  0.6835
   61SAPC   H2S 4739   1.910   4.807   6.412 -0.6870 -0.9623 -1.7231
   61SAPC    C3 4740   1.971   5.329   6.537  0.3796  0.3090 -0.0072
   61SAPC    HX 4741   2.047   5.280   6.602 -2.3404 -3.7101  0.5304
   61SAPC    HY 4742   1.920   5.407   6.598 -0.1945 -1.0339  1.2936
   61SAPC   O31 4743   2.018   5.379   6.409  0.5861  0.0980 -0.1924
   61SAPC   C31 4744   2.117   5.475   6.426 -0.0660  0.4920  0.7574
   61SAPC   O32 4745   2.160   5.513   6.525  0.3571 -0.4764 -0.3261
   61SAPC   C32 4746   2.175   5.509   6.294  0.2108 -0.5973 -0.2198
   61SAPC   H2X 4747   2.115   5.590   6.247  0.4691  0.0666  0.5501
   61SAPC   H2Y 4748   2.164   5.417   6.235 -1.5610 -1.9242  2.0167
   61SAPC   C23 4749   1.857   4.839   6.209 -0.2144  0.2535  0.5470
   61SAPC   H3R 4750   1.746   4.828   6.219 -0.4299  1.3662 -0.3905
   61SAPC   H3S 4751   1.899   4.740   6.182 -3.5336 -1.1715  0.0124
   61SAPC   C24 4752   1.867   4.932   6.088 -0.9160  0.4147 -0.1396
   61SAPC   H4R 4753   1.840   5.033   6.125 -0.5506  0.3207  0.3932
   61SAPC   H4S 4754   1.793   4.890   6.017 -2.9534  2.3933  0.7060
   61SAPC   C25 4755   2.000   4.913   6.024 -0.2821 -0.5975  0.1051
   61SAPC   H5R 4756   2.032   4.808   6.010 -0.4285 -0.6417  0.0988
   61SAPC   C26 4757   2.087   5.010   6.002  0.6128  0.1034  0.2137
   61SAPC   H6R 4758   2.188   4.995   5.961  0.8203  0.6861  0.4992
   61SAPC   C27 4759   2.066   5.158   6.013 -0.2576  0.2871 -0.0164
   61SAPC   H7R 4760   2.072   5.186   6.120  1.1148  3.8851 -0.8828
   61SAPC   H7S 4761   1.965   5.195   5.983  0.0402  3.4900  2.4279
   61SAPC   C28 4762   2.172   5.241   5.946  0.3757  0.0102 -0.4913
   61SAPC   H8R 4763   2.251   5.293   6.002 -1.4164  1.6045  0.6502
   61SAPC   C29 4764   2.173   5.245   5.811  0.3030 -1.0309  0.8698
   61SAPC   H9R 4765   2.254   5.305   5.767 -0.4064  0.2732  1.3024
   61SAPC  C210 4766   2.073   5.182   5.716  0.0087  0.6527 -0.6616
   61SAPC  H10R 4767   2.030   5.267   5.659  1.6360  1.6060 -0.4959
   61SAPC  H10S 4768   1.987   5.142   5.774  2.2934 -2.1309  1.0706
   61SAPC  C211 4769   2.131   5.067   5.649  0.4853  0.7423 -0.0865
   61SAPC  H11R 4770   2.172   4.988   5.713 -0.2561 -0.3229 -0.8870
   61SAPC  C212 4771   2.141   5.035   5.517 -0.1041  0.3850 -0.3838
   61SAPC  H12R 4772   2.183   4.935   5.503 -1.3801 -0.3518  0.7506
   61SAPC  C213 4773   2.088   5.102   5.394 -0.1747  0.3932 -0.0139
   61SAPC  H13R 4774   1.980   5.120   5.415 -0.6178  0.2360 -1.9563
   61SAPC  H13S 4775   2.107   5.049   5.299  2.9121  0.0289  0.7103
   61SAPC  C214 4776   2.151   5.241   5.382  0.0826  0.7379 -0.7243
   61SAPC  H14R 4777   2.206   5.270   5.473  0.8036 -0.0548 -0.9009
   61SAPC  C215 4778   2.150   5.316   5.277  0.2115 -0.5561 -1.0234
   61SAPC  H15R 4779   2.210   5.407   5.286 -1.9755  0.7667  2.1604
   61SAPC  C216 4780   2.082   5.286   5.144 -0.4997 -0.4213 -0.3147
   61SAPC  H16R 4781   2.032   5.188   5.132 -1.1072 -0.0186 -1.1574
   61SAPC  H16S 4782   2.167   5.293   5.073  1.0166  1.4769  1.5528
   61SAPC  C217 4783   1.965   5.379   5.098 -0.2427  0.3958  0.0824
   61SAPC  H17R 4784   1.913   5.316   5.022 -0.1758 -1.8748  1.8352
   61SAPC  H17S 4785   1.990   5.482   5.063 -0.9400  1.1940  1.8478
   61SAPC  C218 4786   1.862   5.394   5.213  0.0485 -0.6294 -0.1420
   61SAPC  H18R 4787   1.916   5.410   5.309 -1.5216 -0.4306  0.7553
   61SAPC  H18S 4788   1.805   5.299   5.207 -2.7757  0.9085  0.4715
   61SAPC  C219 4789   1.756   5.509   5.189 -0.3319 -0.1017 -0.3295
   61SAPC  H19R 4790   1.722   5.502   5.084 -1.0161  1.2810 -0.2237
   61SAPC  H19S 4791   1.796   5.610   5.213  0.1226 -0.1940 -0.6914
   61SAPC  C220 4792   1.638   5.489   5.281 -0.6450  0.5032  0.1139
   61SAPC  H20R 4793   1.557   5.560   5.254  0.4953  1.9819  0.4395
   61SAPC  H20S 4794   1.673   5.491   5.387  0.0041  0.5670 -0.1003
   61SAPC  H20T 4795   1.601   5.385   5.270 -1.2542  0.7932 -0.6908
   61SAPC   C33 4796   2.325   5.554   6.298 -0.7045 -0.6039  0.2427
   61SAPC   H3X 4797   2.389   5.463   6.295  0.7647  0.3574  1.2190
   61SAPC   H3Y 4798   2.364   5.596   6.393  0.1716 -2.3090  0.6730
   61SAPC   C34 4799   2.378   5.647   6.179  0.4653 -0.1374 -0.2762
   61SAPC   H4X 4800   2.488   5.660   6.189  0.5518 -0.9843 -0.0906
   61SAPC   H4Y 4801   2.335   5.744   6.212 -1.9090 -1.1391 -0.1829
   61SAPC   C35 4802   2.337   5.597   6.039  0.5466 -0.0417 -0.2572
   61SAPC   H5X 4803   2.233   5.629   6.015  0.7982  1.1499  0.1681
   61SAPC   H5Y 4804   2.348   5.486   6.041 -0.9494 -0.2486 -1.5356
   61SAPC   C36 4805   2.432   5.642   5.922  0.4448 -0.3466 -0.1958
   61SAPC   H6X 4806   2.532   5.594   5.933  1.9457  2.8122  1.0312
   61SAPC   H6Y 4807   2.440   5.752   5.924  0.1687 -0.3319  0.7170
   61SAPC   C37 4808   2.368   5.605   5.786 -0.1075  0.4807  0.0734
   61SAPC   H7X 4809   2.278   5.664   5.758  0.0667  0.6215 -0.1927
   61SAPC   H7Y 4810   2.353   5.496   5.799  2.7361 -0.0046 -0.2349
   61SAPC   C38 4811   2.461   5.634   5.673 -0.5182 -0.0011  0.2836
   61SAPC   H8X 4812   2.549   5.568   5.689 -1.8281 -1.9255 -0.1638
   61SAPC   H8Y 4813   2.496   5.740   5.672 -2.6009  0.7574  1.7836
   61SAPC   C39 4814   2.402   5.590   5.538 -0.3695 -0.5310 -0.1438
   61SAPC   H9X 4815   2.318   5.658   5.515  0.4980  0.0258 -1.8849
   61SAPC   H9Y 4816   2.381   5.481   5.544  0.3700 -0.7083 -0.5907
   61SAPC  C310 4817   2.506   5.606   5.422  0.1664 -0.1526  0.1284
   61SAPC  H10X 4818   2.600   5.564   5.461 -0.5157 -3.1604 -1.1586
   61SAPC  H10Y 4819   2.515   5.714   5.401  0.2081 -0.3482 -0.9056
   61SAPC  C311 4820   2.456   5.536   5.298 -0.1727  0.1269  0.0628
   61SAPC  H11X 4821   2.352   5.570   5.276 -1.3078 -3.7213 -1.2629
   61SAPC  H11Y 4822   2.451   5.428   5.323  1.2778  0.2237  0.8338
   61SAPC  C312 4823   2.555   5.556   5.180 -0.1283 -0.1085 -0.9362
   61SAPC  H12X 4824   2.652   5.566   5.233 -0.5159  0.4487 -0.3088
   61SAPC  H12Y 4825   2.529   5.649   5.124  1.2986  2.2018  1.9419
   61SAPC  C313 4826   2.556   5.431   5.085  0.7787 -0.2733  0.5121
   61SAPC  H13X 4827   2.454   5.445   5.041  1.7801  1.5018 -1.4299
   61SAPC  H13Y 4828   2.561   5.335   5.140  0.4032 -1.1217 -0.8621
   61SAPC  C314 4829   2.642   5.455   4.956 -0.2227  0.4447 -0.3477
   61SAPC  H14X 4830   2.649   5.350   4.921  0.2033 -0.1814  1.4861
   61SAPC  H14Y 4831   2.747   5.484   4.979 -0.4439 -0.2322  1.8043
   61SAPC  C315 4832   2.582   5.550   4.856 -0.4960 -0.4683  0.1047
   61SAPC  H15X 4833   2.600   5.657   4.878 -1.1255  0.2227 -2.4486
   61SAPC  H15Y 4834   2.473   5.536   4.839 -1.0520  0.3875  2.5666
   61SAPC  C316 4835   2.638   5.524   4.714  0.2934 -0.0680 -0.4530
   61SAPC  H16X 4836   2.643   5.416   4.689 -0.4722 -0.0939 -0.5222
   61SAPC  H16Y 4837   2.744   5.555   4.720  0.6013 -1.4582  3.6013
   61SAPC  C317 4838   2.562   5.603   4.606  0.4165  0.4304 -0.7218
   61SAPC  H17X 4839   2.556   5.708   4.641 -2.8867  0.7795 -2.0152
   61SAPC  H17Y 4840   2.456   5.572   4.600  0.1521  1.1968 -0.2406
   61SAPC  C318 4841   2.623   5.595   4.468 -0.1616 -0.1295 -0.0584
   61SAPC  H18X 4842   2.559   5.649   4.394 -0.8068 -3.0749 -1.8300
   61SAPC  H18Y 4843   2.634   5.491   4.430 -4.1638 -1.2261  1.2162
   61SAPC  H18Z 4844   2.722   5.645   4.470 -0.5273  0.6146  2.6323
   62SAPC     N 4845   1.341   2.906   7.032 -0.0421 -0.5453  0.3235
   62SAPC   C12 4846   1.349   2.834   6.895 -0.1687 -0.4681 -0.5889
   62SAPC  H12A 4847   1.454   2.808   6.883  0.3820  1.1300  0.4015
   62SAPC  H12B 4848   1.319   2.901   6.815  1.1747  3.6425  2.0400
   62SAPC   C13 4849   1.447   3.010   7.032 -0.2869 -0.4225 -0.4323
   62SAPC  H13A 4850   1.544   2.962   7.023  0.0751  0.4875 -1.8173
   62SAPC  H13B 4851   1.438   3.081   6.951  1.4743  0.1994 -0.1347
   62SAPC  H13C 4852   1.437   3.073   7.119 -0.3340  1.3648 -1.6739
   62SAPC   C14 4853   1.206   2.978   7.026  0.1724 -0.5795 -0.0178
   62SAPC  H14A 4854   1.131   2.903   7.005 -0.2840  0.3371 -1.8859
   62SAPC  H14B 4855   1.181   3.043   7.109 -1.8805  0.8675 -1.6757
   62SAPC  H14C 4856   1.200   3.042   6.940 -1.2537 -1.4742 -0.6190
   62SAPC   C15 4857   1.343   2.818   7.157 -0.0170  1.1485  0.1717
   62SAPC  H15A 4858   1.328   2.887   7.239 -1.0740  1.3655 -0.1899
   62SAPC  H15B 4859   1.267   2.742   7.155  1.1200 -0.1341  2.2080
   62SAPC  H15C 4860   1.438   2.768   7.169 -1.6826 -2.6937 -1.1429
   62SAPC   C11 4861   1.264   2.710   6.881  0.5063 -0.1220  0.7709
   62SAPC  H11A 4862   1.286   2.649   6.972  0.0330  0.2622  1.1466
   62SAPC  H11B 4863   1.304   2.655   6.793 -1.6199  1.0303 -1.0038
   62SAPC     P 4864   1.063   2.799   6.741  0.1682  0.0488 -0.0261
   62SAPC   O13 4865   0.930   2.738   6.715  0.0536  0.2411  0.1680
   62SAPC   O14 4866   1.071   2.946   6.745 -0.1174 -0.4365  0.0252
   62SAPC   O12 4867   1.128   2.741   6.873 -0.6222  0.4454 -0.3639
   62SAPC   O11 4868   1.169   2.755   6.633 -0.5513  0.6530 -0.5244
   62SAPC    C1 4869   1.141   2.669   6.515 -0.7402 -0.4396  0.0438
   62SAPC    HA 4870   1.074   2.588   6.551  0.1926 -1.1401  0.2617
   62SAPC    HB 4871   1.110   2.729   6.427  0.7387  3.2268  1.8177
   62SAPC    C2 4872   1.278   2.606   6.474 -0.6264  0.2726  0.3479
   62SAPC    HS 4873   1.308   2.551   6.566 -0.2976  1.0395  0.7058
   62SAPC   O21 4874   1.380   2.702   6.439  0.0370 -0.9120 -0.4102
   62SAPC   C21 4875   1.506   2.652   6.453 -0.8210  0.6015 -0.1444
   62SAPC   O22 4876   1.536   2.539   6.494 -0.0629  0.0148  0.1919
   62SAPC   C22 4877   1.615   2.743   6.404  0.5105  0.0861  0.2106
   62SAPC   H2R 4878   1.638   2.817   6.484  2.4406 -1.4180  1.1618
   62SAPC   H2S 4879   1.712   2.689   6.394 -0.7769 -2.0339 -2.0411
   62SAPC    C3 4880   1.254   2.501   6.361  0.1013  0.5715 -0.0780
   62SAPC    HX 4881   1.157   2.455   6.390 -0.7344  0.6706 -2.5335
   62SAPC    HY 4882   1.338   2.428   6.359 -2.3055 -2.3734 -0.5900
   62SAPC   O31 4883   1.230   2.562   6.229  0.5688 -0.2152  0.6516
   62SAPC   C31 4884   1.242   2.475   6.134 -0.1546 -0.3805 -0.0044
   62SAPC   O32 4885   1.262   2.352   6.151 -0.1078 -0.9880 -0.2778
   62SAPC   C32 4886   1.229   2.534   5.999 -0.3401 -0.0969  0.0312
   62SAPC   H2X 4887   1.271   2.635   5.981 -0.9646 -0.0338 -1.2013
   62SAPC   H2Y 4888   1.119   2.546   5.987 -0.4120  0.5220  1.1488
   62SAPC   C23 4889   1.575   2.817   6.269 -0.5859 -0.3446 -0.3168
   62SAPC   H3R 4890   1.479   2.871   6.275 -1.6594 -1.9157 -2.1184
   62SAPC   H3S 4891   1.549   2.739   6.194  0.6709  0.3012 -1.4799
   62SAPC   C24 4892   1.685   2.914   6.214 -0.6251  0.1389 -0.1620
   62SAPC   H4R 4893   1.773   2.857   6.175 -1.0765 -1.0360  0.5027
   62SAPC   H4S 4894   1.721   2.982   6.293  2.7922 -1.6307  0.0325
   62SAPC   C25 4895   1.631   2.997   6.098  0.0041 -0.2850  0.1321
   62SAPC   H5R 4896   1.577   3.084   6.138  0.2337 -0.1492  0.1485
   62SAPC   C26 4897   1.636   2.964   5.966  0.1361  0.6871 -0.4327
   62SAPC   H6R 4898   1.604   3.041   5.895 -1.6021 -0.6944 -1.2218
   62SAPC   C27 4899   1.688   2.834   5.912 -0.2343  0.0582 -0.0448
   62SAPC   H7R 4900   1.735   2.772   5.991 -3.5586 -2.1387  0.4265
   62SAPC   H7S 4901   1.771   2.857   5.842  0.1323 -1.1561 -0.0369
   62SAPC   C28 4902   1.574   2.754   5.851 -0.2215  0.3555  0.6951
   62SAPC   H8R 4903   1.487   2.738   5.916  0.7299 -2.7458  1.3637
   62SAPC   C29 4904   1.585   2.677   5.736  0.4068 -0.1967  0.0948
   62SAPC   H9R 4905   1.486   2.638   5.707 -0.9505  4.2302 -2.1316
   62SAPC  C210 4906   1.705   2.665   5.651  1.2629 -0.7478 -0.1056
   62SAPC  H10R 4907   1.795   2.696   5.707  0.7186 -0.8152  0.8326
   62SAPC  H10S 4908   1.707   2.740   5.569  0.6830 -0.2885  0.2937
   62SAPC  C211 4909   1.714   2.524   5.598  0.4621  0.2231  0.1154
   62SAPC  H11R 4910   1.779   2.459   5.658  1.4240  1.2374  0.1997
   62SAPC  C212 4911   1.676   2.478   5.477 -0.1479 -0.1138 -0.7234
   62SAPC  H12R 4912   1.689   2.372   5.451  0.5828 -0.1321 -0.3207
   62SAPC  C213 4913   1.609   2.563   5.368  0.3580 -0.4373  0.3375
   62SAPC  H13R 4914   1.547   2.646   5.408 -1.4131 -0.9706 -1.1070
   62SAPC  H13S 4915   1.537   2.510   5.301 -0.2337 -1.5632  1.8234
   62SAPC  C214 4916   1.720   2.615   5.279 -0.0001  0.2670 -0.1579
   62SAPC  H14R 4917   1.800   2.671   5.329 -0.1123 -1.0841  1.6446
   62SAPC  C215 4918   1.726   2.606   5.146 -0.0618  0.1480 -0.1574
   62SAPC  H15R 4919   1.818   2.637   5.094  0.3022 -1.5037 -0.5540
   62SAPC  C216 4920   1.636   2.528   5.052  0.3028 -0.2454  0.2451
   62SAPC  H16R 4921   1.602   2.599   4.974 -0.1764 -0.9568 -0.2006
   62SAPC  H16S 4922   1.541   2.488   5.094  0.0937  0.8016  0.8259
   62SAPC  C217 4923   1.704   2.410   4.975 -0.2314  0.5404  0.5277
   62SAPC  H17R 4924   1.742   2.331   5.043  1.0623 -0.1332 -0.9149
   62SAPC  H17S 4925   1.786   2.456   4.917 -0.9957  1.7545  0.3730
   62SAPC  C218 4926   1.605   2.333   4.879  0.5428  0.3303  0.8199
   62SAPC  H18R 4927   1.547   2.406   4.818 -0.0194 -2.1071 -1.7909
   62SAPC  H18S 4928   1.523   2.275   4.927 -0.5630  1.3362  0.2183
   62SAPC  C219 4929   1.679   2.252   4.781  0.0916  0.2710  0.3274
   62SAPC  H19R 4930   1.700   2.154   4.828 -0.9412 -0.1588 -0.0646
   62SAPC  H19S 4931   1.773   2.306   4.758 -0.7558  1.1612 -1.2802
   62SAPC  C220 4932   1.606   2.228   4.651 -0.6253 -0.2516  0.4649
   62SAPC  H20R 4933   1.654   2.168   4.571 -1.0312  1.9761 -1.5484
   62SAPC  H20S 4934   1.588   2.328   4.606  2.7666 -0.1071 -0.8187
   62SAPC  H20T 4935   1.506   2.188   4.678 -0.0186 -1.5704  0.8195
   62SAPC   C33 4936   1.282   2.438   5.894  0.1986 -0.2402  1.0303
   62SAPC   H3X 4937   1.244   2.336   5.918  0.4198 -0.0318  2.3459
   62SAPC   H3Y 4938   1.393   2.431   5.895  0.2513 -0.0247 -0.9241
   62SAPC   C34 4939   1.236   2.482   5.753  0.0908  0.0664  0.1070
   62SAPC   H4X 4940   1.284   2.580   5.732  0.4042 -0.5439 -2.2963
   62SAPC   H4Y 4941   1.126   2.489   5.745 -0.2074 -0.5737  2.7186
   62SAPC   C35 4942   1.290   2.387   5.645  0.5809 -0.4251 -0.3601
   62SAPC   H5X 4943   1.242   2.288   5.664 -0.3995 -0.1695 -1.3806
   62SAPC   H5Y 4944   1.401   2.380   5.644  0.5277 -1.4638 -0.1176
   62SAPC   C36 4945   1.244   2.427   5.496 -0.1250  0.5427 -0.5538
   62SAPC   H6X 4946   1.282   2.531   5.485 -3.8451  2.5529  2.8059
   62SAPC   H6Y 4947   1.134   2.414   5.489  0.2924 -3.2283 -1.7991
   62SAPC   C37 4948   1.309   2.322   5.410  0.7592 -0.5768  0.4576
   62SAPC   H7X 4949   1.267   2.226   5.447  0.0320 -0.5685 -0.3124
   62SAPC   H7Y 4950   1.419   2.318   5.421  0.6374 -1.1227  1.6655
   62SAPC   C38 4951   1.276   2.337   5.261 -0.6298 -0.3909  0.5773
   62SAPC   H8X 4952   1.320   2.428   5.216 -0.7678  0.0325  1.2948
   62SAPC   H8Y 4953   1.166   2.347   5.248 -0.4822 -0.3274 -0.8548
   62SAPC   C39 4954   1.322   2.200   5.201 -0.3923 -0.2694 -0.3341
   62SAPC   H9X 4955   1.316   2.204   5.090  2.9245 -0.5934 -0.6360
   62SAPC   H9Y 4956   1.246   2.130   5.240 -1.4436  0.9219 -0.2018
   62SAPC  C310 4957   1.463   2.147   5.240 -0.4502  0.3405  0.8258
   62SAPC  H10X 4958   1.465   2.124   5.348 -1.2165 -1.8246  0.4183
   62SAPC  H10Y 4959   1.541   2.224   5.220  0.4402 -0.5903  0.6181
   62SAPC  C311 4960   1.488   2.012   5.173 -0.6275 -0.0460  0.6473
   62SAPC  H11X 4961   1.444   2.010   5.071  2.3894  0.8853 -0.7711
   62SAPC  H11Y 4962   1.440   1.930   5.231 -0.3019  0.8496  2.2544
   62SAPC  C312 4963   1.640   1.967   5.168 -0.1157  0.4659 -0.9878
   62SAPC  H12X 4964   1.695   2.053   5.123 -0.3941  2.2179  1.7865
   62SAPC  H12Y 4965   1.643   1.878   5.101  2.1616  0.3591 -0.8252
   62SAPC  C313 4966   1.706   1.949   5.304 -0.6591  0.1205 -0.0907
   62SAPC  H13X 4967   1.721   2.049   5.350  2.9010 -0.0340 -0.6175
   62SAPC  H13Y 4968   1.804   1.907   5.271 -1.1680 -0.6398 -0.6472
   62SAPC  C314 4969   1.649   1.859   5.405  0.1817  0.5327  0.1992
   62SAPC  H14X 4970   1.557   1.902   5.451 -0.7318 -0.6581 -0.4316
   62SAPC  H14Y 4971   1.730   1.854   5.481  1.9876 -1.2584 -1.7014
   62SAPC  C315 4972   1.607   1.719   5.366 -0.0796  0.7431  0.5508
   62SAPC  H15X 4973   1.686   1.668   5.306  1.7591  0.7131  2.8474
   62SAPC  H15Y 4974   1.516   1.722   5.302  0.3409 -2.7981 -0.4802
   62SAPC  C316 4975   1.569   1.627   5.483  0.2205  0.6008 -0.6763
   62SAPC  H16X 4976   1.664   1.625   5.540  1.6192  1.2615 -2.8580
   62SAPC  H16Y 4977   1.547   1.525   5.445  0.3028  0.8808 -1.5000
   62SAPC  C317 4978   1.457   1.683   5.572  0.8924 -0.8967  0.1024
   62SAPC  H17X 4979   1.367   1.687   5.508  0.0929 -3.1096  1.0033
   62SAPC  H17Y 4980   1.486   1.783   5.612 -0.2597 -0.0897 -0.9961
   62SAPC  C318 4981   1.427   1.590   5.691 -0.6463 -0.0471 -0.5123
   62SAPC  H18X 4982   1.522   1.562   5.741 -0.7843  0.7908  0.2432
   62SAPC  H18Y 4983   1.382   1.492   5.665  1.0764 -0.9107 -0.3762
   62SAPC  H18Z 4984   1.365   1.658   5.754 -1.2989 -1.6137  0.6217
   63SAPC     N 4985   5.328   0.500   6.904 -0.1162  0.6709  0.2927
   63SAPC   C12 4986   5.300   0.626   6.819  0.1192 -0.0750  0.7105
   63SAPC  H12A 4987   5.355   0.606   6.728 -0.5541 -1.9228  0.6595
   63SAPC  H12B 4988   5.347   0.713   6.861 -1.2230  1.1977 -0.3430
   63SAPC   C13 4989   5.251   0.514   7.028  0.2588 -0.1042  0.1528
   63SAPC  H13A 4990   5.280   0.435   7.096  1.1323 -0.6748 -0.8561
   63SAPC  H13B 4991   5.251   0.615   7.067 -3.4621  0.3340 -0.6362
   63SAPC  H13C 4992   5.147   0.494   7.011  0.1103  0.1052  0.7802
   63SAPC   C14 4993   5.286   0.377   6.832 -0.8307  0.9116  0.2016
   63SAPC  H14A 4994   5.333   0.286   6.869 -0.8751 -0.4470 -2.7872
   63SAPC  H14B 4995   5.179   0.365   6.836 -0.9178 -0.4411 -2.9301
   63SAPC  H14C 4996   5.327   0.367   6.732  0.2856  1.0684  0.6204
   63SAPC   C15 4997   5.470   0.487   6.936  0.4550 -0.0913  0.7575
   63SAPC  H15A 4998   5.492   0.401   6.997 -1.4287 -1.1268  0.0699
   63SAPC  H15B 4999   5.510   0.454   6.842  0.6465  2.8750 -0.2985
   63SAPC  H15C 5000   5.513   0.580   6.972 -1.8167  0.7419  1.5680
   63SAPC   C11 5001   5.154   0.655   6.783  0.0463  1.0075  0.3795
   63SAPC  H11A 5002   5.111   0.558   6.750  0.2214  1.1918 -0.4110
   63SAPC  H11B 5003   5.153   0.723   6.695  3.6337  0.4081 -0.2525
   63SAPC     P 5004   5.119   0.864   6.936 -0.3597  0.1079 -0.8364
   63SAPC   O13 5005   4.996   0.945   6.929 -0.0086  0.1056 -0.1399
   63SAPC   O14 5006   5.181   0.869   7.070 -0.0382  0.3228 -0.0766
   63SAPC   O12 5007   5.086   0.716   6.898 -0.2689  0.7335  0.8623
   63SAPC   O11 5008   5.216   0.922   6.822  0.0844  0.6010 -0.8800
   63SAPC    C1 5009   5.155   1.013   6.729  0.1291  0.0673  0.0148
   63SAPC    HA 5010   5.068   0.965   6.679 -0.9294  0.6176  1.2837
   63SAPC    HB 5011   5.120   1.102   6.785 -0.0885 -0.8186  1.3370
   63SAPC    C2 5012   5.244   1.056   6.609 -0.0173 -0.8358 -0.5457
   63SAPC    HS 5013   5.180   1.116   6.541 -1.7627  0.6480  2.2121
   63SAPC   O21 5014   5.287   0.932   6.547 -0.3617  0.2929 -0.0714
   63SAPC   C21 5015   5.293   0.935   6.412 -0.0125 -0.5725 -0.0553
   63SAPC   O22 5016   5.259   1.030   6.342  0.1824  0.0798  0.4004
   63SAPC   C22 5017   5.354   0.806   6.345  0.2453  0.5388  0.0618
   63SAPC   H2R 5018   5.449   0.792   6.401  1.7596  1.0170 -2.2466
   63SAPC   H2S 5019   5.291   0.715   6.359  0.3321  0.2456 -1.3079
   63SAPC    C3 5020   5.364   1.136   6.661  1.2652  0.2860 -1.1074
   63SAPC    HX 5021   5.425   1.063   6.719  0.2098 -1.0438 -1.6160
   63SAPC    HY 5022   5.337   1.208   6.742  3.5459  2.1154 -1.8355
   63SAPC   O31 5023   5.453   1.187   6.567 -0.2945  0.1536  0.1211
   63SAPC   C31 5024   5.408   1.308   6.521 -0.4564  0.0561  0.1985
   63SAPC   O32 5025   5.309   1.365   6.564 -0.2794 -0.0314 -0.0584
   63SAPC   C32 5026   5.511   1.341   6.411  0.3807  0.8612  0.8329
   63SAPC   H2X 5027   5.486   1.439   6.364  0.4944  1.0375  1.1419
   63SAPC   H2Y 5028   5.498   1.262   6.334  0.6506  0.0298  1.6329
   63SAPC   C23 5029   5.388   0.828   6.191 -0.5222 -0.1735  0.0399
   63SAPC   H3R 5030   5.459   0.913   6.186  0.7865 -1.2830 -1.1308
   63SAPC   H3S 5031   5.296   0.866   6.143  0.0787  0.6091 -0.5156
   63SAPC   C24 5032   5.447   0.707   6.124 -0.5949  0.5589  0.2850
   63SAPC   H4R 5033   5.372   0.630   6.097  0.0277  0.0912 -0.1157
   63SAPC   H4S 5034   5.524   0.663   6.190 -0.8452  0.9963  0.8814
   63SAPC   C25 5035   5.514   0.742   5.995  0.1009 -0.2347  0.0329
   63SAPC   H5R 5036   5.622   0.761   6.000  0.2221 -0.4781 -1.1990
   63SAPC   C26 5037   5.448   0.770   5.882 -0.0462 -0.2846  0.4689
   63SAPC   H6R 5038   5.504   0.771   5.787 -0.7113  0.8136  0.0679
   63SAPC   C27 5039   5.303   0.746   5.857 -0.2119 -0.1886  0.0870
   63SAPC   H7R 5040   5.265   0.833   5.800 -0.7971  0.1885  1.0276
   63SAPC   H7S 5041   5.234   0.746   5.944 -1.0318 -0.2009 -0.5480
   63SAPC   C28 5042   5.293   0.609   5.789  0.5532 -0.1173  0.4748
   63SAPC   H8R 5043   5.280   0.524   5.858 -0.3430 -0.1814  0.2358
   63SAPC   C29 5044   5.274   0.582   5.661 -0.3685 -0.2855 -0.0483
   63SAPC   H9R 5045   5.282   0.475   5.637  1.5887 -0.8836  2.8155
   63SAPC  C210 5046   5.265   0.672   5.542  0.0466  0.1284 -0.0838
   63SAPC  H10R 5047   5.236   0.767   5.591 -3.4658 -0.7414 -0.2132
   63SAPC  H10S 5048   5.185   0.636   5.473 -0.5119  1.5774 -0.2252
   63SAPC  C211 5049   5.386   0.695   5.463 -0.3256  0.7509  0.1728
   63SAPC  H11R 5050   5.477   0.688   5.524 -0.1845  0.7249 -0.0411
   63SAPC  C212 5051   5.385   0.730   5.331 -0.0294 -0.5886 -0.6832
   63SAPC  H12R 5052   5.478   0.740   5.273 -0.4267  1.0322 -1.0946
   63SAPC  C213 5053   5.260   0.758   5.256 -0.2138 -0.0788  0.1638
   63SAPC  H13R 5054   5.185   0.812   5.317 -1.1605  1.8887 -2.5241
   63SAPC  H13S 5055   5.220   0.655   5.248 -0.8215  0.0637  1.2309
   63SAPC  C214 5056   5.289   0.835   5.129  0.0961 -0.1070  0.2160
   63SAPC  H14R 5057   5.284   0.945   5.137 -0.8234 -0.1788  0.7643
   63SAPC  C215 5058   5.306   0.784   5.007  0.3233  0.1189 -0.1432
   63SAPC  H15R 5059   5.341   0.849   4.926  0.1146  1.4644  0.8212
   63SAPC  C216 5060   5.316   0.644   4.979  0.1253 -0.0500 -0.3581
   63SAPC  H16R 5061   5.224   0.599   4.937 -0.9579  0.2736  1.5241
   63SAPC  H16S 5062   5.322   0.569   5.062  1.7312 -1.5836 -1.7810
   63SAPC  C217 5063   5.428   0.595   4.887  0.0408 -0.0103  1.1753
   63SAPC  H17R 5064   5.527   0.616   4.931  0.7180  0.4521 -0.4834
   63SAPC  H17S 5065   5.434   0.656   4.794  0.8019 -0.1642  1.1205
   63SAPC  C218 5066   5.427   0.445   4.855 -0.4742  0.6006  0.7685
   63SAPC  H18R 5067   5.343   0.421   4.786  2.2133  0.6502 -2.8028
   63SAPC  H18S 5068   5.406   0.377   4.940  1.1934 -1.5993 -0.4856
   63SAPC  C219 5069   5.560   0.403   4.798 -0.0872  0.2071  0.0468
   63SAPC  H19R 5070   5.634   0.401   4.881 -0.6826 -0.4775  0.5794
   63SAPC  H19S 5071   5.580   0.471   4.712 -1.2881  1.4622  0.7353
   63SAPC  C220 5072   5.555   0.262   4.736  0.1217 -0.0025 -0.4814
   63SAPC  H20R 5073   5.501   0.269   4.639  1.6809 -1.3970 -1.5118
   63SAPC  H20S 5074   5.491   0.188   4.788  0.6357  0.5201  0.9449
   63SAPC  H20T 5075   5.657   0.228   4.710  0.0401 -1.0725  0.5348
   63SAPC   C33 5076   5.648   1.326   6.469 -0.1736 -0.2693  0.7404
   63SAPC   H3X 5077   5.677   1.222   6.491  3.9846  0.4694 -0.3726
   63SAPC   H3Y 5078   5.653   1.393   6.557  0.1708 -0.2146  0.6801
   63SAPC   C34 5079   5.762   1.375   6.375  0.0085  0.3805  0.0324
   63SAPC   H4X 5080   5.738   1.340   6.273 -1.5778 -0.1432  0.5432
   63SAPC   H4Y 5081   5.857   1.330   6.411 -0.7019  0.0159  1.5480
   63SAPC   C35 5082   5.766   1.529   6.361  0.2697  0.3401  0.3762
   63SAPC   H5X 5083   5.787   1.574   6.461  0.5445  0.5698  0.2142
   63SAPC   H5Y 5084   5.669   1.571   6.329  1.9217  2.1876 -2.5549
   63SAPC   C36 5085   5.870   1.583   6.257  1.0177 -0.3236 -0.7974
   63SAPC   H6X 5086   5.967   1.537   6.285  0.3206 -2.3668 -1.5515
   63SAPC   H6Y 5087   5.874   1.694   6.268 -0.4279 -0.1857 -1.4067
   63SAPC   C37 5088   5.832   1.538   6.113  0.1458 -0.2336  0.2334
   63SAPC   H7X 5089   5.823   1.428   6.105 -0.2656 -0.0667 -3.0971
   63SAPC   H7Y 5090   5.922   1.564   6.053  0.9746 -0.4517  1.3593
   63SAPC   C38 5091   5.708   1.607   6.060  0.0464 -0.7016  0.2706
   63SAPC   H8X 5092   5.710   1.718   6.065  0.9567 -0.7420  1.3450
   63SAPC   H8Y 5093   5.629   1.581   6.134 -1.5126  0.4505 -0.9090
   63SAPC   C39 5094   5.668   1.555   5.919  0.2369 -0.0068 -0.4922
   63SAPC   H9X 5095   5.574   1.609   5.895  0.6631  1.5522  1.1513
   63SAPC   H9Y 5096   5.635   1.449   5.917 -0.9338  0.2764  1.4831
   63SAPC  C310 5097   5.771   1.594   5.808  1.1090 -0.5531  0.3187
   63SAPC  H10X 5098   5.840   1.509   5.825  0.4208 -0.6614  3.0398
   63SAPC  H10Y 5099   5.805   1.698   5.830 -0.1434 -0.1465  0.4609
   63SAPC  C311 5100   5.705   1.570   5.675 -0.1483 -0.6623 -0.5368
   63SAPC  H11X 5101   5.646   1.660   5.645  1.9871  1.5622  1.4822
   63SAPC  H11Y 5102   5.638   1.482   5.673 -0.9750 -0.0416 -2.2808
   63SAPC  C312 5103   5.813   1.540   5.566  0.4232  0.4258 -0.2932
   63SAPC  H12X 5104   5.863   1.445   5.593  2.1511  1.7135  1.3635
   63SAPC  H12Y 5105   5.890   1.620   5.572  0.5079  0.6961 -3.3012
   63SAPC  C313 5106   5.759   1.540   5.427  0.1328  0.1430 -0.1797
   63SAPC  H13X 5107   5.726   1.642   5.397  1.0280  0.0594 -1.5499
   63SAPC  H13Y 5108   5.671   1.473   5.424  0.4668 -0.2949 -0.3412
   63SAPC  C314 5109   5.854   1.482   5.321  0.5980 -0.1825  0.8828
   63SAPC  H14X 5110   5.864   1.371   5.325  1.1487 -0.3574 -2.1916
   63SAPC  H14Y 5111   5.955   1.525   5.336  1.1918 -0.4720 -1.7647
   63SAPC  C315 5112   5.805   1.541   5.183 -0.1430 -0.0903 -0.4299
   63SAPC  H15X 5113   5.786   1.650   5.193  1.4866  0.1351  0.5141
   63SAPC  H15Y 5114   5.709   1.493   5.152  1.2075 -2.7413 -0.8198
   63SAPC  C316 5115   5.915   1.528   5.070 -0.6653 -0.8044  0.2454
   63SAPC  H16X 5116   5.998   1.594   5.104 -0.2814 -0.5497 -1.1127
   63SAPC  H16Y 5117   5.892   1.565   4.968 -0.3731 -0.0024  0.4563
   63SAPC  C317 5118   5.967   1.386   5.047 -0.1342  0.5048  0.3056
   63SAPC  H17X 5119   6.031   1.356   5.133  0.0255 -1.0876 -0.3364
   63SAPC  H17Y 5120   6.028   1.375   4.955 -1.5286 -2.4441 -0.4059
   63SAPC  C318 5121   5.857   1.271   5.045 -0.2699  0.2352  0.4688
   63SAPC  H18X 5122   5.784   1.282   5.128 -1.0044  1.2299 -0.2832
   63SAPC  H18Y 5123   5.916   1.178   5.060 -1.6569 -0.3620  2.8454
   63SAPC  H18Z 5124   5.805   1.262   4.947  1.6898  0.0543 -0.6000
   64SAPC     N 5125   6.726   1.742   7.105 -0.0914 -0.7363  0.8364
   64SAPC   C12 5126   6.616   1.841   7.104 -0.0093 -1.2699 -0.2074
   64SAPC  H12A 5127   6.635   1.915   7.028 -0.3480  0.9446  1.7470
   64SAPC  H12B 5128   6.623   1.899   7.194 -0.7714 -0.2001 -0.8235
   64SAPC   C13 5129   6.865   1.812   7.110  0.0297  0.2461  0.2024
   64SAPC  H13A 5130   6.867   1.876   7.196 -0.0354 -1.0388  1.1946
   64SAPC  H13B 5131   6.951   1.749   7.128 -0.4058 -0.6188 -0.5813
   64SAPC  H13C 5132   6.865   1.869   7.018  0.9375 -1.2711 -0.7790
   64SAPC   C14 5133   6.722   1.642   7.233  0.2346 -0.1332  0.1626
   64SAPC  H14A 5134   6.713   1.704   7.321 -1.3714 -0.3393  0.1724
   64SAPC  H14B 5135   6.638   1.577   7.213 -0.9787  0.8617  1.7619
   64SAPC  H14C 5136   6.811   1.583   7.243  0.0026 -0.5941 -0.4171
   64SAPC   C15 5137   6.717   1.660   6.979 -0.4394  0.7141  0.2943
   64SAPC  H15A 5138   6.788   1.579   6.980 -0.7686  0.4114  1.7059
   64SAPC  H15B 5139   6.619   1.613   6.985  0.5095 -1.2170  1.7078
   64SAPC  H15C 5140   6.727   1.722   6.892 -1.1190 -0.2829 -0.5117
   64SAPC   C11 5141   6.469   1.790   7.095 -0.1389  0.3178 -0.1221
   64SAPC  H11A 5142   6.395   1.865   7.132  0.0457  0.6617 -0.4451
   64SAPC  H11B 5143   6.473   1.706   7.168  1.5554  0.0257 -0.5186
   64SAPC     P 5144   6.343   1.631   6.932  0.0449 -0.0714 -0.0752
   64SAPC   O13 5145   6.400   1.505   6.990  0.1386 -0.0124 -0.1643
   64SAPC   O14 5146   6.204   1.678   6.972  0.1302  0.4903 -0.4354
   64SAPC   O12 5147   6.446   1.749   6.958 -0.0574  0.0462 -0.5157
   64SAPC   O11 5148   6.336   1.621   6.774 -0.2609 -0.4305 -0.0708
   64SAPC    C1 5149   6.453   1.603   6.689  0.3242  0.4483 -0.2027
   64SAPC    HA 5150   6.482   1.703   6.651  2.6237 -0.3133 -0.6672
   64SAPC    HB 5151   6.538   1.551   6.739 -1.0373 -0.2247  1.5149
   64SAPC    C2 5152   6.423   1.510   6.566  0.3935  0.6242  0.5995
   64SAPC    HS 5153   6.519   1.496   6.512 -0.5296  3.6018 -2.1449
   64SAPC   O21 5154   6.333   1.577   6.472 -0.0169 -0.2064  0.7625
   64SAPC   C21 5155   6.378   1.677   6.396  0.1297 -0.0694 -0.8296
   64SAPC   O22 5156   6.495   1.713   6.397 -0.2850  0.0267  0.5682
   64SAPC   C22 5157   6.263   1.758   6.328 -0.3564  0.1251  0.0990
   64SAPC   H2R 5158   6.192   1.679   6.295 -0.5118  0.2339  0.1725
   64SAPC   H2S 5159   6.215   1.820   6.405  0.8071 -0.3550  1.2522
   64SAPC    C3 5160   6.377   1.368   6.617 -0.6680  0.8103  0.1377
   64SAPC    HX 5161   6.299   1.382   6.695 -0.9524  0.3958 -0.0701
   64SAPC    HY 5162   6.465   1.320   6.664 -0.8006  0.0795 -0.3483
   64SAPC   O31 5163   6.335   1.293   6.506 -0.2501  0.2297  0.0737
   64SAPC   C31 5164   6.209   1.290   6.477  0.2160 -0.4448  0.3317
   64SAPC   O32 5165   6.113   1.317   6.548 -0.0851  0.0489  0.2770
   64SAPC   C32 5166   6.193   1.225   6.346 -0.1208  0.2347  0.7432
   64SAPC   H2X 5167   6.116   1.145   6.342 -1.4756  1.5279 -0.2464
   64SAPC   H2Y 5168   6.282   1.173   6.306 -1.6713 -0.9860 -1.3361
   64SAPC   C23 5169   6.308   1.850   6.211  1.0047  0.5395 -0.1572
   64SAPC   H3R 5170   6.362   1.805   6.125  0.2508 -1.1663  0.2237
   64SAPC   H3S 5171   6.386   1.915   6.256  0.8394 -0.4835  1.7060
   64SAPC   C24 5172   6.191   1.932   6.165 -0.2608  0.1862  0.6482
   64SAPC   H4R 5173   6.237   2.012   6.103  3.5506 -0.3699  2.4820
   64SAPC   H4S 5174   6.159   1.980   6.261 -0.1559  1.5248  0.0414
   64SAPC   C25 5175   6.085   1.856   6.091  0.4175 -0.4402  0.0520
   64SAPC   H5R 5176   6.003   1.826   6.158  0.5236 -4.9047 -1.5364
   64SAPC   C26 5177   6.075   1.823   5.959 -0.1849 -0.7853 -0.1530
   64SAPC   H6R 5178   5.991   1.763   5.919 -0.7818  0.4011 -0.7702
   64SAPC   C27 5179   6.180   1.841   5.864  0.1901 -0.0697 -0.2008
   64SAPC   H7R 5180   6.212   1.739   5.834  0.6868  0.2980 -0.9569
   64SAPC   H7S 5181   6.265   1.888   5.917 -0.6135  0.0472  1.0181
   64SAPC   C28 5182   6.129   1.923   5.739  0.2116 -0.6752 -0.0204
   64SAPC   H8R 5183   6.056   2.003   5.762 -0.1920 -0.9056 -0.4814
   64SAPC   C29 5184   6.159   1.894   5.612 -0.5886 -0.4815  0.3905
   64SAPC   H9R 5185   6.113   1.956   5.533  0.2973  1.1097  1.0897
   64SAPC  C210 5186   6.261   1.795   5.565 -0.3360 -0.9522  0.3060
   64SAPC  H10R 5187   6.209   1.702   5.537 -0.7081 -0.1188 -2.0104
   64SAPC  H10S 5188   6.330   1.775   5.650  1.1511  0.9181 -0.3787
   64SAPC  C211 5189   6.342   1.835   5.446 -0.2033 -0.5726  0.0014
   64SAPC  H11R 5190   6.452   1.838   5.460  0.2093  1.0627 -2.7376
   64SAPC  C212 5191   6.297   1.863   5.321 -0.6268 -0.1741 -0.6320
   64SAPC  H12R 5192   6.387   1.873   5.258  1.1760  0.2283  1.8694
   64SAPC  C213 5193   6.151   1.876   5.272 -0.2309 -0.5634  1.6684
   64SAPC  H13R 5194   6.087   1.921   5.351  1.0621 -4.3273  5.2718
   64SAPC  H13S 5195   6.096   1.784   5.240 -0.8374  0.3509 -0.0481
   64SAPC  C214 5196   6.149   1.965   5.154 -0.5646 -0.5160 -0.7483
   64SAPC  H14R 5197   6.123   2.065   5.192  1.9806 -0.6830  1.7921
   64SAPC  C215 5198   6.161   1.944   5.019 -0.0024 -0.2711 -1.0209
   64SAPC  H15R 5199   6.156   2.031   4.952  0.6577  1.1094  0.6791
   64SAPC  C216 5200   6.200   1.816   4.956  0.5362 -0.7773  0.3298
   64SAPC  H16R 5201   6.139   1.792   4.866 -0.6064 -1.7980  1.3431
   64SAPC  H16S 5202   6.200   1.738   5.035  2.1829 -0.9416  0.1974
   64SAPC  C217 5203   6.346   1.827   4.906  0.4137 -0.5022 -0.1289
   64SAPC  H17R 5204   6.409   1.789   4.989  1.7320  1.3496 -0.2328
   64SAPC  H17S 5205   6.378   1.933   4.898 -0.4528 -0.1463  0.8940
   64SAPC  C218 5206   6.375   1.748   4.782 -0.2016 -0.4923  0.0240
   64SAPC  H18R 5207   6.346   1.642   4.800 -0.0247 -0.9089 -1.9098
   64SAPC  H18S 5208   6.485   1.755   4.766  0.0665  0.1830  1.8813
   64SAPC  C219 5209   6.296   1.787   4.655  0.0350 -0.7297 -0.4025
   64SAPC  H19R 5210   6.187   1.770   4.670  0.5186 -4.0375  0.2667
   64SAPC  H19S 5211   6.322   1.717   4.573  1.5188  0.8683 -1.3618
   64SAPC  C220 5212   6.339   1.915   4.598  0.3656  0.0468 -0.2994
   64SAPC  H20R 5213   6.282   1.999   4.644  0.8519  2.2195 -3.3148
   64SAPC  H20S 5214   6.312   1.935   4.492  1.1181  0.5301 -0.4100
   64SAPC  H20T 5215   6.449   1.934   4.607  0.3309  0.4297 -0.6260
   64SAPC   C33 5216   6.167   1.334   6.237 -0.1241 -0.4383 -0.2164
   64SAPC   H3X 5217   6.220   1.430   6.255  1.8830 -0.8775 -3.0276
   64SAPC   H3Y 5218   6.061   1.367   6.231 -0.5408 -1.7994 -0.6189
   64SAPC   C34 5219   6.221   1.309   6.094  0.1281 -0.6230  0.2611
   64SAPC   H4X 5220   6.168   1.214   6.072 -1.4810  0.6381 -1.6778
   64SAPC   H4Y 5221   6.329   1.285   6.102  0.3029  0.1644  0.3815
   64SAPC   C35 5222   6.169   1.413   5.991  0.2790 -1.0256 -0.3984
   64SAPC   H5X 5223   6.205   1.512   6.028  2.8671 -1.9996 -0.1122
   64SAPC   H5Y 5224   6.060   1.420   6.009  0.6497  2.1024  1.6405
   64SAPC   C36 5225   6.223   1.391   5.855  0.1036 -0.0612  0.5533
   64SAPC   H6X 5226   6.170   1.458   5.784 -0.7976 -1.1482  0.1739
   64SAPC   H6Y 5227   6.194   1.293   5.813  0.4420  0.8780 -2.0324
   64SAPC   C37 5228   6.373   1.416   5.844 -0.4481  0.0396 -0.3376
   64SAPC   H7X 5229   6.438   1.343   5.896 -1.2500 -0.1228  0.4617
   64SAPC   H7Y 5230   6.395   1.515   5.889  0.5465 -0.6378  0.7206
   64SAPC   C38 5231   6.418   1.419   5.697  0.4359  0.4534  0.9022
   64SAPC   H8X 5232   6.342   1.475   5.639  0.8258  0.0051 -0.0633
   64SAPC   H8Y 5233   6.425   1.314   5.660  1.0698  0.5193  0.8181
   64SAPC   C39 5234   6.537   1.505   5.675 -0.2617 -0.2410 -1.1343
   64SAPC   H9X 5235   6.632   1.468   5.720 -1.1028 -1.7291 -0.5137
   64SAPC   H9Y 5236   6.523   1.594   5.740 -0.5976 -0.9748 -0.1800
   64SAPC  C310 5237   6.550   1.554   5.531  0.3404  0.2027  0.0498
   64SAPC  H10X 5238   6.457   1.605   5.496  0.6301 -0.3194 -1.5654
   64SAPC  H10Y 5239   6.572   1.465   5.469  2.9481 -1.2364  2.8037
   64SAPC  C311 5240   6.670   1.652   5.521  0.3114  0.4198 -0.6175
   64SAPC  H11X 5241   6.740   1.650   5.607 -0.5156 -2.8846  0.1451
   64SAPC  H11Y 5242   6.636   1.757   5.510  1.9415  0.8134 -2.1909
   64SAPC  C312 5243   6.760   1.626   5.401  0.2088  0.1426  0.3164
   64SAPC  H12X 5244   6.797   1.522   5.390 -1.6309 -0.4032 -1.3314
   64SAPC  H12Y 5245   6.841   1.700   5.420 -0.1679  0.9908 -1.2343
   64SAPC  C313 5246   6.690   1.658   5.270  0.9272  0.8044 -0.5641
   64SAPC  H13X 5247   6.636   1.754   5.259 -0.7043 -0.0623 -0.3752
   64SAPC  H13Y 5248   6.616   1.578   5.254  0.4666  0.3306  3.0966
   64SAPC  C314 5249   6.772   1.627   5.142 -0.1438  0.2175  0.3110
   64SAPC  H14X 5250   6.834   1.535   5.149  0.8501  0.9232  1.0820
   64SAPC  H14Y 5251   6.844   1.710   5.129 -0.8019  0.6868 -0.4086
   64SAPC  C315 5252   6.686   1.626   5.014 -0.1627 -0.3816  0.4790
   64SAPC  H15X 5253   6.642   1.728   5.002  1.3707  0.4888  1.8481
   64SAPC  H15Y 5254   6.600   1.558   5.025 -0.4480 -0.1550 -0.2793
   64SAPC  C316 5255   6.755   1.604   4.880  0.1242  0.4970  0.3757
   64SAPC  H16X 5256   6.859   1.644   4.883  0.1974  0.2563  2.2347
   64SAPC  H16Y 5257   6.706   1.652   4.793 -0.7303 -0.1329  0.5030
   64SAPC  C317 5258   6.772   1.456   4.850 -0.0648  0.1850  0.3618
   64SAPC  H17X 5259   6.673   1.414   4.822 -0.8110  2.1366 -0.0341
   64SAPC  H17Y 5260   6.802   1.392   4.936 -0.1127 -3.6196 -2.1849
   64SAPC  C318 5261   6.882   1.429   4.742  0.0506 -0.1090  0.0019
   64SAPC  H18X 5262   6.891   1.320   4.727 -0.9384 -0.4387  1.5657
   64SAPC  H18Y 5263   6.983   1.439   4.786  0.9883 -0.5855 -1.9669
   64SAPC  H18Z 5264   6.863   1.484   4.647  3.0021 -0.1058 -0.6655
   65SAPC     N 5265   4.878   0.347   1.625  0.1853 -0.1506 -0.6618
   65SAPC   C12 5266   4.993   0.302   1.725 -0.3246  0.6329 -0.4745
   65SAPC  H12A 5267   5.084   0.334   1.678 -0.8099  0.4512 -1.5627
   65SAPC  H12B 5268   5.004   0.195   1.718 -1.2742  0.4827  0.1776
   65SAPC   C13 5269   4.898   0.282   1.495 -0.5726  0.3496 -0.7756
   65SAPC  H13A 5270   4.898   0.175   1.505 -1.3858  0.3829 -0.2731
   65SAPC  H13B 5271   4.811   0.288   1.431 -1.2520 -1.8762 -0.1488
   65SAPC  H13C 5272   4.986   0.318   1.443  1.4546 -1.0502  1.4613
   65SAPC   C14 5273   4.747   0.303   1.676 -0.4972  0.1618  0.1436
   65SAPC  H14A 5274   4.752   0.195   1.675  1.9316  0.2240 -1.2962
   65SAPC  H14B 5275   4.723   0.353   1.769  0.7805  3.0404 -0.9501
   65SAPC  H14C 5276   4.676   0.338   1.602  0.5278  2.5959  0.2066
   65SAPC   C15 5277   4.875   0.496   1.611 -0.2202 -0.5585 -0.6102
   65SAPC  H15A 5278   4.975   0.534   1.627 -0.8628  0.4281  1.3779
   65SAPC  H15B 5279   4.840   0.533   1.515  0.7017 -1.1229 -1.1818
   65SAPC  H15C 5280   4.813   0.541   1.686 -2.4704 -0.0268 -2.6598
   65SAPC   C11 5281   4.990   0.340   1.875  0.4311  0.1031 -0.3868
   65SAPC  H11A 5282   4.985   0.450   1.887 -0.9017  0.0536 -0.3668
   65SAPC  H11B 5283   5.088   0.315   1.922 -1.5628 -1.0473  3.5968
   65SAPC     P 5284   4.906   0.126   1.990 -0.2766  0.2441  0.7018
   65SAPC   O13 5285   4.787   0.063   2.061 -0.0070  0.6014 -0.0175
   65SAPC   O14 5286   4.960   0.051   1.872 -0.0038 -0.3311 -0.4956
   65SAPC   O12 5287   4.884   0.281   1.949  0.0376 -0.0605 -0.0585
   65SAPC   O11 5288   5.018   0.126   2.095 -0.0454 -0.0421  0.4973
   65SAPC    C1 5289   5.013   0.214   2.206  0.3918 -0.1095 -0.1235
   65SAPC    HA 5290   5.112   0.230   2.254 -0.5177  1.4392  1.3540
   65SAPC    HB 5291   4.970   0.310   2.170 -0.1728  0.5941  2.2773
   65SAPC    C2 5292   4.930   0.160   2.326 -0.2341 -0.5512  0.2299
   65SAPC    HS 5293   4.823   0.139   2.310 -0.9074  1.0392  2.2251
   65SAPC   O21 5294   4.929   0.256   2.441 -0.0486  0.0675  0.1010
   65SAPC   C21 5295   4.865   0.375   2.415  0.0179  0.3472  0.1289
   65SAPC   O22 5296   4.776   0.388   2.333  0.1827 -0.3065 -0.0382
   65SAPC   C22 5297   4.912   0.481   2.505 -0.1163 -0.3362  0.2491
   65SAPC   H2R 5298   5.009   0.460   2.556  0.3670 -0.2916 -0.6252
   65SAPC   H2S 5299   4.934   0.562   2.432 -1.0467 -0.8246 -0.5976
   65SAPC    C3 5300   4.994   0.023   2.362  0.5857 -0.2127 -0.2916
   65SAPC    HX 5301   5.104   0.029   2.348  0.4042  2.9412 -1.0868
   65SAPC    HY 5302   4.961  -0.047   2.282  0.8819 -0.1980 -0.4277
   65SAPC   O31 5303   4.958  -0.023   2.492 -0.5134  0.0272  0.2940
   65SAPC   C31 5304   5.046  -0.008   2.592  0.9753 -0.9269  1.1979
   65SAPC   O32 5305   5.144   0.060   2.587 -0.1768  0.2068 -0.0155
   65SAPC   C32 5306   4.994  -0.071   2.716 -0.1453  0.4822 -0.3350
   65SAPC   H2X 5307   4.932  -0.157   2.684  0.6485 -0.0531 -0.4715
   65SAPC   H2Y 5308   4.926   0.004   2.763 -0.9068 -0.5140  0.1776
   65SAPC   C23 5309   4.798   0.521   2.599  0.5794 -0.1120 -0.1808
   65SAPC   H3R 5310   4.705   0.547   2.543  1.0192  0.7972 -0.5073
   65SAPC   H3S 5311   4.828   0.615   2.651 -0.5974 -0.6890  1.6495
   65SAPC   C24 5312   4.777   0.408   2.698  0.0499  0.7353  0.2139
   65SAPC   H4R 5313   4.879   0.374   2.726  1.1006  2.0188 -1.8030
   65SAPC   H4S 5314   4.735   0.318   2.649 -0.9234  0.2672  1.8187
   65SAPC   C25 5315   4.680   0.448   2.809  0.7897  0.0852  0.4486
   65SAPC   H5R 5316   4.596   0.506   2.769  1.4945  0.8591  0.0706
   65SAPC   C26 5317   4.696   0.412   2.942 -0.2305 -0.2450  0.0998
   65SAPC   H6R 5318   4.636   0.453   3.025  0.6566 -1.1025  1.2063
   65SAPC   C27 5319   4.815   0.330   2.995  0.5423 -0.0375  0.1071
   65SAPC   H7R 5320   4.909   0.386   2.976 -0.0042  0.3203 -1.8602
   65SAPC   H7S 5321   4.811   0.235   2.937 -0.7775 -0.7032  1.2427
   65SAPC   C28 5322   4.806   0.291   3.141  0.4167  0.6350  0.1822
   65SAPC   H8R 5323   4.870   0.344   3.213  0.0888 -0.8521  1.6241
   65SAPC   C29 5324   4.728   0.198   3.189  1.0977 -0.0689 -0.7727
   65SAPC   H9R 5325   4.724   0.186   3.299 -0.7543 -0.3112 -0.8325
   65SAPC  C210 5326   4.637   0.099   3.115  0.9071  0.9163  0.1615
   65SAPC  H10R 5327   4.644   0.109   3.004 -2.4261 -3.0561 -0.6599
   65SAPC  H10S 5328   4.533   0.131   3.137 -0.3804 -1.7905 -1.4425
   65SAPC  C211 5329   4.644  -0.052   3.152 -0.4508 -0.5408  0.0441
   65SAPC  H11R 5330   4.730  -0.103   3.104  0.0917 -0.8100  1.2555
   65SAPC  C212 5331   4.559  -0.123   3.229 -0.2660 -0.3603  0.4461
   65SAPC  H12R 5332   4.591  -0.228   3.226  0.6118 -0.0763 -1.6628
   65SAPC  C213 5333   4.434  -0.071   3.297 -1.0390  0.1882  0.6173
   65SAPC  H13R 5334   4.344  -0.073   3.232 -0.2122  0.1308 -0.5674
   65SAPC  H13S 5335   4.446   0.035   3.328  1.8609  0.6590 -1.6699
   65SAPC  C214 5336   4.429  -0.144   3.431 -0.1685 -0.3076  0.1461
   65SAPC  H14R 5337   4.358  -0.226   3.445  1.4192 -1.6340  0.7541
   65SAPC  C215 5338   4.507  -0.119   3.545 -0.6000  0.4603 -0.6689
   65SAPC  H15R 5339   4.479  -0.176   3.634 -0.4951  1.5575  0.0818
   65SAPC  C216 5340   4.603  -0.006   3.573  0.7944  0.0228 -0.4699
   65SAPC  H16R 5341   4.587   0.070   3.494 -2.5327 -0.4796 -0.3943
   65SAPC  H16S 5342   4.705  -0.048   3.587 -0.7243 -4.4339 -1.0958
   65SAPC  C217 5343   4.561   0.060   3.713 -0.4860 -0.0513 -0.3299
   65SAPC  H17R 5344   4.551  -0.013   3.795  3.0266  0.2605  0.5176
   65SAPC  H17S 5345   4.456   0.096   3.702 -1.5280 -2.4909  0.9866
   65SAPC  C218 5346   4.656   0.174   3.748 -0.2084 -0.1560  0.6004
   65SAPC  H18R 5347   4.756   0.130   3.768 -1.2413 -2.3216  1.2581
   65SAPC  H18S 5348   4.618   0.227   3.838  2.8389  0.2856  1.7310
   65SAPC  C219 5349   4.670   0.283   3.641 -0.0535 -0.1491  0.4267
   65SAPC  H19R 5350   4.723   0.242   3.553 -0.1405  1.7464 -0.5566
   65SAPC  H19S 5351   4.741   0.364   3.668  1.3089 -0.6455 -1.4718
   65SAPC  C220 5352   4.540   0.357   3.617  0.3362  0.1957  0.3455
   65SAPC  H20R 5353   4.453   0.295   3.587  1.0330 -0.2988 -0.7333
   65SAPC  H20S 5354   4.557   0.434   3.539 -2.1324 -1.2812 -1.7988
   65SAPC  H20T 5355   4.501   0.407   3.708 -1.0766  0.7496 -0.5320
   65SAPC   C33 5356   5.101  -0.120   2.812 -0.3382 -0.8824  0.1540
   65SAPC   H3X 5357   5.159  -0.027   2.833 -0.5470 -0.4221 -1.2275
   65SAPC   H3Y 5358   5.159  -0.205   2.771  2.1349 -0.0224  1.5706
   65SAPC   C34 5359   5.041  -0.159   2.943  0.6748  0.0977  0.1930
   65SAPC   H4X 5360   4.978  -0.250   2.932 -0.0315  0.6994 -0.9310
   65SAPC   H4Y 5361   4.977  -0.081   2.989  1.2394  0.5176  0.2793
   65SAPC   C35 5362   5.146  -0.190   3.042  0.5959  0.0845  0.1680
   65SAPC   H5X 5363   5.231  -0.118   3.042  1.7971 -1.2532  1.3867
   65SAPC   H5Y 5364   5.191  -0.291   3.028 -0.4597 -0.4743  0.7122
   65SAPC   C36 5365   5.092  -0.201   3.182  0.6531  0.3325 -1.0145
   65SAPC   H6X 5366   5.014  -0.281   3.182  2.0164 -1.0817  0.7387
   65SAPC   H6Y 5367   5.034  -0.114   3.219 -1.9347 -0.0720 -3.7325
   65SAPC   C37 5368   5.201  -0.240   3.280  0.0066 -0.3828 -0.1360
   65SAPC   H7X 5369   5.275  -0.158   3.288 -0.0528 -0.3458  0.0368
   65SAPC   H7Y 5370   5.254  -0.333   3.248  0.1900 -0.3769  0.1487
   65SAPC   C38 5371   5.149  -0.265   3.426 -0.2015 -0.5380  0.1630
   65SAPC   H8X 5372   5.089  -0.358   3.432 -1.1310  0.1458  3.1651
   65SAPC   H8Y 5373   5.073  -0.188   3.453  1.6385  0.5358  2.6597
   65SAPC   C39 5374   5.262  -0.259   3.533  0.5813  0.4053 -0.3209
   65SAPC   H9X 5375   5.312  -0.161   3.518 -0.5189  1.4063  2.0175
   65SAPC   H9Y 5376   5.335  -0.341   3.514 -0.0184  0.5726 -4.2644
   65SAPC  C310 5377   5.209  -0.274   3.678 -0.5177  0.8059 -0.3234
   65SAPC  H10X 5378   5.143  -0.363   3.690 -0.6719  1.1219  1.3896
   65SAPC  H10Y 5379   5.153  -0.182   3.703 -0.6003  0.3324  1.3712
   65SAPC  C311 5380   5.333  -0.276   3.776  0.6069 -0.6536  0.4140
   65SAPC  H11X 5381   5.395  -0.186   3.758  0.7234 -0.7938  0.1036
   65SAPC  H11Y 5382   5.406  -0.352   3.740  0.5941  0.4585 -2.1348
   65SAPC  C312 5383   5.282  -0.299   3.914 -0.2856 -0.4776  0.6151
   65SAPC  H12X 5384   5.209  -0.382   3.911 -1.1315  0.2712 -1.7001
   65SAPC  H12Y 5385   5.224  -0.211   3.948 -0.4919  0.0147 -0.9690
   65SAPC  C313 5386   5.389  -0.321   4.024  0.0116 -0.3609  0.5603
   65SAPC  H13X 5387   5.460  -0.236   4.010  0.3378 -0.5861  0.8183
   65SAPC  H13Y 5388   5.439  -0.419   4.010  3.4867  1.1355  1.2750
   65SAPC  C314 5389   5.325  -0.314   4.163  0.5707  0.8671 -0.4907
   65SAPC  H14X 5390   5.223  -0.357   4.156  0.7715  0.2774  0.0779
   65SAPC  H14Y 5391   5.310  -0.216   4.211  2.3683 -0.0852  2.2545
   65SAPC  C315 5392   5.400  -0.417   4.262 -0.4571 -0.0805  0.6216
   65SAPC  H15X 5393   5.509  -0.411   4.246 -0.6484 -0.9961 -1.3478
   65SAPC  H15Y 5394   5.364  -0.522   4.255  1.1823 -0.7883  1.9493
   65SAPC  C316 5395   5.374  -0.361   4.403  0.5837 -0.3264  0.6808
   65SAPC  H16X 5396   5.263  -0.365   4.406  0.5258  0.5824  0.1118
   65SAPC  H16Y 5397   5.414  -0.258   4.413 -1.4578  0.5971 -0.1658
   65SAPC  C317 5398   5.425  -0.453   4.510  0.4908  0.1566 -0.3907
   65SAPC  H17X 5399   5.524  -0.493   4.477  0.7909  1.5130 -1.2170
   65SAPC  H17Y 5400   5.363  -0.545   4.511 -0.9423  1.0690  2.3144
   65SAPC  C318 5401   5.428  -0.385   4.647  0.6009 -0.6721 -0.0995
   65SAPC  H18X 5402   5.509  -0.417   4.716  0.7741 -1.0922 -0.4931
   65SAPC  H18Y 5403   5.331  -0.410   4.695  0.4983  0.2765  0.2173
   65SAPC  H18Z 5404   5.446  -0.276   4.631  2.4192 -1.1709 -1.9167
   66SAPC     N 5405   4.808   3.469   2.065 -0.4312  0.0601  0.7138
   66SAPC   C12 5406   4.716   3.422   2.168 -0.0711  0.2136  0.1519
   66SAPC  H12A 5407   4.664   3.338   2.126  2.9834 -2.1328  0.7241
   66SAPC  H12B 5408   4.650   3.507   2.179 -1.5381 -0.9112  0.2907
   66SAPC   C13 5409   4.903   3.362   2.021 -1.2333  0.1576  0.8460
   66SAPC  H13A 5410   4.967   3.331   2.102 -0.1405 -0.2387 -0.1442
   66SAPC  H13B 5411   4.860   3.274   1.976 -0.6220 -0.1617  0.8812
   66SAPC  H13C 5412   4.980   3.405   1.960 -1.2472  0.3802  0.9811
   66SAPC   C14 5413   4.732   3.523   1.950  0.8451  0.0254  0.3861
   66SAPC  H14A 5414   4.659   3.593   1.990 -0.1217  0.1392 -1.4579
   66SAPC  H14B 5415   4.796   3.586   1.891  0.6410  1.9257  2.0580
   66SAPC  H14C 5416   4.689   3.438   1.899 -0.6979 -0.1256  1.8299
   66SAPC   C15 5417   4.891   3.579   2.120 -0.4329 -1.1505  0.1204
   66SAPC  H15A 5418   4.952   3.616   2.039  0.3472  1.5035  1.7841
   66SAPC  H15B 5419   4.827   3.656   2.159  1.1039  0.8786 -1.1946
   66SAPC  H15C 5420   4.967   3.539   2.186  0.8693 -0.6178 -1.0161
   66SAPC   C11 5421   4.769   3.374   2.305 -0.5370 -0.5117 -0.1113
   66SAPC  H11A 5422   4.684   3.352   2.373  0.8315 -0.6392  1.6068
   66SAPC  H11B 5423   4.823   3.459   2.351 -1.3785  0.3041 -0.6032
   66SAPC     P 5424   4.817   3.124   2.250  0.4165 -0.1479  0.8560
   66SAPC   O13 5425   4.689   3.139   2.169 -0.2721  0.2688 -0.3319
   66SAPC   O14 5426   4.929   3.051   2.179 -0.2663  0.0138 -0.3271
   66SAPC   O12 5427   4.861   3.264   2.305  0.1970 -0.4854  0.2675
   66SAPC   O11 5428   4.777   3.044   2.382  0.0883 -0.1081  0.2338
   66SAPC    C1 5429   4.888   3.034   2.474  0.0088 -0.3226 -0.1441
   66SAPC    HA 5430   4.913   2.928   2.456 -1.3671 -0.6879  0.0124
   66SAPC    HB 5431   4.973   3.101   2.451 -0.1164 -0.1205 -0.0285
   66SAPC    C2 5432   4.846   3.047   2.623 -0.2441  0.1730 -0.3113
   66SAPC    HS 5433   4.737   3.026   2.630 -0.3493  0.3901 -1.1811
   66SAPC   O21 5434   4.885   3.181   2.675  0.7783  0.3381 -0.0639
   66SAPC   C21 5435   4.818   3.225   2.776  0.5382  0.1485 -0.4743
   66SAPC   O22 5436   4.721   3.176   2.834 -0.1851  0.0287  0.3177
   66SAPC   C22 5437   4.894   3.356   2.819  0.3567  0.2054 -0.4621
   66SAPC   H2R 5438   5.000   3.330   2.798  0.5174  0.2550  0.2722
   66SAPC   H2S 5439   4.870   3.429   2.738  1.3523 -0.0498 -0.9996
   66SAPC    C3 5440   4.921   2.933   2.708  0.3865  0.3794 -0.8525
   66SAPC    HX 5441   5.031   2.949   2.701  0.9582 -0.5314  3.5916
   66SAPC    HY 5442   4.901   2.835   2.659  0.0342  0.6861 -1.3291
   66SAPC   O31 5443   4.877   2.933   2.847 -0.0314 -0.1533 -0.1826
   66SAPC   C31 5444   4.767   2.880   2.876  0.8843 -0.4000 -0.8484
   66SAPC   O32 5445   4.684   2.831   2.802  0.3813  0.1495 -0.2825
   66SAPC   C32 5446   4.750   2.904   3.026  0.6073 -0.8118 -0.0063
   66SAPC   H2X 5447   4.758   3.015   3.035 -0.2212 -0.7656  0.2363
   66SAPC   H2Y 5448   4.845   2.866   3.070  0.0578 -0.8667  1.1704
   66SAPC   C23 5449   4.883   3.401   2.962  0.6562  0.0005 -0.3310
   66SAPC   H3R 5450   4.975   3.454   2.995 -1.1558  2.5784  0.9950
   66SAPC   H3S 5451   4.863   3.321   3.036  1.1581 -0.3053 -0.5209
   66SAPC   C24 5452   4.755   3.496   2.982 -0.5176 -0.1902 -0.6809
   66SAPC   H4R 5453   4.664   3.437   2.956 -1.7144  1.3538 -0.1248
   66SAPC   H4S 5454   4.777   3.576   2.909 -2.4369  0.0965 -0.9993
   66SAPC   C25 5455   4.745   3.538   3.129 -0.4514  0.4180  0.4174
   66SAPC   H5R 5456   4.838   3.582   3.166 -1.1466  4.0731 -1.6971
   66SAPC   C26 5457   4.638   3.521   3.212  0.1294 -0.1590  0.1268
   66SAPC   H6R 5458   4.636   3.556   3.316  1.2337  0.8942 -0.1736
   66SAPC   C27 5459   4.499   3.468   3.177 -0.7263 -0.1677 -0.6642
   66SAPC   H7R 5460   4.492   3.446   3.068  0.5206  0.2297 -0.8345
   66SAPC   H7S 5461   4.423   3.548   3.197  1.0184  1.3137  0.3751
   66SAPC   C28 5462   4.470   3.334   3.242  0.1706 -0.6909  0.4162
   66SAPC   H8R 5463   4.523   3.257   3.184 -0.0056  0.0083 -0.6849
   66SAPC   C29 5464   4.405   3.306   3.357  0.3391  0.2643 -0.9281
   66SAPC   H9R 5465   4.384   3.201   3.385  1.0171  0.4743  0.4647
   66SAPC  C210 5466   4.340   3.409   3.448  0.4664  0.1132 -0.4890
   66SAPC  H10R 5467   4.322   3.502   3.390  0.0260 -0.1145 -0.7280
   66SAPC  H10S 5468   4.413   3.431   3.529  0.4799  1.7326 -0.9115
   66SAPC  C211 5469   4.211   3.356   3.503 -0.5450  0.0816 -0.4592
   66SAPC  H11R 5470   4.141   3.332   3.422 -1.1059  1.9800 -0.5918
   66SAPC  C212 5471   4.168   3.346   3.631  0.0416 -0.4564  0.3244
   66SAPC  H12R 5472   4.066   3.311   3.650  0.0622 -0.4192  0.5133
   66SAPC  C213 5473   4.240   3.386   3.756  0.0950  0.6708 -0.0429
   66SAPC  H13R 5474   4.165   3.443   3.816  0.1405  0.0875  0.5877
   66SAPC  H13S 5475   4.327   3.449   3.729  1.2705 -0.5243  0.8540
   66SAPC  C214 5476   4.296   3.264   3.831 -0.4784  0.3515  0.0401
   66SAPC  H14R 5477   4.299   3.170   3.775 -0.5903 -0.5915  1.5650
   66SAPC  C215 5478   4.338   3.266   3.958 -0.8383 -0.0997 -0.5760
   66SAPC  H15R 5479   4.352   3.173   4.015 -1.8899  0.4947  0.6922
   66SAPC  C216 5480   4.331   3.384   4.049 -0.6322  0.1254 -0.7190
   66SAPC  H16R 5481   4.326   3.354   4.156 -1.3048 -1.1694 -1.0902
   66SAPC  H16S 5482   4.232   3.433   4.039 -0.5738  0.9300  1.7737
   66SAPC  C217 5483   4.440   3.488   4.028 -0.2559  0.2262  0.0622
   66SAPC  H17R 5484   4.417   3.548   3.937 -1.2901 -1.2282 -0.6904
   66SAPC  H17S 5485   4.538   3.439   4.010 -0.8123 -1.7582  1.9594
   66SAPC  C218 5486   4.448   3.584   4.148 -0.4111 -0.2326 -0.2357
   66SAPC  H18R 5487   4.414   3.530   4.239 -2.5724 -0.7612 -1.2977
   66SAPC  H18S 5488   4.376   3.665   4.126 -0.5005 -0.3136 -0.2433
   66SAPC  C219 5489   4.586   3.644   4.181  0.0767 -0.0927  0.4442
   66SAPC  H19R 5490   4.609   3.705   4.091 -0.2782 -0.3433  0.1790
   66SAPC  H19S 5491   4.664   3.566   4.194 -1.1555 -1.4426  0.0643
   66SAPC  C220 5492   4.565   3.727   4.308  0.1762  0.2098 -0.1609
   66SAPC  H20R 5493   4.647   3.801   4.307  0.7034 -0.3098  1.2801
   66SAPC  H20S 5494   4.576   3.667   4.402  0.0059 -1.0849 -0.9382
   66SAPC  H20T 5495   4.460   3.763   4.303  0.1788  0.2696  0.1735
   66SAPC   C33 5496   4.613   2.851   3.070 -0.5244 -0.0206  0.5401
   66SAPC   H3X 5497   4.598   2.743   3.049 -0.8754 -0.4425  2.7331
   66SAPC   H3Y 5498   4.532   2.916   3.031 -0.4575 -0.3765 -0.2070
   66SAPC   C34 5499   4.596   2.852   3.217  0.0382  0.1854 -0.7881
   66SAPC   H4X 5500   4.690   2.815   3.263 -0.0631  1.2636  0.3348
   66SAPC   H4Y 5501   4.510   2.787   3.246  0.2246  1.0040  1.8654
   66SAPC   C35 5502   4.560   2.985   3.282 -0.1252  0.5655 -0.5061
   66SAPC   H5X 5503   4.476   3.033   3.226 -0.6470  0.1805 -0.0584
   66SAPC   H5Y 5504   4.648   3.052   3.275  0.2599  0.2683  1.0938
   66SAPC   C36 5505   4.523   2.983   3.431  0.2583 -0.6255  0.0337
   66SAPC   H6X 5506   4.418   2.950   3.442  0.3808 -0.5294  1.7009
   66SAPC   H6Y 5507   4.519   3.089   3.466  0.7146 -0.4473 -0.4448
   66SAPC   C37 5508   4.601   2.894   3.524 -0.4356  0.4390  0.0260
   66SAPC   H7X 5509   4.709   2.901   3.500 -0.4242  2.4572  0.4972
   66SAPC   H7Y 5510   4.575   2.787   3.507  2.0013 -0.2801  0.3758
   66SAPC   C38 5511   4.584   2.940   3.673  0.7402 -0.5376  0.2043
   66SAPC   H8X 5512   4.485   2.906   3.710 -0.2680  2.8504  0.9273
   66SAPC   H8Y 5513   4.604   3.049   3.672  2.1595 -0.7155 -2.5374
   66SAPC   C39 5514   4.692   2.885   3.767 -0.3542 -0.1844 -0.0784
   66SAPC   H9X 5515   4.784   2.941   3.739  0.5178 -1.9772 -0.9495
   66SAPC   H9Y 5516   4.702   2.777   3.743  0.9332  0.2675 -1.7720
   66SAPC  C310 5517   4.653   2.883   3.918  0.3776 -0.4789 -0.1331
   66SAPC  H10X 5518   4.727   2.831   3.983  0.9278  1.3090  0.7193
   66SAPC  H10Y 5519   4.550   2.842   3.933 -0.5578  0.1206 -3.9220
   66SAPC  C311 5520   4.649   3.037   3.971  0.7628  0.2142 -0.1323
   66SAPC  H11X 5521   4.580   3.102   3.912  2.1057  0.5190 -1.4163
   66SAPC  H11Y 5522   4.751   3.080   3.961  0.8736 -0.0139 -0.0014
   66SAPC  C312 5523   4.613   3.051   4.120  0.2000 -0.2141 -0.9790
   66SAPC  H12X 5524   4.663   2.969   4.174 -0.9384 -1.6058 -1.9656
   66SAPC  H12Y 5525   4.504   3.030   4.124 -0.2190  1.4128 -2.4488
   66SAPC  C313 5526   4.633   3.189   4.174 -0.5265  0.0888  0.3318
   66SAPC  H13X 5527   4.546   3.254   4.149 -0.4409 -0.8177 -2.6956
   66SAPC  H13Y 5528   4.731   3.222   4.134 -0.3710 -0.7363  0.0194
   66SAPC  C314 5529   4.643   3.182   4.328  1.0002  0.6645 -0.6882
   66SAPC  H14X 5530   4.715   3.102   4.357  0.7327  0.6366 -0.0784
   66SAPC  H14Y 5531   4.541   3.153   4.361  1.5506  0.1052  0.5872
   66SAPC  C315 5532   4.689   3.311   4.391 -0.3343  0.5009  0.2589
   66SAPC  H15X 5533   4.622   3.394   4.363  1.5993  1.1354 -3.1893
   66SAPC  H15Y 5534   4.794   3.335   4.361  0.5711 -2.4689  0.6792
   66SAPC  C316 5535   4.690   3.290   4.545 -0.2856 -0.4390 -0.0590
   66SAPC  H16X 5536   4.585   3.281   4.581 -0.8143 -2.1353 -1.7958
   66SAPC  H16Y 5537   4.732   3.381   4.591 -0.5982  0.2796 -1.1678
   66SAPC  C317 5538   4.792   3.183   4.597 -0.1022 -0.3130 -0.1632
   66SAPC  H17X 5539   4.759   3.079   4.578 -0.1429 -0.2385 -0.5101
   66SAPC  H17Y 5540   4.794   3.190   4.707  1.4954 -3.0411  0.0730
   66SAPC  C318 5541   4.936   3.201   4.558  1.0918 -0.3539  0.6220
   66SAPC  H18X 5542   4.974   3.303   4.580 -1.7961  0.7799  0.7431
   66SAPC  H18Y 5543   4.937   3.173   4.451 -3.3070 -2.4503  0.9232
   66SAPC  H18Z 5544   4.994   3.134   4.626 -0.3440 -0.4447  1.8028
   67SAPC     N 5545   3.480   2.113   2.204 -0.0722 -0.2607 -0.0746
   67SAPC   C12 5546   3.476   2.257   2.257  0.4151 -0.4867 -0.2453
   67SAPC  H12A 5547   3.556   2.313   2.211  1.1316 -1.2965 -0.0318
   67SAPC  H12B 5548   3.506   2.259   2.361  1.5533  0.7993 -0.5727
   67SAPC   C13 5549   3.395   2.023   2.290  0.5286  0.0502 -0.3481
   67SAPC  H13A 5550   3.418   2.038   2.395 -1.5398  1.3866 -0.0449
   67SAPC  H13B 5551   3.295   2.062   2.297  0.8062  0.6449  0.4926
   67SAPC  H13C 5552   3.395   1.918   2.266 -0.0742 -0.1571  0.5335
   67SAPC   C14 5553   3.426   2.108   2.064  0.0161 -0.6101 -0.7019
   67SAPC  H14A 5554   3.350   2.183   2.046  1.6412  1.0370 -1.0559
   67SAPC  H14B 5555   3.498   2.124   1.985  0.4889 -1.5344 -0.4732
   67SAPC  H14C 5556   3.387   2.008   2.058 -1.1207 -0.3088  1.0870
   67SAPC   C15 5557   3.620   2.064   2.206 -0.4425 -0.4600 -0.2771
   67SAPC  H15A 5558   3.670   2.064   2.302 -2.0534  1.7627  0.6720
   67SAPC  H15B 5559   3.617   1.963   2.170 -4.0264 -0.0889 -1.3907
   67SAPC  H15C 5560   3.670   2.123   2.131  0.8121 -0.8244  0.2483
   67SAPC   C11 5561   3.348   2.325   2.255  0.6595  0.0285  0.7769
   67SAPC  H11A 5562   3.345   2.419   2.315 -0.0642  2.5869 -2.8946
   67SAPC  H11B 5563   3.261   2.262   2.284 -0.3135  0.5676 -0.8492
   67SAPC     P 5564   3.359   2.498   2.057 -0.0637 -0.0889  0.3299
   67SAPC   O13 5565   3.490   2.474   1.988 -0.0451 -0.2751 -0.4786
   67SAPC   O14 5566   3.253   2.557   1.974  0.8423  0.6130  0.3089
   67SAPC   O12 5567   3.308   2.360   2.118 -0.0611  0.0011  0.4972
   67SAPC   O11 5568   3.382   2.589   2.181  0.3245 -0.8833  0.5030
   67SAPC    C1 5569   3.272   2.661   2.235  0.5926 -0.1169  0.5499
   67SAPC    HA 5570   3.256   2.751   2.172 -0.2516  0.2113  1.2225
   67SAPC    HB 5571   3.182   2.597   2.244 -0.7105  1.6349  0.5399
   67SAPC    C2 5572   3.297   2.741   2.372  0.2902  0.0414  0.2347
   67SAPC    HS 5573   3.364   2.827   2.351 -0.3109 -0.1211 -2.8170
   67SAPC   O21 5574   3.347   2.647   2.466  0.4691  0.0586 -0.5386
   67SAPC   C21 5575   3.447   2.701   2.541  0.1189 -0.0823  0.8125
   67SAPC   O22 5576   3.468   2.818   2.547  1.2489  0.6547  0.2222
   67SAPC   C22 5577   3.509   2.584   2.622  0.1570  0.3942 -0.2784
   67SAPC   H2R 5578   3.452   2.496   2.586  0.5249 -0.3327  0.8509
   67SAPC   H2S 5579   3.616   2.574   2.597  0.2743 -0.5845  0.5398
   67SAPC    C3 5580   3.162   2.794   2.430 -0.4135 -0.9180 -0.2533
   67SAPC    HX 5581   3.093   2.707   2.434  0.7780 -1.9199 -0.5997
   67SAPC    HY 5582   3.108   2.844   2.347 -0.1589 -0.5694 -0.2132
   67SAPC   O31 5583   3.170   2.856   2.558 -0.2266  0.3666 -0.6703
   67SAPC   C31 5584   3.202   2.992   2.546  0.0501  0.2863 -0.1769
   67SAPC   O32 5585   3.217   3.051   2.441  0.2947 -0.1391 -0.1267
   67SAPC   C32 5586   3.214   3.055   2.688  0.2634 -0.0004  0.4290
   67SAPC   H2X 5587   3.137   3.134   2.690  0.5107  0.4275 -2.3979
   67SAPC   H2Y 5588   3.317   3.097   2.693  1.6692 -2.4761 -3.3237
   67SAPC   C23 5589   3.490   2.599   2.777 -0.2945  0.0903 -0.0304
   67SAPC   H3R 5590   3.383   2.626   2.792 -1.0967 -2.0504 -1.3902
   67SAPC   H3S 5591   3.546   2.688   2.813  0.9909 -0.5442 -0.4158
   67SAPC   C24 5592   3.525   2.474   2.857 -0.0189 -0.5398 -0.1315
   67SAPC   H4R 5593   3.469   2.392   2.807 -0.1669  0.8527 -2.3898
   67SAPC   H4S 5594   3.497   2.481   2.964  0.7814 -0.2878  0.0643
   67SAPC   C25 5595   3.673   2.449   2.852  0.1561  0.1715  0.2206
   67SAPC   H5R 5596   3.719   2.460   2.753  0.7784  0.9043  0.5836
   67SAPC   C26 5597   3.751   2.412   2.950  0.4552  0.1906 -0.6481
   67SAPC   H6R 5598   3.859   2.401   2.938  0.3357 -0.3165 -1.3725
   67SAPC   C27 5599   3.692   2.370   3.084 -0.5498  0.8418 -0.1008
   67SAPC   H7R 5600   3.596   2.317   3.066 -1.4322  1.9579  1.0896
   67SAPC   H7S 5601   3.668   2.455   3.151  1.5286  0.4419  1.2462
   67SAPC   C28 5602   3.776   2.256   3.148 -0.1422 -0.3277  0.0707
   67SAPC   H8R 5603   3.829   2.196   3.072 -1.6665 -0.9808 -0.5137
   67SAPC   C29 5604   3.789   2.228   3.278 -0.6427  0.5067  0.2673
   67SAPC   H9R 5605   3.846   2.140   3.311  0.6947  0.4053 -2.0333
   67SAPC  C210 5606   3.721   2.299   3.384  0.2829 -0.2473 -0.1769
   67SAPC  H10R 5607   3.634   2.240   3.419  2.2448 -2.4386  1.3028
   67SAPC  H10S 5608   3.680   2.397   3.351 -0.6125  0.0619  1.7176
   67SAPC  C211 5609   3.802   2.334   3.506 -0.9049  0.0020 -0.6417
   67SAPC  H11R 5610   3.853   2.431   3.509 -0.8813  0.2015 -3.8635
   67SAPC  C212 5611   3.807   2.262   3.623 -0.1842  0.7757  0.1949
   67SAPC  H12R 5612   3.864   2.314   3.702 -0.2970  0.7477  0.2951
   67SAPC  C213 5613   3.731   2.140   3.660 -0.1609  0.7929  0.5331
   67SAPC  H13R 5614   3.793   2.069   3.719 -0.0959 -1.5329 -2.1628
   67SAPC  H13S 5615   3.698   2.094   3.565 -2.6691 -0.8453  2.0694
   67SAPC  C214 5616   3.609   2.168   3.747 -0.6125 -0.3633  0.3067
   67SAPC  H14R 5617   3.529   2.175   3.672  0.2910 -0.1518 -0.6532
   67SAPC  C215 5618   3.586   2.160   3.882 -0.9989  0.3849  0.1925
   67SAPC  H15R 5619   3.488   2.179   3.928 -0.3992 -1.8820  2.6726
   67SAPC  C216 5620   3.690   2.132   3.990  0.2714  0.1888 -0.3057
   67SAPC  H16R 5621   3.774   2.069   3.952 -0.8922 -0.4214 -2.0108
   67SAPC  H16S 5622   3.648   2.065   4.068  0.7976  0.6062  0.3411
   67SAPC  C217 5623   3.738   2.257   4.066  0.4408 -0.3345  0.2333
   67SAPC  H17R 5624   3.784   2.325   3.992 -0.6829  0.0896 -0.0959
   67SAPC  H17S 5625   3.812   2.213   4.136  0.7417  1.9477  1.4374
   67SAPC  C218 5626   3.631   2.331   4.153 -0.0050 -0.1437 -1.2538
   67SAPC  H18R 5627   3.586   2.252   4.217 -1.4905  2.0626  0.6059
   67SAPC  H18S 5628   3.556   2.389   4.097  0.8134  1.8075 -0.4176
   67SAPC  C219 5629   3.704   2.427   4.256 -0.0617 -0.0822 -0.4150
   67SAPC  H19R 5630   3.762   2.502   4.198 -1.8320  1.7501  0.0718
   67SAPC  H19S 5631   3.773   2.368   4.320 -1.0518 -0.4518  0.3568
   67SAPC  C220 5632   3.599   2.507   4.343  0.3068  0.8625 -0.0183
   67SAPC  H20R 5633   3.562   2.458   4.435  2.6856 -1.0169  0.0419
   67SAPC  H20S 5634   3.523   2.541   4.269 -0.0581 -0.6166 -0.3682
   67SAPC  H20T 5635   3.633   2.604   4.385 -3.2300  1.7339  1.2157
   67SAPC   C33 5636   3.186   2.952   2.801 -0.0111  0.1577 -0.0081
   67SAPC   H3X 5637   3.266   2.876   2.808 -1.6425 -1.5283  1.1772
   67SAPC   H3Y 5638   3.097   2.892   2.771  0.8898 -1.6958  0.8690
   67SAPC   C34 5639   3.154   3.013   2.939 -0.4244  0.3519 -0.4886
   67SAPC   H4X 5640   3.060   3.073   2.933 -0.5993  0.0289 -1.1038
   67SAPC   H4Y 5641   3.240   3.077   2.969  0.3831 -0.9009 -0.0497
   67SAPC   C35 5642   3.153   2.904   3.055  0.0098  1.0272 -0.4640
   67SAPC   H5X 5643   3.252   2.857   3.043  0.2201  1.5101 -0.6651
   67SAPC   H5Y 5644   3.071   2.831   3.037 -0.4918  1.3368  0.4428
   67SAPC   C36 5645   3.140   2.961   3.197 -0.6561 -0.3122 -0.2686
   67SAPC   H6X 5646   3.036   2.999   3.203 -0.1403  1.2293 -0.6303
   67SAPC   H6Y 5647   3.199   3.053   3.217 -2.4571  0.9003 -0.3266
   67SAPC   C37 5648   3.165   2.848   3.305  0.1732  0.1158  0.0841
   67SAPC   H7X 5649   3.275   2.845   3.312  0.3489  1.2594 -1.5338
   67SAPC   H7Y 5650   3.121   2.754   3.265 -0.3523 -0.2572  1.4673
   67SAPC   C38 5651   3.088   2.873   3.437  0.3164 -0.4750  0.4845
   67SAPC   H8X 5652   2.987   2.902   3.401 -0.7168 -3.9602  0.2098
   67SAPC   H8Y 5653   3.114   2.963   3.497  0.3665  0.4831 -0.9262
   67SAPC   C39 5654   3.080   2.751   3.532  0.5103  0.2351  0.3257
   67SAPC   H9X 5655   3.184   2.722   3.561  0.2425 -2.9785 -1.4470
   67SAPC   H9Y 5656   3.031   2.675   3.468 -0.7074  0.8577  0.4909
   67SAPC  C310 5657   2.995   2.766   3.661 -0.4101 -0.1949  1.3384
   67SAPC  H10X 5658   2.985   2.660   3.693  1.2774 -1.5809 -2.2113
   67SAPC  H10Y 5659   2.902   2.823   3.640 -1.2198 -1.7208  0.6951
   67SAPC  C311 5660   3.064   2.844   3.768 -0.3090 -0.1494 -0.1562
   67SAPC  H11X 5661   3.050   2.955   3.769  1.2113  0.0603  1.1561
   67SAPC  H11Y 5662   3.174   2.837   3.759 -0.2345 -0.4411  0.9428
   67SAPC  C312 5663   3.024   2.786   3.902 -0.8404 -0.0073  0.4107
   67SAPC  H12X 5664   3.104   2.813   3.975 -0.7553  0.9718 -0.0250
   67SAPC  H12Y 5665   3.015   2.677   3.887 -1.5282 -0.2649  2.3714
   67SAPC  C313 5666   2.889   2.839   3.947 -0.0358  0.2794  0.6420
   67SAPC  H13X 5667   2.807   2.807   3.879 -0.7254  0.9576  1.1415
   67SAPC  H13Y 5668   2.893   2.950   3.945  2.4676  0.2722  1.0900
   67SAPC  C314 5669   2.852   2.797   4.086  0.1133  0.7697 -0.3376
   67SAPC  H14X 5670   2.917   2.855   4.155  2.5121  1.3302 -2.8766
   67SAPC  H14Y 5671   2.872   2.691   4.110  0.0828  0.7743 -0.2925
   67SAPC  C315 5672   2.706   2.816   4.115  0.2615  0.0064 -0.3182
   67SAPC  H15X 5673   2.668   2.755   4.200 -3.3478  0.3907 -1.4640
   67SAPC  H15Y 5674   2.656   2.772   4.026  0.6519  1.3830 -1.2652
   67SAPC  C316 5675   2.658   2.963   4.136  0.0906 -0.4034  1.1564
   67SAPC  H16X 5676   2.679   3.034   4.054 -0.4253 -2.8646 -1.2381
   67SAPC  H16Y 5677   2.722   2.993   4.222 -0.2578 -0.6609  1.5115
   67SAPC  C317 5678   2.504   2.969   4.157 -0.0867 -0.6345  0.2958
   67SAPC  H17X 5679   2.469   3.074   4.146  3.0319  0.3684 -1.0938
   67SAPC  H17Y 5680   2.492   2.950   4.266 -0.4571  1.8243  0.7480
   67SAPC  C318 5681   2.420   2.890   4.066  0.1202 -0.0017  0.5061
   67SAPC  H18X 5682   2.312   2.913   4.080  0.1784  0.9822 -0.5405
   67SAPC  H18Y 5683   2.427   2.782   4.092 -0.3515  0.0504  0.8713
   67SAPC  H18Z 5684   2.457   2.898   3.962  1.4397 -0.6758  0.9073
   68SAPC     N 5685   4.953   4.409   1.932  0.2320  0.1519  0.4874
   68SAPC   C12 5686   5.047   4.365   2.046  1.0360  0.8146  0.2084
   68SAPC  H12A 5687   5.139   4.422   2.049  2.0269 -0.6791 -0.6275
   68SAPC  H12B 5688   5.071   4.262   2.026  0.2906  0.9619 -1.7199
   68SAPC   C13 5689   4.939   4.566   1.932  0.3327 -0.4556  0.2016
   68SAPC  H13A 5690   4.900   4.606   1.840  0.8716  1.3935  0.7367
   68SAPC  H13B 5691   4.873   4.587   2.015  1.1382 -0.2290  0.8075
   68SAPC  H13C 5692   5.034   4.612   1.954  1.1520 -2.3275  0.7636
   68SAPC   C14 5693   4.997   4.372   1.801  0.2733  0.2411 -0.1480
   68SAPC  H14A 5694   5.092   4.414   1.770  0.8240 -1.1224 -0.3536
   68SAPC  H14B 5695   5.015   4.266   1.794 -1.6240 -0.1395  0.1731
   68SAPC  H14C 5696   4.927   4.404   1.724 -2.0994  0.5104  1.9985
   68SAPC   C15 5697   4.817   4.340   1.953 -0.2138  0.2053 -0.9610
   68SAPC  H15A 5698   4.810   4.322   2.060 -1.0192  2.0470 -0.6578
   68SAPC  H15B 5699   4.738   4.410   1.929  0.0869  1.5164  1.5455
   68SAPC  H15C 5700   4.806   4.254   1.889  0.4416  1.2800 -2.5586
   68SAPC   C11 5701   4.995   4.360   2.189 -0.9407  0.2446  0.1459
   68SAPC  H11A 5702   4.940   4.457   2.192 -1.0218  0.1861  0.6667
   68SAPC  H11B 5703   5.085   4.364   2.254 -0.8008  0.9153 -0.0763
   68SAPC     P 5704   4.966   4.105   2.236  0.3426  0.1810 -0.0513
   68SAPC   O13 5705   4.855   4.011   2.215  0.4827  0.1966 -0.0803
   68SAPC   O14 5706   5.078   4.079   2.146  0.0880 -0.4357  0.5878
   68SAPC   O12 5707   4.903   4.256   2.211 -0.2824  0.3719  0.1965
   68SAPC   O11 5708   5.023   4.106   2.383 -0.5993 -0.3184 -0.6591
   68SAPC    C1 5709   4.948   4.121   2.503  0.3669  0.3784  0.8696
   68SAPC    HA 5710   4.848   4.168   2.492 -1.1140 -2.0159  2.8947
   68SAPC    HB 5711   4.926   4.023   2.550 -2.8395  1.3676  1.7247
   68SAPC    C2 5712   5.024   4.225   2.592  0.1241  0.3653  0.6118
   68SAPC    HS 5713   5.016   4.321   2.537 -1.5443 -0.5971 -0.9760
   68SAPC   O21 5714   5.155   4.178   2.611 -0.4730  0.2875 -0.1880
   68SAPC   C21 5715   5.249   4.279   2.608 -0.0879  0.2784  0.8871
   68SAPC   O22 5716   5.236   4.394   2.574 -0.2779  0.1029 -0.3265
   68SAPC   C22 5717   5.383   4.213   2.633  0.0383 -0.4264  0.2332
   68SAPC   H2R 5718   5.371   4.118   2.689 -2.7332  0.2242  0.8725
   68SAPC   H2S 5719   5.434   4.183   2.539  0.7829  0.2773  0.4064
   68SAPC    C3 5720   4.965   4.240   2.735  0.0830 -0.1501  0.4491
   68SAPC    HX 5721   5.021   4.316   2.792 -0.8096 -0.2416  1.4758
   68SAPC    HY 5722   4.981   4.138   2.777  0.5531 -0.8474 -1.3265
   68SAPC   O31 5723   4.820   4.265   2.728  0.0686  0.0093 -0.0239
   68SAPC   C31 5724   4.782   4.386   2.701  0.6206  0.0189  0.3221
   68SAPC   O32 5725   4.853   4.482   2.693  0.2775 -0.3355 -0.3795
   68SAPC   C32 5726   4.628   4.391   2.707 -0.1136  0.4480 -0.3996
   68SAPC   H2X 5727   4.577   4.366   2.611 -2.2562 -0.0914  0.8059
   68SAPC   H2Y 5728   4.604   4.498   2.721  1.1318  0.8412 -1.0985
   68SAPC   C23 5729   5.478   4.313   2.701 -0.7338  0.1468 -0.4034
   68SAPC   H3R 5730   5.462   4.421   2.679  2.1698  0.4542 -1.5178
   68SAPC   H3S 5731   5.576   4.282   2.659 -1.3414 -3.6706  0.6379
   68SAPC   C24 5732   5.489   4.311   2.851  0.3394  0.8526 -0.5323
   68SAPC   H4R 5733   5.569   4.381   2.884  1.4183 -0.8244  0.5907
   68SAPC   H4S 5734   5.528   4.210   2.873 -3.1951 -0.7389 -0.8858
   68SAPC   C25 5735   5.349   4.333   2.909  0.6900 -0.5600 -0.5402
   68SAPC   H5R 5736   5.304   4.427   2.875  0.9333  0.2617  1.2869
   68SAPC   C26 5737   5.286   4.250   2.994  0.1961  0.3881  0.4026
   68SAPC   H6R 5738   5.193   4.270   3.050 -0.2208  0.1182 -0.1860
   68SAPC   C27 5739   5.336   4.110   3.043  0.1038 -0.2955  0.4033
   68SAPC   H7R 5740   5.313   4.096   3.151  0.4855 -0.0213  0.5246
   68SAPC   H7S 5741   5.447   4.107   3.043  0.1408  0.1526 -1.1187
   68SAPC   C28 5742   5.272   4.006   2.957  0.6456 -0.2315 -0.2750
   68SAPC   H8R 5743   5.339   3.968   2.878  1.9167  1.7321 -0.2154
   68SAPC   C29 5744   5.155   3.940   2.964 -0.8476 -0.4275  0.1168
   68SAPC   H9R 5745   5.128   3.863   2.890 -1.5396  0.0880 -0.1769
   68SAPC  C210 5746   5.043   3.948   3.060  0.9040  0.1906 -0.6585
   68SAPC  H10R 5747   5.069   4.036   3.123  0.0895 -0.7280  1.0322
   68SAPC  H10S 5748   5.038   3.859   3.125 -0.3006  2.1926  2.2155
   68SAPC  C211 5749   4.902   3.975   3.003 -0.4542  0.1036 -0.3497
   68SAPC  H11R 5750   4.911   3.968   2.893  1.4242  4.0258 -0.6168
   68SAPC  C212 5751   4.791   4.016   3.065  0.3269  0.5339 -1.0069
   68SAPC  H12R 5752   4.695   4.025   3.012 -0.0671 -2.1484 -0.9189
   68SAPC  C213 5753   4.777   4.035   3.210  0.9505 -0.1270 -1.2607
   68SAPC  H13R 5754   4.874   4.069   3.251  0.5834  1.4930 -1.6498
   68SAPC  H13S 5755   4.760   3.943   3.270 -0.6445 -0.7187 -2.5310
   68SAPC  C214 5756   4.682   4.150   3.246  0.1950  0.2839 -0.1691
   68SAPC  H14R 5757   4.738   4.243   3.262  0.2578  0.0537  1.0696
   68SAPC  C215 5758   4.547   4.151   3.246 -0.3544  0.3436  0.1453
   68SAPC  H15R 5759   4.495   4.240   3.283 -0.5674  1.2068 -2.0981
   68SAPC  C216 5760   4.464   4.032   3.217 -0.0572 -0.6164 -0.6376
   68SAPC  H16R 5761   4.518   3.942   3.180 -0.3108 -1.1430  0.2339
   68SAPC  H16S 5762   4.400   4.071   3.135 -0.4912  1.2151  0.4967
   68SAPC  C217 5763   4.370   3.988   3.339  0.1610  0.0478  0.8314
   68SAPC  H17R 5764   4.312   3.908   3.288  0.7903 -0.2491  0.5808
   68SAPC  H17S 5765   4.295   4.066   3.367 -2.0955 -2.1419  1.2679
   68SAPC  C218 5766   4.433   3.911   3.452  0.0444  0.3626  0.0405
   68SAPC  H18R 5767   4.512   3.974   3.499  0.4942  0.5834 -0.9756
   68SAPC  H18S 5768   4.488   3.824   3.410 -1.0255 -0.2160 -0.1761
   68SAPC  C219 5769   4.335   3.856   3.559 -0.3012 -0.0980 -0.9545
   68SAPC  H19R 5770   4.278   3.767   3.525  0.4282 -0.4784 -1.1923
   68SAPC  H19S 5771   4.258   3.935   3.574 -0.1197 -0.4900  3.0241
   68SAPC  C220 5772   4.392   3.822   3.696  0.0855 -0.5311 -0.3208
   68SAPC  H20R 5773   4.382   3.919   3.750 -3.3844 -1.6564  1.3395
   68SAPC  H20S 5774   4.498   3.789   3.689  0.0837 -0.8464  0.8914
   68SAPC  H20T 5775   4.329   3.753   3.756 -0.3669 -0.0127 -0.1876
   68SAPC   C33 5776   4.571   4.303   2.814  0.2570 -0.2321 -0.1433
   68SAPC   H3X 5777   4.632   4.302   2.906  1.3321  0.2288 -0.8350
   68SAPC   H3Y 5778   4.563   4.200   2.774  0.1258  0.5185 -2.1712
   68SAPC   C34 5779   4.429   4.325   2.846  0.3275 -0.3636  0.4472
   68SAPC   H4X 5780   4.387   4.232   2.890  0.4053 -1.0816 -0.9333
   68SAPC   H4Y 5781   4.376   4.349   2.751  1.5470  0.7838  0.0216
   68SAPC   C35 5782   4.411   4.430   2.953  0.4007 -0.4732 -0.0836
   68SAPC   H5X 5783   4.431   4.528   2.905  2.3999  0.4520  2.4047
   68SAPC   H5Y 5784   4.488   4.411   3.031 -0.0153 -0.0419  0.4404
   68SAPC   C36 5785   4.276   4.413   3.025  0.1833  0.1691 -0.5261
   68SAPC   H6X 5786   4.270   4.318   3.083  0.0833  0.8183  0.5460
   68SAPC   H6Y 5787   4.202   4.414   2.942  0.9823 -0.3657 -1.2648
   68SAPC   C37 5788   4.254   4.525   3.133  0.1069 -0.3215 -0.5243
   68SAPC   H7X 5789   4.147   4.536   3.161  0.1670  2.8814 -1.1639
   68SAPC   H7Y 5790   4.280   4.624   3.089 -0.6466  1.2299  2.2380
   68SAPC   C38 5791   4.351   4.509   3.255  0.1262 -0.2000  0.1253
   68SAPC   H8X 5792   4.460   4.526   3.237 -0.0163 -1.1473 -1.8746
   68SAPC   H8Y 5793   4.340   4.407   3.297  1.3105  0.5855  2.5166
   68SAPC   C39 5794   4.308   4.624   3.360  0.1169 -0.5209  0.4814
   68SAPC   H9X 5795   4.199   4.641   3.353  0.5221  1.7706 -1.2306
   68SAPC   H9Y 5796   4.361   4.715   3.325  0.5374 -0.6857  0.6744
   68SAPC  C310 5797   4.353   4.597   3.502  0.1780 -0.6004  0.5351
   68SAPC  H10X 5798   4.340   4.684   3.570 -0.6464 -1.2498  1.2415
   68SAPC  H10Y 5799   4.458   4.562   3.491 -1.1722 -4.7700 -0.6915
   68SAPC  C311 5800   4.280   4.472   3.563 -0.6179 -0.2078  0.4523
   68SAPC  H11X 5801   4.325   4.380   3.521  1.5117  0.6538  0.6914
   68SAPC  H11Y 5802   4.173   4.467   3.534 -0.8903 -0.7066  1.4884
   68SAPC  C312 5803   4.288   4.475   3.718 -0.1827  0.6302 -0.1723
   68SAPC  H12X 5804   4.203   4.538   3.755  0.0401  0.8223  0.0179
   68SAPC  H12Y 5805   4.388   4.503   3.757  0.9260 -0.7778 -1.9017
   68SAPC  C313 5806   4.253   4.338   3.764  0.4055 -0.0674  0.4036
   68SAPC  H13X 5807   4.339   4.271   3.742  1.1555  0.1878  2.3853
   68SAPC  H13Y 5808   4.180   4.299   3.689  2.3089 -3.7652  0.2398
   68SAPC  C314 5809   4.198   4.337   3.912 -0.2675 -0.6706  0.3146
   68SAPC  H14X 5810   4.100   4.388   3.900  0.2509  0.2574 -0.0281
   68SAPC  H14Y 5811   4.264   4.400   3.975 -1.6163  1.0093  0.1393
   68SAPC  C315 5812   4.156   4.196   3.974  0.0736 -1.1710 -0.0161
   68SAPC  H15X 5813   4.073   4.145   3.919 -0.3282  0.3849 -0.9420
   68SAPC  H15Y 5814   4.111   4.220   4.073  0.7397  0.5919 -0.0984
   68SAPC  C316 5815   4.275   4.095   3.993  0.2981  0.4827  0.1275
   68SAPC  H16X 5816   4.359   4.137   4.053  1.7195 -2.6999  0.5525
   68SAPC  H16Y 5817   4.312   4.087   3.889  0.8129  2.0618  0.1633
   68SAPC  C317 5818   4.239   3.955   4.055 -0.4837  0.2002 -0.2328
   68SAPC  H17X 5819   4.329   3.893   4.078 -1.0394 -0.2001  0.9103
   68SAPC  H17Y 5820   4.179   3.897   3.981  0.7812 -1.3377 -0.1120
   68SAPC  C318 5821   4.165   3.955   4.186  0.0374 -0.5393 -1.1698
   68SAPC  H18X 5822   4.208   4.024   4.262 -0.3181 -2.4861  0.8998
   68SAPC  H18Y 5823   4.158   3.852   4.225 -1.7287 -0.2946 -0.7854
   68SAPC  H18Z 5824   4.062   3.995   4.176  0.7002  0.8402 -3.3263
   69SAPC     N 5825   4.259   6.522   1.833  0.0998 -0.5057  0.6517
   69SAPC   C12 5826   4.235   6.435   1.951 -0.5160 -0.0493  0.4468
   69SAPC  H12A 5827   4.288   6.340   1.945 -0.6599 -0.0768 -0.4021
   69SAPC  H12B 5828   4.135   6.396   1.959 -0.3410 -0.6229 -0.0173
   69SAPC   C13 5829   4.179   6.661   1.847  0.7410 -0.2024 -0.3550
   69SAPC  H13A 5830   4.202   6.715   1.757 -2.6548  1.7424 -0.2058
   69SAPC  H13B 5831   4.073   6.642   1.855  0.6809  0.4209  0.5319
   69SAPC  H13C 5832   4.216   6.709   1.937 -0.1964 -1.2853  0.6372
   69SAPC   C14 5833   4.410   6.551   1.815  0.4276  0.0229 -0.4217
   69SAPC  H14A 5834   4.438   6.623   1.739  1.7511 -2.1415 -2.1114
   69SAPC  H14B 5835   4.460   6.576   1.907 -0.0695  0.5420 -0.2863
   69SAPC  H14C 5836   4.464   6.468   1.772  0.8760  1.0427 -1.9063
   69SAPC   C15 5837   4.213   6.454   1.708 -0.2820 -0.0541  0.3955
   69SAPC  H15A 5838   4.197   6.532   1.634 -2.7734 -0.6050  0.2738
   69SAPC  H15B 5839   4.272   6.372   1.671  0.5842 -0.7279  3.0727
   69SAPC  H15C 5840   4.110   6.431   1.732 -0.2520  3.1834  4.9861
   69SAPC   C11 5841   4.268   6.485   2.091 -0.1274 -0.3882 -0.5593
   69SAPC  H11A 5842   4.374   6.513   2.109  0.8078 -2.5555 -2.2753
   69SAPC  H11B 5843   4.267   6.396   2.157  1.8855 -0.3803 -0.4557
   69SAPC     P 5844   4.189   6.660   2.276 -0.5466 -0.1732  0.3898
   69SAPC   O13 5845   4.276   6.776   2.237 -0.4918  0.2969 -0.3922
   69SAPC   O14 5846   4.051   6.683   2.321 -0.2806  0.2904  0.6166
   69SAPC   O12 5847   4.168   6.575   2.144  0.4385 -0.2795 -0.2360
   69SAPC   O11 5848   4.267   6.562   2.375 -0.0013 -0.3069  0.3086
   69SAPC    C1 5849   4.202   6.448   2.424 -0.5965  0.3950  0.6742
   69SAPC    HA 5850   4.099   6.449   2.383 -0.0251  0.5022 -0.8351
   69SAPC    HB 5851   4.257   6.359   2.389 -1.5307 -0.0979  0.4343
   69SAPC    C2 5852   4.195   6.441   2.575  0.5447 -0.1805  0.0282
   69SAPC    HS 5853   4.269   6.364   2.608  1.1748  0.0516 -0.8145
   69SAPC   O21 5854   4.060   6.412   2.623 -0.2258  0.3359  0.1299
   69SAPC   C21 5855   4.023   6.283   2.587  0.1571  0.2544  0.8234
   69SAPC   O22 5856   4.093   6.211   2.526 -0.0935 -0.0803 -0.1679
   69SAPC   C22 5857   3.873   6.260   2.623  0.8458 -0.0325 -1.1386
   69SAPC   H2R 5858   3.832   6.352   2.669  0.2586  0.3462 -2.3668
   69SAPC   H2S 5859   3.814   6.238   2.531 -0.0459 -0.5505 -0.4584
   69SAPC    C3 5860   4.241   6.573   2.641  0.9658  0.7610 -0.3887
   69SAPC    HX 5861   4.167   6.653   2.618  1.8617  1.5567 -0.5649
   69SAPC    HY 5862   4.335   6.607   2.592  1.3639 -3.2804 -2.9080
   69SAPC   O31 5863   4.269   6.552   2.779 -0.1279 -0.4700 -0.7078
   69SAPC   C31 5864   4.182   6.595   2.863  0.4054  0.1903  0.4530
   69SAPC   O32 5865   4.086   6.665   2.838  0.1849  0.2932 -0.2813
   69SAPC   C32 5866   4.204   6.524   2.994  0.6034 -0.0099  0.0826
   69SAPC   H2X 5867   4.313   6.521   3.013  0.5963 -2.1199  0.0432
   69SAPC   H2Y 5868   4.160   6.422   2.983  2.8124 -1.2832  2.1485
   69SAPC   C23 5869   3.839   6.141   2.716 -0.2244 -0.8933 -0.1109
   69SAPC   H3R 5870   3.861   6.043   2.670  1.5237 -0.7608  0.3511
   69SAPC   H3S 5871   3.730   6.134   2.738 -0.2425  0.6803  0.4577
   69SAPC   C24 5872   3.918   6.151   2.848  0.0774 -0.1385 -0.2758
   69SAPC   H4R 5873   4.025   6.131   2.826 -0.5141 -0.8579 -2.8764
   69SAPC   H4S 5874   3.884   6.069   2.914 -1.3587 -0.0814 -0.8906
   69SAPC   C25 5875   3.911   6.288   2.920 -0.4597  0.1421  0.4972
   69SAPC   H5R 5876   3.920   6.378   2.857 -1.3600  1.3626  2.0168
   69SAPC   C26 5877   3.883   6.304   3.055 -0.9028  0.4549  0.0247
   69SAPC   H6R 5878   3.900   6.404   3.097  1.5261  0.4093 -0.6766
   69SAPC   C27 5879   3.882   6.195   3.160  0.1528 -0.3086 -0.6410
   69SAPC   H7R 5880   3.976   6.137   3.155  2.0043  2.5290 -0.8807
   69SAPC   H7S 5881   3.799   6.130   3.124  0.4613 -0.8225 -0.4337
   69SAPC   C28 5882   3.850   6.246   3.292 -0.0803 -0.4293  0.2474
   69SAPC   H8R 5883   3.792   6.339   3.299 -1.9085 -1.3163 -1.8812
   69SAPC   C29 5884   3.884   6.186   3.409 -0.0616  0.5771  0.5777
   69SAPC   H9R 5885   3.856   6.244   3.498 -1.3367  0.3495  0.3517
   69SAPC  C210 5886   3.957   6.054   3.426  0.0164 -0.9023  0.0060
   69SAPC  H10R 5887   4.053   6.085   3.473  0.0774 -2.8406  1.3009
   69SAPC  H10S 5888   3.978   6.012   3.326 -1.0452  3.2852 -2.1957
   69SAPC  C211 5889   3.887   5.956   3.516  0.3134 -0.1677  0.8701
   69SAPC  H11R 5890   3.790   5.917   3.481  0.7747  0.0817 -0.8064
   69SAPC  C212 5891   3.924   5.921   3.639 -0.4642  0.3352 -0.2833
   69SAPC  H12R 5892   3.867   5.840   3.685  2.2160 -2.2064 -1.1503
   69SAPC  C213 5893   4.057   5.959   3.703  0.2979  0.2808  0.4052
   69SAPC  H13R 5894   4.038   6.068   3.718 -0.7857 -0.0331  1.4920
   69SAPC  H13S 5895   4.139   5.967   3.628 -0.0945  5.0987  0.1651
   69SAPC  C214 5896   4.093   5.897   3.836 -0.0655 -0.1701 -0.0570
   69SAPC  H14R 5897   4.168   5.817   3.828  2.9055  2.0274  2.8924
   69SAPC  C215 5898   4.051   5.937   3.956 -0.8052 -0.4687 -0.7262
   69SAPC  H15R 5899   4.087   5.876   4.040 -0.9028  0.4467 -0.0013
   69SAPC  C216 5900   3.954   6.044   4.004  0.2084  0.3838  0.0011
   69SAPC  H16R 5901   3.866   5.986   4.039  1.9460 -1.8404  0.9376
   69SAPC  H16S 5902   3.918   6.116   3.927 -0.3395 -0.9608 -1.0434
   69SAPC  C217 5903   3.996   6.118   4.124 -0.8212  0.0707 -0.4279
   69SAPC  H17R 5904   3.940   6.213   4.133 -0.6562  0.0368  1.2621
   69SAPC  H17S 5905   4.101   6.148   4.103 -1.5806  1.4565 -2.5443
   69SAPC  C218 5906   3.975   6.038   4.256 -0.2289 -0.6086 -0.2016
   69SAPC  H18R 5907   4.017   5.937   4.239  1.4359  0.0461 -0.1201
   69SAPC  H18S 5908   3.865   6.037   4.273 -0.5086 -1.5394 -1.7713
   69SAPC  C219 5909   4.038   6.096   4.377 -0.4104  0.3861  0.5360
   69SAPC  H19R 5910   3.987   6.055   4.467 -1.4956  0.3382 -0.0907
   69SAPC  H19S 5911   4.013   6.204   4.375 -1.1585  0.2344  1.1679
   69SAPC  C220 5912   4.189   6.071   4.376 -0.1337 -0.3030 -0.0474
   69SAPC  H20R 5913   4.244   6.126   4.455  0.9079 -2.0708  0.4965
   69SAPC  H20S 5914   4.232   6.082   4.274  0.6706  1.1287  0.4192
   69SAPC  H20T 5915   4.209   5.970   4.417 -2.9728  0.1605  2.8387
   69SAPC   C33 5916   4.130   6.588   3.114  0.4082  0.5092  0.0848
   69SAPC   H3X 5917   4.019   6.588   3.100  0.5205 -3.2373 -2.1768
   69SAPC   H3Y 5918   4.170   6.691   3.127  1.2026  0.2279 -0.0912
   69SAPC   C34 5919   4.177   6.521   3.246 -0.0116  0.5243  0.0771
   69SAPC   H4X 5920   4.286   6.535   3.261  0.1960  0.2499 -1.1052
   69SAPC   H4Y 5921   4.158   6.413   3.231  1.2358  0.3146 -0.1135
   69SAPC   C35 5922   4.106   6.567   3.373  0.1115 -0.2684  0.1420
   69SAPC   H5X 5923   3.998   6.560   3.350  0.0074  0.2830  0.4502
   69SAPC   H5Y 5924   4.133   6.672   3.398  0.2182  0.2837 -2.0926
   69SAPC   C36 5925   4.136   6.482   3.501  0.2485 -0.2487 -0.4207
   69SAPC   H6X 5926   4.246   6.478   3.512  0.2207  1.7025  1.1327
   69SAPC   H6Y 5927   4.101   6.381   3.473 -1.6749 -0.1771  1.4798
   69SAPC   C37 5928   4.075   6.530   3.631  0.1954 -0.2239 -0.1566
   69SAPC   H7X 5929   4.059   6.445   3.702  0.1595 -1.1720 -1.2707
   69SAPC   H7Y 5930   3.979   6.581   3.607  0.0521 -0.5651 -0.3141
   69SAPC   C38 5931   4.169   6.627   3.706 -0.2631  0.1165  0.0421
   69SAPC   H8X 5932   4.095   6.686   3.765 -1.1443 -1.7167  0.8266
   69SAPC   H8Y 5933   4.227   6.706   3.652  0.0258 -1.4679 -2.1066
   69SAPC   C39 5934   4.272   6.568   3.806  0.6138 -0.0825  0.1039
   69SAPC   H9X 5935   4.209   6.524   3.886  0.1817 -1.9794 -1.2249
   69SAPC   H9Y 5936   4.332   6.645   3.859  0.1855  1.7367 -1.8904
   69SAPC  C310 5937   4.370   6.461   3.759 -0.0317 -0.3840 -0.5024
   69SAPC  H10X 5938   4.409   6.496   3.661  0.6644  0.1916 -0.0311
   69SAPC  H10Y 5939   4.328   6.359   3.745 -1.3535  0.0672  0.0319
   69SAPC  C311 5940   4.491   6.447   3.858  0.7850 -0.7437 -0.1488
   69SAPC  H11X 5941   4.530   6.548   3.882 -0.2063 -0.5678  0.8141
   69SAPC  H11Y 5942   4.568   6.384   3.808 -0.7700 -1.8853 -1.1785
   69SAPC  C312 5943   4.447   6.384   3.994  0.2013  0.8515  0.1094
   69SAPC  H12X 5944   4.385   6.293   3.976  1.2327  0.1564  0.0116
   69SAPC  H12Y 5945   4.364   6.441   4.041  0.0480  1.2626 -0.6544
   69SAPC  C313 5946   4.561   6.370   4.090 -0.3418  0.2670  0.4650
   69SAPC  H13X 5947   4.646   6.422   4.041 -1.2408 -0.2550 -1.7485
   69SAPC  H13Y 5948   4.594   6.265   4.104 -1.6506 -0.0970  1.0124
   69SAPC  C314 5949   4.531   6.443   4.220 -0.0767 -0.3384  0.1458
   69SAPC  H14X 5950   4.442   6.404   4.274 -0.1164 -1.5218 -0.7306
   69SAPC  H14Y 5951   4.503   6.549   4.201  0.3455 -0.3983 -0.9104
   69SAPC  C315 5952   4.659   6.452   4.308  1.4567  0.3348 -0.3948
   69SAPC  H15X 5953   4.744   6.499   4.254  0.5422  1.2435 -1.0899
   69SAPC  H15Y 5954   4.672   6.347   4.342  1.0928  0.2263 -0.5830
   69SAPC  C316 5955   4.647   6.534   4.435 -0.3680  0.0910 -0.1163
   69SAPC  H16X 5956   4.555   6.596   4.442 -0.5603 -0.3479  1.7233
   69SAPC  H16Y 5957   4.733   6.604   4.434 -0.9062  0.7786 -1.8798
   69SAPC  C317 5958   4.654   6.453   4.567 -0.5389  0.0142 -0.6558
   69SAPC  H17X 5959   4.744   6.388   4.569 -0.3562  0.1855 -1.9400
   69SAPC  H17Y 5960   4.561   6.392   4.570 -1.3601  1.2338 -0.3957
   69SAPC  C318 5961   4.652   6.551   4.680 -0.6587 -0.2737 -0.5836
   69SAPC  H18X 5962   4.597   6.644   4.657 -1.2056 -0.1010  1.3036
   69SAPC  H18Y 5963   4.756   6.586   4.699 -1.1481  1.7471 -1.4359
   69SAPC  H18Z 5964   4.611   6.501   4.770  1.1373  0.4705  0.7340
   70SAPC     N 5965   5.430   4.965   2.137  0.1599 -0.3778 -0.1763
   70SAPC   C12 5966   5.291   5.030   2.175  0.3812 -0.1845 -0.4045
   70SAPC  H12A 5967   5.216   4.954   2.159 -0.4585  0.6367 -0.4220
   70SAPC  H12B 5968   5.263   5.098   2.096  1.9700  1.0008  0.0066
   70SAPC   C13 5969   5.424   4.938   1.994  0.1494  0.2211 -0.1308
   70SAPC  H13A 5970   5.525   4.913   1.966  1.0004  0.4417  2.4477
   70SAPC  H13B 5971   5.363   4.851   1.975 -0.5308 -0.0547  2.7549
   70SAPC  H13C 5972   5.401   5.028   1.939  1.6827  1.8464  1.6912
   70SAPC   C14 5973   5.533   5.063   2.156 -0.1225  0.0293  0.2400
   70SAPC  H14A 5974   5.632   5.021   2.151  0.8645  2.2042  0.0401
   70SAPC  H14B 5975   5.518   5.144   2.085 -1.2043  1.8263  2.3945
   70SAPC  H14C 5976   5.531   5.120   2.247  2.4653 -1.5509  1.3839
   70SAPC   C15 5977   5.460   4.845   2.211 -0.5919  0.2022  0.1631
   70SAPC  H15A 5978   5.370   4.784   2.215 -0.9260  0.5217 -1.5463
   70SAPC  H15B 5979   5.546   4.790   2.177 -0.0496  0.8949  0.3980
   70SAPC  H15C 5980   5.494   4.857   2.312  2.5871 -1.4598 -0.5854
   70SAPC   C11 5981   5.276   5.109   2.304  0.0530 -0.9943 -0.6111
   70SAPC  H11A 5982   5.306   5.042   2.388 -0.4736 -0.3789  0.0781
   70SAPC  H11B 5983   5.171   5.129   2.331  1.2631  2.6277  2.3184
   70SAPC     P 5984   5.399   5.290   2.427  0.3278  0.2679  0.3401
   70SAPC   O13 5985   5.512   5.203   2.474  0.2658 -0.6087  0.1932
   70SAPC   O14 5986   5.424   5.436   2.410  0.6763  0.2996 -0.0097
   70SAPC   O12 5987   5.340   5.233   2.291 -0.0004  0.2188  0.2028
   70SAPC   O11 5988   5.277   5.260   2.525  0.1394  0.1892 -0.5659
   70SAPC    C1 5989   5.169   5.352   2.551 -0.1726 -0.7936 -0.3515
   70SAPC    HA 5990   5.206   5.457   2.545 -0.9628 -0.3888  1.2668
   70SAPC    HB 5991   5.096   5.343   2.468 -0.4550 -1.8603 -0.0020
   70SAPC    C2 5992   5.113   5.323   2.698  0.2247  0.4932  1.0101
   70SAPC    HS 5993   5.039   5.403   2.719 -1.7208 -0.7578 -0.6806
   70SAPC   O21 5994   5.216   5.308   2.796 -0.3419 -0.5233  0.5429
   70SAPC   C21 5995   5.276   5.424   2.816 -1.0132 -0.0937  0.2315
   70SAPC   O22 5996   5.243   5.538   2.773  0.0139  0.1841  0.4948
   70SAPC   C22 5997   5.386   5.393   2.918  0.2514 -0.4508  0.0216
   70SAPC   H2R 5998   5.442   5.302   2.886  0.1383 -1.4752  2.5253
   70SAPC   H2S 5999   5.452   5.482   2.909 -0.6830  0.2222 -0.3508
   70SAPC    C3 6000   5.028   5.189   2.693  0.3887 -0.1699 -0.1143
   70SAPC    HX 6001   5.079   5.119   2.623  0.1795 -2.6606  2.0765
   70SAPC    HY 6002   4.927   5.216   2.655  0.1242 -1.4001 -0.3333
   70SAPC   O31 6003   5.028   5.135   2.826 -0.7757  0.0731 -0.5374
   70SAPC   C31 6004   5.100   5.027   2.846  0.5669 -0.6281  0.2021
   70SAPC   O32 6005   5.151   4.964   2.756  0.0575  0.0554  0.0654
   70SAPC   C32 6006   5.122   5.008   2.993 -0.5906 -0.1440 -0.2427
   70SAPC   H2X 6007   5.022   4.999   3.041  0.2669  0.8877  1.8955
   70SAPC   H2Y 6008   5.164   5.105   3.028  1.9797 -1.2776  0.0307
   70SAPC   C23 6009   5.323   5.376   3.061  0.6002 -0.4606  0.0441
   70SAPC   H3R 6010   5.213   5.373   3.055  0.6186 -1.6358  0.0446
   70SAPC   H3S 6011   5.350   5.464   3.123  0.9882 -0.5655  0.0293
   70SAPC   C24 6012   5.370   5.250   3.135  0.9597 -0.7966 -0.4697
   70SAPC   H4R 6013   5.351   5.163   3.069  2.3342 -0.9829 -0.6455
   70SAPC   H4S 6014   5.302   5.238   3.222  1.3223 -1.7240 -0.3079
   70SAPC   C25 6015   5.510   5.260   3.180 -0.7580  0.0203  0.7464
   70SAPC   H5R 6016   5.583   5.257   3.098  0.4443 -0.1587  1.7820
   70SAPC   C26 6017   5.555   5.287   3.306  0.1637  0.6746 -0.1971
   70SAPC   H6R 6018   5.664   5.300   3.320 -0.1569  2.8343  0.7501
   70SAPC   C27 6019   5.476   5.312   3.435  0.2971 -0.3163  0.5710
   70SAPC   H7R 6020   5.401   5.390   3.408  2.4443  1.3080 -1.0448
   70SAPC   H7S 6021   5.544   5.371   3.501  0.2716  0.1287  0.2072
   70SAPC   C28 6022   5.407   5.194   3.504  0.7589  0.2885 -1.0711
   70SAPC   H8R 6023   5.302   5.185   3.474  0.8546 -0.0779 -1.3041
   70SAPC   C29 6024   5.448   5.130   3.615  0.0370  0.0981 -0.6369
   70SAPC   H9R 6025   5.379   5.058   3.662 -0.3262  0.0416 -1.2561
   70SAPC  C210 6026   5.590   5.150   3.666  0.4171  0.7963  0.1034
   70SAPC  H10R 6027   5.590   5.100   3.765 -0.4284 -2.6216 -1.5117
   70SAPC  H10S 6028   5.599   5.260   3.682  0.7764  0.8083 -0.1431
   70SAPC  C211 6029   5.709   5.103   3.580 -0.0564  0.3996  0.1046
   70SAPC  H11R 6030   5.687   5.101   3.472  1.8454  0.7039 -0.3218
   70SAPC  C212 6031   5.833   5.068   3.633  0.8980  0.0871  0.1531
   70SAPC  H12R 6032   5.908   5.036   3.559  1.2471  0.7614  0.2130
   70SAPC  C213 6033   5.877   5.072   3.780  0.1114  0.3826 -0.2446
   70SAPC  H13R 6034   5.972   5.020   3.805 -0.2028  0.7434  1.9418
   70SAPC  H13S 6035   5.800   5.016   3.837  1.6351 -0.8787  0.6828
   70SAPC  C214 6036   5.894   5.215   3.821  0.0316 -0.1947  0.4664
   70SAPC  H14R 6037   5.839   5.286   3.758  1.9143 -0.0140 -1.0816
   70SAPC  C215 6038   5.982   5.276   3.911  0.5836  0.4901 -0.0049
   70SAPC  H15R 6039   5.978   5.386   3.921  2.5943  0.5311  0.7622
   70SAPC  C216 6040   6.072   5.195   4.000  0.1532 -1.0515  0.1437
   70SAPC  H16R 6041   6.173   5.201   3.954 -0.7324  0.0083 -1.7994
   70SAPC  H16S 6042   6.059   5.085   4.006  1.3480 -1.2930 -1.1783
   70SAPC  C217 6043   6.083   5.246   4.143 -0.2239  0.0779 -0.3656
   70SAPC  H17R 6044   6.002   5.208   4.208 -0.4981  0.2034 -0.6304
   70SAPC  H17S 6045   6.086   5.357   4.139 -0.2110  0.1071  0.3972
   70SAPC  C218 6046   6.217   5.203   4.207 -0.0008  0.1548  0.2183
   70SAPC  H18R 6047   6.297   5.247   4.142 -0.1071 -1.3928 -1.0105
   70SAPC  H18S 6048   6.223   5.093   4.192 -0.5934  0.1583 -0.0599
   70SAPC  C219 6049   6.242   5.225   4.354 -0.4646  0.7321 -0.3695
   70SAPC  H19R 6050   6.158   5.189   4.416 -1.2376  0.9382 -1.2804
   70SAPC  H19S 6051   6.250   5.334   4.376  1.0495  0.4028  0.8778
   70SAPC  C220 6052   6.374   5.159   4.393 -0.7535  0.1745  0.5573
   70SAPC  H20R 6053   6.372   5.050   4.373  0.6031 -0.0450  1.4701
   70SAPC  H20S 6054   6.403   5.159   4.500  0.9867 -0.6371  0.1208
   70SAPC  H20T 6055   6.451   5.198   4.323 -1.1864 -3.5891 -2.3016
   70SAPC   C33 6056   5.214   4.886   3.030  0.3694  0.5926  0.0130
   70SAPC   H3X 6057   5.297   4.898   2.958 -1.5684  0.1535 -2.4410
   70SAPC   H3Y 6058   5.150   4.802   2.996  2.7995 -1.3157 -0.1060
   70SAPC   C34 6059   5.259   4.876   3.172 -0.0657 -0.5570 -0.4836
   70SAPC   H4X 6060   5.328   4.963   3.183 -0.0286 -0.6170 -0.2322
   70SAPC   H4Y 6061   5.313   4.781   3.192  0.4977 -0.0149  0.7173
   70SAPC   C35 6062   5.140   4.889   3.271 -1.2434 -0.4270 -0.8450
   70SAPC   H5X 6063   5.064   4.817   3.235 -0.8519 -1.0235 -0.5175
   70SAPC   H5Y 6064   5.092   4.988   3.268  0.7803  0.6087 -1.0742
   70SAPC   C36 6065   5.181   4.861   3.419  0.2823  0.3311  0.2709
   70SAPC   H6X 6066   5.221   4.960   3.450  1.2021  0.8473 -2.2517
   70SAPC   H6Y 6067   5.263   4.787   3.423 -0.7285 -0.7404  3.0281
   70SAPC   C37 6068   5.060   4.824   3.507  0.7333 -1.1661 -0.4819
   70SAPC   H7X 6069   4.984   4.898   3.472  2.1610  0.3547 -0.4693
   70SAPC   H7Y 6070   5.025   4.721   3.484 -1.6180 -0.7114  0.6871
   70SAPC   C38 6071   5.078   4.832   3.667 -0.2697  0.4762  0.4997
   70SAPC   H8X 6072   4.996   4.785   3.725 -0.7912  1.8403  0.8911
   70SAPC   H8Y 6073   5.079   4.934   3.710 -0.3723  0.2669  1.0107
   70SAPC   C39 6074   5.211   4.764   3.711  0.8603 -0.1037 -0.5400
   70SAPC   H9X 6075   5.218   4.778   3.821  0.8557  2.0868 -0.7779
   70SAPC   H9Y 6076   5.296   4.812   3.660  0.8554 -0.8544 -1.2781
   70SAPC  C310 6077   5.215   4.616   3.681  0.2298  0.0508  1.0579
   70SAPC  H10X 6078   5.206   4.612   3.570 -1.2627  1.4753  1.0847
   70SAPC  H10Y 6079   5.127   4.569   3.730 -0.4697  0.1476 -0.0537
   70SAPC  C311 6080   5.343   4.540   3.728 -0.4100  0.3743  0.5890
   70SAPC  H11X 6081   5.370   4.584   3.827  0.4967  0.3410  0.3618
   70SAPC  H11Y 6082   5.426   4.570   3.662 -1.4800  1.1466 -0.4536
   70SAPC  C312 6083   5.334   4.387   3.738 -0.6051  0.2379 -0.0912
   70SAPC  H12X 6084   5.322   4.343   3.636  1.3605  2.9438 -1.6151
   70SAPC  H12Y 6085   5.238   4.360   3.787 -1.4590  0.1775 -1.7256
   70SAPC  C313 6086   5.455   4.315   3.804 -0.0049 -0.1469 -1.1121
   70SAPC  H13X 6087   5.445   4.344   3.911  1.2773  2.7039 -1.6615
   70SAPC  H13Y 6088   5.549   4.360   3.766  1.6102 -1.5899  0.9483
   70SAPC  C314 6089   5.456   4.164   3.786 -0.1741  0.4465  0.1597
   70SAPC  H14X 6090   5.362   4.125   3.830 -0.7275  0.4329 -0.9893
   70SAPC  H14Y 6091   5.541   4.113   3.836  0.1059  1.0472  0.2953
   70SAPC  C315 6092   5.460   4.112   3.641 -0.2364 -0.5570 -0.2077
   70SAPC  H15X 6093   5.539   4.162   3.580  0.1346  1.1664  1.5669
   70SAPC  H15Y 6094   5.359   4.139   3.602  0.3772  1.6076 -0.4529
   70SAPC  C316 6095   5.496   3.962   3.627  0.2133  0.0264 -0.0012
   70SAPC  H16X 6096   5.421   3.916   3.696  0.2505  0.7043  0.5015
   70SAPC  H16Y 6097   5.597   3.938   3.666  1.3573  2.6812 -1.1693
   70SAPC  C317 6098   5.475   3.901   3.484 -0.4655  0.0290  0.4210
   70SAPC  H17X 6099   5.507   3.795   3.492  2.6846  0.8769  0.3243
   70SAPC  H17Y 6100   5.545   3.958   3.418  0.0065 -1.0601 -0.0535
   70SAPC  C318 6101   5.333   3.914   3.432 -0.4221  0.2168  0.4054
   70SAPC  H18X 6102   5.258   3.869   3.501  0.6210 -2.0335  0.1792
   70SAPC  H18Y 6103   5.326   3.849   3.342  1.4508 -0.5539  0.7657
   70SAPC  H18Z 6104   5.294   4.014   3.406  1.1098  1.2231  1.7657
   71SAPC     N 6105   6.362   4.149   2.169  0.0268  0.2167 -0.3462
   71SAPC   C12 6106   6.239   4.212   2.241 -1.2354  0.0026 -0.7856
   71SAPC  H12A 6107   6.150   4.197   2.183 -1.0499 -0.1386 -1.0371
   71SAPC  H12B 6108   6.249   4.320   2.238  3.4077 -0.1214  1.2237
   71SAPC   C13 6109   6.493   4.190   2.231  0.1708  0.2358  0.2878
   71SAPC  H13A 6110   6.576   4.174   2.164 -2.4347 -1.2286 -2.8212
   71SAPC  H13B 6111   6.503   4.296   2.252 -0.2944  0.9446 -2.6213
   71SAPC  H13C 6112   6.511   4.146   2.328 -1.1194 -0.6826  0.1377
   71SAPC   C14 6113   6.362   4.000   2.182  0.2741  0.1617 -0.6250
   71SAPC  H14A 6114   6.267   3.957   2.154  1.2391 -2.4257 -0.2333
   71SAPC  H14B 6115   6.440   3.963   2.116  0.8152 -0.1210  0.1492
   71SAPC  H14C 6116   6.373   3.976   2.286 -2.0840 -1.2935 -0.6507
   71SAPC   C15 6117   6.358   4.195   2.028 -0.9343 -0.8481  0.3038
   71SAPC  H15A 6118   6.339   4.301   2.028 -0.0676 -0.6894  0.7073
   71SAPC  H15B 6119   6.454   4.181   1.982 -0.4466  1.9445  0.3214
   71SAPC  H15C 6120   6.276   4.150   1.974 -0.9895  1.1917 -1.4206
   71SAPC   C11 6121   6.212   4.179   2.394 -0.4789 -0.1992  0.3694
   71SAPC  H11A 6122   6.122   4.238   2.422 -2.3312 -2.0871 -1.2276
   71SAPC  H11B 6123   6.302   4.207   2.453  0.6724 -2.2373 -0.3159
   71SAPC     P 6124   6.034   3.981   2.378 -0.3795  0.0364 -0.5423
   71SAPC   O13 6125   5.953   4.082   2.313 -0.0271 -0.3337  0.1847
   71SAPC   O14 6126   6.054   3.851   2.314 -0.4807  0.3355 -0.3473
   71SAPC   O12 6127   6.186   4.040   2.410  1.1820 -0.0049 -0.6030
   71SAPC   O11 6128   5.978   3.955   2.523 -0.1367 -0.3270 -0.0706
   71SAPC    C1 6129   6.070   3.894   2.621  0.4036 -0.6051  0.1961
   71SAPC    HA 6130   6.170   3.865   2.583  0.2140 -0.6384 -0.2803
   71SAPC    HB 6131   6.098   3.964   2.703  3.3669 -0.1053 -1.1095
   71SAPC    C2 6132   6.004   3.772   2.686 -0.2469  0.1827  0.0172
   71SAPC    HS 6133   5.985   3.704   2.600  0.5002 -0.0252  0.0163
   71SAPC   O21 6134   5.879   3.816   2.741 -0.0256  0.3416  0.5868
   71SAPC   C21 6135   5.787   3.719   2.769  0.3083  0.6454 -0.2537
   71SAPC   O22 6136   5.810   3.600   2.759 -0.5689  0.4074  0.6310
   71SAPC   C22 6137   5.666   3.775   2.841 -0.3844 -0.0896 -0.2541
   71SAPC   H2R 6138   5.591   3.807   2.765 -2.3133 -1.9462  0.7535
   71SAPC   H2S 6139   5.616   3.691   2.893  0.1843 -1.9738 -2.5953
   71SAPC    C3 6140   6.092   3.703   2.796  0.2146 -0.2436  0.3016
   71SAPC    HX 6141   6.038   3.610   2.824 -0.6820 -0.6405 -2.4263
   71SAPC    HY 6142   6.093   3.774   2.881  1.1125 -0.0825  0.1629
   71SAPC   O31 6143   6.224   3.679   2.754  0.0225  0.2735 -0.8700
   71SAPC   C31 6144   6.244   3.582   2.676 -0.4806 -0.0428  0.3825
   71SAPC   O32 6145   6.167   3.493   2.638 -0.6777  0.6634 -0.2661
   71SAPC   C32 6146   6.390   3.590   2.631  0.0660  0.1211  0.0708
   71SAPC   H2X 6147   6.414   3.698   2.626  1.9786 -0.2245  1.1466
   71SAPC   H2Y 6148   6.398   3.541   2.532  0.1978 -2.6307  1.3536
   71SAPC   C23 6149   5.693   3.893   2.940 -0.2314  1.2331 -0.2577
   71SAPC   H3R 6150   5.604   3.957   2.957 -0.9946  0.0056  0.5423
   71SAPC   H3S 6151   5.771   3.961   2.902  1.9743 -0.3688  1.1708
   71SAPC   C24 6152   5.752   3.850   3.073  0.3678  0.4278  0.6467
   71SAPC   H4R 6153   5.807   3.935   3.117  2.7432  0.6294 -2.3866
   71SAPC   H4S 6154   5.825   3.766   3.067  0.1655  0.3527 -1.2978
   71SAPC   C25 6155   5.637   3.811   3.162 -0.2536 -0.6137 -0.2034
   71SAPC   H5R 6156   5.563   3.887   3.190  2.4158  1.3415  2.0774
   71SAPC   C26 6157   5.632   3.696   3.227  0.1231 -0.4731 -0.5614
   71SAPC   H6R 6158   5.540   3.682   3.286  0.3768  1.7516  0.4568
   71SAPC   C27 6159   5.735   3.581   3.212  0.1582 -0.3352  0.5782
   71SAPC   H7R 6160   5.837   3.623   3.206 -1.0175  2.6726  0.1476
   71SAPC   H7S 6161   5.721   3.530   3.114 -1.5657  1.4875 -0.1835
   71SAPC   C28 6162   5.715   3.479   3.317 -0.1865  0.0793  0.1200
   71SAPC   H8R 6163   5.650   3.399   3.280 -0.4703  0.0883  0.5922
   71SAPC   C29 6164   5.771   3.473   3.439 -0.8408  0.1001 -0.2833
   71SAPC   H9R 6165   5.743   3.391   3.507  0.0910  1.9290  2.4951
   71SAPC  C210 6166   5.871   3.565   3.497 -0.7685 -0.2382 -0.2097
   71SAPC  H10R 6167   5.952   3.586   3.424  0.5375 -1.3539  0.8657
   71SAPC  H10S 6168   5.918   3.507   3.579 -0.5772 -0.7475 -0.6733
   71SAPC  C211 6169   5.819   3.696   3.553 -0.8031  0.0382 -0.7358
   71SAPC  H11R 6170   5.723   3.741   3.521 -2.1609  0.4266  3.2486
   71SAPC  C212 6171   5.891   3.778   3.635 -0.2417  0.2630 -0.4270
   71SAPC  H12R 6172   5.848   3.870   3.679  1.4651  1.1948 -0.6381
   71SAPC  C213 6173   6.027   3.755   3.703 -0.7608  0.0163 -0.1081
   71SAPC  H13R 6174   6.104   3.818   3.653 -0.6785 -0.8497 -1.1226
   71SAPC  H13S 6175   6.068   3.652   3.693  1.4593  0.7728  0.5923
   71SAPC  C214 6176   6.022   3.777   3.854 -0.5006  0.2259 -0.3017
   71SAPC  H14R 6177   6.001   3.685   3.911 -0.6311  0.1597 -0.4572
   71SAPC  C215 6178   6.019   3.896   3.919 -0.1096  0.1943 -0.8716
   71SAPC  H15R 6179   6.021   3.906   4.029  3.4261  0.5046 -0.8389
   71SAPC  C216 6180   6.019   4.028   3.862 -0.4534 -0.0892  0.1112
   71SAPC  H16R 6181   6.042   4.024   3.754 -1.5174 -1.4295 -0.0847
   71SAPC  H16S 6182   6.096   4.088   3.917  1.6360 -0.4101 -2.2506
   71SAPC  C217 6183   5.895   4.113   3.881  0.6104  0.3967 -0.0834
   71SAPC  H17R 6184   5.877   4.138   3.987 -1.2083  0.6943 -0.4257
   71SAPC  H17S 6185   5.814   4.059   3.826  1.3999  0.6287 -1.5284
   71SAPC  C218 6186   5.908   4.258   3.821 -0.6200 -0.0601 -0.2037
   71SAPC  H18R 6187   5.995   4.301   3.876  1.3712 -2.1086 -1.5861
   71SAPC  H18S 6188   5.815   4.317   3.833 -3.2240 -3.1034 -3.2669
   71SAPC  C219 6189   5.937   4.255   3.671 -0.0358  0.3132  0.0305
   71SAPC  H19R 6190   6.030   4.203   3.640 -1.0955 -1.1335 -0.8382
   71SAPC  H19S 6191   5.943   4.362   3.640 -1.4753  0.7074  1.0193
   71SAPC  C220 6192   5.826   4.189   3.587  0.8728  0.8796 -0.5405
   71SAPC  H20R 6193   5.734   4.205   3.648  0.7064  2.5855 -1.2005
   71SAPC  H20S 6194   5.854   4.082   3.574 -0.0524  0.8328 -2.7076
   71SAPC  H20T 6195   5.814   4.233   3.485  0.1973 -1.1413 -1.4076
   71SAPC   C33 6196   6.488   3.517   2.726  0.0740  0.2565  0.2813
   71SAPC   H3X 6197   6.486   3.561   2.828  1.4976  1.3793 -0.1449
   71SAPC   H3Y 6198   6.586   3.546   2.681  0.1279 -1.2508 -0.6568
   71SAPC   C34 6199   6.489   3.364   2.733  0.3526  0.3032 -0.1105
   71SAPC   H4X 6200   6.511   3.315   2.636  0.5760 -0.0158  0.0997
   71SAPC   H4Y 6201   6.389   3.325   2.763  0.7951  0.2611  1.4001
   71SAPC   C35 6202   6.593   3.318   2.836  0.6251  0.8452  0.6663
   71SAPC   H5X 6203   6.691   3.367   2.821  1.5704 -1.3551 -0.8256
   71SAPC   H5Y 6204   6.601   3.209   2.814 -1.8567  0.4988  1.0983
   71SAPC   C36 6205   6.546   3.331   2.985 -0.3283  0.6035 -0.2808
   71SAPC   H6X 6206   6.455   3.269   2.998  1.1227 -1.6737 -0.3677
   71SAPC   H6Y 6207   6.527   3.439   2.999 -2.9646  0.1331  0.4124
   71SAPC   C37 6208   6.642   3.273   3.088  0.1970 -0.4910 -0.6700
   71SAPC   H7X 6209   6.732   3.337   3.091 -1.8017  2.4742  1.4983
   71SAPC   H7Y 6210   6.672   3.175   3.044  3.5028 -0.1188  0.5064
   71SAPC   C38 6211   6.583   3.251   3.229  0.1541 -0.5714 -0.0881
   71SAPC   H8X 6212   6.661   3.187   3.275  1.2768 -0.3874 -1.6601
   71SAPC   H8Y 6213   6.493   3.185   3.226 -0.0123 -0.3287 -0.7917
   71SAPC   C39 6214   6.571   3.383   3.302 -0.3480 -0.4458  0.5148
   71SAPC   H9X 6215   6.527   3.458   3.233 -0.2803  0.4090  1.3762
   71SAPC   H9Y 6216   6.672   3.426   3.316  0.1693 -2.0117  2.0283
   71SAPC  C310 6217   6.503   3.395   3.442 -0.2292 -0.1506 -0.1354
   71SAPC  H10X 6218   6.570   3.331   3.503 -0.9719 -2.0435 -1.2493
   71SAPC  H10Y 6219   6.400   3.354   3.437  0.1853 -1.2294 -0.0325
   71SAPC  C311 6220   6.499   3.530   3.508  0.5548 -0.4249  0.1749
   71SAPC  H11X 6221   6.483   3.601   3.424 -3.3637 -1.0563  0.1929
   71SAPC  H11Y 6222   6.595   3.555   3.558  0.5372 -1.0411  0.5157
   71SAPC  C312 6223   6.377   3.556   3.601 -0.3318  0.3477 -0.0610
   71SAPC  H12X 6224   6.288   3.544   3.535 -0.9531  1.3847  0.5502
   71SAPC  H12Y 6225   6.373   3.663   3.632  0.4287  0.2798  0.2883
   71SAPC  C313 6226   6.372   3.469   3.729 -0.2048  0.4521 -0.3319
   71SAPC  H13X 6227   6.461   3.504   3.786 -0.1117  0.7361 -0.6490
   71SAPC  H13Y 6228   6.386   3.360   3.709  0.3248 -0.0423  2.2796
   71SAPC  C314 6229   6.255   3.490   3.822 -1.2041 -0.0717  0.4571
   71SAPC  H14X 6230   6.168   3.477   3.754  1.4575 -2.5589 -2.8242
   71SAPC  H14Y 6231   6.264   3.595   3.857 -0.0469  1.1366 -3.0489
   71SAPC  C315 6232   6.256   3.387   3.929  0.3139 -0.2439 -0.5970
   71SAPC  H15X 6233   6.320   3.410   4.017 -0.2859 -0.5710 -0.0622
   71SAPC  H15Y 6234   6.287   3.284   3.904  0.3804 -0.8281  1.6307
   71SAPC  C316 6235   6.112   3.376   3.980 -0.0235 -0.3691  0.0222
   71SAPC  H16X 6236   6.067   3.471   3.946  1.5140  0.0959 -0.7980
   71SAPC  H16Y 6237   6.096   3.359   4.089 -0.1997 -0.4930 -0.0223
   71SAPC  C317 6238   6.038   3.271   3.910  0.2036 -0.1742  1.2534
   71SAPC  H17X 6239   6.080   3.174   3.946 -1.0352 -1.3439 -0.3017
   71SAPC  H17Y 6240   6.059   3.282   3.802 -0.2053  1.5956  1.3342
   71SAPC  C318 6241   5.883   3.270   3.922 -0.2031 -0.0055  0.3343
   71SAPC  H18X 6242   5.841   3.192   3.855 -1.7446  0.6574  0.4834
   71SAPC  H18Y 6243   5.838   3.368   3.898 -3.1273 -1.6495 -1.5394
   71SAPC  H18Z 6244   5.856   3.239   4.025  0.3138 -4.3646 -0.6043
   72SAPC     N 6245   6.028   1.409   1.703  0.2584 -0.7833 -0.1419
   72SAPC   C12 6246   6.011   1.529   1.616 -0.0509  0.0447 -0.1019
   72SAPC  H12A 6247   5.930   1.519   1.544  0.0916  0.7944 -0.3778
   72SAPC  H12B 6248   6.103   1.548   1.563 -0.8181 -0.3214 -1.6284
   72SAPC   C13 6249   5.904   1.384   1.776  0.4036 -0.1560  0.4819
   72SAPC  H13A 6250   5.896   1.286   1.819 -1.0986 -1.4225 -2.4550
   72SAPC  H13B 6251   5.881   1.455   1.855 -0.9489  1.3925 -1.2112
   72SAPC  H13C 6252   5.819   1.382   1.711  0.2325 -1.0778  0.7262
   72SAPC   C14 6253   6.051   1.284   1.620 -0.3211 -0.1776  0.0132
   72SAPC  H14A 6254   5.972   1.276   1.547 -2.4558 -0.4991  2.2314
   72SAPC  H14B 6255   6.141   1.311   1.567 -1.4996  3.1879 -0.5039
   72SAPC  H14C 6256   6.061   1.192   1.676 -2.3525 -1.3718 -1.4320
   72SAPC   C15 6257   6.143   1.428   1.803  0.1982 -0.1617 -0.4365
   72SAPC  H15A 6258   6.134   1.515   1.867  0.3379 -1.3546  1.2594
   72SAPC  H15B 6259   6.150   1.342   1.867 -1.7869  0.3996  0.6408
   72SAPC  H15C 6260   6.232   1.446   1.746  0.3087  2.0262  0.3293
   72SAPC   C11 6261   5.979   1.658   1.693  0.2715  0.2696 -1.0785
   72SAPC  H11A 6262   5.888   1.633   1.751  0.2123 -3.5136 -2.4961
   72SAPC  H11B 6263   5.950   1.731   1.614 -1.0377  1.3602  0.3439
   72SAPC     P 6264   6.052   1.840   1.866  0.2517  0.4052 -0.2191
   72SAPC   O13 6265   6.178   1.910   1.887 -0.1691 -0.4071  0.6150
   72SAPC   O14 6266   5.935   1.916   1.815 -0.0451  0.6075 -0.0705
   72SAPC   O12 6267   6.088   1.720   1.764 -0.2935  0.1588  1.2643
   72SAPC   O11 6268   6.002   1.764   1.993 -0.2729 -0.2315 -0.3370
   72SAPC    C1 6269   6.080   1.662   2.049 -0.1536  0.7925  0.5263
   72SAPC    HA 6270   6.039   1.561   2.028  0.2576  0.8158 -0.4515
   72SAPC    HB 6271   6.187   1.663   2.016 -0.2666 -3.0747 -0.4211
   72SAPC    C2 6272   6.098   1.674   2.209  0.3607  0.1539  0.0101
   72SAPC    HS 6273   6.181   1.603   2.231  2.6521  1.9996 -2.1096
   72SAPC   O21 6274   5.981   1.648   2.287 -0.1746  0.0239 -0.0343
   72SAPC   C21 6275   5.905   1.541   2.266  0.3400 -0.2399  0.0912
   72SAPC   O22 6276   5.918   1.453   2.184 -0.7037 -0.1461  0.7692
   72SAPC   C22 6277   5.791   1.543   2.368  0.1371 -0.8473  0.4615
   72SAPC   H2R 6278   5.765   1.644   2.403 -1.1626 -0.6640 -0.9340
   72SAPC   H2S 6279   5.704   1.515   2.304 -0.1257  2.5139 -0.8131
   72SAPC    C3 6280   6.150   1.812   2.251  0.0935 -1.1312 -0.9130
   72SAPC    HX 6281   6.072   1.890   2.234  2.6344  1.8537  0.0809
   72SAPC    HY 6282   6.239   1.838   2.191  0.2114 -0.5093 -0.4857
   72SAPC   O31 6283   6.192   1.819   2.388  0.1483 -0.1294 -0.4314
   72SAPC   C31 6284   6.122   1.898   2.471  0.0268 -0.3741 -0.6361
   72SAPC   O32 6285   6.021   1.960   2.447 -0.0145  0.0569  0.4256
   72SAPC   C32 6286   6.180   1.885   2.605  0.3735 -0.3709  0.0518
   72SAPC   H2X 6287   6.290   1.901   2.603  0.4194 -0.1716  1.8079
   72SAPC   H2Y 6288   6.166   1.783   2.648  0.9732 -1.9242 -3.1691
   72SAPC   C23 6289   5.810   1.453   2.486 -0.5273 -0.1283  0.1756
   72SAPC   H3R 6290   5.823   1.349   2.448  0.4272 -0.3142  0.9896
   72SAPC   H3S 6291   5.716   1.442   2.545  0.4510  0.8388  1.9715
   72SAPC   C24 6292   5.936   1.496   2.568  0.1491  0.3011  0.7812
   72SAPC   H4R 6293   6.030   1.504   2.510 -0.3082  1.0794  0.1260
   72SAPC   H4S 6294   5.948   1.405   2.631 -0.4896 -2.0121 -2.2128
   72SAPC   C25 6295   5.907   1.632   2.640  0.1253 -0.2173 -0.2350
   72SAPC   H5R 6296   5.919   1.725   2.583  3.1716 -0.8042 -0.6962
   72SAPC   C26 6297   5.851   1.643   2.768 -0.7127 -0.1214  0.2191
   72SAPC   H6R 6298   5.837   1.746   2.804 -0.8815 -0.3046  0.7053
   72SAPC   C27 6299   5.819   1.524   2.860 -0.4206 -0.3742  0.1785
   72SAPC   H7R 6300   5.881   1.437   2.831 -2.8556 -2.0753 -0.2450
   72SAPC   H7S 6301   5.716   1.489   2.835 -0.6289 -0.9816  1.7800
   72SAPC   C28 6302   5.840   1.553   3.009 -0.0929  0.8016 -0.6990
   72SAPC   H8R 6303   5.943   1.555   3.047 -1.3526 -2.6128  3.7360
   72SAPC   C29 6304   5.748   1.558   3.113  0.2322 -0.1385 -0.0633
   72SAPC   H9R 6305   5.798   1.585   3.207 -0.1222 -0.1945  0.1400
   72SAPC  C210 6306   5.598   1.545   3.128 -0.5368 -0.7879 -0.2577
   72SAPC  H10R 6307   5.586   1.454   3.190 -0.4754  0.0735  1.0500
   72SAPC  H10S 6308   5.547   1.536   3.029  0.1496 -0.7400 -0.6200
   72SAPC  C211 6309   5.549   1.669   3.195 -0.5525  0.1856  0.2391
   72SAPC  H11R 6310   5.551   1.756   3.127  0.2039  0.5290  0.6852
   72SAPC  C212 6311   5.513   1.694   3.320  0.1892 -0.5106  0.2809
   72SAPC  H12R 6312   5.490   1.797   3.353 -1.8466 -0.7750 -0.1442
   72SAPC  C213 6313   5.527   1.583   3.422  0.0424 -0.1190 -0.1012
   72SAPC  H13R 6314   5.625   1.532   3.423  0.8612  1.3858 -0.7046
   72SAPC  H13S 6315   5.467   1.495   3.390 -0.3960 -0.8854  2.5495
   72SAPC  C214 6316   5.477   1.642   3.556  0.1736 -0.1397 -0.4122
   72SAPC  H14R 6317   5.389   1.709   3.550 -0.7585 -1.1225  1.4163
   72SAPC  C215 6318   5.533   1.620   3.676  0.3324  0.0584 -0.2090
   72SAPC  H15R 6319   5.499   1.675   3.765 -1.5999 -1.2067 -0.0992
   72SAPC  C216 6320   5.658   1.555   3.708 -0.1971  0.0682 -0.1482
   72SAPC  H16R 6321   5.729   1.556   3.623  0.1026 -1.4055  0.0562
   72SAPC  H16S 6322   5.640   1.447   3.726 -0.3606  0.2451  0.8472
   72SAPC  C217 6323   5.733   1.590   3.841 -0.0649 -0.7439  0.2766
   72SAPC  H17R 6324   5.752   1.700   3.839  0.5218 -0.8497 -1.3623
   72SAPC  H17S 6325   5.832   1.541   3.847 -0.7168 -1.9470  2.9704
   72SAPC  C218 6326   5.659   1.557   3.964  0.2175  0.7241  0.6092
   72SAPC  H18R 6327   5.652   1.448   3.982  1.5973  0.7714  1.5583
   72SAPC  H18S 6328   5.556   1.598   3.970 -0.3757 -0.5971 -0.0339
   72SAPC  C219 6329   5.740   1.615   4.085 -0.1536 -0.3876 -0.0572
   72SAPC  H19R 6330   5.736   1.724   4.065  1.1844 -0.0774  1.1568
   72SAPC  H19S 6331   5.849   1.593   4.082  0.3748  1.9005  0.8163
   72SAPC  C220 6332   5.699   1.587   4.230  0.6327 -0.1861 -0.1724
   72SAPC  H20R 6333   5.660   1.484   4.241 -4.0167  1.4715  1.5396
   72SAPC  H20S 6334   5.613   1.648   4.266  2.1111  0.8556  1.7547
   72SAPC  H20T 6335   5.788   1.597   4.295  2.0106  1.6802 -2.2108
   72SAPC   C33 6336   6.119   1.992   2.706  0.2230 -0.2478  0.2443
   72SAPC   H3X 6337   6.008   1.987   2.699  0.3333 -4.4458 -1.7300
   72SAPC   H3Y 6338   6.146   2.095   2.673 -0.2130 -0.7574 -1.8943
   72SAPC   C34 6339   6.174   1.968   2.849  0.1240  0.0190  0.4987
   72SAPC   H4X 6340   6.244   2.052   2.868 -0.8468  1.2234 -0.9921
   72SAPC   H4Y 6341   6.234   1.874   2.846  1.0250  0.6059 -0.9544
   72SAPC   C35 6342   6.062   1.959   2.947  0.5483  0.1268  0.2736
   72SAPC   H5X 6343   5.972   1.916   2.899  0.8336  1.3561 -1.4425
   72SAPC   H5Y 6344   6.047   2.067   2.968 -1.5601  0.2298 -1.3954
   72SAPC   C36 6345   6.086   1.891   3.082  0.1165  0.0039 -0.5867
   72SAPC   H6X 6346   6.178   1.927   3.133 -0.3363 -0.9666  0.9597
   72SAPC   H6Y 6347   6.100   1.782   3.066  0.0269  0.0086 -0.7029
   72SAPC   C37 6348   5.967   1.920   3.169 -0.1349 -0.0083 -0.5869
   72SAPC   H7X 6349   5.871   1.894   3.121  0.2017 -1.0560 -0.7107
   72SAPC   H7Y 6350   5.955   2.029   3.186 -1.2452 -0.3861  1.3827
   72SAPC   C38 6351   5.988   1.847   3.302  0.3299 -0.7139 -0.8245
   72SAPC   H8X 6352   6.080   1.899   3.337  0.2020 -0.4820 -0.8334
   72SAPC   H8Y 6353   5.998   1.738   3.285  0.7220 -1.0081  1.0839
   72SAPC   C39 6354   5.865   1.863   3.400 -0.0300  1.0420 -0.0680
   72SAPC   H9X 6355   5.778   1.815   3.350 -1.0917  1.6840  1.0812
   72SAPC   H9Y 6356   5.843   1.971   3.417 -0.4720  1.0483 -0.6571
   72SAPC  C310 6357   5.908   1.795   3.533  0.0079 -0.0990 -0.7724
   72SAPC  H10X 6358   6.006   1.746   3.517 -0.4360 -1.4654  0.5135
   72SAPC  H10Y 6359   5.842   1.710   3.560  1.1537 -0.7160  0.1715
   72SAPC  C311 6360   5.914   1.897   3.649  0.2325 -0.6413 -0.8093
   72SAPC  H11X 6361   5.813   1.930   3.681 -0.1526  0.4974 -2.9954
   72SAPC  H11Y 6362   5.965   1.985   3.604 -0.3159 -0.3455 -0.8695
   72SAPC  C312 6363   6.003   1.860   3.766 -0.7566  0.2219  0.2015
   72SAPC  H12X 6364   6.110   1.856   3.739 -0.0790  1.0222  2.5109
   72SAPC  H12Y 6365   5.981   1.751   3.779  1.2401 -0.1951  0.3766
   72SAPC  C313 6366   5.989   1.942   3.894 -0.7372 -0.3269 -0.1251
   72SAPC  H13X 6367   5.884   1.955   3.929 -0.4683  2.3101 -0.1026
   72SAPC  H13Y 6368   6.029   2.040   3.861 -3.1054  0.6724 -0.2516
   72SAPC  C314 6369   6.086   1.893   3.997 -0.4254 -0.6362  0.3200
   72SAPC  H14X 6370   6.187   1.882   3.951  0.6806  0.9364  2.2349
   72SAPC  H14Y 6371   6.053   1.800   4.050 -0.9552 -1.0501 -0.7117
   72SAPC  C315 6372   6.090   1.997   4.107 -0.1127  0.4220  0.0236
   72SAPC  H15X 6373   5.985   2.017   4.137 -0.2113 -0.5103  0.3498
   72SAPC  H15Y 6374   6.133   2.090   4.064 -3.9314  1.9788 -0.8526
   72SAPC  C316 6375   6.180   1.953   4.225 -0.6309  0.2526  0.0988
   72SAPC  H16X 6376   6.162   1.847   4.254  1.2784 -0.3682 -0.7942
   72SAPC  H16Y 6377   6.152   2.021   4.308 -4.9292 -1.1394  0.0391
   72SAPC  C317 6378   6.334   1.961   4.181  0.4467 -0.7790  0.4822
   72SAPC  H17X 6379   6.355   1.899   4.092  1.1721  0.5658 -0.3180
   72SAPC  H17Y 6380   6.390   1.918   4.266 -1.6059 -2.1507  1.2038
   72SAPC  C318 6381   6.389   2.099   4.144  0.5766  0.6675  0.5134
   72SAPC  H18X 6382   6.369   2.167   4.229 -1.4242 -1.3033  1.7220
   72SAPC  H18Y 6383   6.346   2.144   4.052 -0.9115 -2.3221 -0.3682
   72SAPC  H18Z 6384   6.500   2.099   4.135  0.5909 -1.5433  0.0416
   73SLPC     N 6385   5.753   6.115   7.153 -0.1844 -0.2162  0.1562
   73SLPC   C13 6386   5.886   6.061   7.115 -0.2529 -0.0420 -0.0061
   73SLPC  H13A 6387   5.900   5.964   7.160  1.9630 -0.0695 -0.6357
   73SLPC  H13B 6388   5.892   6.050   7.008 -1.3044  1.4417 -0.2629
   73SLPC  H13C 6389   5.972   6.123   7.136  0.9518 -1.3118 -0.9943
   73SLPC   C14 6390   5.750   6.121   7.304 -0.2700 -0.3539 -0.2878
   73SLPC  H14A 6391   5.743   6.021   7.345  4.7758 -0.4622  0.9814
   73SLPC  H14B 6392   5.839   6.177   7.330 -1.7720  1.6438  0.8273
   73SLPC  H14C 6393   5.666   6.182   7.334  0.9786  1.8993 -1.1398
   73SLPC   C15 6394   5.644   6.031   7.101  0.1731 -0.9252  0.0959
   73SLPC  H15A 6395   5.637   5.946   7.168 -1.0439  0.6744  2.1401
   73SLPC  H15B 6396   5.549   6.082   7.113  2.6561  4.3596 -0.1310
   73SLPC  H15C 6397   5.662   6.003   6.999 -0.9626  2.7636 -1.2785
   73SLPC   C12 6398   5.738   6.261   7.102 -0.7017 -0.6619 -0.1878
   73SLPC  H12A 6399   5.725   6.272   6.996  1.0783  2.7077 -0.2071
   73SLPC  H12B 6400   5.836   6.303   7.120  0.1104 -2.1506 -0.9385
   73SLPC   C11 6401   5.635   6.353   7.173 -0.3103  0.4463  0.7638
   73SLPC  H11A 6402   5.647   6.456   7.135  1.7716  0.1504  0.5357
   73SLPC  H11B 6403   5.655   6.353   7.282 -1.1080  0.2920  0.9215
   73SLPC     P 6404   5.419   6.287   7.001 -0.1433  0.2620 -0.1334
   73SLPC   O13 6405   5.382   6.146   6.985  0.1124 -0.2410 -0.2176
   73SLPC   O14 6406   5.314   6.391   7.013 -0.0307 -0.3392  1.1810
   73SLPC   O12 6407   5.504   6.298   7.144  0.0746 -0.4709  0.4829
   73SLPC   O11 6408   5.538   6.323   6.902  0.5057  0.0389 -0.5757
   73SLPC    C1 6409   5.539   6.445   6.840  0.2251 -0.1292  0.0168
   73SLPC    HA 6410   5.543   6.525   6.917  0.0714  0.8044 -0.9304
   73SLPC    HB 6411   5.629   6.454   6.775 -0.2187  1.4279 -0.4104
   73SLPC    C2 6412   5.418   6.485   6.747 -1.1194  0.3217  0.2357
   73SLPC    HS 6413   5.330   6.502   6.813 -2.5865 -0.2206 -1.4682
   73SLPC   O21 6414   5.387   6.395   6.640 -0.4885 -0.3465  0.0939
   73SLPC   C21 6415   5.279   6.325   6.649 -0.1792 -0.0447 -0.0139
   73SLPC   O22 6416   5.219   6.310   6.752  0.7762 -0.2298 -0.7345
   73SLPC   C22 6417   5.239   6.269   6.508  0.0388  0.5116  0.2813
   73SLPC   H2R 6418   5.285   6.169   6.490 -0.1053  0.7951 -1.8562
   73SLPC   H2S 6419   5.129   6.259   6.512 -0.1631  1.4516 -1.7095
   73SLPC    C3 6420   5.435   6.626   6.690  0.1186  0.9093  0.2649
   73SLPC    HX 6421   5.436   6.700   6.773 -2.0994  1.4276 -0.0980
   73SLPC    HY 6422   5.341   6.638   6.632 -1.1647 -1.0860  1.8111
   73SLPC   O31 6423   5.552   6.628   6.612 -0.4377  0.2473  0.8559
   73SLPC   C31 6424   5.553   6.703   6.502  0.2842  1.0682 -0.0724
   73SLPC   O32 6425   5.473   6.792   6.485 -0.4654  0.4949 -0.4849
   73SLPC   C32 6426   5.669   6.667   6.418 -0.5637  0.7498 -0.0747
   73SLPC   H2X 6427   5.682   6.557   6.404 -3.3669 -0.0160  2.2542
   73SLPC   H2Y 6428   5.760   6.702   6.472 -0.8412 -0.1475  1.0015
   73SLPC   C23 6429   5.273   6.366   6.389 -0.5118 -0.2432 -0.2280
   73SLPC   H3R 6430   5.246   6.470   6.417  0.4111 -0.3900  1.3373
   73SLPC   H3S 6431   5.206   6.356   6.301 -0.3266 -0.2884 -0.3640
   73SLPC   C24 6432   5.411   6.344   6.322  0.0423 -0.6027  0.3301
   73SLPC   H4R 6433   5.417   6.239   6.288 -2.4479 -1.0169  0.9142
   73SLPC   H4S 6434   5.488   6.370   6.397  0.9570  1.8858 -1.3502
   73SLPC   C25 6435   5.443   6.448   6.216 -0.3763  0.2674  0.5804
   73SLPC   H5R 6436   5.551   6.441   6.189 -0.9557  0.7375 -2.0903
   73SLPC   H5S 6437   5.437   6.552   6.254  0.1166  1.9789 -3.5202
   73SLPC   C26 6438   5.369   6.438   6.087 -0.1964 -0.2319 -0.4967
   73SLPC   H6R 6439   5.262   6.421   6.115 -0.1898  2.0919  1.2396
   73SLPC   H6S 6440   5.397   6.348   6.028 -1.1795 -0.7090 -0.2592
   73SLPC   C27 6441   5.380   6.565   5.997 -0.3670  0.1848 -0.9223
   73SLPC   H7R 6442   5.489   6.573   5.978  0.0572 -4.2008 -1.4090
   73SLPC   H7S 6443   5.351   6.649   6.064  1.2815  2.7201 -3.2078
   73SLPC   C28 6444   5.293   6.554   5.875 -0.0626 -0.2203  0.2508
   73SLPC   H8R 6445   5.190   6.520   5.898  0.0627  0.0572  1.2739
   73SLPC   H8S 6446   5.342   6.477   5.812 -0.2842 -0.3581  0.2447
   73SLPC   C29 6447   5.299   6.691   5.815 -0.4666  0.1825  0.3345
   73SLPC   H9R 6448   5.247   6.763   5.879 -0.6581 -2.0069  2.7962
   73SLPC  C210 6449   5.377   6.739   5.718  0.1264  0.1420 -0.5607
   73SLPC  H10R 6450   5.361   6.844   5.691  1.3161  0.2423 -0.9310
   73SLPC  C211 6451   5.462   6.654   5.627 -0.2586  0.4043 -0.9181
   73SLPC  H11R 6452   5.533   6.605   5.697 -2.8004 -0.6099  1.1308
   73SLPC  H11S 6453   5.534   6.712   5.566  1.0378  0.0029  0.1767
   73SLPC  C212 6454   5.396   6.558   5.539 -0.2954  0.0991 -0.4380
   73SLPC  H12R 6455   5.343   6.478   5.594 -0.4759  1.3930  1.3502
   73SLPC  C213 6456   5.377   6.571   5.408  0.0205  0.1151 -1.1473
   73SLPC  H13R 6457   5.311   6.497   5.361  1.6264 -1.0430 -1.6506
   73SLPC  C214 6458   5.441   6.678   5.321  0.5964 -0.0709  0.0530
   73SLPC  H14R 6459   5.544   6.645   5.294  1.0708  1.6302 -0.3278
   73SLPC  H14S 6460   5.462   6.763   5.389  0.2892 -0.2809  0.4137
   73SLPC  C215 6461   5.370   6.713   5.194 -0.3380 -0.1675 -0.0419
   73SLPC  H15R 6462   5.265   6.733   5.222 -1.1791 -2.3328 -1.3625
   73SLPC  H15S 6463   5.365   6.631   5.119 -1.6884  2.8115 -3.4851
   73SLPC  C216 6464   5.438   6.846   5.136  0.2202 -0.7637 -0.1370
   73SLPC  H16R 6465   5.547   6.844   5.152  0.3109  1.8494  0.0297
   73SLPC  H16S 6466   5.402   6.932   5.196  1.9903 -1.1961  1.6233
   73SLPC  C217 6467   5.434   6.873   4.976  0.0035  0.6720  0.5576
   73SLPC  H17R 6468   5.483   6.972   4.964 -0.4618  0.7497 -0.7737
   73SLPC  H17S 6469   5.327   6.861   4.951  0.5249 -1.7754 -0.8537
   73SLPC  C218 6470   5.521   6.769   4.897 -0.3511 -0.7558  0.0164
   73SLPC  H18R 6471   5.485   6.664   4.906  0.9291 -1.1563  0.6233
   73SLPC  H18S 6472   5.628   6.764   4.923  0.2223 -0.8779 -2.1280
   73SLPC  H18T 6473   5.507   6.785   4.787  2.8530 -0.3066 -0.4236
   73SLPC   C33 6474   5.668   6.735   6.280 -0.1373  0.2482 -0.2559
   73SLPC   H3X 6475   5.641   6.841   6.298  0.0329 -0.2373  3.5837
   73SLPC   H3Y 6476   5.595   6.681   6.216 -0.8943  1.0047 -0.0443
   73SLPC   C34 6477   5.808   6.738   6.225 -0.8696  0.1003 -0.0231
   73SLPC   H4X 6478   5.870   6.651   6.255 -1.1289  0.3108  1.1940
   73SLPC   H4Y 6479   5.865   6.826   6.262 -0.9097  0.1111  0.0132
   73SLPC   C35 6480   5.816   6.752   6.071 -0.6338  0.4661 -0.3469
   73SLPC   H5X 6481   5.784   6.654   6.028 -2.3769  0.4493  0.8583
   73SLPC   H5Y 6482   5.916   6.765   6.024 -0.7692 -0.3399 -0.8820
   73SLPC   C36 6483   5.728   6.852   5.998 -0.3136 -0.2758 -0.0018
   73SLPC   H6X 6484   5.776   6.950   6.020  0.1717 -0.4882 -0.0953
   73SLPC   H6Y 6485   5.628   6.845   6.045 -2.0302  0.5103 -3.2893
   73SLPC   C37 6486   5.716   6.831   5.844  0.3972 -0.0156 -0.6495
   73SLPC   H7X 6487   5.684   6.927   5.796  1.6220  0.5345 -0.3899
   73SLPC   H7Y 6488   5.643   6.749   5.827 -3.5247  2.4543  2.3873
   73SLPC   C38 6489   5.852   6.779   5.775 -1.5975  0.8325 -0.0211
   73SLPC   H8X 6490   5.879   6.682   5.821 -0.0399  1.7073  1.0153
   73SLPC   H8Y 6491   5.942   6.843   5.789 -0.0699 -1.3606  0.5262
   73SLPC   C39 6492   5.843   6.759   5.618 -0.0549  1.3538  0.4511
   73SLPC   H9X 6493   5.760   6.689   5.600  1.6291 -0.7533  0.4990
   73SLPC   H9Y 6494   5.934   6.705   5.585  0.8499  3.3430 -0.5103
   73SLPC  C310 6495   5.858   6.890   5.547  0.2303 -0.2210 -0.3430
   73SLPC  H10X 6496   5.956   6.936   5.572  2.5190 -4.0323 -1.5477
   73SLPC  H10Y 6497   5.775   6.953   5.586 -0.9417 -1.5284 -0.6363
   73SLPC  C311 6498   5.829   6.867   5.399 -0.1070  0.5963  0.0192
   73SLPC  H11X 6499   5.825   6.963   5.344 -0.0366  0.1249 -0.8347
   73SLPC  H11Y 6500   5.731   6.816   5.389  0.6384 -0.6089 -1.6478
   73SLPC  C312 6501   5.933   6.780   5.328 -0.6881 -0.6518  0.5218
   73SLPC  H12X 6502   5.953   6.682   5.376  0.1640 -0.6329  0.2177
   73SLPC  H12Y 6503   6.032   6.829   5.334 -1.0152 -0.1080  1.7536
   73SLPC  C313 6504   5.892   6.750   5.182 -0.2915  0.0730  0.2003
   73SLPC  H13X 6505   5.886   6.846   5.127 -0.2807 -0.0386  0.0014
   73SLPC  H13Y 6506   5.793   6.702   5.167  0.2632 -0.5865 -1.7215
   73SLPC  C314 6507   5.989   6.661   5.107  0.4394 -0.3015 -0.0679
   73SLPC  H14X 6508   6.030   6.588   5.180 -1.8716 -0.1551  1.4682
   73SLPC  H14Y 6509   6.075   6.723   5.075 -0.1640  0.2851 -0.5862
   73SLPC  C315 6510   5.918   6.584   4.993  0.0732 -0.1752  0.4160
   73SLPC  H15X 6511   5.815   6.547   5.012 -0.4878  0.1111 -1.7075
   73SLPC  H15Y 6512   5.974   6.493   4.962 -0.8232 -1.1700  1.6427
   73SLPC  C316 6513   5.884   6.665   4.860 -0.3046  0.3582  0.2980
   73SLPC  H16X 6514   5.984   6.689   4.817  0.5693 -0.3094  1.9021
   73SLPC  H16Y 6515   5.829   6.756   4.892  1.2324  1.6841 -0.6715
   73SLPC  C317 6516   5.801   6.587   4.754 -0.1176 -0.0126 -0.8648
   73SLPC  H17X 6517   5.762   6.658   4.677 -0.0077  0.3842 -0.5556
   73SLPC  H17Y 6518   5.725   6.527   4.808  2.3200 -2.5481 -0.0043
   73SLPC  C318 6519   5.887   6.488   4.680 -0.7855  0.6022 -0.4136
   73SLPC  H18X 6520   5.815   6.434   4.615 -0.5597 -1.9115  1.2964
   73SLPC  H18Y 6521   5.932   6.419   4.754  1.1772  2.9969  0.7903
   73SLPC  H18Z 6522   5.974   6.539   4.632 -0.8188  2.7126  1.5796
   74SLPC     N 6523   4.096   4.333   7.237 -0.3760 -0.1386 -0.0317
   74SLPC   C13 6524   3.982   4.423   7.251 -0.0813  0.2198  0.0629
   74SLPC  H13A 6525   3.914   4.400   7.170 -2.0409  0.4848  1.5425
   74SLPC  H13B 6526   3.935   4.415   7.348 -0.7735  2.2736 -0.0552
   74SLPC  H13C 6527   4.000   4.529   7.242 -2.5543  0.6241 -1.0444
   74SLPC   C14 6528   4.069   4.187   7.248  0.4612  0.1130 -0.3683
   74SLPC  H14A 6529   4.013   4.161   7.337 -2.2933 -0.7725 -2.2145
   74SLPC  H14B 6530   4.009   4.154   7.164  1.0029  1.2962 -1.2630
   74SLPC  H14C 6531   4.163   4.134   7.251  1.0818  1.1457  3.5657
   74SLPC   C15 6532   4.194   4.354   7.347 -0.3431  0.6801 -0.4597
   74SLPC  H15A 6533   4.149   4.315   7.438  0.1211 -0.7277 -0.8020
   74SLPC  H15B 6534   4.278   4.290   7.325 -0.2710  1.2557 -1.9546
   74SLPC  H15C 6535   4.223   4.458   7.355  1.6993  0.2306 -1.3111
   74SLPC   C12 6536   4.173   4.359   7.112 -0.2710  0.4256 -0.0829
   74SLPC  H12A 6537   4.266   4.302   7.116 -1.0700 -0.9098  0.1480
   74SLPC  H12B 6538   4.210   4.460   7.112  0.0948  0.3098  0.8331
   74SLPC   C11 6539   4.110   4.332   6.973  1.1416  0.1419  0.3791
   74SLPC  H11A 6540   4.187   4.344   6.894 -0.0981  0.6975 -0.7656
   74SLPC  H11B 6541   4.034   4.413   6.964  0.3302 -0.5438  0.9166
   74SLPC     P 6542   4.067   4.112   6.852  0.0551 -0.1839  0.0188
   74SLPC   O13 6543   4.214   4.100   6.838  0.5902  0.5350 -0.1229
   74SLPC   O14 6544   3.995   3.983   6.874 -0.3653 -0.8050  0.2859
   74SLPC   O12 6545   4.029   4.216   6.966 -0.5622 -0.7677 -0.1166
   74SLPC   O11 6546   4.011   4.182   6.724  0.1230  0.1646 -0.2103
   74SLPC    C1 6547   3.905   4.117   6.648  0.2656  0.0475 -0.5196
   74SLPC    HA 6548   3.837   4.055   6.711  1.1263 -3.1944 -2.5531
   74SLPC    HB 6549   3.846   4.201   6.603  1.0394  1.3940  0.8723
   74SLPC    C2 6550   3.957   4.008   6.545 -0.6243  0.6715 -0.3391
   74SLPC    HS 6551   4.038   3.960   6.604 -0.7578  0.7214 -0.1152
   74SLPC   O21 6552   3.991   4.078   6.424 -0.4212 -0.8124 -0.1831
   74SLPC   C21 6553   4.112   4.074   6.384 -0.7832 -0.6238 -0.1379
   74SLPC   O22 6554   4.209   4.028   6.444  0.0541 -0.2612  0.0537
   74SLPC   C22 6555   4.132   4.134   6.247  0.4294  0.2254  0.4032
   74SLPC   H2R 6556   4.039   4.109   6.191 -0.1410  1.3819  0.8007
   74SLPC   H2S 6557   4.139   4.245   6.254  4.8456  0.0560  1.5580
   74SLPC    C3 6558   3.849   3.904   6.504 -1.0517 -0.2977  0.1241
   74SLPC    HX 6559   3.769   3.966   6.459 -1.1102  0.9945  1.9130
   74SLPC    HY 6560   3.814   3.852   6.596  2.1535  0.6445  2.0320
   74SLPC   O31 6561   3.918   3.816   6.409  0.0004 -0.4674 -0.2561
   74SLPC   C31 6562   3.867   3.690   6.413  0.0063 -1.1736  0.0681
   74SLPC   O32 6563   3.774   3.653   6.478  0.9856 -0.0557  1.2486
   74SLPC   C32 6564   3.962   3.594   6.333 -0.2370 -0.0526  0.2025
   74SLPC   H2X 6565   4.024   3.545   6.412  2.8671  2.0657 -0.7121
   74SLPC   H2Y 6566   4.025   3.651   6.261  1.8939 -3.6116 -1.0329
   74SLPC   C23 6567   4.261   4.073   6.174  0.0700  0.2832 -0.4543
   74SLPC   H3R 6568   4.343   4.081   6.248 -1.7825 -0.8963  1.8648
   74SLPC   H3S 6569   4.279   4.146   6.092 -2.6902  0.4836 -0.9886
   74SLPC   C24 6570   4.229   3.936   6.112  0.2126 -0.7678 -0.0504
   74SLPC   H4R 6571   4.169   3.867   6.176  1.4662 -1.2615  0.6298
   74SLPC   H4S 6572   4.326   3.882   6.106 -0.5122 -2.2709  1.0989
   74SLPC   C25 6573   4.169   3.947   5.972  0.2987 -0.0418  0.0965
   74SLPC   H5R 6574   4.241   4.011   5.915  1.6404 -1.9409 -0.4516
   74SLPC   H5S 6575   4.065   3.986   5.967 -0.6636 -2.5077 -0.6907
   74SLPC   C26 6576   4.172   3.812   5.896 -0.3054  1.0066  0.0466
   74SLPC   H6R 6577   4.147   3.734   5.971 -1.0746  0.8192 -0.3876
   74SLPC   H6S 6578   4.277   3.793   5.864  0.1384  1.8178  0.9933
   74SLPC   C27 6579   4.078   3.800   5.775  0.0764  0.3153  0.3981
   74SLPC   H7R 6580   3.978   3.795   5.823 -0.5487 -0.6270 -0.9401
   74SLPC   H7S 6581   4.086   3.697   5.734 -0.6919 -1.3129  3.8809
   74SLPC   C28 6582   4.102   3.911   5.673  0.4880  0.0814  0.1335
   74SLPC   H8R 6583   4.115   4.011   5.718  0.1241 -0.2302  0.9395
   74SLPC   H8S 6584   4.013   3.911   5.607  1.2403 -1.0698 -0.9432
   74SLPC   C29 6585   4.225   3.883   5.583  1.4565  0.1681  0.0975
   74SLPC   H9R 6586   4.306   3.825   5.630 -0.4160 -2.0776  0.7615
   74SLPC  C210 6587   4.223   3.889   5.444 -0.1393  0.3581 -0.1011
   74SLPC  H10R 6588   4.318   3.855   5.401  1.5904  1.8241  2.2833
   74SLPC  C211 6589   4.111   3.931   5.350 -0.4599  0.2171  0.5824
   74SLPC  H11R 6590   4.137   4.001   5.269 -1.2570  1.6751  1.5375
   74SLPC  H11S 6591   4.024   3.974   5.404 -0.9197 -0.6726  0.5763
   74SLPC  C212 6592   4.069   3.806   5.278  0.5982  0.2869  0.1270
   74SLPC  H12R 6593   4.054   3.726   5.352  0.4893 -0.7633 -0.9935
   74SLPC  C213 6594   4.057   3.776   5.144 -0.1119 -0.7165 -0.1331
   74SLPC  H13R 6595   4.028   3.675   5.113  0.4992 -1.2487  0.9946
   74SLPC  C214 6596   4.083   3.876   5.028  0.2296  0.2396  0.9938
   74SLPC  H14R 6597   4.122   3.973   5.064 -0.9290  1.3468 -0.6151
   74SLPC  H14S 6598   3.991   3.900   4.972 -0.2118 -2.7746  0.2359
   74SLPC  C215 6599   4.191   3.815   4.941 -0.0038 -0.6974  0.3347
   74SLPC  H15R 6600   4.269   3.764   5.002  0.7104  1.0504  0.9492
   74SLPC  H15S 6601   4.241   3.897   4.885 -2.3491  0.4833 -0.1592
   74SLPC  C216 6602   4.136   3.709   4.848 -0.2087 -0.0037  0.9727
   74SLPC  H16R 6603   4.083   3.623   4.895 -0.8911  1.8463  3.8346
   74SLPC  H16S 6604   4.225   3.666   4.796  0.2076  1.4010  0.4703
   74SLPC  C217 6605   4.053   3.771   4.738  1.0849  0.1878  0.4466
   74SLPC  H17R 6606   4.096   3.869   4.707 -0.1581  0.0877 -1.7831
   74SLPC  H17S 6607   3.949   3.796   4.769  1.1724 -0.0624  0.9586
   74SLPC  C218 6608   4.052   3.691   4.611  0.6675  0.1819 -0.0420
   74SLPC  H18R 6609   4.010   3.744   4.523  1.4647 -2.1516 -1.9324
   74SLPC  H18S 6610   3.990   3.601   4.629 -0.1578  1.0588  1.7919
   74SLPC  H18T 6611   4.145   3.649   4.568 -0.1066 -1.7192  0.0289
   74SLPC   C33 6612   3.878   3.501   6.250 -0.0417  0.1586 -0.2895
   74SLPC   H3X 6613   3.782   3.472   6.299  0.9010 -0.7955  1.0584
   74SLPC   H3Y 6614   3.944   3.415   6.228 -0.3517 -0.3302  0.6248
   74SLPC   C34 6615   3.837   3.571   6.114 -0.4618  0.7005 -0.0320
   74SLPC   H4X 6616   3.922   3.629   6.071  0.1871 -0.4836 -0.4077
   74SLPC   H4Y 6617   3.748   3.636   6.125 -1.7446 -0.5226 -2.4109
   74SLPC   C35 6618   3.781   3.473   6.011  0.0873 -0.2184  0.3696
   74SLPC   H5X 6619   3.722   3.528   5.935  1.8271 -2.4633 -2.7889
   74SLPC   H5Y 6620   3.703   3.414   6.065 -0.2744  1.4472  1.7726
   74SLPC   C36 6621   3.891   3.391   5.940  0.4697  0.8729  0.1610
   74SLPC   H6X 6622   3.912   3.297   5.995 -1.3462 -0.3339 -1.0806
   74SLPC   H6Y 6623   3.982   3.454   5.933  0.7491  0.4027 -0.5657
   74SLPC   C37 6624   3.853   3.364   5.795 -0.1964 -0.4274  0.1291
   74SLPC   H7X 6625   3.825   3.459   5.743 -1.5194 -0.1758  1.2332
   74SLPC   H7Y 6626   3.760   3.303   5.797 -0.9136  0.6562  1.6560
   74SLPC   C38 6627   3.938   3.266   5.705  0.0550  0.6448  0.3195
   74SLPC   H8X 6628   3.960   3.172   5.759  0.7497 -0.5819 -1.9761
   74SLPC   H8Y 6629   4.029   3.327   5.685 -1.2882  2.4217 -0.7509
   74SLPC   C39 6630   3.863   3.231   5.579  0.6874  0.2743 -0.7864
   74SLPC   H9X 6631   3.835   3.327   5.529  0.0536 -0.3459 -1.6608
   74SLPC   H9Y 6632   3.779   3.168   5.614  0.3305  1.9321  1.6107
   74SLPC  C310 6633   3.951   3.150   5.470  0.1269 -0.5685  0.2986
   74SLPC  H10X 6634   3.890   3.075   5.415 -0.1025  1.4972 -2.4852
   74SLPC  H10Y 6635   4.013   3.088   5.538  0.5668  0.5816  0.9680
   74SLPC  C311 6636   4.027   3.233   5.369  0.1705  0.3324  0.0060
   74SLPC  H11X 6637   3.991   3.338   5.366  0.7209  0.5081 -0.9155
   74SLPC  H11Y 6638   3.996   3.195   5.270  0.6661  0.4615 -0.2005
   74SLPC  C312 6639   4.172   3.249   5.405  0.2059  0.3241 -0.4411
   74SLPC  H12X 6640   4.205   3.146   5.431 -0.2191  0.4721  0.7533
   74SLPC  H12Y 6641   4.182   3.310   5.497 -1.7805  0.5193 -0.3168
   74SLPC  C313 6642   4.257   3.295   5.286 -0.2222 -0.1302 -0.6556
   74SLPC  H13X 6643   4.229   3.243   5.191  1.5966 -2.2778 -0.1033
   74SLPC  H13Y 6644   4.356   3.248   5.306 -1.2583 -2.3014 -0.2620
   74SLPC  C314 6645   4.260   3.454   5.274 -0.6533 -0.0774  0.0930
   74SLPC  H14X 6646   4.274   3.492   5.377  1.1522  1.2011 -0.5638
   74SLPC  H14Y 6647   4.161   3.492   5.240  0.5510  1.9527 -1.3489
   74SLPC  C315 6648   4.374   3.509   5.185 -0.1864  0.1526  0.6687
   74SLPC  H15X 6649   4.466   3.499   5.245  0.8655 -1.4621 -1.0820
   74SLPC  H15Y 6650   4.360   3.618   5.168  0.6163  0.2453  0.5913
   74SLPC  C316 6651   4.381   3.452   5.038  1.0906  0.4699  0.5676
   74SLPC  H16X 6652   4.284   3.471   4.988  0.7979 -1.2254  0.4241
   74SLPC  H16Y 6653   4.376   3.343   5.061 -1.4158  0.4041 -0.0076
   74SLPC  C317 6654   4.494   3.495   4.952  0.1182  0.3320 -0.1890
   74SLPC  H17X 6655   4.589   3.470   5.003 -1.1781  1.4799  3.0049
   74SLPC  H17Y 6656   4.496   3.604   4.934  1.6934  0.0134 -2.4555
   74SLPC  C318 6657   4.493   3.425   4.815 -0.1969 -0.7686 -0.2678
   74SLPC  H18X 6658   4.563   3.478   4.748 -0.6013  3.2683  2.1541
   74SLPC  H18Y 6659   4.389   3.435   4.776  0.2723 -0.9399 -1.6097
   74SLPC  H18Z 6660   4.520   3.318   4.823  1.6823 -0.2361  1.3823
   75SLPC     N 6661   0.168   4.596   7.157  0.3322 -0.6585  0.1113
   75SLPC   C13 6662   0.200   4.487   7.249 -0.5399  0.3527  0.1227
   75SLPC  H13A 6663   0.294   4.444   7.217  0.3522  1.3119  1.3779
   75SLPC  H13B 6664   0.203   4.529   7.348 -1.1207 -1.8492  1.1279
   75SLPC  H13C 6665   0.126   4.408   7.244 -0.8349  0.6331  0.0031
   75SLPC   C14 6666   0.237   4.570   7.026  0.2143 -0.0724 -0.1098
   75SLPC  H14A 6667   0.215   4.641   6.947  1.0060  1.1919  0.7608
   75SLPC  H14B 6668   0.342   4.589   7.041 -0.1946  1.4576  1.0859
   75SLPC  H14C 6669   0.214   4.468   6.999  0.5628 -0.2006  0.0815
   75SLPC   C15 6670   0.236   4.724   7.217  0.7253  0.0409 -0.3101
   75SLPC  H15A 6671   0.200   4.750   7.316  0.3416  1.1384 -0.7230
   75SLPC  H15B 6672   0.340   4.698   7.230  0.2603 -0.7954  2.7242
   75SLPC  H15C 6673   0.226   4.807   7.150  1.2953  0.5184  0.1865
   75SLPC   C12 6674   0.021   4.606   7.140  0.7441  0.5788 -0.1825
   75SLPC  H12A 6675   0.000   4.704   7.099  0.8072  1.0970  0.9765
   75SLPC  H12B 6676  -0.033   4.600   7.234 -0.1073  0.6531 -0.6527
   75SLPC   C11 6677  -0.053   4.497   7.060  0.0303  0.4343  0.5061
   75SLPC  H11A 6678  -0.149   4.477   7.112 -0.4826  0.1073 -0.5424
   75SLPC  H11B 6679  -0.002   4.398   7.063 -0.5555  0.1413  1.3308
   75SLPC     P 6680  -0.153   4.665   6.885  0.6216  0.6488 -0.3103
   75SLPC   O13 6681  -0.274   4.687   6.972  0.0241 -0.2929 -0.1966
   75SLPC   O14 6682  -0.049   4.772   6.890 -0.0427  0.3736 -0.3165
   75SLPC   O12 6683  -0.080   4.533   6.929  0.5571 -0.1188  0.1293
   75SLPC   O11 6684  -0.201   4.644   6.731  0.0022  0.0148  0.4410
   75SLPC    C1 6685  -0.122   4.589   6.624  0.4128  1.2768 -0.2101
   75SLPC    HA 6686  -0.100   4.480   6.628 -1.0161  0.8044 -3.0738
   75SLPC    HB 6687  -0.178   4.596   6.529 -0.9224  1.0283  0.5328
   75SLPC    C2 6688   0.003   4.673   6.580  0.5068 -0.2435 -0.4186
   75SLPC    HS 6689   0.073   4.688   6.666  0.3749 -1.8348  0.0105
   75SLPC   O21 6690  -0.051   4.798   6.533  0.1560 -0.4305 -0.5627
   75SLPC   C21 6691   0.022   4.904   6.563  0.7240 -0.2924  0.9379
   75SLPC   O22 6692   0.132   4.901   6.618 -0.1963 -0.0311 -0.6286
   75SLPC   C22 6693  -0.034   5.033   6.488 -0.8167 -0.5472 -0.1406
   75SLPC   H2R 6694  -0.142   5.011   6.470 -0.5083 -2.2995  0.0643
   75SLPC   H2S 6695  -0.027   5.111   6.567  0.9559 -0.2062 -0.6033
   75SLPC    C3 6696   0.082   4.608   6.469  0.0888 -0.1126 -0.0068
   75SLPC    HX 6697   0.009   4.594   6.387 -1.4390 -2.1756  1.5635
   75SLPC    HY 6698   0.120   4.511   6.509 -0.6948 -0.8692 -1.0513
   75SLPC   O31 6699   0.190   4.693   6.423  0.2473  0.1095  0.1874
   75SLPC   C31 6700   0.303   4.695   6.490  0.2486  0.1805 -0.5502
   75SLPC   O32 6701   0.345   4.607   6.565  0.0708 -0.3917 -0.1620
   75SLPC   C32 6702   0.391   4.819   6.447  0.1435 -0.0183 -0.3344
   75SLPC   H2X 6703   0.495   4.797   6.480  0.8757  0.7273 -2.0420
   75SLPC   H2Y 6704   0.354   4.908   6.502 -1.1345 -0.5331 -0.3262
   75SLPC   C23 6705   0.051   5.083   6.375  0.2804  0.1588 -0.6551
   75SLPC   H3R 6706   0.158   5.086   6.405  0.0453  0.6939  0.1705
   75SLPC   H3S 6707   0.020   5.187   6.350 -0.9048 -0.0959 -0.3339
   75SLPC   C24 6708   0.025   4.998   6.248 -0.7887 -0.1720  0.5871
   75SLPC   H4R 6709  -0.081   5.013   6.217 -1.2222  1.3785  2.5555
   75SLPC   H4S 6710   0.037   4.888   6.255  0.1790 -0.2313 -1.4056
   75SLPC   C25 6711   0.097   5.058   6.128  0.0483  0.9498  0.3913
   75SLPC   H5R 6712   0.207   5.044   6.136 -0.1362 -1.2811 -0.4285
   75SLPC   H5S 6713   0.060   5.163   6.119 -0.7944  0.6505  0.2805
   75SLPC   C26 6714   0.063   4.985   5.999  0.0395  0.2911 -0.4299
   75SLPC   H6R 6715  -0.037   5.016   5.963  1.8271  3.0665 -3.6310
   75SLPC   H6S 6716   0.059   4.875   6.017  1.7916  0.2686 -0.0224
   75SLPC   C27 6717   0.159   5.005   5.883  0.2174 -0.3036 -0.0028
   75SLPC   H7R 6718   0.261   4.994   5.927 -0.4046  2.8023  2.5536
   75SLPC   H7S 6719   0.154   5.113   5.861  1.5293  0.0252  1.1856
   75SLPC   C28 6720   0.125   4.909   5.776  0.3927  0.0444  0.2963
   75SLPC   H8R 6721   0.018   4.912   5.746  0.5383  1.4332 -0.1899
   75SLPC   H8S 6722   0.139   4.805   5.810  3.0442 -0.1730 -1.1435
   75SLPC   C29 6723   0.222   4.914   5.662 -1.0501 -0.0894 -0.6257
   75SLPC   H9R 6724   0.328   4.927   5.689 -0.8408 -1.7969 -0.5351
   75SLPC  C210 6725   0.189   4.894   5.538 -0.2286 -0.2472 -0.0374
   75SLPC  H10R 6726   0.269   4.924   5.469  1.2203 -1.7843  0.8983
   75SLPC  C211 6727   0.059   4.849   5.482  0.6095 -0.6630 -0.0317
   75SLPC  H11R 6728  -0.003   4.823   5.571  1.3874 -0.1835  0.6637
   75SLPC  H11S 6729   0.079   4.755   5.426 -1.1692  0.4490 -2.7150
   75SLPC  C212 6730  -0.001   4.951   5.385 -0.4933  0.0323  0.6440
   75SLPC  H12R 6731  -0.068   5.030   5.422 -0.6986  0.9004 -1.4468
   75SLPC  C213 6732   0.016   4.935   5.249 -0.4580 -0.3912  0.1974
   75SLPC  H13R 6733  -0.012   5.022   5.188  0.2860 -0.2792  0.0070
   75SLPC  C214 6734   0.092   4.829   5.170 -0.3893  0.5211  0.0362
   75SLPC  H14R 6735   0.134   4.746   5.232 -1.0951  2.3169  3.1785
   75SLPC  H14S 6736   0.174   4.876   5.113  1.4477 -0.4552  1.7154
   75SLPC  C215 6737  -0.000   4.765   5.065 -0.2591  0.1297 -0.4889
   75SLPC  H15R 6738  -0.067   4.845   5.026 -0.5829 -0.5384 -1.3212
   75SLPC  H15S 6739  -0.063   4.691   5.117 -0.3801  1.6261  1.6323
   75SLPC  C216 6740   0.065   4.703   4.942  0.4713 -0.0157 -0.0106
   75SLPC  H16R 6741   0.147   4.636   4.976 -1.6736 -2.6220  0.3545
   75SLPC  H16S 6742   0.098   4.778   4.867  0.2901 -0.0432 -0.1210
   75SLPC  C217 6743  -0.031   4.597   4.869 -0.1427  0.0485  0.4866
   75SLPC  H17R 6744  -0.099   4.663   4.812  1.1668  0.9076 -0.1472
   75SLPC  H17S 6745  -0.100   4.552   4.944  0.0666 -1.3450 -0.1239
   75SLPC  C218 6746   0.047   4.488   4.783  0.0418 -0.2131 -0.0176
   75SLPC  H18R 6747   0.071   4.406   4.854 -2.4042 -1.7427 -0.8344
   75SLPC  H18S 6748   0.135   4.532   4.731  0.3581 -0.1868  0.5278
   75SLPC  H18T 6749  -0.031   4.447   4.715 -2.0245 -1.7308  3.0023
   75SLPC   C33 6750   0.396   4.841   6.294  0.2805 -0.7692 -0.4564
   75SLPC   H3X 6751   0.458   4.932   6.275  0.9848 -0.4048  2.9118
   75SLPC   H3Y 6752   0.296   4.867   6.255 -0.2581  1.0228  1.8896
   75SLPC   C34 6753   0.450   4.721   6.221  0.2500  0.1689 -0.1294
   75SLPC   H4X 6754   0.394   4.628   6.244  2.4825 -0.7670  2.0557
   75SLPC   H4Y 6755   0.556   4.709   6.254  0.5614 -2.7115 -1.8007
   75SLPC   C35 6756   0.440   4.741   6.069 -0.1083 -0.4110 -0.4939
   75SLPC   H5X 6757   0.490   4.840   6.053  0.6733 -0.5555  0.8916
   75SLPC   H5Y 6758   0.337   4.745   6.028 -1.1349  1.7150  1.9762
   75SLPC   C36 6759   0.519   4.638   5.986  0.3682  0.2371 -0.2695
   75SLPC   H6X 6760   0.480   4.535   5.994 -1.0860  0.7993  0.2283
   75SLPC   H6Y 6761   0.629   4.635   6.005  0.4067  1.7619 -0.0902
   75SLPC   C37 6762   0.516   4.674   5.835 -0.6123 -0.0447  0.0520
   75SLPC   H7X 6763   0.563   4.773   5.826 -0.3960 -0.2551 -1.3286
   75SLPC   H7Y 6764   0.409   4.677   5.804 -0.6948 -1.7684  0.0519
   75SLPC   C38 6765   0.589   4.559   5.757  0.0475  0.4298 -0.0881
   75SLPC   H8X 6766   0.520   4.473   5.745  1.8601 -1.0190 -0.7071
   75SLPC   H8Y 6767   0.672   4.525   5.823  0.4062 -1.9435 -1.6039
   75SLPC   C39 6768   0.619   4.600   5.610  0.0571  0.0505 -0.3917
   75SLPC   H9X 6769   0.689   4.686   5.612  1.0200 -0.7127  1.3355
   75SLPC   H9Y 6770   0.517   4.624   5.576  1.3366  2.0629 -3.1745
   75SLPC  C310 6771   0.686   4.487   5.524  0.6416 -0.0679  0.0459
   75SLPC  H10X 6772   0.640   4.385   5.532 -1.9651  0.9100 -1.2628
   75SLPC  H10Y 6773   0.789   4.460   5.556  1.0416 -1.2745 -2.0335
   75SLPC  C311 6774   0.684   4.511   5.377 -0.3225 -0.2846  1.2281
   75SLPC  H11X 6775   0.654   4.615   5.349  2.2186 -0.2366 -1.9132
   75SLPC  H11Y 6776   0.609   4.444   5.331 -1.4447  2.1688 -0.7833
   75SLPC  C312 6777   0.824   4.498   5.311 -0.1794 -0.2876  0.7135
   75SLPC  H12X 6778   0.878   4.406   5.344  1.9286  0.8220  0.4874
   75SLPC  H12Y 6779   0.879   4.587   5.348 -0.3875  0.0017  0.3307
   75SLPC  C313 6780   0.811   4.494   5.158  0.0226 -0.0652 -0.1544
   75SLPC  H13X 6781   0.914   4.514   5.121  0.1189 -0.8474 -0.3116
   75SLPC  H13Y 6782   0.734   4.562   5.116  0.6209 -0.1942 -1.5010
   75SLPC  C314 6783   0.784   4.347   5.117  0.3362 -0.0850 -0.3011
   75SLPC  H14X 6784   0.697   4.317   5.179  1.2011 -2.2265 -0.0314
   75SLPC  H14Y 6785   0.867   4.279   5.148  1.8050  1.6347 -0.2673
   75SLPC  C315 6786   0.768   4.321   4.968  0.1967  0.0996 -0.4239
   75SLPC  H15X 6787   0.677   4.374   4.933  0.2014 -0.3874 -1.1862
   75SLPC  H15Y 6788   0.750   4.212   4.954 -5.4883  0.6821  0.2873
   75SLPC  C316 6789   0.880   4.369   4.884 -0.1143 -0.6710  0.2823
   75SLPC  H16X 6790   0.978   4.332   4.923 -0.1998 -0.2161  0.9501
   75SLPC  H16Y 6791   0.886   4.480   4.886 -2.0239 -0.5271 -0.4698
   75SLPC  C317 6792   0.868   4.324   4.735  0.2686 -0.9222 -0.3812
   75SLPC  H17X 6793   0.766   4.352   4.702  0.5280  0.4149 -0.0748
   75SLPC  H17Y 6794   0.878   4.213   4.731  1.4240 -0.7997 -1.4086
   75SLPC  C318 6795   0.965   4.395   4.648 -0.3323  0.6844 -0.0767
   75SLPC  H18X 6796   0.920   4.374   4.549 -0.3211  3.1676 -0.6615
   75SLPC  H18Y 6797   1.064   4.345   4.656  0.1913  1.3051 -2.1818
   75SLPC  H18Z 6798   0.978   4.500   4.681  0.0110  0.0121  2.0985
   76SLPC     N 6799   0.500   6.149   6.876  0.2461  0.4121  0.0553
   76SLPC   C13 6800   0.461   6.121   7.022 -0.0659 -0.0299  0.4336
   76SLPC  H13A 6801   0.536   6.144   7.097  0.7822  1.8823 -0.9051
   76SLPC  H13B 6802   0.375   6.186   7.033 -0.4012  0.1454 -2.5084
   76SLPC  H13C 6803   0.425   6.020   7.034  1.7800 -1.0269 -1.8579
   76SLPC   C14 6804   0.564   6.289   6.851  0.2744  0.6333 -0.3939
   76SLPC  H14A 6805   0.490   6.368   6.853  0.7148  1.0965 -1.5439
   76SLPC  H14B 6806   0.637   6.310   6.927  1.7357 -0.5444 -1.3999
   76SLPC  H14C 6807   0.610   6.295   6.753  0.1500  2.6966 -0.3760
   76SLPC   C15 6808   0.367   6.149   6.801  0.5632  0.8471  0.0725
   76SLPC  H15A 6809   0.302   6.066   6.824  1.4154  0.5895  1.6667
   76SLPC  H15B 6810   0.319   6.236   6.843  2.5122  1.6466  0.7975
   76SLPC  H15C 6811   0.368   6.168   6.695 -1.3811 -1.5175 -0.4616
   76SLPC   C12 6812   0.594   6.038   6.828 -0.5048 -0.0623 -0.3364
   76SLPC  H12A 6813   0.544   5.945   6.850 -1.8186  0.8914  0.9048
   76SLPC  H12B 6814   0.677   6.045   6.898 -0.1469  1.3428 -0.8634
   76SLPC   C11 6815   0.644   6.037   6.682  0.0594 -0.0445  0.4986
   76SLPC  H11A 6816   0.569   6.093   6.621  2.6742  2.0686 -1.0126
   76SLPC  H11B 6817   0.661   5.934   6.645  3.0377  0.5823 -0.0914
   76SLPC     P 6818   0.904   6.041   6.697  0.8014  0.3628  0.3432
   76SLPC   O13 6819   1.016   6.132   6.656  0.0535 -0.2580 -0.4276
   76SLPC   O14 6820   0.907   5.999   6.840  0.2953 -0.2177 -0.6753
   76SLPC   O12 6821   0.768   6.112   6.671  0.5172 -0.0314  0.8090
   76SLPC   O11 6822   0.910   5.908   6.608  0.1887 -0.2996  0.4928
   76SLPC    C1 6823   0.956   5.911   6.468  0.3195  0.1120 -0.4682
   76SLPC    HA 6824   1.051   5.967   6.458 -0.4052  2.1774  2.6151
   76SLPC    HB 6825   0.973   5.805   6.441 -0.4074 -0.1141 -0.0766
   76SLPC    C2 6826   0.857   5.971   6.360 -0.0366 -0.3143 -0.2682
   76SLPC    HS 6827   0.831   6.075   6.388  0.5421 -0.7827  2.2387
   76SLPC   O21 6828   0.738   5.883   6.362 -0.4296  0.1932  0.1250
   76SLPC   C21 6829   0.637   5.931   6.287  0.1755  0.5566 -0.0322
   76SLPC   O22 6830   0.630   6.041   6.237  0.0811 -0.2394  0.6782
   76SLPC   C22 6831   0.530   5.820   6.279  0.1123  0.4661  0.5733
   76SLPC   H2R 6832   0.559   5.740   6.351 -1.4887  2.3319  3.5276
   76SLPC   H2S 6833   0.433   5.862   6.313 -1.2775 -1.3387 -0.9698
   76SLPC    C3 6834   0.930   5.970   6.219  0.1107  0.0209 -0.2148
   76SLPC    HX 6835   0.917   5.868   6.175 -0.1600 -0.8818  1.8272
   76SLPC    HY 6836   1.034   5.995   6.248 -0.8846  5.6005 -0.3562
   76SLPC   O31 6837   0.885   6.078   6.132 -0.2601  0.2228 -0.2371
   76SLPC   C31 6838   0.945   6.192   6.151  0.5959  0.1653 -0.0299
   76SLPC   O32 6839   1.026   6.221   6.242  0.1778  0.6213  0.2148
   76SLPC   C32 6840   0.895   6.300   6.054  0.5134  0.0714  0.1484
   76SLPC   H2X 6841   0.963   6.293   5.966  1.0628  2.2471  0.3431
   76SLPC   H2Y 6842   0.917   6.400   6.095 -1.2537  0.7389 -0.4259
   76SLPC   C23 6843   0.514   5.762   6.133 -0.2651  1.0118  0.1247
   76SLPC   H3R 6844   0.490   5.854   6.075  0.7076 -0.1853 -2.3173
   76SLPC   H3S 6845   0.425   5.697   6.140 -1.0244  2.0380  0.3312
   76SLPC   C24 6846   0.639   5.685   6.090 -0.2144  0.3103  0.9093
   76SLPC   H4R 6847   0.649   5.599   6.159  1.3351 -1.3359 -1.2234
   76SLPC   H4S 6848   0.737   5.738   6.093 -0.1028  0.1505  0.2534
   76SLPC   C25 6849   0.635   5.610   5.951  0.7763  0.2966  0.2942
   76SLPC   H5R 6850   0.539   5.556   5.937  2.2319 -2.3965 -0.0890
   76SLPC   H5S 6851   0.726   5.546   5.939  2.1055  2.2879 -0.8852
   76SLPC   C26 6852   0.638   5.720   5.838 -0.0097  0.2207  0.8363
   76SLPC   H6R 6853   0.742   5.756   5.821 -0.0461 -0.6677 -1.7453
   76SLPC   H6S 6854   0.575   5.802   5.879 -3.4979 -1.9445  0.2031
   76SLPC   C27 6855   0.576   5.678   5.705 -0.0873 -0.1612  0.2824
   76SLPC   H7R 6856   0.546   5.772   5.653  1.7984  0.8504  0.9241
   76SLPC   H7S 6857   0.481   5.620   5.712 -0.6528  0.5808 -0.7837
   76SLPC   C28 6858   0.665   5.586   5.610  0.4879 -0.1108  0.8006
   76SLPC   H8R 6859   0.676   5.485   5.654 -0.5160 -1.4879 -1.8584
   76SLPC   H8S 6860   0.767   5.630   5.602  0.4671 -0.3337 -1.4403
   76SLPC   C29 6861   0.609   5.573   5.468  0.0375 -1.1132 -0.5503
   76SLPC   H9R 6862   0.503   5.603   5.463  0.7085  2.1153  1.4070
   76SLPC  C210 6863   0.677   5.528   5.358 -0.4192  0.5559  0.4077
   76SLPC  H10R 6864   0.624   5.536   5.263  2.5194  1.4954 -1.2845
   76SLPC  C211 6865   0.822   5.482   5.362 -0.0804  0.7376 -0.3316
   76SLPC  H11R 6866   0.870   5.500   5.460 -1.1392 -1.0613  0.5684
   76SLPC  H11S 6867   0.872   5.556   5.296 -2.9948  0.7234 -2.7753
   76SLPC  C212 6868   0.851   5.342   5.318  0.7178 -0.1049  0.5170
   76SLPC  H12R 6869   0.790   5.265   5.368  0.6772 -0.6716 -0.3958
   76SLPC  C213 6870   0.948   5.292   5.236 -0.5348 -0.6615 -0.2902
   76SLPC  H13R 6871   0.970   5.184   5.232  1.9929 -0.1790 -1.5242
   76SLPC  C214 6872   1.057   5.364   5.160 -0.2700 -0.5467 -0.1830
   76SLPC  H14R 6873   1.049   5.475   5.165  2.5365 -0.2962  1.2232
   76SLPC  H14S 6874   1.061   5.331   5.054  2.6501  0.7255 -0.5686
   76SLPC  C215 6875   1.193   5.320   5.224 -0.4186  0.1654  0.3373
   76SLPC  H15R 6876   1.216   5.212   5.215  0.4456  0.4747 -2.2413
   76SLPC  H15S 6877   1.187   5.337   5.333  2.7275 -2.5625  1.1153
   76SLPC  C216 6878   1.309   5.386   5.147  0.6455 -0.1029 -0.1937
   76SLPC  H16R 6879   1.392   5.387   5.221 -0.9691 -0.7402  1.7082
   76SLPC  H16S 6880   1.282   5.491   5.124  1.9147  0.3625  0.2953
   76SLPC  C217 6881   1.365   5.318   5.016 -0.1970  1.1004 -1.1721
   76SLPC  H17R 6882   1.453   5.380   4.987  0.9693  0.5126  0.8826
   76SLPC  H17S 6883   1.287   5.323   4.938 -0.7310 -0.4761 -0.7745
   76SLPC  C218 6884   1.434   5.180   5.036  0.0818 -0.3579  0.1944
   76SLPC  H18R 6885   1.506   5.177   5.120 -0.2355 -2.9871  0.4555
   76SLPC  H18S 6886   1.493   5.169   4.942 -0.0144  3.1147 -0.4371
   76SLPC  H18T 6887   1.363   5.097   5.052 -0.3575 -0.0688 -0.2152
   76SLPC   C33 6888   0.746   6.289   6.015 -0.8947 -0.3600  0.4549
   76SLPC   H3X 6889   0.686   6.298   6.109 -1.2118 -1.3980  0.3711
   76SLPC   H3Y 6890   0.722   6.189   5.971  0.1820 -0.4999  0.1565
   76SLPC   C34 6891   0.704   6.391   5.911  1.1413  0.6104 -0.6850
   76SLPC   H4X 6892   0.626   6.351   5.843  2.3453 -0.7725 -1.2917
   76SLPC   H4Y 6893   0.789   6.413   5.843  0.3169  0.7907 -1.6906
   76SLPC   C35 6894   0.653   6.524   5.972  0.2623  0.2605  0.0124
   76SLPC   H5X 6895   0.717   6.565   6.053 -0.5451 -0.5097  1.0552
   76SLPC   H5Y 6896   0.555   6.492   6.013  1.2009 -1.3943  1.0715
   76SLPC   C36 6897   0.627   6.639   5.877  0.8123 -0.2075  0.0019
   76SLPC   H6X 6898   0.723   6.676   5.835 -0.4269  1.9240 -1.1240
   76SLPC   H6Y 6899   0.575   6.726   5.922  1.2531 -1.0780  2.3103
   76SLPC   C37 6900   0.541   6.599   5.754  0.2529  0.3958 -0.2796
   76SLPC   H7X 6901   0.444   6.571   5.801  1.0158 -0.8615  0.6439
   76SLPC   H7Y 6902   0.578   6.504   5.709 -1.3099 -0.2643 -0.2326
   76SLPC   C38 6903   0.508   6.714   5.654  0.2242  0.0071  0.0309
   76SLPC   H8X 6904   0.481   6.807   5.710  0.4215  0.6673 -0.9411
   76SLPC   H8Y 6905   0.422   6.689   5.588  0.1702  2.0639 -0.7738
   76SLPC   C39 6906   0.627   6.759   5.567  0.9473 -0.3211 -0.4489
   76SLPC   H9X 6907   0.648   6.679   5.492 -1.1995  0.0175 -1.4988
   76SLPC   H9Y 6908   0.721   6.776   5.624  1.1323  0.6930 -1.0356
   76SLPC  C310 6909   0.602   6.887   5.490  0.2509  0.6343  0.3260
   76SLPC  H10X 6910   0.571   6.963   5.565  0.6214 -0.5368  1.7018
   76SLPC  H10Y 6911   0.511   6.872   5.427  0.9922  0.2427 -0.6629
   76SLPC  C311 6912   0.716   6.954   5.416  0.2733  0.3536  0.5763
   76SLPC  H11X 6913   0.769   6.884   5.348 -0.5646 -2.0053  2.2105
   76SLPC  H11Y 6914   0.782   6.996   5.494  0.2466  1.3227  0.0935
   76SLPC  C312 6915   0.673   7.084   5.350 -0.1155  0.5557  0.0906
   76SLPC  H12X 6916   0.756   7.158   5.348 -0.7833  1.3202 -2.0503
   76SLPC  H12Y 6917   0.594   7.130   5.414  1.2076  1.6675  0.9929
   76SLPC  C313 6918   0.647   7.062   5.201  0.6880  0.1061 -0.1905
   76SLPC  H13X 6919   0.580   6.975   5.185 -0.1352  0.8740 -1.0057
   76SLPC  H13Y 6920   0.737   7.029   5.145  1.4882 -1.3939  1.8636
   76SLPC  C314 6921   0.579   7.180   5.138  0.2246  0.2260  0.8913
   76SLPC  H14X 6922   0.638   7.273   5.124 -2.3018  1.6840 -0.9900
   76SLPC  H14Y 6923   0.492   7.217   5.197 -0.0730  0.3463  0.3843
   76SLPC  C315 6924   0.527   7.141   4.999  0.0353 -0.2487  0.9360
   76SLPC  H15X 6925   0.463   7.051   5.013 -1.2813  0.3467 -0.8631
   76SLPC  H15Y 6926   0.610   7.108   4.934 -1.6012 -1.1070 -0.8132
   76SLPC  C316 6927   0.440   7.252   4.936  0.2525  0.3662 -0.0616
   76SLPC  H16X 6928   0.502   7.344   4.946 -1.7627  2.0758 -2.0852
   76SLPC  H16Y 6929   0.347   7.274   4.994 -0.0354 -1.2259  0.1287
   76SLPC  C317 6930   0.417   7.245   4.787  0.0066 -0.2577 -0.4443
   76SLPC  H17X 6931   0.390   7.138   4.774 -1.8796  0.2401 -0.9500
   76SLPC  H17Y 6932   0.508   7.254   4.725  0.6420  0.8181  0.6174
   76SLPC  C318 6933   0.298   7.328   4.756  0.1260  0.2183  0.1825
   76SLPC  H18X 6934   0.212   7.304   4.822  0.2999  0.0521  0.3491
   76SLPC  H18Y 6935   0.273   7.304   4.650  0.4138  0.2131  0.1144
   76SLPC  H18Z 6936   0.319   7.437   4.754 -0.9859  0.4509 -2.2400
   77SLPC     N 6937   5.393   3.724   6.592 -0.5353  0.0358 -0.5251
   77SLPC   C13 6938   5.432   3.767   6.727  0.0895 -0.2765 -0.4766
   77SLPC  H13A 6939   5.511   3.841   6.725 -0.7619  0.9274  2.9611
   77SLPC  H13B 6940   5.355   3.823   6.778 -1.4002 -2.5319 -0.0924
   77SLPC  H13C 6941   5.471   3.688   6.789  0.3883  0.2716  0.0538
   77SLPC   C14 6942   5.357   3.844   6.517 -0.5094 -0.1790  0.1953
   77SLPC  H14A 6943   5.439   3.914   6.516  1.8315 -2.7147  1.0665
   77SLPC  H14B 6944   5.322   3.817   6.419 -0.9842  0.1027  0.2845
   77SLPC  H14C 6945   5.273   3.896   6.561 -0.4644  1.5985 -1.6587
   77SLPC   C15 6946   5.273   3.641   6.598  0.2846 -0.3568  0.5702
   77SLPC  H15A 6947   5.274   3.571   6.679 -0.5897 -1.8503 -0.6685
   77SLPC  H15B 6948   5.180   3.695   6.593 -1.5319 -3.2662  0.9712
   77SLPC  H15C 6949   5.273   3.581   6.508 -0.5714  0.2273  0.1638
   77SLPC   C12 6950   5.512   3.648   6.537 -0.9442 -0.0240 -0.7907
   77SLPC  H12A 6951   5.483   3.591   6.450  0.6927 -1.2689 -0.5706
   77SLPC  H12B 6952   5.535   3.567   6.605 -0.7700 -1.0158 -1.9750
   77SLPC   C11 6953   5.642   3.725   6.517 -0.0495  0.4134 -0.0112
   77SLPC  H11A 6954   5.732   3.660   6.521 -0.7743 -0.5419  1.1041
   77SLPC  H11B 6955   5.664   3.798   6.598 -0.3293  0.0717  0.3743
   77SLPC     P 6956   5.662   3.718   6.259 -0.1392 -0.2016 -0.0765
   77SLPC   O13 6957   5.790   3.648   6.272  0.5861  0.6080 -0.0708
   77SLPC   O14 6958   5.547   3.638   6.216 -0.2122 -0.3809  0.0964
   77SLPC   O12 6959   5.639   3.794   6.397  0.7177 -0.0843 -0.3683
   77SLPC   O11 6960   5.681   3.844   6.171 -0.7894 -0.0374  0.0422
   77SLPC    C1 6961   5.604   3.960   6.200 -0.2865  0.1589 -0.6517
   77SLPC    HA 6962   5.530   3.986   6.122 -1.6231 -1.1552  0.1257
   77SLPC    HB 6963   5.544   3.963   6.294  0.6457  0.7681 -0.0571
   77SLPC    C2 6964   5.705   4.078   6.208  0.1827  0.1962 -0.1290
   77SLPC    HS 6965   5.654   4.155   6.269  2.1073 -0.0953  2.0052
   77SLPC   O21 6966   5.753   4.125   6.078 -0.9790  0.4660 -0.3394
   77SLPC   C21 6967   5.660   4.173   5.997 -0.3647  0.0895  0.1301
   77SLPC   O22 6968   5.549   4.214   6.030 -0.1518  0.6467 -0.2183
   77SLPC   C22 6969   5.711   4.183   5.854  0.0962 -0.3078 -0.9113
   77SLPC   H2R 6970   5.816   4.219   5.860  0.0498 -0.2120 -0.6602
   77SLPC   H2S 6971   5.712   4.079   5.815  0.2984 -0.2941 -0.9403
   77SLPC    C3 6972   5.832   4.038   6.299  0.2431 -0.4515  0.2374
   77SLPC    HX 6973   5.887   3.950   6.259  0.7071 -0.4125  0.7761
   77SLPC    HY 6974   5.798   4.021   6.404 -0.1390  0.7704  0.3337
   77SLPC   O31 6975   5.921   4.144   6.303  0.1080 -0.6878 -0.5005
   77SLPC   C31 6976   6.005   4.168   6.209 -0.5761  0.2529  0.2245
   77SLPC   O32 6977   6.015   4.096   6.109  0.2647 -0.3986 -0.2693
   77SLPC   C32 6978   6.097   4.286   6.249  0.2793 -0.1844  1.1244
   77SLPC   H2X 6979   6.196   4.248   6.283  0.9604 -0.6554 -1.2077
   77SLPC   H2Y 6980   6.053   4.340   6.336 -1.7407  0.9383 -0.5014
   77SLPC   C23 6981   5.620   4.271   5.765  0.5503  0.3388  0.8315
   77SLPC   H3R 6982   5.614   4.373   5.809 -2.5289  0.5538  0.1879
   77SLPC   H3S 6983   5.516   4.233   5.778  1.2151 -2.0252 -0.2157
   77SLPC   C24 6984   5.650   4.276   5.619 -0.6032  0.0280  0.3650
   77SLPC   H4R 6985   5.761   4.287   5.622 -0.2199 -2.6674 -0.7914
   77SLPC   H4S 6986   5.607   4.370   5.578 -1.0990 -1.0948 -1.8569
   77SLPC   C25 6987   5.603   4.153   5.546 -0.5315  0.3515  0.0511
   77SLPC   H5R 6988   5.493   4.145   5.562 -0.6929  2.0913  0.0813
   77SLPC   H5S 6989   5.654   4.062   5.583  0.3025  0.4983 -0.7186
   77SLPC   C26 6990   5.637   4.148   5.398  0.2667 -0.1976 -0.3079
   77SLPC   H6R 6991   5.738   4.194   5.394  1.4953 -2.8389 -1.2068
   77SLPC   H6S 6992   5.563   4.210   5.343 -0.6852  1.5478  2.6722
   77SLPC   C27 6993   5.659   4.009   5.339 -0.3323 -0.3527  0.1781
   77SLPC   H7R 6994   5.568   3.948   5.354  0.1263 -1.3240 -0.8079
   77SLPC   H7S 6995   5.753   3.968   5.381  0.4695  0.5120 -0.6914
   77SLPC   C28 6996   5.689   4.022   5.189 -0.3639  0.6662  0.6137
   77SLPC   H8R 6997   5.772   4.095   5.177  0.5576 -0.1868  1.5306
   77SLPC   H8S 6998   5.594   4.064   5.150 -0.7426 -0.8325 -0.1499
   77SLPC   C29 6999   5.727   3.890   5.122  0.0227 -0.1856  0.0959
   77SLPC   H9R 7000   5.751   3.802   5.184  2.6577 -1.0553 -1.9485
   77SLPC  C210 7001   5.704   3.868   4.992  0.4271  0.5086 -0.1135
   77SLPC  H10R 7002   5.727   3.769   4.949  0.1069  0.3379  0.1026
   77SLPC  C211 7003   5.656   3.975   4.899 -0.1548 -0.4569 -0.9955
   77SLPC  H11R 7004   5.629   4.074   4.941 -1.7224 -1.1971 -0.1727
   77SLPC  H11S 7005   5.557   3.941   4.861 -1.0285  0.8868 -0.0168
   77SLPC  C212 7006   5.754   3.977   4.781  0.0799  0.3850  0.5473
   77SLPC  H12R 7007   5.855   3.938   4.802  0.2420 -0.4772 -1.6306
   77SLPC  C213 7008   5.734   4.037   4.660 -0.0010  0.2207 -0.6554
   77SLPC  H13R 7009   5.810   4.022   4.582 -0.2393  0.4486 -0.9359
   77SLPC  C214 7010   5.612   4.122   4.619 -0.3865 -0.2611 -0.4290
   77SLPC  H14R 7011   5.562   4.170   4.706 -0.7185  0.9367 -1.2604
   77SLPC  H14S 7012   5.540   4.061   4.560  0.7384 -0.1315 -2.0266
   77SLPC  C215 7013   5.661   4.244   4.538  0.1687  0.3914  0.2349
   77SLPC  H15R 7014   5.575   4.311   4.517 -2.3434 -2.9639 -1.0957
   77SLPC  H15S 7015   5.688   4.221   4.433  1.6953 -0.1671  0.7179
   77SLPC  C216 7016   5.759   4.335   4.616  0.1474 -0.2460  0.0554
   77SLPC  H16R 7017   5.858   4.285   4.606 -1.3585 -3.0602 -2.5297
   77SLPC  H16S 7018   5.730   4.348   4.722  1.9436  2.0750  0.3512
   77SLPC  C217 7019   5.772   4.476   4.548  0.6582  0.6064  0.0230
   77SLPC  H17R 7020   5.778   4.449   4.440  2.8736 -1.2335  0.5222
   77SLPC  H17S 7021   5.865   4.531   4.576 -0.5414  1.7246  1.9595
   77SLPC  C218 7022   5.654   4.558   4.590 -0.0431  0.6002  0.4240
   77SLPC  H18R 7023   5.665   4.658   4.543  1.7015  0.2660  0.0286
   77SLPC  H18S 7024   5.645   4.558   4.700 -1.6338  0.9086  0.3060
   77SLPC  H18T 7025   5.561   4.516   4.546  1.2135 -0.3212 -1.5802
   77SLPC   C33 7026   6.114   4.378   6.128  0.1592 -0.8416  0.0769
   77SLPC   H3X 7027   6.170   4.324   6.049  0.4022 -1.0085  0.3602
   77SLPC   H3Y 7028   6.168   4.466   6.168  2.4333 -2.2570  0.3073
   77SLPC   C34 7029   5.978   4.418   6.070 -0.2044  0.1935  0.5434
   77SLPC   H4X 7030   5.909   4.444   6.153  0.0379 -0.7955  1.0681
   77SLPC   H4Y 7031   5.938   4.328   6.020 -1.9557 -0.2225  2.5284
   77SLPC   C35 7032   5.995   4.538   5.978 -0.3386  0.8500 -0.3605
   77SLPC   H5X 7033   6.030   4.619   6.046 -0.8589  0.2778  0.6298
   77SLPC   H5Y 7034   5.896   4.574   5.943 -0.8491  1.5411  1.6051
   77SLPC   C36 7035   6.087   4.514   5.858  0.4452 -0.6124 -0.9712
   77SLPC   H6X 7036   6.192   4.502   5.893  0.2116  3.6309  2.0456
   77SLPC   H6Y 7037   6.075   4.601   5.790  2.4239  1.0928  0.7084
   77SLPC   C37 7038   6.046   4.397   5.765  0.4329 -1.2152 -0.4665
   77SLPC   H7X 7039   5.944   4.424   5.734  0.5826  0.2753  0.2659
   77SLPC   H7Y 7040   6.035   4.297   5.812 -1.3334 -0.7740  0.1307
   77SLPC   C38 7041   6.118   4.382   5.640 -0.4622 -0.4748 -0.1055
   77SLPC   H8X 7042   6.221   4.343   5.656 -0.0349  1.1389  1.3920
   77SLPC   H8Y 7043   6.147   4.484   5.608  0.7371 -0.1689  1.7997
   77SLPC   C39 7044   6.046   4.303   5.534  0.2318 -0.2335  0.0395
   77SLPC   H9X 7045   5.942   4.341   5.532  0.5983  0.8373  0.5052
   77SLPC   H9Y 7046   6.041   4.197   5.565 -1.5583  0.1185  1.0755
   77SLPC  C310 7047   6.115   4.317   5.394 -0.3629 -0.6765 -0.0494
   77SLPC  H10X 7048   6.212   4.266   5.410 -1.7163 -2.7203  2.4195
   77SLPC  H10Y 7049   6.132   4.426   5.380  0.1201 -0.8518 -0.8893
   77SLPC  C311 7050   6.023   4.262   5.285  0.2575 -0.0435  0.6688
   77SLPC  H11X 7051   5.930   4.322   5.289 -0.4082 -0.4705 -3.7058
   77SLPC  H11Y 7052   5.999   4.156   5.305  2.1431 -0.8907 -1.1714
   77SLPC  C312 7053   6.085   4.266   5.142 -0.7029  0.4417  0.3351
   77SLPC  H12X 7054   6.182   4.213   5.129 -2.1470 -2.1449 -0.7420
   77SLPC  H12Y 7055   6.107   4.374   5.133  0.2719  0.1958 -0.3710
   77SLPC  C313 7056   5.995   4.224   5.018 -0.5544 -0.3067  0.3054
   77SLPC  H13X 7057   5.909   4.295   5.023  0.4723  0.9151  1.5258
   77SLPC  H13Y 7058   5.941   4.128   5.029 -2.4292  0.7051  0.3346
   77SLPC  C314 7059   6.075   4.238   4.882 -0.0670  0.4785 -0.2796
   77SLPC  H14X 7060   6.009   4.224   4.794 -0.3450  1.6127 -0.2658
   77SLPC  H14Y 7061   6.152   4.158   4.882 -0.3603  0.1806  0.7090
   77SLPC  C315 7062   6.157   4.364   4.862 -0.0285 -0.0531  0.2721
   77SLPC  H15X 7063   6.244   4.359   4.930 -0.0591  2.0001  0.5151
   77SLPC  H15Y 7064   6.094   4.451   4.889 -2.0729 -1.1819 -0.5657
   77SLPC  C316 7065   6.215   4.383   4.721 -0.6257 -0.3846 -0.3329
   77SLPC  H16X 7066   6.129   4.408   4.655 -1.0244 -0.4566  0.1549
   77SLPC  H16Y 7067   6.265   4.286   4.695  1.0648  0.2423  0.4059
   77SLPC  C317 7068   6.323   4.488   4.714  0.5132  0.6717  0.1751
   77SLPC  H17X 7069   6.401   4.457   4.787  0.6568 -2.0278 -1.0192
   77SLPC  H17Y 7070   6.278   4.588   4.731  0.8917  0.8628  0.0666
   77SLPC  C318 7071   6.382   4.507   4.582 -0.6399 -0.0550 -0.0490
   77SLPC  H18X 7072   6.300   4.522   4.509  1.6268 -1.3695 -3.0673
   77SLPC  H18Y 7073   6.428   4.413   4.544  2.2369  1.2665 -0.1562
   77SLPC  H18Z 7074   6.456   4.589   4.570 -0.3984 -0.4274 -1.2229
   78SLPC     N 7075   6.810   6.712   7.018  0.4450  0.3038 -0.1829
   78SLPC   C13 7076   6.675   6.641   7.021  0.2997 -0.0158  0.8403
   78SLPC  H13A 7077   6.625   6.645   6.926  1.0534 -0.7463  0.3902
   78SLPC  H13B 7078   6.691   6.537   7.047  2.2600 -0.1244 -0.5547
   78SLPC  H13C 7079   6.612   6.686   7.096 -0.0139  2.1738 -0.6610
   78SLPC   C14 7080   6.886   6.674   7.141 -0.2232  0.3695  0.7832
   78SLPC  H14A 7081   6.849   6.699   7.240  0.8573 -1.3508  1.6651
   78SLPC  H14B 7082   6.895   6.567   7.139 -0.4714  0.3473  0.7491
   78SLPC  H14C 7083   6.986   6.712   7.131 -0.7903  1.4579 -1.2789
   78SLPC   C15 7084   6.800   6.856   7.020 -0.4185  0.0265 -0.1051
   78SLPC  H15A 7085   6.889   6.911   6.994 -0.5759  0.1593 -0.3582
   78SLPC  H15B 7086   6.740   6.898   6.941  0.8428  2.0530 -0.0504
   78SLPC  H15C 7087   6.770   6.889   7.118  0.9360  1.4008 -0.1151
   78SLPC   C12 7088   6.881   6.664   6.887  0.0381 -0.5163 -0.3426
   78SLPC  H12A 7089   6.876   6.556   6.885 -1.0391 -0.4738 -0.5448
   78SLPC  H12B 7090   6.982   6.701   6.890 -0.5165  1.0753  1.9226
   78SLPC   C11 7091   6.829   6.698   6.747 -0.1305 -0.2445 -0.6998
   78SLPC  H11A 7092   6.720   6.678   6.744 -0.2516  0.5395 -2.7035
   78SLPC  H11B 7093   6.884   6.631   6.677  3.3783  1.4433  0.2164
   78SLPC     P 7094   6.965   6.903   6.639 -0.2717  0.1694 -0.3347
   78SLPC   O13 7095   6.953   7.050   6.657 -0.4106  0.1300 -0.0576
   78SLPC   O14 7096   7.092   6.850   6.690  0.0260 -0.2342 -0.0449
   78SLPC   O12 7097   6.848   6.837   6.718  0.2570  0.2298 -0.1505
   78SLPC   O11 7098   6.935   6.866   6.486 -0.1745  0.4719 -0.2644
   78SLPC    C1 7099   6.834   6.919   6.407 -0.8267  0.1814 -0.6070
   78SLPC    HA 7100   6.738   6.911   6.463 -0.7971 -0.3091 -0.6221
   78SLPC    HB 7101   6.840   7.026   6.381 -3.0154  0.2317 -1.1607
   78SLPC    C2 7102   6.825   6.830   6.276 -0.8678 -0.4556  0.6456
   78SLPC    HS 7103   6.724   6.855   6.236  0.2301  2.1881 -0.7193
   78SLPC   O21 7104   6.831   6.692   6.304  0.4197  0.2647  0.0019
   78SLPC   C21 7105   6.734   6.641   6.389  0.1319 -0.7487 -0.5519
   78SLPC   O22 7106   6.632   6.697   6.424  0.6802  0.1330  0.2187
   78SLPC   C22 7107   6.766   6.501   6.416  0.5906  1.0287 -0.3463
   78SLPC   H2R 7108   6.874   6.484   6.400  0.5904 -0.9838  1.4507
   78SLPC   H2S 7109   6.749   6.480   6.524  2.5201  0.4769 -0.1240
   78SLPC    C3 7110   6.938   6.874   6.177 -0.4549  0.1450  0.1920
   78SLPC    HX 7111   7.032   6.867   6.235  0.2865  0.4483 -0.9598
   78SLPC    HY 7112   6.922   6.982   6.153  0.7394  0.2473 -0.1651
   78SLPC   O31 7113   6.940   6.794   6.057 -0.6008 -0.2600 -0.3635
   78SLPC   C31 7114   6.839   6.827   5.974  0.7947 -0.0007 -0.2865
   78SLPC   O32 7115   6.755   6.908   5.993 -0.0494 -0.9160  0.8196
   78SLPC   C32 7116   6.858   6.743   5.850  0.1590 -0.0630  0.3415
   78SLPC   H2X 7117   6.797   6.655   5.876  0.4418 -1.1110 -2.2174
   78SLPC   H2Y 7118   6.965   6.712   5.857  0.0006 -0.3854  1.4213
   78SLPC   C23 7119   6.676   6.405   6.327 -0.5103 -0.1050  0.1038
   78SLPC   H3R 7120   6.572   6.412   6.366 -0.8707 -1.3300 -0.5804
   78SLPC   H3S 7121   6.719   6.303   6.339 -1.2836 -0.4841 -0.2888
   78SLPC   C24 7122   6.670   6.443   6.183 -0.3030  1.2268  0.8264
   78SLPC   H4R 7123   6.756   6.508   6.159 -0.1653  1.3646  1.6681
   78SLPC   H4S 7124   6.578   6.497   6.152 -1.3613 -0.4587  0.9180
   78SLPC   C25 7125   6.688   6.320   6.089  0.1910 -0.4491 -0.7286
   78SLPC   H5R 7126   6.597   6.257   6.101 -0.5309  0.7079  0.1033
   78SLPC   H5S 7127   6.780   6.266   6.119  1.7026  1.4847 -1.6485
   78SLPC   C26 7128   6.718   6.359   5.944 -0.8102 -1.0488 -0.2681
   78SLPC   H6R 7129   6.819   6.405   5.936 -2.1270  1.7892 -3.2299
   78SLPC   H6S 7130   6.647   6.436   5.907  0.7656  0.4728 -0.2717
   78SLPC   C27 7131   6.724   6.232   5.849  0.8205 -0.2288 -0.1602
   78SLPC   H7R 7132   6.621   6.192   5.860  0.0268  2.2420  2.8026
   78SLPC   H7S 7133   6.800   6.164   5.892 -0.4815 -1.6451 -0.0339
   78SLPC   C28 7134   6.781   6.274   5.714 -0.1356  0.0812 -0.1063
   78SLPC   H8R 7135   6.816   6.177   5.672 -1.9541 -0.1096 -1.2880
   78SLPC   H8S 7136   6.873   6.331   5.737 -0.1484 -1.5434  5.2834
   78SLPC   C29 7137   6.675   6.338   5.624  0.1617 -0.9678  0.1109
   78SLPC   H9R 7138   6.640   6.438   5.652  0.1230 -1.0337  0.3061
   78SLPC  C210 7139   6.604   6.283   5.525 -0.3311 -0.4191 -0.0548
   78SLPC  H10R 7140   6.538   6.357   5.478 -1.0961  1.3024  3.4220
   78SLPC  C211 7141   6.627   6.152   5.465  0.0393  0.5108  0.2944
   78SLPC  H11R 7142   6.527   6.110   5.441  0.6345 -0.8076  0.0316
   78SLPC  H11S 7143   6.652   6.089   5.554  0.3594  0.4339  0.1526
   78SLPC  C212 7144   6.736   6.154   5.361 -0.2177  0.8096 -0.1974
   78SLPC  H12R 7145   6.834   6.123   5.400  0.1780  0.9811 -1.0384
   78SLPC  C213 7146   6.713   6.160   5.233  0.3755  0.0683 -0.1487
   78SLPC  H13R 7147   6.798   6.169   5.163  1.3757 -0.9597  0.9144
   78SLPC  C214 7148   6.588   6.185   5.166  0.7998 -0.0567  0.1721
   78SLPC  H14R 7149   6.551   6.287   5.193  0.1453  0.1043 -1.2219
   78SLPC  H14S 7150   6.514   6.112   5.204  0.4760 -1.2210 -2.4629
   78SLPC  C215 7151   6.593   6.171   5.012  0.5474  0.2046 -0.0765
   78SLPC  H15R 7152   6.659   6.089   4.976 -0.7573 -0.0678 -1.9876
   78SLPC  H15S 7153   6.628   6.265   4.964 -1.6768  1.0054 -0.2059
   78SLPC  C216 7154   6.450   6.145   4.968  0.3258 -0.5683  0.0561
   78SLPC  H16R 7155   6.381   6.218   5.015 -0.9069 -2.9991  2.3337
   78SLPC  H16S 7156   6.423   6.044   5.006 -2.4250 -0.2740 -0.9250
   78SLPC  C217 7157   6.431   6.157   4.813  0.2185 -0.6959 -0.0337
   78SLPC  H17R 7158   6.512   6.103   4.760  0.9876 -1.8667  2.2380
   78SLPC  H17S 7159   6.438   6.263   4.780 -1.0852 -0.3208  0.8464
   78SLPC  C218 7160   6.294   6.095   4.788 -0.4814 -0.0755 -0.2231
   78SLPC  H18R 7161   6.211   6.150   4.838 -1.7188 -0.6003 -1.6353
   78SLPC  H18S 7162   6.290   5.998   4.841 -0.1745  0.3646  0.6252
   78SLPC  H18T 7163   6.275   6.084   4.679 -1.6074  0.8557 -0.1414
   78SLPC   C33 7164   6.822   6.811   5.721  1.0316 -0.5360  0.4019
   78SLPC   H3X 7165   6.888   6.900   5.714  0.3917 -0.2135 -3.9169
   78SLPC   H3Y 7166   6.719   6.852   5.716  0.7689 -1.3069 -0.8269
   78SLPC   C34 7167   6.839   6.720   5.601  0.1967  0.2166  0.0782
   78SLPC   H4X 7168   6.809   6.772   5.507  3.8622  1.8805 -0.3621
   78SLPC   H4Y 7169   6.784   6.624   5.610  1.4362 -0.4328  1.0163
   78SLPC   C35 7170   6.978   6.685   5.557  0.4391  0.0380  0.3356
   78SLPC   H5X 7171   7.035   6.644   5.643 -0.0696  1.4841  1.4088
   78SLPC   H5Y 7172   7.035   6.779   5.537 -2.0161  1.5702  0.1134
   78SLPC   C36 7173   6.985   6.585   5.440 -0.7520 -0.0552  0.5341
   78SLPC   H6X 7174   6.907   6.608   5.365  0.1645  0.2957 -0.3251
   78SLPC   H6Y 7175   6.977   6.477   5.466 -0.6648 -0.3369 -0.5472
   78SLPC   C37 7176   7.129   6.599   5.380  0.3677 -0.2194 -0.1255
   78SLPC   H7X 7177   7.207   6.550   5.442  1.3747 -0.7111 -1.7125
   78SLPC   H7Y 7178   7.167   6.703   5.370 -1.7535  0.9283  2.4909
   78SLPC   C38 7179   7.141   6.522   5.246  0.1089  0.4647  0.1314
   78SLPC   H8X 7180   7.086   6.578   5.167  1.8510 -0.7263 -2.0591
   78SLPC   H8Y 7181   7.090   6.423   5.253  1.1466 -0.0560  0.4721
   78SLPC   C39 7182   7.290   6.505   5.199 -0.1373 -0.5127 -0.4587
   78SLPC   H9X 7183   7.330   6.458   5.292 -2.6134  0.9992  1.4797
   78SLPC   H9Y 7184   7.343   6.598   5.170  1.1325 -2.7299 -6.8190
   78SLPC  C310 7185   7.302   6.406   5.082 -0.6292  0.2932 -0.9785
   78SLPC  H10X 7186   7.227   6.429   5.003 -0.8381  1.3118 -0.5057
   78SLPC  H10Y 7187   7.285   6.302   5.118  0.2016  1.0047  1.7083
   78SLPC  C311 7188   7.451   6.408   5.026  0.6870  0.4159  0.3922
   78SLPC  H11X 7189   7.527   6.401   5.106  0.7339  0.9346  0.3943
   78SLPC  H11Y 7190   7.479   6.498   4.967 -2.1746 -0.6532 -2.9501
   78SLPC  C312 7191   7.469   6.294   4.923 -0.3136 -0.1549  0.9976
   78SLPC  H12X 7192   7.371   6.275   4.874  0.9603  1.6893 -2.5943
   78SLPC  H12Y 7193   7.498   6.197   4.969  0.4320 -0.0076  0.8457
   78SLPC  C313 7194   7.578   6.315   4.816  0.3124 -0.5889 -0.2536
   78SLPC  H13X 7195   7.675   6.324   4.869 -0.7449  0.6138  1.6192
   78SLPC  H13Y 7196   7.547   6.406   4.761 -0.4485 -0.9812 -0.4860
   78SLPC  C314 7197   7.588   6.208   4.711 -0.3372  0.3794 -0.1791
   78SLPC  H14X 7198   7.493   6.196   4.655 -0.2006 -0.6445 -0.2006
   78SLPC  H14Y 7199   7.602   6.110   4.762  0.2467  0.0017 -1.0466
   78SLPC  C315 7200   7.709   6.240   4.622 -0.1665 -0.4228 -0.0857
   78SLPC  H15X 7201   7.807   6.221   4.670  0.4528  0.5550 -0.9196
   78SLPC  H15Y 7202   7.705   6.345   4.586  1.4211 -0.5683 -0.7880
   78SLPC  C316 7203   7.712   6.155   4.499  0.0242  0.0013 -0.3869
   78SLPC  H16X 7204   7.621   6.160   4.436 -0.6949  0.2493  0.6476
   78SLPC  H16Y 7205   7.723   6.048   4.526 -2.0859 -1.0895 -3.3259
   78SLPC  C317 7206   7.820   6.184   4.394  0.1296  0.5728 -0.0705
   78SLPC  H17X 7207   7.919   6.149   4.432  0.4647  1.6373  0.0681
   78SLPC  H17Y 7208   7.842   6.291   4.376 -0.3763  0.8835  1.0740
   78SLPC  C318 7209   7.784   6.125   4.256 -0.9458 -0.6544  0.0132
   78SLPC  H18X 7210   7.869   6.119   4.184 -0.8579 -1.8563  0.1956
   78SLPC  H18Y 7211   7.714   6.197   4.207 -1.0373 -0.2032  0.7935
   78SLPC  H18Z 7212   7.732   6.027   4.260 -1.0665 -0.5568  3.5602
   79SLPC     N 7213   2.447   0.124   7.131 -0.0482 -0.7201 -0.5570
   79SLPC   C13 7214   2.406   0.009   7.218  0.0403  0.5170  0.1417
   79SLPC  H13A 7215   2.475  -0.008   7.300 -0.9737  0.0684  0.9322
   79SLPC  H13B 7216   2.306   0.028   7.254  0.0842  0.4773  0.2859
   79SLPC  H13C 7217   2.411  -0.083   7.162 -0.7924  0.0444  0.7973
   79SLPC   C14 7218   2.587   0.108   7.107 -0.2525  0.3293 -0.8331
   79SLPC  H14A 7219   2.593   0.035   7.028 -3.0510  1.4617 -2.2264
   79SLPC  H14B 7220   2.637   0.197   7.073  3.0260 -0.5813  1.2001
   79SLPC  H14C 7221   2.634   0.069   7.197 -0.5836 -1.3678 -1.3512
   79SLPC   C15 7222   2.417   0.243   7.216  0.2790  0.3162  0.7678
   79SLPC  H15A 7223   2.456   0.237   7.317  0.8100 -2.0818  0.4836
   79SLPC  H15B 7224   2.458   0.333   7.173 -0.1085 -0.5124 -1.4743
   79SLPC  H15C 7225   2.310   0.246   7.227  0.1530 -0.4528 -0.1352
   79SLPC   C12 7226   2.356   0.133   7.001 -0.0237  0.4799  0.8321
   79SLPC  H12A 7227   2.384   0.216   6.937 -0.6069  0.1596  0.1538
   79SLPC  H12B 7228   2.257   0.162   7.033 -0.4101  1.2829 -0.9487
   79SLPC   C11 7229   2.361   0.012   6.906 -0.6785  0.2714  0.1436
   79SLPC  H11A 7230   2.281   0.026   6.829  0.2974 -0.4230 -1.0299
   79SLPC  H11B 7231   2.336  -0.082   6.959 -1.1923 -0.1892 -0.8751
   79SLPC     P 7232   2.527   0.100   6.725 -0.1408 -0.1281  0.4903
   79SLPC   O13 7233   2.487   0.240   6.769 -0.6127 -0.0244  0.1744
   79SLPC   O14 7234   2.667   0.065   6.703 -0.6067  0.0474 -0.2933
   79SLPC   O12 7235   2.486   0.005   6.843  0.5726  0.3094  0.3451
   79SLPC   O11 7236   2.433   0.051   6.602 -0.4282 -0.0201 -0.2790
   79SLPC    C1 7237   2.472  -0.078   6.541  0.3273 -0.2144 -1.0600
   79SLPC    HA 7238   2.528  -0.071   6.446  1.0598 -0.7483 -0.6754
   79SLPC    HB 7239   2.537  -0.139   6.608 -0.3242 -2.0878 -2.0483
   79SLPC    C2 7240   2.350  -0.161   6.499 -0.0115  0.2461  0.5201
   79SLPC    HS 7241   2.406  -0.250   6.462  1.3256  0.5336  1.7406
   79SLPC   O21 7242   2.267  -0.105   6.390 -0.1692 -0.0485 -0.0891
   79SLPC   C21 7243   2.308  -0.139   6.263  0.1417 -0.2413 -0.7162
   79SLPC   O22 7244   2.413  -0.194   6.242  0.4064 -0.0306  0.4456
   79SLPC   C22 7245   2.200  -0.100   6.160 -0.1231 -0.6815 -0.2438
   79SLPC   H2R 7246   2.112  -0.162   6.188 -0.0255 -0.3036  0.9709
   79SLPC   H2S 7247   2.174   0.007   6.172  1.2123 -0.1993 -1.3550
   79SLPC    C3 7248   2.269  -0.200   6.625 -0.1204  0.0061 -0.0668
   79SLPC    HX 7249   2.207  -0.119   6.669 -0.8685 -0.8880  0.5728
   79SLPC    HY 7250   2.350  -0.225   6.696  3.4667  1.5532 -3.2489
   79SLPC   O31 7251   2.203  -0.321   6.598  0.5362 -0.4027 -0.0230
   79SLPC   C31 7252   2.079  -0.311   6.550 -0.4608  0.6432 -0.3612
   79SLPC   O32 7253   2.018  -0.212   6.531  0.5760  0.2038 -0.2752
   79SLPC   C32 7254   2.018  -0.451   6.553 -0.7525  0.0625  0.5527
   79SLPC   H2X 7255   1.908  -0.445   6.538 -0.5071  0.8088 -1.2953
   79SLPC   H2Y 7256   2.037  -0.490   6.655  0.5295  1.0273  0.6879
   79SLPC   C23 7257   2.241  -0.138   6.011 -0.0655  0.9696 -0.8233
   79SLPC   H3R 7258   2.155  -0.102   5.950 -2.3130 -0.8495  1.0954
   79SLPC   H3S 7259   2.252  -0.246   5.992  0.8474  1.2522 -2.0504
   79SLPC   C24 7260   2.380  -0.077   5.975  0.0078  0.3323  1.1828
   79SLPC   H4R 7261   2.453  -0.161   5.975 -0.3251 -0.0800 -1.9209
   79SLPC   H4S 7262   2.413  -0.001   6.049 -0.5403  1.8214 -0.0518
   79SLPC   C25 7263   2.378   0.001   5.841 -0.0943 -0.1725 -0.3485
   79SLPC   H5R 7264   2.485   0.029   5.832  0.1364 -0.4816  1.1303
   79SLPC   H5S 7265   2.309   0.088   5.848  0.7976  0.9288 -3.7226
   79SLPC   C26 7266   2.350  -0.087   5.719 -0.2264 -1.0956  0.1341
   79SLPC   H6R 7267   2.245  -0.064   5.692  0.2522  1.3653  0.1542
   79SLPC   H6S 7268   2.371  -0.195   5.739  0.7635 -1.0901 -0.7800
   79SLPC   C27 7269   2.432  -0.046   5.601  0.1751  0.3434 -0.3235
   79SLPC   H7R 7270   2.538  -0.071   5.625 -0.5807 -3.9904 -0.5853
   79SLPC   H7S 7271   2.431   0.065   5.601 -1.0156  0.3438  0.3379
   79SLPC   C28 7272   2.392  -0.096   5.454 -0.1197  0.1445  0.1768
   79SLPC   H8R 7273   2.456  -0.053   5.374 -0.3239  1.0743  0.5089
   79SLPC   H8S 7274   2.286  -0.067   5.436  0.2150 -0.5631 -4.1749
   79SLPC   C29 7275   2.400  -0.247   5.453  0.9382  0.1916 -0.2131
   79SLPC   H9R 7276   2.384  -0.287   5.554  1.0269  0.0570 -0.2517
   79SLPC  C210 7277   2.424  -0.325   5.349 -0.4180 -0.2822 -0.0851
   79SLPC  H10R 7278   2.435  -0.434   5.359 -0.1020 -0.5399 -2.5857
   79SLPC  C211 7279   2.449  -0.294   5.204  0.0860  0.1219 -0.6674
   79SLPC  H11R 7280   2.530  -0.358   5.162  0.6654 -0.8132  1.7214
   79SLPC  H11S 7281   2.481  -0.189   5.186 -0.7940  0.2419 -1.6123
   79SLPC  C212 7282   2.330  -0.316   5.117 -0.2334  0.2027 -0.4806
   79SLPC  H12R 7283   2.227  -0.310   5.156  0.4023  1.7434  1.0645
   79SLPC  C213 7284   2.340  -0.366   4.993 -0.0791  0.3152  0.2731
   79SLPC  H13R 7285   2.240  -0.382   4.951 -0.1999 -0.9378  0.9928
   79SLPC  C214 7286   2.457  -0.418   4.914  0.2411  0.0443 -0.3907
   79SLPC  H14R 7287   2.454  -0.529   4.914  1.7066 -0.0138  0.0249
   79SLPC  H14S 7288   2.558  -0.391   4.951  0.8802  0.4220 -2.2769
   79SLPC  C215 7289   2.455  -0.387   4.762 -0.4651  0.4956  0.3625
   79SLPC  H15R 7290   2.353  -0.353   4.734 -0.7075  1.0460  1.8247
   79SLPC  H15S 7291   2.466  -0.487   4.715  3.7814  0.7620  0.4019
   79SLPC  C216 7292   2.575  -0.296   4.721 -0.1525  0.7932 -0.0988
   79SLPC  H16R 7293   2.670  -0.346   4.747 -0.5002  0.4399  0.5207
   79SLPC  H16S 7294   2.561  -0.212   4.791 -0.0543  0.4434  0.3477
   79SLPC  C217 7295   2.573  -0.250   4.575 -0.1766 -0.2566 -1.0361
   79SLPC  H17R 7296   2.484  -0.185   4.562 -0.2540  0.1460  1.0808
   79SLPC  H17S 7297   2.569  -0.334   4.503  0.5566  0.2425 -1.6734
   79SLPC  C218 7298   2.707  -0.173   4.549 -0.1666  0.0786  0.1365
   79SLPC  H18R 7299   2.797  -0.225   4.589  0.7540  2.3528  1.2180
   79SLPC  H18S 7300   2.698  -0.078   4.606 -1.4222  1.3348 -2.0192
   79SLPC  H18T 7301   2.711  -0.143   4.442  1.5827 -2.2068 -0.5259
   79SLPC   C33 7302   2.086  -0.550   6.454  0.0343  1.0612 -0.2976
   79SLPC   H3X 7303   2.044  -0.652   6.448  4.4336 -0.9551 -0.8422
   79SLPC   H3Y 7304   2.188  -0.570   6.494 -0.7612 -2.1448  0.3537
   79SLPC   C34 7305   2.106  -0.513   6.306 -0.3938  0.4385 -0.0109
   79SLPC   H4X 7306   2.134  -0.602   6.247 -0.4360  0.9320 -0.7918
   79SLPC   H4Y 7307   2.197  -0.450   6.290  1.2562 -1.3527  1.6903
   79SLPC   C35 7308   1.978  -0.452   6.237 -0.0277  0.3216 -0.3999
   79SLPC   H5X 7309   1.969  -0.350   6.281  0.4961 -0.0724  0.6475
   79SLPC   H5Y 7310   1.883  -0.500   6.268  0.0418 -0.3785 -1.2396
   79SLPC   C36 7311   1.979  -0.434   6.084 -0.4100  0.8561 -0.0528
   79SLPC   H6X 7312   2.016  -0.524   6.031  2.2997  1.3005  0.9287
   79SLPC   H6Y 7313   2.068  -0.367   6.075 -0.5966  1.0849 -0.2006
   79SLPC   C37 7314   1.853  -0.378   6.041  0.5869  0.2659  0.5809
   79SLPC   H7X 7315   1.802  -0.329   6.127  0.0709  0.4371  0.1842
   79SLPC   H7Y 7316   1.780  -0.456   6.011 -0.6700  0.9375  1.7694
   79SLPC   C38 7317   1.862  -0.278   5.936  0.0883 -0.3264 -0.2146
   79SLPC   H8X 7318   1.956  -0.222   5.955 -0.0755 -1.1108  3.7102
   79SLPC   H8Y 7319   1.776  -0.209   5.939 -1.2255 -1.8676 -0.9275
   79SLPC   C39 7320   1.870  -0.337   5.789  0.3014  0.5018 -0.6896
   79SLPC   H9X 7321   1.771  -0.386   5.778 -0.7509  2.1770  0.7267
   79SLPC   H9Y 7322   1.947  -0.416   5.778  0.5244  0.4871  0.7791
   79SLPC  C310 7323   1.901  -0.236   5.684 -0.0420  0.1419 -0.2042
   79SLPC  H10X 7324   1.992  -0.176   5.709 -0.8375  1.6539 -0.8123
   79SLPC  H10Y 7325   1.818  -0.162   5.685  0.6146  0.9098  1.3262
   79SLPC  C311 7326   1.903  -0.298   5.540 -0.1295  0.3808  0.0510
   79SLPC  H11X 7327   1.811  -0.349   5.506 -0.2990 -1.1326  2.5483
   79SLPC  H11Y 7328   1.983  -0.374   5.553  1.5785  1.7003 -2.0531
   79SLPC  C312 7329   1.950  -0.199   5.428  0.7379 -0.1869 -0.4586
   79SLPC  H12X 7330   2.049  -0.162   5.462  1.1271 -2.4440  1.0069
   79SLPC  H12Y 7331   1.879  -0.114   5.417  0.7228 -0.0984  0.2909
   79SLPC  C313 7332   1.958  -0.261   5.286  0.3404  0.1885 -0.9716
   79SLPC  H13X 7333   1.891  -0.350   5.280  0.7385 -0.1615 -0.4082
   79SLPC  H13Y 7334   2.064  -0.296   5.283  0.5414  0.7568 -0.6619
   79SLPC  C314 7335   1.918  -0.160   5.172  0.1652 -0.8202  0.8316
   79SLPC  H14X 7336   2.003  -0.089   5.163  1.4359 -2.4979 -1.3874
   79SLPC  H14Y 7337   1.835  -0.092   5.202 -0.6891 -1.3345 -0.2849
   79SLPC  C315 7338   1.877  -0.212   5.036 -0.0292  0.8265 -0.4499
   79SLPC  H15X 7339   1.803  -0.293   5.048  0.6937  0.2666  0.3643
   79SLPC  H15Y 7340   1.963  -0.262   4.986 -0.8955  0.1692 -1.2986
   79SLPC  C316 7341   1.815  -0.116   4.941 -0.0333 -0.0088 -0.0164
   79SLPC  H16X 7342   1.733  -0.067   4.998  1.1520  2.3186 -0.1519
   79SLPC  H16Y 7343   1.780  -0.178   4.857  1.6319  2.3435 -2.6433
   79SLPC  C317 7344   1.919  -0.012   4.889 -0.3404 -0.1175  0.0774
   79SLPC  H17X 7345   1.995  -0.073   4.835 -0.2650 -0.9462  1.0747
   79SLPC  H17Y 7346   1.982   0.031   4.970 -0.8710  0.1947  0.3284
   79SLPC  C318 7347   1.869   0.093   4.800  0.1438  0.5375 -0.2751
   79SLPC  H18X 7348   1.935   0.183   4.794 -0.3417  0.8590 -0.9871
   79SLPC  H18Y 7349   1.771   0.128   4.840  0.3518 -1.3046  2.0551
   79SLPC  H18Z 7350   1.856   0.050   4.698  0.5887 -2.7628  0.9462
   80SLPC     N 7351   2.876   1.921   7.006  0.0221 -0.1738 -0.0570
   80SLPC   C13 7352   2.965   1.981   7.111  0.5614 -0.0134  0.5151
   80SLPC  H13A 7353   3.050   2.029   7.066  0.4531  0.1140  0.4452
   80SLPC  H13B 7354   2.904   2.039   7.177 -2.1077 -1.0160 -0.8941
   80SLPC  H13C 7355   2.997   1.904   7.180  1.6383  0.5344  0.6323
   80SLPC   C14 7356   2.760   1.874   7.081 -0.2509  0.0522  0.3148
   80SLPC  H14A 7357   2.786   1.790   7.144 -0.7332 -1.3018 -1.1963
   80SLPC  H14B 7358   2.724   1.953   7.144  4.1558  0.8494  2.2216
   80SLPC  H14C 7359   2.677   1.848   7.017 -1.5249  0.3147  1.8004
   80SLPC   C15 7360   2.947   1.817   6.932 -0.2465  0.2096  0.1955
   80SLPC  H15A 7361   3.015   1.852   6.856  1.0268 -1.5283  0.4722
   80SLPC  H15B 7362   3.007   1.758   6.999  1.1758  0.2129 -1.0388
   80SLPC  H15C 7363   2.879   1.743   6.894  2.8850 -2.1384 -1.2543
   80SLPC   C12 7364   2.828   2.023   6.904  0.2887 -0.0059  0.5062
   80SLPC  H12A 7365   2.910   2.060   6.845 -0.8100  1.0045 -0.4429
   80SLPC  H12B 7366   2.787   2.112   6.949 -0.6631  0.0425 -0.4183
   80SLPC   C11 7367   2.729   1.983   6.796  0.2634  0.0925  0.5294
   80SLPC  H11A 7368   2.728   1.877   6.763 -2.7989  0.7757 -2.0898
   80SLPC  H11B 7369   2.753   2.057   6.717 -1.0523 -2.1021 -2.0785
   80SLPC     P 7370   2.539   2.149   6.845 -0.1698  0.2767  0.3880
   80SLPC   O13 7371   2.403   2.151   6.886  0.3698  0.1675  0.2090
   80SLPC   O14 7372   2.639   2.231   6.925  0.3081  0.0881  0.1177
   80SLPC   O12 7373   2.599   2.001   6.841  0.0846 -0.3271 -0.6049
   80SLPC   O11 7374   2.540   2.195   6.694  0.5843  0.9527  0.1099
   80SLPC    C1 7375   2.447   2.138   6.597 -0.1776 -0.0433  0.3411
   80SLPC    HA 7376   2.345   2.140   6.641 -0.2179  2.9072  0.3230
   80SLPC    HB 7377   2.445   2.205   6.508 -0.0525  2.7359  2.3085
   80SLPC    C2 7378   2.481   1.993   6.557 -0.0517 -0.6686  0.0693
   80SLPC    HS 7379   2.494   1.934   6.650  0.7866  1.5298  1.4041
   80SLPC   O21 7380   2.599   1.992   6.471  0.4013  0.1849  0.2218
   80SLPC   C21 7381   2.648   1.870   6.462 -0.3491 -0.6988  0.1319
   80SLPC   O22 7382   2.602   1.775   6.520  0.0648  0.0784  0.1199
   80SLPC   C22 7383   2.757   1.859   6.357 -0.5142 -0.2391 -0.7299
   80SLPC   H2R 7384   2.716   1.886   6.257  1.2122 -0.3942 -1.5106
   80SLPC   H2S 7385   2.842   1.927   6.380 -0.3445 -1.1255  1.4584
   80SLPC    C3 7386   2.350   1.927   6.481  0.0477 -0.0636 -0.0822
   80SLPC    HX 7387   2.276   1.914   6.563  0.0790 -1.0212 -0.1845
   80SLPC    HY 7388   2.377   1.821   6.457  2.3393 -0.2943  2.9545
   80SLPC   O31 7389   2.292   2.015   6.378 -0.1195  0.2017 -0.6265
   80SLPC   C31 7390   2.353   1.987   6.259  0.3358  0.2836 -0.3118
   80SLPC   O32 7391   2.429   1.899   6.233  0.0738 -0.3211  0.2789
   80SLPC   C32 7392   2.293   2.090   6.157 -0.0810  0.2992 -0.6989
   80SLPC   H2X 7393   2.337   2.186   6.193  1.3218 -0.7999  0.6510
   80SLPC   H2Y 7394   2.183   2.074   6.156 -0.0689  0.1551 -0.1225
   80SLPC   C23 7395   2.824   1.721   6.354  0.8154  0.4583  0.3767
   80SLPC   H3R 7396   2.743   1.650   6.327  1.0690  1.2275 -2.8441
   80SLPC   H3S 7397   2.869   1.693   6.451 -0.2185  0.2765  0.8154
   80SLPC   C24 7398   2.925   1.714   6.236 -0.0461  0.9422 -0.2274
   80SLPC   H4R 7399   2.980   1.619   6.252 -0.8157  0.7996  1.9736
   80SLPC   H4S 7400   2.989   1.803   6.253 -0.7873  1.0333  2.6737
   80SLPC   C25 7401   2.868   1.717   6.096  0.1397  0.5581  0.7487
   80SLPC   H5R 7402   2.852   1.827   6.091  0.2539  0.7240  2.9640
   80SLPC   H5S 7403   2.779   1.651   6.103  0.3222  0.2083 -0.1112
   80SLPC   C26 7404   2.965   1.664   5.986  0.3261  0.0271 -0.1754
   80SLPC   H6R 7405   2.962   1.553   5.986 -0.2934  0.0434  0.4424
   80SLPC   H6S 7406   3.062   1.691   6.034 -0.1525  1.1614  0.2029
   80SLPC   C27 7407   2.959   1.729   5.847  0.6952 -1.5319 -0.6555
   80SLPC   H7R 7408   2.966   1.839   5.855  0.5226 -1.4883 -1.1146
   80SLPC   H7S 7409   2.861   1.719   5.797  0.5232 -0.5015 -0.5336
   80SLPC   C28 7410   3.074   1.692   5.759 -0.9801 -0.0729 -0.3997
   80SLPC   H8R 7411   3.164   1.688   5.823 -0.1060  1.5752 -1.4474
   80SLPC   H8S 7412   3.095   1.782   5.698  1.6169  0.4164  1.0689
   80SLPC   C29 7413   3.068   1.558   5.689  0.3091  0.1735  0.1889
   80SLPC   H9R 7414   3.053   1.468   5.751 -0.6035  1.0337  1.2632
   80SLPC  C210 7415   3.058   1.532   5.556 -0.1286  0.1075 -0.1786
   80SLPC  H10R 7416   3.042   1.425   5.535  1.1052  0.0473 -0.8490
   80SLPC  C211 7417   3.064   1.639   5.450  0.2529  0.1367  0.0025
   80SLPC  H11R 7418   3.133   1.595   5.375 -2.2488 -4.3428 -0.0309
   80SLPC  H11S 7419   3.097   1.738   5.486  0.9156 -0.7667  2.0274
   80SLPC  C212 7420   2.923   1.651   5.382  0.3663  0.4798  0.4634
   80SLPC  H12R 7421   2.841   1.619   5.448  1.0606  0.2434  1.2272
   80SLPC  C213 7422   2.898   1.671   5.254 -0.8688 -0.0850  0.2649
   80SLPC  H13R 7423   2.800   1.658   5.206  0.7318 -0.5565 -3.1783
   80SLPC  C214 7424   3.008   1.700   5.153  0.1569  0.5836 -0.4763
   80SLPC  H14R 7425   3.025   1.612   5.087 -0.0198 -0.6813  1.1032
   80SLPC  H14S 7426   3.106   1.725   5.199 -0.5488 -0.1979  1.5394
   80SLPC  C215 7427   2.969   1.818   5.062  0.0211  0.0477 -0.7999
   80SLPC  H15R 7428   2.956   1.907   5.126  0.3970  0.1345 -0.8411
   80SLPC  H15S 7429   2.878   1.795   5.002  0.2427 -4.5242  0.2045
   80SLPC  C216 7430   3.075   1.847   4.956 -0.6750 -0.0168  0.5956
   80SLPC  H16R 7431   3.116   1.757   4.905  2.0731  0.8259  1.1619
   80SLPC  H16S 7432   3.159   1.902   5.003 -0.4302 -1.1142  1.4831
   80SLPC  C217 7433   3.014   1.948   4.848  0.1099  0.1608  0.1876
   80SLPC  H17R 7434   3.102   1.956   4.782  0.3292 -2.4324  0.0893
   80SLPC  H17S 7435   3.003   2.045   4.902 -0.5327  1.6688 -2.4704
   80SLPC  C218 7436   2.878   1.912   4.784 -0.1134 -0.2341 -0.3329
   80SLPC  H18R 7437   2.880   1.808   4.745  1.7257 -0.8809  1.3380
   80SLPC  H18S 7438   2.832   1.990   4.720  0.1475  0.4847  0.3442
   80SLPC  H18T 7439   2.802   1.898   4.864  1.5652 -1.1107  1.1776
   80SLPC   C33 7440   2.363   2.075   6.021  0.8006 -0.6647 -0.0706
   80SLPC   H3X 7441   2.330   1.986   5.962 -0.9880 -0.4733  0.5740
   80SLPC   H3Y 7442   2.473   2.068   6.033  0.6297 -0.2408  2.1458
   80SLPC   C34 7443   2.346   2.196   5.930 -0.9265  0.6292  0.3194
   80SLPC   H4X 7444   2.420   2.270   5.968 -1.0752  0.9928 -0.0894
   80SLPC   H4Y 7445   2.243   2.236   5.933 -1.0037  0.3774  1.3020
   80SLPC   C35 7446   2.383   2.153   5.788  0.5404  0.3769  0.0837
   80SLPC   H5X 7447   2.308   2.081   5.748 -0.4337  1.2431  0.3161
   80SLPC   H5Y 7448   2.480   2.100   5.784  0.7100  0.7248 -0.6396
   80SLPC   C36 7449   2.380   2.274   5.695 -0.3695  0.7336 -0.0813
   80SLPC   H6X 7450   2.450   2.344   5.747  0.6609  0.6657 -1.3243
   80SLPC   H6Y 7451   2.273   2.303   5.688 -0.8726 -0.7197  1.1070
   80SLPC   C37 7452   2.427   2.246   5.549  0.1996 -0.1442  0.5274
   80SLPC   H7X 7453   2.358   2.174   5.499 -0.6858  0.7884  0.3831
   80SLPC   H7Y 7454   2.524   2.194   5.542  0.8770  1.3399 -3.1319
   80SLPC   C38 7455   2.428   2.371   5.465  0.6362 -0.9575 -0.1978
   80SLPC   H8X 7456   2.483   2.460   5.504 -2.7828  1.9334 -1.4054
   80SLPC   H8Y 7457   2.328   2.419   5.464  1.7577  1.5785 -0.7987
   80SLPC   C39 7458   2.462   2.340   5.322 -0.1906  0.4271 -0.2575
   80SLPC   H9X 7459   2.404   2.253   5.286  3.8554 -1.8660 -1.8242
   80SLPC   H9Y 7460   2.566   2.301   5.316 -0.4049 -0.0193 -1.1920
   80SLPC  C310 7461   2.446   2.468   5.245  0.9140  0.2589 -0.6434
   80SLPC  H10X 7462   2.511   2.546   5.290 -0.5333  0.4913  1.1349
   80SLPC  H10Y 7463   2.347   2.516   5.258 -0.6917 -1.4308 -4.8383
   80SLPC  C311 7464   2.462   2.444   5.097  0.4773 -0.2712 -0.2287
   80SLPC  H11X 7465   2.396   2.360   5.068 -0.2225  0.3105 -0.3481
   80SLPC  H11Y 7466   2.562   2.401   5.074 -0.1363 -1.3777 -0.9468
   80SLPC  C312 7467   2.437   2.573   5.015  0.0959 -0.3175  0.0205
   80SLPC  H12X 7468   2.496   2.657   5.059  1.3513 -2.9017  3.7862
   80SLPC  H12Y 7469   2.331   2.605   5.025  0.2720 -0.1278  1.7234
   80SLPC  C313 7470   2.457   2.550   4.867  0.0271  0.1834 -0.1774
   80SLPC  H13X 7471   2.409   2.457   4.830 -0.8683  0.6762 -0.2795
   80SLPC  H13Y 7472   2.564   2.524   4.854  0.3468  0.4979  1.5247
   80SLPC  C314 7473   2.398   2.661   4.780  0.1301 -0.1366  1.0370
   80SLPC  H14X 7474   2.415   2.767   4.809  0.4828  0.1764 -0.2063
   80SLPC  H14Y 7475   2.290   2.639   4.774 -0.0957  1.1302 -3.6273
   80SLPC  C315 7476   2.431   2.624   4.631 -0.1102 -0.1166 -0.4599
   80SLPC  H15X 7477   2.397   2.520   4.610 -3.9732  0.8650  0.1303
   80SLPC  H15Y 7478   2.540   2.629   4.612  0.3248 -1.5480  1.3795
   80SLPC  C316 7479   2.358   2.711   4.531  0.0368 -0.3989  0.8851
   80SLPC  H16X 7480   2.381   2.817   4.554 -1.3392  0.2156 -0.3906
   80SLPC  H16Y 7481   2.248   2.695   4.540  0.1441 -0.4410  2.5561
   80SLPC  C317 7482   2.398   2.684   4.386  0.4074  0.0228  0.4040
   80SLPC  H17X 7483   2.494   2.727   4.350  0.4315 -1.5109 -1.5439
   80SLPC  H17Y 7484   2.340   2.736   4.306  1.3812  1.4480  0.5836
   80SLPC  C318 7485   2.404   2.538   4.331 -0.0532 -0.3704  0.6767
   80SLPC  H18X 7486   2.472   2.485   4.401  0.2124 -0.5356  0.2996
   80SLPC  H18Y 7487   2.449   2.543   4.230 -0.0657  1.2564  0.7265
   80SLPC  H18Z 7488   2.304   2.489   4.334  0.7918 -2.1168  1.8086
   81SLPC     N 7489   2.472   2.346   2.436 -0.4817 -0.1769  0.8579
   81SLPC   C13 7490   2.561   2.253   2.517 -0.3440  0.5671  0.8807
   81SLPC  H13A 7491   2.507   2.166   2.552 -0.6267 -0.0166 -0.8999
   81SLPC  H13B 7492   2.643   2.217   2.457  0.9852  3.8403  0.5316
   81SLPC  H13C 7493   2.603   2.306   2.601 -2.8377  1.6682  1.5475
   81SLPC   C14 7494   2.378   2.263   2.342 -0.2559 -0.3212  0.0741
   81SLPC  H14A 7495   2.449   2.215   2.276 -0.9138  0.3475 -1.1547
   81SLPC  H14B 7496   2.318   2.183   2.384 -1.8094 -0.5920 -2.3844
   81SLPC  H14C 7497   2.319   2.329   2.280 -1.4539 -0.7290  0.7455
   81SLPC   C15 7498   2.563   2.425   2.347 -0.3202 -0.0982 -0.5468
   81SLPC  H15A 7499   2.505   2.511   2.317 -0.5656 -0.4835 -1.1877
   81SLPC  H15B 7500   2.646   2.468   2.402 -0.8831 -0.3900  0.5706
   81SLPC  H15C 7501   2.599   2.363   2.267  0.3591 -0.5889  0.1217
   81SLPC   C12 7502   2.378   2.431   2.525  0.9478 -0.1296 -0.3088
   81SLPC  H12A 7503   2.434   2.504   2.582  0.3574 -0.2945  0.4994
   81SLPC  H12B 7504   2.331   2.366   2.597 -3.6589  0.4981 -2.3661
   81SLPC   C11 7505   2.267   2.516   2.451  0.6651 -0.0842 -0.5995
   81SLPC  H11A 7506   2.203   2.568   2.526  2.2812  2.0578 -0.5905
   81SLPC  H11B 7507   2.196   2.457   2.390  0.2357 -0.0145 -0.1684
   81SLPC     P 7508   2.346   2.760   2.408 -0.1247 -0.5801 -0.2201
   81SLPC   O13 7509   2.424   2.828   2.304  0.6812  0.2560 -0.0797
   81SLPC   O14 7510   2.211   2.819   2.437  0.2202 -0.7019 -0.0526
   81SLPC   O12 7511   2.335   2.610   2.364  0.1874  0.1215 -0.1839
   81SLPC   O11 7512   2.420   2.745   2.545 -0.4869  0.1959  0.3669
   81SLPC    C1 7513   2.420   2.855   2.638  0.0420  0.3748  0.1824
   81SLPC    HA 7514   2.522   2.851   2.681  0.5420 -0.3552 -1.0173
   81SLPC    HB 7515   2.430   2.950   2.582  0.1178  0.5095  0.4235
   81SLPC    C2 7516   2.307   2.838   2.739 -0.3246  0.0867  0.1873
   81SLPC    HS 7517   2.209   2.843   2.687  0.4335 -1.4936 -1.4979
   81SLPC   O21 7518   2.334   2.924   2.847  0.2033 -0.1892 -0.2505
   81SLPC   C21 7519   2.229   2.980   2.898 -0.1368 -0.6510  0.1006
   81SLPC   O22 7520   2.114   2.974   2.862 -0.2748 -0.8130  0.1562
   81SLPC   C22 7521   2.274   3.042   3.029  0.7367 -0.6061  0.1133
   81SLPC   H2R 7522   2.383   3.062   3.030  0.6788 -0.2823  0.0516
   81SLPC   H2S 7523   2.206   3.130   3.041  0.4897 -0.7972  0.1243
   81SLPC    C3 7524   2.307   2.693   2.802 -0.4559 -0.0731  0.6995
   81SLPC    HX 7525   2.408   2.669   2.843  0.0965 -1.6649 -1.4036
   81SLPC    HY 7526   2.291   2.621   2.718  0.3851 -1.1782  1.4599
   81SLPC   O31 7527   2.208   2.673   2.903  0.7393  0.4888  0.0443
   81SLPC   C31 7528   2.206   2.545   2.940  0.2438  0.2120 -0.3821
   81SLPC   O32 7529   2.274   2.453   2.894 -0.0111  0.2485 -0.7467
   81SLPC   C32 7530   2.109   2.515   3.055 -0.7054  0.1656 -0.2381
   81SLPC   H2X 7531   2.061   2.423   3.016 -1.4580 -0.5571  2.1871
   81SLPC   H2Y 7532   2.028   2.591   3.062  0.4726  1.3143  1.9382
   81SLPC   C23 7533   2.233   2.962   3.151  0.1043  0.0393  0.1316
   81SLPC   H3R 7534   2.288   2.866   3.146  2.1465  1.0967  1.0904
   81SLPC   H3S 7535   2.126   2.936   3.133  0.5490 -1.2891 -0.7240
   81SLPC   C24 7536   2.272   3.031   3.283  0.0107 -0.1917  0.1461
   81SLPC   H4R 7537   2.225   2.971   3.364 -1.4748  0.6994 -0.0070
   81SLPC   H4S 7538   2.214   3.124   3.300 -5.3081 -3.3789  1.7391
   81SLPC   C25 7539   2.425   3.047   3.302  0.9910  0.4891 -0.4159
   81SLPC   H5R 7540   2.472   3.125   3.238  1.4839  1.7475  1.3947
   81SLPC   H5S 7541   2.478   2.950   3.293  1.1768  0.5305  0.1822
   81SLPC   C26 7542   2.457   3.092   3.449  0.5303  0.7090  0.0881
   81SLPC   H6R 7543   2.413   3.014   3.515 -0.2195  1.9161  1.0503
   81SLPC   H6S 7544   2.402   3.186   3.467  1.5426  1.0499  1.5209
   81SLPC   C27 7545   2.607   3.114   3.487  0.1234 -0.1683 -0.4074
   81SLPC   H7R 7546   2.657   3.152   3.395 -0.2288 -0.0980 -0.5721
   81SLPC   H7S 7547   2.655   3.015   3.494  0.4489  0.1095  2.6170
   81SLPC   C28 7548   2.640   3.188   3.612 -1.0561  0.4380 -0.0054
   81SLPC   H8R 7549   2.596   3.284   3.577 -4.3734 -1.5365 -1.6376
   81SLPC   H8S 7550   2.751   3.193   3.616 -1.0169 -0.8556  1.7281
   81SLPC   C29 7551   2.578   3.148   3.744 -0.0875  0.3237 -0.7583
   81SLPC   H9R 7552   2.608   3.052   3.789  0.0147  0.5246 -0.3920
   81SLPC  C210 7553   2.498   3.220   3.820 -0.2025 -0.2194  0.5917
   81SLPC  H10R 7554   2.451   3.168   3.905  1.1970 -1.3328  0.7340
   81SLPC  C211 7555   2.438   3.357   3.781  0.6299  0.7597  0.0230
   81SLPC  H11R 7556   2.358   3.342   3.706 -0.1689 -0.3359  1.0506
   81SLPC  H11S 7557   2.516   3.416   3.728  1.8785 -1.4254 -0.7028
   81SLPC  C212 7558   2.385   3.420   3.906 -0.3178 -0.1230 -0.6077
   81SLPC  H12R 7559   2.461   3.475   3.962  0.3864  0.2485 -1.8944
   81SLPC  C213 7560   2.265   3.405   3.961  0.3444  1.0482  0.5608
   81SLPC  H13R 7561   2.234   3.472   4.043 -0.1445  1.6528 -0.1120
   81SLPC  C214 7562   2.153   3.325   3.902 -0.0436 -0.2520 -0.1436
   81SLPC  H14R 7563   2.169   3.221   3.936 -0.9821 -0.8930 -1.5643
   81SLPC  H14S 7564   2.158   3.311   3.792 -0.3849 -0.0688 -0.1849
   81SLPC  C215 7565   2.005   3.373   3.938  0.1007  0.3845  0.6550
   81SLPC  H15R 7566   1.987   3.390   4.046 -2.1284 -0.2648  0.4277
   81SLPC  H15S 7567   1.932   3.303   3.892 -0.7775  2.7895 -1.8419
   81SLPC  C216 7568   1.968   3.512   3.875 -0.6218  0.3429  0.3190
   81SLPC  H16R 7569   1.989   3.507   3.766 -1.7028  1.0517  0.0675
   81SLPC  H16S 7570   2.042   3.583   3.918  0.1074 -0.9060  1.2142
   81SLPC  C217 7571   1.822   3.555   3.885  0.4652  0.7272  0.4060
   81SLPC  H17R 7572   1.795   3.576   3.991  1.6390  2.3136  0.4213
   81SLPC  H17S 7573   1.766   3.469   3.844  1.3745  0.3368 -0.0520
   81SLPC  C218 7574   1.795   3.688   3.803  0.2783 -0.2009 -0.1180
   81SLPC  H18R 7575   1.847   3.783   3.827  1.4423 -0.9603  0.4263
   81SLPC  H18S 7576   1.691   3.717   3.833  0.5044 -0.2509  0.7378
   81SLPC  H18T 7577   1.815   3.662   3.697 -1.5035 -0.2443 -0.4888
   81SLPC   C33 7578   2.174   2.490   3.191  0.5773 -0.2651 -0.0962
   81SLPC   H3X 7579   2.262   2.423   3.186 -0.4089 -1.7315  1.2792
   81SLPC   H3Y 7580   2.104   2.435   3.258 -0.5197  0.5344 -0.5506
   81SLPC   C34 7581   2.190   2.622   3.263  0.2798 -0.4258  0.5420
   81SLPC   H4X 7582   2.103   2.687   3.242 -2.0146 -2.5667  2.7732
   81SLPC   H4Y 7583   2.269   2.673   3.203 -0.0069 -0.8257 -0.1965
   81SLPC   C35 7584   2.243   2.608   3.404 -0.1441  0.0382  0.2146
   81SLPC   H5X 7585   2.337   2.549   3.405 -1.4935 -2.2166  0.6228
   81SLPC   H5Y 7586   2.171   2.543   3.457  2.5469 -2.9630  0.5278
   81SLPC   C36 7587   2.265   2.734   3.487  0.2354 -0.6490 -0.3922
   81SLPC   H6X 7588   2.175   2.799   3.480  0.3609 -0.4983 -0.5920
   81SLPC   H6Y 7589   2.338   2.793   3.429 -0.1449 -1.4649 -1.7405
   81SLPC   C37 7590   2.291   2.716   3.640  0.3786 -0.5746 -0.2624
   81SLPC   H7X 7591   2.313   2.818   3.677  0.9791 -1.0822  0.7998
   81SLPC   H7Y 7592   2.380   2.650   3.650  0.3697 -0.3232  1.6338
   81SLPC   C38 7593   2.175   2.652   3.723  0.2380  0.5144 -0.8902
   81SLPC   H8X 7594   2.156   2.551   3.681  0.9831  0.8908 -2.1914
   81SLPC   H8Y 7595   2.083   2.715   3.714 -1.6419 -1.3456  2.9671
   81SLPC   C39 7596   2.194   2.658   3.880 -0.0560 -0.1521 -0.0251
   81SLPC   H9X 7597   2.209   2.765   3.905  0.6387  0.3750 -2.3945
   81SLPC   H9Y 7598   2.290   2.610   3.910 -1.4631 -2.1392  1.5703
   81SLPC  C310 7599   2.090   2.602   3.979  0.9742  0.0459  1.3775
   81SLPC  H10X 7600   2.088   2.491   3.975 -0.5905  0.0675 -1.1330
   81SLPC  H10Y 7601   1.986   2.628   3.950  0.7603 -0.4400  1.6895
   81SLPC  C311 7602   2.097   2.673   4.117 -0.0111 -0.4442 -0.2708
   81SLPC  H11X 7603   2.096   2.782   4.097 -0.1071 -0.1169  1.3197
   81SLPC  H11Y 7604   2.193   2.646   4.166 -0.1405 -0.3791  0.0207
   81SLPC  C312 7605   1.984   2.625   4.208 -0.4264 -0.2685  0.1077
   81SLPC  H12X 7606   1.961   2.516   4.198  2.7713 -0.8709 -2.0989
   81SLPC  H12Y 7607   1.896   2.688   4.182 -0.2349  1.1535  2.6430
   81SLPC  C313 7608   2.011   2.649   4.358 -0.2548 -0.4076  0.4625
   81SLPC  H13X 7609   2.018   2.758   4.376  1.5369 -0.7776  2.3843
   81SLPC  H13Y 7610   2.112   2.605   4.376 -0.0335 -0.3355 -0.5519
   81SLPC  C314 7611   1.908   2.586   4.458  0.3145  0.2785 -0.2812
   81SLPC  H14X 7612   1.923   2.476   4.459 -1.5330 -0.0451 -1.5528
   81SLPC  H14Y 7613   1.806   2.601   4.415  1.2666  2.6048 -1.9559
   81SLPC  C315 7614   1.907   2.639   4.601 -0.2961 -0.8556 -0.5983
   81SLPC  H15X 7615   2.011   2.630   4.639 -0.5172 -1.3494 -0.1008
   81SLPC  H15Y 7616   1.847   2.570   4.663  0.9652 -0.3738  1.2229
   81SLPC  C316 7617   1.858   2.784   4.609  0.0109 -0.2169  0.1853
   81SLPC  H16X 7618   1.775   2.793   4.536  0.6516  0.5449 -0.4649
   81SLPC  H16Y 7619   1.932   2.858   4.572 -1.1136  0.6997 -0.2884
   81SLPC  C317 7620   1.806   2.834   4.738  0.0896  0.0364  0.1797
   81SLPC  H17X 7621   1.843   2.938   4.728  0.7370 -0.3574 -2.1450
   81SLPC  H17Y 7622   1.856   2.785   4.825  0.3191 -2.7262 -1.3781
   81SLPC  C318 7623   1.647   2.832   4.754  0.2757 -0.2500  0.3803
   81SLPC  H18X 7624   1.600   2.862   4.658  0.8080 -0.3101  0.0957
   81SLPC  H18Y 7625   1.614   2.909   4.827 -1.4996 -1.3127  0.7590
   81SLPC  H18Z 7626   1.595   2.741   4.792 -0.8854  0.0437 -0.4489
   82SLPC     N 7627   2.694   3.523   1.843  0.1291  0.5882  0.3289
   82SLPC   C13 7628   2.584   3.597   1.768  0.2012 -0.2923 -0.7772
   82SLPC  H13A 7629   2.589   3.596   1.661 -0.8440  0.4846 -0.8493
   82SLPC  H13B 7630   2.490   3.559   1.805 -0.7610  1.4874 -1.2765
   82SLPC  H13C 7631   2.593   3.703   1.790 -0.0554 -0.6239  1.1561
   82SLPC   C14 7632   2.653   3.540   1.987 -0.2537 -0.4270 -0.1805
   82SLPC  H14A 7633   2.611   3.449   2.028 -3.7499 -0.4373 -3.2470
   82SLPC  H14B 7634   2.737   3.573   2.046 -1.8483  0.2928  1.8351
   82SLPC  H14C 7635   2.575   3.615   1.984 -0.5584 -0.7363 -0.0388
   82SLPC   C15 7636   2.812   3.609   1.829 -0.3551  0.3166  0.4621
   82SLPC  H15A 7637   2.882   3.594   1.910 -0.4106  0.2236  0.4924
   82SLPC  H15B 7638   2.861   3.609   1.732 -2.9276 -0.4679 -0.9200
   82SLPC  H15C 7639   2.775   3.710   1.831 -0.9811  0.0850  0.7202
   82SLPC   C12 7640   2.722   3.387   1.802  0.0857  0.2155  0.2192
   82SLPC  H12A 7641   2.805   3.351   1.860 -0.6806  0.0953  1.2695
   82SLPC  H12B 7642   2.763   3.386   1.702  1.3259  0.9054  0.7086
   82SLPC   C11 7643   2.608   3.285   1.816  0.5438  0.2793 -0.1961
   82SLPC  H11A 7644   2.637   3.198   1.753 -3.5601 -0.6524 -1.0932
   82SLPC  H11B 7645   2.522   3.331   1.764  0.1353 -1.2851 -0.9836
   82SLPC     P 7646   2.650   3.139   2.025  0.1637  0.1995 -0.0545
   82SLPC   O13 7647   2.579   3.023   1.980 -0.4402  0.1322  0.0123
   82SLPC   O14 7648   2.795   3.147   1.998 -0.2506 -0.4634 -0.1480
   82SLPC   O12 7649   2.579   3.257   1.954 -0.0391  0.1516  0.0118
   82SLPC   O11 7650   2.617   3.151   2.175 -0.0236 -0.1034  0.3973
   82SLPC    C1 7651   2.604   3.285   2.228  0.0209  0.2728  0.2100
   82SLPC    HA 7652   2.704   3.334   2.232  0.2669 -0.3007  1.9971
   82SLPC    HB 7653   2.534   3.349   2.171 -1.0922 -0.0547  1.1582
   82SLPC    C2 7654   2.549   3.274   2.371  0.8178 -0.6071 -0.2764
   82SLPC    HS 7655   2.526   3.378   2.404 -1.9741 -1.4045  0.5943
   82SLPC   O21 7656   2.644   3.213   2.453 -0.4486  0.8494 -0.6832
   82SLPC   C21 7657   2.758   3.266   2.463 -0.2424  0.0812  0.0018
   82SLPC   O22 7658   2.780   3.389   2.459  0.2136  0.0424 -0.2909
   82SLPC   C22 7659   2.859   3.158   2.506  0.4949  0.3180  0.1017
   82SLPC   H2R 7660   2.894   3.105   2.415 -0.2828 -0.8500  0.4525
   82SLPC   H2S 7661   2.948   3.196   2.559  0.7854  0.9492 -0.8228
   82SLPC    C3 7662   2.420   3.186   2.383  0.1763 -0.1128 -0.2381
   82SLPC    HX 7663   2.459   3.086   2.357  1.2647 -0.2491  1.6859
   82SLPC    HY 7664   2.343   3.210   2.307  0.4300  0.2565 -0.3799
   82SLPC   O31 7665   2.371   3.183   2.526  0.1312 -0.3138 -0.3139
   82SLPC   C31 7666   2.279   3.271   2.551 -0.1713  0.0043 -0.4727
   82SLPC   O32 7667   2.232   3.348   2.470 -0.1014 -0.0492  0.1811
   82SLPC   C32 7668   2.236   3.255   2.695  0.0334 -0.6636  0.5753
   82SLPC   H2X 7669   2.184   3.158   2.705 -0.9546 -0.3092 -0.8733
   82SLPC   H2Y 7670   2.159   3.328   2.726  0.2166 -1.6419  3.6934
   82SLPC   C23 7671   2.805   3.042   2.598 -0.4321 -0.5212  0.0403
   82SLPC   H3R 7672   2.865   2.949   2.604 -0.8695 -0.7738  0.6327
   82SLPC   H3S 7673   2.708   3.003   2.561 -0.6683  0.5791 -0.5206
   82SLPC   C24 7674   2.790   3.087   2.745 -0.6888  0.0689 -0.0274
   82SLPC   H4R 7675   2.720   3.174   2.746 -0.9114 -0.0459 -2.1108
   82SLPC   H4S 7676   2.892   3.120   2.776 -0.6802  0.2083 -0.2082
   82SLPC   C25 7677   2.746   2.976   2.849 -0.4284  0.0889 -0.3853
   82SLPC   H5R 7678   2.809   2.884   2.845 -1.2073 -0.4306 -1.3374
   82SLPC   H5S 7679   2.640   2.942   2.848 -0.2330 -0.5378 -0.7225
   82SLPC   C26 7680   2.758   3.037   2.989  0.0419 -0.1603 -0.0861
   82SLPC   H6R 7681   2.686   3.121   2.999  0.6375  0.4260 -0.6605
   82SLPC   H6S 7682   2.860   3.079   2.996  0.4991 -1.4910  2.0461
   82SLPC   C27 7683   2.763   2.930   3.101  0.8489  0.6872 -0.5834
   82SLPC   H7R 7684   2.793   2.972   3.199  2.8948 -1.1444 -0.3593
   82SLPC   H7S 7685   2.843   2.859   3.071  0.4574  0.5387 -1.3158
   82SLPC   C28 7686   2.634   2.839   3.122 -1.0795 -0.9016  0.3034
   82SLPC   H8R 7687   2.547   2.898   3.085  0.5331  1.7108  0.4033
   82SLPC   H8S 7688   2.632   2.821   3.231  1.9937 -0.2006  0.5789
   82SLPC   C29 7689   2.657   2.707   3.044  0.2606  0.5452  0.6941
   82SLPC   H9R 7690   2.675   2.710   2.936  0.4188 -1.3343  0.6364
   82SLPC  C210 7691   2.643   2.581   3.091 -0.0897  0.7302 -0.1873
   82SLPC  H10R 7692   2.671   2.497   3.026 -1.8238  0.6342 -0.8580
   82SLPC  C211 7693   2.619   2.540   3.237 -0.2136 -0.4068  0.1854
   82SLPC  H11R 7694   2.583   2.435   3.243 -1.2075 -0.0354  1.2669
   82SLPC  H11S 7695   2.531   2.597   3.275  1.6873  2.1487  1.0057
   82SLPC  C212 7696   2.741   2.566   3.333  0.2277  0.6583 -0.7942
   82SLPC  H12R 7697   2.836   2.604   3.292  0.3711  2.4503  1.0005
   82SLPC  C213 7698   2.746   2.527   3.465  0.1598  0.5486  0.2509
   82SLPC  H13R 7699   2.839   2.537   3.523  1.4088 -1.4292 -1.2831
   82SLPC  C214 7700   2.629   2.464   3.542 -0.2518  0.1396 -0.7385
   82SLPC  H14R 7701   2.631   2.353   3.541  1.4348  0.1320 -2.4548
   82SLPC  H14S 7702   2.532   2.505   3.508  0.2922  1.4201 -0.8353
   82SLPC  C215 7703   2.656   2.515   3.682  0.6096 -0.2997 -0.2031
   82SLPC  H15R 7704   2.646   2.626   3.673  1.3690 -0.2585 -0.5975
   82SLPC  H15S 7705   2.760   2.495   3.717  0.4616 -0.9435 -0.1230
   82SLPC  C216 7706   2.564   2.446   3.778 -0.6362 -0.4736  0.0813
   82SLPC  H16R 7707   2.599   2.341   3.781 -0.0294 -0.3389 -1.3004
   82SLPC  H16S 7708   2.461   2.459   3.740 -1.2018 -1.7919  1.0849
   82SLPC  C217 7709   2.563   2.492   3.917 -0.2016  0.5609 -0.4859
   82SLPC  H17R 7710   2.493   2.428   3.976  0.0076  3.6495  3.4719
   82SLPC  H17S 7711   2.527   2.596   3.925  0.3993  0.7036  0.5172
   82SLPC  C218 7712   2.702   2.476   3.981  0.2789 -0.3468  0.4552
   82SLPC  H18R 7713   2.767   2.565   3.969  0.4300 -0.2188  2.0114
   82SLPC  H18S 7714   2.759   2.390   3.939  0.9518  1.0922 -1.7406
   82SLPC  H18T 7715   2.696   2.459   4.091 -1.1386 -2.1142  0.1609
   82SLPC   C33 7716   2.358   3.270   2.788 -0.1415  0.2933  0.1857
   82SLPC   H3X 7717   2.429   3.186   2.771  0.7610  0.6449  1.9652
   82SLPC   H3Y 7718   2.323   3.251   2.891  0.5285  0.7742  0.5077
   82SLPC   C34 7719   2.414   3.411   2.807 -0.3920  0.1619 -0.0202
   82SLPC   H4X 7720   2.327   3.469   2.843 -3.7886 -3.1723 -2.0958
   82SLPC   H4Y 7721   2.446   3.453   2.709  1.6273  1.3350  1.0760
   82SLPC   C35 7722   2.532   3.426   2.902  0.5173  0.6255 -0.0123
   82SLPC   H5X 7723   2.589   3.519   2.884  0.9073  0.8664  2.1909
   82SLPC   H5Y 7724   2.600   3.340   2.884  0.2036 -0.0387  1.6937
   82SLPC   C36 7725   2.489   3.418   3.042  0.6224 -0.0581 -0.0634
   82SLPC   H6X 7726   2.570   3.396   3.115 -0.9499  2.1951  2.5279
   82SLPC   H6Y 7727   2.410   3.341   3.057 -0.0029  0.5439 -0.2487
   82SLPC   C37 7728   2.423   3.548   3.097 -0.3562  0.2223  0.8599
   82SLPC   H7X 7729   2.345   3.584   3.026  0.0393 -1.5775 -0.5721
   82SLPC   H7Y 7730   2.502   3.624   3.080 -0.2136 -0.4273 -1.9580
   82SLPC   C38 7731   2.370   3.542   3.240  0.5554 -0.8276 -0.2516
   82SLPC   H8X 7732   2.370   3.650   3.267  0.0693 -0.5135 -1.4755
   82SLPC   H8Y 7733   2.451   3.506   3.307  1.6389  3.5937  1.1642
   82SLPC   C39 7734   2.229   3.490   3.262 -0.1160  0.5028 -0.6521
   82SLPC   H9X 7735   2.222   3.381   3.244 -0.9583 -0.0024  2.2365
   82SLPC   H9Y 7736   2.166   3.543   3.187  0.0942  1.8735  0.1186
   82SLPC  C310 7737   2.187   3.532   3.405  0.4444  0.9759  0.6164
   82SLPC  H10X 7738   2.184   3.643   3.411 -0.6452  1.0306 -0.4749
   82SLPC  H10Y 7739   2.255   3.484   3.478 -0.5932 -0.5587  0.6121
   82SLPC  C311 7740   2.042   3.483   3.429 -0.6032  0.4285 -0.1109
   82SLPC  H11X 7741   1.981   3.497   3.337  0.8545  1.4408 -0.9727
   82SLPC  H11Y 7742   2.003   3.547   3.511  0.6599  1.9741 -0.6484
   82SLPC  C312 7743   2.046   3.334   3.461 -0.2548  0.1468 -0.3119
   82SLPC  H12X 7744   2.101   3.334   3.558  0.2839 -0.5441 -0.6101
   82SLPC  H12Y 7745   2.098   3.271   3.386 -0.3243  1.2483 -1.3153
   82SLPC  C313 7746   1.908   3.272   3.490 -0.4476 -0.9212  0.0488
   82SLPC  H13X 7747   1.859   3.239   3.396 -1.4624  1.1971 -0.2325
   82SLPC  H13Y 7748   1.842   3.345   3.541 -0.9019 -1.1417 -0.2188
   82SLPC  C314 7749   1.921   3.165   3.595  0.9357  0.5931  0.0002
   82SLPC  H14X 7750   1.989   3.204   3.674  3.0925 -1.3725 -0.7859
   82SLPC  H14Y 7751   1.973   3.078   3.549  2.6971  1.4297  0.3166
   82SLPC  C315 7752   1.779   3.118   3.645 -0.5111  0.3744 -0.2494
   82SLPC  H15X 7753   1.711   3.121   3.557 -2.2600  1.4373  1.0948
   82SLPC  H15Y 7754   1.731   3.185   3.718 -0.2835  1.5869 -1.1909
   82SLPC  C316 7755   1.787   2.984   3.720  0.1694  0.4597  0.2138
   82SLPC  H16X 7756   1.844   2.903   3.671 -0.2993  0.0670  0.3144
   82SLPC  H16Y 7757   1.683   2.948   3.705  0.6410 -1.6593  1.5683
   82SLPC  C317 7758   1.809   2.984   3.871 -0.2722 -0.1752  0.3104
   82SLPC  H17X 7759   1.739   3.061   3.911  1.0364  1.5402 -0.5409
   82SLPC  H17Y 7760   1.911   3.025   3.891 -0.1383  1.4904 -3.0406
   82SLPC  C318 7761   1.784   2.848   3.929  0.0372  0.7444  0.2298
   82SLPC  H18X 7762   1.858   2.781   3.880 -0.1325  1.0908 -0.5156
   82SLPC  H18Y 7763   1.683   2.809   3.904 -0.3873  1.3306  1.0130
   82SLPC  H18Z 7764   1.806   2.847   4.038 -0.9172  2.0250  0.4515
   83SLPC     N 7765   1.872   3.352   2.239 -0.2770 -0.3467  0.1354
   83SLPC   C13 7766   1.982   3.365   2.141 -0.2460  0.5870 -0.2391
   83SLPC  H13A 7767   2.029   3.458   2.170 -2.0362  1.0950  1.2117
   83SLPC  H13B 7768   2.049   3.283   2.160 -0.0540  1.0257  1.0326
   83SLPC  H13C 7769   1.952   3.371   2.037 -2.1305  0.0493  0.2481
   83SLPC   C14 7770   1.929   3.327   2.381  0.2028 -0.2080  0.5620
   83SLPC  H14A 7771   1.983   3.412   2.421 -0.4276  0.2381  0.4764
   83SLPC  H14B 7772   1.849   3.299   2.448 -1.7306  0.1569 -1.4946
   83SLPC  H14C 7773   1.995   3.242   2.370  0.7960  0.0219  2.1077
   83SLPC   C15 7774   1.793   3.227   2.205  0.3097 -0.6301  0.2150
   83SLPC  H15A 7775   1.731   3.249   2.120  1.0937  0.1615 -0.1615
   83SLPC  H15B 7776   1.862   3.148   2.182  0.1269 -1.3145  1.8501
   83SLPC  H15C 7777   1.728   3.203   2.288 -0.3728 -2.7723 -0.8687
   83SLPC   C12 7778   1.781   3.474   2.226 -0.4630  0.5659 -0.9299
   83SLPC  H12A 7779   1.697   3.470   2.294  1.0408  0.8815  1.0420
   83SLPC  H12B 7780   1.733   3.471   2.129 -1.5422  0.8454 -0.4213
   83SLPC   C11 7781   1.850   3.611   2.242  0.2725  0.8347 -0.4242
   83SLPC  H11A 7782   1.778   3.691   2.214  1.0280  2.2655  1.4317
   83SLPC  H11B 7783   1.938   3.622   2.175  1.3357 -0.2946  0.7443
   83SLPC     P 7784   1.809   3.674   2.493  0.1572 -0.5655  0.1387
   83SLPC   O13 7785   1.824   3.818   2.504 -0.3925 -0.8747 -0.6552
   83SLPC   O14 7786   1.672   3.620   2.466 -0.3410  0.0988  1.0615
   83SLPC   O12 7787   1.912   3.622   2.376  0.2122 -0.3330 -0.3743
   83SLPC   O11 7788   1.865   3.607   2.624 -0.5104 -0.3089  0.0271
   83SLPC    C1 7789   2.007   3.600   2.647 -0.8144  0.0127 -0.6951
   83SLPC    HA 7790   2.049   3.498   2.630 -0.6077 -0.0717  0.2713
   83SLPC    HB 7791   2.066   3.670   2.584 -0.4206 -0.5406 -0.9457
   83SLPC    C2 7792   2.042   3.638   2.796 -0.0725  1.0806  0.2096
   83SLPC    HS 7793   2.099   3.556   2.844 -0.4329 -0.7047 -2.2297
   83SLPC   O21 7794   1.925   3.668   2.869 -0.1981  0.1210  0.0953
   83SLPC   C21 7795   1.854   3.561   2.916  0.0258 -0.4426  0.0815
   83SLPC   O22 7796   1.897   3.449   2.926 -0.6851  0.4287  0.0828
   83SLPC   C22 7797   1.725   3.604   2.967 -0.1293  0.3917  0.0117
   83SLPC   H2R 7798   1.650   3.525   2.944 -1.0221  1.0318  0.6630
   83SLPC   H2S 7799   1.734   3.615   3.077 -0.6086 -0.5682  0.1599
   83SLPC    C3 7800   2.130   3.764   2.807  0.3713 -0.1913 -0.2913
   83SLPC    HX 7801   2.135   3.788   2.915  1.8661 -1.0093 -0.1546
   83SLPC    HY 7802   2.080   3.845   2.749  0.4191 -1.3248 -1.9814
   83SLPC   O31 7803   2.265   3.740   2.763  0.0247 -0.5633 -0.1160
   83SLPC   C31 7804   2.340   3.848   2.737  0.0204  0.3246  0.6703
   83SLPC   O32 7805   2.300   3.965   2.730  0.1072  0.1914 -0.8997
   83SLPC   C32 7806   2.489   3.801   2.742  0.0239  0.5677  0.3719
   83SLPC   H2X 7807   2.539   3.800   2.643  0.2995 -1.2478  0.4854
   83SLPC   H2Y 7808   2.493   3.695   2.778 -0.7947  0.1478 -0.7261
   83SLPC   C23 7809   1.667   3.739   2.907 -0.7757 -0.7939 -0.4738
   83SLPC   H3R 7810   1.643   3.721   2.800  0.8739 -1.2617 -0.7800
   83SLPC   H3S 7811   1.736   3.826   2.912 -3.2779  1.2638  2.4855
   83SLPC   C24 7812   1.536   3.776   2.978  0.3972 -0.3089  0.3306
   83SLPC   H4R 7813   1.485   3.853   2.915  0.2093 -1.5351 -1.0602
   83SLPC   H4S 7814   1.566   3.817   3.077  1.0437 -1.8365  0.7872
   83SLPC   C25 7815   1.421   3.664   2.987  0.1283 -0.2659 -0.1516
   83SLPC   H5R 7816   1.458   3.574   3.040  0.0017 -0.9361 -1.1812
   83SLPC   H5S 7817   1.398   3.617   2.889 -2.1216  0.3782  0.0239
   83SLPC   C26 7818   1.295   3.720   3.059  0.6018  0.1826 -0.8406
   83SLPC   H6R 7819   1.289   3.829   3.038  3.0510  0.1500 -2.0469
   83SLPC   H6S 7820   1.291   3.692   3.167 -0.6354  1.0885 -0.6381
   83SLPC   C27 7821   1.177   3.649   3.000 -0.0476 -0.3695  0.2172
   83SLPC   H7R 7822   1.194   3.540   2.997  1.6911 -0.0993 -0.8647
   83SLPC   H7S 7823   1.169   3.672   2.892  0.4753 -0.9210  0.0616
   83SLPC   C28 7824   1.039   3.691   3.065  0.2259 -0.0988  0.3512
   83SLPC   H8R 7825   1.037   3.635   3.161 -1.2718  2.3830  1.9048
   83SLPC   H8S 7826   0.955   3.644   3.009  1.2122 -1.4796  0.0004
   83SLPC   C29 7827   1.009   3.839   3.090  0.2525 -0.5152  0.4264
   83SLPC   H9R 7828   1.037   3.899   3.002 -0.9789 -3.5137 -2.2253
   83SLPC  C210 7829   1.015   3.901   3.211 -0.1828 -0.3677  0.4157
   83SLPC  H10R 7830   1.009   4.011   3.213  1.7434 -0.2395  0.7299
   83SLPC  C211 7831   1.025   3.837   3.350  0.0796 -0.3563  0.1787
   83SLPC  H11R 7832   0.986   3.733   3.351 -0.8590 -0.0491 -1.2835
   83SLPC  H11S 7833   0.951   3.884   3.419  2.3327  1.4564  1.5289
   83SLPC  C212 7834   1.162   3.857   3.420 -0.7484  0.1739  0.3259
   83SLPC  H12R 7835   1.241   3.861   3.343 -1.6243 -1.3440 -0.7116
   83SLPC  C213 7836   1.195   3.866   3.549  0.2461 -0.2451 -0.1055
   83SLPC  H13R 7837   1.298   3.890   3.580 -0.0343  0.2300  0.4971
   83SLPC  C214 7838   1.092   3.858   3.664 -0.3836  0.0466 -0.0455
   83SLPC  H14R 7839   1.030   3.766   3.657 -1.1231  0.5221  0.0938
   83SLPC  H14S 7840   1.020   3.943   3.664 -0.4688 -0.0260 -0.0093
   83SLPC  C215 7841   1.158   3.854   3.803 -0.5814  0.2478  0.3939
   83SLPC  H15R 7842   1.206   3.952   3.826 -1.5335  0.1259  3.2896
   83SLPC  H15S 7843   1.232   3.770   3.804 -2.7252 -1.7351  0.0888
   83SLPC  C216 7844   1.059   3.854   3.920  0.1282  0.0909  0.3390
   83SLPC  H16R 7845   0.989   3.774   3.889  1.4443 -0.1932 -2.1165
   83SLPC  H16S 7846   1.004   3.950   3.917 -1.5183 -0.6831  2.7187
   83SLPC  C217 7847   1.124   3.837   4.050  0.3202  0.2534 -0.6839
   83SLPC  H17R 7848   1.202   3.915   4.063  1.6380 -1.3835  1.9448
   83SLPC  H17S 7849   1.186   3.745   4.053  1.8339  1.2714  0.1827
   83SLPC  C218 7850   1.026   3.847   4.167 -0.0154 -0.3432  0.6696
   83SLPC  H18R 7851   0.946   3.773   4.148 -1.4042  1.6891 -2.2764
   83SLPC  H18S 7852   0.972   3.945   4.165 -0.3439 -0.4517  2.7328
   83SLPC  H18T 7853   1.059   3.838   4.272  0.1221 -3.2342  0.4385
   83SLPC   C33 7854   2.567   3.870   2.852  0.9860  0.4217  0.3887
   83SLPC   H3X 7855   2.503   3.870   2.943 -2.1434  0.5040 -1.6742
   83SLPC   H3Y 7856   2.577   3.976   2.820  2.3531  0.7298  1.6962
   83SLPC   C34 7857   2.706   3.817   2.868 -0.3619 -0.7403 -0.1785
   83SLPC   H4X 7858   2.771   3.854   2.785 -1.1463  0.2064 -0.3964
   83SLPC   H4Y 7859   2.705   3.706   2.867 -0.0465 -0.7585 -1.6480
   83SLPC   C35 7860   2.778   3.862   2.997 -0.0166  0.5340  0.5059
   83SLPC   H5X 7861   2.770   3.972   3.006  0.0990  0.7651 -1.6329
   83SLPC   H5Y 7862   2.888   3.849   2.992 -0.0871  0.3163 -0.7738
   83SLPC   C36 7863   2.709   3.795   3.117  0.1767  0.2033  0.2512
   83SLPC   H6X 7864   2.682   3.691   3.090 -0.0051  0.3745 -0.2456
   83SLPC   H6Y 7865   2.609   3.841   3.132 -0.1069 -0.0093 -0.8867
   83SLPC   C37 7866   2.794   3.803   3.240 -0.1506 -0.5843 -0.2941
   83SLPC   H7X 7867   2.815   3.910   3.263  0.6198 -0.4476 -1.5299
   83SLPC   H7Y 7868   2.889   3.751   3.219 -0.4284 -0.7471 -1.1889
   83SLPC   C38 7869   2.725   3.737   3.362  0.1563  0.4189 -0.1566
   83SLPC   H8X 7870   2.717   3.632   3.328  2.0983  0.7621 -1.9108
   83SLPC   H8Y 7871   2.623   3.777   3.380  0.4318  0.9539  0.2534
   83SLPC   C39 7872   2.814   3.741   3.489  0.0244  0.1854  0.2832
   83SLPC   H9X 7873   2.860   3.842   3.494  0.6666 -0.0411 -0.6092
   83SLPC   H9Y 7874   2.893   3.663   3.483  1.5362  1.5412  1.5307
   83SLPC  C310 7875   2.742   3.700   3.622  0.2420 -0.4044  0.3074
   83SLPC  H10X 7876   2.699   3.598   3.620  0.7956 -0.6291 -0.3006
   83SLPC  H10Y 7877   2.655   3.769   3.627 -0.5078 -0.9193 -3.2101
   83SLPC  C311 7878   2.831   3.691   3.749  0.3347 -0.3282 -0.5959
   83SLPC  H11X 7879   2.862   3.796   3.762 -0.0175 -0.2362 -0.4813
   83SLPC  H11Y 7880   2.926   3.639   3.723  0.2212 -0.1264 -1.4213
   83SLPC  C312 7881   2.751   3.640   3.870 -0.1228  1.0599 -0.8258
   83SLPC  H12X 7882   2.748   3.530   3.855  0.1132  0.7395  1.1063
   83SLPC  H12Y 7883   2.650   3.687   3.879 -0.9353 -0.2784 -2.4314
   83SLPC  C313 7884   2.825   3.680   3.998 -1.0434 -0.0081  0.5316
   83SLPC  H13X 7885   2.837   3.791   3.998 -1.1782  0.0238 -0.8968
   83SLPC  H13Y 7886   2.932   3.650   3.991 -0.5657  1.7134 -0.0746
   83SLPC  C314 7887   2.773   3.628   4.135 -0.1568 -0.1202  0.3901
   83SLPC  H14X 7888   2.784   3.517   4.125  1.7217  0.0808 -0.2654
   83SLPC  H14Y 7889   2.673   3.664   4.165 -1.4854 -3.6841  0.7051
   83SLPC  C315 7890   2.866   3.669   4.250 -0.0648  0.2124 -0.1462
   83SLPC  H15X 7891   2.962   3.614   4.245  0.0889  0.5812 -2.1560
   83SLPC  H15Y 7892   2.810   3.638   4.341  0.4329  2.5485  1.0464
   83SLPC  C316 7893   2.898   3.814   4.262  0.4670 -0.1684 -0.2860
   83SLPC  H16X 7894   2.804   3.874   4.256  0.7316  0.3233  0.3991
   83SLPC  H16Y 7895   2.954   3.845   4.171 -0.8114  3.0539 -0.1227
   83SLPC  C317 7896   2.983   3.838   4.392  0.1804  0.6971 -0.0097
   83SLPC  H17X 7897   3.062   3.760   4.391 -0.7785 -0.3027  0.3890
   83SLPC  H17Y 7898   2.916   3.810   4.476 -1.2981 -0.6198 -1.5482
   83SLPC  C318 7899   3.029   3.981   4.407 -0.5900 -0.0979 -0.0130
   83SLPC  H18X 7900   3.117   3.995   4.340 -0.6844  0.4952 -0.0135
   83SLPC  H18Y 7901   3.070   3.991   4.510  0.3238  3.0977 -0.5890
   83SLPC  H18Z 7902   2.954   4.061   4.391  1.9811  2.4947 -0.0057
   84SLPC     N 7903   6.907   1.379   1.656 -0.3014 -0.4236  0.3139
   84SLPC   C13 7904   6.998   1.447   1.555 -0.2547  0.4366 -0.1137
   84SLPC  H13A 7905   6.997   1.385   1.467  1.1146 -0.8146  0.6975
   84SLPC  H13B 7906   6.964   1.545   1.526 -0.4247  0.4889  0.2571
   84SLPC  H13C 7907   7.099   1.453   1.593  0.2538  0.4886 -1.4241
   84SLPC   C14 7908   6.959   1.252   1.704 -0.4251  1.1527 -0.1894
   84SLPC  H14A 7909   6.951   1.172   1.632  1.1390  0.6399  0.1704
   84SLPC  H14B 7910   7.061   1.250   1.738  0.6473 -1.7819 -3.0725
   84SLPC  H14C 7911   6.896   1.222   1.788 -0.8717  3.0708  0.2035
   84SLPC   C15 7912   6.772   1.360   1.599  0.2660 -0.1672  0.5197
   84SLPC  H15A 7913   6.727   1.451   1.563 -1.9194 -1.0597  0.8074
   84SLPC  H15B 7914   6.756   1.285   1.523  3.1460  1.1013 -1.5191
   84SLPC  H15C 7915   6.708   1.343   1.685 -0.1504  2.8537  0.9244
   84SLPC   C12 7916   6.899   1.483   1.773 -0.2785 -0.4824 -0.2450
   84SLPC  H12A 7917   6.896   1.584   1.733  0.0135 -0.1912  0.4567
   84SLPC  H12B 7918   6.995   1.472   1.820 -1.0020 -3.2183  0.7615
   84SLPC   C11 7919   6.794   1.466   1.892  0.4020  0.3040 -0.5088
   84SLPC  H11A 7920   6.697   1.500   1.850  0.4746  0.6371 -0.4080
   84SLPC  H11B 7921   6.827   1.527   1.979 -1.2663 -0.5357  0.7870
   84SLPC     P 7922   6.642   1.277   1.995 -0.1563 -0.3747 -0.1688
   84SLPC   O13 7923   6.516   1.319   1.932  0.1442 -0.0854  0.3457
   84SLPC   O14 7924   6.659   1.130   2.025 -0.1021 -0.1945  0.3717
   84SLPC   O12 7925   6.772   1.324   1.921 -0.8062  0.3322 -0.0465
   84SLPC   O11 7926   6.653   1.365   2.131 -0.4359  0.6646  0.3619
   84SLPC    C1 7927   6.718   1.307   2.245  0.0584 -0.2361 -0.4941
   84SLPC    HA 7928   6.803   1.241   2.220  1.2385 -0.7316  4.1013
   84SLPC    HB 7929   6.762   1.389   2.306 -0.2761  0.1917 -0.8133
   84SLPC    C2 7930   6.620   1.223   2.331 -0.2597  0.5843  0.4517
   84SLPC    HS 7931   6.596   1.139   2.262 -0.8156  0.8771  0.2842
   84SLPC   O21 7932   6.507   1.300   2.371 -0.3235  0.3089 -0.0060
   84SLPC   C21 7933   6.398   1.237   2.388 -0.0801 -0.2473 -0.3804
   84SLPC   O22 7934   6.370   1.119   2.372  0.0842 -0.7320  0.4771
   84SLPC   C22 7935   6.290   1.324   2.443  0.0394 -0.7132  0.4358
   84SLPC   H2R 7936   6.312   1.430   2.418  0.9027 -1.0900 -0.4658
   84SLPC   H2S 7937   6.198   1.293   2.390 -1.0211  1.5231  0.8524
   84SLPC    C3 7938   6.689   1.149   2.446 -0.0503  0.5196 -0.3257
   84SLPC    HX 7939   6.776   1.097   2.400 -0.1749 -1.7202  1.7375
   84SLPC    HY 7940   6.616   1.072   2.480  0.4727  0.7526  1.4552
   84SLPC   O31 7941   6.725   1.236   2.560  0.0653 -0.5430 -0.2089
   84SLPC   C31 7942   6.829   1.212   2.622  0.7151  0.5321  0.2295
   84SLPC   O32 7943   6.901   1.114   2.605 -0.8152  0.1888 -0.6149
   84SLPC   C32 7944   6.860   1.332   2.714 -0.4876  0.5909  0.1999
   84SLPC   H2X 7945   6.852   1.424   2.651 -1.4732  0.1073 -0.4105
   84SLPC   H2Y 7946   6.963   1.311   2.748 -1.6066 -1.2751  2.7408
   84SLPC   C23 7947   6.279   1.320   2.589 -0.4878 -0.1452 -0.8176
   84SLPC   H3R 7948   6.286   1.216   2.628  1.3678 -0.5179 -2.0031
   84SLPC   H3S 7949   6.178   1.356   2.616 -0.9522  0.6664 -3.3883
   84SLPC   C24 7950   6.379   1.407   2.671  0.2635 -0.2994 -0.2049
   84SLPC   H4R 7951   6.375   1.518   2.667  1.3107 -0.2738 -1.4020
   84SLPC   H4S 7952   6.479   1.381   2.629  0.8807 -0.6635  1.4030
   84SLPC   C25 7953   6.373   1.369   2.823  0.0033 -0.6379 -0.1868
   84SLPC   H5R 7954   6.474   1.395   2.861 -0.3257 -0.7962  0.8417
   84SLPC   H5S 7955   6.373   1.258   2.818 -2.2881 -0.6124 -2.1048
   84SLPC   C26 7956   6.251   1.420   2.904  0.6891 -0.1110  0.3045
   84SLPC   H6R 7957   6.208   1.335   2.962  0.5625  0.2154  0.6894
   84SLPC   H6S 7958   6.170   1.457   2.838  2.2591  0.0747 -1.6300
   84SLPC   C27 7959   6.280   1.544   2.996 -0.9108  0.0470  0.4406
   84SLPC   H7R 7960   6.194   1.580   3.057  1.2039  3.1345  1.9048
   84SLPC   H7S 7961   6.304   1.633   2.934 -0.0818 -0.1399  0.4764
   84SLPC   C28 7962   6.399   1.531   3.092  0.2039 -0.2945 -0.1240
   84SLPC   H8R 7963   6.423   1.632   3.133 -0.3895 -0.0762 -0.3037
   84SLPC   H8S 7964   6.488   1.492   3.038  2.1987  1.2387  1.8720
   84SLPC   C29 7965   6.378   1.431   3.204  0.4353  0.0175  0.0994
   84SLPC   H9R 7966   6.370   1.328   3.168  0.9657 -0.4048  1.1347
   84SLPC  C210 7967   6.367   1.468   3.333 -0.1020  0.4295  0.0337
   84SLPC  H10R 7968   6.356   1.382   3.401 -0.2648  1.4440  1.3341
   84SLPC  C211 7969   6.381   1.602   3.390 -0.1247  0.2190 -0.1833
   84SLPC  H11R 7970   6.357   1.684   3.319  0.8365  1.0718  0.4525
   84SLPC  H11S 7971   6.488   1.628   3.400 -0.3700  1.4846 -0.6807
   84SLPC  C212 7972   6.307   1.618   3.520 -0.1879  0.3088  0.3740
   84SLPC  H12R 7973   6.198   1.616   3.509 -0.4428  0.5395  2.5345
   84SLPC  C213 7974   6.360   1.623   3.646  0.3288  0.2773 -0.8954
   84SLPC  H13R 7975   6.289   1.628   3.730 -0.9136  0.3481 -1.9040
   84SLPC  C214 7976   6.505   1.612   3.681 -0.0586  0.2588 -0.7974
   84SLPC  H14R 7977   6.568   1.609   3.590  0.0086  0.0032 -0.7438
   84SLPC  H14S 7978   6.527   1.513   3.728 -0.7380  0.2384 -0.5132
   84SLPC  C215 7979   6.563   1.708   3.788 -0.2700 -0.0505 -0.9626
   84SLPC  H15R 7980   6.674   1.709   3.788 -0.2365  0.2612  1.3693
   84SLPC  H15S 7981   6.540   1.674   3.891 -1.6014 -2.8636 -2.0648
   84SLPC  C216 7982   6.523   1.850   3.758 -0.6172  0.5112  0.6328
   84SLPC  H16R 7983   6.414   1.868   3.769 -0.0863  2.9537  3.2249
   84SLPC  H16S 7984   6.560   1.874   3.656  1.0300 -1.2469  0.7695
   84SLPC  C217 7985   6.580   1.965   3.841  0.3135 -0.5546  0.4712
   84SLPC  H17R 7986   6.574   1.942   3.950  0.8579 -0.8899  0.4329
   84SLPC  H17S 7987   6.515   2.053   3.824 -0.7341 -1.4813 -0.4780
   84SLPC  C218 7988   6.728   1.988   3.816  0.2940  1.3994  0.0240
   84SLPC  H18R 7989   6.775   1.888   3.825 -0.5472  0.7956 -1.8160
   84SLPC  H18S 7990   6.760   2.064   3.890 -1.1701  0.5343  1.6074
   84SLPC  H18T 7991   6.750   2.019   3.712 -0.2865 -1.1601 -0.9360
   84SLPC   C33 7992   6.761   1.318   2.832 -0.3435  0.6556 -0.5808
   84SLPC   H3X 7993   6.658   1.338   2.795 -0.8132  2.2708  1.4444
   84SLPC   H3Y 7994   6.801   1.400   2.894 -1.4923  1.7131 -1.1811
   84SLPC   C34 7995   6.778   1.196   2.922  0.8868 -0.1065  0.5139
   84SLPC   H4X 7996   6.887   1.195   2.946  1.0987  3.5183  0.2221
   84SLPC   H4Y 7997   6.744   1.099   2.880 -1.4367  0.4994  0.8995
   84SLPC   C35 7998   6.705   1.217   3.062 -0.4268  0.5189  0.2641
   84SLPC   H5X 7999   6.714   1.131   3.131  0.7582  0.4863  0.0854
   84SLPC   H5Y 8000   6.595   1.233   3.051 -0.8072 -0.7956  1.7867
   84SLPC   C36 8001   6.777   1.332   3.142  0.3731 -0.2915 -0.1968
   84SLPC   H6X 8002   6.727   1.423   3.102 -2.8463 -1.8130  0.0465
   84SLPC   H6Y 8003   6.884   1.328   3.112  1.2475 -0.7455  2.6382
   84SLPC   C37 8004   6.757   1.314   3.292 -0.6137  0.0862  0.6920
   84SLPC   H7X 8005   6.812   1.221   3.319  0.4574 -0.3926 -2.6632
   84SLPC   H7Y 8006   6.649   1.296   3.309 -0.5439 -0.8158  0.2350
   84SLPC   C38 8007   6.791   1.428   3.383  0.0895 -0.5722 -0.5139
   84SLPC   H8X 8008   6.721   1.514   3.376 -1.3553 -1.6477  0.2109
   84SLPC   H8Y 8009   6.890   1.474   3.365  0.6258 -0.9909  1.1713
   84SLPC   C39 8010   6.790   1.382   3.525 -0.0279  0.3611 -0.4836
   84SLPC   H9X 8011   6.718   1.298   3.537  1.2230 -0.6464  0.2777
   84SLPC   H9Y 8012   6.755   1.467   3.588  2.7516 -0.0047  1.7542
   84SLPC  C310 8013   6.929   1.336   3.577  0.5540  0.3371 -0.2167
   84SLPC  H10X 8014   6.997   1.410   3.529 -0.4721 -0.1265 -2.4896
   84SLPC  H10Y 8015   6.961   1.234   3.547  0.7307 -0.6012  2.8158
   84SLPC  C311 8016   6.957   1.348   3.726 -0.1114  0.3566  0.0359
   84SLPC  H11X 8017   6.948   1.452   3.763  0.3305 -0.7024  3.4350
   84SLPC  H11Y 8018   7.061   1.313   3.743  0.3091  1.2484 -0.5770
   84SLPC  C312 8019   6.863   1.271   3.822 -0.4024 -0.4725  0.2160
   84SLPC  H12X 8020   6.850   1.166   3.787 -1.3520 -0.3031  0.0293
   84SLPC  H12Y 8021   6.762   1.318   3.822 -0.2441 -0.1168 -0.6318
   84SLPC  C313 8022   6.910   1.277   3.975 -0.2374  0.7407  0.2704
   84SLPC  H13X 8023   7.016   1.243   3.977 -1.7356 -4.9220 -0.9349
   84SLPC  H13Y 8024   6.851   1.207   4.038  0.0405  0.0369 -0.2335
   84SLPC  C314 8025   6.895   1.417   4.038  0.1200  0.3953  0.3729
   84SLPC  H14X 8026   6.958   1.482   3.974  0.2372  1.0238  1.1103
   84SLPC  H14Y 8027   6.939   1.427   4.140 -1.2671  1.3435  0.9132
   84SLPC  C315 8028   6.758   1.475   4.054  0.1709  0.7852  0.2304
   84SLPC  H15X 8029   6.688   1.391   4.036  0.0265  0.9389  0.0724
   84SLPC  H15Y 8030   6.741   1.548   3.972 -0.6535 -0.7152 -0.9990
   84SLPC  C316 8031   6.726   1.534   4.190 -0.7870  0.2497 -0.7298
   84SLPC  H16X 8032   6.806   1.610   4.204  0.8541 -1.6628  0.9265
   84SLPC  H16Y 8033   6.738   1.456   4.269  3.0189 -0.9376 -2.2506
   84SLPC  C317 8034   6.591   1.606   4.189  0.0771  0.6897 -0.4499
   84SLPC  H17X 8035   6.515   1.526   4.187  0.8227 -0.3109  3.3819
   84SLPC  H17Y 8036   6.586   1.673   4.101  0.9844 -1.2484 -2.0312
   84SLPC  C318 8037   6.561   1.675   4.322  0.2771  0.0094  0.1601
   84SLPC  H18X 8038   6.462   1.726   4.314  0.2217 -0.0542  0.4313
   84SLPC  H18Y 8039   6.643   1.749   4.329  0.0177  0.2024  1.5052
   84SLPC  H18Z 8040   6.565   1.605   4.409 -0.1026  1.6165  1.5143
   85SLPC     N 8041   1.917   2.717   2.190 -0.3698  0.4006  0.3284
   85SLPC   C13 8042   2.046   2.709   2.116 -0.0921 -0.0457  0.1844
   85SLPC  H13A 8043   2.120   2.775   2.158  0.0442 -0.5848  0.7991
   85SLPC  H13B 8044   2.092   2.612   2.122  1.7005  0.8260  1.2135
   85SLPC  H13C 8045   2.041   2.738   2.012  2.2524  0.0665  0.0632
   85SLPC   C14 8046   1.815   2.624   2.127 -0.3745  0.3870  0.4564
   85SLPC  H14A 8047   1.846   2.522   2.141 -0.4004 -0.2412 -3.1332
   85SLPC  H14B 8048   1.717   2.633   2.173 -1.2798 -2.5258 -0.6423
   85SLPC  H14C 8049   1.797   2.629   2.021  1.7053  0.8366  0.0923
   85SLPC   C15 8050   1.868   2.860   2.184 -0.2154 -0.4659  0.0085
   85SLPC  H15A 8051   1.774   2.875   2.235 -1.3107 -0.2043 -1.9898
   85SLPC  H15B 8052   1.939   2.932   2.222 -1.3735  1.6009 -1.5589
   85SLPC  H15C 8053   1.851   2.889   2.082 -1.1045 -1.4079 -0.1320
   85SLPC   C12 8054   1.947   2.678   2.330 -0.2422  0.6932 -0.7855
   85SLPC  H12A 8055   2.026   2.731   2.380  3.7632 -4.2504 -1.1002
   85SLPC  H12B 8056   1.986   2.578   2.323  1.5439  1.2881  0.0172
   85SLPC   C11 8057   1.823   2.666   2.431  0.6645 -0.3623 -0.0012
   85SLPC  H11A 8058   1.778   2.766   2.416  1.4932  0.0341  0.1027
   85SLPC  H11B 8059   1.864   2.660   2.534  1.1546 -1.5586 -0.2400
   85SLPC     P 8060   1.777   2.416   2.445  0.1711 -0.1571 -0.2745
   85SLPC   O13 8061   1.681   2.324   2.387  0.6589  0.0343 -0.2680
   85SLPC   O14 8062   1.919   2.392   2.406 -0.0948 -0.3159  0.1614
   85SLPC   O12 8063   1.737   2.559   2.392  0.1175  0.3728  0.8413
   85SLPC   O11 8064   1.775   2.429   2.597  0.8171 -0.2059 -0.2036
   85SLPC    C1 8065   1.642   2.447   2.657 -0.3369  0.2602  0.5650
   85SLPC    HA 8066   1.552   2.432   2.593 -2.0128 -0.1959  2.9186
   85SLPC    HB 8067   1.637   2.368   2.734  3.9633 -0.8462 -0.0151
   85SLPC    C2 8068   1.611   2.584   2.720  0.4400  0.1230 -0.4125
   85SLPC    HS 8069   1.600   2.659   2.639 -2.2075  0.9069  0.5609
   85SLPC   O21 8070   1.713   2.619   2.814  0.1228 -0.2053  0.3040
   85SLPC   C21 8071   1.717   2.751   2.851 -0.4483  0.3720  0.1828
   85SLPC   O22 8072   1.654   2.841   2.800 -0.1429 -0.1773  0.3264
   85SLPC   C22 8073   1.843   2.768   2.941 -0.0429 -0.0693  0.6335
   85SLPC   H2R 8074   1.846   2.683   3.013 -0.2207  0.3559  1.1472
   85SLPC   H2S 8075   1.928   2.773   2.869 -0.0265  0.5469  0.6909
   85SLPC    C3 8076   1.479   2.573   2.801 -0.1527  0.1171  0.0479
   85SLPC    HX 8077   1.494   2.484   2.866 -1.3063 -1.0703 -1.2476
   85SLPC    HY 8078   1.399   2.536   2.733 -2.1309  1.6320  1.4011
   85SLPC   O31 8079   1.443   2.687   2.880  0.8704 -0.1144 -0.4528
   85SLPC   C31 8080   1.339   2.767   2.842 -0.0614  0.3097  0.4134
   85SLPC   O32 8081   1.269   2.749   2.743  0.4252 -0.8595  0.7723
   85SLPC   C32 8082   1.333   2.892   2.923  0.1806 -0.0590 -0.4864
   85SLPC   H2X 8083   1.272   2.970   2.873 -1.7895 -0.3759  1.3117
   85SLPC   H2Y 8084   1.435   2.933   2.937  0.8709 -1.9765  0.4537
   85SLPC   C23 8085   1.843   2.894   3.025 -0.9174 -0.1727 -0.6272
   85SLPC   H3R 8086   1.845   2.988   2.967  0.4462  0.0294 -0.3035
   85SLPC   H3S 8087   1.938   2.886   3.082  0.9173  0.9866 -3.3039
   85SLPC   C24 8088   1.731   2.926   3.121 -0.2196  0.2620 -0.0010
   85SLPC   H4R 8089   1.633   2.937   3.071  0.2751 -3.6893 -2.2650
   85SLPC   H4S 8090   1.755   3.014   3.184 -0.6020 -0.5278  1.2870
   85SLPC   C25 8091   1.701   2.800   3.211 -0.0490  0.6544  0.3890
   85SLPC   H5R 8092   1.656   2.721   3.147  0.5237 -1.1027  2.0561
   85SLPC   H5S 8093   1.798   2.769   3.255  0.7423  1.1865 -0.9375
   85SLPC   C26 8094   1.604   2.839   3.325  0.4526  0.5602 -0.4853
   85SLPC   H6R 8095   1.527   2.914   3.296 -0.6515  0.3743  1.7501
   85SLPC   H6S 8096   1.658   2.883   3.412 -1.2685 -0.3589  1.1221
   85SLPC   C27 8097   1.528   2.714   3.370  0.5463 -0.4729  0.1144
   85SLPC   H7R 8098   1.589   2.643   3.430  0.7983  0.5865  1.1609
   85SLPC   H7S 8099   1.504   2.653   3.281  0.1871 -1.7814  1.0795
   85SLPC   C28 8100   1.404   2.747   3.452  0.2679  0.1160  0.5148
   85SLPC   H8R 8101   1.328   2.800   3.391 -1.0769 -1.1543  1.0342
   85SLPC   H8S 8102   1.430   2.823   3.529 -0.5810 -0.0144  0.9485
   85SLPC   C29 8103   1.338   2.627   3.523 -1.0416 -0.5351 -0.1591
   85SLPC   H9R 8104   1.341   2.524   3.484 -1.2923 -0.3768 -0.5983
   85SLPC  C210 8105   1.280   2.642   3.643  0.2337 -0.1246  1.0046
   85SLPC  H10R 8106   1.238   2.549   3.685 -0.6904  0.1742  0.7802
   85SLPC  C211 8107   1.259   2.764   3.729  0.2347 -0.2549  0.0630
   85SLPC  H11R 8108   1.165   2.764   3.789 -0.7136  0.1274 -1.3629
   85SLPC  H11S 8109   1.245   2.851   3.661 -0.1440 -1.9895 -2.1924
   85SLPC  C212 8110   1.386   2.788   3.812 -0.1735  0.2550 -0.0446
   85SLPC  H12R 8111   1.461   2.860   3.775 -0.0056  0.2387  0.2617
   85SLPC  C213 8112   1.413   2.706   3.912  0.3622  0.0731  0.0840
   85SLPC  H13R 8113   1.513   2.724   3.954  2.1458  1.4539 -4.1976
   85SLPC  C214 8114   1.332   2.585   3.971 -0.2485 -0.6071 -0.2104
   85SLPC  H14R 8115   1.379   2.487   3.948  0.4470 -0.3988  0.2930
   85SLPC  H14S 8116   1.232   2.583   3.922 -0.5391 -2.5814  0.3828
   85SLPC  C215 8117   1.315   2.595   4.128 -0.6423 -0.2424  0.3768
   85SLPC  H15R 8118   1.247   2.681   4.147 -0.2039 -0.0855  1.2734
   85SLPC  H15S 8119   1.410   2.627   4.174 -0.5121  0.6191 -0.4560
   85SLPC  C216 8120   1.249   2.470   4.185  0.5823  0.4335  0.3071
   85SLPC  H16R 8121   1.324   2.390   4.205 -0.6164 -0.5407  0.9826
   85SLPC  H16S 8122   1.187   2.416   4.111 -0.5932  0.5192  1.2094
   85SLPC  C217 8123   1.157   2.489   4.310  0.1874 -0.2030 -0.0014
   85SLPC  H17R 8124   1.217   2.573   4.352  1.9224 -0.4884 -1.7411
   85SLPC  H17S 8125   1.164   2.402   4.379 -0.2568 -0.0531  0.2334
   85SLPC  C218 8126   1.008   2.502   4.262  0.3732  0.0045  0.3409
   85SLPC  H18R 8127   0.963   2.405   4.235 -2.0143  1.1077  0.1366
   85SLPC  H18S 8128   0.994   2.557   4.166 -0.3985 -1.8831 -0.6621
   85SLPC  H18T 8129   0.943   2.556   4.334 -2.2917  1.1606 -2.7171
   85SLPC   C33 8130   1.265   2.869   3.064  0.9281  0.5172  0.6210
   85SLPC   H3X 8131   1.286   2.955   3.132 -0.3509  0.8132  0.6700
   85SLPC   H3Y 8132   1.308   2.777   3.108  2.3208  1.6127  1.6441
   85SLPC   C34 8133   1.108   2.857   3.048 -0.0445 -0.4720  0.8567
   85SLPC   H4X 8134   1.086   2.796   2.958 -0.8403 -1.6163  1.7803
   85SLPC   H4Y 8135   1.066   2.959   3.042 -0.9733 -0.8579  0.5599
   85SLPC   C35 8136   1.048   2.785   3.174 -0.4192 -1.1608 -0.3085
   85SLPC   H5X 8137   1.113   2.696   3.187  1.3995  0.0243 -0.8396
   85SLPC   H5Y 8138   0.941   2.761   3.156 -0.6878  0.3117 -0.8838
   85SLPC   C36 8139   1.050   2.877   3.300  0.4129 -0.3155 -0.3025
   85SLPC   H6X 8140   1.016   2.978   3.269 -1.3787 -0.6840  0.3508
   85SLPC   H6Y 8141   1.154   2.888   3.337  1.7917 -2.5692 -3.0896
   85SLPC   C37 8142   0.943   2.838   3.405 -0.4977  0.1563  0.8068
   85SLPC   H7X 8143   0.846   2.838   3.351 -0.0007 -1.3828 -0.1455
   85SLPC   H7Y 8144   0.941   2.914   3.486  1.9978  1.4936 -0.2795
   85SLPC   C38 8145   0.972   2.710   3.472 -0.7785  0.3068  0.7182
   85SLPC   H8X 8146   1.064   2.723   3.534 -0.3607 -0.6765  0.3251
   85SLPC   H8Y 8147   1.013   2.628   3.410 -1.4206  0.4733  0.0739
   85SLPC   C39 8148   0.869   2.655   3.580  0.4297  0.2015 -0.0893
   85SLPC   H9X 8149   0.792   2.603   3.519 -0.4023  1.6207 -0.2805
   85SLPC   H9Y 8150   0.824   2.736   3.641 -1.2245 -0.8530  0.1685
   85SLPC  C310 8151   0.934   2.549   3.677 -0.3835  0.0177  0.5079
   85SLPC  H10X 8152   1.015   2.600   3.734 -1.2551  0.9765  0.9152
   85SLPC  H10Y 8153   0.988   2.477   3.611  0.9325  2.6700 -1.5111
   85SLPC  C311 8154   0.851   2.475   3.777  1.3823  0.6671 -0.3526
   85SLPC  H11X 8155   0.905   2.399   3.838 -1.9404 -1.8869 -0.3119
   85SLPC  H11Y 8156   0.773   2.414   3.726  1.7578 -0.3308  0.2191
   85SLPC  C312 8157   0.772   2.557   3.872  0.2461  0.1920  0.2981
   85SLPC  H12X 8158   0.699   2.617   3.814  2.4651  0.6697 -2.2001
   85SLPC  H12Y 8159   0.842   2.627   3.924 -0.4405  0.1470  1.3066
   85SLPC  C313 8160   0.696   2.482   3.987  0.1807  0.1226  0.1943
   85SLPC  H13X 8161   0.772   2.408   4.020 -0.1706 -1.5107 -2.3732
   85SLPC  H13Y 8162   0.608   2.427   3.947 -1.2244  1.7021  0.9519
   85SLPC  C314 8163   0.656   2.575   4.100 -0.1502  0.1473  0.0797
   85SLPC  H14X 8164   0.581   2.651   4.071 -0.6200  0.1666  1.2849
   85SLPC  H14Y 8165   0.749   2.633   4.118  0.4071 -0.0576 -1.9399
   85SLPC  C315 8166   0.627   2.504   4.232  0.1073  0.0895  0.1901
   85SLPC  H15X 8167   0.712   2.433   4.249  0.9902  0.8736 -0.8371
   85SLPC  H15Y 8168   0.528   2.454   4.220  1.1237 -1.9120 -0.4373
   85SLPC  C316 8169   0.621   2.605   4.343 -0.0657  0.4117  0.4019
   85SLPC  H16X 8170   0.529   2.665   4.326 -0.9497 -1.4628 -2.1455
   85SLPC  H16Y 8171   0.710   2.671   4.336 -0.6505  1.1112 -0.6842
   85SLPC  C317 8172   0.606   2.552   4.483 -0.2744  0.6483 -0.3884
   85SLPC  H17X 8173   0.517   2.485   4.474  1.7158 -1.9158 -4.0033
   85SLPC  H17Y 8174   0.570   2.629   4.554  0.4138  1.3306 -0.7705
   85SLPC  C318 8175   0.731   2.491   4.540 -0.0456  0.2422  0.7662
   85SLPC  H18X 8176   0.717   2.463   4.647 -2.5205  0.5956  0.5906
   85SLPC  H18Y 8177   0.816   2.562   4.526  0.0287 -0.1835 -1.2117
   85SLPC  H18Z 8178   0.758   2.406   4.475 -0.5359  2.2944 -2.3235
   86SLPC     N 8179   2.619   1.737   1.817 -0.2624 -0.1847 -0.9818
   86SLPC   C13 8180   2.755   1.682   1.798 -0.2752 -0.1512 -0.0385
   86SLPC  H13A 8181   2.777   1.581   1.829  1.4603  0.2318  0.0534
   86SLPC  H13B 8182   2.786   1.699   1.697 -1.2472 -1.7717 -0.6544
   86SLPC  H13C 8183   2.817   1.740   1.865 -1.8634  1.3818  0.1856
   86SLPC   C14 8184   2.514   1.651   1.764  0.2397 -0.3299  0.0232
   86SLPC  H14A 8185   2.516   1.553   1.809 -1.0220 -0.3210  0.1481
   86SLPC  H14B 8186   2.410   1.680   1.769  0.7849  1.8649 -0.3690
   86SLPC  H14C 8187   2.536   1.633   1.660  2.2518 -2.8806  0.7904
   86SLPC   C15 8188   2.609   1.873   1.746 -0.2226 -0.8748 -0.0478
   86SLPC  H15A 8189   2.652   1.952   1.807 -0.1499 -1.4194  0.6134
   86SLPC  H15B 8190   2.654   1.868   1.648 -0.0742  0.4698 -0.0741
   86SLPC  H15C 8191   2.506   1.900   1.726 -0.2777  0.8461  2.1610
   86SLPC   C12 8192   2.584   1.774   1.959  0.2005 -0.5886  0.0536
   86SLPC  H12A 8193   2.560   1.680   2.006 -0.4814 -0.3627  0.1557
   86SLPC  H12B 8194   2.495   1.835   1.958  0.0031 -0.8827 -0.2922
   86SLPC   C11 8195   2.686   1.861   2.044  0.3454 -0.4589  0.0312
   86SLPC  H11A 8196   2.786   1.814   2.035  0.6380  0.5186 -2.6927
   86SLPC  H11B 8197   2.670   1.862   2.154  1.4884  1.2397  0.2047
   86SLPC     P 8198   2.616   2.112   2.039 -0.4733  0.1597 -0.3182
   86SLPC   O13 8199   2.658   2.245   1.977 -0.2669  0.7405  0.2151
   86SLPC   O14 8200   2.475   2.067   2.025 -0.5443 -0.0333 -0.5989
   86SLPC   O12 8201   2.704   1.992   1.983 -0.3691 -0.0368 -0.0586
   86SLPC   O11 8202   2.649   2.120   2.192 -0.5058 -0.0511  0.6354
   86SLPC    C1 8203   2.774   2.152   2.248 -0.4354  0.5693 -0.6889
   86SLPC    HA 8204   2.855   2.171   2.175 -0.1112 -1.7156 -0.9841
   86SLPC    HB 8205   2.764   2.240   2.316 -1.0177  0.4040 -0.5519
   86SLPC    C2 8206   2.828   2.029   2.331  0.8123 -0.3480 -0.9938
   86SLPC    HS 8207   2.796   1.938   2.276 -0.1792  0.6898 -2.1627
   86SLPC   O21 8208   2.782   2.045   2.468  0.0438 -0.7674  0.2038
   86SLPC   C21 8209   2.767   1.925   2.529  0.4928 -0.0832 -0.3952
   86SLPC   O22 8210   2.777   1.818   2.475 -0.2253  0.4824  0.0424
   86SLPC   C22 8211   2.714   1.945   2.674 -0.2599 -0.9243  0.3019
   86SLPC   H2R 8212   2.769   2.030   2.721 -0.9944 -0.6813  0.7379
   86SLPC   H2S 8213   2.607   1.973   2.668 -0.1250 -0.7616 -1.9838
   86SLPC    C3 8214   2.985   2.030   2.341  0.2571 -0.3873 -0.0685
   86SLPC    HX 8215   3.017   2.031   2.234 -0.0144 -1.0770 -0.1600
   86SLPC    HY 8216   3.008   1.931   2.386 -2.0869 -1.1954 -0.5329
   86SLPC   O31 8217   3.043   2.148   2.406 -0.2587  0.0543 -0.4882
   86SLPC   C31 8218   3.062   2.143   2.538 -0.9874  0.0242  0.4810
   86SLPC   O32 8219   3.030   2.043   2.603  0.0223  0.1791  0.1308
   86SLPC   C32 8220   3.116   2.280   2.584 -0.2024  0.5139  0.0067
   86SLPC   H2X 8221   3.071   2.361   2.522  2.9090  3.4890  1.2719
   86SLPC   H2Y 8222   3.226   2.282   2.568 -0.3219 -0.2707 -0.9575
   86SLPC   C23 8223   2.751   1.820   2.755  0.1319 -0.5723  0.1253
   86SLPC   H3R 8224   2.855   1.799   2.722 -0.6252 -2.7319 -1.0928
   86SLPC   H3S 8225   2.695   1.734   2.713 -0.0623  0.6612 -2.2951
   86SLPC   C24 8226   2.740   1.852   2.911 -0.2884  0.1092  0.2294
   86SLPC   H4R 8227   2.745   1.755   2.966  3.2634 -0.0143 -0.0827
   86SLPC   H4S 8228   2.650   1.913   2.930 -1.0465 -0.4594 -1.3645
   86SLPC   C25 8229   2.864   1.940   2.948  0.7796  0.2930 -0.3197
   86SLPC   H5R 8230   2.847   2.045   2.917 -0.8937  0.0239 -0.4206
   86SLPC   H5S 8231   2.958   1.900   2.903  0.6186 -1.3822  0.7293
   86SLPC   C26 8232   2.903   1.933   3.094 -0.0076 -0.6133  0.7750
   86SLPC   H6R 8233   3.008   1.967   3.107 -0.6282  2.5876 -1.3269
   86SLPC   H6S 8234   2.878   1.838   3.146 -1.8231 -0.0963  0.9340
   86SLPC   C27 8235   2.823   2.029   3.177 -0.3906  0.4862 -0.5164
   86SLPC   H7R 8236   2.724   1.980   3.190  1.1103 -2.9464 -0.8759
   86SLPC   H7S 8237   2.818   2.129   3.130  0.6529 -0.1757 -2.1463
   86SLPC   C28 8238   2.885   2.043   3.318  0.7530 -0.3116 -0.0646
   86SLPC   H8R 8239   2.995   2.050   3.315  0.7880 -0.9044 -0.2395
   86SLPC   H8S 8240   2.866   1.943   3.363  1.3117 -0.5754 -0.4138
   86SLPC   C29 8241   2.831   2.156   3.401  0.9760 -0.2456 -0.2401
   86SLPC   H9R 8242   2.784   2.237   3.344  1.2904  0.5602  0.6146
   86SLPC  C210 8243   2.835   2.163   3.534  0.6536  0.2428 -0.4154
   86SLPC  H10R 8244   2.793   2.252   3.583 -1.0945 -0.1179 -1.2059
   86SLPC  C211 8245   2.896   2.060   3.631 -0.1279 -0.0400  0.4325
   86SLPC  H11R 8246   2.932   2.121   3.717  0.3348 -1.6572  1.4507
   86SLPC  H11S 8247   2.983   2.019   3.575  0.9227  1.1004  1.1597
   86SLPC  C212 8248   2.800   1.945   3.663 -0.1588 -0.1890 -0.4863
   86SLPC  H12R 8249   2.766   1.872   3.588 -0.0256 -0.4333 -0.3123
   86SLPC  C213 8250   2.762   1.929   3.792 -0.0641  0.5875  0.2209
   86SLPC  H13R 8251   2.685   1.853   3.813  0.7842 -0.4955 -0.5520
   86SLPC  C214 8252   2.802   2.017   3.904  0.2337 -0.4983 -0.6370
   86SLPC  H14R 8253   2.809   2.122   3.868  0.1015 -0.2552  0.0245
   86SLPC  H14S 8254   2.895   1.973   3.945  0.2279 -0.2127 -0.3119
   86SLPC  C215 8255   2.700   2.030   4.022 -0.0196  0.1013  0.0004
   86SLPC  H15R 8256   2.662   1.932   4.059 -0.1362  0.4200  0.7329
   86SLPC  H15S 8257   2.605   2.084   3.997 -0.5331 -1.1849 -0.9678
   86SLPC  C216 8258   2.757   2.101   4.150 -0.1142  0.3405 -0.6089
   86SLPC  H16R 8259   2.678   2.090   4.227  0.2028 -0.6145 -0.4105
   86SLPC  H16S 8260   2.774   2.207   4.121 -0.6055  0.1711 -1.5608
   86SLPC  C217 8261   2.886   2.038   4.212 -0.9788 -0.0913  0.3036
   86SLPC  H17R 8262   2.974   2.062   4.148 -1.2351  0.4139  0.1346
   86SLPC  H17S 8263   2.891   1.927   4.214  0.6496 -0.0475  0.2415
   86SLPC  C218 8264   2.912   2.086   4.356 -0.2308 -0.0270 -0.2315
   86SLPC  H18R 8265   3.014   2.051   4.384 -0.2577 -1.8751 -2.1515
   86SLPC  H18S 8266   2.851   2.028   4.428 -0.1156 -0.6161 -0.6024
   86SLPC  H18T 8267   2.904   2.194   4.379 -1.3739 -0.3173  0.8268
   86SLPC   C33 8268   3.081   2.319   2.727 -0.6448  0.7552  0.1578
   86SLPC   H3X 8269   3.114   2.251   2.808 -0.0690 -1.0856 -1.5536
   86SLPC   H3Y 8270   2.971   2.316   2.734 -0.7415  2.9024  0.2998
   86SLPC   C34 8271   3.113   2.473   2.748  0.1095  0.0938 -0.4336
   86SLPC   H4X 8272   3.092   2.524   2.652  0.4737 -1.1496 -1.1876
   86SLPC   H4Y 8273   3.220   2.482   2.775 -0.4454 -2.3234  3.4314
   86SLPC   C35 8274   3.037   2.527   2.872  0.1235  0.1786 -0.1920
   86SLPC   H5X 8275   2.933   2.544   2.836 -0.1551 -0.6486  0.1983
   86SLPC   H5Y 8276   3.085   2.624   2.897  0.5006  0.8728 -3.2328
   86SLPC   C36 8277   3.035   2.433   2.995 -0.2293 -0.2962 -0.5403
   86SLPC   H6X 8278   3.002   2.333   2.960  0.6903 -1.0148  0.5633
   86SLPC   H6Y 8279   2.960   2.467   3.069  1.4516  1.3971  0.4768
   86SLPC   C37 8280   3.168   2.394   3.066 -0.1508 -0.5456 -0.2008
   86SLPC   H7X 8281   3.243   2.471   3.039 -1.2039  1.5549  2.4148
   86SLPC   H7Y 8282   3.204   2.298   3.023  1.1407 -0.8118  1.3643
   86SLPC   C38 8283   3.136   2.377   3.212 -0.0864  0.6598 -0.5155
   86SLPC   H8X 8284   3.093   2.275   3.222  1.1758  0.0426 -1.1317
   86SLPC   H8Y 8285   3.056   2.444   3.250 -0.7110 -0.3208 -0.0850
   86SLPC   C39 8286   3.258   2.389   3.304 -0.7270 -0.0180  1.0767
   86SLPC   H9X 8287   3.304   2.490   3.306  3.0918 -1.4968  4.7226
   86SLPC   H9Y 8288   3.342   2.318   3.283 -0.6660  0.2469  0.3765
   86SLPC  C310 8289   3.222   2.378   3.449  0.4605 -0.1518  0.4290
   86SLPC  H10X 8290   3.179   2.276   3.459  1.8810 -0.8479 -0.1809
   86SLPC  H10Y 8291   3.148   2.453   3.485 -0.1956  0.1787 -1.5038
   86SLPC  C311 8292   3.343   2.394   3.541 -1.0639  0.4871 -0.4984
   86SLPC  H11X 8293   3.379   2.499   3.542  1.9047 -0.4448  1.1188
   86SLPC  H11Y 8294   3.431   2.328   3.527 -0.3102  0.8162  2.2693
   86SLPC  C312 8295   3.317   2.386   3.693 -0.0126 -1.2136  0.1249
   86SLPC  H12X 8296   3.250   2.474   3.706  0.5042 -0.5095 -1.7123
   86SLPC  H12Y 8297   3.409   2.384   3.755  0.4408 -1.4340 -0.5452
   86SLPC  C313 8298   3.232   2.269   3.736  0.1881  0.1994  0.2398
   86SLPC  H13X 8299   3.276   2.171   3.711  2.0948  0.7605  1.1752
   86SLPC  H13Y 8300   3.138   2.278   3.677  0.5122  0.0754 -0.2937
   86SLPC  C314 8301   3.193   2.270   3.888  0.4442  0.1438  0.0484
   86SLPC  H14X 8302   3.283   2.244   3.947 -0.4582 -4.2332 -0.1426
   86SLPC  H14Y 8303   3.139   2.175   3.911 -0.1776  1.1594  3.3255
   86SLPC  C315 8304   3.121   2.394   3.936  0.6162 -0.2317  0.0749
   86SLPC  H15X 8305   3.023   2.402   3.885  0.6272 -0.5065  0.0058
   86SLPC  H15Y 8306   3.187   2.477   3.904  1.3268  0.0800  2.2095
   86SLPC  C316 8307   3.104   2.411   4.091  0.1101 -0.1195 -0.1490
   86SLPC  H16X 8308   3.025   2.341   4.126  0.0207 -0.8607 -1.7466
   86SLPC  H16Y 8309   3.080   2.518   4.109 -2.3095 -0.4496 -0.9912
   86SLPC  C317 8310   3.234   2.385   4.167  0.4676 -0.0332 -0.8608
   86SLPC  H17X 8311   3.237   2.474   4.233 -0.0882 -1.8852  1.8089
   86SLPC  H17Y 8312   3.314   2.401   4.091  1.5123 -1.7170 -0.1787
   86SLPC  C318 8313   3.240   2.247   4.242  0.2518  0.1878  0.6194
   86SLPC  H18X 8314   3.284   2.176   4.168 -2.2986  0.9354 -1.8008
   86SLPC  H18Y 8315   3.135   2.225   4.272  0.4313  0.1281  1.2109
   86SLPC  H18Z 8316   3.307   2.252   4.331  0.0581 -2.8582  1.0588
   87SLPC     N 8317   2.546   0.065   2.455 -0.2762  0.5231 -0.3882
   87SLPC   C13 8318   2.544   0.198   2.403  0.0292 -0.1624 -0.2904
   87SLPC  H13A 8319   2.596   0.269   2.466  0.1822 -0.2724 -0.2908
   87SLPC  H13B 8320   2.602   0.210   2.312  1.3173 -0.0042  0.5254
   87SLPC  H13C 8321   2.451   0.243   2.372 -0.9150 -1.8996 -0.1111
   87SLPC   C14 8322   2.529  -0.029   2.343 -0.0281  0.2409 -0.7870
   87SLPC  H14A 8323   2.439  -0.001   2.291 -0.6866  1.8156  1.0655
   87SLPC  H14B 8324   2.615  -0.012   2.279 -0.8542 -0.7654 -2.2095
   87SLPC  H14C 8325   2.527  -0.133   2.372 -3.2512  0.8866  1.9622
   87SLPC   C15 8326   2.436   0.042   2.551 -0.1989  0.0627  0.0171
   87SLPC  H15A 8327   2.462   0.090   2.644  3.7149 -2.6566  0.6051
   87SLPC  H15B 8328   2.346   0.098   2.532 -1.0614 -1.2594  0.0061
   87SLPC  H15C 8329   2.410  -0.061   2.573  0.2235 -0.9494 -3.6153
   87SLPC   C12 8330   2.683   0.049   2.520 -0.7249  0.2336 -0.4632
   87SLPC  H12A 8331   2.691   0.122   2.599 -0.7408 -1.0443  0.7576
   87SLPC  H12B 8332   2.765   0.081   2.456 -2.1022  0.8645 -1.9830
   87SLPC   C11 8333   2.723  -0.090   2.567 -0.2551  0.0015  0.2187
   87SLPC  H11A 8334   2.630  -0.134   2.608 -1.4486  0.0064 -2.2897
   87SLPC  H11B 8335   2.803  -0.085   2.645 -2.1826  0.5029  2.2629
   87SLPC     P 8336   2.728  -0.315   2.424 -0.0322 -0.0241  0.2033
   87SLPC   O13 8337   2.721  -0.343   2.282  0.8573 -0.7311  0.0459
   87SLPC   O14 8338   2.814  -0.405   2.506 -0.4591 -0.0533  0.3101
   87SLPC   O12 8339   2.767  -0.170   2.454 -0.2132 -0.1169 -0.3076
   87SLPC   O11 8340   2.584  -0.321   2.472 -0.2050 -0.3723 -0.3504
   87SLPC    C1 8341   2.511  -0.442   2.443 -0.1281 -0.0849 -0.3000
   87SLPC    HA 8342   2.501  -0.452   2.333  1.6208  2.7484 -0.8381
   87SLPC    HB 8343   2.566  -0.530   2.483 -0.9081 -1.2672 -1.7289
   87SLPC    C2 8344   2.371  -0.431   2.505  0.1937 -0.3314  0.5082
   87SLPC    HS 8345   2.318  -0.359   2.438  2.1145  1.1395  0.5018
   87SLPC   O21 8346   2.369  -0.375   2.639 -1.0069 -0.0860  0.1424
   87SLPC   C21 8347   2.253  -0.330   2.682 -0.4143 -0.1493  0.4782
   87SLPC   O22 8348   2.155  -0.325   2.610 -0.1969 -0.5327  0.1615
   87SLPC   C22 8349   2.259  -0.290   2.827 -0.5814  1.1158  0.2168
   87SLPC   H2R 8350   2.317  -0.196   2.836  1.8798 -0.4149  1.0559
   87SLPC   H2S 8351   2.158  -0.258   2.862  0.0059  1.6923  1.4320
   87SLPC    C3 8352   2.290  -0.564   2.490  0.2864 -0.0238  0.0572
   87SLPC    HX 8353   2.309  -0.629   2.402 -1.0615 -1.0380  0.4775
   87SLPC    HY 8354   2.180  -0.548   2.479  0.3752 -0.1354 -1.1196
   87SLPC   O31 8355   2.310  -0.644   2.609  0.6327 -0.0614  0.0420
   87SLPC   C31 8356   2.409  -0.732   2.613  0.8279  0.6766  0.2016
   87SLPC   O32 8357   2.488  -0.754   2.529 -0.3446 -0.0606  0.0250
   87SLPC   C32 8358   2.396  -0.799   2.745  0.9220  0.4450  0.1810
   87SLPC   H2X 8359   2.384  -0.715   2.816 -1.9001 -0.0989  0.4754
   87SLPC   H2Y 8360   2.486  -0.858   2.773  0.4314 -0.1702  0.4949
   87SLPC   C23 8361   2.317  -0.400   2.920 -0.2413  0.0543  0.1250
   87SLPC   H3R 8362   2.357  -0.351   3.011  0.1084 -0.4687  0.2506
   87SLPC   H3S 8363   2.403  -0.449   2.870 -0.6727 -1.4602  0.8253
   87SLPC   C24 8364   2.221  -0.506   2.957 -0.3644 -0.0367 -0.4376
   87SLPC   H4R 8365   2.210  -0.570   2.867  1.3192 -0.4423 -0.3779
   87SLPC   H4S 8366   2.120  -0.470   2.988 -0.7301  0.1779 -1.8003
   87SLPC   C25 8367   2.266  -0.589   3.074 -0.0636 -0.1250  0.0519
   87SLPC   H5R 8368   2.330  -0.529   3.143 -1.8982  0.8616  0.9859
   87SLPC   H5S 8369   2.310  -0.682   3.033 -0.9272  0.0413 -1.3094
   87SLPC   C26 8370   2.159  -0.622   3.174  0.6613 -0.1686 -0.2946
   87SLPC   H6R 8371   2.079  -0.684   3.128 -0.2685  1.4177 -0.8585
   87SLPC   H6S 8372   2.114  -0.530   3.215 -1.0991  0.0012 -2.4150
   87SLPC   C27 8373   2.212  -0.688   3.304 -0.7367  0.5467  0.2276
   87SLPC   H7R 8374   2.286  -0.620   3.352  2.8108 -1.4892 -1.9003
   87SLPC   H7S 8375   2.264  -0.780   3.269 -2.0597  0.4012 -1.4844
   87SLPC   C28 8376   2.098  -0.717   3.396  0.5482  0.2867  0.2023
   87SLPC   H8R 8377   2.029  -0.789   3.347  2.9779 -1.3994 -0.9337
   87SLPC   H8S 8378   2.043  -0.621   3.409 -2.0586 -1.1584  0.5810
   87SLPC   C29 8379   2.152  -0.783   3.522  0.4480  0.4743 -0.2852
   87SLPC   H9R 8380   2.157  -0.893   3.520  0.3866  0.4744 -0.5250
   87SLPC  C210 8381   2.191  -0.722   3.640  0.2224  0.4525 -0.4991
   87SLPC  H10R 8382   2.228  -0.789   3.719  0.1400 -0.0128 -0.8528
   87SLPC  C211 8383   2.193  -0.571   3.663  0.1477  0.3164  0.4139
   87SLPC  H11R 8384   2.207  -0.518   3.567  1.0193  0.8883  0.8387
   87SLPC  H11S 8385   2.284  -0.548   3.722  0.8703  0.3876 -0.6989
   87SLPC  C212 8386   2.071  -0.537   3.741 -0.5647  0.1129  0.2242
   87SLPC  H12R 8387   1.977  -0.557   3.688 -0.9254  1.5098  0.3060
   87SLPC  C213 8388   2.063  -0.491   3.862  0.5463  0.0497  0.2002
   87SLPC  H13R 8389   1.967  -0.456   3.903 -0.3452 -1.6566 -0.3061
   87SLPC  C214 8390   2.177  -0.459   3.955 -0.1438 -0.7053 -0.4620
   87SLPC  H14R 8391   2.181  -0.355   3.994 -3.0270 -0.6260 -0.1071
   87SLPC  H14S 8392   2.277  -0.474   3.910  1.6527 -0.0602  3.0167
   87SLPC  C215 8393   2.169  -0.562   4.069 -1.0805  0.1104 -0.5184
   87SLPC  H15R 8394   2.181  -0.668   4.038  0.8434 -0.7478  2.7031
   87SLPC  H15S 8395   2.068  -0.540   4.111  0.0263  3.3325  0.7814
   87SLPC  C216 8396   2.291  -0.550   4.164  0.0883  0.1478  0.4226
   87SLPC  H16R 8397   2.390  -0.543   4.114  1.0232  2.4771  2.4015
   87SLPC  H16S 8398   2.291  -0.646   4.220  2.5971  0.3441  0.8575
   87SLPC  C217 8399   2.271  -0.442   4.269  0.1257  0.1891 -0.1972
   87SLPC  H17R 8400   2.166  -0.463   4.297  0.7047 -2.4034  0.3104
   87SLPC  H17S 8401   2.276  -0.336   4.236  0.3455  0.1553 -0.2775
   87SLPC  C218 8402   2.362  -0.464   4.388  0.2745  0.3841  1.1841
   87SLPC  H18R 8403   2.342  -0.377   4.455  1.1051  0.1484  1.7504
   87SLPC  H18S 8404   2.466  -0.470   4.351 -1.0805 -1.7754 -2.8041
   87SLPC  H18T 8405   2.345  -0.557   4.445 -1.9956 -1.4904 -2.2220
   87SLPC   C33 8406   2.273  -0.894   2.747 -0.5206 -0.4451  0.4834
   87SLPC   H3X 8407   2.264  -0.953   2.653 -0.7582  2.4829 -1.4295
   87SLPC   H3Y 8408   2.177  -0.839   2.747  0.9792  2.3927 -1.3408
   87SLPC   C34 8409   2.273  -0.992   2.864  0.1802 -0.3929 -0.0812
   87SLPC   H4X 8410   2.179  -1.050   2.876  1.1926 -2.5299 -1.6275
   87SLPC   H4Y 8411   2.287  -0.933   2.957 -2.2970  1.8492 -1.0024
   87SLPC   C35 8412   2.384  -1.103   2.853  0.5725 -0.4320  0.0109
   87SLPC   H5X 8413   2.484  -1.056   2.841  0.1659  0.3516 -0.4237
   87SLPC   H5Y 8414   2.371  -1.153   2.754 -0.2903  0.6053 -0.4171
   87SLPC   C36 8415   2.382  -1.196   2.974 -1.1409  0.7663 -0.0913
   87SLPC   H6X 8416   2.452  -1.280   2.956 -0.3611  1.2371  0.7164
   87SLPC   H6Y 8417   2.278  -1.232   2.992 -0.4630 -1.6370 -0.5186
   87SLPC   C37 8418   2.428  -1.122   3.101  0.4448 -0.2535 -0.0120
   87SLPC   H7X 8419   2.353  -1.053   3.145  0.8218 -0.1561  0.4865
   87SLPC   H7Y 8420   2.524  -1.074   3.071  1.5245 -2.0334  0.4590
   87SLPC   C38 8421   2.477  -1.212   3.208 -0.2709 -0.3621 -0.2515
   87SLPC   H8X 8422   2.554  -1.277   3.162  0.3091 -0.4653  0.8253
   87SLPC   H8Y 8423   2.390  -1.269   3.247 -2.0378  2.0153 -0.4939
   87SLPC   C39 8424   2.543  -1.138   3.325  0.3783 -0.3272 -0.3611
   87SLPC   H9X 8425   2.477  -1.062   3.370  2.2386  1.0848  0.1169
   87SLPC   H9Y 8426   2.633  -1.084   3.287  0.9746 -0.6016  0.6146
   87SLPC  C310 8427   2.609  -1.229   3.433  0.2336  0.4160 -0.2947
   87SLPC  H10X 8428   2.711  -1.194   3.460 -0.3918  1.9299  0.2216
   87SLPC  H10Y 8429   2.618  -1.329   3.387  1.5558  1.4771 -2.5111
   87SLPC  C311 8430   2.528  -1.249   3.566 -0.0285  0.3759 -0.6557
   87SLPC  H11X 8431   2.582  -1.299   3.649  0.4259  1.6665 -0.1408
   87SLPC  H11Y 8432   2.435  -1.306   3.546 -1.4550  2.0612  0.8436
   87SLPC  C312 8433   2.478  -1.105   3.624  0.5850 -0.2453 -0.7925
   87SLPC  H12X 8434   2.402  -1.068   3.553 -2.1916 -2.3895  0.8724
   87SLPC  H12Y 8435   2.557  -1.027   3.617  0.7764 -0.0216  2.3077
   87SLPC  C313 8436   2.417  -1.121   3.763 -0.4128 -0.0444  0.9534
   87SLPC  H13X 8437   2.358  -1.214   3.772 -0.4377  0.0739  2.2349
   87SLPC  H13Y 8438   2.341  -1.042   3.783 -1.0936 -0.0501 -1.3203
   87SLPC  C314 8439   2.521  -1.122   3.875  0.1383 -0.1230 -0.6457
   87SLPC  H14X 8440   2.571  -1.022   3.869  1.6096 -0.6157  1.8286
   87SLPC  H14Y 8441   2.586  -1.211   3.861  0.0621  0.2283 -3.8837
   87SLPC  C315 8442   2.461  -1.158   4.017 -0.6296  0.3024 -0.0460
   87SLPC  H15X 8443   2.548  -1.177   4.084 -0.7971  0.6768  0.2798
   87SLPC  H15Y 8444   2.407  -1.255   4.012 -0.3819  0.0201  1.9866
   87SLPC  C316 8445   2.358  -1.061   4.069 -0.3202 -0.1879  0.3400
   87SLPC  H16X 8446   2.275  -1.051   3.995 -1.7151 -0.4931  1.7983
   87SLPC  H16Y 8447   2.407  -0.962   4.081 -1.1142  0.0074  2.3434
   87SLPC  C317 8448   2.300  -1.100   4.207 -0.1291  0.5715 -0.2836
   87SLPC  H17X 8449   2.382  -1.135   4.274  1.0876  0.3067 -1.8627
   87SLPC  H17Y 8450   2.244  -1.195   4.189  0.5621 -0.0556  0.7553
   87SLPC  C318 8451   2.212  -0.995   4.275 -0.1285 -0.0746 -0.0004
   87SLPC  H18X 8452   2.265  -0.898   4.275  1.6339 -0.8770  3.1388
   87SLPC  H18Y 8453   2.196  -1.016   4.383 -1.0674  0.6066  0.0016
   87SLPC  H18Z 8454   2.114  -0.978   4.225  0.3051  0.1955 -0.7666
   88SLPC     N 8455   1.705   0.135   2.327 -0.1476 -0.9215  0.1768
   88SLPC   C13 8456   1.776   0.226   2.233  1.2610 -0.5170  0.1145
   88SLPC  H13A 8457   1.771   0.198   2.128  0.4644  1.1867 -0.3294
   88SLPC  H13B 8458   1.734   0.325   2.235  0.3552 -0.7331 -2.8002
   88SLPC  H13C 8459   1.882   0.225   2.253  1.2134 -0.5538  0.3604
   88SLPC   C14 8460   1.771   0.007   2.305 -0.1891  0.2758 -0.2656
   88SLPC  H14A 8461   1.876   0.020   2.326 -0.1455  0.0254 -0.3227
   88SLPC  H14B 8462   1.740  -0.069   2.376 -1.1239 -0.0263 -0.9820
   88SLPC  H14C 8463   1.754  -0.030   2.205 -2.8338 -0.3735  0.3451
   88SLPC   C15 8464   1.557   0.123   2.299 -0.1909  0.1378  0.4271
   88SLPC  H15A 8465   1.546   0.107   2.193  1.2923  0.0388  0.2761
   88SLPC  H15B 8466   1.505   0.049   2.359 -1.3783  0.1082 -0.5995
   88SLPC  H15C 8467   1.505   0.215   2.318 -0.2057  0.2978 -0.3924
   88SLPC   C12 8468   1.729   0.182   2.475  0.4063  0.2546  0.5114
   88SLPC  H12A 8469   1.665   0.117   2.533 -2.0889  1.2747 -0.9587
   88SLPC  H12B 8470   1.679   0.277   2.483  1.3044  0.8562 -0.7833
   88SLPC   C11 8471   1.874   0.177   2.544  0.0205 -0.6536 -0.2899
   88SLPC  H11A 8472   1.918   0.076   2.531  1.4171 -0.3775  1.8545
   88SLPC  H11B 8473   1.852   0.198   2.651  1.4916 -0.4880 -0.0036
   88SLPC     P 8474   2.112   0.287   2.533 -0.1198  0.5416  0.1635
   88SLPC   O13 8475   2.191   0.172   2.493  0.1114  0.1995 -0.0241
   88SLPC   O14 8476   2.166   0.419   2.484  0.3018 -0.0054  0.1239
   88SLPC   O12 8477   1.966   0.266   2.479  0.4703  0.4725 -0.1620
   88SLPC   O11 8478   2.094   0.286   2.689  0.1130 -0.0911  0.4305
   88SLPC    C1 8479   2.020   0.392   2.753  0.1908  0.1689  1.0164
   88SLPC    HA 8480   1.984   0.470   2.682  2.0655 -0.5602 -0.8528
   88SLPC    HB 8481   1.943   0.344   2.818  1.5361 -0.3927  2.2350
   88SLPC    C2 8482   2.102   0.476   2.858  0.1455 -0.1535  0.2449
   88SLPC    HS 8483   2.197   0.515   2.816  0.3672 -0.0158  0.8610
   88SLPC   O21 8484   2.139   0.396   2.977  0.0080  0.2016 -0.3529
   88SLPC   C21 8485   2.228   0.445   3.052 -0.1919 -1.0209 -0.3138
   88SLPC   O22 8486   2.280   0.557   3.036  0.2291  0.5482 -0.2005
   88SLPC   C22 8487   2.273   0.344   3.154 -0.3948 -0.6172 -0.6082
   88SLPC   H2R 8488   2.204   0.258   3.151 -0.7569 -0.3012 -2.0545
   88SLPC   H2S 8489   2.375   0.314   3.120  0.6085 -0.5654  2.0795
   88SLPC    C3 8490   2.022   0.599   2.906  0.6136 -0.0178 -0.5017
   88SLPC    HX 8491   1.965   0.636   2.818 -1.7763 -1.4352  0.3516
   88SLPC    HY 8492   2.104   0.667   2.938 -0.4076  0.7556  0.5695
   88SLPC   O31 8493   1.935   0.568   3.021  0.2091  0.2913 -0.5395
   88SLPC   C31 8494   1.887   0.677   3.078  0.2871 -0.1583  0.0177
   88SLPC   O32 8495   1.914   0.794   3.048 -0.2212 -0.0353  0.4579
   88SLPC   C32 8496   1.800   0.626   3.194  0.8101 -0.3046 -0.2611
   88SLPC   H2X 8497   1.868   0.620   3.281 -0.9561  3.5220  1.6244
   88SLPC   H2Y 8498   1.762   0.528   3.158  1.6342 -0.5159 -0.5610
   88SLPC   C23 8499   2.282   0.405   3.299  0.3833  0.3957 -0.4169
   88SLPC   H3R 8500   2.183   0.446   3.330 -0.0735 -1.6391  1.0728
   88SLPC   H3S 8501   2.355   0.488   3.302  0.9784 -0.1169  1.9510
   88SLPC   C24 8502   2.333   0.295   3.403 -0.2524  0.0546 -0.4445
   88SLPC   H4R 8503   2.442   0.279   3.392 -0.3858 -2.5772  1.3780
   88SLPC   H4S 8504   2.277   0.204   3.374  0.5858 -0.5065 -0.3199
   88SLPC   C25 8505   2.289   0.328   3.548 -0.3811 -0.4414  0.3360
   88SLPC   H5R 8506   2.292   0.230   3.600 -1.6221 -0.1772  0.9407
   88SLPC   H5S 8507   2.187   0.371   3.549  0.0498  0.6735 -0.9499
   88SLPC   C26 8508   2.386   0.428   3.614  0.5664  0.1452 -0.8868
   88SLPC   H6R 8509   2.393   0.512   3.541 -0.3416  1.0627  0.0453
   88SLPC   H6S 8510   2.491   0.393   3.624  0.7910  1.4994  3.6051
   88SLPC   C27 8511   2.326   0.484   3.746  0.0703 -0.6731  0.9046
   88SLPC   H7R 8512   2.226   0.526   3.723  1.1854  0.7605 -1.7586
   88SLPC   H7S 8513   2.382   0.575   3.773  2.0823 -1.4923 -0.2854
   88SLPC   C28 8514   2.344   0.386   3.855  0.2666 -0.3538  0.5249
   88SLPC   H8R 8515   2.448   0.364   3.887  0.4056 -0.6726 -0.1236
   88SLPC   H8S 8516   2.301   0.288   3.826 -1.4759 -0.2471  2.4787
   88SLPC   C29 8517   2.267   0.433   3.976  0.6177 -0.5320  0.8655
   88SLPC   H9R 8518   2.185   0.500   3.946  0.3171 -1.8873 -1.5657
   88SLPC  C210 8519   2.300   0.410   4.109  1.1838  0.3702 -0.6611
   88SLPC  H10R 8520   2.232   0.453   4.184  0.9257 -0.8336 -0.1852
   88SLPC  C211 8521   2.415   0.329   4.170  0.6885 -0.6297  0.0209
   88SLPC  H11R 8522   2.392   0.222   4.155 -2.7341  0.2893 -2.9119
   88SLPC  H11S 8523   2.412   0.336   4.281  1.9472  0.1265  0.0247
   88SLPC  C212 8524   2.553   0.371   4.136 -1.1217  0.3658 -0.4339
   88SLPC  H12R 8525   2.601   0.311   4.057  0.8104  0.6761  0.4411
   88SLPC  C213 8526   2.637   0.453   4.202  0.6842 -0.6146  0.1873
   88SLPC  H13R 8527   2.742   0.464   4.168  1.5736 -0.0928  2.8616
   88SLPC  C214 8528   2.612   0.523   4.331  0.4441 -0.2668 -0.5425
   88SLPC  H14R 8529   2.504   0.527   4.355  0.4446  3.0448 -0.6525
   88SLPC  H14S 8530   2.655   0.625   4.341  3.1278 -1.2377 -1.2926
   88SLPC  C215 8531   2.689   0.450   4.438 -0.0656  0.4814  0.4466
   88SLPC  H15R 8532   2.794   0.426   4.411 -0.8545  0.1158 -2.6991
   88SLPC  H15S 8533   2.645   0.349   4.446  0.3487  0.1666 -1.0339
   88SLPC  C216 8534   2.684   0.532   4.573  0.8493  0.6935 -0.0077
   88SLPC  H16R 8535   2.576   0.539   4.595  0.4949 -2.3253 -0.3234
   88SLPC  H16S 8536   2.728   0.633   4.558 -0.4089  1.0553 -1.5595
   88SLPC  C217 8537   2.747   0.458   4.699 -0.0991 -0.0926  0.7271
   88SLPC  H17R 8538   2.857   0.446   4.686  0.1244  0.4338  1.9175
   88SLPC  H17S 8539   2.712   0.353   4.702  0.6161 -0.3188  1.3891
   88SLPC  C218 8540   2.704   0.525   4.822  0.2956 -0.0001  0.5999
   88SLPC  H18R 8541   2.721   0.634   4.816 -0.4348  0.2217  2.0498
   88SLPC  H18S 8542   2.759   0.488   4.911  0.1586 -0.7660  0.3771
   88SLPC  H18T 8543   2.594   0.511   4.833 -0.1636  1.7827 -1.2649
   88SLPC   C33 8544   1.695   0.732   3.233 -0.0629 -0.7514  0.7282
   88SLPC   H3X 8545   1.615   0.732   3.157 -0.2328  1.5807  0.8150
   88SLPC   H3Y 8546   1.741   0.833   3.242 -1.2296 -0.1872  0.4997
   88SLPC   C34 8547   1.614   0.702   3.365  0.3655  0.4034 -0.1100
   88SLPC   H4X 8548   1.571   0.600   3.373 -0.4819  0.8305  0.8928
   88SLPC   H4Y 8549   1.527   0.769   3.379  0.8250  1.0151 -0.1250
   88SLPC   C35 8550   1.686   0.722   3.499  0.3927  0.2380  0.0516
   88SLPC   H5X 8551   1.724   0.825   3.511 -0.4639  0.7850 -1.5871
   88SLPC   H5Y 8552   1.779   0.663   3.509  0.0803  0.1017  3.2493
   88SLPC   C36 8553   1.609   0.677   3.620  0.5171 -0.1658  0.2002
   88SLPC   H6X 8554   1.504   0.711   3.608  0.0376 -1.8137 -0.4596
   88SLPC   H6Y 8555   1.651   0.734   3.706 -1.5590 -0.1654  1.2760
   88SLPC   C37 8556   1.625   0.525   3.646 -0.0832  0.2565  0.1779
   88SLPC   H7X 8557   1.732   0.498   3.641  0.5400  2.7092 -1.2454
   88SLPC   H7Y 8558   1.594   0.466   3.557 -1.8611  2.5240 -0.8506
   88SLPC   C38 8559   1.558   0.466   3.773 -0.0877 -0.6259  0.1749
   88SLPC   H8X 8560   1.592   0.361   3.786  0.4768 -0.2394  2.1222
   88SLPC   H8Y 8561   1.447   0.464   3.759  0.0055  0.0271 -0.7341
   88SLPC   C39 8562   1.597   0.546   3.900 -0.0546 -0.3299 -0.8847
   88SLPC   H9X 8563   1.539   0.639   3.886  1.5377  0.9396  0.3979
   88SLPC   H9Y 8564   1.707   0.564   3.903 -0.2109  0.5887  0.5438
   88SLPC  C310 8565   1.554   0.481   4.032 -0.1207  0.3650  0.1166
   88SLPC  H10X 8566   1.583   0.374   4.020 -3.2269 -0.4689 -1.0878
   88SLPC  H10Y 8567   1.443   0.481   4.037 -0.3794 -2.0914 -2.6693
   88SLPC  C311 8568   1.607   0.539   4.161  0.4734 -0.3045 -0.5218
   88SLPC  H11X 8569   1.554   0.634   4.181 -0.3312 -0.7326 -0.5997
   88SLPC  H11Y 8570   1.717   0.556   4.151  0.5409 -1.4206 -2.0755
   88SLPC  C312 8571   1.576   0.450   4.279 -0.2917 -0.7351 -0.5971
   88SLPC  H12X 8572   1.615   0.349   4.253  0.2145 -0.6830 -0.0619
   88SLPC  H12Y 8573   1.466   0.449   4.297 -0.1094 -0.1280  0.7002
   88SLPC  C313 8574   1.650   0.510   4.405  0.8625  0.4080 -0.3978
   88SLPC  H13X 8575   1.750   0.530   4.361  1.6725 -1.4698  0.5003
   88SLPC  H13Y 8576   1.644   0.429   4.480 -0.2172  1.5796  0.8407
   88SLPC  C314 8577   1.561   0.629   4.452 -0.1145  0.0824 -0.5985
   88SLPC  H14X 8578   1.460   0.593   4.484 -0.5758  1.1910 -0.7757
   88SLPC  H14Y 8579   1.538   0.704   4.374  0.2853  1.1746  0.3014
   88SLPC  C315 8580   1.625   0.711   4.572 -0.0540 -0.1437  0.2652
   88SLPC  H15X 8581   1.723   0.750   4.534  1.6951 -3.4599  1.0038
   88SLPC  H15Y 8582   1.650   0.635   4.649  0.8981 -0.4891 -0.3568
   88SLPC  C316 8583   1.533   0.811   4.642  0.1005  0.3570 -0.1321
   88SLPC  H16X 8584   1.435   0.758   4.653  0.2881 -0.0661 -0.4824
   88SLPC  H16Y 8585   1.509   0.879   4.557  0.6519  0.1569 -0.4544
   88SLPC  C317 8586   1.582   0.882   4.774  0.7445  0.1818 -0.4807
   88SLPC  H17X 8587   1.678   0.934   4.756  2.1964 -1.6489  1.4113
   88SLPC  H17Y 8588   1.601   0.817   4.863 -0.4025 -0.2277 -0.5200
   88SLPC  C318 8589   1.483   0.993   4.814 -0.0917  0.2785 -0.5939
   88SLPC  H18X 8590   1.463   1.061   4.728  1.9105  1.8755  0.1070
   88SLPC  H18Y 8591   1.527   1.052   4.897  0.2518  0.5522 -0.9648
   88SLPC  H18Z 8592   1.383   0.948   4.831 -0.3784  0.7000 -1.1255
   89SAPE     N 8593   2.319   5.029   6.977  0.4095  0.2448 -0.5978
   89SAPE   HN1 8594   2.331   5.087   7.062  2.5369 -1.4125  0.3243
   89SAPE   HN2 8595   2.218   5.032   6.954  0.1795 -0.8673  0.1701
   89SAPE   HN3 8596   2.334   4.928   6.998  1.2180  0.5377  0.3074
   89SAPE   C12 8597   2.397   5.063   6.855  0.6364 -0.4139 -0.6484
   89SAPE  H12A 8598   2.338   5.148   6.813  0.1250  0.7572  2.1508
   89SAPE  H12B 8599   2.400   4.977   6.785 -1.8432  0.4775 -1.9690
   89SAPE   C11 8600   2.541   5.093   6.897 -0.1940  0.4313 -0.0684
   89SAPE  H11A 8601   2.533   5.180   6.966  1.3922 -1.3845  2.5625
   89SAPE  H11B 8602   2.615   5.128   6.821 -0.4319 -1.5785 -1.3039
   89SAPE     P 8603   2.737   4.928   6.949 -0.0739 -0.0002  0.0951
   89SAPE   O13 8604   2.834   5.018   7.010 -0.3102 -0.3509  0.1672
   89SAPE   O14 8605   2.735   4.786   6.989 -0.0294  0.2197 -0.6147
   89SAPE   O12 8606   2.590   4.984   6.975  0.0067 -0.1003  0.2561
   89SAPE   O11 8607   2.759   4.940   6.788  0.0147 -0.2191 -0.2311
   89SAPE    C1 8608   2.748   4.816   6.719  0.0644 -0.4073  0.6765
   89SAPE    HA 8609   2.840   4.756   6.735  0.7215 -0.1770 -1.8787
   89SAPE    HB 8610   2.650   4.769   6.743 -0.7106  1.6217  1.7046
   89SAPE    C2 8611   2.739   4.827   6.561 -0.1325 -0.1444  0.3712
   89SAPE    HS 8612   2.732   4.726   6.515  0.8648 -0.0593 -0.0066
   89SAPE   O21 8613   2.854   4.890   6.506  0.1346 -0.1802  0.3848
   89SAPE   C21 8614   2.972   4.831   6.469  0.4046  0.3769  0.0460
   89SAPE   O22 8615   2.991   4.713   6.498 -0.5102 -0.8892 -0.3945
   89SAPE   C22 8616   3.066   4.925   6.395  0.4614 -0.2077  0.3417
   89SAPE   H2R 8617   3.036   5.030   6.413 -1.6912 -0.6150 -0.5187
   89SAPE   H2S 8618   3.166   4.904   6.439  0.3659 -0.0958  0.6074
   89SAPE    C3 8619   2.614   4.909   6.530 -0.2677 -0.5338  0.5102
   89SAPE    HX 8620   2.616   5.000   6.593 -1.0984 -0.5937  0.6335
   89SAPE    HY 8621   2.524   4.850   6.558 -0.6898 -0.0299  0.2253
   89SAPE   O31 8622   2.602   4.947   6.387 -0.0624  0.0146 -1.1824
   89SAPE   C31 8623   2.550   5.066   6.351  0.0301  0.6083  0.2231
   89SAPE   O32 8624   2.506   5.143   6.434  0.3513 -0.1801  0.2201
   89SAPE   C32 8625   2.536   5.079   6.207 -0.1859  0.1974  0.8936
   89SAPE   H2X 8626   2.429   5.056   6.187 -0.3887  0.4170  1.7154
   89SAPE   H2Y 8627   2.609   5.019   6.149 -0.0634  0.8938  0.3106
   89SAPE   C23 8628   3.071   4.894   6.240  0.0027  0.6183  0.4553
   89SAPE   H3R 8629   3.091   4.788   6.214  1.5335  0.5465  1.7803
   89SAPE   H3S 8630   3.154   4.953   6.196  0.9628 -0.0998  1.2656
   89SAPE   C24 8631   2.940   4.936   6.158  0.7917  0.3870  0.0789
   89SAPE   H4R 8632   2.930   5.047   6.161  4.7213  1.1249 -3.8144
   89SAPE   H4S 8633   2.856   4.895   6.218 -0.3844  0.9338 -1.1430
   89SAPE   C25 8634   2.950   4.875   6.019  0.7116 -0.0469 -0.1023
   89SAPE   H5R 8635   3.027   4.922   5.956  2.9143 -1.7189  1.1694
   89SAPE   C26 8636   2.901   4.761   5.977  0.1902 -0.2927  0.6821
   89SAPE   H6R 8637   2.911   4.751   5.868  0.3033  1.0356  0.5563
   89SAPE   C27 8638   2.799   4.671   6.038  0.8653  0.4874 -0.7034
   89SAPE   H7R 8639   2.702   4.666   5.984  1.4928 -3.0683 -1.7339
   89SAPE   H7S 8640   2.777   4.699   6.143  0.0881  0.7309 -0.9239
   89SAPE   C28 8641   2.850   4.534   6.042  0.3447 -0.1208  0.1067
   89SAPE   H8R 8642   2.892   4.500   6.138  2.7930 -0.3313 -0.9589
   89SAPE   C29 8643   2.829   4.436   5.947  0.3884  0.3383 -0.6585
   89SAPE   H9R 8644   2.860   4.334   5.974 -1.7745 -0.0502  0.5729
   89SAPE  C210 8645   2.769   4.453   5.810 -0.2689  0.0508  0.0397
   89SAPE  H10R 8646   2.826   4.392   5.737  1.1957  1.3020  0.0908
   89SAPE  H10S 8647   2.775   4.560   5.780  0.9124  0.3214  1.1611
   89SAPE  C211 8648   2.623   4.402   5.800 -0.0489 -0.2759  0.0131
   89SAPE  H11R 8649   2.589   4.383   5.903 -0.5561  0.9070  0.0863
   89SAPE  C212 8650   2.558   4.375   5.686  0.1352 -0.2320 -0.0404
   89SAPE  H12R 8651   2.455   4.338   5.702 -0.2609  1.0643  0.5238
   89SAPE  C213 8652   2.609   4.400   5.548 -0.6550 -0.2797  0.5451
   89SAPE  H13R 8653   2.718   4.422   5.553 -0.9095  1.5270 -0.7342
   89SAPE  H13S 8654   2.565   4.487   5.496 -1.0276 -0.4643  0.5450
   89SAPE  C214 8655   2.601   4.274   5.464 -0.0395  0.2750 -0.3005
   89SAPE  H14R 8656   2.616   4.178   5.515  2.0761  0.3464 -0.7197
   89SAPE  C215 8657   2.561   4.259   5.335 -0.1029 -0.0961 -0.4795
   89SAPE  H15R 8658   2.546   4.157   5.296 -2.0533 -0.3704  0.8621
   89SAPE  C216 8659   2.525   4.371   5.243  0.1399 -0.1374  0.0891
   89SAPE  H16R 8660   2.515   4.467   5.298 -1.2585  0.5814 -1.3729
   89SAPE  H16S 8661   2.430   4.349   5.190  0.3996 -0.3932 -0.2783
   89SAPE  C217 8662   2.640   4.403   5.144  0.5232  1.1778  0.0738
   89SAPE  H17R 8663   2.657   4.324   5.069 -0.0289  1.8909 -0.8128
   89SAPE  H17S 8664   2.734   4.430   5.198 -0.7339  0.8167  2.5819
   89SAPE  C218 8665   2.608   4.532   5.067  0.5410  0.0210  0.3211
   89SAPE  H18R 8666   2.704   4.578   5.034  0.1208  0.9418  0.3689
   89SAPE  H18S 8667   2.557   4.610   5.127 -0.8030 -0.0143 -0.7386
   89SAPE  C219 8668   2.523   4.501   4.946  1.1503 -0.0073  0.8248
   89SAPE  H19R 8669   2.563   4.407   4.902 -1.4198 -0.4246 -0.8234
   89SAPE  H19S 8670   2.544   4.577   4.867 -0.4264 -1.3106 -0.9657
   89SAPE  C220 8671   2.366   4.485   4.953 -0.6212 -0.1901 -0.0228
   89SAPE  H20R 8672   2.318   4.417   5.026 -1.2716  0.6370  0.3401
   89SAPE  H20S 8673   2.329   4.453   4.854  1.4268  0.0247 -0.8951
   89SAPE  H20T 8674   2.329   4.588   4.978 -0.6937 -0.5566  1.5137
   89SAPE   C33 8675   2.557   5.221   6.152 -0.1175  0.1488 -0.4828
   89SAPE   H3X 8676   2.506   5.301   6.211  0.3504  1.5816 -1.9326
   89SAPE   H3Y 8677   2.494   5.226   6.061 -2.0799 -0.9702  0.7401
   89SAPE   C34 8678   2.698   5.263   6.138 -0.2324  0.2391 -0.2596
   89SAPE   H4X 8679   2.758   5.198   6.070  0.2307  1.9330 -1.5386
   89SAPE   H4Y 8680   2.742   5.265   6.240 -0.3448 -1.7259 -0.1308
   89SAPE   C35 8681   2.707   5.405   6.072  0.5169  0.3594  0.4940
   89SAPE   H5X 8682   2.647   5.470   6.138  0.3248  0.6934 -0.0035
   89SAPE   H5Y 8683   2.660   5.399   5.971  1.5716 -2.1160  0.0719
   89SAPE   C36 8684   2.850   5.459   6.040 -0.1924  0.2607 -0.8589
   89SAPE   H6X 8685   2.914   5.383   5.992  1.6209  1.1694  0.0252
   89SAPE   H6Y 8686   2.893   5.482   6.140  0.9692 -2.0658 -0.7817
   89SAPE   C37 8687   2.857   5.587   5.959  0.4873  0.8731 -0.6571
   89SAPE   H7X 8688   2.926   5.660   6.006  0.2488  2.0181 -2.0390
   89SAPE   H7Y 8689   2.756   5.630   5.980  0.3960 -0.1799  1.2841
   89SAPE   C38 8690   2.853   5.570   5.809 -0.4425  0.8130  0.0185
   89SAPE   H8X 8691   2.768   5.510   5.772 -0.0909  0.2246  0.1608
   89SAPE   H8Y 8692   2.949   5.522   5.779 -0.3713  1.3440 -0.6583
   89SAPE   C39 8693   2.839   5.704   5.738  0.0300 -0.1060 -0.7580
   89SAPE   H9X 8694   2.917   5.776   5.771 -0.4917  0.5662 -0.9718
   89SAPE   H9Y 8695   2.743   5.750   5.766 -0.0158  0.1011 -1.2488
   89SAPE  C310 8696   2.857   5.692   5.587 -0.5453  0.1860 -0.7985
   89SAPE  H10X 8697   2.812   5.601   5.543 -0.7050  0.8788 -2.1188
   89SAPE  H10Y 8698   2.967   5.705   5.576 -0.1689  0.6884  2.5396
   89SAPE  C311 8699   2.787   5.810   5.524  0.1478 -0.7346 -0.0195
   89SAPE  H11X 8700   2.824   5.904   5.571  1.0099 -2.2103  2.3997
   89SAPE  H11Y 8701   2.676   5.803   5.528  0.2358 -1.6702  1.8443
   89SAPE  C312 8702   2.820   5.819   5.371  0.1257  0.1592 -0.1122
   89SAPE  H12X 8703   2.756   5.746   5.316  0.4771 -0.3798  0.1835
   89SAPE  H12Y 8704   2.926   5.787   5.364  0.0466 -0.2085  0.3835
   89SAPE  C313 8705   2.804   5.962   5.316  0.2192 -0.0605  0.3751
   89SAPE  H13X 8706   2.904   6.011   5.316  0.0814  0.2225  0.6052
   89SAPE  H13Y 8707   2.757   6.020   5.399  2.0202  1.0250  0.6950
   89SAPE  C314 8708   2.731   5.973   5.185  0.1613 -0.5689  0.3380
   89SAPE  H14X 8709   2.796   5.909   5.121  0.1351 -0.6680  0.4098
   89SAPE  H14Y 8710   2.742   6.078   5.150  0.2467 -0.7577 -0.2267
   89SAPE  C315 8711   2.585   5.935   5.190 -0.4890 -0.0758 -0.0933
   89SAPE  H15X 8712   2.538   5.996   5.270 -1.8232 -1.7130  0.4445
   89SAPE  H15Y 8713   2.582   5.829   5.226 -1.6704 -1.1836 -3.1724
   89SAPE  C316 8714   2.511   5.931   5.048  0.2594  0.0468  0.2774
   89SAPE  H16X 8715   2.401   5.926   5.065  0.1803 -0.8394 -0.4810
   89SAPE  H16Y 8716   2.553   5.841   5.000 -1.2309  0.6544 -2.3800
   89SAPE  C317 8717   2.549   6.040   4.953 -0.2880  0.7980  0.0925
   89SAPE  H17X 8718   2.658   6.058   4.959 -0.3203  0.5906  1.4966
   89SAPE  H17Y 8719   2.497   6.128   4.996 -0.4211  1.3798 -1.2079
   89SAPE  C318 8720   2.498   6.007   4.808 -0.1639  0.1971 -0.1768
   89SAPE  H18X 8721   2.400   5.955   4.800 -0.7644  1.4354 -1.2852
   89SAPE  H18Y 8722   2.581   5.956   4.754 -0.1111  0.0825  0.0124
   89SAPE  H18Z 8723   2.493   6.097   4.743 -1.8220 -0.6746 -1.3470
   90SAPE     N 8724   6.249   6.026   7.546 -0.2002  0.6234 -0.0551
   90SAPE   HN1 8725   6.175   6.097   7.565 -0.2662  0.4169  0.4565
   90SAPE   HN2 8726   6.206   5.932   7.555 -1.9975  1.3555 -0.7275
   90SAPE   HN3 8727   6.330   6.050   7.607 -0.2205  1.2807 -0.2811
   90SAPE   C12 8728   6.299   6.011   7.404  0.3665  0.0597  0.5157
   90SAPE  H12A 8729   6.335   5.909   7.379  1.6375  0.5266  0.3970
   90SAPE  H12B 8730   6.387   6.076   7.391  0.0481  0.1321 -1.5841
   90SAPE   C11 8731   6.190   6.057   7.307  0.6345 -0.1799 -0.3159
   90SAPE  H11A 8732   6.118   5.974   7.323  1.2014 -0.7469 -0.6492
   90SAPE  H11B 8733   6.217   6.051   7.199 -3.0636  0.9453 -1.4217
   90SAPE     P 8734   6.147   6.315   7.253 -0.1208  0.0011  0.0694
   90SAPE   O13 8735   6.026   6.349   7.175  0.3501  0.6154  0.2437
   90SAPE   O14 8736   6.196   6.424   7.336 -0.1314  0.2319 -0.0019
   90SAPE   O12 8737   6.126   6.180   7.335 -0.7583 -0.2605 -0.0983
   90SAPE   O11 8738   6.257   6.283   7.142 -0.1231 -0.2946 -0.1926
   90SAPE    C1 8739   6.297   6.386   7.050 -0.4037 -0.2725 -0.0182
   90SAPE    HA 8740   6.240   6.481   7.055  0.1199  0.2076 -2.3827
   90SAPE    HB 8741   6.407   6.400   7.056 -0.0936 -2.0792 -0.6288
   90SAPE    C2 8742   6.269   6.333   6.906  0.7829 -0.1371  0.3869
   90SAPE    HS 8743   6.313   6.404   6.833 -1.1802  1.1581  0.3923
   90SAPE   O21 8744   6.132   6.337   6.871 -0.4579  0.0757 -0.4854
   90SAPE   C21 8745   6.073   6.459   6.850 -0.1229 -0.3938  0.1171
   90SAPE   O22 8746   6.126   6.565   6.867  0.3019 -0.4905  0.1337
   90SAPE   C22 8747   5.927   6.434   6.814  0.0165 -0.7350 -0.0198
   90SAPE   H2R 8748   5.901   6.327   6.828  1.2683 -1.2410 -1.3390
   90SAPE   H2S 8749   5.869   6.488   6.892 -3.4265 -1.3877 -1.9270
   90SAPE    C3 8750   6.320   6.186   6.874  0.2060 -0.8640  0.2534
   90SAPE    HX 8751   6.297   6.120   6.961 -0.2536 -0.8262  0.1615
   90SAPE    HY 8752   6.431   6.200   6.878  0.1054  0.0280  0.0560
   90SAPE   O31 8753   6.270   6.133   6.750 -0.1477  0.2908  0.6260
   90SAPE   C31 8754   6.334   6.165   6.640 -0.2285 -0.8272  0.0447
   90SAPE   O32 8755   6.433   6.236   6.639  0.4270 -0.0420 -0.2514
   90SAPE   C32 8756   6.272   6.092   6.525  0.9557  0.0641 -0.7455
   90SAPE   H2X 8757   6.161   6.099   6.536  0.9935  2.2771 -1.1791
   90SAPE   H2Y 8758   6.307   5.987   6.521 -0.4511 -0.4556 -0.0392
   90SAPE   C23 8759   5.908   6.495   6.675  0.3538  0.0010  0.0546
   90SAPE   H3R 8760   5.951   6.597   6.679  0.1222  0.0718  0.8203
   90SAPE   H3S 8761   5.799   6.498   6.654  0.2393 -0.8250  0.4826
   90SAPE   C24 8762   5.972   6.419   6.557 -0.5341  0.3710  0.8830
   90SAPE   H4R 8763   6.080   6.421   6.583 -0.2865  0.4723 -0.0988
   90SAPE   H4S 8764   5.976   6.471   6.458  2.3901 -0.3341  0.5608
   90SAPE   C25 8765   5.917   6.282   6.541 -0.1915  0.0127 -0.2619
   90SAPE   H5R 8766   5.908   6.236   6.641 -2.0599 -1.5407 -1.0861
   90SAPE   C26 8767   5.878   6.212   6.432  0.7399 -0.7847  0.2328
   90SAPE   H6R 8768   5.854   6.106   6.450  0.0243 -0.7676 -0.5310
   90SAPE   C27 8769   5.893   6.265   6.287 -0.7245  0.9247 -0.3015
   90SAPE   H7R 8770   5.995   6.240   6.249  0.3081  2.6761  1.1512
   90SAPE   H7S 8771   5.893   6.376   6.280  0.0968  0.9251 -0.4357
   90SAPE   C28 8772   5.789   6.210   6.198  0.1007 -0.3103  0.6309
   90SAPE   H8R 8773   5.697   6.160   6.233 -1.1891  1.5917  0.1532
   90SAPE   C29 8774   5.779   6.224   6.065 -1.2533 -0.1852  0.3705
   90SAPE   H9R 8775   5.689   6.196   6.009 -1.4164  0.7470  0.1405
   90SAPE  C210 8776   5.877   6.306   5.973 -0.1588 -0.1859  0.7054
   90SAPE  H10R 8777   5.966   6.332   6.034 -0.1521  1.1803  0.1694
   90SAPE  H10S 8778   5.840   6.408   5.948 -0.5696 -0.5248 -0.1099
   90SAPE  C211 8779   5.902   6.221   5.855 -0.4531 -0.3502  0.5693
   90SAPE  H11R 8780   5.968   6.134   5.869 -0.9675 -0.6253  1.2874
   90SAPE  C212 8781   5.872   6.249   5.727  0.2788 -0.1818 -0.5416
   90SAPE  H12R 8782   5.901   6.181   5.645 -0.9164 -0.2827 -0.9116
   90SAPE  C213 8783   5.797   6.377   5.695 -1.3098  0.1864  0.0359
   90SAPE  H13R 8784   5.867   6.462   5.678 -1.0609  0.3915  1.8284
   90SAPE  H13S 8785   5.728   6.419   5.771 -1.4306 -0.4417  0.2762
   90SAPE  C214 8786   5.704   6.355   5.578 -0.6103 -0.2644  0.9635
   90SAPE  H14R 8787   5.600   6.331   5.606 -1.2088  3.3155  2.2991
   90SAPE  C215 8788   5.726   6.345   5.440  0.0906 -0.5730 -0.5641
   90SAPE  H15R 8789   5.632   6.338   5.383 -1.0307  0.4115  1.0780
   90SAPE  C216 8790   5.858   6.335   5.366 -0.0953 -0.8502  0.0787
   90SAPE  H16R 8791   5.940   6.356   5.438  0.1609 -0.7232 -0.2482
   90SAPE  H16S 8792   5.869   6.412   5.287  1.8542 -1.9119 -0.7323
   90SAPE  C217 8793   5.889   6.195   5.304 -0.2527  0.4926 -0.0724
   90SAPE  H17R 8794   5.902   6.134   5.396 -1.1916  0.8471  0.3038
   90SAPE  H17S 8795   5.980   6.212   5.242 -1.9928 -0.1260 -2.9529
   90SAPE  C218 8796   5.780   6.153   5.203 -0.6041 -0.5842 -0.0667
   90SAPE  H18R 8797   5.760   6.247   5.148  0.5435  0.1535  0.7227
   90SAPE  H18S 8798   5.695   6.119   5.266 -0.0468  0.5809  1.3802
   90SAPE  C219 8799   5.831   6.044   5.116 -0.6529  0.0668  1.1713
   90SAPE  H19R 8800   5.749   5.983   5.075  0.2152 -0.1166 -0.3688
   90SAPE  H19S 8801   5.899   5.974   5.169  0.7751 -1.1431 -2.0514
   90SAPE  C220 8802   5.904   6.097   4.994 -0.2860  0.2156 -0.2822
   90SAPE  H20R 8803   5.938   6.013   4.929  2.1708 -1.6017  3.0350
   90SAPE  H20S 8804   5.990   6.151   5.038  0.5823  0.2003 -1.8889
   90SAPE  H20T 8805   5.843   6.169   4.936  0.2380  1.2354  0.3980
   90SAPE   C33 8806   6.332   6.154   6.404  0.4046 -0.1684 -0.1090
   90SAPE   H3X 8807   6.441   6.134   6.389  0.4977 -0.0071  0.3403
   90SAPE   H3Y 8808   6.332   6.265   6.413 -2.1529 -0.1266  0.0984
   90SAPE   C34 8809   6.254   6.114   6.275 -0.1350  0.4477 -0.2126
   90SAPE   H4X 8810   6.169   6.182   6.255  1.2699  1.7349 -2.2236
   90SAPE   H4Y 8811   6.203   6.017   6.293  2.2391 -0.5826  1.4443
   90SAPE   C35 8812   6.342   6.117   6.157  0.0094  0.1531 -0.5151
   90SAPE   H5X 8813   6.410   6.030   6.169  0.1645  0.4297  0.6920
   90SAPE   H5Y 8814   6.404   6.209   6.159 -0.3573  0.4304  2.8971
   90SAPE   C36 8815   6.266   6.087   6.032  0.3973  0.2382  0.2235
   90SAPE   H6X 8816   6.165   6.133   6.039 -0.1835 -1.0987  1.0689
   90SAPE   H6Y 8817   6.259   5.976   6.037 -1.4620  0.3137  0.3564
   90SAPE   C37 8818   6.343   6.106   5.894 -0.6109  0.7501  0.0177
   90SAPE   H7X 8819   6.427   6.034   5.896 -0.0539  1.3981  1.6487
   90SAPE   H7Y 8820   6.369   6.212   5.876 -2.1102  0.9241 -1.3868
   90SAPE   C38 8821   6.237   6.069   5.783  0.5091 -0.4914 -0.0328
   90SAPE   H8X 8822   6.160   6.149   5.778  1.3691  0.5996  2.5716
   90SAPE   H8Y 8823   6.183   5.973   5.801 -1.0057  0.4628  0.6462
   90SAPE   C39 8824   6.305   6.068   5.646  0.2873  0.0802 -0.3590
   90SAPE   H9X 8825   6.390   5.997   5.655 -0.8300 -1.6987 -2.7019
   90SAPE   H9Y 8826   6.355   6.164   5.621  0.0904  0.6243  1.2284
   90SAPE  C310 8827   6.207   6.026   5.533  0.1681  0.6335 -0.9313
   90SAPE  H10X 8828   6.131   6.105   5.515  0.9571  1.6836  0.1427
   90SAPE  H10Y 8829   6.144   5.942   5.569  0.4559  0.7532 -0.1332
   90SAPE  C311 8830   6.272   5.983   5.406 -0.1396 -0.5515  0.6490
   90SAPE  H11X 8831   6.329   5.891   5.430  0.7400 -0.4562 -0.9568
   90SAPE  H11Y 8832   6.341   6.063   5.370 -1.9588  0.4493 -0.7798
   90SAPE  C312 8833   6.163   5.957   5.295 -0.5801  0.1963 -0.2458
   90SAPE  H12X 8834   6.129   6.052   5.248 -0.0380  0.2317 -0.5809
   90SAPE  H12Y 8835   6.082   5.907   5.352  1.2153 -3.2712 -0.4197
   90SAPE  C313 8836   6.213   5.857   5.195 -0.1586 -0.6540 -0.0772
   90SAPE  H13X 8837   6.266   5.773   5.245  0.0889 -1.1224 -1.1174
   90SAPE  H13Y 8838   6.287   5.914   5.134  0.2973 -0.8572  0.2833
   90SAPE  C314 8839   6.112   5.818   5.089  0.2908  0.0163 -0.5896
   90SAPE  H14X 8840   6.053   5.911   5.072  1.2789  1.2457  2.1166
   90SAPE  H14Y 8841   6.049   5.740   5.137 -1.4756  1.6369 -0.1350
   90SAPE  C315 8842   6.174   5.754   4.964 -0.6805  0.7553 -0.2917
   90SAPE  H15X 8843   6.247   5.815   4.906  0.0758 -1.0930 -1.3843
   90SAPE  H15Y 8844   6.093   5.726   4.893 -0.1469 -1.5216 -0.0951
   90SAPE  C316 8845   6.242   5.625   5.011 -0.1050  0.8631 -0.2421
   90SAPE  H16X 8846   6.162   5.565   5.061  1.6716 -1.1569  0.3127
   90SAPE  H16Y 8847   6.331   5.646   5.074  0.6714  0.3974 -1.1654
   90SAPE  C317 8848   6.307   5.536   4.905  0.6989  0.4064  0.3450
   90SAPE  H17X 8849   6.384   5.474   4.955 -0.2459 -0.0374  1.2853
   90SAPE  H17Y 8850   6.358   5.598   4.829  1.3686 -1.5467 -0.8702
   90SAPE  C318 8851   6.208   5.434   4.844  0.1361  0.1811 -0.3182
   90SAPE  H18X 8852   6.187   5.353   4.917 -2.0536  2.0694  1.2880
   90SAPE  H18Y 8853   6.240   5.394   4.746 -0.1093 -1.6596  0.3116
   90SAPE  H18Z 8854   6.114   5.489   4.821  0.0081  0.2155  0.2633
   91SAPE     N 8855   4.644   4.979   6.482  0.2019  0.5326 -0.1837
   91SAPE   HN1 8856   4.603   5.059   6.534 -2.9125 -0.5191 -0.7555
   91SAPE   HN2 8857   4.707   4.922   6.541  0.3140  0.5907 -0.2487
   91SAPE   HN3 8858   4.686   5.004   6.390 -1.7230 -0.4389 -1.4084
   91SAPE   C12 8859   4.527   4.889   6.452 -1.0032 -0.0295 -0.1295
   91SAPE  H12A 8860   4.566   4.789   6.422  1.4077  0.8069 -0.0164
   91SAPE  H12B 8861   4.486   4.941   6.363  1.5709  0.7460 -0.9483
   91SAPE   C11 8862   4.422   4.884   6.564  0.0828 -0.2110  0.4088
   91SAPE  H11A 8863   4.453   4.857   6.667 -2.3671 -0.4903  1.1335
   91SAPE  H11B 8864   4.348   4.808   6.531 -1.1296  0.4844  1.3969
   91SAPE     P 8865   4.380   5.142   6.634  0.0861 -0.2040  0.2501
   91SAPE   O13 8866   4.337   5.133   6.771 -0.5060  0.2170  0.2275
   91SAPE   O14 8867   4.519   5.179   6.613 -0.2908 -0.0328 -0.2319
   91SAPE   O12 8868   4.351   5.006   6.553  0.3297  0.3742  0.6135
   91SAPE   O11 8869   4.290   5.254   6.571 -0.6998  0.7992  0.0112
   91SAPE    C1 8870   4.258   5.253   6.429  0.2910  0.0220  0.1756
   91SAPE    HA 8871   4.198   5.161   6.413  0.8485 -0.3218  0.0131
   91SAPE    HB 8872   4.200   5.344   6.406 -1.5167 -1.2634 -0.6200
   91SAPE    C2 8873   4.374   5.257   6.326 -0.0746 -0.3893 -0.3364
   91SAPE    HS 8874   4.441   5.170   6.344  2.6064  2.1553  3.4322
   91SAPE   O21 8875   4.451   5.382   6.328 -0.0571  0.4487 -0.7254
   91SAPE   C21 8876   4.587   5.362   6.323  0.0064 -0.9303 -0.0014
   91SAPE   O22 8877   4.644   5.258   6.336  0.2043  0.3289 -0.0960
   91SAPE   C22 8878   4.644   5.490   6.261  0.3008  0.4446  0.6557
   91SAPE   H2R 8879   4.620   5.504   6.153  0.5737  0.3034  0.5745
   91SAPE   H2S 8880   4.606   5.583   6.308 -0.3284  0.3614  0.3222
   91SAPE    C3 8881   4.319   5.237   6.178 -0.5982 -0.3762 -0.1146
   91SAPE    HX 8882   4.258   5.329   6.166  1.0068  0.7549  0.0167
   91SAPE    HY 8883   4.250   5.151   6.175 -0.4656 -0.4781 -0.2488
   91SAPE   O31 8884   4.420   5.236   6.071  0.4526  0.1883  0.3887
   91SAPE   C31 8885   4.485   5.128   6.048 -0.2746 -0.3437 -0.4272
   91SAPE   O32 8886   4.483   5.030   6.120  1.1562  0.2111  0.4129
   91SAPE   C32 8887   4.571   5.142   5.927 -0.1765 -0.4852  0.5106
   91SAPE   H2X 8888   4.634   5.052   5.907  2.4999  1.5164 -0.7731
   91SAPE   H2Y 8889   4.646   5.222   5.944  0.1922 -0.7394  0.1283
   91SAPE   C23 8890   4.796   5.496   6.264 -0.5030  0.2272 -0.9186
   91SAPE   H3R 8891   4.823   5.394   6.228  0.5680  0.3592 -0.5528
   91SAPE   H3S 8892   4.833   5.501   6.369 -1.0232 -0.3664 -0.7000
   91SAPE   C24 8893   4.852   5.616   6.178 -0.1028  0.2273 -0.0711
   91SAPE   H4R 8894   4.824   5.711   6.228 -0.6948  0.8146 -1.4703
   91SAPE   H4S 8895   4.806   5.621   6.077  0.2391  1.1194 -0.1854
   91SAPE   C25 8896   4.997   5.603   6.165 -0.7506  0.1784  0.1457
   91SAPE   H5R 8897   5.044   5.613   6.264 -0.7530  0.6217  0.1032
   91SAPE   C26 8898   5.069   5.597   6.053 -0.1593 -0.5899 -0.1106
   91SAPE   H6R 8899   5.179   5.594   6.067  0.0619  1.8301 -0.8632
   91SAPE   C27 8900   5.013   5.584   5.910 -0.7708  0.2382 -0.4269
   91SAPE   H7R 8901   4.921   5.521   5.900 -1.4230  0.6537  2.1214
   91SAPE   H7S 8902   5.090   5.532   5.850 -1.6297 -1.9496  0.2460
   91SAPE   C28 8903   4.989   5.720   5.844 -0.0067 -0.3103 -0.5897
   91SAPE   H8R 8904   4.906   5.783   5.877  0.5509  0.3726 -0.4715
   91SAPE   C29 8905   5.063   5.757   5.736 -0.8021 -0.1612 -0.3245
   91SAPE   H9R 8906   5.025   5.845   5.681 -1.8628 -0.4930 -0.1558
   91SAPE  C210 8907   5.174   5.675   5.666 -0.9703 -1.1267  0.0445
   91SAPE  H10R 8908   5.232   5.609   5.734 -1.0928 -1.4762 -0.1904
   91SAPE  H10S 8909   5.250   5.748   5.631 -0.2670 -1.4115  0.9491
   91SAPE  C211 8910   5.120   5.580   5.560  0.5205  0.8296  0.3698
   91SAPE  H11R 8911   5.049   5.506   5.599  1.6680  0.6577  2.2067
   91SAPE  C212 8912   5.141   5.567   5.430 -0.2504 -0.5208  0.2531
   91SAPE  H12R 8913   5.091   5.483   5.379  0.5505  0.0297 -1.5299
   91SAPE  C213 8914   5.245   5.629   5.337  0.2338  0.4743  0.1660
   91SAPE  H13R 8915   5.307   5.702   5.394  1.0309 -0.7841  0.9511
   91SAPE  H13S 8916   5.177   5.676   5.262 -1.0071 -0.2022  0.8371
   91SAPE  C214 8917   5.318   5.526   5.256 -0.3101  1.0287 -0.1720
   91SAPE  H14R 8918   5.424   5.521   5.285 -0.3506  1.3890  0.0356
   91SAPE  C215 8919   5.274   5.455   5.150 -0.0244  0.7910 -0.7027
   91SAPE  H15R 8920   5.339   5.380   5.100  0.8700  0.6868  0.5752
   91SAPE  C216 8921   5.147   5.452   5.079 -0.7049  0.6674 -0.3195
   91SAPE  H16R 8922   5.085   5.528   5.130  0.4835  2.3517 -1.2961
   91SAPE  H16S 8923   5.094   5.355   5.090  1.0935 -0.3565 -0.3181
   91SAPE  C217 8924   5.173   5.470   4.936 -0.2887 -0.2808  0.0324
   91SAPE  H17R 8925   5.251   5.409   4.885  0.2356 -1.3824  2.0461
   91SAPE  H17S 8926   5.205   5.575   4.921 -0.8853 -0.0265  0.5353
   91SAPE  C218 8927   5.038   5.463   4.860 -0.3846 -0.2337 -0.2767
   91SAPE  H18R 8928   5.022   5.353   4.851  0.9467 -0.4290 -0.4477
   91SAPE  H18S 8929   5.053   5.505   4.758 -3.2607 -2.6901 -1.8579
   91SAPE  C219 8930   4.915   5.543   4.904  0.5272 -0.2317 -0.0428
   91SAPE  H19R 8931   4.929   5.652   4.891 -1.1268  0.4315  2.9625
   91SAPE  H19S 8932   4.904   5.536   5.014  1.9894  1.7767  0.2759
   91SAPE  C220 8933   4.793   5.501   4.833 -0.8885  0.0428  0.1878
   91SAPE  H20R 8934   4.801   5.518   4.723  2.6877  0.2946  0.3616
   91SAPE  H20S 8935   4.701   5.559   4.854 -1.2084 -0.8889  1.4777
   91SAPE  H20T 8936   4.769   5.396   4.857  1.5868 -0.3488  1.3583
   91SAPE   C33 8937   4.488   5.178   5.798  0.5861 -0.5315  0.6025
   91SAPE   H3X 8938   4.456   5.284   5.809  3.1050  0.2420  1.0923
   91SAPE   H3Y 8939   4.399   5.116   5.773  0.2839  0.0737  0.1455
   91SAPE   C34 8940   4.573   5.170   5.665  0.6967  0.0117 -0.5517
   91SAPE   H4X 8941   4.678   5.206   5.677  0.7889 -1.1159  3.6110
   91SAPE   H4Y 8942   4.527   5.220   5.577  0.4779 -0.8819 -0.9534
   91SAPE   C35 8943   4.578   5.028   5.606  0.1745 -0.4013 -0.4988
   91SAPE   H5X 8944   4.593   4.958   5.691  0.0551  1.4877  1.1718
   91SAPE   H5Y 8945   4.668   5.016   5.541  1.4732  1.0566  0.9354
   91SAPE   C36 8946   4.450   4.983   5.526  0.2612  0.6384  0.2641
   91SAPE   H6X 8947   4.410   5.066   5.464 -1.1845 -0.6176 -0.5588
   91SAPE   H6Y 8948   4.376   4.947   5.601  1.8618  0.1946  1.6913
   91SAPE   C37 8949   4.464   4.866   5.425 -0.5444 -0.1418 -0.1624
   91SAPE   H7X 8950   4.468   4.772   5.484 -2.6565  0.7970  1.6208
   91SAPE   H7Y 8951   4.553   4.878   5.360 -0.5310  2.7455  0.2472
   91SAPE   C38 8952   4.349   4.866   5.328 -0.1729  0.3930 -0.7855
   91SAPE   H8X 8953   4.321   4.971   5.303 -0.2557  0.4988 -0.2463
   91SAPE   H8Y 8954   4.260   4.826   5.381  0.6055  0.9615  1.0291
   91SAPE   C39 8955   4.364   4.780   5.198  0.0730 -0.1486  0.5261
   91SAPE   H9X 8956   4.355   4.674   5.230 -0.5518 -0.9905 -2.1899
   91SAPE   H9Y 8957   4.468   4.787   5.158 -0.0199  2.1684  0.5722
   91SAPE  C310 8958   4.271   4.799   5.077  0.0326  0.4439 -0.9701
   91SAPE  H10X 8959   4.266   4.904   5.042  1.3686  0.1180 -2.2691
   91SAPE  H10Y 8960   4.169   4.774   5.112  0.0808 -1.1702 -1.8943
   91SAPE  C311 8961   4.317   4.713   4.961  0.5442  0.9481 -0.8171
   91SAPE  H11X 8962   4.274   4.610   4.964 -1.4360  1.5260 -4.2684
   91SAPE  H11Y 8963   4.427   4.701   4.957  0.6339  0.9698  0.7384
   91SAPE  C312 8964   4.282   4.778   4.823 -0.7430  0.6468 -0.6919
   91SAPE  H12X 8965   4.338   4.869   4.793 -0.8482  0.8875 -0.1725
   91SAPE  H12Y 8966   4.173   4.799   4.826 -0.8815 -0.0652  1.9454
   91SAPE  C313 8967   4.316   4.685   4.713 -0.2979  0.0895 -0.1994
   91SAPE  H13X 8968   4.424   4.663   4.727 -0.3936 -2.0234 -2.1446
   91SAPE  H13Y 8969   4.295   4.734   4.615  1.0183  3.3745  1.0329
   91SAPE  C314 8970   4.247   4.550   4.732 -0.1582 -0.2513 -0.1304
   91SAPE  H14X 8971   4.138   4.567   4.743 -0.2404 -0.5098 -0.5069
   91SAPE  H14Y 8972   4.284   4.495   4.821  0.5022  0.9451  0.3537
   91SAPE  C315 8973   4.274   4.465   4.611  0.2802 -0.2110 -0.0509
   91SAPE  H15X 8974   4.384   4.450   4.608  0.5213  1.3342 -0.0810
   91SAPE  H15Y 8975   4.237   4.504   4.514 -1.0793  0.3354  0.6561
   91SAPE  C316 8976   4.189   4.336   4.629  0.6497 -0.2688  0.3065
   91SAPE  H16X 8977   4.082   4.363   4.636  0.7416  0.5323 -0.9750
   91SAPE  H16Y 8978   4.226   4.278   4.716  4.6007 -0.9830 -1.6260
   91SAPE  C317 8979   4.199   4.252   4.502 -0.2558 -0.2607 -0.2385
   91SAPE  H17X 8980   4.305   4.231   4.477 -0.1800 -0.1146 -0.0472
   91SAPE  H17Y 8981   4.170   4.311   4.411 -0.1895  0.6107  0.2897
   91SAPE  C318 8982   4.117   4.125   4.513 -0.0307  0.7822 -0.0206
   91SAPE  H18X 8983   4.137   4.077   4.611 -2.2860  0.9912  0.5975
   91SAPE  H18Y 8984   4.136   4.057   4.427  0.0765  0.4150  0.2891
   91SAPE  H18Z 8985   4.009   4.151   4.514  0.2113  1.8720 -0.7993
   92SAPE     N 8986   4.184   6.521   6.471  0.3919 -0.3683 -0.0381
   92SAPE   HN1 8987   4.259   6.454   6.499 -0.3244 -0.8109  0.8705
   92SAPE   HN2 8988   4.200   6.620   6.499  0.7822  0.3638 -2.5710
   92SAPE   HN3 8989   4.087   6.497   6.498  0.2369  0.0328 -0.2270
   92SAPE   C12 8990   4.183   6.507   6.318 -0.0166 -0.3280 -0.6752
   92SAPE  H12A 8991   4.287   6.523   6.283 -0.3228 -0.0183 -1.4680
   92SAPE  H12B 8992   4.113   6.581   6.273  0.5415  0.0332 -0.9598
   92SAPE   C11 8993   4.124   6.369   6.278 -0.3438 -0.1958 -0.4297
   92SAPE  H11A 8994   4.126   6.361   6.168 -1.6154  0.6527 -0.5422
   92SAPE  H11B 8995   4.018   6.355   6.311 -0.1993 -1.6847 -0.5440
   92SAPE     P 8996   4.332   6.207   6.282  0.0545 -0.1697 -0.3346
   92SAPE   O13 8997   4.439   6.312   6.288 -0.1139 -0.7230  0.1377
   92SAPE   O14 8998   4.352   6.079   6.362  0.4529 -0.1209  0.2519
   92SAPE   O12 8999   4.199   6.263   6.344 -0.8253 -0.1081  0.4832
   92SAPE   O11 9000   4.285   6.185   6.137  0.1092 -0.1710 -0.2148
   92SAPE    C1 9001   4.171   6.101   6.100  0.1330  0.0173  0.3898
   92SAPE    HA 9002   4.104   6.061   6.180  0.2315 -1.8818 -0.4460
   92SAPE    HB 9003   4.104   6.165   6.039  0.0516  0.9269  1.3837
   92SAPE    C2 9004   4.229   5.987   6.016  0.0720  0.2874 -0.0723
   92SAPE    HS 9005   4.304   5.941   6.084 -0.1338 -0.2453 -0.2034
   92SAPE   O21 9006   4.285   6.036   5.894 -0.0879  0.5944 -0.3877
   92SAPE   C21 9007   4.417   6.048   5.890  1.2237 -0.0007  0.1693
   92SAPE   O22 9008   4.500   5.994   5.960 -0.4450  0.3880 -0.5357
   92SAPE   C22 9009   4.442   6.136   5.779  0.3084  0.2079  0.6239
   92SAPE   H2R 9010   4.355   6.202   5.757 -0.7026 -1.4336 -0.5899
   92SAPE   H2S 9011   4.531   6.192   5.815  1.0022  0.4299 -1.3053
   92SAPE    C3 9012   4.114   5.881   5.984  0.9611 -0.0222  0.3018
   92SAPE    HX 9013   4.054   5.935   5.908  1.2819 -1.8077 -1.3016
   92SAPE    HY 9014   4.047   5.865   6.071 -0.7400 -4.3331 -1.4905
   92SAPE   O31 9015   4.163   5.755   5.930 -0.0337 -0.1188  0.4899
   92SAPE   C31 9016   4.200   5.672   6.030 -0.1555 -0.2641 -0.3012
   92SAPE   O32 9017   4.192   5.698   6.151 -0.6426  0.1171 -0.4889
   92SAPE   C32 9018   4.281   5.553   5.970  0.2684  0.3028 -0.5973
   92SAPE   H2X 9019   4.273   5.546   5.860  2.3806 -2.8736 -0.6981
   92SAPE   H2Y 9020   4.232   5.464   6.015  0.1884  0.8741  0.5065
   92SAPE   C23 9021   4.469   6.055   5.652  0.7347  0.4269 -0.0005
   92SAPE   H3R 9022   4.392   5.979   5.628  2.1420 -0.7305 -1.0582
   92SAPE   H3S 9023   4.567   6.005   5.670  0.2943 -0.3275  0.4001
   92SAPE   C24 9024   4.474   6.159   5.536 -0.0298  0.4575  0.0733
   92SAPE   H4R 9025   4.541   6.241   5.569 -2.2336  1.7056  1.6431
   92SAPE   H4S 9026   4.377   6.206   5.511  0.0551  0.2942 -0.6040
   92SAPE   C25 9027   4.511   6.094   5.408  0.4629  0.4066 -0.1359
   92SAPE   H5R 9028   4.517   5.984   5.414  0.2410  0.4258  0.5120
   92SAPE   C26 9029   4.534   6.152   5.289 -0.2029 -0.2727  0.1198
   92SAPE   H6R 9030   4.548   6.084   5.204 -0.5438 -2.0957  1.4545
   92SAPE   C27 9031   4.531   6.308   5.271 -0.3797  0.3776  0.3533
   92SAPE   H7R 9032   4.607   6.332   5.194 -0.3658  1.5140  0.7031
   92SAPE   H7S 9033   4.570   6.356   5.363 -0.1690  1.1397 -0.1251
   92SAPE   C28 9034   4.388   6.348   5.227 -0.4987  0.2826  0.0008
   92SAPE   H8R 9035   4.317   6.356   5.311  1.2639  1.1029  1.4988
   92SAPE   C29 9036   4.343   6.362   5.102  0.6465 -0.7085  0.1320
   92SAPE   H9R 9037   4.234   6.375   5.089  0.5570 -2.3072 -0.9549
   92SAPE  C210 9038   4.425   6.345   4.978  0.2022 -1.0085 -0.7410
   92SAPE  H10R 9039   4.442   6.238   4.956  0.1881 -0.6523 -2.6729
   92SAPE  H10S 9040   4.524   6.394   4.993 -1.4644  2.3009  0.5981
   92SAPE  C211 9041   4.365   6.409   4.854 -0.3199 -0.6105  0.3245
   92SAPE  H11R 9042   4.395   6.514   4.838 -0.8105 -0.6650 -1.0357
   92SAPE  C212 9043   4.284   6.352   4.771 -1.1835  0.0070  0.0283
   92SAPE  H12R 9044   4.254   6.408   4.680  0.0939 -0.2665 -0.5815
   92SAPE  C213 9045   4.245   6.211   4.777  0.3584  0.4520 -0.6530
   92SAPE  H13R 9046   4.258   6.176   4.882  0.4098  1.3597 -0.3554
   92SAPE  H13S 9047   4.315   6.152   4.713  2.7475  1.1867  1.1285
   92SAPE  C214 9048   4.099   6.181   4.734  0.2125  0.0925 -0.3176
   92SAPE  H14R 9049   4.046   6.242   4.660 -1.4318 -1.1255 -0.2255
   92SAPE  C215 9050   4.025   6.073   4.779 -0.7488  0.2283 -0.3164
   92SAPE  H15R 9051   3.925   6.058   4.737 -1.3778  2.0584  0.4499
   92SAPE  C216 9052   4.074   5.981   4.885  0.9925  0.5879  0.0263
   92SAPE  H16R 9053   4.129   6.035   4.965 -0.4665  1.5936  0.3991
   92SAPE  H16S 9054   4.148   5.911   4.840 -0.3293 -0.9431  0.1283
   92SAPE  C217 9055   3.959   5.892   4.933  0.4358  0.3397 -0.1112
   92SAPE  H17R 9056   3.873   5.944   4.982 -0.1369  1.2930 -1.9917
   92SAPE  H17S 9057   3.994   5.820   5.009 -1.4547  0.6184  1.1039
   92SAPE  C218 9058   3.893   5.800   4.827 -0.0215 -0.6559  0.4839
   92SAPE  H18R 9059   3.851   5.860   4.744 -1.1284 -0.0164  1.4740
   92SAPE  H18S 9060   3.816   5.733   4.871 -1.9979  0.7240 -0.6968
   92SAPE  C219 9061   3.986   5.699   4.757 -0.4384 -0.4861 -0.5254
   92SAPE  H19R 9062   4.040   5.645   4.837 -0.1458  0.4424 -0.0736
   92SAPE  H19S 9063   4.062   5.752   4.697 -1.0902 -0.3172 -1.2212
   92SAPE  C220 9064   3.898   5.611   4.663  0.0856  0.0188 -0.2530
   92SAPE  H20R 9065   3.813   5.559   4.712 -0.5586 -0.1503 -1.5085
   92SAPE  H20S 9066   3.960   5.531   4.618  1.3111  0.8301 -0.0599
   92SAPE  H20T 9067   3.864   5.675   4.578  0.5871  3.5375  1.9998
   92SAPE   C33 9068   4.435   5.561   6.002  0.0356 -0.8276  0.0856
   92SAPE   H3X 9069   4.484   5.461   6.002  1.2116 -0.2775 -1.5607
   92SAPE   H3Y 9070   4.455   5.614   6.098  0.9021  1.3089 -1.2176
   92SAPE   C34 9071   4.510   5.657   5.906 -0.6097  0.2005  0.0744
   92SAPE   H4X 9072   4.603   5.692   5.955 -1.2092  1.9843  0.0390
   92SAPE   H4Y 9073   4.448   5.748   5.887 -0.6903  0.6627  2.2426
   92SAPE   C35 9074   4.565   5.587   5.779 -0.4377  0.2579 -0.2628
   92SAPE   H5X 9075   4.496   5.517   5.727 -1.2211  0.4128  0.5597
   92SAPE   H5Y 9076   4.642   5.517   5.818 -1.7443 -0.5472  0.9586
   92SAPE   C36 9077   4.619   5.687   5.682  0.0156 -0.3164 -0.4498
   92SAPE   H6X 9078   4.708   5.736   5.728 -2.2716  1.7695  2.0884
   92SAPE   H6Y 9079   4.543   5.763   5.655  0.9217  0.7501 -0.0722
   92SAPE   C37 9080   4.673   5.616   5.558  0.4672 -0.6944 -0.0430
   92SAPE   H7X 9081   4.594   5.555   5.508 -0.7357 -0.7665  1.8622
   92SAPE   H7Y 9082   4.750   5.540   5.584 -0.0516 -0.7294  1.4798
   92SAPE   C38 9083   4.727   5.718   5.457 -0.5395 -0.4486 -0.6151
   92SAPE   H8X 9084   4.814   5.769   5.502  0.9000 -0.8082 -2.8146
   92SAPE   H8Y 9085   4.641   5.786   5.438 -1.7241 -0.7440  2.9531
   92SAPE   C39 9086   4.787   5.648   5.331  0.3299  0.1032 -0.6516
   92SAPE   H9X 9087   4.711   5.630   5.253 -1.0248 -1.3265  0.9338
   92SAPE   H9Y 9088   4.835   5.552   5.358 -2.0380 -0.1293  3.6838
   92SAPE  C310 9089   4.889   5.737   5.263  0.4137 -0.3975 -0.3858
   92SAPE  H10X 9090   4.925   5.676   5.178  1.2840  0.2322 -0.4736
   92SAPE  H10Y 9091   4.970   5.761   5.335 -0.9462  1.1665  0.7100
   92SAPE  C311 9092   4.831   5.873   5.208  0.6314 -0.8731 -0.4980
   92SAPE  H11X 9093   4.798   5.935   5.293 -1.7133 -0.5098 -1.6054
   92SAPE  H11Y 9094   4.735   5.843   5.161 -1.3877  0.2852  2.5742
   92SAPE  C312 9095   4.927   5.949   5.113  0.2090 -0.0319 -0.4978
   92SAPE  H12X 9096   4.967   5.879   5.036  2.4453  0.9403 -0.2971
   92SAPE  H12Y 9097   5.002   5.994   5.181 -0.2511  0.4890 -0.3229
   92SAPE  C313 9098   4.853   6.065   5.037 -0.0977  0.2059 -0.5207
   92SAPE  H13X 9099   4.933   6.129   4.994 -1.7562  0.1302 -4.0636
   92SAPE  H13Y 9100   4.796   6.116   5.117  1.2481 -0.8760  1.2118
   92SAPE  C314 9101   4.767   6.020   4.919 -0.3501  0.9056  0.2489
   92SAPE  H14X 9102   4.690   5.946   4.950  0.5171  0.4661  1.3816
   92SAPE  H14Y 9103   4.839   5.976   4.847  0.3139  0.1209  1.3641
   92SAPE  C315 9104   4.710   6.147   4.853  0.7283 -0.9427  0.7739
   92SAPE  H15X 9105   4.793   6.209   4.813 -0.2176 -0.6596 -0.8459
   92SAPE  H15Y 9106   4.658   6.197   4.936 -0.3303 -0.1782 -0.3230
   92SAPE  C316 9107   4.598   6.124   4.747  0.4234 -0.9526  0.7268
   92SAPE  H16X 9108   4.547   6.220   4.724  2.4586 -0.0760 -0.3236
   92SAPE  H16Y 9109   4.518   6.062   4.794  1.6395 -0.4216  3.7055
   92SAPE  C317 9110   4.659   6.062   4.619  0.6634  0.2052  1.1553
   92SAPE  H17X 9111   4.735   5.988   4.651  0.7675  0.3900  1.3423
   92SAPE  H17Y 9112   4.709   6.139   4.557 -0.7967  0.9457  0.8557
   92SAPE  C318 9113   4.543   5.999   4.533 -0.3383 -0.3061 -0.4933
   92SAPE  H18X 9114   4.509   5.911   4.591 -0.0391 -0.1301 -0.0441
   92SAPE  H18Y 9115   4.579   5.950   4.440 -2.4702 -4.7301  0.7632
   92SAPE  H18Z 9116   4.449   6.056   4.522 -0.7297 -1.2902 -2.7316
   93SAPE     N 9117   1.208   0.105   6.680 -0.0748 -0.3262  0.3235
   93SAPE   HN1 9118   1.184   0.160   6.595  1.5663  0.6429  0.4625
   93SAPE   HN2 9119   1.236   0.173   6.753 -3.7366  0.4438  1.2555
   93SAPE   HN3 9120   1.280   0.034   6.657 -2.8546 -2.7510 -1.7326
   93SAPE   C12 9121   1.077   0.035   6.727 -0.0780  0.3682  0.4794
   93SAPE  H12A 9122   1.008   0.025   6.641  0.5241  2.7625 -0.3574
   93SAPE  H12B 9123   1.043   0.091   6.816 -0.1631 -1.8797  1.9448
   93SAPE   C11 9124   1.099  -0.116   6.757  0.1188  0.5172 -0.1408
   93SAPE  H11A 9125   1.113  -0.166   6.658 -0.5166  1.5528 -0.7839
   93SAPE  H11B 9126   1.008  -0.159   6.804 -0.1023 -0.0266 -1.0204
   93SAPE     P 9127   1.260  -0.279   6.894  0.1293  0.1269  0.3259
   93SAPE   O13 9128   1.351  -0.260   7.007  0.0243 -0.1095 -0.2557
   93SAPE   O14 9129   1.150  -0.379   6.919  1.0625  0.5585 -0.2851
   93SAPE   O12 9130   1.208  -0.134   6.843 -0.4202  0.2463  0.1052
   93SAPE   O11 9131   1.343  -0.326   6.766 -0.1832  0.2657 -0.0727
   93SAPE    C1 9132   1.483  -0.287   6.753 -0.0118  0.3895  0.0192
   93SAPE    HA 9133   1.484  -0.193   6.694 -1.7880 -0.2927 -1.1887
   93SAPE    HB 9134   1.533  -0.272   6.851 -1.4232  1.7817  0.5781
   93SAPE    C2 9135   1.573  -0.398   6.673  0.0605  0.2726  0.0974
   93SAPE    HS 9136   1.674  -0.355   6.660 -0.0382  0.1377 -1.2259
   93SAPE   O21 9137   1.507  -0.428   6.543  0.3795  0.2157  0.1038
   93SAPE   C21 9138   1.545  -0.361   6.442 -0.3629  0.2697 -0.0679
   93SAPE   O22 9139   1.644  -0.286   6.441 -0.5688  0.5504 -0.5724
   93SAPE   C22 9140   1.452  -0.364   6.324 -0.1844  0.0591  0.5202
   93SAPE   H2R 9141   1.347  -0.381   6.357  0.2023 -1.9749  0.8221
   93SAPE   H2S 9142   1.464  -0.272   6.263 -2.5598 -1.6067 -2.7780
   93SAPE    C3 9143   1.592  -0.531   6.754  0.1189 -0.3492 -0.1424
   93SAPE    HX 9144   1.489  -0.571   6.768  0.8648 -2.3934 -0.2228
   93SAPE    HY 9145   1.629  -0.500   6.854 -0.5155  0.0907 -0.0368
   93SAPE   O31 9146   1.682  -0.633   6.706 -0.1085  0.2780 -0.2928
   93SAPE   C31 9147   1.629  -0.722   6.621 -0.1220 -0.0693  0.1642
   93SAPE   O32 9148   1.510  -0.734   6.583 -0.3275  0.4788 -0.8243
   93SAPE   C32 9149   1.737  -0.831   6.597  0.0546 -0.0396 -0.2786
   93SAPE   H2X 9150   1.707  -0.911   6.669 -0.5745 -1.0163 -1.5779
   93SAPE   H2Y 9151   1.840  -0.794   6.617  0.0971  0.5773 -1.5695
   93SAPE   C23 9152   1.490  -0.487   6.234 -0.1457 -0.4914  0.4260
   93SAPE   H3R 9153   1.521  -0.568   6.302  0.4413  0.5591  1.4501
   93SAPE   H3S 9154   1.586  -0.458   6.187 -1.7168  1.3831 -1.9365
   93SAPE   C24 9155   1.382  -0.542   6.143  0.8206  0.2777 -0.0759
   93SAPE   H4R 9156   1.362  -0.466   6.064 -2.0049 -0.4844 -0.2296
   93SAPE   H4S 9157   1.293  -0.560   6.208  0.4831  2.0576  0.0147
   93SAPE   C25 9158   1.429  -0.654   6.064  0.0403 -0.4209 -0.5301
   93SAPE   H5R 9159   1.440  -0.742   6.129 -2.1376  0.3027  0.9280
   93SAPE   C26 9160   1.439  -0.660   5.931 -0.0399 -0.2458  0.0632
   93SAPE   H6R 9161   1.462  -0.755   5.880  1.1774  0.1033 -0.0489
   93SAPE   C27 9162   1.406  -0.549   5.833  0.8222 -0.0721  0.0736
   93SAPE   H7R 9163   1.480  -0.466   5.828 -2.4315  3.2166  1.7272
   93SAPE   H7S 9164   1.322  -0.493   5.878  2.3895  2.0992  0.4880
   93SAPE   C28 9165   1.375  -0.591   5.695  0.0013 -0.8863 -0.0625
   93SAPE   H8R 9166   1.330  -0.691   5.690 -1.4256 -0.3639  1.5445
   93SAPE   C29 9167   1.404  -0.518   5.585 -1.0879  0.6277 -0.5426
   93SAPE   H9R 9168   1.389  -0.564   5.486  0.9025  0.7451 -0.9390
   93SAPE  C210 9169   1.465  -0.379   5.569 -0.5545 -0.2295 -0.7942
   93SAPE  H10R 9170   1.557  -0.385   5.632 -1.0573 -0.9439 -0.1163
   93SAPE  H10S 9171   1.399  -0.306   5.620 -0.9206 -0.8686 -0.3409
   93SAPE  C211 9172   1.512  -0.349   5.429  0.2522 -0.6001 -0.7741
   93SAPE  H11R 9173   1.505  -0.431   5.356  2.2028 -1.1040 -0.4743
   93SAPE  C212 9174   1.554  -0.226   5.384  0.2620 -0.1376 -0.9891
   93SAPE  H12R 9175   1.582  -0.229   5.278  0.0746 -0.4221 -1.0308
   93SAPE  C213 9176   1.568  -0.105   5.466 -0.1903 -0.3554  0.0981
   93SAPE  H13R 9177   1.665  -0.057   5.441 -0.4981  0.8164  1.0592
   93SAPE  H13S 9178   1.577  -0.141   5.571 -1.2364  0.6837  0.5515
   93SAPE  C214 9179   1.465   0.001   5.463 -1.0460  0.7948  0.9215
   93SAPE  H14R 9180   1.404  -0.000   5.554 -3.4990 -1.6568 -0.6073
   93SAPE  C215 9181   1.442   0.074   5.349 -0.1644  0.0342  0.2120
   93SAPE  H15R 9182   1.360   0.146   5.343 -0.8671 -0.8503 -1.9458
   93SAPE  C216 9183   1.530   0.073   5.224 -0.3586 -0.7322 -1.0656
   93SAPE  H16R 9184   1.476   0.033   5.136  1.9098  1.9758 -3.9484
   93SAPE  H16S 9185   1.613   0.001   5.238  0.1760  0.0821  0.1678
   93SAPE  C217 9186   1.587   0.217   5.211 -0.3019 -0.1830 -0.3143
   93SAPE  H17R 9187   1.686   0.215   5.160 -1.5590  0.5448 -2.9879
   93SAPE  H17S 9188   1.596   0.279   5.302 -1.2034  2.3562 -1.8689
   93SAPE  C218 9189   1.507   0.294   5.102  0.1880 -0.0564  0.1684
   93SAPE  H18R 9190   1.509   0.405   5.106 -0.7170 -0.0278  0.0142
   93SAPE  H18S 9191   1.401   0.263   5.111  0.1555  0.1534  0.5204
   93SAPE  C219 9192   1.555   0.272   4.963  0.3635  0.4062  0.1239
   93SAPE  H19R 9193   1.546   0.163   4.940  0.7811  0.1550  1.0952
   93SAPE  H19S 9194   1.662   0.302   4.958 -0.0885  2.0723 -0.1758
   93SAPE  C220 9195   1.474   0.343   4.857  0.5975 -0.8018  0.0041
   93SAPE  H20R 9196   1.487   0.452   4.875 -0.1770 -0.9542  1.5724
   93SAPE  H20S 9197   1.370   0.306   4.864  0.6270 -1.2880 -1.6573
   93SAPE  H20T 9198   1.508   0.318   4.753 -0.1498 -2.3448  0.1004
   93SAPE   C33 9199   1.717  -0.892   6.452  0.3395 -0.6148 -0.2786
   93SAPE   H3X 9200   1.610  -0.921   6.442  0.2807 -2.0602  3.3532
   93SAPE   H3Y 9201   1.775  -0.986   6.463  0.0577 -0.6156  1.2977
   93SAPE   C34 9202   1.773  -0.802   6.342 -0.2481  0.1357  0.0806
   93SAPE   H4X 9203   1.884  -0.793   6.343 -0.1685  0.3148 -2.7524
   93SAPE   H4Y 9204   1.732  -0.700   6.355  2.1962  1.1096  0.6845
   93SAPE   C35 9205   1.729  -0.860   6.203  0.2255  0.0134  1.0750
   93SAPE   H5X 9206   1.619  -0.866   6.191  0.4895 -1.0207 -1.4588
   93SAPE   H5Y 9207   1.767  -0.964   6.197 -0.0953 -0.0405 -0.6273
   93SAPE   C36 9208   1.784  -0.781   6.082  0.4844  0.0053 -0.0123
   93SAPE   H6X 9209   1.894  -0.789   6.093  0.4269 -4.1065 -0.8033
   93SAPE   H6Y 9210   1.757  -0.674   6.072  2.2423  0.4330 -0.3873
   93SAPE   C37 9211   1.746  -0.852   5.951  0.9456 -0.5417 -0.0717
   93SAPE   H7X 9212   1.639  -0.878   5.940  0.9068  0.3475 -2.3270
   93SAPE   H7Y 9213   1.796  -0.951   5.944  0.1134 -0.8867 -1.5278
   93SAPE   C38 9214   1.801  -0.760   5.837  0.3141  0.3487 -0.4530
   93SAPE   H8X 9215   1.902  -0.727   5.867 -0.5701  1.5454  1.4751
   93SAPE   H8Y 9216   1.744  -0.664   5.837  0.2956  0.4590 -4.2544
   93SAPE   C39 9217   1.796  -0.813   5.699 -0.5714  0.2516  0.4921
   93SAPE   H9X 9218   1.698  -0.860   5.678  0.6379 -1.2764 -2.1065
   93SAPE   H9Y 9219   1.867  -0.895   5.676 -1.9685 -0.4469 -1.4978
   93SAPE  C310 9220   1.816  -0.691   5.596  0.4945 -0.5786 -0.4811
   93SAPE  H10X 9221   1.900  -0.634   5.641  1.5204 -0.8851 -1.9561
   93SAPE  H10Y 9222   1.732  -0.618   5.587  0.8640  0.2178  1.9556
   93SAPE  C311 9223   1.857  -0.736   5.453 -0.0445 -0.2024  0.6139
   93SAPE  H11X 9224   1.948  -0.799   5.454 -0.1950 -0.4137  1.1194
   93SAPE  H11Y 9225   1.882  -0.645   5.394  0.6524 -0.1263  1.0172
   93SAPE  C312 9226   1.749  -0.819   5.386  0.1724 -0.2224 -0.2089
   93SAPE  H12X 9227   1.655  -0.760   5.383  0.5836  0.4002 -1.1699
   93SAPE  H12Y 9228   1.732  -0.909   5.449 -2.7601  0.3586 -0.0300
   93SAPE  C313 9229   1.762  -0.871   5.237  0.2735 -0.3181 -0.2675
   93SAPE  H13X 9230   1.860  -0.924   5.230  0.5347  0.1148  0.0329
   93SAPE  H13Y 9231   1.763  -0.781   5.172 -2.0248  0.0298  0.0917
   93SAPE  C314 9232   1.650  -0.968   5.195  0.9254 -0.1861  0.3531
   93SAPE  H14X 9233   1.551  -0.918   5.203  0.8072 -0.2986 -0.3691
   93SAPE  H14Y 9234   1.641  -1.056   5.263 -0.0360 -0.2438  0.1661
   93SAPE  C315 9235   1.655  -1.026   5.054 -0.8527  0.1806 -0.0044
   93SAPE  H15X 9236   1.550  -1.030   5.018 -1.3151  3.0869  0.7626
   93SAPE  H15Y 9237   1.707  -1.122   5.074  0.1174  0.1254 -2.5196
   93SAPE  C316 9238   1.742  -0.964   4.940  0.2688 -0.4735 -0.3410
   93SAPE  H16X 9239   1.841  -1.013   4.951 -0.1046 -1.0754  0.5430
   93SAPE  H16Y 9240   1.760  -0.857   4.964  2.5839 -0.2756 -2.5415
   93SAPE  C317 9241   1.684  -0.972   4.804 -0.3563 -0.2489  0.4193
   93SAPE  H17X 9242   1.575  -0.957   4.820 -0.2836  2.1115 -0.8158
   93SAPE  H17Y 9243   1.691  -1.074   4.760 -1.1243  0.3347 -1.1615
   93SAPE  C318 9244   1.717  -0.864   4.700  0.0223 -0.0393 -0.6929
   93SAPE  H18X 9245   1.671  -0.883   4.600 -0.2231  1.7364 -0.9562
   93SAPE  H18Y 9246   1.827  -0.869   4.698  0.0262  0.0358 -0.6629
   93SAPE  H18Z 9247   1.691  -0.763   4.738 -0.3055 -0.0499 -0.8794
   94SAPE     N 9248   0.690   2.783   6.980  0.3277 -0.0231  0.0612
   94SAPE   HN1 9249   0.684   2.880   6.945  0.9126  0.1234  0.3602
   94SAPE   HN2 9250   0.623   2.757   7.055  0.5805 -0.1866  0.2373
   94SAPE   HN3 9251   0.787   2.769   7.016  0.6545 -2.7871 -1.5448
   94SAPE   C12 9252   0.658   2.701   6.858 -0.4854  0.5720 -0.3729
   94SAPE  H12A 9253   0.725   2.613   6.869  2.4130  2.7693  0.8060
   94SAPE  H12B 9254   0.691   2.754   6.766  1.2980  0.7066  0.3139
   94SAPE   C11 9255   0.507   2.665   6.837 -0.3595 -0.3920 -0.1917
   94SAPE  H11A 9256   0.495   2.565   6.884  1.4389 -0.8585 -0.6543
   94SAPE  H11B 9257   0.489   2.648   6.729  0.4230  1.2071 -0.6062
   94SAPE     P 9258   0.274   2.746   6.927  0.1296 -0.0922 -0.0442
   94SAPE   O13 9259   0.235   2.613   6.972 -0.1802  0.8976 -0.3607
   94SAPE   O14 9260   0.224   2.863   7.002  0.3901 -0.2617 -0.5617
   94SAPE   O12 9261   0.430   2.767   6.907 -0.3240  0.5847  0.2681
   94SAPE   O11 9262   0.232   2.742   6.775  0.5496 -0.0518  0.4532
   94SAPE    C1 9263   0.231   2.863   6.705  0.5251 -0.4064 -0.4116
   94SAPE    HA 9264   0.136   2.917   6.725  0.6409  0.2923 -1.6784
   94SAPE    HB 9265   0.312   2.930   6.741  1.3467 -1.0670 -0.9920
   94SAPE    C2 9266   0.242   2.844   6.551 -0.1193  0.5822  0.7107
   94SAPE    HS 9267   0.225   2.943   6.503 -2.0659 -0.7308 -1.5210
   94SAPE   O21 9268   0.153   2.742   6.494 -0.1214 -0.2527  0.1976
   94SAPE   C21 9269   0.034   2.783   6.478  0.3237  0.1067  0.2144
   94SAPE   O22 9270  -0.007   2.900   6.495 -0.3328  0.4470 -0.0299
   94SAPE   C22 9271  -0.051   2.665   6.430 -0.6657  0.9484  0.7194
   94SAPE   H2R 9272   0.022   2.603   6.373 -0.2052  1.6635  0.5097
   94SAPE   H2S 9273  -0.087   2.607   6.517 -0.3603  1.8638  1.4751
   94SAPE    C3 9274   0.375   2.788   6.507 -0.6463  0.1982  0.9466
   94SAPE    HX 9275   0.388   2.688   6.552 -3.8754 -1.4589 -1.4209
   94SAPE    HY 9276   0.456   2.861   6.531  0.9635 -1.2884  0.2617
   94SAPE   O31 9277   0.389   2.778   6.360  0.4963 -0.1595  0.0511
   94SAPE   C31 9278   0.406   2.657   6.312 -0.5407  0.0308  0.5742
   94SAPE   O32 9279   0.436   2.557   6.379 -0.0188 -0.2518  0.1714
   94SAPE   C32 9280   0.387   2.668   6.159  0.0554  0.2417  0.3669
   94SAPE   H2X 9281   0.414   2.563   6.132  0.2541  0.0617  1.2358
   94SAPE   H2Y 9282   0.466   2.726   6.108 -2.7868  1.3896 -3.1369
   94SAPE   C23 9283  -0.174   2.702   6.340 -0.2740  0.6934 -0.9005
   94SAPE   H3R 9284  -0.233   2.784   6.387  2.4552  1.2266  1.9292
   94SAPE   H3S 9285  -0.233   2.609   6.326 -1.3987  1.1299  0.6203
   94SAPE   C24 9286  -0.148   2.734   6.192 -0.3219  0.0718 -0.6390
   94SAPE   H4R 9287  -0.242   2.726   6.132 -0.0265 -1.2941 -0.9704
   94SAPE   H4S 9288  -0.081   2.651   6.159 -0.2809  0.4347 -1.4841
   94SAPE   C25 9289  -0.091   2.872   6.163 -0.3541  0.3312  0.3257
   94SAPE   H5R 9290  -0.002   2.900   6.220 -1.5269  2.5620  1.1888
   94SAPE   C26 9291  -0.142   2.973   6.090 -0.7883 -0.8204 -0.2275
   94SAPE   H6R 9292  -0.079   3.062   6.079 -0.0929 -1.4532 -1.5218
   94SAPE   C27 9293  -0.266   2.980   6.008  0.8634  0.3633  0.4768
   94SAPE   H7R 9294  -0.293   3.085   5.986 -1.3847  0.0111  1.3724
   94SAPE   H7S 9295  -0.351   2.939   6.067 -0.6022  0.3796 -1.5243
   94SAPE   C28 9296  -0.247   2.905   5.879  0.6980  0.1777 -0.4430
   94SAPE   H8R 9297  -0.268   2.799   5.896  1.9416  0.1064  0.8446
   94SAPE   C29 9298  -0.184   2.937   5.767  0.2704 -0.4659 -0.1462
   94SAPE   H9R 9299  -0.187   2.869   5.681  2.6284  0.1383 -0.7834
   94SAPE  C210 9300  -0.123   3.074   5.732  0.1740  0.6812 -0.0996
   94SAPE  H10R 9301  -0.020   3.060   5.694  0.5169 -0.3747  1.1394
   94SAPE  H10S 9302  -0.127   3.140   5.821  0.7623  0.4187  0.1245
   94SAPE  C211 9303  -0.213   3.145   5.630  0.4605 -0.1925  0.4690
   94SAPE  H11R 9304  -0.317   3.174   5.654 -0.7866 -2.0520 -2.2012
   94SAPE  C212 9305  -0.171   3.161   5.500  0.1023 -0.8698 -0.2714
   94SAPE  H12R 9306  -0.243   3.213   5.435 -1.7433  0.8621  2.9192
   94SAPE  C213 9307  -0.034   3.117   5.435 -0.2977  0.0024  0.2725
   94SAPE  H13R 9308  -0.042   3.015   5.392 -1.6517  0.5620 -0.8999
   94SAPE  H13S 9309   0.058   3.114   5.498  0.2819 -1.4372 -0.5805
   94SAPE  C214 9310   0.007   3.208   5.325  0.6310  0.1030  1.0756
   94SAPE  H14R 9311  -0.002   3.315   5.351 -0.3991  0.9043 -2.0804
   94SAPE  C215 9312   0.038   3.187   5.196 -0.0119 -0.1061 -0.2480
   94SAPE  H15R 9313   0.070   3.269   5.130 -0.3603  0.6270  0.4771
   94SAPE  C216 9314   0.041   3.052   5.134  0.7980  0.0408  0.1788
   94SAPE  H16R 9315   0.088   2.981   5.206 -0.1430 -0.7678  0.0127
   94SAPE  H16S 9316   0.100   3.052   5.040  0.3593 -0.4173 -0.1007
   94SAPE  C217 9317  -0.093   2.997   5.094  0.1434 -0.0619  0.2303
   94SAPE  H17R 9318  -0.162   3.014   5.180  1.8267  3.6184  1.0754
   94SAPE  H17S 9319  -0.081   2.887   5.084 -0.1077 -0.0281 -0.5082
   94SAPE  C218 9320  -0.164   3.059   4.967 -0.2398 -0.4143  0.4641
   94SAPE  H18R 9321  -0.156   3.169   4.979 -1.7274 -0.2742  0.3622
   94SAPE  H18S 9322  -0.273   3.041   4.977 -0.3359  0.0802  0.3340
   94SAPE  C219 9323  -0.101   3.041   4.831  0.9712  0.2550  0.2110
   94SAPE  H19R 9324  -0.054   2.941   4.831  1.2620  0.3126  2.6484
   94SAPE  H19S 9325  -0.018   3.114   4.819  1.2283  0.0816  0.9088
   94SAPE  C220 9326  -0.201   3.054   4.715  0.2098 -0.0257  0.0126
   94SAPE  H20R 9327  -0.293   2.994   4.732  1.0658 -1.1186  0.9192
   94SAPE  H20S 9328  -0.162   3.010   4.620 -0.5118  0.1712 -0.3831
   94SAPE  H20T 9329  -0.244   3.154   4.693  0.6928 -0.2919 -2.4588
   94SAPE   C33 9330   0.247   2.730   6.113  0.0745 -0.4524 -0.5656
   94SAPE   H3X 9331   0.239   2.831   6.159 -1.1807 -0.6769 -0.2504
   94SAPE   H3Y 9332   0.163   2.666   6.148 -0.4795  1.1549  1.2440
   94SAPE   C34 9333   0.225   2.750   5.964 -0.1599  0.2456 -0.5418
   94SAPE   H4X 9334   0.327   2.769   5.923  0.6352 -0.5839  0.9692
   94SAPE   H4Y 9335   0.168   2.844   5.956  1.3510  1.4738  1.9727
   94SAPE   C35 9336   0.162   2.626   5.895 -0.2836  0.2287 -0.7694
   94SAPE   H5X 9337   0.054   2.622   5.920 -0.0294  1.7188  0.7887
   94SAPE   H5Y 9338   0.213   2.534   5.929 -4.2357 -1.1252  2.1947
   94SAPE   C36 9339   0.168   2.637   5.740 -0.1920 -0.5688  0.1269
   94SAPE   H6X 9340   0.155   2.744   5.712 -0.3056 -0.3136  1.1224
   94SAPE   H6Y 9341   0.081   2.584   5.694 -1.0841  2.3569 -1.8709
   94SAPE   C37 9342   0.292   2.577   5.677 -0.0950  0.2743 -0.0107
   94SAPE   H7X 9343   0.280   2.467   5.686  3.1841 -0.0775  1.8162
   94SAPE   H7Y 9344   0.385   2.612   5.727  0.9852  0.4346 -2.0455
   94SAPE   C38 9345   0.311   2.628   5.527  0.0032  1.0413 -0.0892
   94SAPE   H8X 9346   0.318   2.737   5.544  0.5270  0.9484  0.3171
   94SAPE   H8Y 9347   0.219   2.602   5.470  0.2283  0.6054 -0.2567
   94SAPE   C39 9348   0.430   2.564   5.451 -0.7603 -0.5417  0.5214
   94SAPE   H9X 9349   0.423   2.454   5.465  1.9099 -0.8008  0.4437
   94SAPE   H9Y 9350   0.526   2.581   5.505  0.0139 -1.7224 -0.4427
   94SAPE  C310 9351   0.425   2.594   5.307 -0.3199  0.2483 -0.3956
   94SAPE  H10X 9352   0.530   2.578   5.274 -0.0010 -1.7297  1.3145
   94SAPE  H10Y 9353   0.413   2.704   5.303 -2.2094  0.0493 -1.6895
   94SAPE  C311 9354   0.326   2.513   5.222  0.0175  0.3289  0.4812
   94SAPE  H11X 9355   0.222   2.552   5.232  1.9365  6.1327  1.6154
   94SAPE  H11Y 9356   0.315   2.405   5.247  1.1570 -0.6276 -2.7522
   94SAPE  C312 9357   0.373   2.520   5.076  1.0321  0.6965  0.2790
   94SAPE  H12X 9358   0.471   2.467   5.080 -0.0619 -1.4833 -0.3548
   94SAPE  H12Y 9359   0.381   2.625   5.040  1.4457  0.7137  0.4198
   94SAPE  C313 9360   0.281   2.436   4.975 -0.0548  0.1210 -0.5200
   94SAPE  H13X 9361   0.191   2.499   4.957  0.1858  0.3416 -0.9530
   94SAPE  H13Y 9362   0.272   2.349   5.043 -0.6193 -0.2130 -1.0106
   94SAPE  C314 9363   0.342   2.415   4.840 -0.2456  0.1393 -0.5300
   94SAPE  H14X 9364   0.446   2.382   4.860 -0.5521 -0.7371 -0.2894
   94SAPE  H14Y 9365   0.345   2.510   4.783  1.0503  1.1677  1.1776
   94SAPE  C315 9366   0.281   2.300   4.756  0.2767  0.0371 -0.3126
   94SAPE  H15X 9367   0.194   2.327   4.693 -1.0219 -0.5602  1.1538
   94SAPE  H15Y 9368   0.239   2.221   4.822  0.6973  1.0420  1.2391
   94SAPE  C316 9369   0.380   2.239   4.653 -0.2584  0.0969 -0.6248
   94SAPE  H16X 9370   0.431   2.162   4.714  0.4223  2.5924  2.1899
   94SAPE  H16Y 9371   0.448   2.325   4.630  1.8619 -1.4327 -0.3793
   94SAPE  C317 9372   0.320   2.180   4.532 -0.0970 -0.4967 -0.2329
   94SAPE  H17X 9373   0.251   2.258   4.492  0.7223  1.0540  1.2436
   94SAPE  H17Y 9374   0.257   2.097   4.571 -0.2956  0.2168  1.0303
   94SAPE  C318 9375   0.418   2.125   4.431  0.2438  0.5923 -0.3209
   94SAPE  H18X 9376   0.490   2.061   4.488 -0.7586  1.6483  2.2876
   94SAPE  H18Y 9377   0.479   2.208   4.390 -0.0130  1.0787  0.2634
   94SAPE  H18Z 9378   0.361   2.085   4.344 -0.0678  1.9266 -0.7546
   95SAPE     N 9379   3.523   5.299   7.060 -0.0385  0.2843 -0.1203
   95SAPE   HN1 9380   3.472   5.283   6.971  0.1766 -1.3175  0.0075
   95SAPE   HN2 9381   3.449   5.302   7.132  1.5741 -0.3482  1.6386
   95SAPE   HN3 9382   3.565   5.394   7.058 -1.5962  1.0467  1.4057
   95SAPE   C12 9383   3.629   5.177   7.078 -0.1360  0.0508  0.6797
   95SAPE  H12A 9384   3.568   5.086   7.097 -0.2171  0.1100  0.7070
   95SAPE  H12B 9385   3.694   5.203   7.164  1.8377 -2.1932 -0.0242
   95SAPE   C11 9386   3.724   5.164   6.960 -0.7887 -0.1680  0.6851
   95SAPE  H11A 9387   3.691   5.090   6.884  2.2618 -0.4312 -0.5300
   95SAPE  H11B 9388   3.818   5.120   6.999  0.0037  0.7248 -0.1393
   95SAPE     P 9389   3.760   5.320   6.747 -0.2024 -0.4526 -0.1552
   95SAPE   O13 9390   3.682   5.446   6.729 -0.1849  0.1606  0.1624
   95SAPE   O14 9391   3.899   5.317   6.706  0.4118 -0.0459  0.6646
   95SAPE   O12 9392   3.766   5.292   6.899 -0.4090  0.4012 -0.1544
   95SAPE   O11 9393   3.677   5.201   6.687 -0.4598  0.0072 -0.1132
   95SAPE    C1 9394   3.739   5.109   6.595  0.0407 -0.1716 -0.3616
   95SAPE    HA 9395   3.828   5.060   6.640  0.0334 -1.0203 -1.2291
   95SAPE    HB 9396   3.658   5.034   6.581  0.9101 -1.0110 -1.0333
   95SAPE    C2 9397   3.772   5.166   6.453  0.1257  0.1552 -0.0396
   95SAPE    HS 9398   3.870   5.217   6.461  0.3898 -0.2048 -0.8316
   95SAPE   O21 9399   3.667   5.263   6.423  0.6282  0.0029 -0.1697
   95SAPE   C21 9400   3.703   5.353   6.339  0.1584 -0.5643 -0.7721
   95SAPE   O22 9401   3.816   5.389   6.309 -0.1213  0.2392  0.0871
   95SAPE   C22 9402   3.576   5.401   6.270 -0.7057 -0.5603  0.5267
   95SAPE   H2R 9403   3.489   5.358   6.325 -1.6127 -0.8297 -1.0773
   95SAPE   H2S 9404   3.588   5.512   6.270  3.2105 -0.8718  0.0360
   95SAPE    C3 9405   3.775   5.056   6.339  0.2078 -0.5321  0.2052
   95SAPE    HX 9406   3.681   4.998   6.338  0.3923 -0.8258 -0.8154
   95SAPE    HY 9407   3.852   4.981   6.370  1.1359 -0.0168 -0.7901
   95SAPE   O31 9408   3.793   5.096   6.205  0.7745  0.1540  0.2275
   95SAPE   C31 9409   3.920   5.130   6.167  0.6878  0.4950  0.1989
   95SAPE   O32 9410   4.018   5.122   6.239 -0.1714  0.0394  0.0030
   95SAPE   C32 9411   3.911   5.188   6.024  0.1008  0.3539  0.6360
   95SAPE   H2X 9412   3.848   5.279   6.026  0.2846  0.4876  0.3983
   95SAPE   H2Y 9413   3.864   5.105   5.967  0.5753  1.5751 -1.6596
   95SAPE   C23 9414   3.571   5.344   6.129  0.2495 -0.2469  0.2288
   95SAPE   H3R 9415   3.595   5.236   6.137  1.1565  0.0305  1.4142
   95SAPE   H3S 9416   3.649   5.394   6.068  2.9758 -3.7799  0.5483
   95SAPE   C24 9417   3.427   5.372   6.070 -0.4773 -0.6164 -0.2820
   95SAPE   H4R 9418   3.450   5.382   5.962  0.2559 -1.4575 -0.2089
   95SAPE   H4S 9419   3.404   5.472   6.112  0.8385 -0.9325  1.3019
   95SAPE   C25 9420   3.311   5.283   6.104  0.3016 -0.7648 -0.4918
   95SAPE   H5R 9421   3.313   5.242   6.206 -2.2061 -2.8779 -1.1926
   95SAPE   C26 9422   3.213   5.237   6.029 -0.0515  0.1652 -0.0459
   95SAPE   H6R 9423   3.145   5.164   6.075  2.3355 -2.4736 -0.4382
   95SAPE   C27 9424   3.199   5.270   5.886  0.5645  0.4670  0.4589
   95SAPE   H7R 9425   3.292   5.240   5.833  0.6540 -0.7464  1.2555
   95SAPE   H7S 9426   3.209   5.380   5.878  0.3529  0.5780  1.5943
   95SAPE   C28 9427   3.076   5.221   5.812  0.2529  0.1088  0.2878
   95SAPE   H8R 9428   2.981   5.277   5.813 -0.9104 -1.7478 -1.1204
   95SAPE   C29 9429   3.074   5.108   5.738  0.5083  0.3618  0.9514
   95SAPE   H9R 9430   2.977   5.082   5.695  3.0518 -1.8711 -4.2788
   95SAPE  C210 9431   3.179   5.003   5.716 -0.4271 -0.6985  1.0731
   95SAPE  H10R 9432   3.157   4.905   5.765  1.6789 -2.4086 -1.1132
   95SAPE  H10S 9433   3.280   5.037   5.747  0.7601 -0.7238 -2.3336
   95SAPE  C211 9434   3.191   4.977   5.566 -0.3271  0.8307  0.0792
   95SAPE  H11R 9435   3.281   5.022   5.522 -0.3736  0.1330 -0.7653
   95SAPE  C212 9436   3.101   4.910   5.487  0.9392 -0.6066  0.2751
   95SAPE  H12R 9437   3.126   4.904   5.380  2.0876 -1.6496  0.5749
   95SAPE  C213 9438   2.982   4.827   5.540 -0.3796  0.3451 -0.0953
   95SAPE  H13R 9439   2.888   4.867   5.496  0.8835  2.6641 -0.8496
   95SAPE  H13S 9440   2.988   4.850   5.649 -1.4850 -0.7019  0.2047
   95SAPE  C214 9441   2.985   4.687   5.501 -0.0968 -0.1958 -1.2501
   95SAPE  H14R 9442   3.045   4.619   5.563 -2.8552 -2.1388 -0.5558
   95SAPE  C215 9443   2.927   4.637   5.396  0.0103 -0.6792 -0.2705
   95SAPE  H15R 9444   2.935   4.529   5.376  1.3822 -0.7823  0.7007
   95SAPE  C216 9445   2.830   4.705   5.304 -0.3891  0.8363  0.1275
   95SAPE  H16R 9446   2.773   4.777   5.366 -0.9619  2.6613 -2.3887
   95SAPE  H16S 9447   2.751   4.635   5.269 -0.0874  1.0341 -0.9796
   95SAPE  C217 9448   2.901   4.760   5.184 -0.1308 -0.2125  0.0748
   95SAPE  H17R 9449   2.916   4.680   5.109 -0.1862 -0.2227  0.0751
   95SAPE  H17S 9450   2.995   4.813   5.213 -0.8887  0.2771  1.7109
   95SAPE  C218 9451   2.813   4.863   5.113 -0.8890  0.2999 -0.5710
   95SAPE  H18R 9452   2.814   4.959   5.169  0.4697  0.2819 -0.5387
   95SAPE  H18S 9453   2.714   4.815   5.093 -1.5963  0.1850  2.6504
   95SAPE  C219 9454   2.874   4.895   4.978  0.1540 -0.4015  0.3766
   95SAPE  H19R 9455   2.884   4.801   4.920  0.2563  0.7316 -1.5171
   95SAPE  H19S 9456   2.966   4.954   4.999 -0.3280  1.7687 -2.9247
   95SAPE  C220 9457   2.781   4.980   4.883  0.0533  0.8876  0.7695
   95SAPE  H20R 9458   2.789   4.934   4.782 -2.3681 -2.2805  1.8463
   95SAPE  H20S 9459   2.814   5.086   4.888 -0.1324  1.2280 -2.5667
   95SAPE  H20T 9460   2.675   4.974   4.915  0.2978  0.0521  1.4179
   95SAPE   C33 9461   4.045   5.207   5.952 -0.0466 -0.0721 -0.1850
   95SAPE   H3X 9462   4.120   5.126   5.947  1.4467  1.2258  0.4491
   95SAPE   H3Y 9463   4.082   5.300   6.000 -0.6162  0.1086 -0.0835
   95SAPE   C34 9464   4.015   5.254   5.809  0.4430 -0.2518  0.1771
   95SAPE   H4X 9465   3.945   5.340   5.810 -0.8782 -1.2688 -0.5447
   95SAPE   H4Y 9466   3.961   5.174   5.753  0.9951  1.2428 -2.6965
   95SAPE   C35 9467   4.142   5.274   5.722 -0.2256  0.0303  0.6221
   95SAPE   H5X 9468   4.189   5.174   5.727  0.0740  0.1338 -0.0393
   95SAPE   H5Y 9469   4.205   5.346   5.777  1.3989 -1.8494  1.3331
   95SAPE   C36 9470   4.120   5.299   5.571  0.3591  0.3271  0.9657
   95SAPE   H6X 9471   4.219   5.297   5.520  0.9281  2.9201  1.8094
   95SAPE   H6Y 9472   4.084   5.405   5.569  1.2718  0.6566  1.3327
   95SAPE   C37 9473   4.022   5.206   5.503 -0.3064  0.7621  0.4240
   95SAPE   H7X 9474   3.924   5.253   5.479  0.5449  1.6639 -1.4280
   95SAPE   H7Y 9475   4.015   5.109   5.558 -0.8556  1.5644  1.8281
   95SAPE   C38 9476   4.083   5.164   5.370 -0.0405 -1.1104  0.3077
   95SAPE   H8X 9477   4.177   5.108   5.388  1.7263  0.7297 -2.4234
   95SAPE   H8Y 9478   4.106   5.259   5.318 -0.7780 -0.5581  0.9679
   95SAPE   C39 9479   4.003   5.079   5.270 -0.2796 -0.0016  0.4134
   95SAPE   H9X 9480   4.065   5.056   5.181  0.7395 -2.5059  1.6641
   95SAPE   H9Y 9481   3.912   5.138   5.247 -0.2236  0.0462  0.3187
   95SAPE  C310 9482   3.953   4.946   5.333  0.1241  0.6223 -0.1761
   95SAPE  H10X 9483   3.919   4.955   5.438 -0.8881  2.7379 -0.6263
   95SAPE  H10Y 9484   4.041   4.878   5.326 -1.1573 -0.9889 -1.4223
   95SAPE  C311 9485   3.836   4.900   5.248  0.4127  0.7328  0.2778
   95SAPE  H11X 9486   3.787   4.989   5.203  2.8292  1.3089 -1.4476
   95SAPE  H11Y 9487   3.766   4.835   5.304 -1.7681  1.5320 -1.3640
   95SAPE  C312 9488   3.885   4.812   5.128 -0.0892  0.5668 -0.6525
   95SAPE  H12X 9489   3.938   4.725   5.173 -1.8523  0.8205  2.1589
   95SAPE  H12Y 9490   3.953   4.875   5.066 -0.3241  1.5637  0.0850
   95SAPE  C313 9491   3.768   4.762   5.044 -0.4961 -0.0809  0.4171
   95SAPE  H13X 9492   3.720   4.848   4.992 -0.6699 -0.8912 -0.7880
   95SAPE  H13Y 9493   3.692   4.720   5.113 -0.3872  0.0823  0.6385
   95SAPE  C314 9494   3.827   4.651   4.953 -0.3333  0.7330  0.3626
   95SAPE  H14X 9495   3.838   4.561   5.017  0.2156  0.6657  0.1799
   95SAPE  H14Y 9496   3.929   4.679   4.919  0.6112  0.7558  2.9944
   95SAPE  C315 9497   3.751   4.612   4.829  0.4211 -0.3174  0.0031
   95SAPE  H15X 9498   3.640   4.616   4.828  0.4295 -0.0655 -1.1364
   95SAPE  H15Y 9499   3.759   4.502   4.815 -2.5112 -0.7584  0.9692
   95SAPE  C316 9500   3.801   4.677   4.700  0.5030 -0.1243 -0.0576
   95SAPE  H16X 9501   3.896   4.625   4.678  1.5401  1.5771  0.2155
   95SAPE  H16Y 9502   3.813   4.786   4.720 -0.6116  0.2300 -1.1796
   95SAPE  C317 9503   3.712   4.642   4.580  0.1274  0.6404 -0.4640
   95SAPE  H17X 9504   3.602   4.660   4.586  0.0038 -0.3795  1.2147
   95SAPE  H17Y 9505   3.722   4.533   4.561 -0.0993  0.4428  0.4919
   95SAPE  C318 9506   3.767   4.702   4.450  0.2892 -0.8207  0.2231
   95SAPE  H18X 9507   3.763   4.813   4.457  1.1996 -0.7960  0.4409
   95SAPE  H18Y 9508   3.703   4.674   4.363  0.4282  1.8256 -0.8445
   95SAPE  H18Z 9509   3.871   4.673   4.426  0.3533 -1.0166  0.7348
   96SAPE     N 9510   1.093   1.816   6.391 -0.4899 -0.2985  0.0249
   96SAPE   HN1 9511   1.106   1.739   6.323  0.9842  1.1085 -1.3691
   96SAPE   HN2 9512   1.044   1.900   6.356 -0.2653  0.9953  2.5316
   96SAPE   HN3 9513   1.190   1.851   6.405  0.5700 -3.0848  0.4038
   96SAPE   C12 9514   1.026   1.780   6.521  0.9773  0.4164 -0.9376
   96SAPE  H12A 9515   0.985   1.866   6.578  0.6390  0.6564 -1.5358
   96SAPE  H12B 9516   1.104   1.728   6.582  2.4366  2.1266 -1.2502
   96SAPE   C11 9517   0.901   1.691   6.494 -0.0896 -0.4795 -0.6067
   96SAPE  H11A 9518   0.850   1.664   6.589  2.4302  0.5591  1.1516
   96SAPE  H11B 9519   0.930   1.590   6.458  2.5366  0.6656 -1.9854
   96SAPE     P 9520   0.699   1.851   6.423  0.6714 -0.1466  0.0126
   96SAPE   O13 9521   0.577   1.776   6.447  0.1275 -0.3363  0.6598
   96SAPE   O14 9522   0.740   1.942   6.533 -0.4648  0.3129  0.6283
   96SAPE   O12 9523   0.818   1.746   6.392  0.7424  0.1168 -0.3800
   96SAPE   O11 9524   0.674   1.928   6.291  1.2465 -0.0606  0.1691
   96SAPE    C1 9525   0.675   1.867   6.168  0.1481  0.2917 -0.0913
   96SAPE    HA 9526   0.641   1.761   6.164 -0.0321  0.2128  2.0776
   96SAPE    HB 9527   0.602   1.926   6.108  0.5845  1.8544  0.8603
   96SAPE    C2 9528   0.813   1.873   6.092 -0.2053 -0.4570 -0.0042
   96SAPE    HS 9529   0.893   1.815   6.143 -0.4153 -0.5335  0.2366
   96SAPE   O21 9530   0.858   2.014   6.069  0.2911  0.2994 -0.2662
   96SAPE   C21 9531   0.916   2.075   6.180  0.6030  0.3261  1.1370
   96SAPE   O22 9532   0.966   2.016   6.274 -0.8537  0.1975  0.1256
   96SAPE   C22 9533   0.905   2.229   6.169  0.1562  0.6661 -1.0032
   96SAPE   H2R 9534   1.003   2.271   6.200  0.4168 -1.5720  1.5397
   96SAPE   H2S 9535   0.886   2.257   6.063 -1.2436 -1.1096 -1.2669
   96SAPE    C3 9536   0.813   1.800   5.952  0.2344 -0.0436  0.8152
   96SAPE    HX 9537   0.923   1.796   5.932 -0.0854 -0.7219 -1.0159
   96SAPE    HY 9538   0.768   1.861   5.871 -0.7760  0.8163  2.0060
   96SAPE   O31 9539   0.754   1.668   5.953 -0.3592  0.0111  0.1010
   96SAPE   C31 9540   0.817   1.565   5.901  0.1871  0.0288 -0.5066
   96SAPE   O32 9541   0.931   1.563   5.860  0.2997  0.0083  0.2999
   96SAPE   C32 9542   0.731   1.442   5.915 -0.5502 -0.3454 -0.3003
   96SAPE   H2X 9543   0.630   1.466   5.876 -1.8001 -1.3295  2.1047
   96SAPE   H2Y 9544   0.734   1.417   6.023  0.8665  0.6948 -0.0645
   96SAPE   C23 9545   0.790   2.273   6.266 -0.3522 -0.3916  0.2435
   96SAPE   H3R 9546   0.831   2.281   6.369 -1.8549  1.6867  0.7439
   96SAPE   H3S 9547   0.708   2.199   6.274 -2.2678  1.3545 -1.8698
   96SAPE   C24 9548   0.726   2.415   6.223 -0.2231 -0.4790 -0.7458
   96SAPE   H4R 9549   0.648   2.437   6.298  0.4175 -0.8742  0.0561
   96SAPE   H4S 9550   0.675   2.391   6.127 -2.3983  0.8417  0.0024
   96SAPE   C25 9551   0.843   2.520   6.223  0.6098  0.2310  0.9132
   96SAPE   H5R 9552   0.910   2.522   6.311 -0.0255 -2.0396  1.5085
   96SAPE   C26 9553   0.880   2.603   6.123  0.4340  0.5340  0.3364
   96SAPE   H6R 9554   0.967   2.670   6.134  0.7088  0.3069 -0.3347
   96SAPE   C27 9555   0.820   2.615   5.985  0.0353  0.2805  0.4741
   96SAPE   H7R 9556   0.762   2.521   5.981 -0.9820  0.7791  2.1663
   96SAPE   H7S 9557   0.895   2.619   5.904 -1.2183  0.2058 -0.7288
   96SAPE   C28 9558   0.714   2.728   5.974 -0.0307 -0.1377  0.0569
   96SAPE   H8R 9559   0.684   2.764   6.073  0.3604 -1.5101  0.7013
   96SAPE   C29 9560   0.670   2.799   5.867  0.5360  0.2704 -0.4578
   96SAPE   H9R 9561   0.587   2.868   5.890 -0.2934 -1.1965  1.1869
   96SAPE  C210 9562   0.719   2.756   5.735  0.3502  0.1629  0.3132
   96SAPE  H10R 9563   0.648   2.792   5.657 -0.6300 -2.9056 -0.3205
   96SAPE  H10S 9564   0.697   2.649   5.717 -0.1664  0.3306 -0.0765
   96SAPE  C211 9565   0.855   2.775   5.676  0.1853 -0.6164  0.0312
   96SAPE  H11R 9566   0.917   2.844   5.735 -0.8674  0.2117  0.2198
   96SAPE  C212 9567   0.910   2.712   5.572 -0.0480  0.2256 -0.3067
   96SAPE  H12R 9568   1.017   2.731   5.555  0.4469 -1.8673  0.2150
   96SAPE  C213 9569   0.847   2.612   5.479 -0.5572  1.0853 -0.3842
   96SAPE  H13R 9570   0.741   2.590   5.506 -0.3934 -1.0703 -1.2224
   96SAPE  H13S 9571   0.903   2.519   5.505  0.8131  2.2244  0.9093
   96SAPE  C214 9572   0.873   2.657   5.338 -0.0642 -0.0752 -0.3712
   96SAPE  H14R 9573   0.873   2.766   5.325  1.6226  0.3074  2.1953
   96SAPE  C215 9574   0.900   2.576   5.232  0.0027 -0.5147 -0.3648
   96SAPE  H15R 9575   0.926   2.623   5.136  1.6573  0.5375  0.5501
   96SAPE  C216 9576   0.898   2.425   5.224 -0.0197  0.0381 -0.4383
   96SAPE  H16R 9577   0.798   2.382   5.249  1.8411 -3.5655  1.6582
   96SAPE  H16S 9578   0.970   2.394   5.303  0.6042  1.2417 -0.5179
   96SAPE  C217 9579   0.932   2.349   5.093  0.4088  0.7222 -0.4203
   96SAPE  H17R 9580   0.929   2.249   5.141  0.0443  1.2006  0.5683
   96SAPE  H17S 9581   1.037   2.365   5.059  0.3571 -0.9524 -1.4796
   96SAPE  C218 9582   0.817   2.369   4.989 -0.2512  1.2273  0.5523
   96SAPE  H18R 9583   0.815   2.470   4.944  1.9771  1.0217 -0.1523
   96SAPE  H18S 9584   0.721   2.350   5.042 -0.8644 -0.4801 -1.0977
   96SAPE  C219 9585   0.819   2.258   4.884 -0.5836 -0.0654  0.1190
   96SAPE  H19R 9586   0.828   2.162   4.939  1.1606 -0.4003 -0.6798
   96SAPE  H19S 9587   0.905   2.279   4.817 -3.0086  1.6274 -2.6758
   96SAPE  C220 9588   0.684   2.246   4.809 -0.4183 -0.4792 -0.1034
   96SAPE  H20R 9589   0.647   2.347   4.782  1.4920 -0.2003 -1.9020
   96SAPE  H20S 9590   0.611   2.183   4.864 -0.6621 -0.7637 -0.7447
   96SAPE  H20T 9591   0.702   2.191   4.714 -1.0003  0.1884 -0.6086
   96SAPE   C33 9592   0.782   1.320   5.839  0.9292  0.1864  0.1494
   96SAPE   H3X 9593   0.876   1.293   5.892  0.9463  0.4450  0.2562
   96SAPE   H3Y 9594   0.794   1.347   5.732  0.0491 -0.1192 -0.0289
   96SAPE   C34 9595   0.690   1.195   5.854  0.1499  1.0954 -0.0133
   96SAPE   H4X 9596   0.722   1.128   5.771 -0.3579 -0.5626  1.0679
   96SAPE   H4Y 9597   0.585   1.214   5.825 -0.1618  0.1853  0.4590
   96SAPE   C35 9598   0.677   1.132   5.988 -0.2034  0.5227  0.2375
   96SAPE   H5X 9599   0.590   1.063   5.987  0.4162 -0.3517  1.9318
   96SAPE   H5Y 9600   0.652   1.210   6.063  0.0103  1.9377 -1.1178
   96SAPE   C36 9601   0.803   1.060   6.036  0.6141  0.7881  0.4142
   96SAPE   H6X 9602   0.809   1.033   6.144 -1.9760  1.9793  0.9377
   96SAPE   H6Y 9603   0.896   1.115   6.009  1.7058  0.7326  3.5868
   96SAPE   C37 9604   0.823   0.932   5.958  0.2867  0.0501  0.2952
   96SAPE   H7X 9605   0.829   0.950   5.849 -3.8566 -0.8862 -0.2580
   96SAPE   H7Y 9606   0.733   0.869   5.974 -1.1396  1.8375 -0.3801
   96SAPE   C38 9607   0.948   0.858   6.016 -0.1710  0.0119 -0.2108
   96SAPE   H8X 9608   0.926   0.822   6.119 -1.2178  1.3314  0.0567
   96SAPE   H8Y 9609   1.024   0.939   6.017 -1.0115  0.9004 -2.3486
   96SAPE   C39 9610   0.982   0.738   5.921 -0.3849  0.5980 -0.0343
   96SAPE   H9X 9611   0.996   0.769   5.815 -0.0524  1.1620  0.1639
   96SAPE   H9Y 9612   0.907   0.661   5.946 -0.0832  1.2302  3.3425
   96SAPE  C310 9613   1.121   0.674   5.955  0.3941  0.8855  0.4990
   96SAPE  H10X 9614   1.192   0.755   5.981 -0.4205  1.2037  1.7755
   96SAPE  H10Y 9615   1.174   0.607   5.884  1.5879  0.1153  2.0686
   96SAPE  C311 9616   1.105   0.588   6.084 -0.0231 -0.4298 -0.4391
   96SAPE  H11X 9617   1.011   0.618   6.136 -0.8812  0.4913 -2.4139
   96SAPE  H11Y 9618   1.189   0.587   6.157  0.3968 -3.8072 -0.8201
   96SAPE  C312 9619   1.088   0.437   6.054 -0.0570  0.2140  0.2549
   96SAPE  H12X 9620   1.018   0.415   5.970  0.6322 -0.7497 -0.0859
   96SAPE  H12Y 9621   1.063   0.385   6.149  3.2138 -0.1254  1.0392
   96SAPE  C313 9622   1.229   0.374   6.011  0.1892 -1.1775 -0.2303
   96SAPE  H13X 9623   1.303   0.418   6.082 -0.9968  0.9534 -0.2315
   96SAPE  H13Y 9624   1.254   0.401   5.907 -0.5539 -0.0189 -0.1233
   96SAPE  C314 9625   1.225   0.226   6.013  0.3267  0.2147  0.3534
   96SAPE  H14X 9626   1.178   0.194   5.918 -2.0920  0.9043  1.2372
   96SAPE  H14Y 9627   1.154   0.195   6.093 -0.6976 -0.1203 -0.6583
   96SAPE  C315 9628   1.368   0.164   6.029 -0.0373  0.1196  0.1799
   96SAPE  H15X 9629   1.406   0.204   6.125 -2.6318  0.1506  1.2757
   96SAPE  H15Y 9630   1.438   0.208   5.955  0.3579 -1.1895 -0.2605
   96SAPE  C316 9631   1.373   0.008   6.040 -0.4513 -0.0905  0.5490
   96SAPE  H16X 9632   1.282  -0.021   6.097 -1.7094 -1.7950 -2.1200
   96SAPE  H16Y 9633   1.457  -0.025   6.105 -0.5633 -0.8669  0.3075
   96SAPE  C317 9634   1.391  -0.073   5.908  0.4336  0.3270 -0.7948
   96SAPE  H17X 9635   1.432  -0.007   5.828 -0.3072  0.2234 -1.2687
   96SAPE  H17Y 9636   1.287  -0.094   5.876 -0.1051  0.7843  0.5823
   96SAPE  C318 9637   1.479  -0.199   5.929  0.8560 -0.7251 -0.3406
   96SAPE  H18X 9638   1.423  -0.252   6.009 -2.3891  1.8320 -0.6926
   96SAPE  H18Y 9639   1.586  -0.186   5.953  0.6066 -1.2896  1.1673
   96SAPE  H18Z 9640   1.470  -0.246   5.828 -1.4739  2.3165 -1.7120
   97SAPE     N 9641   0.668   1.233   6.502 -0.0779  0.0689 -0.2424
   97SAPE   HN1 9642   0.566   1.249   6.484 -0.0369  0.6773  0.0445
   97SAPE   HN2 9643   0.678   1.130   6.497 -0.3059  0.1127 -3.6646
   97SAPE   HN3 9644   0.683   1.265   6.600 -0.5299  0.4950 -0.3082
   97SAPE   C12 9645   0.761   1.308   6.411  0.1635  0.8120  0.2111
   97SAPE  H12A 9646   0.731   1.415   6.415 -0.8378  0.5206  2.8305
   97SAPE  H12B 9647   0.732   1.270   6.311 -1.0440  0.6010  0.6192
   97SAPE   C11 9648   0.907   1.286   6.456  0.8699  0.4314 -0.6962
   97SAPE  H11A 9649   0.925   1.320   6.560  0.5403 -0.5253 -0.3127
   97SAPE  H11B 9650   0.970   1.356   6.397  0.3004 -0.4474 -2.4422
   97SAPE     P 9651   1.068   1.075   6.461  0.3678  0.3786 -0.2994
   97SAPE   O13 9652   1.118   1.127   6.592  0.8399 -0.3519 -0.0490
   97SAPE   O14 9653   1.041   0.930   6.464 -0.4930  0.0728  0.1313
   97SAPE   O12 9654   0.933   1.149   6.436  0.0023  0.3708  0.0133
   97SAPE   O11 9655   1.157   1.125   6.337 -0.5134 -0.1914 -0.5465
   97SAPE    C1 9656   1.147   1.065   6.209  0.5990  0.3408  0.3434
   97SAPE    HA 9657   1.144   0.954   6.219 -0.7900  0.0086 -2.6769
   97SAPE    HB 9658   1.053   1.097   6.161  0.5657  1.8800  1.3553
   97SAPE    C2 9659   1.271   1.089   6.128 -0.5416  0.1396  0.2966
   97SAPE    HS 9660   1.288   1.198   6.112  1.0087 -0.1384 -0.1572
   97SAPE   O21 9661   1.271   1.012   6.005  0.1378  0.4989 -0.2413
   97SAPE   C21 9662   1.225   1.079   5.900 -0.7987 -0.7959 -0.5051
   97SAPE   O22 9663   1.180   1.191   5.893  0.2307 -0.0217 -0.2286
   97SAPE   C22 9664   1.268   0.999   5.782 -0.2094  0.1276 -0.0659
   97SAPE   H2R 9665   1.376   0.971   5.782 -0.2371 -0.1006 -2.2136
   97SAPE   H2S 9666   1.212   0.903   5.780  0.4489 -0.2522 -1.7162
   97SAPE    C3 9667   1.389   1.046   6.213  0.4209 -0.0259  0.4076
   97SAPE    HX 9668   1.371   0.941   6.246  1.3722 -0.2373  0.2750
   97SAPE    HY 9669   1.385   1.103   6.309 -1.3240  3.6085 -1.6140
   97SAPE   O31 9670   1.519   1.055   6.145  0.0872  0.1206  0.2198
   97SAPE   C31 9671   1.619   1.038   6.228 -0.0451 -0.0476  0.2121
   97SAPE   O32 9672   1.609   1.034   6.351 -0.2419  0.1801 -0.0889
   97SAPE   C32 9673   1.758   1.025   6.164  0.0253 -0.2062 -0.1588
   97SAPE   H2X 9674   1.740   0.957   6.078 -2.2255 -0.8767  0.7585
   97SAPE   H2Y 9675   1.842   0.985   6.225  1.5279  1.1554 -1.2541
   97SAPE   C23 9676   1.216   1.061   5.648  0.2943  0.5178  0.4177
   97SAPE   H3R 9677   1.273   1.152   5.622 -0.3167 -0.0895 -3.7548
   97SAPE   H3S 9678   1.111   1.095   5.662  0.0094 -0.8356  1.9073
   97SAPE   C24 9679   1.218   0.962   5.523 -1.0498 -0.4109  0.5113
   97SAPE   H4R 9680   1.325   0.935   5.511 -1.1257 -0.6323  0.3254
   97SAPE   H4S 9681   1.189   1.023   5.436 -1.8280  2.2720  2.5306
   97SAPE   C25 9682   1.140   0.830   5.536  0.2497  0.6751 -0.0416
   97SAPE   H5R 9683   1.196   0.737   5.553 -0.8539  0.0275  0.1403
   97SAPE   C26 9684   1.010   0.818   5.515  0.2775 -0.1106  0.3850
   97SAPE   H6R 9685   0.975   0.717   5.488  0.4802  0.2151 -1.1713
   97SAPE   C27 9686   0.906   0.925   5.477  0.1629  0.3421  0.4793
   97SAPE   H7R 9687   0.910   0.931   5.366  1.0763 -4.3170  0.0515
   97SAPE   H7S 9688   0.941   1.024   5.515 -2.5835  0.5726  2.7448
   97SAPE   C28 9689   0.766   0.917   5.533  0.4142  0.4473  0.3446
   97SAPE   H8R 9690   0.742   0.836   5.603  1.6768  1.6142  2.1993
   97SAPE   C29 9691   0.677   1.014   5.520 -0.8597  0.0158  0.2819
   97SAPE   H9R 9692   0.580   1.007   5.570 -0.4048  0.9079  1.3354
   97SAPE  C210 9693   0.687   1.134   5.436  0.3634 -1.1957  0.2433
   97SAPE  H10R 9694   0.790   1.165   5.408  0.3621 -0.8299  0.6338
   97SAPE  H10S 9695   0.654   1.211   5.509  2.8271 -1.4429  1.7208
   97SAPE  C211 9696   0.611   1.121   5.307 -0.1444  0.3706 -0.4239
   97SAPE  H11R 9697   0.553   1.028   5.290 -0.4881  0.6349 -0.7256
   97SAPE  C212 9698   0.587   1.208   5.206 -0.4491  0.4527 -0.1364
   97SAPE  H12R 9699   0.513   1.179   5.130 -0.5153  0.6362 -0.1429
   97SAPE  C213 9700   0.639   1.352   5.216 -0.8073 -0.0349  0.5802
   97SAPE  H13R 9701   0.709   1.362   5.302  0.1882 -2.1291  0.0889
   97SAPE  H13S 9702   0.550   1.416   5.235 -0.5247  0.6919 -0.4558
   97SAPE  C214 9703   0.709   1.379   5.084  0.2368  0.4085 -0.2824
   97SAPE  H14R 9704   0.763   1.289   5.051  1.8460  0.9312  0.7514
   97SAPE  C215 9705   0.703   1.486   5.006  0.2925 -0.1336  0.7788
   97SAPE  H15R 9706   0.776   1.483   4.924  0.0904 -1.0298  0.6198
   97SAPE  C216 9707   0.617   1.604   5.026  0.0206  0.0198 -0.7160
   97SAPE  H16R 9708   0.564   1.609   5.123  0.0815  2.2640 -0.7325
   97SAPE  H16S 9709   0.537   1.598   4.949  0.6937 -0.7640 -1.3730
   97SAPE  C217 9710   0.690   1.734   5.001 -0.3008 -0.4316 -0.6458
   97SAPE  H17R 9711   0.773   1.755   5.072  0.2318  0.9257 -1.6107
   97SAPE  H17S 9712   0.615   1.812   5.026  0.4023 -0.0784  0.4480
   97SAPE  C218 9713   0.735   1.750   4.854  0.5096  0.0983 -0.6241
   97SAPE  H18R 9714   0.648   1.715   4.793 -1.5743  3.2648  0.2794
   97SAPE  H18S 9715   0.821   1.683   4.832 -0.4264 -1.7102  0.8531
   97SAPE  C219 9716   0.764   1.899   4.812  0.0297 -0.3846 -0.0659
   97SAPE  H19R 9717   0.858   1.927   4.864 -0.5057  0.5689  0.4159
   97SAPE  H19S 9718   0.688   1.965   4.860 -1.3022 -0.6103 -1.7680
   97SAPE  C220 9719   0.761   1.915   4.664 -0.0342 -0.5130  0.6210
   97SAPE  H20R 9720   0.818   2.005   4.632 -0.6950 -0.1085  0.5833
   97SAPE  H20S 9721   0.658   1.914   4.625 -0.4619 -0.8375  1.7060
   97SAPE  H20T 9722   0.821   1.833   4.619  1.3481  0.6153  0.3504
   97SAPE   C33 9723   1.812   1.166   6.109  0.1658  0.4031 -0.2233
   97SAPE   H3X 9724   1.916   1.142   6.078  0.4226  0.5863  0.4754
   97SAPE   H3Y 9725   1.816   1.226   6.202  0.1613  1.2491 -0.7628
   97SAPE   C34 9726   1.721   1.224   6.005 -0.4386  0.5235  0.3257
   97SAPE   H4X 9727   1.768   1.320   5.974  0.6340  0.5162  1.8351
   97SAPE   H4Y 9728   1.615   1.245   6.032 -1.1990 -2.1220 -0.2845
   97SAPE   C35 9729   1.721   1.142   5.879  0.5719  0.6285  0.8551
   97SAPE   H5X 9730   1.653   1.056   5.896  0.6081  0.7866  1.9051
   97SAPE   H5Y 9731   1.826   1.106   5.871 -0.0360 -0.9884 -0.5170
   97SAPE   C36 9732   1.693   1.218   5.749 -0.1367  1.1091  0.5063
   97SAPE   H6X 9733   1.758   1.308   5.741 -0.3525  1.6594  3.6968
   97SAPE   H6Y 9734   1.595   1.267   5.760 -0.6344  0.4523 -0.7098
   97SAPE   C37 9735   1.704   1.118   5.632  0.1032 -0.4309  0.9438
   97SAPE   H7X 9736   1.626   1.042   5.654  1.7068 -2.1231  1.0715
   97SAPE   H7Y 9737   1.804   1.071   5.616 -0.0311 -0.0305 -1.5588
   97SAPE   C38 9738   1.660   1.175   5.491 -0.7436  0.0704  0.0426
   97SAPE   H8X 9739   1.742   1.240   5.452 -0.8721  0.9963  1.2628
   97SAPE   H8Y 9740   1.590   1.261   5.496 -0.6230  0.5847 -3.7929
   97SAPE   C39 9741   1.597   1.083   5.387  0.2520 -0.7140  0.5609
   97SAPE   H9X 9742   1.509   1.030   5.429  0.1035 -0.1182  1.0187
   97SAPE   H9Y 9743   1.682   1.013   5.371  1.4308  0.4482  1.5441
   97SAPE  C310 9744   1.550   1.154   5.255 -0.6073 -0.6510  0.8514
   97SAPE  H10X 9745   1.538   1.088   5.166 -1.3338 -0.6410  0.9388
   97SAPE  H10Y 9746   1.637   1.213   5.218 -2.2072  0.3122 -1.5509
   97SAPE  C311 9747   1.440   1.262   5.261  0.4160  0.4959 -0.1210
   97SAPE  H11X 9748   1.449   1.328   5.350 -0.6154  1.7353 -0.8813
   97SAPE  H11Y 9749   1.338   1.218   5.250  0.2149  0.5779  1.2725
   97SAPE  C312 9750   1.443   1.358   5.142 -0.0382  0.3694 -0.0646
   97SAPE  H12X 9751   1.426   1.290   5.056 -2.5707  2.2928 -1.1953
   97SAPE  H12Y 9752   1.543   1.403   5.130 -0.6543  1.1960 -2.6252
   97SAPE  C313 9753   1.337   1.461   5.150  0.5051 -0.8570 -0.2798
   97SAPE  H13X 9754   1.352   1.524   5.240 -0.7799 -1.6051  0.4842
   97SAPE  H13Y 9755   1.235   1.420   5.163 -0.1772 -0.8421 -4.3830
   97SAPE  C314 9756   1.322   1.563   5.028 -0.6403 -0.0468  0.3999
   97SAPE  H14X 9757   1.287   1.512   4.936 -0.6391  1.6786 -0.6110
   97SAPE  H14Y 9758   1.426   1.601   5.020 -0.2106 -1.0844  0.9102
   97SAPE  C315 9759   1.243   1.688   5.055 -0.0494 -0.5407 -1.0616
   97SAPE  H15X 9760   1.285   1.742   5.142  0.2792  0.8358 -2.0379
   97SAPE  H15Y 9761   1.141   1.664   5.090 -0.5044  3.2713  0.7497
   97SAPE  C316 9762   1.233   1.793   4.939  0.1932  0.9645  0.3772
   97SAPE  H16X 9763   1.187   1.736   4.856 -0.5219  0.4033  1.1348
   97SAPE  H16Y 9764   1.334   1.819   4.900  0.1658 -0.4617 -0.7337
   97SAPE  C317 9765   1.144   1.912   4.970 -0.6911 -0.7070 -0.7542
   97SAPE  H17X 9766   1.180   1.971   5.057  0.1594 -1.3752 -0.6421
   97SAPE  H17Y 9767   1.039   1.886   4.995 -1.3944  1.2420 -1.5532
   97SAPE  C318 9768   1.130   2.009   4.850  0.3261  0.3917 -0.0844
   97SAPE  H18X 9769   1.128   2.112   4.890 -1.5116 -0.6642  2.9173
   97SAPE  H18Y 9770   1.038   1.978   4.795 -0.3420  0.1881  1.1068
   97SAPE  H18Z 9771   1.222   2.000   4.789 -0.7575 -2.0161 -1.5222
   98SAPE     N 9772   3.608   3.540   6.676  0.0512 -0.6449  1.1870
   98SAPE   HN1 9773   3.691   3.578   6.626 -0.5231 -0.5663  0.2680
   98SAPE   HN2 9774   3.599   3.574   6.774 -1.6721  0.2512  0.7733
   98SAPE   HN3 9775   3.624   3.438   6.677  1.1866 -0.5275 -0.5765
   98SAPE   C12 9776   3.482   3.546   6.605 -0.5175 -0.9464  0.0837
   98SAPE  H12A 9777   3.401   3.502   6.666  0.6881 -2.8888  0.4037
   98SAPE  H12B 9778   3.496   3.479   6.517 -1.1208  0.2910 -0.9938
   98SAPE   C11 9779   3.458   3.690   6.565 -0.2684 -0.4070  0.1911
   98SAPE  H11A 9780   3.375   3.682   6.492  1.1934 -2.1885 -1.4060
   98SAPE  H11B 9781   3.546   3.733   6.512  1.0024  0.8107  3.0833
   98SAPE     P 9782   3.480   3.921   6.694 -0.2588 -0.3865  0.4733
   98SAPE   O13 9783   3.360   3.997   6.729  0.6374 -0.1689 -0.3525
   98SAPE   O14 9784   3.582   3.919   6.798 -0.5064 -0.5051 -0.0201
   98SAPE   O12 9785   3.429   3.764   6.681  0.6364  0.3778  0.2068
   98SAPE   O11 9786   3.547   3.976   6.557  0.0331  0.4066 -0.7390
   98SAPE    C1 9787   3.473   4.067   6.482 -0.0978  0.0536  0.3550
   98SAPE    HA 9788   3.386   4.011   6.443  0.2929 -0.5452  0.3284
   98SAPE    HB 9789   3.446   4.157   6.542 -1.3103  0.8683 -1.3579
   98SAPE    C2 9790   3.552   4.113   6.359 -0.4980  0.0071 -0.4301
   98SAPE    HS 9791   3.620   4.034   6.321  1.1960  1.9013 -1.5135
   98SAPE   O21 9792   3.637   4.229   6.389  0.3496  0.1257 -1.0339
   98SAPE   C21 9793   3.739   4.263   6.318  0.0584  0.4362  0.0296
   98SAPE   O22 9794   3.787   4.188   6.228  0.0244  0.0879 -0.3881
   98SAPE   C22 9795   3.804   4.385   6.376  0.1960 -0.0903  0.2411
   98SAPE   H2R 9796   3.735   4.433   6.449  1.5766 -0.1457  1.6422
   98SAPE   H2S 9797   3.897   4.355   6.429 -0.7162  1.6632  3.1202
   98SAPE    C3 9798   3.462   4.161   6.244 -0.2821 -0.6396  0.3841
   98SAPE    HX 9799   3.438   4.268   6.264  2.7907 -0.0507  1.4236
   98SAPE    HY 9800   3.364   4.109   6.246 -1.5234  1.5584  1.3803
   98SAPE   O31 9801   3.535   4.162   6.117  0.2622 -0.3037  0.2495
   98SAPE   C31 9802   3.501   4.055   6.040 -0.1476 -0.3046 -0.5877
   98SAPE   O32 9803   3.421   3.971   6.071  0.1237 -0.1370 -0.5494
   98SAPE   C32 9804   3.586   4.058   5.914  0.4120  0.0900 -0.6218
   98SAPE   H2X 9805   3.689   4.067   5.954  0.5839 -3.0485 -0.0864
   98SAPE   H2Y 9806   3.557   4.151   5.860 -1.3744 -0.5291 -0.7877
   98SAPE   C23 9807   3.838   4.482   6.257 -0.0041 -0.6397 -0.2333
   98SAPE   H3R 9808   3.926   4.449   6.198  1.2473 -0.6977  1.5822
   98SAPE   H3S 9809   3.862   4.583   6.298 -2.2312 -0.0934 -0.1717
   98SAPE   C24 9810   3.722   4.530   6.172  0.2465 -0.3496 -0.5319
   98SAPE   H4R 9811   3.675   4.440   6.127 -1.7034  1.9562 -3.4493
   98SAPE   H4S 9812   3.759   4.598   6.093 -1.6484  1.5429  0.1222
   98SAPE   C25 9813   3.617   4.602   6.249 -0.4412 -0.3329 -0.2029
   98SAPE   H5R 9814   3.598   4.558   6.348 -1.6317  0.4163 -0.0643
   98SAPE   C26 9815   3.562   4.720   6.211 -0.4705 -0.6232  0.5427
   98SAPE   H6R 9816   3.484   4.768   6.272  2.4917  0.6968  3.6236
   98SAPE   C27 9817   3.592   4.794   6.082 -0.0116 -0.2262  0.6574
   98SAPE   H7R 9818   3.526   4.727   6.023 -1.2445 -0.4281  2.2021
   98SAPE   H7S 9819   3.692   4.784   6.033  0.2068  1.8754  0.5802
   98SAPE   C28 9820   3.539   4.937   6.060  0.3900 -0.2472 -0.6407
   98SAPE   H8R 9821   3.516   4.989   6.155  1.4472 -1.7265  0.4803
   98SAPE   C29 9822   3.532   5.003   5.938 -0.3647 -0.2811 -0.4212
   98SAPE   H9R 9823   3.483   5.101   5.940 -0.7048 -0.4483 -0.6011
   98SAPE  C210 9824   3.577   4.955   5.812  0.3649  0.4785 -0.0332
   98SAPE  H10R 9825   3.487   4.937   5.749 -0.6226 -0.0244  1.4689
   98SAPE  H10S 9826   3.630   4.859   5.833  1.0913  1.1490  1.2687
   98SAPE  C211 9827   3.664   5.058   5.745 -0.4539 -0.2931  0.1311
   98SAPE  H11R 9828   3.739   5.083   5.822 -1.1553 -1.6261  1.3003
   98SAPE  C212 9829   3.653   5.139   5.634  0.1443  0.3433  0.3122
   98SAPE  H12R 9830   3.739   5.202   5.608  0.0412  1.4908  2.4810
   98SAPE  C213 9831   3.551   5.134   5.518  0.5738 -0.6718  0.0597
   98SAPE  H13R 9832   3.486   5.223   5.534  0.7834  0.2277 -3.3664
   98SAPE  H13S 9833   3.491   5.041   5.529  1.7206 -1.4164  0.2461
   98SAPE  C214 9834   3.617   5.126   5.381 -0.2753 -0.5293  0.2493
   98SAPE  H14R 9835   3.722   5.091   5.380  0.5801  1.7489  1.8223
   98SAPE  C215 9836   3.561   5.143   5.263 -0.2035 -0.2439 -0.0834
   98SAPE  H15R 9837   3.621   5.129   5.172 -0.5608  0.5299 -0.4461
   98SAPE  C216 9838   3.426   5.190   5.224  0.9244 -0.3489  0.2847
   98SAPE  H16R 9839   3.435   5.238   5.124 -1.0770  0.8839  0.6472
   98SAPE  H16S 9840   3.386   5.264   5.297 -2.5833 -2.0059  0.2023
   98SAPE  C217 9841   3.324   5.075   5.206 -0.4610 -0.1700  0.0396
   98SAPE  H17R 9842   3.320   5.019   5.302 -1.7401 -0.0528  0.0735
   98SAPE  H17S 9843   3.351   5.011   5.119  0.2187  0.1115  0.0349
   98SAPE  C218 9844   3.194   5.135   5.160  0.3256 -0.1693 -0.2045
   98SAPE  H18R 9845   3.141   5.172   5.251  0.7527 -1.7425  0.7172
   98SAPE  H18S 9846   3.141   5.039   5.144  1.1707 -0.6018 -0.4958
   98SAPE  C219 9847   3.191   5.233   5.038  0.2499 -0.2998 -0.3261
   98SAPE  H19R 9848   3.262   5.190   4.964  1.3086 -0.7260  0.9080
   98SAPE  H19S 9849   3.231   5.331   5.071 -0.8964 -0.0260  0.3031
   98SAPE  C220 9850   3.055   5.245   4.965  0.1813  0.1919  0.1359
   98SAPE  H20R 9851   2.976   5.292   5.027  0.1963  2.1703 -1.2561
   98SAPE  H20S 9852   3.020   5.144   4.933  1.0046  0.7104 -2.6728
   98SAPE  H20T 9853   3.065   5.303   4.870  1.1199  1.4705  0.9849
   98SAPE   C33 9854   3.591   3.919   5.839  0.3826 -1.1545 -0.6323
   98SAPE   H3X 9855   3.485   3.897   5.816  0.3474  0.8648 -2.7856
   98SAPE   H3Y 9856   3.629   3.852   5.919 -0.6672  0.5652  1.4141
   98SAPE   C34 9857   3.698   3.923   5.728  0.3648 -0.2139  0.0202
   98SAPE   H4X 9858   3.798   3.955   5.763  1.1248 -3.0973  0.7296
   98SAPE   H4Y 9859   3.682   3.998   5.647  2.0150 -0.7026 -0.8166
   98SAPE   C35 9860   3.721   3.783   5.673  0.0305 -0.5373  0.2974
   98SAPE   H5X 9861   3.705   3.702   5.748  0.5306 -1.8157 -0.9436
   98SAPE   H5Y 9862   3.826   3.776   5.636  0.4828  0.6370  1.2876
   98SAPE   C36 9863   3.618   3.755   5.563  0.1803 -0.6298 -0.4057
   98SAPE   H6X 9864   3.547   3.839   5.552  0.1962 -0.6994 -1.0913
   98SAPE   H6Y 9865   3.568   3.658   5.583  0.0864 -0.8222 -1.5171
   98SAPE   C37 9866   3.692   3.751   5.424 -0.1842 -0.0597 -0.2303
   98SAPE   H7X 9867   3.786   3.698   5.448  1.7983  2.9368 -0.7525
   98SAPE   H7Y 9868   3.707   3.856   5.390 -0.8523  0.0853 -0.1112
   98SAPE   C38 9869   3.625   3.676   5.309 -0.4481  0.1141 -0.2235
   98SAPE   H8X 9870   3.548   3.743   5.264 -0.1035 -0.8297 -2.2966
   98SAPE   H8Y 9871   3.562   3.589   5.337 -2.0642  0.8112 -1.5749
   98SAPE   C39 9872   3.727   3.631   5.207 -0.0852  0.7854  0.7221
   98SAPE   H9X 9873   3.802   3.576   5.267 -1.5849 -0.4018  1.5936
   98SAPE   H9Y 9874   3.780   3.714   5.156  0.2801 -0.1338 -0.4507
   98SAPE  C310 9875   3.660   3.550   5.096  0.8004  1.0765  0.2397
   98SAPE  H10X 9876   3.588   3.613   5.039  0.4538  0.4442 -0.0407
   98SAPE  H10Y 9877   3.606   3.466   5.145  1.3724  0.1170 -0.7069
   98SAPE  C311 9878   3.757   3.480   4.989 -0.1022 -0.4496  0.4267
   98SAPE  H11X 9879   3.812   3.564   4.942 -1.2890  0.1853  0.1167
   98SAPE  H11Y 9880   3.702   3.435   4.904 -0.5980  1.3463 -0.2581
   98SAPE  C312 9881   3.854   3.383   5.052 -0.5269  0.8194  0.1785
   98SAPE  H12X 9882   3.817   3.327   5.141 -0.0513 -1.0686 -0.7596
   98SAPE  H12Y 9883   3.941   3.444   5.082 -2.5872  2.5996  3.1208
   98SAPE  C313 9884   3.921   3.289   4.946  0.9293 -0.6461  0.0013
   98SAPE  H13X 9885   3.831   3.235   4.909 -2.3536  2.1797  3.1070
   98SAPE  H13Y 9886   3.992   3.221   4.997 -0.0904 -1.7733 -0.0247
   98SAPE  C314 9887   3.992   3.356   4.825  0.2267 -0.0493 -0.6587
   98SAPE  H14X 9888   4.093   3.393   4.854 -0.9367  0.7882  2.8811
   98SAPE  H14Y 9889   3.938   3.444   4.784  1.1348 -0.1996 -2.2555
   98SAPE  C315 9890   4.009   3.257   4.711 -0.7807  0.5556 -0.1892
   98SAPE  H15X 9891   3.908   3.213   4.703 -0.3170 -0.5685 -0.0221
   98SAPE  H15Y 9892   4.084   3.184   4.746 -0.2796  0.8853 -0.5560
   98SAPE  C316 9893   4.071   3.303   4.577  0.1434 -0.2154  0.3282
   98SAPE  H16X 9894   4.154   3.373   4.600  1.2410 -1.4978  0.4030
   98SAPE  H16Y 9895   3.988   3.355   4.524 -0.7182  0.9729  2.6543
   98SAPE  C317 9896   4.122   3.193   4.488  0.6234 -0.1793  0.4171
   98SAPE  H17X 9897   4.030   3.153   4.439  0.9558  2.6557 -2.9184
   98SAPE  H17Y 9898   4.167   3.108   4.543 -1.8677 -1.5088  0.5590
   98SAPE  C318 9899   4.204   3.244   4.373  0.2498 -1.1240  0.9747
   98SAPE  H18X 9900   4.298   3.185   4.363  1.8689  1.2114  1.4487
   98SAPE  H18Y 9901   4.230   3.351   4.387  0.5915 -1.1162  0.3243
   98SAPE  H18Z 9902   4.148   3.239   4.277  0.6265 -2.8139  0.8137
   99SAPE     N 9903   3.106   3.940   6.722  0.0005  0.0059 -0.2668
   99SAPE   HN1 9904   3.199   3.979   6.697  0.0846 -0.1467 -0.2002
   99SAPE   HN2 9905   3.053   3.914   6.636 -1.1584 -0.0328  0.4442
   99SAPE   HN3 9906   3.057   4.022   6.763  0.6589  0.5662 -0.5808
   99SAPE   C12 9907   3.104   3.820   6.811 -0.1088 -0.1853 -0.1286
   99SAPE  H12A 9908   3.015   3.820   6.879 -0.9674 -1.1837 -1.2093
   99SAPE  H12B 9909   3.195   3.819   6.875 -0.6289  0.4480  0.6429
   99SAPE   C11 9910   3.107   3.688   6.732 -0.1631 -0.5009  0.4533
   99SAPE  H11A 9911   3.208   3.646   6.718 -0.4580 -1.4300  1.0293
   99SAPE  H11B 9912   3.068   3.709   6.630  2.6944  0.4312 -0.5297
   99SAPE     P 9913   3.042   3.445   6.812  0.2789 -0.2194  0.3418
   99SAPE   O13 9914   3.170   3.449   6.885  0.8252  0.1257 -0.0188
   99SAPE   O14 9915   2.925   3.373   6.871 -0.3137 -0.3320 -0.5375
   99SAPE   O12 9916   3.004   3.596   6.784 -1.1133 -0.1657  0.0573
   99SAPE   O11 9917   3.074   3.404   6.663  0.8250  0.0304  0.2703
   99SAPE    C1 9918   2.970   3.419   6.565  0.9524 -0.3721  0.1536
   99SAPE    HA 9919   2.886   3.348   6.580  1.6484 -1.0605  0.9252
   99SAPE    HB 9920   2.930   3.522   6.561  1.3030 -0.2684 -1.9014
   99SAPE    C2 9921   3.033   3.393   6.425 -0.8134 -0.2639 -0.4072
   99SAPE    HS 9922   2.954   3.425   6.354 -2.1394  1.7528  1.8141
   99SAPE   O21 9923   3.061   3.251   6.418  0.1552 -0.0834 -0.2795
   99SAPE   C21 9924   2.961   3.183   6.377 -0.5356  0.4127  0.4782
   99SAPE   O22 9925   2.842   3.217   6.364 -0.6281  0.5314  0.4434
   99SAPE   C22 9926   3.007   3.046   6.336  0.0490  0.2952  0.0076
   99SAPE   H2R 9927   3.118   3.050   6.323 -0.1092 -0.6391 -2.0727
   99SAPE   H2S 9928   2.987   2.973   6.417  1.5365 -0.9814 -0.7007
   99SAPE    C3 9929   3.165   3.465   6.394 -0.5171 -0.1982  0.4412
   99SAPE    HX 9930   3.239   3.441   6.473 -0.6622 -0.7836  0.3971
   99SAPE    HY 9931   3.134   3.572   6.389  0.7308  0.1104 -2.2200
   99SAPE   O31 9932   3.220   3.434   6.263 -0.3409 -0.7031 -0.2664
   99SAPE   C31 9933   3.308   3.519   6.207 -0.2023 -0.0045 -0.7426
   99SAPE   O32 9934   3.364   3.612   6.263  0.3152  0.2794  0.1610
   99SAPE   C32 9935   3.323   3.466   6.066  0.1173 -0.5789  0.1672
   99SAPE   H2X 9936   3.221   3.463   6.022  0.7255  0.6742 -1.4070
   99SAPE   H2Y 9937   3.371   3.366   6.071  1.2853  0.0037  1.0868
   99SAPE   C23 9938   2.927   2.997   6.222  0.4349  0.4326 -0.3909
   99SAPE   H3R 9939   2.819   2.980   6.243  0.7597 -1.1208  0.1940
   99SAPE   H3S 9940   2.974   2.897   6.206  0.4299  0.1853  1.0279
   99SAPE   C24 9941   2.948   3.088   6.093 -1.0259  0.1357  0.2722
   99SAPE   H4R 9942   3.050   3.130   6.076 -1.2883 -0.0945 -2.2697
   99SAPE   H4S 9943   2.884   3.178   6.105 -0.2552  0.4581  2.3548
   99SAPE   C25 9944   2.906   3.019   5.975 -0.0803  0.6619  0.2240
   99SAPE   H5R 9945   2.888   2.912   5.989  0.3758  0.4666 -0.5688
   99SAPE   C26 9946   2.897   3.076   5.854  0.6745  0.1720 -0.0137
   99SAPE   H6R 9947   2.872   3.013   5.767  0.1084 -3.0903  2.3101
   99SAPE   C27 9948   2.929   3.211   5.811  0.3299 -0.4742 -0.2567
   99SAPE   H7R 9949   2.932   3.274   5.902 -1.6005 -1.5430  0.6100
   99SAPE   H7S 9950   2.842   3.250   5.754  1.1445  0.6048 -0.8138
   99SAPE   C28 9951   3.055   3.222   5.730  0.0450 -1.0007  0.7734
   99SAPE   H8R 9952   3.147   3.261   5.775  0.6716 -0.9649 -0.4838
   99SAPE   C29 9953   3.058   3.188   5.603 -0.4332 -0.0854  0.1947
   99SAPE   H9R 9954   3.150   3.196   5.543 -0.2287  1.0292  0.6344
   99SAPE  C210 9955   2.933   3.144   5.519 -0.6878 -0.3521 -0.7270
   99SAPE  H10R 9956   2.906   3.226   5.450  0.7775  0.4426 -0.3975
   99SAPE  H10S 9957   2.844   3.115   5.579 -1.3184  2.2186 -0.3033
   99SAPE  C211 9958   2.964   3.032   5.424 -0.0076 -0.1415  0.0538
   99SAPE  H11R 9959   2.967   2.934   5.474 -1.0258 -0.2604 -0.0869
   99SAPE  C212 9960   2.984   3.045   5.292 -0.0573  0.2359 -0.7237
   99SAPE  H12R 9961   3.008   2.950   5.241  1.4933 -0.4028  1.0668
   99SAPE  C213 9962   2.984   3.169   5.210  0.6233 -0.7229  0.8090
   99SAPE  H13R 9963   2.947   3.255   5.268  1.1823  1.3467 -1.6889
   99SAPE  H13S 9964   2.919   3.149   5.122  1.0750  1.2433 -0.0060
   99SAPE  C214 9965   3.119   3.207   5.167  0.5476  1.0648  1.1913
   99SAPE  H14R 9966   3.171   3.248   5.255  2.2415 -1.4347  1.4643
   99SAPE  C215 9967   3.189   3.166   5.059 -0.1326  0.2990  0.0858
   99SAPE  H15R 9968   3.291   3.204   5.049 -0.3021  0.6778 -0.2643
   99SAPE  C216 9969   3.141   3.108   4.929  0.0831 -0.4429  0.3700
   99SAPE  H16R 9970   3.040   3.070   4.956  0.8357 -1.6341  1.6351
   99SAPE  H16S 9971   3.196   3.021   4.889  1.3071  0.5962 -0.2794
   99SAPE  C217 9972   3.117   3.212   4.807  0.0236  0.2002 -0.0925
   99SAPE  H17R 9973   3.061   3.157   4.728 -0.4819 -0.8575  0.9711
   99SAPE  H17S 9974   3.207   3.268   4.774 -0.8743  1.8496  0.1253
   99SAPE  C218 9975   3.025   3.333   4.843  0.0526 -0.8719 -0.4981
   99SAPE  H18R 9976   3.073   3.394   4.922 -0.7956 -1.4081  0.4587
   99SAPE  H18S 9977   2.928   3.295   4.883 -1.3614  1.9768 -0.9362
   99SAPE  C219 9978   2.998   3.415   4.722 -0.2115 -0.3568  0.6521
   99SAPE  H19R 9979   2.964   3.348   4.641 -1.3957 -0.6314  1.3556
   99SAPE  H19S 9980   3.096   3.457   4.689 -0.5144 -1.1982 -1.4459
   99SAPE  C220 9981   2.893   3.517   4.747  0.8362 -0.5077 -0.3732
   99SAPE  H20R 9982   2.885   3.598   4.670 -1.5165 -1.6440 -1.4123
   99SAPE  H20S 9983   2.900   3.567   4.846  2.2117 -0.4112 -0.5044
   99SAPE  H20T 9984   2.792   3.472   4.749  0.6636 -0.3057 -2.2267
   99SAPE   C33 9985   3.409   3.556   5.985 -0.4748  0.6247  0.1486
   99SAPE   H3X 9986   3.512   3.544   6.027 -1.0098  0.6342  1.5081
   99SAPE   H3Y 9987   3.378   3.662   5.990 -2.1283  0.2275 -0.7988
   99SAPE   C34 9988   3.429   3.530   5.834 -0.1208  0.7588 -0.7559
   99SAPE   H4X 9989   3.462   3.427   5.809  0.5482  0.4793  1.1128
   99SAPE   H4Y 9990   3.509   3.598   5.797  0.4658 -0.8103 -2.5214
   99SAPE   C35 9991   3.295   3.552   5.763  0.3494 -0.3594 -0.5258
   99SAPE   H5X 9992   3.248   3.642   5.808 -0.1194 -1.0779  0.4467
   99SAPE   H5Y 9993   3.233   3.460   5.771  2.1699 -1.6551 -0.7211
   99SAPE   C36 9994   3.304   3.579   5.616  0.0590  0.0863  0.0353
   99SAPE   H6X 9995   3.358   3.495   5.567 -0.1741 -0.0791  0.0637
   99SAPE   H6Y 9996   3.377   3.662   5.608  1.8466 -1.5391 -1.9492
   99SAPE   C37 9997   3.173   3.612   5.551  0.4360 -0.1963 -0.2643
   99SAPE   H7X 9998   3.126   3.684   5.621 -0.6065  0.3402 -1.4676
   99SAPE   H7Y 9999   3.105   3.524   5.552 -0.6644  0.6309  0.2560
   99SAPE   C3810000   3.201   3.683   5.415 -0.1255  0.1424 -0.1159
   99SAPE   H8X10001   3.278   3.761   5.435 -0.1074 -0.5808  3.2131
   99SAPE   H8Y10002   3.113   3.740   5.381 -1.4821 -0.9920  1.3354
   99SAPE   C3910003   3.245   3.572   5.318  1.0404  0.7609  0.7003
   99SAPE   H9X10004   3.170   3.491   5.304 -0.1655  2.0161 -0.3091
   99SAPE   H9Y10005   3.335   3.516   5.353  1.0595  0.0540 -0.4033
   99SAPE  C31010006   3.289   3.634   5.182 -0.5646  0.0727 -0.4183
   99SAPE  H10X10007   3.353   3.564   5.123  0.5513 -0.5141  1.3804
   99SAPE  H10Y10008   3.347   3.727   5.198 -1.0533  0.9519 -3.2340
   99SAPE  C31110009   3.176   3.668   5.086  0.1756  0.5809 -0.2387
   99SAPE  H11X10010   3.109   3.734   5.146  1.5061  0.9010  0.9551
   99SAPE  H11Y10011   3.115   3.576   5.074 -0.0342  0.5804  0.7659
   99SAPE  C31210012   3.207   3.733   4.949  0.4022  0.1340 -0.0836
   99SAPE  H12X10013   3.259   3.827   4.977  0.3433 -0.2038  1.1894
   99SAPE  H12Y10014   3.102   3.753   4.916 -0.4566 -1.2999  1.5947
   99SAPE  C31310015   3.270   3.649   4.834 -0.0135  0.1820 -0.0868
   99SAPE  H13X10016   3.228   3.547   4.829  0.6928 -0.0568 -1.7216
   99SAPE  H13Y10017   3.372   3.635   4.874 -0.6042 -2.7556  0.5938
   99SAPE  C31410018   3.247   3.709   4.697  0.3336 -0.5669  0.3171
   99SAPE  H14X10019   3.137   3.721   4.682  0.4994 -2.1611 -3.0654
   99SAPE  H14Y10020   3.274   3.629   4.625 -0.2835 -1.2468  0.8245
   99SAPE  C31510021   3.310   3.839   4.654  0.0775 -0.2993  0.5774
   99SAPE  H15X10022   3.269   3.927   4.708  2.3191  1.3284 -0.1835
   99SAPE  H15Y10023   3.286   3.855   4.547  1.2956 -0.7955  0.2127
   99SAPE  C31610024   3.469   3.843   4.659  0.0642 -0.1395  0.4389
   99SAPE  H16X10025   3.510   3.844   4.763  1.9489 -0.1518 -0.2778
   99SAPE  H16Y10026   3.493   3.936   4.604 -0.9815  1.0943  1.9586
   99SAPE  C31710027   3.530   3.721   4.593 -0.0449 -0.7539  0.9303
   99SAPE  H17X10028   3.481   3.710   4.494 -0.6388 -1.7622  1.3225
   99SAPE  H17Y10029   3.495   3.639   4.660 -2.2102 -0.9331 -0.3259
   99SAPE  C31810030   3.681   3.726   4.581  0.7941  0.0954 -0.7753
   99SAPE  H18X10031   3.728   3.722   4.682  0.3670  1.5502 -0.4984
   99SAPE  H18Y10032   3.719   3.820   4.535  0.2729 -0.2445 -1.9313
   99SAPE  H18Z10033   3.707   3.635   4.523  0.6078  1.9331 -3.9977
  100SAPE     N10034   3.877   0.063   6.771  0.1250  0.0330 -0.6533
  100SAPE   HN110035   3.846   0.162   6.759  1.5803  0.5959  0.0682
  100SAPE   HN210036   3.849   0.037   6.867  0.7635  2.7732  0.3752
  100SAPE   HN310037   3.980   0.069   6.766  0.2644 -0.4236  1.1630
  100SAPE   C1210038   3.816  -0.034   6.673 -0.0017  0.8255  0.3267
  100SAPE  H12A10039   3.821  -0.137   6.714  0.2852 -0.1068 -1.9028
  100SAPE  H12B10040   3.872  -0.033   6.576  0.0106 -1.9597  0.2303
  100SAPE   C1110041   3.668  -0.003   6.650 -0.3448  0.0043 -0.2644
  100SAPE  H11A10042   3.630  -0.030   6.549  0.7293  1.6378 -1.1526
  100SAPE  H11B10043   3.666   0.107   6.639  0.5809  0.1436  0.7576
  100SAPE     P10044   3.428  -0.065   6.725  0.2800 -0.0780  0.0293
  100SAPE   O1310045   3.369  -0.140   6.836 -1.0259 -0.6465  0.0161
  100SAPE   O1410046   3.364   0.068   6.696 -0.2469  0.3025  0.7735
  100SAPE   O1210047   3.583  -0.042   6.752  0.4115 -0.1979  0.6698
  100SAPE   O1110048   3.425  -0.151   6.597  0.4070 -0.1276 -0.2277
  100SAPE    C110049   3.496  -0.271   6.586 -0.5092  0.4472  0.2845
  100SAPE    HA10050   3.592  -0.274   6.642 -0.4520 -2.7530  0.2330
  100SAPE    HB10051   3.434  -0.352   6.630  0.2563 -0.7406 -0.7114
  100SAPE    C210052   3.514  -0.300   6.436 -0.1500  0.6107  0.3430
  100SAPE    HS10053   3.600  -0.238   6.404  0.7682 -0.6076  0.3764
  100SAPE   O2110054   3.405  -0.267   6.346 -0.2308  0.2206 -0.5658
  100SAPE   C2110055   3.393  -0.144   6.307  0.5549  0.2744 -0.3520
  100SAPE   O2210056   3.485  -0.064   6.310 -0.5256 -0.5553  0.1544
  100SAPE   C2210057   3.245  -0.117   6.269 -0.1207  0.2984 -0.4324
  100SAPE   H2R10058   3.196  -0.214   6.241  0.0740 -0.1486  0.7255
  100SAPE   H2S10059   3.188  -0.084   6.359 -0.1552 -1.3350  0.1804
  100SAPE    C310060   3.552  -0.452   6.410 -0.3583 -0.7392 -0.0632
  100SAPE    HX10061   3.464  -0.509   6.445  0.0494 -1.0137  0.5259
  100SAPE    HY10062   3.628  -0.476   6.488  0.5981  2.3107  0.1014
  100SAPE   O3110063   3.588  -0.476   6.275  0.4877  0.6723  0.2084
  100SAPE   C3110064   3.683  -0.565   6.260 -0.1448 -0.4295  0.7593
  100SAPE   O3210065   3.740  -0.627   6.346 -0.0180 -0.2041  0.0761
  100SAPE   C3210066   3.722  -0.588   6.110 -0.2321  0.3284  0.5592
  100SAPE   H2X10067   3.817  -0.534   6.091 -0.3944  0.5905  0.4766
  100SAPE   H2Y10068   3.640  -0.534   6.057  0.4977  1.1384  0.2314
  100SAPE   C2310069   3.224  -0.011   6.163 -0.3819 -0.5999 -0.2930
  100SAPE   H3R10070   3.261   0.084   6.207 -0.8489 -0.9061  0.7844
  100SAPE   H3S10071   3.114  -0.006   6.174 -0.4751 -1.1734 -0.8999
  100SAPE   C2410072   3.263  -0.044   6.018  0.0584  0.3107 -0.6757
  100SAPE   H4R10073   3.221   0.043   5.962 -0.3525  0.8222  0.3963
  100SAPE   H4S10074   3.210  -0.135   5.983  1.3764 -1.0875  0.8340
  100SAPE   C2510075   3.411  -0.063   5.991  0.4795  0.0390  0.3483
  100SAPE   H5R10076   3.476   0.022   6.016  0.5258  0.4773 -1.1550
  100SAPE   C2610077   3.467  -0.176   5.927  0.2727  0.3429 -0.4102
  100SAPE   H6R10078   3.577  -0.173   5.926  0.4032 -1.4501  1.4156
  100SAPE   C2710079   3.384  -0.296   5.886 -0.0883  1.0997 -0.7082
  100SAPE   H7R10080   3.302  -0.267   5.817  0.3047 -0.5057 -1.8899
  100SAPE   H7S10081   3.341  -0.344   5.977  0.8282 -0.5162 -1.0998
  100SAPE   C2810082   3.474  -0.389   5.804  0.0508 -0.6262 -0.5560
  100SAPE   H8R10083   3.546  -0.443   5.868 -0.6359  0.1455  0.9028
  100SAPE   C2910084   3.455  -0.423   5.676 -0.9676  0.0205 -0.5796
  100SAPE   H9R10085   3.536  -0.482   5.631  1.1274  2.1475  0.1882
  100SAPE  C21010086   3.348  -0.367   5.589 -0.1319  0.6913  0.8696
  100SAPE  H10R10087   3.248  -0.380   5.636 -0.2766  1.4498  0.7874
  100SAPE  H10S10088   3.344  -0.428   5.497  2.1393  0.9840  0.5337
  100SAPE  C21110089   3.351  -0.221   5.542  0.9054  0.3735 -0.3443
  100SAPE  H11R10090   3.335  -0.142   5.618 -0.7525  0.3539 -0.6262
  100SAPE  C21210091   3.395  -0.177   5.421 -1.0092 -0.0542  0.0316
  100SAPE  H12R10092   3.389  -0.067   5.410  1.0158  0.0361 -0.6435
  100SAPE  C21310093   3.425  -0.260   5.299 -0.4680 -0.3437  0.0446
  100SAPE  H13R10094   3.466  -0.361   5.323 -3.3235 -1.5177  0.3366
  100SAPE  H13S10095   3.510  -0.212   5.245  0.1671 -0.6347  0.7598
  100SAPE  C21410096   3.304  -0.273   5.210 -0.0102  0.2827  0.7174
  100SAPE  H14R10097   3.233  -0.356   5.223 -2.5522  1.3891 -3.7457
  100SAPE  C21510098   3.268  -0.183   5.115  0.7147  0.9891 -0.3394
  100SAPE  H15R10099   3.175  -0.194   5.057 -0.6645 -0.4256  1.9245
  100SAPE  C21610100   3.335  -0.053   5.083  0.7164  0.7369 -0.1052
  100SAPE  H16R10101   3.406  -0.025   5.165 -0.1019  1.2802  0.4299
  100SAPE  H16S10102   3.271   0.037   5.074  2.1011  2.2786  3.5027
  100SAPE  C21710103   3.412  -0.065   4.949  0.3281  0.2496 -0.1626
  100SAPE  H17R10104   3.463  -0.162   4.934  0.0952  0.3898 -2.2766
  100SAPE  H17S10105   3.483   0.021   4.946 -1.5789  1.9151  0.2005
  100SAPE  C21810106   3.318  -0.057   4.827 -0.5477 -0.0340  0.0078
  100SAPE  H18R10107   3.281   0.048   4.823  0.1706  0.2498  0.6608
  100SAPE  H18S10108   3.242  -0.137   4.837 -0.8426  0.0784 -1.1342
  100SAPE  C21910109   3.391  -0.091   4.693  0.1147 -0.3021  0.3009
  100SAPE  H19R10110   3.322  -0.091   4.606 -0.0648 -0.1384  0.4394
  100SAPE  H19S10111   3.428  -0.193   4.717 -0.1252 -1.2959 -3.0659
  100SAPE  C22010112   3.503   0.005   4.650 -0.2398 -0.4319  0.1406
  100SAPE  H20R10113   3.463   0.097   4.603  0.8234  0.6234  1.2624
  100SAPE  H20S10114   3.564  -0.043   4.571 -0.8428 -1.3776  0.2280
  100SAPE  H20T10115   3.571   0.030   4.734  0.1163 -0.3731 -0.1637
  100SAPE   C3310116   3.723  -0.741   6.062 -0.0398  0.1374  0.1093
  100SAPE   H3X10117   3.636  -0.788   6.113 -0.0892  0.8259  0.6692
  100SAPE   H3Y10118   3.823  -0.776   6.097  0.0264 -2.4546 -2.2527
  100SAPE   C3410119   3.722  -0.753   5.908 -0.5471  0.3882 -0.5185
  100SAPE   H4X10120   3.758  -0.856   5.891  0.2606  0.6595 -0.4882
  100SAPE   H4Y10121   3.798  -0.692   5.854 -1.0404  1.0252 -0.5026
  100SAPE   C3510122   3.582  -0.741   5.840 -0.5537  0.3222 -0.1425
  100SAPE   H5X10123   3.554  -0.636   5.862  0.6141  0.0798  3.0456
  100SAPE   H5Y10124   3.507  -0.808   5.887 -0.5603 -0.3032 -1.0333
  100SAPE   C3610125   3.591  -0.767   5.688 -0.4598  0.6626  0.2787
  100SAPE   H6X10126   3.689  -0.735   5.647 -0.2311  0.8829  0.9704
  100SAPE   H6Y10127   3.515  -0.701   5.641  1.1290  1.4949 -1.2235
  100SAPE   C3710128   3.564  -0.911   5.630  0.3726  0.3176  0.4919
  100SAPE   H7X10129   3.454  -0.925   5.639  0.1779  1.7212  0.4196
  100SAPE   H7Y10130   3.618  -0.984   5.694  0.2230  0.5306  0.8642
  100SAPE   C3810131   3.612  -0.913   5.480  0.3417 -0.7072 -0.6382
  100SAPE   H8X10132   3.723  -0.911   5.481  0.3906 -0.2752  2.2756
  100SAPE   H8Y10133   3.572  -0.830   5.418  0.3510  0.3272  0.6872
  100SAPE   C3910134   3.584  -1.053   5.428  0.5012 -0.0897 -0.0776
  100SAPE   H9X10135   3.475  -1.070   5.443  0.4353 -1.4928 -1.7690
  100SAPE   H9Y10136   3.635  -1.137   5.481 -0.9965 -0.9456  0.0769
  100SAPE  C31010137   3.628  -1.076   5.281  0.5329 -0.3612 -0.3064
  100SAPE  H10X10138   3.738  -1.064   5.271  0.5482 -0.5701 -0.3957
  100SAPE  H10Y10139   3.580  -1.006   5.209  2.6472  0.1105 -1.3478
  100SAPE  C31110140   3.585  -1.217   5.245 -0.4962  0.4773 -0.3136
  100SAPE  H11X10141   3.480  -1.227   5.209 -0.1847  1.8703 -1.7713
  100SAPE  H11Y10142   3.589  -1.282   5.334 -1.9934  0.8168  0.0246
  100SAPE  C31210143   3.682  -1.270   5.135 -0.4980 -0.4106 -0.4263
  100SAPE  H12X10144   3.784  -1.232   5.157 -0.6758 -0.2004  0.0625
  100SAPE  H12Y10145   3.675  -1.206   5.045  2.9906  1.9084  0.7206
  100SAPE  C31310146   3.691  -1.416   5.119  0.2965 -0.0757 -0.0311
  100SAPE  H13X10147   3.587  -1.456   5.114  0.5570 -0.6262 -2.7977
  100SAPE  H13Y10148   3.740  -1.467   5.204 -0.7463 -1.1483 -0.0474
  100SAPE  C31410149   3.753  -1.463   4.987 -0.2486 -0.8662 -0.8506
  100SAPE  H14X10150   3.858  -1.427   4.985 -0.8295  0.8719 -1.7635
  100SAPE  H14Y10151   3.710  -1.411   4.898  0.9455  2.0836  0.1735
  100SAPE  C31510152   3.757  -1.619   4.973  0.6666  0.2382  0.4162
  100SAPE  H15X10153   3.660  -1.670   4.962  1.5818 -1.1967 -1.6126
  100SAPE  H15Y10154   3.789  -1.677   5.062 -1.8039 -0.8119  0.6777
  100SAPE  C31610155   3.841  -1.667   4.859  0.6007  0.5600 -0.2757
  100SAPE  H16X10156   3.943  -1.623   4.855  1.0282 -0.0656  2.2778
  100SAPE  H16Y10157   3.791  -1.638   4.764 -0.6727  0.8815  0.4658
  100SAPE  C31710158   3.851  -1.820   4.853  0.1125  0.1812  0.1157
  100SAPE  H17X10159   3.753  -1.872   4.859 -0.8558  1.9123  0.1749
  100SAPE  H17Y10160   3.907  -1.854   4.943  1.6797 -0.6002 -1.1032
  100SAPE  C31810161   3.926  -1.860   4.727  0.0359 -0.0363  0.5027
  100SAPE  H18X10162   4.014  -1.795   4.710 -0.9993  1.0235 -1.1681
  100SAPE  H18Y10163   3.866  -1.855   4.633 -1.5121  2.5718  1.5188
  100SAPE  H18Z10164   3.948  -1.967   4.744 -0.7801 -0.3073 -0.0625
  101SAPE     N10165   1.290   3.959   6.806 -0.7789  0.1069 -0.9267
  101SAPE   HN110166   1.338   3.897   6.874 -0.6934 -0.6158 -1.6246
  101SAPE   HN210167   1.344   4.047   6.807  0.8415 -0.8367  1.1355
  101SAPE   HN310168   1.197   3.988   6.841  0.8512  3.8826  0.8126
  101SAPE   C1210169   1.288   3.895   6.669 -0.3586 -0.0107  0.9145
  101SAPE  H12A10170   1.253   3.971   6.596  0.0552 -0.8936 -0.2287
  101SAPE  H12B10171   1.214   3.812   6.669  0.5117 -0.8123 -0.3647
  101SAPE   C1110172   1.431   3.842   6.651  0.0432 -0.1313  0.2281
  101SAPE  H11A10173   1.431   3.790   6.553 -4.3914 -1.3084  0.6492
  101SAPE  H11B10174   1.459   3.761   6.722 -0.9230 -0.4457  0.2629
  101SAPE     P10175   1.542   4.053   6.548  0.4001  0.0811  0.2276
  101SAPE   O1310176   1.428   4.148   6.560 -0.0318  0.3553  0.2556
  101SAPE   O1410177   1.678   4.103   6.551 -0.2670 -0.3848 -0.4462
  101SAPE   O1210178   1.525   3.944   6.652  0.0656  0.7383 -0.2528
  101SAPE   O1110179   1.527   3.976   6.408  0.1319 -0.2406 -0.2752
  101SAPE    C110180   1.401   3.979   6.334 -0.2431  0.2361 -0.4858
  101SAPE    HA10181   1.319   4.035   6.385  1.7969  3.8857 -0.8399
  101SAPE    HB10182   1.427   4.034   6.242 -1.6784 -0.1947 -1.1724
  101SAPE    C210183   1.343   3.838   6.302  0.5802 -0.7219 -0.2959
  101SAPE    HS10184   1.275   3.806   6.384  0.0771  0.4532 -0.2418
  101SAPE   O2110185   1.455   3.749   6.271  0.1026 -0.0371  0.0608
  101SAPE   C2110186   1.420   3.625   6.250 -0.0512  0.1837  0.2373
  101SAPE   O2210187   1.330   3.568   6.313  0.2371  0.1220  0.0746
  101SAPE   C2210188   1.518   3.564   6.149 -0.1765 -0.5836 -0.5255
  101SAPE   H2R10189   1.609   3.627   6.134  1.0703 -1.8566  1.2492
  101SAPE   H2S10190   1.557   3.474   6.201  0.5253 -0.8212 -1.4382
  101SAPE    C310191   1.233   3.845   6.187  0.0131 -0.2382 -0.7006
  101SAPE    HX10192   1.151   3.910   6.226  0.4789  0.4298 -0.8208
  101SAPE    HY10193   1.198   3.741   6.171 -2.3815  0.0585  1.7521
  101SAPE   O3110194   1.292   3.899   6.065  0.0027 -0.3691 -0.6560
  101SAPE   C3110195   1.199   3.944   5.972  0.2252  0.0169  0.1981
  101SAPE   O3210196   1.079   3.959   5.992  0.3267 -0.1997 -0.0735
  101SAPE   C3210197   1.259   3.972   5.835 -0.1783  0.0167 -0.1854
  101SAPE   H2X10198   1.370   3.966   5.844  0.1792  1.7456 -2.4902
  101SAPE   H2Y10199   1.229   4.075   5.807 -2.6939 -0.1363  1.6440
  101SAPE   C2310200   1.452   3.539   6.016 -0.0970  0.0054 -0.2292
  101SAPE   H3R10201   1.449   3.633   5.957 -0.4548  1.1329  1.4852
  101SAPE   H3S10202   1.350   3.496   6.025  0.5212 -1.4877 -0.0974
  101SAPE   C2410203   1.530   3.440   5.923 -0.1205 -0.0189  0.3309
  101SAPE   H4R10204   1.459   3.422   5.840  0.1394  1.2925 -0.2008
  101SAPE   H4S10205   1.543   3.344   5.978 -1.6473 -0.9763 -0.8918
  101SAPE   C2510206   1.668   3.486   5.892  0.2879  0.6719  0.5254
  101SAPE   H5R10207   1.738   3.496   5.976  2.4952 -0.7241 -1.0434
  101SAPE   C2610208   1.724   3.511   5.771  0.0395  0.4678  0.4865
  101SAPE   H6R10209   1.829   3.538   5.749 -0.1225  0.1232 -0.8052
  101SAPE   C2710210   1.651   3.497   5.636  0.1261 -0.3410 -0.4242
  101SAPE   H7R10211   1.578   3.414   5.633  0.2120 -0.5998  2.3896
  101SAPE   H7S10212   1.723   3.465   5.556  0.5808  0.1058 -0.1983
  101SAPE   C2810213   1.568   3.620   5.609 -0.0089 -0.6534 -0.1952
  101SAPE   H8R10214   1.469   3.613   5.656  0.3462 -1.3021  0.4825
  101SAPE   C2910215   1.604   3.738   5.544 -0.1873 -0.2098 -0.7932
  101SAPE   H9R10216   1.524   3.807   5.515 -1.7268 -1.6259 -0.1184
  101SAPE  C21010217   1.744   3.775   5.496 -0.3790  0.2561  0.4007
  101SAPE  H10R10218   1.791   3.689   5.443 -0.8969 -1.6446  2.8466
  101SAPE  H10S10219   1.810   3.774   5.585  0.0752  0.4689  0.0688
  101SAPE  C21110220   1.754   3.910   5.431  0.0152  0.2704  0.1615
  101SAPE  H11R10221   1.799   3.991   5.491 -0.6053  1.4105 -0.8607
  101SAPE  C21210222   1.750   3.934   5.298 -0.5141  0.0530  0.0261
  101SAPE  H12R10223   1.743   4.040   5.268 -1.4871 -0.5471 -2.0095
  101SAPE  C21310224   1.706   3.836   5.194 -0.2091 -0.3564  0.9106
  101SAPE  H13R10225   1.608   3.871   5.154 -0.1985 -1.0451  0.2502
  101SAPE  H13S10226   1.691   3.732   5.229  1.1807 -0.7871  0.3111
  101SAPE  C21410227   1.811   3.816   5.086  0.9559  0.1775  0.7716
  101SAPE  H14R10228   1.915   3.827   5.120  2.0181 -1.8274 -1.5473
  101SAPE  C21510229   1.786   3.798   4.956  0.5503  0.2640  0.0551
  101SAPE  H15R10230   1.870   3.771   4.890 -0.4846 -1.1111 -0.7572
  101SAPE  C21610231   1.653   3.766   4.888  0.1269 -1.0353  0.2373
  101SAPE  H16R10232   1.570   3.808   4.950 -0.6827  0.3605 -1.6653
  101SAPE  H16S10233   1.636   3.656   4.885 -0.2222 -0.9780  0.0058
  101SAPE  C21710234   1.645   3.822   4.744  0.0449 -0.1763  1.1363
  101SAPE  H17R10235   1.657   3.932   4.753 -0.2948 -0.1703  1.5550
  101SAPE  H17S10236   1.546   3.796   4.700  0.2103  0.2781  0.4770
  101SAPE  C21810237   1.749   3.774   4.640 -0.0512  0.4464  0.2109
  101SAPE  H18R10238   1.734   3.666   4.619  1.0178  0.1561  0.8917
  101SAPE  H18S10239   1.851   3.788   4.681  0.4870 -1.5163 -0.3556
  101SAPE  C21910240   1.721   3.857   4.515 -0.1313 -0.0883 -0.1160
  101SAPE  H19R10241   1.713   3.963   4.548  0.5677 -0.4211  1.1791
  101SAPE  H19S10242   1.625   3.825   4.468  0.8710 -0.3462 -2.1080
  101SAPE  C22010243   1.830   3.863   4.403  0.2380  0.3641 -1.1646
  101SAPE  H20R10244   1.932   3.868   4.446 -0.6979  1.4987  1.0831
  101SAPE  H20S10245   1.826   3.953   4.337 -0.7891  0.9131 -0.3968
  101SAPE  H20T10246   1.825   3.774   4.337 -0.2125 -1.1188  0.7905
  101SAPE   C3310247   1.207   3.874   5.725 -0.5995  0.2244  0.3109
  101SAPE   H3X10248   1.096   3.881   5.718 -0.5518 -0.4537 -1.5002
  101SAPE   H3Y10249   1.239   3.770   5.745  0.8937  0.4144 -0.9342
  101SAPE   C3410250   1.252   3.903   5.580  0.4988  0.4080  0.2196
  101SAPE   H4X10251   1.360   3.928   5.576  0.8841 -1.2403 -0.8282
  101SAPE   H4Y10252   1.191   3.993   5.560  1.5998  0.8477 -1.3636
  101SAPE   C3510253   1.222   3.796   5.483  0.4548 -0.1700 -0.4989
  101SAPE   H5X10254   1.117   3.758   5.489  0.8557 -1.0692  2.1513
  101SAPE   H5Y10255   1.292   3.710   5.493  0.4411 -0.2019 -0.6707
  101SAPE   C3610256   1.255   3.840   5.344 -0.1579 -0.7905  0.2875
  101SAPE   H6X10257   1.353   3.890   5.331 -0.5829  0.1726  0.6600
  101SAPE   H6Y10258   1.178   3.920   5.329  0.7164  0.2402  1.1477
  101SAPE   C3710259   1.236   3.744   5.219 -0.3555 -0.2299 -0.1074
  101SAPE   H7X10260   1.266   3.805   5.131  1.2620  2.5321  2.1772
  101SAPE   H7Y10261   1.127   3.726   5.207 -0.4265 -1.1235  1.5570
  101SAPE   C3810262   1.302   3.608   5.211 -0.0604 -0.0124  0.6456
  101SAPE   H8X10263   1.285   3.559   5.310  2.8809 -3.6715 -0.4325
  101SAPE   H8Y10264   1.413   3.618   5.205 -0.0341 -1.0962 -2.6678
  101SAPE   C3910265   1.276   3.531   5.084 -0.5288 -0.4250  0.7766
  101SAPE   H9X10266   1.166   3.511   5.077 -1.0660  2.2338  0.7122
  101SAPE   H9Y10267   1.326   3.431   5.085 -0.7134 -0.5304  2.2404
  101SAPE  C31010268   1.311   3.605   4.952  0.2205 -0.1708 -0.2934
  101SAPE  H10X10269   1.419   3.612   4.927 -0.0932  0.7129 -1.4566
  101SAPE  H10Y10270   1.275   3.710   4.953 -0.4652 -0.3843  1.1823
  101SAPE  C31110271   1.261   3.532   4.821  0.6427 -0.0997 -0.0996
  101SAPE  H11X10272   1.150   3.540   4.826  0.6267 -0.5047  0.3079
  101SAPE  H11Y10273   1.277   3.422   4.825 -2.0825 -0.6765 -2.3674
  101SAPE  C31210274   1.306   3.586   4.685  0.2132 -0.5645 -0.3500
  101SAPE  H12X10275   1.417   3.578   4.692  0.6061  3.1415 -0.4086
  101SAPE  H12Y10276   1.289   3.694   4.669 -1.3522 -0.9413 -1.4808
  101SAPE  C31310277   1.246   3.506   4.566  0.8161 -0.0898 -0.2107
  101SAPE  H13X10278   1.139   3.534   4.564  0.3842 -1.6274  0.4212
  101SAPE  H13Y10279   1.264   3.399   4.592 -0.2034 -0.2483 -0.1390
  101SAPE  C31410280   1.321   3.540   4.437  0.1521  1.3853  0.2748
  101SAPE  H14X10281   1.276   3.487   4.351  1.8092 -0.3323  0.4129
  101SAPE  H14Y10282   1.427   3.508   4.446 -0.2569 -0.5350 -1.2026
  101SAPE  C31510283   1.319   3.687   4.401  0.4883 -0.5566  0.3724
  101SAPE  H15X10284   1.380   3.739   4.477 -0.0004  0.7601 -0.1075
  101SAPE  H15Y10285   1.215   3.727   4.402  0.3448 -0.6942 -2.4591
  101SAPE  C31610286   1.376   3.731   4.267  0.0277 -0.1518 -0.6067
  101SAPE  H16X10287   1.381   3.841   4.271 -0.1106 -0.1367 -0.8062
  101SAPE  H16Y10288   1.310   3.690   4.187 -0.5799 -0.8552  0.2264
  101SAPE  C31710289   1.521   3.679   4.244  0.2746 -0.0548 -0.1866
  101SAPE  H17X10290   1.527   3.568   4.241 -3.3548 -0.3820 -2.6092
  101SAPE  H17Y10291   1.591   3.716   4.321 -1.0713  2.8866 -0.2420
  101SAPE  C31810292   1.573   3.737   4.109 -0.0833 -0.1499  0.0899
  101SAPE  H18X10293   1.522   3.835   4.098  0.6140  0.1081 -1.0522
  101SAPE  H18Y10294   1.556   3.672   4.020  0.9108  0.0546 -0.2698
  101SAPE  H18Z10295   1.683   3.757   4.104 -0.4593  2.1918 -0.0217
  102SAPE     N10296   3.443   2.105   6.988  0.2999 -0.2621  0.0198
  102SAPE   HN110297   3.367   2.094   7.058  0.0021  3.6377  0.5831
  102SAPE   HN210298   3.386   2.105   6.901  0.8203  1.5565 -0.3837
  102SAPE   HN310299   3.520   2.036   6.992  0.0927 -0.4415  1.2186
  102SAPE   C1210300   3.477   2.248   6.992 -0.5606 -0.6963 -0.1840
  102SAPE  H12A10301   3.557   2.265   6.916  1.0096 -1.0040  1.3505
  102SAPE  H12B10302   3.526   2.263   7.090 -1.2713  2.7315 -0.2302
  102SAPE   C1110303   3.357   2.343   6.969  0.1905 -0.0333  0.3231
  102SAPE  H11A10304   3.392   2.446   6.948 -1.7278  1.1448  2.4012
  102SAPE  H11B10305   3.300   2.351   7.064  0.7133 -1.0455  0.7413
  102SAPE     P10306   3.127   2.236   6.886  0.2700 -0.2593  0.8090
  102SAPE   O1310307   3.161   2.101   6.920 -0.1860 -0.1224 -0.3272
  102SAPE   O1410308   3.048   2.316   6.986  0.1497 -0.2156 -0.1739
  102SAPE   O1210309   3.267   2.312   6.859  0.1515 -0.0500 -0.2958
  102SAPE   O1110310   3.062   2.232   6.740  0.2402 -0.0812 -0.0200
  102SAPE    C110311   3.007   2.343   6.671 -0.0444  0.0573 -0.4650
  102SAPE    HA10312   2.909   2.369   6.716  0.6247 -0.2717  1.2781
  102SAPE    HB10313   3.084   2.423   6.674  1.3705 -1.2853  0.4148
  102SAPE    C210314   3.002   2.301   6.519 -0.3982  0.1588 -0.4511
  102SAPE    HS10315   3.098   2.253   6.491 -0.1359 -0.2044  0.9758
  102SAPE   O2110316   2.975   2.417   6.443 -0.3752  0.0419  0.2011
  102SAPE   C2110317   3.071   2.499   6.428  0.2573 -0.1206 -0.0331
  102SAPE   O2210318   3.186   2.491   6.474 -0.1267  0.3995  0.0712
  102SAPE   C2210319   3.023   2.614   6.334  0.2273  0.5046 -1.0580
  102SAPE   H2R10320   2.929   2.591   6.279  0.3652 -1.4017 -0.5356
  102SAPE   H2S10321   3.009   2.703   6.400  2.2800 -0.3928  0.7024
  102SAPE    C310322   2.883   2.198   6.497  0.4505 -0.2339  0.0071
  102SAPE    HX10323   2.787   2.232   6.542 -0.5372 -1.2965 -1.2178
  102SAPE    HY10324   2.923   2.110   6.553 -1.7399  0.6429  3.2615
  102SAPE   O3110325   2.873   2.152   6.364 -0.2745 -0.1486 -0.0075
  102SAPE   C3110326   2.776   2.226   6.301 -0.5375  0.8767 -0.1064
  102SAPE   O3210327   2.718   2.321   6.343 -0.0817 -0.2539 -0.0174
  102SAPE   C3210328   2.766   2.172   6.157  0.0368  0.4928 -0.7451
  102SAPE   H2X10329   2.670   2.117   6.148  0.9130 -1.0676 -0.8683
  102SAPE   H2Y10330   2.844   2.094   6.144  2.0123  2.1083  0.8134
  102SAPE   C2310331   3.147   2.614   6.239  0.2281  0.0379  0.1309
  102SAPE   H3R10332   3.243   2.624   6.295 -0.1825  3.2237  0.4674
  102SAPE   H3S10333   3.151   2.710   6.184  3.3470  0.3991  0.7992
  102SAPE   C2410334   3.134   2.494   6.141 -0.1919  0.5192  0.4587
  102SAPE   H4R10335   3.035   2.493   6.092  1.0926  0.7410 -2.3230
  102SAPE   H4S10336   3.146   2.399   6.198  0.7954  0.7201  0.6062
  102SAPE   C2510337   3.238   2.507   6.032  0.3530  1.1396  0.0016
  102SAPE   H5R10338   3.337   2.467   6.061 -0.3456  1.3410  3.0436
  102SAPE   C2610339   3.217   2.572   5.913 -0.1882  0.6905  0.2931
  102SAPE   H6R10340   3.299   2.564   5.840 -1.5069  0.3708 -1.1999
  102SAPE   C2710341   3.098   2.661   5.875  0.3980  0.5450 -0.0687
  102SAPE   H7R10342   3.133   2.763   5.847  0.4290  0.3939 -0.5812
  102SAPE   H7S10343   3.037   2.670   5.967  0.0292 -1.8596 -0.0110
  102SAPE   C2810344   3.009   2.596   5.778  0.3869 -0.3600 -0.5026
  102SAPE   H8R10345   2.915   2.553   5.815 -1.3103  2.1827 -1.6247
  102SAPE   C2910346   3.033   2.585   5.640  0.4414  0.1035 -0.2302
  102SAPE   H9R10347   2.956   2.529   5.584  2.1136 -1.6498 -0.8971
  102SAPE  C21010348   3.147   2.634   5.556 -0.2989  1.2351  0.3572
  102SAPE  H10R10349   3.212   2.706   5.609 -2.9481  3.1262  1.2241
  102SAPE  H10S10350   3.099   2.688   5.472 -1.0571  0.0583  0.0015
  102SAPE  C21110351   3.232   2.522   5.501 -0.0055 -0.0988 -0.5637
  102SAPE  H11R10352   3.242   2.429   5.560 -0.2386 -0.2171 -0.7051
  102SAPE  C21210353   3.294   2.520   5.382 -0.0555  0.1581  0.3157
  102SAPE  H12R10354   3.351   2.431   5.351  1.2343  0.4391  1.7339
  102SAPE  C21310355   3.291   2.625   5.276  0.3016 -0.1561 -0.0460
  102SAPE  H13R10356   3.372   2.604   5.203 -0.0102 -1.2431 -0.0990
  102SAPE  H13S10357   3.311   2.721   5.327 -2.0773 -0.5706  1.8883
  102SAPE  C21410358   3.165   2.616   5.200 -0.0988  0.2852  1.0695
  102SAPE  H14R10359   3.083   2.556   5.244 -0.0593 -1.5967 -1.2276
  102SAPE  C21510360   3.148   2.656   5.064  0.3507 -0.1034 -0.2432
  102SAPE  H15R10361   3.045   2.656   5.026  0.2659 -0.1326 -0.0147
  102SAPE  C21610362   3.249   2.735   4.979 -0.2274 -0.5519 -0.1851
  102SAPE  H16R10363   3.353   2.704   5.000 -0.5355 -1.0054  0.7374
  102SAPE  H16S10364   3.250   2.842   5.008  0.4288 -1.0923  1.9741
  102SAPE  C21710365   3.225   2.718   4.824 -0.0901 -0.5308 -0.5430
  102SAPE  H17R10366   3.122   2.751   4.796 -0.7384 -0.5006  1.6593
  102SAPE  H17S10367   3.242   2.609   4.809 -1.6351 -1.1879  1.7833
  102SAPE  C21810368   3.328   2.790   4.738  0.2173 -0.3529  0.1345
  102SAPE  H18R10369   3.422   2.766   4.792 -1.3731 -3.9673  1.6818
  102SAPE  H18S10370   3.310   2.899   4.741 -2.7323 -0.7200 -1.0310
  102SAPE  C21910371   3.334   2.732   4.601 -0.0129 -0.8499  0.7305
  102SAPE  H19R10372   3.239   2.750   4.548  0.3705  0.2174  0.3798
  102SAPE  H19S10373   3.345   2.622   4.611  0.2873 -0.7816  1.1932
  102SAPE  C22010374   3.444   2.796   4.518 -0.0504  0.2759  0.2420
  102SAPE  H20R10375   3.542   2.763   4.559 -1.2662 -3.8685  0.3330
  102SAPE  H20S10376   3.438   2.905   4.537 -0.7434  0.6493 -1.9015
  102SAPE  H20T10377   3.443   2.778   4.409  4.3696  2.1992 -0.3103
  102SAPE   C3310378   2.789   2.280   6.040 -0.2531  0.1203 -0.1018
  102SAPE   H3X10379   2.895   2.312   6.050  0.8003 -3.4143  1.3486
  102SAPE   H3Y10380   2.726   2.370   6.056  0.5944  1.2173 -2.4508
  102SAPE   C3410381   2.776   2.220   5.898  0.5075 -0.1048  0.0856
  102SAPE   H4X10382   2.780   2.302   5.824  0.4318 -1.9434 -2.0803
  102SAPE   H4Y10383   2.684   2.158   5.883  0.8659 -0.6627  0.1596
  102SAPE   C3510384   2.896   2.130   5.869  0.1209 -0.5978  0.0522
  102SAPE   H5X10385   2.886   2.042   5.937 -1.6754 -2.3994 -2.3419
  102SAPE   H5Y10386   2.983   2.196   5.888 -1.6498  1.9245 -0.1381
  102SAPE   C3610387   2.918   2.067   5.725  1.0495  0.2761 -0.0271
  102SAPE   H6X10388   2.837   1.992   5.716  2.0938 -0.9764  0.7755
  102SAPE   H6Y10389   3.019   2.021   5.721  0.4841 -0.9988 -0.0808
  102SAPE   C3710390   2.883   2.171   5.614 -0.5925 -0.1077 -0.5094
  102SAPE   H7X10391   2.926   2.268   5.647  1.1974 -1.0050 -0.0428
  102SAPE   H7Y10392   2.775   2.187   5.599 -0.8391 -2.5514 -1.9214
  102SAPE   C3810393   2.942   2.119   5.483  0.4552 -0.1687  0.5322
  102SAPE   H8X10394   2.938   2.008   5.480  0.5136 -0.2015  1.4933
  102SAPE   H8Y10395   3.046   2.157   5.488 -0.2230  1.8847  0.2835
  102SAPE   C3910396   2.896   2.163   5.347 -0.1548 -1.1742 -0.2752
  102SAPE   H9X10397   2.787   2.145   5.340 -0.8939  2.4775 -0.3689
  102SAPE   H9Y10398   2.946   2.108   5.265  0.9898  0.3533 -0.6530
  102SAPE  C31010399   2.899   2.319   5.331  0.2456  0.1586  0.1014
  102SAPE  H10X10400   3.001   2.363   5.323 -0.2869  1.5283  0.5751
  102SAPE  H10Y10401   2.842   2.369   5.412  1.8863  2.5622 -0.1254
  102SAPE  C31110402   2.838   2.355   5.193  0.6958 -0.2037 -0.1798
  102SAPE  H11X10403   2.832   2.465   5.179 -1.0463 -0.1842  0.5043
  102SAPE  H11Y10404   2.734   2.321   5.177  1.1608 -1.8387  0.0680
  102SAPE  C31210405   2.924   2.304   5.072 -0.0684 -0.0555 -0.2356
  102SAPE  H12X10406   2.922   2.193   5.061  0.9245  0.0690 -2.0611
  102SAPE  H12Y10407   3.031   2.327   5.092  0.6230 -4.3510  2.1508
  102SAPE  C31310408   2.872   2.375   4.949 -0.3948 -0.1025  0.2784
  102SAPE  H13X10409   2.847   2.480   4.976 -2.9678 -1.1323  2.3595
  102SAPE  H13Y10410   2.771   2.340   4.919 -0.1513  0.3421 -1.1320
  102SAPE  C31410411   2.974   2.366   4.826  0.0879  0.1630  0.1182
  102SAPE  H14X10412   3.007   2.261   4.812 -1.7791 -0.1554 -2.5389
  102SAPE  H14Y10413   3.064   2.421   4.860  0.0336  1.0339 -1.1145
  102SAPE  C31510414   2.915   2.436   4.700 -0.3765 -0.3156  0.3990
  102SAPE  H15X10415   2.911   2.546   4.718  3.6134  0.4474 -2.2379
  102SAPE  H15Y10416   2.810   2.406   4.679 -0.8838  2.3460 -1.4509
  102SAPE  C31610417   3.007   2.395   4.577 -0.0318  0.1068 -1.6700
  102SAPE  H16X10418   2.994   2.288   4.549 -0.4571 -0.0265 -0.9849
  102SAPE  H16Y10419   3.116   2.410   4.591  0.1050 -0.8100 -1.6841
  102SAPE  C31710420   2.993   2.488   4.459 -0.2890  0.6077  0.1395
  102SAPE  H17X10421   3.056   2.463   4.371 -1.4039 -1.0669 -0.2252
  102SAPE  H17Y10422   3.026   2.592   4.482  2.0103  0.0098 -0.1733
  102SAPE  C31810423   2.852   2.487   4.401  0.1204  0.2230 -0.2146
  102SAPE  H18X10424   2.830   2.391   4.349  1.0825 -0.9605  1.4621
  102SAPE  H18Y10425   2.852   2.576   4.335 -1.3041  0.1564 -0.3226
  102SAPE  H18Z10426   2.778   2.488   4.483  0.5629 -1.9986  0.3050
  103SAPE     N10427   1.057   4.079   2.123  0.5258  0.1581  0.4254
  103SAPE   HN110428   1.071   4.111   2.025  0.7068  1.4040  0.8418
  103SAPE   HN210429   0.979   4.135   2.163  0.1717  0.2159 -0.3360
  103SAPE   HN310430   1.144   4.095   2.179  1.3522 -1.8134 -0.1945
  103SAPE   C1210431   1.026   3.927   2.133  0.7776  0.3511  0.6592
  103SAPE  H12A10432   1.080   3.868   2.056 -1.4038 -0.7766 -0.0830
  103SAPE  H12B10433   0.919   3.916   2.105  0.5495  2.0247  0.7656
  103SAPE   C1110434   1.057   3.877   2.278  0.7519  0.3856  0.1156
  103SAPE  H11A10435   1.013   3.937   2.361  3.1569  0.8855  1.1392
  103SAPE  H11B10436   1.166   3.883   2.301  0.8386  1.5526 -0.4823
  103SAPE     P10437   0.902   3.700   2.367  0.1917  0.4301 -0.1586
  103SAPE   O1310438   0.791   3.792   2.345  0.3639 -0.2256  0.5988
  103SAPE   O1410439   0.881   3.552   2.356  0.1706 -0.3875 -0.4088
  103SAPE   O1210440   1.022   3.741   2.275  0.0708  0.2506  0.1040
  103SAPE   O1110441   0.956   3.727   2.512 -0.4220  0.5781 -0.4423
  103SAPE    C110442   0.922   3.677   2.640 -0.2364  0.4883  0.6935
  103SAPE    HA10443   0.870   3.579   2.643  2.9267 -1.4923 -2.0184
  103SAPE    HB10444   1.018   3.675   2.696  0.4853  1.5603 -0.4406
  103SAPE    C210445   0.829   3.773   2.705  0.5726 -0.0358 -0.2731
  103SAPE    HS10446   0.798   3.735   2.805 -2.4080 -0.8045 -1.3647
  103SAPE   O2110447   0.710   3.791   2.629 -0.1263  0.0323  0.0486
  103SAPE   C2110448   0.620   3.693   2.653  0.2589  0.2320  0.3277
  103SAPE   O2210449   0.637   3.595   2.724 -0.2801 -0.3255 -0.3095
  103SAPE   C2210450   0.488   3.715   2.572 -0.3082 -0.1138  0.5840
  103SAPE   H2R10451   0.457   3.821   2.561  0.8974  0.1901 -0.0782
  103SAPE   H2S10452   0.496   3.662   2.475 -0.4325 -1.3213  1.2149
  103SAPE    C310453   0.891   3.915   2.721 -0.0559 -0.0117  0.3780
  103SAPE    HX10454   0.892   3.958   2.618  0.0248  0.9898  0.7947
  103SAPE    HY10455   0.992   3.896   2.764  0.6984  1.3222 -0.7249
  103SAPE   O3110456   0.811   3.987   2.813 -0.3916 -0.0366  0.3589
  103SAPE   C3110457   0.877   4.098   2.835 -0.8966 -0.3340  0.0814
  103SAPE   O3210458   0.983   4.131   2.782 -0.0750  0.4953  0.6308
  103SAPE   C3210459   0.809   4.184   2.941 -0.0221  0.1996  0.8554
  103SAPE   H2X10460   0.796   4.128   3.036 -0.3400  1.4181  1.5547
  103SAPE   H2Y10461   0.710   4.205   2.896 -0.8066 -1.5738  1.6648
  103SAPE   C2310462   0.365   3.650   2.639 -0.0928 -0.2868 -0.3573
  103SAPE   H3R10463   0.343   3.689   2.740  1.7701 -1.7676  0.6951
  103SAPE   H3S10464   0.387   3.541   2.648 -1.4838 -0.4178  2.7185
  103SAPE   C2410465   0.232   3.653   2.565 -0.0877 -0.0002 -0.0472
  103SAPE   H4R10466   0.174   3.562   2.593 -0.5734  0.5425  0.7512
  103SAPE   H4S10467   0.256   3.631   2.459  0.0070  1.1956 -0.2867
  103SAPE   C2510468   0.171   3.790   2.563  0.5768  0.0602  0.1236
  103SAPE   H5R10469   0.238   3.873   2.535  0.6336  1.0446  2.8455
  103SAPE   C2610470   0.047   3.824   2.594 -0.0878 -0.4506 -0.3223
  103SAPE   H6R10471   0.020   3.931   2.592 -3.7219 -1.2573 -0.4453
  103SAPE   C2710472  -0.053   3.725   2.649 -0.1254 -0.0321  0.2074
  103SAPE   H7R10473   0.003   3.644   2.701 -0.6660 -0.8741 -0.4886
  103SAPE   H7S10474  -0.104   3.677   2.562 -0.3745  2.2868 -0.9897
  103SAPE   C2810475  -0.165   3.787   2.729  0.5810  0.8358 -0.3625
  103SAPE   H8R10476  -0.231   3.855   2.674  0.2718  1.4504  0.7310
  103SAPE   C2910477  -0.205   3.744   2.859 -0.4358  0.1107  0.1554
  103SAPE   H9R10478  -0.286   3.791   2.916 -0.7831 -2.5756  2.0493
  103SAPE  C21010479  -0.130   3.647   2.945  0.0359  0.4324 -0.1862
  103SAPE  H10R10480  -0.021   3.652   2.925  0.4987 -0.6267  1.8371
  103SAPE  H10S10481  -0.143   3.540   2.918 -1.4677  0.6475 -0.4079
  103SAPE  C21110482  -0.146   3.672   3.090 -0.2177  0.1938 -0.4485
  103SAPE  H11R10483  -0.249   3.658   3.126 -0.4335  2.7790  0.0883
  103SAPE  C21210484  -0.055   3.721   3.181 -0.3722  0.6744 -0.2142
  103SAPE  H12R10485  -0.089   3.726   3.285 -0.2863  1.4961 -0.2209
  103SAPE  C21310486   0.089   3.764   3.164  0.0675 -0.0138  0.2827
  103SAPE  H13R10487   0.126   3.736   3.063  0.0296  1.8335 -0.2674
  103SAPE  H13S10488   0.144   3.700   3.237  2.3995  0.0417 -1.3236
  103SAPE  C21410489   0.116   3.910   3.186 -0.5851  0.4640  0.6169
  103SAPE  H14R10490   0.067   3.977   3.113 -0.3725 -0.5570 -0.4974
  103SAPE  C21510491   0.207   3.970   3.270 -0.1861  0.1173  0.4151
  103SAPE  H15R10492   0.225   4.078   3.262 -0.0804 -0.0657 -3.1163
  103SAPE  C21610493   0.293   3.902   3.367 -1.1658 -0.3086 -0.2023
  103SAPE  H16R10494   0.394   3.949   3.360 -1.2440 -0.3189 -1.6010
  103SAPE  H16S10495   0.305   3.792   3.365 -0.4047 -0.2326 -0.0382
  103SAPE  C21710496   0.249   3.925   3.515  0.1677  0.3237  0.3461
  103SAPE  H17R10497   0.265   4.031   3.541  0.4065  0.5952 -0.8686
  103SAPE  H17S10498   0.321   3.861   3.570 -0.3738  0.6582  1.4646
  103SAPE  C21810499   0.105   3.893   3.552  0.2381  0.2604  0.6065
  103SAPE  H18R10500   0.077   3.786   3.541 -0.6024  0.5685 -0.3840
  103SAPE  H18S10501   0.033   3.950   3.489  2.0576  2.5960  0.5171
  103SAPE  C21910502   0.075   3.926   3.702  0.4446  0.1417  0.1721
  103SAPE  H19R10503  -0.029   3.892   3.719  0.3302  1.0931  1.5230
  103SAPE  H19S10504   0.089   4.034   3.724  0.7643  0.2115 -0.3570
  103SAPE  C22010505   0.160   3.855   3.808 -0.1998 -0.3304  0.0012
  103SAPE  H20R10506   0.115   3.873   3.908  0.8531  0.9440  0.2747
  103SAPE  H20S10507   0.267   3.885   3.816  0.3593 -1.9542 -0.9181
  103SAPE  H20T10508   0.154   3.745   3.792 -1.7235 -0.0420 -1.6640
  103SAPE   C3310509   0.889   4.306   2.963  0.1241 -0.2769  0.3973
  103SAPE   H3X10510   0.912   4.361   2.869 -2.3843  0.7119  0.2819
  103SAPE   H3Y10511   0.983   4.286   3.018  0.2034  1.8032  1.1208
  103SAPE   C3410512   0.812   4.414   3.048 -0.3032 -0.4176 -0.6276
  103SAPE   H4X10513   0.736   4.463   2.984 -2.5393 -2.1929  0.4794
  103SAPE   H4Y10514   0.886   4.492   3.073 -0.4051 -0.3361 -0.5786
  103SAPE   C3510515   0.729   4.357   3.165  0.6002  0.1567 -0.1996
  103SAPE   H5X10516   0.656   4.281   3.129  1.2809 -0.7022  0.2182
  103SAPE   H5Y10517   0.675   4.439   3.217  0.0273 -0.1486 -0.3006
  103SAPE   C3610518   0.818   4.300   3.279  0.3277 -0.0837 -0.7689
  103SAPE   H6X10519   0.875   4.388   3.315  0.4435 -0.7292  0.6801
  103SAPE   H6Y10520   0.883   4.217   3.243 -0.5445 -1.5202  0.8489
  103SAPE   C3710521   0.738   4.252   3.399 -0.5002  0.1488  0.2823
  103SAPE   H7X10522   0.696   4.151   3.375  0.1403  0.3363 -1.8460
  103SAPE   H7Y10523   0.660   4.325   3.430  1.5811  2.1688  0.9407
  103SAPE   C3810524   0.839   4.221   3.512  0.1509  0.7696 -0.0004
  103SAPE   H8X10525   0.903   4.311   3.524 -1.7435  2.0365  1.1262
  103SAPE   H8Y10526   0.898   4.131   3.483  0.5197  0.3560  1.9233
  103SAPE   C3910527   0.771   4.188   3.641  0.7604  0.5799  0.2427
  103SAPE   H9X10528   0.711   4.276   3.672  0.4648 -0.0461  1.5217
  103SAPE   H9Y10529   0.849   4.169   3.719 -2.8881 -0.1204  4.0977
  103SAPE  C31010530   0.677   4.061   3.643 -0.7739 -0.0960  0.0419
  103SAPE  H10X10531   0.727   3.972   3.597  1.0346 -0.4067  2.4381
  103SAPE  H10Y10532   0.588   4.074   3.577  0.0353  3.0934 -0.5723
  103SAPE  C31110533   0.614   4.025   3.781  0.1530 -0.0461 -0.1394
  103SAPE  H11X10534   0.526   3.959   3.765 -0.3541  1.1018 -2.5317
  103SAPE  H11Y10535   0.581   4.116   3.836  1.2760  0.0261  0.4340
  103SAPE  C31210536   0.728   3.963   3.864 -0.6678  0.2731 -0.6885
  103SAPE  H12X10537   0.793   4.051   3.879  0.9786 -1.1711  1.0888
  103SAPE  H12Y10538   0.783   3.883   3.810  0.1576  0.7145 -0.5094
  103SAPE  C31310539   0.685   3.929   4.007  0.0082  0.2165  0.0694
  103SAPE  H13X10540   0.633   4.015   4.054 -2.2765 -0.7978 -0.4223
  103SAPE  H13Y10541   0.786   3.918   4.051  1.0412  0.4622 -2.1004
  103SAPE  C31410542   0.601   3.799   4.015 -0.6623 -0.0345 -0.0344
  103SAPE  H14X10543   0.662   3.733   3.949 -0.6124 -0.7661  0.7291
  103SAPE  H14Y10544   0.505   3.816   3.962 -0.7687 -3.0861 -1.0195
  103SAPE  C31510545   0.578   3.742   4.157 -0.5667  0.2312 -0.7100
  103SAPE  H15X10546   0.525   3.824   4.210 -1.8455 -1.3477  0.5459
  103SAPE  H15Y10547   0.677   3.725   4.204 -0.8299 -0.4788 -0.3989
  103SAPE  C31610548   0.503   3.610   4.172 -0.3267 -0.0807  0.3878
  103SAPE  H16X10549   0.562   3.529   4.124  0.6195  0.8856 -0.1409
  103SAPE  H16Y10550   0.416   3.614   4.104  1.8641  2.2251 -2.6035
  103SAPE  C31710551   0.449   3.581   4.309  0.1604  0.3584 -0.1077
  103SAPE  H17X10552   0.372   3.660   4.323  0.5965  0.7900 -0.1124
  103SAPE  H17Y10553   0.525   3.595   4.389 -1.9637 -1.7249  2.5224
  103SAPE  C31810554   0.391   3.444   4.336  0.7259  0.3609 -0.3380
  103SAPE  H18X10555   0.338   3.436   4.433  2.4011  0.0062  0.5989
  103SAPE  H18Y10556   0.464   3.360   4.330  0.0676 -0.3736  1.2906
  103SAPE  H18Z10557   0.310   3.424   4.263  0.1414 -1.5202  0.7561
  104SAPE     N10558   3.907   5.694   2.409 -0.0096 -0.7594 -0.6365
  104SAPE   HN110559   3.917   5.650   2.315  2.3654  2.6700 -2.2322
  104SAPE   HN210560   3.909   5.792   2.373 -2.1378 -0.3062  0.3594
  104SAPE   HN310561   3.988   5.687   2.474 -0.5320  2.4317  0.5627
  104SAPE   C1210562   3.780   5.664   2.483 -0.1767 -0.5332 -0.4391
  104SAPE  H12A10563   3.751   5.754   2.542 -0.3503 -0.7091 -0.2536
  104SAPE  H12B10564   3.795   5.575   2.547 -1.4144 -0.6660 -0.2989
  104SAPE   C1110565   3.659   5.638   2.391 -0.1635  0.4528 -1.0112
  104SAPE  H11A10566   3.640   5.728   2.328  1.3891  2.9147  1.7654
  104SAPE  H11B10567   3.569   5.617   2.452  1.0058 -2.3389 -0.0812
  104SAPE     P10568   3.588   5.408   2.277 -0.0796 -0.0029  0.1300
  104SAPE   O1310569   3.486   5.449   2.174  0.3756  0.0672  0.4063
  104SAPE   O1410570   3.662   5.282   2.252 -0.4436 -0.0538 -0.2221
  104SAPE   O1210571   3.691   5.520   2.308  0.0515  0.2491 -0.2087
  104SAPE   O1110572   3.530   5.397   2.422  0.2779 -0.1955 -0.6479
  104SAPE    C110573   3.558   5.292   2.510 -0.0183 -0.4877 -0.7398
  104SAPE    HA10574   3.512   5.196   2.476 -1.7866 -0.6100  1.6699
  104SAPE    HB10575   3.668   5.282   2.511  0.0357  0.0859 -0.5890
  104SAPE    C210576   3.489   5.319   2.648 -0.0203 -0.2819  0.0044
  104SAPE    HS10577   3.487   5.431   2.649 -0.2556 -0.2850  0.7648
  104SAPE   O2110578   3.567   5.263   2.754 -0.0359 -0.5472  0.2204
  104SAPE   C2110579   3.673   5.330   2.790  0.0650  0.7646 -0.4834
  104SAPE   O2210580   3.710   5.437   2.752 -0.2581 -0.2917  0.1274
  104SAPE   C2210581   3.747   5.252   2.903 -0.2944 -0.8283 -0.3297
  104SAPE   H2R10582   3.704   5.284   3.000 -0.8166 -0.8812 -0.5409
  104SAPE   H2S10583   3.730   5.144   2.884  1.1367 -1.1756  0.1712
  104SAPE    C310584   3.346   5.268   2.648  0.0645  0.4387  1.2204
  104SAPE    HX10585   3.343   5.158   2.632 -1.4793  0.5180  0.7626
  104SAPE    HY10586   3.298   5.311   2.557 -0.0498 -0.0073  1.0707
  104SAPE   O3110587   3.278   5.297   2.772 -0.0310  0.6113 -0.5548
  104SAPE   C3110588   3.239   5.416   2.792 -0.1028  0.1348  0.3888
  104SAPE   O3210589   3.242   5.505   2.709 -0.3690 -0.3501  0.1991
  104SAPE   C3210590   3.169   5.434   2.929  0.2185  0.0098  0.3884
  104SAPE   H2X10591   3.142   5.331   2.961  1.7284 -0.9248 -1.1909
  104SAPE   H2Y10592   3.076   5.491   2.909  1.6894  1.8583 -1.7355
  104SAPE   C2310593   3.898   5.284   2.908 -0.1831 -0.2701 -0.5500
  104SAPE   H3R10594   3.921   5.391   2.887 -0.1395 -0.4187 -1.3037
  104SAPE   H3S10595   3.951   5.226   2.830 -2.3888 -1.7263 -1.0424
  104SAPE   C2410596   3.960   5.247   3.044  0.4483 -0.4033 -0.7888
  104SAPE   H4R10597   4.070   5.233   3.034  0.3023 -1.8276 -0.6604
  104SAPE   H4S10598   3.913   5.151   3.076  1.9746 -2.1111 -3.2969
  104SAPE   C2510599   3.930   5.359   3.141  0.4211  0.0853 -0.3660
  104SAPE   H5R10600   3.920   5.465   3.115  2.2204  0.5885  0.8278
  104SAPE   C2610601   3.941   5.348   3.274  0.6792 -0.1964  0.1844
  104SAPE   H6R10602   3.924   5.436   3.339 -0.9230  1.8950 -2.8142
  104SAPE   C2710603   3.981   5.218   3.345  0.0994 -0.1588 -0.3005
  104SAPE   H7R10604   4.051   5.157   3.285  1.9223  0.6091  0.9564
  104SAPE   H7S10605   3.887   5.160   3.355  0.2676 -0.3357  0.2544
  104SAPE   C2810606   4.046   5.238   3.478 -0.0650 -0.0569 -0.6664
  104SAPE   H8R10607   4.062   5.339   3.517 -0.7208 -0.5201  0.8664
  104SAPE   C2910608   4.087   5.137   3.561 -0.3338  0.0953  0.3318
  104SAPE   H9R10609   4.127   5.175   3.656 -1.5102  1.9471  0.1567
  104SAPE  C21010610   4.077   4.985   3.531  0.2401 -0.0317 -0.8051
  104SAPE  H10R10611   4.070   4.968   3.422 -0.1526 -1.2850 -0.5902
  104SAPE  H10S10612   3.983   4.948   3.576  0.6824 -0.6653 -0.3818
  104SAPE  C21110613   4.193   4.911   3.596  0.6987 -0.2224 -0.7240
  104SAPE  H11R10614   4.290   4.934   3.550  2.1328  0.6219  2.4771
  104SAPE  C21210615   4.181   4.841   3.706 -0.2289  0.0349 -0.1506
  104SAPE  H12R10616   4.267   4.790   3.751 -0.4343 -0.2063 -0.0255
  104SAPE  C21310617   4.059   4.803   3.789 -0.4193 -0.2026  0.3856
  104SAPE  H13R10618   4.093   4.723   3.858  1.3864  0.1439 -0.0697
  104SAPE  H13S10619   3.985   4.761   3.717  0.0929  1.5354 -1.2283
  104SAPE  C21410620   3.984   4.913   3.869  0.1054 -0.1483  0.3782
  104SAPE  H14R10621   3.991   5.012   3.823  0.9639 -0.9563 -1.3226
  104SAPE  C21510622   3.930   4.890   3.993 -0.9529 -0.9835 -0.4935
  104SAPE  H15R10623   3.876   4.966   4.052  0.5766 -0.1197 -0.1526
  104SAPE  C21610624   3.924   4.758   4.063 -0.4766  0.2922  0.5143
  104SAPE  H16R10625   3.927   4.672   3.992  0.1117 -0.9351  1.9794
  104SAPE  H16S10626   3.825   4.748   4.113 -0.9909  1.0875 -0.2998
  104SAPE  C21710627   4.032   4.742   4.160  0.5728  0.0401  0.0095
  104SAPE  H17R10628   4.128   4.731   4.105  0.3140 -0.4286 -0.3630
  104SAPE  H17S10629   4.007   4.649   4.216 -0.8271 -0.6529 -1.6648
  104SAPE  C21810630   4.041   4.862   4.257 -0.6576 -0.3114 -0.1986
  104SAPE  H18R10631   3.937   4.880   4.292 -0.8812 -1.4196 -0.2270
  104SAPE  H18S10632   4.083   4.958   4.220  0.2070 -0.1532  1.1217
  104SAPE  C21910633   4.140   4.845   4.376  1.0178  0.2704 -0.4390
  104SAPE  H19R10634   4.229   4.785   4.348 -0.7267 -4.1885  2.4468
  104SAPE  H19S10635   4.100   4.767   4.443 -1.0795  1.5347 -0.1340
  104SAPE  C22010636   4.183   4.976   4.440 -0.1372  0.4512  0.1162
  104SAPE  H20R10637   4.197   5.051   4.359  0.3479 -0.9368 -1.1356
  104SAPE  H20S10638   4.276   4.958   4.497 -0.5599  0.2564  0.7567
  104SAPE  H20T10639   4.109   5.008   4.517 -1.4110  1.1289 -1.3362
  104SAPE   C3310640   3.269   5.496   3.032 -0.2895  0.2342 -0.6500
  104SAPE   H3X10641   3.305   5.598   3.007 -2.7257  1.3452  0.0363
  104SAPE   H3Y10642   3.356   5.428   3.036 -0.6481 -0.5616 -3.5215
  104SAPE   C3410643   3.190   5.503   3.172 -0.4758 -0.6713 -0.2199
  104SAPE   H4X10644   3.112   5.425   3.189 -0.4900 -0.5480  0.2811
  104SAPE   H4Y10645   3.131   5.597   3.169  0.3814 -0.1274 -3.1345
  104SAPE   C3510646   3.273   5.524   3.304 -0.1320 -0.1531 -0.4737
  104SAPE   H5X10647   3.338   5.614   3.297 -0.1339 -0.0076  1.0364
  104SAPE   H5Y10648   3.340   5.437   3.320 -0.6380 -0.7591 -1.5177
  104SAPE   C3610649   3.191   5.559   3.428  0.2370 -0.0289 -0.2875
  104SAPE   H6X10650   3.132   5.470   3.460  0.9501 -0.7048 -0.8151
  104SAPE   H6Y10651   3.120   5.643   3.410 -0.9567 -0.7857  0.6713
  104SAPE   C3710652   3.283   5.589   3.538 -1.1963 -0.4274 -0.0976
  104SAPE   H7X10653   3.325   5.691   3.520  0.1288 -1.3710 -2.9821
  104SAPE   H7Y10654   3.366   5.516   3.530 -0.1707  0.6068  0.6701
  104SAPE   C3810655   3.213   5.570   3.675  0.5701  0.2536 -0.3634
  104SAPE   H8X10656   3.166   5.470   3.669 -1.6731  1.3004 -1.5148
  104SAPE   H8Y10657   3.136   5.650   3.685 -0.6804 -0.8268 -1.0187
  104SAPE   C3910658   3.307   5.592   3.799  0.0239  0.6316  1.5763
  104SAPE   H9X10659   3.345   5.696   3.801 -0.9586  0.9933  1.7209
  104SAPE   H9Y10660   3.388   5.518   3.784 -0.2496  0.8804 -1.8170
  104SAPE  C31010661   3.244   5.557   3.931 -0.1440  0.0285 -0.0382
  104SAPE  H10X10662   3.250   5.446   3.943  2.8454  0.1222 -0.1231
  104SAPE  H10Y10663   3.138   5.590   3.936 -1.1755 -2.8432 -0.8064
  104SAPE  C31110664   3.333   5.611   4.047  1.8593 -0.6338  0.2808
  104SAPE  H11X10665   3.361   5.715   4.018  2.6537 -0.3198  2.0464
  104SAPE  H11Y10666   3.427   5.554   4.059  2.3040 -0.2745 -1.2987
  104SAPE  C31210667   3.255   5.609   4.180 -0.0988 -0.0634  0.6530
  104SAPE  H12X10668   3.150   5.638   4.157  1.2267  2.1698 -3.8510
  104SAPE  H12Y10669   3.303   5.688   4.242  0.4760 -0.5789  0.8844
  104SAPE  C31310670   3.258   5.474   4.251  0.2173  0.0060 -0.0546
  104SAPE  H13X10671   3.364   5.447   4.272  0.2891  1.4092  1.5977
  104SAPE  H13Y10672   3.225   5.393   4.183  0.3255 -0.5871  0.5903
  104SAPE  C31410673   3.187   5.464   4.388 -0.5923  0.0783  0.7883
  104SAPE  H14X10674   3.145   5.361   4.385 -0.2918 -0.0179 -1.1748
  104SAPE  H14Y10675   3.108   5.542   4.399  1.3295  2.6233 -1.8954
  104SAPE  C31510676   3.292   5.465   4.501 -0.0380 -0.4652 -1.0213
  104SAPE  H15X10677   3.365   5.384   4.480 -0.2952 -0.1042 -3.7095
  104SAPE  H15Y10678   3.252   5.440   4.601  0.0505 -0.6731 -1.0380
  104SAPE  C31610679   3.372   5.600   4.511 -0.1261  0.2625 -0.0573
  104SAPE  H16X10680   3.303   5.683   4.538  0.6129  0.1880  2.2190
  104SAPE  H16Y10681   3.425   5.615   4.415 -0.6095 -0.9192 -0.5375
  104SAPE  C31710682   3.483   5.588   4.626  0.5982  0.1841 -0.1441
  104SAPE  H17X10683   3.539   5.493   4.626 -0.9558 -0.7834  0.9481
  104SAPE  H17Y10684   3.422   5.582   4.719  2.5517 -0.0426  1.1658
  104SAPE  C31810685   3.564   5.711   4.648  0.2043 -0.3764  0.2580
  104SAPE  H18X10686   3.623   5.717   4.742  1.9235 -0.9311 -0.7462
  104SAPE  H18Y10687   3.495   5.798   4.635 -0.6281 -0.8625  1.2030
  104SAPE  H18Z10688   3.636   5.713   4.564  0.0529  1.4302  0.1247
  105SAPE     N10689   0.201   0.145   2.384  0.7697  0.8193  0.2806
  105SAPE   HN110690   0.273   0.113   2.316  0.1740  0.0698 -0.0171
  105SAPE   HN210691   0.172   0.068   2.448 -0.3382 -1.8069 -3.0138
  105SAPE   HN310692   0.118   0.172   2.327  0.5433  0.7549  0.5807
  105SAPE   C1210693   0.245   0.269   2.459  0.2921 -0.7251  0.0401
  105SAPE  H12A10694   0.287   0.335   2.380 -1.9672  0.0881 -0.5594
  105SAPE  H12B10695   0.333   0.231   2.515  0.8439 -1.5833 -1.3406
  105SAPE   C1110696   0.141   0.337   2.551  0.2761 -0.8121 -0.2582
  105SAPE  H11A10697   0.179   0.431   2.597  0.2023 -0.1570 -1.4918
  105SAPE  H11B10698   0.121   0.266   2.634 -0.9571 -0.5951 -0.3464
  105SAPE     P10699  -0.126   0.344   2.524  0.0793 -0.1462 -0.2221
  105SAPE   O1310700  -0.219   0.390   2.413  0.0545 -0.2567 -0.0849
  105SAPE   O1410701  -0.142   0.204   2.569 -0.6230  0.5812 -0.4446
  105SAPE   O1210702   0.019   0.368   2.479 -0.2002 -0.2978  0.0638
  105SAPE   O1110703  -0.141   0.439   2.648  0.0650 -0.5907  0.5794
  105SAPE    C110704  -0.108   0.580   2.640  0.1287  0.3478  0.2488
  105SAPE    HA10705  -0.021   0.600   2.705  1.4403 -2.2383 -0.5453
  105SAPE    HB10706  -0.085   0.609   2.535  0.9212  0.2421  0.3895
  105SAPE    C210707  -0.234   0.662   2.683 -0.1545  0.6258  0.4499
  105SAPE    HS10708  -0.215   0.770   2.664  1.6349  0.8796  3.0334
  105SAPE   O2110709  -0.265   0.646   2.825  0.3759  0.9517 -0.3906
  105SAPE   C2110710  -0.177   0.720   2.899 -0.0945  0.1855 -0.4762
  105SAPE   O2210711  -0.071   0.759   2.866  0.2981 -0.0389  0.4350
  105SAPE   C2210712  -0.234   0.731   3.042 -0.0113 -0.2026  0.2200
  105SAPE   H2R10713  -0.342   0.756   3.035 -0.1225 -0.7812 -0.2715
  105SAPE   H2S10714  -0.225   0.631   3.091  0.0318 -0.8319 -1.0185
  105SAPE    C310715  -0.361   0.615   2.613  0.8015  0.7962  0.2624
  105SAPE    HX10716  -0.374   0.505   2.629  2.8488  0.5103  0.2184
  105SAPE    HY10717  -0.364   0.618   2.502  1.2675 -1.1399  0.1479
  105SAPE   O3110718  -0.483   0.679   2.657  0.0433 -0.6986  0.2832
  105SAPE   C3110719  -0.492   0.807   2.603  0.2712  0.7786  0.0243
  105SAPE   O3210720  -0.406   0.854   2.534  0.5725 -0.0722 -0.2029
  105SAPE   C3210721  -0.604   0.889   2.663  0.0923  0.0583 -0.5335
  105SAPE   H2X10722  -0.703   0.867   2.617 -1.6635  3.0948  1.4260
  105SAPE   H2Y10723  -0.581   0.995   2.637 -1.1838  0.5854  0.3345
  105SAPE   C2310724  -0.140   0.818   3.128 -0.1725 -0.3679 -0.3352
  105SAPE   H3R10725  -0.145   0.925   3.102  1.2180 -0.5050 -1.2587
  105SAPE   H3S10726  -0.032   0.794   3.117  0.0865 -1.0879  2.7256
  105SAPE   C2410727  -0.175   0.809   3.273  0.5365 -0.4365  0.1479
  105SAPE   H4R10728  -0.161   0.702   3.300 -1.1424 -0.6916  0.1080
  105SAPE   H4S10729  -0.285   0.808   3.291  0.2953 -4.5346 -0.5741
  105SAPE   C2510730  -0.104   0.897   3.376 -0.4426  0.5275  0.7675
  105SAPE   H5R10731  -0.117   1.005   3.359  2.8488  1.4086  2.9193
  105SAPE   C2610732  -0.017   0.856   3.464 -0.0342 -0.4920  0.3122
  105SAPE   H6R10733   0.019   0.936   3.531 -0.6957  1.2338 -1.3007
  105SAPE   C2710734   0.044   0.719   3.477  0.0243  0.3727 -0.0818
  105SAPE   H7R10735   0.076   0.693   3.373  1.0679  2.5734 -0.3736
  105SAPE   H7S10736  -0.032   0.641   3.501  1.1099 -0.2803  1.4158
  105SAPE   C2810737   0.165   0.705   3.566  0.1842  0.1970  0.3588
  105SAPE   H8R10738   0.254   0.729   3.507 -1.2014  0.7265 -1.6300
  105SAPE   C2910739   0.168   0.688   3.701 -0.4809  0.7930 -0.7006
  105SAPE   H9R10740   0.266   0.673   3.748  0.6671  0.8239 -2.9519
  105SAPE  C21010741   0.049   0.680   3.792 -0.1316 -0.3488  0.2819
  105SAPE  H10R10742   0.082   0.637   3.889 -0.5255 -0.0624  0.5455
  105SAPE  H10S10743  -0.019   0.601   3.753 -1.4451  0.5969  0.5616
  105SAPE  C21110744  -0.019   0.817   3.810  0.2522 -0.5166 -0.7565
  105SAPE  H11R10745   0.047   0.901   3.783  0.6777 -1.2306 -2.0463
  105SAPE  C21210746  -0.154   0.831   3.833 -0.0716  0.4118  1.0119
  105SAPE  H12R10747  -0.203   0.928   3.852 -0.4307  0.6487 -0.8911
  105SAPE  C21310748  -0.236   0.707   3.845  0.2709  0.0999  0.0477
  105SAPE  H13R10749  -0.334   0.729   3.893  0.6763  0.1059  0.8889
  105SAPE  H13S10750  -0.186   0.640   3.918 -0.1223 -2.1366 -1.6166
  105SAPE  C21410751  -0.262   0.630   3.720 -0.8456 -0.0637 -0.4822
  105SAPE  H14R10752  -0.233   0.692   3.634 -0.0247 -0.6199 -0.6227
  105SAPE  C21510753  -0.331   0.516   3.706 -0.1687  0.3850  0.5799
  105SAPE  H15R10754  -0.334   0.468   3.607 -1.1744  2.5316 -0.4911
  105SAPE  C21610755  -0.387   0.426   3.818  0.4607 -0.3363  0.0594
  105SAPE  H16R10756  -0.498   0.423   3.814  0.3630  1.6475  0.1711
  105SAPE  H16S10757  -0.358   0.464   3.918  1.8844  0.3348 -0.5824
  105SAPE  C21710758  -0.320   0.289   3.838  0.1147  0.2929  0.0757
  105SAPE  H17R10759  -0.367   0.218   3.765 -0.3273  1.2952 -0.6346
  105SAPE  H17S10760  -0.343   0.247   3.938 -0.3842  0.7155  0.1436
  105SAPE  C21810761  -0.165   0.282   3.804 -1.0732 -0.6022  0.1363
  105SAPE  H18R10762  -0.116   0.373   3.845 -0.1591 -0.3023 -1.5109
  105SAPE  H18S10763  -0.144   0.288   3.695  0.8674 -1.2401  0.4344
  105SAPE  C21910764  -0.095   0.164   3.857  0.1064  0.6982 -0.1624
  105SAPE  H19R10765  -0.098   0.158   3.968  1.2846 -1.8595 -0.1984
  105SAPE  H19S10766   0.015   0.163   3.838  0.1835 -0.2104  0.2964
  105SAPE  C22010767  -0.155   0.028   3.803 -0.2845 -0.7380  0.3042
  105SAPE  H20R10768  -0.261   0.039   3.835 -0.8063  1.7876 -1.9308
  105SAPE  H20S10769  -0.087  -0.045   3.852  0.1449  0.0034  0.8345
  105SAPE  H20T10770  -0.146   0.021   3.693 -1.9987  0.9237  0.0120
  105SAPE   C3310771  -0.634   0.870   2.816 -0.3134 -0.1381  0.1887
  105SAPE   H3X10772  -0.629   0.760   2.835  2.5615 -0.1980 -0.4241
  105SAPE   H3Y10773  -0.741   0.892   2.833 -0.6312  1.0184 -2.7654
  105SAPE   C3410774  -0.550   0.960   2.917 -0.5843 -0.0943  0.9337
  105SAPE   H4X10775  -0.579   1.066   2.913  0.4857  0.1791 -0.9620
  105SAPE   H4Y10776  -0.441   0.958   2.892 -0.5585 -1.4252  1.0398
  105SAPE   C3510777  -0.573   0.913   3.063  0.2199  0.4557 -0.3474
  105SAPE   H5X10778  -0.566   0.803   3.076 -1.4893  0.2284 -1.0554
  105SAPE   H5Y10779  -0.672   0.942   3.104  0.6141 -1.1992  1.9762
  105SAPE   C3610780  -0.482   0.987   3.160  0.2777 -0.6854 -0.4513
  105SAPE   H6X10781  -0.482   1.096   3.135  2.8221 -0.3916  0.4971
  105SAPE   H6Y10782  -0.378   0.948   3.150  0.0012 -1.0726 -2.2292
  105SAPE   C3710783  -0.528   0.973   3.306  0.2421 -0.4278 -0.6551
  105SAPE   H7X10784  -0.498   0.868   3.330 -2.2816 -1.1038 -0.1353
  105SAPE   H7Y10785  -0.638   0.961   3.293  0.5357 -2.6749 -1.6635
  105SAPE   C3810786  -0.475   1.081   3.407 -0.2456 -0.5041 -0.4396
  105SAPE   H8X10787  -0.499   1.182   3.367  0.7729  0.6629  1.7188
  105SAPE   H8Y10788  -0.364   1.075   3.402 -0.0691  1.9527 -1.5582
  105SAPE   C3910789  -0.526   1.069   3.547 -0.2128  0.1301  0.2145
  105SAPE   H9X10790  -0.501   0.969   3.588  1.1927  0.4092  0.0688
  105SAPE   H9Y10791  -0.637   1.080   3.551 -0.1506  0.8060  0.0988
  105SAPE  C31010792  -0.467   1.179   3.638 -0.2840 -0.3100  0.4392
  105SAPE  H10X10793  -0.486   1.276   3.586 -1.9760 -0.2393  1.1248
  105SAPE  H10Y10794  -0.358   1.167   3.654 -0.2837  0.5725  1.2057
  105SAPE  C31110795  -0.529   1.189   3.779  0.2038  0.2752 -0.3380
  105SAPE  H11X10796  -0.633   1.151   3.783  0.7116 -1.1659 -0.2084
  105SAPE  H11Y10797  -0.528   1.297   3.808 -0.8060  0.4498 -0.8921
  105SAPE  C31210798  -0.444   1.120   3.879 -0.2848  0.0791  0.0952
  105SAPE  H12X10799  -0.339   1.154   3.867 -0.1092 -0.1455  0.8925
  105SAPE  H12Y10800  -0.457   1.011   3.861  2.1575 -0.1265 -0.8779
  105SAPE  C31310801  -0.489   1.166   4.019  0.8134 -0.1600 -0.3135
  105SAPE  H13X10802  -0.594   1.135   4.038  1.0378 -1.3648 -0.9608
  105SAPE  H13Y10803  -0.486   1.277   4.028 -0.3955 -0.2259  1.1924
  105SAPE  C31410804  -0.418   1.109   4.142  0.2232  0.1303  0.5545
  105SAPE  H14X10805  -0.461   1.122   4.243 -0.3002 -1.0842  0.4975
  105SAPE  H14Y10806  -0.322   1.165   4.141  0.9338 -1.0202  1.5268
  105SAPE  C31510807  -0.376   0.962   4.117  0.2277  0.3017 -0.1887
  105SAPE  H15X10808  -0.296   0.968   4.040  0.4758  0.4728  0.0802
  105SAPE  H15Y10809  -0.454   0.893   4.079 -1.3264  1.8036  0.1381
  105SAPE  C31610810  -0.311   0.895   4.237  1.0938  0.4318 -0.5308
  105SAPE  H16X10811  -0.398   0.885   4.306  1.5337 -0.1130 -0.0479
  105SAPE  H16Y10812  -0.227   0.960   4.268  0.4311  2.2741 -2.3564
  105SAPE  C31710813  -0.245   0.756   4.200 -0.3287 -0.7254 -0.8416
  105SAPE  H17X10814  -0.172   0.733   4.280  0.2639  0.5112 -1.0037
  105SAPE  H17Y10815  -0.176   0.781   4.116  0.6126 -1.1691 -0.2142
  105SAPE  C31810816  -0.339   0.641   4.164  0.1194  0.0769  0.0553
  105SAPE  H18X10817  -0.403   0.628   4.254 -0.0412  1.9210  0.2424
  105SAPE  H18Y10818  -0.280   0.555   4.125 -0.4930  0.2062 -1.2324
  105SAPE  H18Z10819  -0.403   0.676   4.080 -0.6098  1.5362  1.1800
  106SAPE     N10820   5.931   5.653   2.285  0.2551 -0.1059  0.7039
  106SAPE   HN110821   5.866   5.676   2.207  0.3591 -1.3125  0.2334
  106SAPE   HN210822   6.001   5.729   2.293 -1.1895  1.1120  2.4513
  106SAPE   HN310823   5.981   5.564   2.260 -0.1905 -0.1623 -0.0405
  106SAPE   C1210824   5.869   5.625   2.411  0.3406  0.1441 -0.0601
  106SAPE  H12A10825   5.815   5.529   2.398  1.1377 -0.1628 -1.3403
  106SAPE  H12B10826   5.790   5.700   2.428 -0.2752 -0.4012 -0.4761
  106SAPE   C1110827   5.973   5.623   2.524  0.2838  1.3176 -0.4407
  106SAPE  H11A10828   5.922   5.638   2.622  0.6664  0.1527 -0.0481
  106SAPE  H11B10829   6.031   5.717   2.512  0.0560  1.7802  1.6550
  106SAPE     P10830   6.021   5.372   2.597 -0.2543  0.1110 -0.1359
  106SAPE   O1310831   5.921   5.294   2.525 -0.1641  0.0704 -0.3839
  106SAPE   O1410832   6.146   5.306   2.628  0.6335  0.7967 -0.4030
  106SAPE   O1210833   6.057   5.505   2.519 -0.6067  0.1575  0.6819
  106SAPE   O1110834   5.962   5.426   2.733  0.0261 -0.0418 -0.1382
  106SAPE    C110835   6.012   5.350   2.849 -0.2593  0.2087  0.3746
  106SAPE    HA10836   5.981   5.244   2.833 -1.6521  0.0429  3.4503
  106SAPE    HB10837   6.120   5.358   2.874 -0.4691  3.0859  0.6722
  106SAPE    C210838   5.931   5.402   2.974 -0.8813  0.3061  0.6789
  106SAPE    HS10839   5.827   5.392   2.935 -0.3968  0.7985 -0.8360
  106SAPE   O2110840   5.963   5.540   3.013 -0.4547 -0.2154  0.9577
  106SAPE   C2110841   5.854   5.618   3.037  0.3770 -0.0391 -0.5721
  106SAPE   O2210842   5.739   5.582   3.031 -0.0798  0.9649 -0.4100
  106SAPE   C2210843   5.898   5.756   3.072  0.3770 -0.3060 -0.2707
  106SAPE   H2R10844   5.992   5.773   3.016  0.0156 -0.1347 -0.8448
  106SAPE   H2S10845   5.832   5.832   3.025  3.6415  3.4182  0.7068
  106SAPE    C310846   5.952   5.323   3.106  0.2355  0.1527  0.1106
  106SAPE    HX10847   5.872   5.352   3.178 -1.1161 -0.7621 -0.9507
  106SAPE    HY10848   6.053   5.351   3.141  0.0141  0.1460  0.7656
  106SAPE   O3110849   5.938   5.183   3.086 -0.6715 -0.8693  1.0747
  106SAPE   C3110850   5.962   5.115   3.192 -0.2802  0.7269  0.1210
  106SAPE   O3210851   5.987   5.151   3.304  0.2142 -0.0570 -0.4160
  106SAPE   C3210852   5.974   4.970   3.145 -0.8138 -0.0518 -0.7845
  106SAPE   H2X10853   6.019   4.970   3.044  1.3151 -1.6418  0.0881
  106SAPE   H2Y10854   5.873   4.924   3.136 -1.0068 -0.2999  1.8503
  106SAPE   C2310855   5.903   5.791   3.225 -0.4090 -0.2725  0.5116
  106SAPE   H3R10856   5.997   5.735   3.248  0.3422  0.3850 -0.8652
  106SAPE   H3S10857   5.814   5.746   3.274 -0.6229 -0.4456 -0.0328
  106SAPE   C2410858   5.899   5.945   3.265 -0.3771  0.3214 -0.6291
  106SAPE   H4R10859   5.971   5.999   3.199  3.0107  0.9032  3.1594
  106SAPE   H4S10860   5.941   5.938   3.367  0.3279 -0.4343 -0.9652
  106SAPE   C2510861   5.755   5.989   3.235  0.2143 -0.2548  0.0078
  106SAPE   H5R10862   5.721   6.005   3.132  1.0762 -0.8394 -0.3807
  106SAPE   C2610863   5.657   6.021   3.329  0.0885  0.5936 -0.1752
  106SAPE   H6R10864   5.561   6.056   3.287 -0.6130 -1.8587 -0.7725
  106SAPE   C2710865   5.678   6.033   3.484  0.4296  0.1422 -0.0578
  106SAPE   H7R10866   5.772   5.984   3.514  0.8976  1.2657  0.3627
  106SAPE   H7S10867   5.590   5.993   3.541 -0.3593  1.3460 -0.3928
  106SAPE   C2810868   5.693   6.176   3.525 -0.0475 -0.4208  0.3400
  106SAPE   H8R10869   5.736   6.243   3.448  0.3699  0.7949  1.6046
  106SAPE   C2910870   5.659   6.228   3.643 -0.8515 -0.2932  0.0729
  106SAPE   H9R10871   5.676   6.335   3.663  1.4365 -0.2138 -1.7952
  106SAPE  C21010872   5.602   6.155   3.760 -0.2702 -0.0180 -0.1399
  106SAPE  H10R10873   5.536   6.068   3.737 -2.0092  0.1250  3.6343
  106SAPE  H10S10874   5.536   6.234   3.801 -0.3278 -0.3815  0.4848
  106SAPE  C21110875   5.704   6.108   3.861 -0.3345 -1.3423  0.5124
  106SAPE  H11R10876   5.795   6.069   3.813 -0.3999 -0.1634 -0.6154
  106SAPE  C21210877   5.700   6.109   3.996  0.4796 -0.1523  0.0557
  106SAPE  H12R10878   5.794   6.072   4.040 -0.2729 -1.0540  0.9458
  106SAPE  C21310879   5.595   6.154   4.087  0.0094  0.2204  0.0951
  106SAPE  H13R10880   5.552   6.254   4.063 -2.4800 -1.1823 -1.8133
  106SAPE  H13S10881   5.648   6.156   4.184 -0.7889 -2.1895  0.6599
  106SAPE  C21410882   5.478   6.065   4.071  0.2100  0.2594  0.3766
  106SAPE  H14R10883   5.427   6.085   3.976 -0.0172  2.2816  0.8794
  106SAPE  C21510884   5.437   5.959   4.151  0.2865  0.0384 -0.1594
  106SAPE  H15R10885   5.336   5.920   4.135 -0.5904  0.5618  3.2624
  106SAPE  C21610886   5.502   5.908   4.279  0.3697  0.7414  0.2702
  106SAPE  H16R10887   5.431   5.930   4.361 -0.1803 -0.3607  0.1075
  106SAPE  H16S10888   5.587   5.973   4.309 -2.3808  3.8596  1.8496
  106SAPE  C21710889   5.546   5.758   4.283  0.3169  0.7259  0.0094
  106SAPE  H17R10890   5.455   5.695   4.292  1.1885 -0.4607  0.9376
  106SAPE  H17S10891   5.594   5.743   4.382  1.0129 -2.1910 -0.6673
  106SAPE  C21810892   5.644   5.726   4.171 -0.4891 -0.1415  0.3771
  106SAPE  H18R10893   5.722   5.805   4.169 -1.2165  0.5804 -1.7446
  106SAPE  H18S10894   5.611   5.714   4.066  1.4370 -0.8642 -0.1906
  106SAPE  C21910895   5.706   5.587   4.210 -0.0048 -0.1048 -0.0709
  106SAPE  H19R10896   5.619   5.518   4.214 -0.0251 -0.0806 -0.0975
  106SAPE  H19S10897   5.751   5.587   4.311 -0.1021  0.6335 -0.0246
  106SAPE  C22010898   5.811   5.523   4.116  0.1448  0.0693  0.0304
  106SAPE  H20R10899   5.833   5.424   4.159 -1.8453 -0.6947 -0.5829
  106SAPE  H20S10900   5.905   5.579   4.096  0.8006 -1.2547 -0.7707
  106SAPE  H20T10901   5.763   5.503   4.018 -0.6532  1.3395  0.1331
  106SAPE   C3310902   6.061   4.870   3.236 -0.0079 -0.6735 -0.3381
  106SAPE   H3X10903   6.153   4.917   3.277 -0.4381  1.8177 -1.9625
  106SAPE   H3Y10904   6.089   4.788   3.165  0.8322  0.2655 -1.1229
  106SAPE   C3410905   5.981   4.824   3.360  0.4134  0.5023  0.6336
  106SAPE   H4X10906   5.885   4.795   3.312  1.1275  1.0800 -1.2078
  106SAPE   H4Y10907   5.967   4.905   3.435 -2.6384 -0.6724  1.5015
  106SAPE   C3510908   6.042   4.697   3.431  0.1612 -1.1069  0.1516
  106SAPE   H5X10909   6.151   4.716   3.432 -0.0376  0.0408  0.5671
  106SAPE   H5Y10910   6.033   4.604   3.370 -0.5425 -0.6842 -0.4122
  106SAPE   C3610911   5.969   4.669   3.556  0.8255 -0.5522  0.6260
  106SAPE   H6X10912   5.883   4.601   3.536  0.0192  0.2653  1.2395
  106SAPE   H6Y10913   5.922   4.766   3.584 -0.9275 -1.0543 -0.4272
  106SAPE   C3710914   6.060   4.616   3.668 -0.6904 -0.0176 -0.0502
  106SAPE   H7X10915   6.141   4.692   3.668 -1.9180  1.3498  1.3230
  106SAPE   H7Y10916   6.091   4.513   3.639 -1.2528 -1.1675  2.9489
  106SAPE   C3810917   5.981   4.601   3.797  0.7109 -0.1458 -0.7725
  106SAPE   H8X10918   6.034   4.516   3.845 -0.6236 -0.7762 -0.3720
  106SAPE   H8Y10919   5.873   4.579   3.783  0.5650  1.1313 -1.8132
  106SAPE   C3910920   5.981   4.721   3.890 -0.1432 -0.3251 -0.3102
  106SAPE   H9X10921   5.883   4.773   3.898 -0.2147 -0.5800  0.6451
  106SAPE   H9Y10922   6.040   4.805   3.846  0.0898 -0.6535 -0.6254
  106SAPE  C31010923   6.039   4.703   4.029  0.2252  0.3517 -0.1415
  106SAPE  H10X10924   6.150   4.698   4.029  0.2146  0.0647 -0.5037
  106SAPE  H10Y10925   6.010   4.599   4.055  2.9198 -1.1353 -2.4993
  106SAPE  C31110926   5.995   4.813   4.122 -0.3410  0.0153 -0.3628
  106SAPE  H11X10927   5.884   4.812   4.131 -0.2929  0.1153  0.2839
  106SAPE  H11Y10928   6.018   4.915   4.084  0.2273  0.0462  0.0521
  106SAPE  C31210929   6.042   4.787   4.264 -0.7865 -1.4743 -0.6032
  106SAPE  H12X10930   6.153   4.778   4.255 -0.4903  0.9868 -0.2382
  106SAPE  H12Y10931   6.004   4.694   4.309 -5.4888  0.9945  1.1787
  106SAPE  C31310932   6.027   4.910   4.356  0.0056 -0.2787  0.5567
  106SAPE  H13X10933   6.072   4.999   4.307 -0.7431 -1.1128 -1.7761
  106SAPE  H13Y10934   6.087   4.895   4.449 -1.6074  2.1469  2.1267
  106SAPE  C31410935   5.884   4.937   4.398  0.1541 -0.2379  0.2580
  106SAPE  H14X10936   5.855   4.858   4.469  0.3668 -1.1358 -0.6353
  106SAPE  H14Y10937   5.817   4.944   4.309  0.7823 -0.1966 -0.2181
  106SAPE  C31510938   5.884   5.082   4.461  0.1808  0.5161 -0.1568
  106SAPE  H15X10939   5.940   5.153   4.396  0.1982  0.5940 -0.0577
  106SAPE  H15Y10940   5.940   5.067   4.556  0.4500  2.4875  0.0334
  106SAPE  C31610941   5.747   5.142   4.501 -0.1493  0.7143  0.2916
  106SAPE  H16X10942   5.755   5.232   4.566  0.9121  1.1117 -0.3631
  106SAPE  H16Y10943   5.700   5.059   4.559  2.1843 -0.7944  0.1800
  106SAPE  C31710944   5.663   5.191   4.377 -0.1763 -0.8869  0.1066
  106SAPE  H17X10945   5.661   5.120   4.291  0.9224  1.0157 -1.5766
  106SAPE  H17Y10946   5.716   5.282   4.341 -0.1463 -0.2233  1.7446
  106SAPE  C31810947   5.510   5.217   4.409  0.0686  0.0400 -0.5808
  106SAPE  H18X10948   5.497   5.307   4.472 -3.1739  1.1248 -2.5347
  106SAPE  H18Y10949   5.476   5.123   4.457 -1.1368  1.5765  1.7895
  106SAPE  H18Z10950   5.449   5.231   4.317 -0.9088 -1.0539 -0.1161
  107SAPE     N10951   3.924   0.472   2.554 -0.4314  0.0540  0.1642
  107SAPE   HN110952   3.915   0.575   2.545 -2.9072 -0.0795  0.4187
  107SAPE   HN210953   3.982   0.460   2.639  0.2485  1.4867 -0.0625
  107SAPE   HN310954   3.984   0.440   2.476 -0.2502  0.8544 -0.0371
  107SAPE   C1210955   3.795   0.393   2.553 -0.0267  0.2133 -0.3352
  107SAPE  H12A10956   3.819   0.285   2.545 -0.4293  0.1876 -1.4010
  107SAPE  H12B10957   3.740   0.432   2.464  1.4290  0.5846 -1.1132
  107SAPE   C1110958   3.713   0.435   2.678  0.0927  0.2465  0.6254
  107SAPE  H11A10959   3.773   0.394   2.763  0.5883 -0.9558 -0.2708
  107SAPE  H11B10960   3.617   0.380   2.686  0.3438 -0.4577 -0.8514
  107SAPE     P10961   3.584   0.653   2.615 -0.0395  0.3073  0.0251
  107SAPE   O1310962   3.616   0.658   2.473 -0.1386  0.1949 -0.0072
  107SAPE   O1410963   3.450   0.602   2.653 -0.5122 -0.2841 -0.3556
  107SAPE   O1210964   3.701   0.578   2.690  0.8925  0.5144  0.4282
  107SAPE   O1110965   3.578   0.798   2.682 -0.1033 -0.2885  0.0759
  107SAPE    C110966   3.697   0.880   2.692  0.3505 -0.1633  0.2248
  107SAPE    HA10967   3.788   0.824   2.662  0.9354  0.8677  0.0260
  107SAPE    HB10968   3.693   0.973   2.632 -0.7748 -1.3448 -1.6398
  107SAPE    C210969   3.718   0.931   2.838 -0.6554  0.2679 -0.3423
  107SAPE    HS10970   3.820   0.974   2.847 -0.3672 -0.5138  0.2747
  107SAPE   O2110971   3.724   0.819   2.929 -0.6886  0.2562 -0.4628
  107SAPE   C2110972   3.823   0.731   2.918  0.1434  0.1910  0.6700
  107SAPE   O2210973   3.926   0.743   2.858  0.0157 -0.2920  0.2648
  107SAPE   C2210974   3.773   0.603   3.001  0.3318  0.4081  0.3317
  107SAPE   H2R10975   3.673   0.575   2.962 -0.2298 -0.2897  2.1757
  107SAPE   H2S10976   3.840   0.518   2.977  0.8338 -0.0571  3.0991
  107SAPE    C310977   3.604   1.029   2.876  0.0313  0.7835 -0.5572
  107SAPE    HX10978   3.507   0.974   2.873  0.9929 -1.2027  1.6368
  107SAPE    HY10979   3.601   1.108   2.798  1.8945  2.6492  1.1588
  107SAPE   O3110980   3.628   1.092   3.005 -0.1011 -0.1099 -0.7079
  107SAPE   C3110981   3.600   1.013   3.105  0.1767 -0.5265  0.2928
  107SAPE   O3210982   3.535   0.908   3.101  0.5254 -0.2187 -0.2522
  107SAPE   C3210983   3.675   1.070   3.224 -0.1409  0.1272 -0.0349
  107SAPE   H2X10984   3.602   1.140   3.271 -0.9541 -0.7194  0.0016
  107SAPE   H2Y10985   3.776   1.112   3.205 -0.0409  0.2258  0.6818
  107SAPE   C2310986   3.762   0.632   3.151  0.0240 -0.8040 -0.8128
  107SAPE   H3R10987   3.690   0.713   3.172  0.2236 -0.8698  0.1778
  107SAPE   H3S10988   3.861   0.667   3.188 -0.0346 -1.3698 -0.0910
  107SAPE   C2410989   3.728   0.509   3.233 -0.6206 -0.7442  0.5516
  107SAPE   H4R10990   3.821   0.448   3.233  1.2575  1.9375  0.7598
  107SAPE   H4S10991   3.648   0.456   3.178  0.5049 -2.3613  0.4077
  107SAPE   C2510992   3.689   0.564   3.365 -0.7087 -0.1613 -0.3011
  107SAPE   H5R10993   3.765   0.640   3.389 -0.1553 -0.8628  0.2269
  107SAPE   C2610994   3.593   0.517   3.447  1.1197 -0.0277 -0.2456
  107SAPE   H6R10995   3.570   0.565   3.543 -1.6243 -2.9229  0.7049
  107SAPE   C2710996   3.512   0.396   3.429 -0.7058 -0.4475 -0.1223
  107SAPE   H7R10997   3.484   0.385   3.322  0.0583 -1.6038 -0.2283
  107SAPE   H7S10998   3.424   0.416   3.493 -0.6659 -0.8126  0.0519
  107SAPE   C2810999   3.585   0.270   3.470 -0.1278  0.0671 -0.4885
  107SAPE   H8R11000   3.686   0.252   3.430  0.1689 -0.4622  0.4923
  107SAPE   C2911001   3.541   0.167   3.533  0.1343  0.1249 -0.6502
  107SAPE   H9R11002   3.606   0.080   3.553 -1.2027 -0.7429  0.0807
  107SAPE  C21011003   3.407   0.165   3.607  0.2553  0.4422 -0.0127
  107SAPE  H10R11004   3.351   0.079   3.565  1.4587 -0.3798 -0.0036
  107SAPE  H10S11005   3.346   0.257   3.594  0.8344  1.3143  2.6652
  107SAPE  C21111006   3.414   0.130   3.749  0.3589  0.2382 -0.6288
  107SAPE  H11R11007   3.403   0.023   3.774 -0.1005  0.7864  1.7114
  107SAPE  C21211008   3.411   0.229   3.847 -0.1315  0.0383 -0.8202
  107SAPE  H12R11009   3.416   0.199   3.953  0.1504 -0.0013 -0.8454
  107SAPE  C21311010   3.430   0.383   3.827 -0.1925  0.0092 -0.5065
  107SAPE  H13R11011   3.390   0.448   3.907 -0.2214 -0.1669 -0.3768
  107SAPE  H13S11012   3.395   0.417   3.728  1.0952  1.2097 -0.5738
  107SAPE  C21411013   3.581   0.390   3.834 -0.0563  0.1591  0.1759
  107SAPE  H14R11014   3.637   0.313   3.777 -0.3586  0.3673 -0.4072
  107SAPE  C21511015   3.654   0.471   3.911  0.2561 -0.7422 -0.6279
  107SAPE  H15R11016   3.762   0.457   3.918  1.1534  4.1592 -1.1932
  107SAPE  C21611017   3.605   0.588   3.992  0.0608 -0.4838  0.3771
  107SAPE  H16R11018   3.496   0.590   4.010  0.1089 -1.9545  0.9517
  107SAPE  H16S11019   3.636   0.681   3.938 -1.1339 -0.3732 -0.1592
  107SAPE  C21711020   3.689   0.580   4.112  0.0155  0.1280  0.6724
  107SAPE  H17R11021   3.794   0.549   4.092  0.2569  0.5372  1.2714
  107SAPE  H17S11022   3.651   0.502   4.181  1.8371 -0.3285  1.2104
  107SAPE  C21811023   3.690   0.716   4.193  0.1439  0.1636  0.0228
  107SAPE  H18R11024   3.585   0.748   4.212  0.3840  0.5285  0.7750
  107SAPE  H18S11025   3.724   0.796   4.123 -3.4476  0.2728 -1.7919
  107SAPE  C21911026   3.770   0.726   4.327 -0.5801  0.4916 -0.2438
  107SAPE  H19R11027   3.751   0.637   4.391  0.9403  0.1708 -0.2102
  107SAPE  H19S11028   3.731   0.814   4.383 -1.5174 -1.0046  1.5873
  107SAPE  C22011029   3.927   0.750   4.314  0.0689  0.1421 -0.5369
  107SAPE  H20R11030   3.976   0.776   4.410  0.1324 -1.6866 -0.0411
  107SAPE  H20S11031   3.939   0.830   4.238 -2.9453  2.4471  1.1868
  107SAPE  H20T11032   3.971   0.655   4.277  2.1603  1.1974 -0.9106
  107SAPE   C3311033   3.694   0.963   3.334  0.8640  0.2311  0.5649
  107SAPE   H3X11034   3.775   0.889   3.316  1.0168 -0.0068  2.1133
  107SAPE   H3Y11035   3.598   0.907   3.335  0.3623  1.0008 -0.7571
  107SAPE   C3411036   3.727   1.018   3.474  0.1880  0.1359 -0.4607
  107SAPE   H4X11037   3.646   1.087   3.506  0.9431  1.0024 -0.3564
  107SAPE   H4Y11038   3.821   1.077   3.460  0.0925  0.3438 -0.2292
  107SAPE   C3511039   3.758   0.911   3.580 -0.1414 -0.0848 -0.5893
  107SAPE   H5X11040   3.826   0.936   3.664 -0.9094 -1.1620  0.3855
  107SAPE   H5Y11041   3.809   0.830   3.525  1.1203  0.8997 -0.9307
  107SAPE   C3611042   3.629   0.862   3.663  0.0431 -0.1783 -0.3684
  107SAPE   H6X11043   3.683   0.778   3.712  1.4542 -0.9330 -3.0332
  107SAPE   H6Y11044   3.554   0.819   3.593 -0.7103  1.2990 -0.4963
  107SAPE   C3711045   3.576   0.969   3.761  0.1093  0.1829 -0.2254
  107SAPE   H7X11046   3.542   1.052   3.695  1.8324 -0.0772 -1.4991
  107SAPE   H7Y11047   3.656   0.997   3.833 -0.1134 -0.2162  0.1812
  107SAPE   C3811048   3.465   0.901   3.840  0.2190 -0.1444 -0.1348
  107SAPE   H8X11049   3.485   0.802   3.887 -0.2581  0.3106  1.0581
  107SAPE   H8Y11050   3.384   0.888   3.766  1.0286  1.3577 -1.3637
  107SAPE   C3911051   3.406   0.989   3.947  0.6544 -0.2406  0.0578
  107SAPE   H9X11052   3.395   1.098   3.928 -1.7705 -0.5020 -0.4382
  107SAPE   H9Y11053   3.464   0.978   4.041 -1.2583 -0.0014  1.3275
  107SAPE  C31011054   3.265   0.939   3.980  0.5372 -0.3635 -0.3728
  107SAPE  H10X11055   3.275   0.834   4.015  0.6281  0.0792  1.0008
  107SAPE  H10Y11056   3.202   0.942   3.889  0.5839  1.0951 -0.3727
  107SAPE  C31111057   3.189   1.027   4.077  0.5648  0.1273  0.1422
  107SAPE  H11X11058   3.257   1.068   4.155  1.1189 -0.1351 -0.1908
  107SAPE  H11Y11059   3.102   0.975   4.122 -1.4775  3.3702  0.2424
  107SAPE  C31211060   3.121   1.153   4.022 -0.0093 -0.3877 -0.1744
  107SAPE  H12X11061   3.051   1.117   3.943 -0.2657  0.0334 -0.1427
  107SAPE  H12Y11062   3.202   1.215   3.979  1.8199 -2.3835  0.2532
  107SAPE  C31311063   3.035   1.225   4.132  0.7052 -0.0387  0.9334
  107SAPE  H13X11064   2.975   1.148   4.185 -0.4725 -0.8053 -1.3842
  107SAPE  H13Y11065   2.959   1.279   4.071  1.0110 -2.1230 -1.4645
  107SAPE  C31411066   3.098   1.332   4.217  0.2158 -0.0391 -1.0068
  107SAPE  H14X11067   3.015   1.403   4.240 -1.6797 -1.4485 -3.0231
  107SAPE  H14Y11068   3.174   1.383   4.154 -0.2617 -0.4454 -1.9286
  107SAPE  C31511069   3.149   1.265   4.354 -0.3658 -0.0240 -0.1007
  107SAPE  H15X11070   3.202   1.168   4.349  1.5903  1.0129 -0.2605
  107SAPE  H15Y11071   3.059   1.238   4.414 -1.1665  1.0825 -0.7467
  107SAPE  C31611072   3.244   1.365   4.429  0.6777 -0.2774  0.0023
  107SAPE  H16X11073   3.191   1.463   4.434  0.3678 -0.4356 -0.1621
  107SAPE  H16Y11074   3.331   1.378   4.361  1.2292 -1.4334  0.4571
  107SAPE  C31711075   3.288   1.313   4.561 -0.7340  0.4414 -0.0555
  107SAPE  H17X11076   3.207   1.323   4.636  2.1353  1.0008  3.1580
  107SAPE  H17Y11077   3.371   1.377   4.596 -0.2287  1.0890 -2.2356
  107SAPE  C31811078   3.331   1.165   4.567 -0.1984  0.2126  0.1277
  107SAPE  H18X11079   3.237   1.107   4.577 -0.9215  1.1221 -1.1664
  107SAPE  H18Y11080   3.390   1.145   4.659  2.0433  1.4334 -0.9752
  107SAPE  H18Z11081   3.387   1.131   4.477  0.9394  3.0539 -0.3240
  108SAPE     N11082   4.799   2.227   2.361  0.3503  0.5107 -0.1807
  108SAPE   HN111083   4.764   2.304   2.421 -2.1435 -0.9442  0.3568
  108SAPE   HN211084   4.724   2.156   2.353  1.0867 -0.2693 -0.3469
  108SAPE   HN311085   4.872   2.172   2.410 -2.0261 -0.1420  2.9182
  108SAPE   C1211086   4.843   2.287   2.227  0.0289 -0.2484 -0.1221
  108SAPE  H12A11087   4.943   2.329   2.248  0.6644 -2.3065  1.2119
  108SAPE  H12B11088   4.778   2.373   2.199  0.7798  0.1126 -0.8028
  108SAPE   C1111089   4.859   2.181   2.124  0.0444  0.7310  0.5654
  108SAPE  H11A11090   4.899   2.246   2.043  0.6784  2.5084  2.2355
  108SAPE  H11B11091   4.760   2.144   2.088  0.2158  1.0557 -0.2659
  108SAPE     P11092   5.096   2.061   2.134  0.1124  0.0730  0.7233
  108SAPE   O1311093   5.120   1.983   2.009 -0.3697  0.0969 -0.1308
  108SAPE   O1411094   5.154   2.193   2.143 -0.2122  0.6265 -0.2424
  108SAPE   O1211095   4.936   2.071   2.177 -0.3476  0.0846  0.2307
  108SAPE   O1111096   5.152   1.975   2.258 -0.0130  0.5499  0.2919
  108SAPE    C111097   5.296   1.969   2.279 -0.6163  0.2729  0.0025
  108SAPE    HA11098   5.322   1.869   2.238 -3.0127  0.6114 -2.7039
  108SAPE    HB11099   5.355   2.045   2.223  2.9279 -1.8395  0.5727
  108SAPE    C211100   5.331   1.981   2.428 -0.5170  1.0622 -1.0362
  108SAPE    HS11101   5.430   1.931   2.434 -1.0805 -0.4426 -3.0312
  108SAPE   O2111102   5.223   1.919   2.503  0.0883 -0.0350 -0.1496
  108SAPE   C2111103   5.236   1.788   2.498  0.0316 -0.3492 -0.2024
  108SAPE   O2211104   5.328   1.727   2.445 -0.0080  0.1797 -0.3585
  108SAPE   C2211105   5.116   1.727   2.574  0.2726 -0.3814 -0.4927
  108SAPE   H2R11106   5.076   1.794   2.653 -1.0107  0.7891 -2.0749
  108SAPE   H2S11107   5.031   1.733   2.503  0.5000  1.7298 -0.6370
  108SAPE    C311108   5.341   2.125   2.473  0.2838  0.7207  0.0233
  108SAPE    HX11109   5.241   2.170   2.454  0.1766 -0.2655 -2.1384
  108SAPE    HY11110   5.422   2.172   2.413  0.6981  0.4333  0.3526
  108SAPE   O3111111   5.371   2.143   2.614 -0.2837 -0.2754 -0.2129
  108SAPE   C3111112   5.491   2.111   2.647  0.1248 -0.2537 -0.0737
  108SAPE   O3211113   5.569   2.051   2.578  0.2987 -0.5020 -0.1007
  108SAPE   C3211114   5.513   2.158   2.791 -0.2757  0.0598  0.1788
  108SAPE   H2X11115   5.429   2.125   2.855  0.0687 -0.0704  0.5618
  108SAPE   H2Y11116   5.512   2.270   2.788  0.5083  0.0723  0.3783
  108SAPE   C2311117   5.134   1.576   2.606 -0.0933  0.4314  0.4675
  108SAPE   H3R11118   5.205   1.522   2.539  0.1905  0.3843  0.8080
  108SAPE   H3S11119   5.035   1.526   2.594  0.1116 -0.8856  3.3344
  108SAPE   C2411120   5.183   1.547   2.745 -0.2152 -0.6796 -0.1054
  108SAPE   H4R11121   5.186   1.440   2.773  1.7305 -0.6274  0.0400
  108SAPE   H4S11122   5.108   1.586   2.817 -0.3211 -1.3164  0.1290
  108SAPE   C2511123   5.319   1.609   2.764 -0.4631 -0.3143 -0.1180
  108SAPE   H5R11124   5.381   1.575   2.679 -1.7097 -1.5969 -0.5468
  108SAPE   C2611125   5.366   1.697   2.863  0.2289  0.2750 -0.0498
  108SAPE   H6R11126   5.470   1.731   2.868  0.5386 -0.8275  1.4127
  108SAPE   C2711127   5.278   1.760   2.975  0.2701  0.0794  0.4545
  108SAPE   H7R11128   5.344   1.807   3.052  2.0345 -0.4973 -0.6341
  108SAPE   H7S11129   5.226   1.672   3.018 -0.6345  0.0442 -0.6863
  108SAPE   C2811130   5.185   1.876   2.921  0.5843  0.8397  0.0023
  108SAPE   H8R11131   5.164   1.888   2.814 -0.2747 -0.1820  0.0474
  108SAPE   C2911132   5.125   1.975   2.997 -0.0776  0.5559 -0.6140
  108SAPE   H9R11133   5.059   2.053   2.957  0.2954  0.2726 -1.8022
  108SAPE  C21011134   5.141   1.984   3.147 -0.2621 -0.0721  0.4320
  108SAPE  H10R11135   5.189   2.078   3.182 -1.6197 -0.0208  2.3167
  108SAPE  H10S11136   5.213   1.905   3.178  0.2700  0.4746  0.5977
  108SAPE  C21111137   5.017   1.969   3.227  0.5165  0.8204 -0.1527
  108SAPE  H11R11138   4.918   1.987   3.181  0.4098 -0.6930 -0.5747
  108SAPE  C21211139   5.014   1.915   3.348 -0.3318  0.1834  0.1930
  108SAPE  H12R11140   4.923   1.924   3.411 -1.1423 -0.6310 -0.8206
  108SAPE  C21311141   5.133   1.858   3.419 -0.6808  0.6175 -0.1914
  108SAPE  H13R11142   5.186   1.939   3.474 -0.2423 -0.8950  1.7116
  108SAPE  H13S11143   5.202   1.816   3.342  0.3700 -1.1001  1.6043
  108SAPE  C21411144   5.109   1.740   3.511 -0.1357  0.8762  0.1273
  108SAPE  H14R11145   5.087   1.648   3.455 -2.2352  0.9490  0.7681
  108SAPE  C21511146   5.121   1.722   3.648  0.3104 -0.7931  0.1025
  108SAPE  H15R11147   5.109   1.621   3.690 -0.8829 -0.8325 -0.2936
  108SAPE  C21611148   5.180   1.817   3.756  0.4645  0.4975  0.6325
  108SAPE  H16R11149   5.182   1.919   3.712  1.1242  0.4814  0.6134
  108SAPE  H16S11150   5.285   1.787   3.777  0.7282  1.6632  1.0838
  108SAPE  C21711151   5.103   1.818   3.888 -0.5609  0.2854  0.0950
  108SAPE  H17R11152   5.002   1.861   3.872 -1.0759 -0.7086  0.5395
  108SAPE  H17S11153   5.143   1.896   3.956  2.7683 -0.4360 -0.8288
  108SAPE  C21811154   5.107   1.682   3.969  0.0653 -0.2541 -0.3605
  108SAPE  H18R11155   5.046   1.598   3.931 -0.6462  0.6022 -1.1550
  108SAPE  H18S11156   5.072   1.705   4.072 -1.2655  1.2489 -1.1102
  108SAPE  C21911157   5.254   1.633   3.975  0.1251 -0.1953 -0.0349
  108SAPE  H19R11158   5.323   1.717   3.998  0.7547 -1.1467  1.7097
  108SAPE  H19S11159   5.276   1.587   3.876 -0.5115 -1.5404  0.4358
  108SAPE  C22011160   5.281   1.524   4.084 -0.7357  0.1588 -0.6660
  108SAPE  H20R11161   5.250   1.569   4.181 -2.0869  0.0186 -1.0114
  108SAPE  H20S11162   5.386   1.488   4.083 -0.2411  1.5247 -1.6072
  108SAPE  H20T11163   5.226   1.432   4.054 -0.6979  0.1090 -0.5822
  108SAPE   C3311164   5.648   2.113   2.855 -0.1326 -0.0200  0.5302
  108SAPE   H3X11165   5.725   2.193   2.859  1.6230 -1.6693  1.1387
  108SAPE   H3Y11166   5.692   2.039   2.784  0.1927 -0.3160  1.0354
  108SAPE   C3411167   5.626   2.044   2.986 -0.3189 -0.7011  0.4347
  108SAPE   H4X11168   5.714   1.985   3.021  0.5339  0.4746  0.3580
  108SAPE   H4Y11169   5.541   1.973   2.977 -0.8194  0.0988 -1.5699
  108SAPE   C3511170   5.598   2.133   3.106 -0.0535  0.4854 -0.4080
  108SAPE   H5X11171   5.692   2.185   3.133  1.4791 -0.7069 -3.0509
  108SAPE   H5Y11172   5.513   2.202   3.087 -0.2577  0.0405 -1.1580
  108SAPE   C3611173   5.557   2.045   3.227  0.0903  0.4295  0.2250
  108SAPE   H6X11174   5.627   1.960   3.241 -1.2518 -0.9816 -1.2295
  108SAPE   H6Y11175   5.464   1.988   3.204 -0.0925  1.1668 -0.8973
  108SAPE   C3711176   5.539   2.121   3.353  0.0000  0.1207  0.0408
  108SAPE   H7X11177   5.452   2.190   3.345  0.3128  0.8309  2.2815
  108SAPE   H7Y11178   5.630   2.183   3.358 -0.4464  0.9272 -1.1866
  108SAPE   C3811179   5.510   2.034   3.477 -0.3423 -0.0958  0.1639
  108SAPE   H8X11180   5.572   1.944   3.463  0.0460  0.3441 -1.0248
  108SAPE   H8Y11181   5.405   1.998   3.488 -0.2871 -0.0082  1.1044
  108SAPE   C3911182   5.554   2.106   3.606 -0.0571 -0.0164  1.1146
  108SAPE   H9X11183   5.495   2.199   3.615 -0.0074  0.2939 -1.1322
  108SAPE   H9Y11184   5.661   2.135   3.602 -0.6895  2.3624 -1.6007
  108SAPE  C31011185   5.535   2.021   3.728 -0.4118  0.1039  0.4388
  108SAPE  H10X11186   5.596   1.929   3.721  2.1063  1.7494 -1.2403
  108SAPE  H10Y11187   5.433   1.980   3.740 -0.6493  0.7034  0.5019
  108SAPE  C31111188   5.579   2.095   3.855  0.6998 -0.0092  0.2698
  108SAPE  H11X11189   5.503   2.170   3.885 -1.0205 -1.7833  0.5278
  108SAPE  H11Y11190   5.675   2.146   3.833  0.6095  0.6980  1.4315
  108SAPE  C31211191   5.593   2.001   3.975 -0.1164 -0.9086 -0.0026
  108SAPE  H12X11192   5.664   1.917   3.963 -0.9785 -1.6313 -0.1800
  108SAPE  H12Y11193   5.497   1.957   4.011  0.0567  0.0930  1.8088
  108SAPE  C31311194   5.644   2.078   4.097 -0.8339  0.4706 -0.1593
  108SAPE  H13X11195   5.561   2.141   4.135 -1.2494 -1.7969  2.9850
  108SAPE  H13Y11196   5.721   2.155   4.072 -0.3751 -0.4162 -1.5769
  108SAPE  C31411197   5.689   1.997   4.215 -0.3047  0.2007  0.8107
  108SAPE  H14X11198   5.755   2.060   4.279 -0.8871  1.0530  0.5844
  108SAPE  H14Y11199   5.770   1.926   4.189  1.0130  1.5080  1.1864
  108SAPE  C31511200   5.573   1.941   4.301  0.5502 -0.3610  0.3001
  108SAPE  H15X11201   5.618   1.889   4.388 -0.3169  0.4866  1.2840
  108SAPE  H15Y11202   5.511   1.859   4.258  0.4615 -2.0768  3.4047
  108SAPE  C31611203   5.478   2.052   4.358  0.2539 -0.0565  0.2366
  108SAPE  H16X11204   5.417   2.107   4.284  1.6568  2.2365  0.6720
  108SAPE  H16Y11205   5.549   2.128   4.398 -0.7300 -0.0201  2.0264
  108SAPE  C31711206   5.403   2.009   4.485 -0.6518  0.3549 -0.3957
  108SAPE  H17X11207   5.366   2.087   4.555  1.9646 -0.1394  1.6752
  108SAPE  H17Y11208   5.470   1.949   4.549  0.5228  0.7709 -1.2046
  108SAPE  C31811209   5.282   1.935   4.444 -0.0636  0.4274  0.8309
  108SAPE  H18X11210   5.309   1.831   4.415  2.5602  0.2641  3.3733
  108SAPE  H18Y11211   5.226   1.977   4.358 -1.5255 -0.2767  1.4037
  108SAPE  H18Z11212   5.208   1.912   4.523 -1.3228  1.0254 -0.1454
  109SAPE     N11213   6.003   0.646   1.822 -0.3373  0.3736 -0.0931
  109SAPE   HN111214   5.996   0.647   1.719  0.6543  0.3446 -0.1689
  109SAPE   HN211215   6.089   0.691   1.860 -0.5765  0.4011  0.4295
  109SAPE   HN311216   6.015   0.547   1.854 -1.0407  0.5708  0.8454
  109SAPE   C1211217   5.874   0.697   1.878 -0.5268  0.2686  0.2625
  109SAPE  H12A11218   5.874   0.654   1.980  2.1111  0.7379  0.5301
  109SAPE  H12B11219   5.795   0.640   1.823 -0.6851 -0.1632  0.9291
  109SAPE   C1111220   5.853   0.837   1.870 -0.7129 -0.0032 -0.1309
  109SAPE  H11A11221   5.769   0.862   1.938  1.1512 -0.8065  2.6446
  109SAPE  H11B11222   5.831   0.874   1.768 -1.6686  0.7161  0.3171
  109SAPE     P11223   5.970   1.049   1.958  0.5012  0.1215 -0.5291
  109SAPE   O1311224   6.112   1.089   1.976 -0.3087 -0.0181  0.1959
  109SAPE   O1411225   5.888   1.108   1.846 -0.0229  0.0347 -0.2186
  109SAPE   O1211226   5.966   0.897   1.932 -0.0459  0.1905 -0.1189
  109SAPE   O1111227   5.888   1.056   2.097  0.2949 -0.6234  0.1300
  109SAPE    C111228   5.873   0.949   2.193 -0.1253  0.3318  0.3042
  109SAPE    HA11229   5.792   0.879   2.165  1.4717 -1.4786 -0.0083
  109SAPE    HB11230   5.963   0.884   2.190 -0.4699 -0.1312 -1.9805
  109SAPE    C211231   5.834   0.997   2.337  0.9291 -0.1368  0.4629
  109SAPE    HS11232   5.814   0.902   2.390  0.0149 -0.8122 -1.0444
  109SAPE   O2111233   5.715   1.078   2.322  0.2097  0.2179 -0.0441
  109SAPE   C2111234   5.624   1.068   2.413  0.1226  0.0965  0.0241
  109SAPE   O2211235   5.635   1.000   2.516  0.2741  0.7026 -0.0257
  109SAPE   C2211236   5.506   1.154   2.378  0.5400 -0.5471  0.2045
  109SAPE   H2R11237   5.532   1.262   2.379 -1.0147 -0.1458 -0.2597
  109SAPE   H2S11238   5.483   1.139   2.271  3.8976  1.1457 -0.9134
  109SAPE    C311239   5.949   1.078   2.408  0.0570 -0.5566 -0.7092
  109SAPE    HX11240   5.985   1.154   2.336  0.8097  0.5344  0.7460
  109SAPE    HY11241   6.041   1.020   2.431 -1.3340 -1.8968  1.9684
  109SAPE   O3111242   5.894   1.152   2.530  0.2901  0.3432  0.1461
  109SAPE   C3111243   5.907   1.081   2.649  0.3880 -0.2126  0.4057
  109SAPE   O3211244   5.986   0.991   2.662 -0.4789 -0.2925 -0.5563
  109SAPE   C3211245   5.835   1.153   2.763  0.0115  0.0066 -0.5268
  109SAPE   H2X11246   5.726   1.133   2.753 -0.2195  0.2826  1.1970
  109SAPE   H2Y11247   5.858   1.262   2.768 -0.1752 -0.0138  2.1422
  109SAPE   C2311248   5.378   1.130   2.469  0.4015 -0.5764  0.5139
  109SAPE   H3R11249   5.355   1.022   2.463  1.6222 -0.7450 -2.3264
  109SAPE   H3S11250   5.299   1.188   2.418 -0.0283 -0.0235  1.7644
  109SAPE   C2411251   5.404   1.180   2.610 -0.0668  0.2893 -0.7208
  109SAPE   H4R11252   5.442   1.285   2.602 -2.0834  0.9894 -1.9035
  109SAPE   H4S11253   5.480   1.109   2.648 -2.4358 -2.6664 -1.1210
  109SAPE   C2511254   5.289   1.177   2.700 -0.0210 -0.1512 -0.3401
  109SAPE   H5R11255   5.198   1.226   2.664  0.0791  1.0818  0.9611
  109SAPE   C2611256   5.279   1.129   2.827 -0.1880  0.3463  0.1537
  109SAPE   H6R11257   5.185   1.142   2.882 -0.2484 -0.2182  0.1873
  109SAPE   C2711258   5.393   1.074   2.911  0.9681 -0.0478  0.7050
  109SAPE   H7R11259   5.463   1.150   2.952  2.1898 -1.0347  0.4817
  109SAPE   H7S11260   5.447   1.003   2.846  1.4083  1.3648 -0.5460
  109SAPE   C2811261   5.332   0.997   3.030 -0.2352  0.3445 -0.3087
  109SAPE   H8R11262   5.292   0.896   3.009 -0.8914  0.2332  1.3672
  109SAPE   C2911263   5.343   1.039   3.156 -0.2453 -0.0838 -0.5426
  109SAPE   H9R11264   5.305   0.978   3.240  1.7393 -1.1176 -0.3260
  109SAPE  C21011265   5.397   1.175   3.213 -0.0392  0.1191  0.1590
  109SAPE  H10R11266   5.342   1.219   3.299 -0.2489  0.3477 -0.0881
  109SAPE  H10S11267   5.394   1.263   3.144 -1.0636 -0.0579 -0.0474
  109SAPE  C21111268   5.544   1.145   3.249 -0.4726 -0.1415 -0.1340
  109SAPE  H11R11269   5.622   1.155   3.171  1.2847 -0.1534  1.5512
  109SAPE  C21211270   5.592   1.105   3.370 -0.2151  0.2138 -0.3913
  109SAPE  H12R11271   5.699   1.085   3.382 -0.1273 -0.4108 -2.0229
  109SAPE  C21311272   5.499   1.067   3.488 -0.0570 -0.0118  0.1930
  109SAPE  H13R11273   5.561   1.004   3.556 -2.0102  0.3517  2.4714
  109SAPE  H13S11274   5.417   1.002   3.451  2.1695 -1.0838 -3.2520
  109SAPE  C21411275   5.464   1.193   3.575 -0.2971 -0.4821  0.3893
  109SAPE  H14R11276   5.416   1.274   3.517 -0.2818 -0.4340  0.4435
  109SAPE  C21511277   5.492   1.225   3.705  0.4793 -0.4850 -0.2379
  109SAPE  H15R11278   5.449   1.320   3.741  2.2269  0.8005 -1.3792
  109SAPE  C21611279   5.562   1.137   3.806  0.0147  0.4740 -0.0220
  109SAPE  H16R11280   5.665   1.172   3.824  0.6604 -2.3983  2.7217
  109SAPE  H16S11281   5.558   1.032   3.767 -1.2323  0.3350  0.4233
  109SAPE  C21711282   5.503   1.144   3.950  0.1559  0.6714 -0.3449
  109SAPE  H17R11283   5.394   1.126   3.945 -0.2985  0.9207  4.3749
  109SAPE  H17S11284   5.520   1.245   3.992  1.5965  0.4456 -0.3263
  109SAPE  C21811285   5.571   1.050   4.045 -0.6723  0.4811 -0.1104
  109SAPE  H18R11286   5.568   0.946   4.007 -0.5699  1.1559 -2.0605
  109SAPE  H18S11287   5.515   1.042   4.141 -1.1341 -2.1955 -0.5037
  109SAPE  C21911288   5.723   1.084   4.074 -0.4167 -0.1444  0.0787
  109SAPE  H19R11289   5.768   1.095   3.973  0.5996 -0.6806  0.4624
  109SAPE  H19S11290   5.768   0.998   4.126 -1.1045 -0.0024  0.9395
  109SAPE  C22011291   5.762   1.199   4.167  0.5125  0.1599  0.0751
  109SAPE  H20R11292   5.700   1.286   4.138 -0.0106 -0.2213  0.0449
  109SAPE  H20S11293   5.870   1.227   4.162  0.6230 -0.5035 -2.2282
  109SAPE  H20T11294   5.728   1.172   4.270 -0.0193 -0.9921 -0.3836
  109SAPE   C3311295   5.873   1.088   2.896  0.3000 -0.7113 -0.5180
  109SAPE   H3X11296   5.865   0.977   2.888  0.2918 -0.6608 -1.2854
  109SAPE   H3Y11297   5.795   1.117   2.970 -0.9027 -0.0334 -1.9996
  109SAPE   C3411298   6.005   1.134   2.950  0.3904 -0.1099 -0.7371
  109SAPE   H4X11299   6.002   1.245   2.942 -0.4274 -0.0041  0.5743
  109SAPE   H4Y11300   6.089   1.083   2.899  2.6902  0.8525  1.8304
  109SAPE   C3511301   6.015   1.119   3.104 -0.5544  0.1346  0.3210
  109SAPE   H5X11302   6.122   1.140   3.127 -0.3745 -1.2806  0.8493
  109SAPE   H5Y11303   5.991   1.013   3.127  0.1450  0.0928  0.8653
  109SAPE   C3611304   5.931   1.210   3.185  0.1124  0.0583 -0.1721
  109SAPE   H6X11305   5.823   1.196   3.160 -0.7615  2.2934  1.9660
  109SAPE   H6Y11306   5.959   1.313   3.157 -1.5509  0.6190  0.1249
  109SAPE   C3711307   5.942   1.197   3.334 -0.3434 -0.0458 -0.3319
  109SAPE   H7X11308   5.963   1.090   3.357 -1.6398 -0.6029 -1.5723
  109SAPE   H7Y11309   5.844   1.218   3.381 -0.0235 -1.0479  0.8262
  109SAPE   C3811310   6.050   1.282   3.396  0.1908 -0.3495  0.4302
  109SAPE   H8X11311   6.058   1.372   3.330  1.6006  0.2865  1.4190
  109SAPE   H8Y11312   6.149   1.237   3.371 -0.5990 -1.3469 -1.0494
  109SAPE   C3911313   6.021   1.331   3.535  0.1328  0.2017  0.5288
  109SAPE   H9X11314   5.925   1.388   3.537 -1.6693 -2.6321  0.5991
  109SAPE   H9Y11315   6.106   1.396   3.564  0.5221 -0.3462  0.6312
  109SAPE  C31011316   6.003   1.220   3.644 -0.1686  1.2130 -0.0367
  109SAPE  H10X11317   6.084   1.149   3.618  0.9961  2.7471 -0.7575
  109SAPE  H10Y11318   5.905   1.170   3.630  0.1281  0.4314  0.6438
  109SAPE  C31111319   5.997   1.268   3.787 -0.6347 -0.2729 -0.0780
  109SAPE  H11X11320   6.034   1.181   3.846  0.4376  0.5038  0.4243
  109SAPE  H11Y11321   5.887   1.275   3.804 -0.3161  1.0764  1.7413
  109SAPE  C31211322   6.075   1.395   3.833  0.2615 -0.1037  0.2751
  109SAPE  H12X11323   6.023   1.485   3.793 -0.7507 -1.1600 -0.8772
  109SAPE  H12Y11324   6.178   1.385   3.793  0.0301  1.0633 -0.6943
  109SAPE  C31311325   6.088   1.402   3.978 -0.4632 -0.0537 -0.0874
  109SAPE  H13X11326   6.094   1.294   4.005 -0.3908 -0.8296 -2.9133
  109SAPE  H13Y11327   5.999   1.447   4.026  1.0964  2.3712  0.7363
  109SAPE  C31411328   6.196   1.500   4.031 -0.3238 -0.2961  0.0194
  109SAPE  H14X11329   6.176   1.596   3.979 -2.6279  0.5973  2.3409
  109SAPE  H14Y11330   6.297   1.461   4.008  0.2173  1.0221  0.0519
  109SAPE  C31511331   6.194   1.518   4.184  0.2703  0.7782  0.7153
  109SAPE  H15X11332   6.094   1.559   4.210 -1.7029 -2.8797 -0.4138
  109SAPE  H15Y11333   6.269   1.599   4.194 -0.4428  1.9470 -2.2397
  109SAPE  C31611334   6.221   1.386   4.267  0.7988 -0.1834  0.1582
  109SAPE  H16X11335   6.319   1.360   4.221  0.1105 -0.3577 -1.2611
  109SAPE  H16Y11336   6.139   1.312   4.258 -0.0910  0.3383  2.9690
  109SAPE  C31711337   6.237   1.407   4.424  0.3317  0.6107  0.0437
  109SAPE  H17X11338   6.332   1.465   4.428  1.7718 -1.5608 -1.1799
  109SAPE  H17Y11339   6.246   1.307   4.471 -2.5994  0.5086  0.5577
  109SAPE  C31811340   6.136   1.484   4.494  0.0800  0.1992 -0.3882
  109SAPE  H18X11341   6.034   1.445   4.472  0.1457  0.3161 -0.8957
  109SAPE  H18Y11342   6.136   1.592   4.470 -0.2203 -0.0930 -1.7619
  109SAPE  H18Z11343   6.153   1.465   4.602 -0.8027  1.4433 -0.0060
  110SAPE     N11344   5.734   4.276   2.341 -0.2476 -0.4847 -0.4117
  110SAPE   HN111345   5.830   4.238   2.325 -0.8148 -1.0224 -2.9640
  110SAPE   HN211346   5.675   4.197   2.374  0.1442 -0.6292 -0.0444
  110SAPE   HN311347   5.693   4.300   2.249 -0.0843  1.9249  0.0698
  110SAPE   C1211348   5.744   4.395   2.431  0.2512 -0.3690 -0.0953
  110SAPE  H12A11349   5.779   4.356   2.529  1.6487  2.4532  0.6117
  110SAPE  H12B11350   5.642   4.433   2.451  0.9782  2.3368 -1.1724
  110SAPE   C1111351   5.839   4.509   2.377  0.8253  1.0057  0.1217
  110SAPE  H11A11352   5.839   4.590   2.453 -1.5848  0.6822  0.5446
  110SAPE  H11B11353   5.780   4.550   2.292 -1.0637  0.5017  1.1404
  110SAPE     P11354   6.080   4.555   2.295 -0.5069 -0.0201  0.6433
  110SAPE   O1311355   6.159   4.487   2.191  0.3995  0.3770  0.5152
  110SAPE   O1411356   6.022   4.687   2.259 -0.0526  0.7404 -0.3051
  110SAPE   O1211357   5.968   4.459   2.348 -0.0225  0.5085  0.4744
  110SAPE   O1111358   6.153   4.568   2.431 -0.3767  0.0342  0.1183
  110SAPE    C111359   6.120   4.672   2.524  0.5385  0.0658 -0.3054
  110SAPE    HA11360   6.189   4.760   2.520  0.7279 -0.0928 -0.6161
  110SAPE    HB11361   6.017   4.711   2.510 -0.1447 -0.3424  2.8396
  110SAPE    C211362   6.130   4.628   2.669  1.0457  0.5907 -0.2377
  110SAPE    HS11363   6.235   4.628   2.704  1.2336  3.6873 -0.5385
  110SAPE   O2111364   6.056   4.507   2.692 -0.0743  0.1647 -0.6697
  110SAPE   C2111365   6.116   4.397   2.666 -0.2562 -0.4826 -0.1831
  110SAPE   O2211366   6.232   4.383   2.635  0.5497  0.6211  0.1297
  110SAPE   C2211367   6.021   4.275   2.695 -0.4176 -0.0073 -0.3357
  110SAPE   H2R11368   5.927   4.290   2.637 -1.3182 -0.9501  0.8117
  110SAPE   H2S11369   6.079   4.198   2.639 -2.1344 -0.2821 -1.8492
  110SAPE    C311370   6.065   4.733   2.763 -0.1676  0.1713 -0.0004
  110SAPE    HX11371   5.956   4.736   2.738 -0.0165  0.3329 -0.6686
  110SAPE    HY11372   6.058   4.688   2.864 -0.1717 -0.5959 -0.3310
  110SAPE   O3111373   6.130   4.863   2.743  0.6159  0.3968 -0.0580
  110SAPE   C3111374   6.194   4.904   2.851 -0.4923 -0.7338  0.0503
  110SAPE   O3211375   6.222   4.828   2.942  0.1090 -0.0023 -0.0993
  110SAPE   C3211376   6.225   5.055   2.837  0.4847 -0.3350  0.1043
  110SAPE   H2X11377   6.140   5.113   2.878  0.1876 -0.0778 -0.8379
  110SAPE   H2Y11378   6.257   5.084   2.734  1.3181 -0.3014  0.3645
  110SAPE   C2311379   5.998   4.225   2.833  0.3509  0.9620  0.3808
  110SAPE   H3R11380   6.093   4.209   2.888 -0.0211 -0.9097  0.5414
  110SAPE   H3S11381   5.963   4.121   2.819 -1.3379  1.1168  2.7475
  110SAPE   C2411382   5.887   4.287   2.916 -0.0294  0.0151  0.4008
  110SAPE   H4R11383   5.862   4.221   3.002 -1.2049  1.3829  1.1534
  110SAPE   H4S11384   5.801   4.292   2.846  0.4128 -0.7500 -0.2215
  110SAPE   C2511385   5.917   4.423   2.971  0.0219  0.2897 -0.1101
  110SAPE   H5R11386   5.902   4.506   2.899  0.0429  0.1509 -0.2761
  110SAPE   C2611387   5.949   4.453   3.097  0.1705  0.5895  0.2456
  110SAPE   H6R11388   5.974   4.559   3.113  0.9323  0.6006 -0.9291
  110SAPE   C2711389   5.971   4.352   3.218 -0.4696 -0.0705 -0.1162
  110SAPE   H7R11390   5.945   4.246   3.196  0.3919 -0.0415 -1.4057
  110SAPE   H7S11391   5.900   4.385   3.297 -1.7197 -1.4509 -0.6089
  110SAPE   C2811392   6.110   4.354   3.279  0.1100 -0.6224  0.3232
  110SAPE   H8R11393   6.142   4.459   3.291 -0.6292  0.2457 -3.7051
  110SAPE   C2911394   6.185   4.243   3.310  0.1734 -0.1207  0.2447
  110SAPE   H9R11395   6.289   4.253   3.343  0.1196 -1.5507  0.9130
  110SAPE  C21011396   6.131   4.096   3.298 -0.1827 -0.0983  0.9491
  110SAPE  H10R11397   6.145   4.077   3.189  4.7732  0.6612  1.2250
  110SAPE  H10S11398   6.022   4.105   3.317 -0.9212  0.4845 -2.7306
  110SAPE  C21111399   6.204   3.987   3.369 -0.1819  0.5699 -0.5120
  110SAPE  H11R11400   6.264   4.026   3.453  2.1278  1.8047 -2.6288
  110SAPE  C21211401   6.197   3.854   3.345  0.2834 -0.0116 -0.8470
  110SAPE  H12R11402   6.263   3.793   3.407  0.0036  0.2590 -0.2785
  110SAPE  C21311403   6.136   3.788   3.224 -0.6410  0.2906 -0.3454
  110SAPE  H13R11404   6.090   3.857   3.149 -0.3969 -0.0413 -0.8034
  110SAPE  H13S11405   6.051   3.722   3.249 -0.1259  0.6138  2.5375
  110SAPE  C21411406   6.245   3.715   3.160  0.2682 -0.4961 -0.0511
  110SAPE  H14R11407   6.324   3.779   3.117 -0.7310 -0.4723 -1.9239
  110SAPE  C21511408   6.263   3.580   3.155  0.2148 -0.3344 -0.5399
  110SAPE  H15R11409   6.346   3.527   3.107  1.2416 -0.0002  0.7967
  110SAPE  C21611410   6.172   3.486   3.224 -0.6228 -0.4228 -0.2687
  110SAPE  H16R11411   6.128   3.540   3.310  1.4584  1.7884 -0.4975
  110SAPE  H16S11412   6.231   3.400   3.262 -0.4888  0.0935  0.7226
  110SAPE  C21711413   6.068   3.420   3.137 -0.0816  0.2748  0.3938
  110SAPE  H17R11414   6.010   3.497   3.082  2.4796  2.3701  0.4312
  110SAPE  H17S11415   6.008   3.356   3.205  0.5497 -0.6288  0.1085
  110SAPE  C21811416   6.123   3.328   3.030 -0.5894 -0.4072  0.6933
  110SAPE  H18R11417   6.165   3.237   3.080  1.0858 -1.0521 -1.6927
  110SAPE  H18S11418   6.204   3.386   2.981 -2.4107  2.1272  0.5484
  110SAPE  C21911419   6.013   3.299   2.924 -0.5479  0.8941  0.6290
  110SAPE  H19R11420   5.991   3.393   2.869 -2.1572 -0.1494 -0.5932
  110SAPE  H19S11421   5.924   3.273   2.985 -0.4083  0.6488  0.7280
  110SAPE  C22011422   6.063   3.189   2.824  0.1626 -0.1594  0.4834
  110SAPE  H20R11423   6.160   3.215   2.777  0.2242 -0.5867  0.3700
  110SAPE  H20S11424   5.994   3.156   2.743  0.2413  0.4151  0.1806
  110SAPE  H20T11425   6.100   3.095   2.869  1.1896  0.1521  0.3008
  110SAPE   C3311426   6.335   5.106   2.929  0.5910 -0.0491  0.0703
  110SAPE   H3X11427   6.363   5.209   2.899 -1.1577  1.1443  2.2025
  110SAPE   H3Y11428   6.424   5.041   2.917  1.0746  0.7164 -0.5390
  110SAPE   C3411429   6.295   5.119   3.081 -0.8079 -0.2770 -0.7982
  110SAPE   H4X11430   6.243   5.028   3.117  2.0972 -1.3989  0.9087
  110SAPE   H4Y11431   6.227   5.206   3.093  0.1587  0.3882 -0.0671
  110SAPE   C3511432   6.414   5.146   3.185 -0.6287 -0.2730 -0.2474
  110SAPE   H5X11433   6.489   5.216   3.142  2.4537 -2.3011  1.4088
  110SAPE   H5Y11434   6.475   5.054   3.199 -0.6471 -0.5976 -2.0194
  110SAPE   C3611435   6.372   5.213   3.318  0.4890 -0.6177  0.1023
  110SAPE   H6X11436   6.274   5.263   3.303  1.7568  2.5497  1.4506
  110SAPE   H6Y11437   6.441   5.291   3.357 -0.6590  0.0020  0.9514
  110SAPE   C3711438   6.357   5.097   3.417 -0.6530 -0.7377 -0.4382
  110SAPE   H7X11439   6.460   5.071   3.451 -0.9600 -0.5901  0.6343
  110SAPE   H7Y11440   6.314   5.011   3.362 -0.1267 -0.3646 -1.4648
  110SAPE   C3811441   6.286   5.132   3.545  0.2549  0.0943 -0.2050
  110SAPE   H8X11442   6.182   5.160   3.517 -0.1460 -0.5658  0.5704
  110SAPE   H8Y11443   6.345   5.217   3.586 -1.0373  1.0880 -0.3144
  110SAPE   C3911444   6.277   5.021   3.654 -0.3930 -0.2671 -0.3057
  110SAPE   H9X11445   6.260   4.926   3.599 -2.3174  0.4151 -0.9487
  110SAPE   H9Y11446   6.194   5.050   3.721  2.9561  1.0366  3.7170
  110SAPE  C31011447   6.405   5.023   3.736 -0.7143 -0.3294  0.1725
  110SAPE  H10X11448   6.423   5.118   3.792 -0.9834  0.8953 -1.7407
  110SAPE  H10Y11449   6.494   4.990   3.677 -0.7422 -0.9667  0.4733
  110SAPE  C31111450   6.397   4.922   3.856 -0.2551  0.2986 -0.0451
  110SAPE  H11X11451   6.431   4.829   3.806 -0.1309  0.3807 -0.1134
  110SAPE  H11Y11452   6.293   4.910   3.893 -0.0026 -0.1744  0.5426
  110SAPE  C31211453   6.494   4.958   3.973  0.2654 -0.1494  0.5686
  110SAPE  H12X11454   6.448   5.047   4.020 -0.2446 -0.4358  0.6196
  110SAPE  H12Y11455   6.591   4.981   3.924 -0.9476  1.9915 -1.0000
  110SAPE  C31311456   6.512   4.847   4.081  0.9853 -0.0142 -0.2297
  110SAPE  H13X11457   6.562   4.763   4.029  3.8815  0.1736  1.9613
  110SAPE  H13Y11458   6.407   4.838   4.118  1.0349 -2.1065 -0.4990
  110SAPE  C31411459   6.598   4.902   4.192 -0.1459  0.3896  0.4764
  110SAPE  H14X11460   6.576   5.006   4.224 -0.9011  0.3907 -0.0219
  110SAPE  H14Y11461   6.705   4.908   4.161  0.0397  3.6133  1.3824
  110SAPE  C31511462   6.565   4.829   4.322 -0.0927  0.5877  0.7486
  110SAPE  H15X11463   6.597   4.723   4.316 -0.2438  0.5952 -0.3845
  110SAPE  H15Y11464   6.457   4.832   4.346 -0.0019 -0.7464  1.3842
  110SAPE  C31611465   6.637   4.899   4.435 -0.5038  0.6037 -0.2396
  110SAPE  H16X11466   6.612   5.007   4.441  0.8146  1.0245 -1.6964
  110SAPE  H16Y11467   6.748   4.892   4.427 -0.3985  1.1647  0.6001
  110SAPE  C31711468   6.602   4.839   4.569  0.0430 -0.4723  0.6811
  110SAPE  H17X11469   6.605   4.728   4.562  1.1752 -0.3912 -0.5192
  110SAPE  H17Y11470   6.501   4.879   4.591  0.1699  1.0285 -1.1487
  110SAPE  C31811471   6.692   4.899   4.677  0.3651 -0.1786 -0.2707
  110SAPE  H18X11472   6.800   4.906   4.650  1.2830  0.2109  3.0185
  110SAPE  H18Y11473   6.685   4.833   4.766  0.7232 -1.8849 -1.4621
  110SAPE  H18Z11474   6.646   4.997   4.705  0.8932  0.3973 -1.3572
  111SAPE     N11475   4.871   5.468   2.104 -0.6336  0.4059 -0.3688
  111SAPE   HN111476   4.835   5.509   2.192  2.3856 -1.0793  1.7053
  111SAPE   HN211477   4.905   5.547   2.045  0.2471  0.2298 -0.1126
  111SAPE   HN311478   4.800   5.420   2.046 -2.6178  0.2303  2.0710
  111SAPE   C1211479   4.995   5.379   2.123 -0.0253 -0.3137 -0.1656
  111SAPE  H12A11480   5.068   5.427   2.191  0.1136 -0.4141 -0.2412
  111SAPE  H12B11481   5.033   5.366   2.019 -1.3715 -0.1094 -0.7037
  111SAPE   C1111482   4.960   5.238   2.172 -0.1718 -0.1683  0.5435
  111SAPE  H11A11483   4.915   5.240   2.273 -0.6715 -2.9281  0.4357
  111SAPE  H11B11484   5.053   5.178   2.174  0.5641  0.7341 -1.9058
  111SAPE     P11485   4.854   5.026   2.065 -0.1963  0.2743 -0.2627
  111SAPE   O1311486   4.778   5.003   1.938  0.1863 -0.7973  0.5939
  111SAPE   O1411487   4.985   4.955   2.080 -0.2145 -0.1476  0.2226
  111SAPE   O1211488   4.872   5.185   2.074  0.6203  0.1652 -0.2513
  111SAPE   O1111489   4.767   4.999   2.193 -0.5711  0.5099  0.0961
  111SAPE    C111490   4.663   5.090   2.237  0.2942  0.1276 -0.5345
  111SAPE    HA11491   4.685   5.197   2.212  0.5207  0.7762  2.0787
  111SAPE    HB11492   4.570   5.050   2.191 -0.4646  0.6888  0.4632
  111SAPE    C211493   4.651   5.094   2.396  0.0904  0.9334  0.4599
  111SAPE    HS11494   4.757   5.120   2.415  0.6313 -0.3047 -0.6695
  111SAPE   O2111495   4.616   4.968   2.452  0.5719 -0.1355  0.2435
  111SAPE   C2111496   4.706   4.914   2.529 -0.0479 -0.1812 -0.2473
  111SAPE   O2211497   4.821   4.954   2.537 -0.5363  0.6325  0.4066
  111SAPE   C2211498   4.656   4.797   2.608  0.0931 -0.3848  0.1368
  111SAPE   H2R11499   4.567   4.745   2.568  0.7167 -1.1586 -0.2872
  111SAPE   H2S11500   4.733   4.717   2.602 -0.6479 -1.4795  3.2096
  111SAPE    C311501   4.555   5.203   2.443 -0.0724 -0.4721 -1.0813
  111SAPE    HX11502   4.454   5.160   2.433  0.6368 -2.6432  0.3902
  111SAPE    HY11503   4.576   5.293   2.381 -0.1768  0.4958  0.2281
  111SAPE   O3111504   4.584   5.220   2.588 -0.1050  0.0370  0.1356
  111SAPE   C3111505   4.579   5.346   2.627 -0.0229 -0.3390 -1.1442
  111SAPE   O3211506   4.573   5.447   2.557 -0.5783  0.1105  0.0182
  111SAPE   C3211507   4.571   5.350   2.779  0.3270  0.7404  0.2504
  111SAPE   H2X11508   4.470   5.309   2.803 -0.1412 -0.1176 -2.7524
  111SAPE   H2Y11509   4.568   5.459   2.801 -0.8483  0.8421 -0.3288
  111SAPE   C2311510   4.645   4.824   2.763  0.0786 -0.5878 -0.2771
  111SAPE   H3R11511   4.558   4.767   2.802 -0.7615  1.7242  1.5152
  111SAPE   H3S11512   4.605   4.926   2.783  1.7691 -0.5397  3.8047
  111SAPE   C2411513   4.771   4.791   2.842  0.4668 -0.5738 -0.3422
  111SAPE   H4R11514   4.838   4.864   2.793  1.6077 -1.5125 -0.2396
  111SAPE   H4S11515   4.810   4.689   2.821 -2.5730 -1.2662 -3.4224
  111SAPE   C2511516   4.762   4.829   2.989  0.9596 -0.1905  0.3537
  111SAPE   H5R11517   4.737   4.935   3.004  0.2506 -0.2656 -0.2071
  111SAPE   C2611518   4.785   4.744   3.088 -0.6040 -0.3270 -0.0155
  111SAPE   H6R11519   4.796   4.789   3.187 -0.7274  1.3151 -0.7162
  111SAPE   C2711520   4.820   4.601   3.078 -0.5912  0.2738  0.1969
  111SAPE   H7R11521   4.927   4.581   3.058 -1.1330 -2.7069 -0.2944
  111SAPE   H7S11522   4.757   4.550   3.002 -1.3800  2.5132 -0.7289
  111SAPE   C2811523   4.790   4.542   3.220 -0.2280  0.3870 -0.3483
  111SAPE   H8R11524   4.685   4.558   3.249 -0.2785  0.3623 -0.5159
  111SAPE   C2911525   4.870   4.470   3.306  0.2458 -0.6633  0.4155
  111SAPE   H9R11526   4.836   4.431   3.403  1.7168  0.2285  1.3295
  111SAPE  C21011527   5.020   4.451   3.271  0.4572  0.5377 -0.4059
  111SAPE  H10R11528   5.079   4.538   3.307  1.4685 -0.2213 -0.1663
  111SAPE  H10S11529   5.036   4.449   3.162  1.0998 -0.0835 -0.3105
  111SAPE  C21111530   5.067   4.320   3.336 -0.6794 -0.3890  0.6097
  111SAPE  H11R11531   4.990   4.242   3.345  0.9029 -2.4469 -1.9932
  111SAPE  C21211532   5.193   4.282   3.357 -0.4163 -0.1935  0.0497
  111SAPE  H12R11533   5.223   4.185   3.401 -0.3596  0.1540  0.7900
  111SAPE  C21311534   5.312   4.376   3.342 -0.1760 -0.3295  0.1556
  111SAPE  H13R11535   5.307   4.432   3.438 -0.4319  0.8199 -0.5087
  111SAPE  H13S11536   5.297   4.446   3.258  2.7746 -0.4510 -0.5756
  111SAPE  C21411537   5.450   4.313   3.349  0.2719 -0.8289 -0.1736
  111SAPE  H14R11538   5.454   4.203   3.359 -2.9716 -1.0645 -0.3542
  111SAPE  C21511539   5.563   4.392   3.344  0.9701  0.2174 -0.3102
  111SAPE  H15R11540   5.661   4.342   3.351 -0.0276 -1.7706  0.2124
  111SAPE  C21611541   5.555   4.543   3.320  0.4085 -0.1527 -0.4832
  111SAPE  H16R11542   5.614   4.597   3.397 -1.2832 -0.4883  1.1151
  111SAPE  H16S11543   5.456   4.589   3.338  1.2674  1.3383  0.6629
  111SAPE  C21711544   5.597   4.581   3.173 -0.3243 -0.2900  0.6256
  111SAPE  H17R11545   5.509   4.557   3.110  0.0054 -1.3282  0.5434
  111SAPE  H17S11546   5.682   4.514   3.145 -2.1364 -1.9041 -1.3377
  111SAPE  C21811547   5.624   4.723   3.151  0.1808  0.2084  0.6467
  111SAPE  H18R11548   5.719   4.748   3.203  0.8733 -1.0079  0.0213
  111SAPE  H18S11549   5.545   4.785   3.198 -0.0237  0.0340  0.5329
  111SAPE  C21911550   5.652   4.760   3.001 -0.5390 -0.6623 -0.2860
  111SAPE  H19R11551   5.577   4.714   2.933  0.3646 -1.3675 -0.8182
  111SAPE  H19S11552   5.754   4.723   2.976  0.6852  2.8232 -0.8927
  111SAPE  C22011553   5.649   4.917   2.974  0.1554 -0.1019 -0.4398
  111SAPE  H20R11554   5.722   4.941   2.893 -1.5508 -0.2799 -2.0929
  111SAPE  H20S11555   5.665   4.974   3.068  0.8167 -0.0910 -0.5524
  111SAPE  H20T11556   5.553   4.953   2.933 -0.2834  1.6664  1.9691
  111SAPE   C3311557   4.685   5.278   2.860  0.6421 -0.4237  0.9050
  111SAPE   H3X11558   4.780   5.310   2.811  0.0447 -1.6600 -1.1956
  111SAPE   H3Y11559   4.680   5.167   2.864  3.4047 -0.6955 -0.6786
  111SAPE   C3411560   4.686   5.322   3.007 -0.2278  0.6764 -0.0472
  111SAPE   H4X11561   4.611   5.273   3.073 -0.5059  3.2896  1.7163
  111SAPE   H4Y11562   4.658   5.428   2.991 -1.4305  0.5555  1.0762
  111SAPE   C3511563   4.824   5.308   3.069  0.1785  0.3083 -1.0923
  111SAPE   H5X11564   4.904   5.357   3.010  0.1297  1.5693 -0.1534
  111SAPE   H5Y11565   4.841   5.200   3.090 -1.1388  0.3991  0.7945
  111SAPE   C3611566   4.844   5.377   3.212  0.1050 -0.0339  0.6364
  111SAPE   H6X11567   4.768   5.354   3.290  2.2936 -2.1231  2.3168
  111SAPE   H6Y11568   4.834   5.483   3.182  0.9305 -0.3528 -0.8965
  111SAPE   C3711569   4.980   5.334   3.275  0.0302  0.2863 -0.8754
  111SAPE   H7X11570   5.061   5.377   3.211  1.8911  1.4049  2.0269
  111SAPE   H7Y11571   4.975   5.223   3.268  0.2101  0.2775 -0.8894
  111SAPE   C3811572   5.002   5.386   3.420  0.4549  0.2150  0.2226
  111SAPE   H8X11573   4.961   5.487   3.443 -1.1447 -0.0053 -1.4307
  111SAPE   H8Y11574   5.111   5.386   3.441  0.4796 -0.1409  0.0985
  111SAPE   C3911575   4.932   5.291   3.516 -0.1054 -0.7545  0.4494
  111SAPE   H9X11576   4.926   5.187   3.476  1.0207 -0.8006  0.3693
  111SAPE   H9Y11577   4.828   5.327   3.528 -0.8126 -1.8845 -1.7383
  111SAPE  C31011578   4.987   5.293   3.658 -0.3106 -0.2592 -0.4238
  111SAPE  H10X11579   4.970   5.390   3.709 -0.1527 -1.3223  1.7606
  111SAPE  H10Y11580   5.094   5.263   3.658 -0.1566  0.2165 -1.8401
  111SAPE  C31111581   4.900   5.197   3.747 -0.2671 -0.1460 -0.4294
  111SAPE  H11X11582   4.925   5.089   3.734  0.5477 -0.3114  2.1194
  111SAPE  H11Y11583   4.794   5.215   3.717 -0.1843  2.3017  0.5156
  111SAPE  C31211584   4.911   5.228   3.893 -0.0106  0.3137 -0.3350
  111SAPE  H12X11585   4.890   5.335   3.913  1.2797  0.2217  1.9076
  111SAPE  H12Y11586   5.009   5.188   3.928 -0.8013 -1.3406  0.0680
  111SAPE  C31311587   4.804   5.146   3.966 -0.4844  0.6940  0.1543
  111SAPE  H13X11588   4.813   5.037   3.945 -0.7630  0.4704  1.1255
  111SAPE  H13Y11589   4.700   5.172   3.935 -0.9792  1.0522  2.0113
  111SAPE  C31411590   4.811   5.157   4.122  0.2655 -0.1687 -0.3006
  111SAPE  H14X11591   4.817   5.264   4.148  0.6517 -0.0243 -0.9862
  111SAPE  H14Y11592   4.902   5.100   4.151  0.1091 -1.2848 -1.8787
  111SAPE  C31511593   4.689   5.094   4.196 -0.2622  0.8286  0.4635
  111SAPE  H15X11594   4.705   4.987   4.170  0.8864  0.9375  0.6840
  111SAPE  H15Y11595   4.589   5.121   4.155  0.2297  1.6368 -0.2150
  111SAPE  C31611596   4.698   5.106   4.346 -0.2368  0.3589  0.5030
  111SAPE  H16X11597   4.663   5.204   4.385  1.0493 -0.2278  3.3314
  111SAPE  H16Y11598   4.799   5.089   4.387  0.4680 -0.1459 -1.3165
  111SAPE  C31711599   4.610   5.003   4.421 -0.0479  0.0122  0.6188
  111SAPE  H17X11600   4.649   4.903   4.394 -0.6601  0.0270 -0.3782
  111SAPE  H17Y11601   4.511   5.015   4.372  0.3741  1.0703 -0.0220
  111SAPE  C31811602   4.607   5.008   4.572 -0.3772 -0.1594 -0.0344
  111SAPE  H18X11603   4.545   4.920   4.601  1.3569 -1.8187 -1.0631
  111SAPE  H18Y11604   4.564   5.103   4.609 -0.4779  0.2643 -1.2148
  111SAPE  H18Z11605   4.707   4.991   4.619 -0.5806 -0.8112  0.1838
  112SAPE     N11606   1.821   5.198   2.290 -0.2938  0.5764  0.1035
  112SAPE   HN111607   1.848   5.098   2.295  1.0601  0.9039 -0.0938
  112SAPE   HN211608   1.796   5.231   2.194 -1.5936 -0.9878 -0.1310
  112SAPE   HN311609   1.905   5.246   2.327  0.4799 -1.1160  0.6309
  112SAPE   C1211610   1.715   5.224   2.387  0.5248 -0.1251 -0.4430
  112SAPE  H12A11611   1.619   5.205   2.335 -0.4621  1.5735  0.6749
  112SAPE  H12B11612   1.719   5.329   2.423  0.9056 -0.0375 -0.7351
  112SAPE   C1111613   1.730   5.129   2.509 -0.6396 -0.0093 -0.0584
  112SAPE  H11A11614   1.722   5.028   2.462  1.6329 -0.1359 -0.2565
  112SAPE  H11B11615   1.642   5.131   2.577  0.1331 -0.3347  0.9735
  112SAPE     P11616   1.889   5.211   2.713  0.4240 -0.2662 -0.1345
  112SAPE   O1311617   2.030   5.201   2.745 -0.1959 -0.2095 -0.4411
  112SAPE   O1411618   1.825   5.343   2.719 -0.3242  0.3929 -0.4013
  112SAPE   O1211619   1.862   5.146   2.572 -0.0952  0.2456  0.5749
  112SAPE   O1111620   1.810   5.107   2.796  0.9677  0.9596  0.8407
  112SAPE    C111621   1.834   4.969   2.817 -0.2826  0.1840  0.0558
  112SAPE    HA11622   1.931   4.932   2.776 -1.0311 -3.5039  1.2443
  112SAPE    HB11623   1.852   4.962   2.926 -0.2010 -1.6062 -0.0335
  112SAPE    C211624   1.713   4.875   2.768 -0.0873  0.1262  0.5783
  112SAPE    HS11625   1.698   4.884   2.658 -0.2692 -0.9670  0.5073
  112SAPE   O2111626   1.596   4.903   2.850 -0.4748  0.6256 -0.0130
  112SAPE   C2111627   1.481   4.856   2.797 -0.8067  1.0887 -0.1975
  112SAPE   O2211628   1.478   4.779   2.702  0.2288  0.2678  0.3975
  112SAPE   C2211629   1.362   4.909   2.881 -0.3437  0.2564  1.0402
  112SAPE   H2R11630   1.392   5.011   2.912  3.6014  0.2075 -1.7632
  112SAPE   H2S11631   1.279   4.915   2.808  0.8771 -0.9671 -0.5440
  112SAPE    C311632   1.753   4.724   2.803 -0.5525  0.2188  0.1727
  112SAPE    HX11633   1.847   4.709   2.746 -1.6836 -3.1504 -1.0283
  112SAPE    HY11634   1.676   4.659   2.758  1.1724 -1.2260 -0.8208
  112SAPE   O3111635   1.792   4.693   2.943  0.2505 -0.2027  0.3507
  112SAPE   C3111636   1.705   4.625   3.015 -0.0906  0.3570 -0.5832
  112SAPE   O3211637   1.591   4.590   2.979 -0.6062  0.4322  0.3215
  112SAPE   C3211638   1.766   4.585   3.150  0.2346 -0.5171 -0.0640
  112SAPE   H2X11639   1.825   4.668   3.195 -0.8401 -0.2795  0.9819
  112SAPE   H2Y11640   1.838   4.504   3.130  0.1324 -0.3328 -1.2392
  112SAPE   C2311641   1.333   4.825   3.003 -0.9435  0.9730 -0.2255
  112SAPE   H3R11642   1.284   4.896   3.073 -4.3079  0.4014 -1.8540
  112SAPE   H3S11643   1.427   4.782   3.045 -1.7674 -0.5467  0.1194
  112SAPE   C2411644   1.231   4.718   2.967 -0.1850 -0.4327  0.5029
  112SAPE   H4R11645   1.256   4.668   2.871 -1.1101  0.7985 -0.4108
  112SAPE   H4S11646   1.140   4.778   2.947  0.6595  1.5964  2.3751
  112SAPE   C2511647   1.208   4.614   3.071  0.2245  0.5975 -0.1939
  112SAPE   H5R11648   1.218   4.514   3.024  1.4469  1.7218 -2.5271
  112SAPE   C2611649   1.188   4.628   3.202 -0.6755 -0.9850  0.1089
  112SAPE   H6R11650   1.177   4.531   3.252 -1.3542 -0.2060  1.5039
  112SAPE   C2711651   1.177   4.752   3.285  0.3424  0.3990  0.3822
  112SAPE   H7R11652   1.095   4.743   3.359 -0.9347  2.2320 -0.7476
  112SAPE   H7S11653   1.131   4.827   3.218 -3.6040  0.5026  2.8915
  112SAPE   C2811654   1.306   4.796   3.341 -0.2710  0.1683  0.5906
  112SAPE   H8R11655   1.367   4.857   3.272 -0.6562  1.1321  1.0882
  112SAPE   C2911656   1.348   4.806   3.467  0.5978 -0.5619  0.7334
  112SAPE   H9R11657   1.446   4.852   3.487 -1.1121  2.8853  1.9033
  112SAPE  C21011658   1.268   4.757   3.580  0.6048  0.3421 -0.7165
  112SAPE  H10R11659   1.189   4.683   3.554  1.4140 -0.1879 -1.7345
  112SAPE  H10S11660   1.209   4.835   3.632 -1.8183 -1.8582  0.0530
  112SAPE  C21111661   1.355   4.676   3.674 -0.4760  0.3014  0.5904
  112SAPE  H11R11662   1.428   4.609   3.626 -1.0318 -0.2314  0.4809
  112SAPE  C21211663   1.348   4.666   3.808  0.6746  0.0620  0.0195
  112SAPE  H12R11664   1.429   4.630   3.873  0.3843 -1.6994 -0.5285
  112SAPE  C21311665   1.240   4.722   3.893 -0.7757 -0.7186  0.3440
  112SAPE  H13R11666   1.202   4.635   3.950  0.6530 -0.7787  1.2635
  112SAPE  H13S11667   1.155   4.760   3.832  0.3226 -1.0165 -1.4487
  112SAPE  C21411668   1.298   4.823   3.998  0.1495  0.2737  0.1266
  112SAPE  H14R11669   1.253   4.920   3.971 -2.9643 -1.0459  0.1967
  112SAPE  C21511670   1.339   4.800   4.126  0.1478 -0.3750  0.0563
  112SAPE  H15R11671   1.377   4.888   4.180  0.0705 -0.4900  0.3018
  112SAPE  C21611672   1.369   4.680   4.203  0.5833 -0.0268 -0.1152
  112SAPE  H16R11673   1.478   4.678   4.224  0.1825  2.0856  2.7152
  112SAPE  H16S11674   1.349   4.591   4.138  2.0872  0.6491 -1.5637
  112SAPE  C21711675   1.304   4.678   4.344  0.2275  0.5772  0.0975
  112SAPE  H17R11676   1.359   4.754   4.403  4.0072 -0.3473 -1.9450
  112SAPE  H17S11677   1.337   4.586   4.397  0.4307 -1.0250 -2.6507
  112SAPE  C21811678   1.155   4.706   4.355  0.4725  0.0409  0.3655
  112SAPE  H18R11679   1.081   4.629   4.324 -0.4827  0.7724  0.7495
  112SAPE  H18S11680   1.135   4.799   4.298 -0.6486 -0.9020 -0.8571
  112SAPE  C21911681   1.109   4.734   4.505  0.0139 -0.0817 -0.7568
  112SAPE  H19R11682   1.152   4.829   4.542  1.0265 -1.0033  0.5146
  112SAPE  H19S11683   1.151   4.646   4.558 -1.1961 -0.8308 -0.9843
  112SAPE  C22011684   0.952   4.743   4.511 -0.3770  0.1352  0.7401
  112SAPE  H20R11685   0.903   4.663   4.450 -0.0074  1.0764 -0.8450
  112SAPE  H20S11686   0.927   4.840   4.464 -2.3046 -0.8318 -0.3452
  112SAPE  H20T11687   0.919   4.733   4.616 -0.1053 -1.9171  0.6758
  112SAPE   C3311688   1.658   4.532   3.246  0.2940  0.4216  0.2116
  112SAPE   H3X11689   1.608   4.441   3.204  1.6594 -0.7252  0.9657
  112SAPE   H3Y11690   1.572   4.601   3.261  2.1212  2.8661 -0.1062
  112SAPE   C3411691   1.724   4.501   3.381  0.6651 -0.3663 -0.2908
  112SAPE   H4X11692   1.831   4.470   3.378  0.9496  0.0958  2.2902
  112SAPE   H4Y11693   1.668   4.418   3.429 -0.5139  0.8940  0.5754
  112SAPE   C3511694   1.708   4.616   3.477  0.6814 -0.3366 -0.4413
  112SAPE   H5X11695   1.605   4.656   3.462 -0.0283 -1.8029  0.3531
  112SAPE   H5Y11696   1.775   4.699   3.446  0.8923 -0.4839 -0.3776
  112SAPE   C3611697   1.746   4.574   3.620 -0.1876 -0.3434  0.3720
  112SAPE   H6X11698   1.845   4.525   3.627 -1.7531 -3.7685  0.7273
  112SAPE   H6Y11699   1.664   4.500   3.631 -0.9476  0.5168  0.6363
  112SAPE   C3711700   1.725   4.671   3.732  0.4406  0.3647  0.4887
  112SAPE   H7X11701   1.626   4.720   3.715 -1.2216 -2.5899  0.9655
  112SAPE   H7Y11702   1.802   4.751   3.728  0.6769  0.1916  1.2902
  112SAPE   C3811703   1.737   4.609   3.870  0.5867  0.5223 -0.5565
  112SAPE   H8X11704   1.837   4.567   3.892 -0.1756  0.9448  5.3136
  112SAPE   H8Y11705   1.661   4.528   3.867 -0.8883  1.8221  0.1467
  112SAPE   C3911706   1.708   4.704   3.980  0.0797 -0.1070  0.3108
  112SAPE   H9X11707   1.607   4.750   3.976  1.0881  2.2240 -1.8368
  112SAPE   H9Y11708   1.787   4.782   3.969  0.0558 -0.2042 -0.6939
  112SAPE  C31011709   1.731   4.650   4.125 -0.0499 -0.7387  0.8282
  112SAPE  H10X11710   1.813   4.576   4.114 -0.9709 -1.6437 -0.3242
  112SAPE  H10Y11711   1.645   4.587   4.157  0.6989 -1.8694  0.6824
  112SAPE  C31111712   1.764   4.763   4.234 -0.1293  0.2290  0.4454
  112SAPE  H11X11713   1.667   4.814   4.248 -0.5961 -0.7038  0.6446
  112SAPE  H11Y11714   1.842   4.822   4.180  1.1919  0.3202  2.3324
  112SAPE  C31211715   1.828   4.717   4.364  0.2994  0.2016  0.0299
  112SAPE  H12X11716   1.858   4.809   4.419 -1.9715  0.2850  1.2477
  112SAPE  H12Y11717   1.918   4.653   4.353  0.6098  0.8126 -1.0353
  112SAPE  C31311718   1.717   4.657   4.450 -0.3560 -0.0683  0.0927
  112SAPE  H13X11719   1.685   4.562   4.401 -0.0226 -1.2734  2.0958
  112SAPE  H13Y11720   1.627   4.720   4.459  0.5020  1.3872 -1.0076
  112SAPE  C31411721   1.769   4.623   4.592 -0.0814 -0.0049  0.0520
  112SAPE  H14X11722   1.857   4.556   4.582  0.8861  1.0514  1.1495
  112SAPE  H14Y11723   1.689   4.573   4.651  0.7709 -0.4313  0.8857
  112SAPE  C31511724   1.808   4.749   4.669 -0.6955 -0.4530 -0.5723
  112SAPE  H15X11725   1.720   4.814   4.690  0.4374  0.4663  1.6474
  112SAPE  H15Y11726   1.873   4.816   4.608  0.0420 -0.9067 -0.3003
  112SAPE  C31611727   1.868   4.718   4.805 -0.7495  0.3144  0.1293
  112SAPE  H16X11728   1.804   4.643   4.858  0.4564  0.1468  1.4185
  112SAPE  H16Y11729   1.859   4.806   4.872  1.6854  0.1637  0.7239
  112SAPE  C31711730   2.019   4.677   4.805  0.0865  0.1645 -0.2125
  112SAPE  H17X11731   2.025   4.567   4.786  0.4550  0.0757  0.3825
  112SAPE  H17Y11732   2.059   4.680   4.909  0.2244  1.1857 -0.2866
  112SAPE  C31811733   2.116   4.755   4.715  0.0437  0.0232 -0.4095
  112SAPE  H18X11734   2.119   4.860   4.749  0.6588 -0.4421  1.0191
  112SAPE  H18Y11735   2.074   4.763   4.612 -1.8924  1.6940  0.4476
  112SAPE  H18Z11736   2.220   4.716   4.715  0.3556  0.8208 -0.6765
  113SAPE     N11737   0.842   3.067   2.059 -0.2865 -0.3228 -0.5041
  113SAPE   HN111738   0.841   2.965   2.038 -1.3966 -0.7876  1.5524
  113SAPE   HN211739   0.780   3.126   1.999  1.3858  0.4360 -1.5652
  113SAPE   HN311740   0.933   3.099   2.021 -0.8629  1.3454 -0.5721
  113SAPE   C1211741   0.837   3.093   2.210  0.2000  0.2445 -0.2731
  113SAPE  H12A11742   0.751   3.037   2.250  0.8969  0.3816  1.5037
  113SAPE  H12B11743   0.824   3.203   2.226 -0.4509  0.2143 -0.5935
  113SAPE   C1111744   0.963   3.040   2.278 -0.4847 -1.3324  0.3730
  113SAPE  H11A11745   0.973   2.933   2.247  0.7457 -1.6135  1.6312
  113SAPE  H11B11746   0.950   3.053   2.387 -1.7825 -0.6309  0.1448
  113SAPE     P11747   1.206   3.097   2.316 -0.2429  0.0897  0.4454
  113SAPE   O1311748   1.251   2.956   2.332 -0.6690 -0.1635 -0.5608
  113SAPE   O1411749   1.308   3.185   2.253  0.0376  0.1199 -0.2849
  113SAPE   O1211750   1.078   3.112   2.229 -0.1246  0.2697 -0.2901
  113SAPE   O1111751   1.165   3.157   2.447  0.0530  0.1013 -0.0436
  113SAPE    C111752   1.158   3.304   2.459 -0.6376 -0.0316 -0.1849
  113SAPE    HA11753   1.257   3.353   2.450 -0.3532 -0.3042  1.2732
  113SAPE    HB11754   1.080   3.348   2.394  0.2935  0.3717 -1.0530
  113SAPE    C211755   1.129   3.352   2.606 -0.8688  0.8042  0.6747
  113SAPE    HS11756   1.116   3.462   2.608 -1.8643  0.6876  1.0726
  113SAPE   O2111757   1.227   3.295   2.698 -0.5764  0.1808 -0.4957
  113SAPE   C2111758   1.334   3.362   2.723 -0.4998 -0.0134  0.2247
  113SAPE   O2211759   1.354   3.473   2.682  0.2416 -0.2625 -0.1168
  113SAPE   C2211760   1.426   3.278   2.820  0.5990  0.6414  0.0019
  113SAPE   H2R11761   1.449   3.179   2.774 -2.2593 -0.5876  0.9703
  113SAPE   H2S11762   1.527   3.325   2.817  2.5563 -3.1520 -2.2845
  113SAPE    C311763   0.993   3.295   2.644  0.6313  0.0184  0.1963
  113SAPE    HX11764   1.006   3.185   2.636 -2.7229 -0.3479 -2.6888
  113SAPE    HY11765   0.916   3.334   2.574  1.4683 -0.6813 -1.1824
  113SAPE   O3111766   0.966   3.346   2.780  0.0035  0.1270 -0.1480
  113SAPE   C3111767   0.991   3.253   2.875  0.5699 -0.7820  1.1119
  113SAPE   O3211768   1.032   3.142   2.850  0.1461 -0.3220  0.0731
  113SAPE   C3211769   0.952   3.319   3.008 -0.4809 -0.1056 -0.3016
  113SAPE   H2X11770   0.842   3.334   3.013 -0.3236  0.7624  1.2947
  113SAPE   H2Y11771   1.007   3.414   3.019  1.1656 -1.0688  0.1732
  113SAPE   C2311772   1.379   3.261   2.968 -0.2910  0.7070  0.5736
  113SAPE   H3R11773   1.298   3.187   2.951  0.6043  0.1637 -1.6620
  113SAPE   H3S11774   1.339   3.353   3.017 -2.2181 -0.4181  1.2071
  113SAPE   C2411775   1.498   3.197   3.055 -0.3630 -0.1153 -0.3863
  113SAPE   H4R11776   1.564   3.143   2.983 -0.0741  0.3513 -0.4797
  113SAPE   H4S11777   1.457   3.122   3.125  0.0603  1.0357  1.1664
  113SAPE   C2511778   1.592   3.298   3.116 -0.7209  0.7959 -0.8913
  113SAPE   H5R11779   1.679   3.321   3.053  1.2262  2.1272  2.0648
  113SAPE   C2611780   1.583   3.348   3.246 -0.6555 -0.7754  0.6893
  113SAPE   H6R11781   1.672   3.409   3.269 -0.1773 -1.3268  0.3455
  113SAPE   C2711782   1.479   3.323   3.352 -0.0423 -0.3890 -0.0770
  113SAPE   H7R11783   1.525   3.279   3.443 -0.3695  0.6060  0.5958
  113SAPE   H7S11784   1.401   3.247   3.332  0.5586 -1.2910  0.9587
  113SAPE   C2811785   1.412   3.450   3.394  0.3281 -0.3168  0.1453
  113SAPE   H8R11786   1.383   3.506   3.304  2.7525 -1.5822 -1.5436
  113SAPE   C2911787   1.407   3.515   3.512 -0.2979  0.1536  0.8458
  113SAPE   H9R11788   1.374   3.620   3.513 -2.9114 -0.5854  0.1219
  113SAPE  C21011789   1.478   3.475   3.634 -0.3153 -0.2558  0.1194
  113SAPE  H10R11790   1.576   3.526   3.635  0.2377 -1.2923  0.2868
  113SAPE  H10S11791   1.480   3.364   3.640 -0.2152 -0.2381  0.4128
  113SAPE  C21111792   1.416   3.527   3.758 -0.1239 -0.4383  0.6792
  113SAPE  H11R11793   1.350   3.615   3.759  1.4227  0.8048 -1.0005
  113SAPE  C21211794   1.420   3.454   3.870 -0.0482  1.1360 -0.2934
  113SAPE  H12R11795   1.363   3.491   3.957  1.0743 -1.0874  1.5174
  113SAPE  C21311796   1.493   3.329   3.896 -0.5589  0.4200 -0.0153
  113SAPE  H13R11797   1.561   3.306   3.811  2.0055  1.9312  1.4945
  113SAPE  H13S11798   1.418   3.248   3.881 -1.7922  1.4889  0.2602
  113SAPE  C21411799   1.555   3.331   4.030 -0.1559  0.3884  0.1790
  113SAPE  H14R11800   1.647   3.392   4.027  0.6139 -0.7875 -1.5281
  113SAPE  C21511801   1.522   3.258   4.129  0.6845  0.3205 -0.1891
  113SAPE  H15R11802   1.579   3.281   4.220  0.6946  1.0914 -0.3818
  113SAPE  C21611803   1.394   3.178   4.147  0.2696  0.1842  0.1747
  113SAPE  H16R11804   1.317   3.236   4.092  0.7787  2.7584  1.9679
  113SAPE  H16S11805   1.352   3.168   4.249 -0.7053  1.5218 -0.0630
  113SAPE  C21711806   1.409   3.031   4.105 -0.3356 -0.1801  0.1102
  113SAPE  H17R11807   1.425   3.025   3.995 -2.5029 -0.9849 -0.2182
  113SAPE  H17S11808   1.308   2.985   4.117  0.2831 -1.3486  1.1186
  113SAPE  C21811809   1.518   2.957   4.172 -0.0698 -0.6463 -0.7317
  113SAPE  H18R11810   1.617   3.000   4.145  1.0561 -2.6070  0.0241
  113SAPE  H18S11811   1.528   2.853   4.136 -0.8245 -0.2528 -2.1273
  113SAPE  C21911812   1.513   2.939   4.329 -0.0934  0.1936  0.0337
  113SAPE  H19R11813   1.494   3.037   4.377 -0.1151  0.9115 -1.4061
  113SAPE  H19S11814   1.610   2.908   4.373 -0.0737 -0.7155 -0.6100
  113SAPE  C22011815   1.418   2.840   4.386 -0.1725 -0.2114 -0.2623
  113SAPE  H20R11816   1.321   2.834   4.332 -0.6571 -4.3951  0.7027
  113SAPE  H20S11817   1.394   2.868   4.491  1.7508 -1.0093  0.4320
  113SAPE  H20T11818   1.454   2.735   4.384  1.0652  0.1751  0.6972
  113SAPE   C3311819   1.017   3.251   3.130  0.5017  0.0097 -0.3802
  113SAPE   H3X11820   1.123   3.224   3.112  0.8543  2.1763 -1.9322
  113SAPE   H3Y11821   0.951   3.165   3.154  1.6012 -0.9546 -0.7250
  113SAPE   C3411822   1.006   3.343   3.258 -0.3113  0.3926 -0.3991
  113SAPE   H4X11823   0.912   3.401   3.258  0.2419  1.3138  0.3056
  113SAPE   H4Y11824   1.082   3.423   3.259 -1.7149  1.7655  1.6866
  113SAPE   C3511825   1.014   3.252   3.389 -0.3396  0.3592  0.0163
  113SAPE   H5X11826   1.086   3.167   3.383 -1.0506 -0.3420  1.1043
  113SAPE   H5Y11827   0.910   3.214   3.395 -0.9110  1.5498 -1.5437
  113SAPE   C3611828   1.061   3.326   3.515 -0.1312  0.3629 -0.3678
  113SAPE   H6X11829   1.159   3.373   3.492  0.7971 -0.0388  2.3379
  113SAPE   H6Y11830   1.087   3.252   3.595  0.3353 -1.2108 -1.9170
  113SAPE   C3711831   0.964   3.436   3.566  0.3765 -0.1076 -0.1291
  113SAPE   H7X11832   0.861   3.397   3.584  0.7323 -0.1240  2.2274
  113SAPE   H7Y11833   0.962   3.509   3.482 -1.5133 -1.1937 -1.1059
  113SAPE   C3811834   1.003   3.493   3.705 -0.8900 -0.0268 -0.0098
  113SAPE   H8X11835   1.111   3.515   3.703 -1.2498  2.5751  2.3742
  113SAPE   H8Y11836   0.948   3.588   3.721 -0.6866  0.3262 -1.3178
  113SAPE   C3911837   0.961   3.404   3.823 -0.1540 -0.3745 -0.3063
  113SAPE   H9X11838   1.025   3.315   3.809 -1.1572 -1.1833  0.1517
  113SAPE   H9Y11839   0.860   3.357   3.826  1.1559 -3.3574  0.3220
  113SAPE  C31011840   0.994   3.471   3.955  0.4918 -0.0854  0.0560
  113SAPE  H10X11841   0.914   3.545   3.978  0.1687 -0.8770  1.6172
  113SAPE  H10Y11842   1.083   3.536   3.940 -0.6360  1.9289  1.4778
  113SAPE  C31111843   1.028   3.372   4.070  0.4183 -1.0079  0.2987
  113SAPE  H11X11844   1.105   3.297   4.043  1.7701  0.7746 -1.1020
  113SAPE  H11Y11845   0.940   3.305   4.072  0.1703 -0.6774  0.5007
  113SAPE  C31211846   1.051   3.434   4.209 -0.1323 -0.3180 -0.3491
  113SAPE  H12X11847   1.134   3.507   4.200 -0.1301 -0.4187 -1.2940
  113SAPE  H12Y11848   1.084   3.363   4.288  0.2501 -0.0903 -0.3030
  113SAPE  C31311849   0.920   3.500   4.272  0.1575 -0.3674 -0.8846
  113SAPE  H13X11850   0.874   3.578   4.208  0.4953 -1.5943 -2.6986
  113SAPE  H13Y11851   0.950   3.535   4.373  2.5708  0.5284 -1.8464
  113SAPE  C31411852   0.806   3.399   4.299 -0.0952  0.1321  0.1044
  113SAPE  H14X11853   0.751   3.367   4.208 -1.0209  0.8952  0.3751
  113SAPE  H14Y11854   0.722   3.442   4.358 -1.9131 -1.3280 -1.3001
  113SAPE  C31511855   0.858   3.283   4.394 -1.0634  0.1980 -0.1734
  113SAPE  H15X11856   0.915   3.332   4.475 -0.9396  0.6394 -0.5189
  113SAPE  H15Y11857   0.923   3.205   4.351 -1.8353  0.2069 -1.4357
  113SAPE  C31611858   0.735   3.218   4.454  0.3368  0.5672 -0.1532
  113SAPE  H16X11859   0.661   3.180   4.381  0.4641 -3.4408  1.5322
  113SAPE  H16Y11860   0.684   3.291   4.520  1.4579 -0.4328  1.9242
  113SAPE  C31711861   0.758   3.093   4.544 -0.3350  0.3385  0.1646
  113SAPE  H17X11862   0.665   3.065   4.597 -0.9367 -1.0673 -1.5589
  113SAPE  H17Y11863   0.832   3.125   4.620  1.4583 -0.4061 -1.1876
  113SAPE  C31811864   0.821   2.978   4.473  0.0071  0.6728 -0.0391
  113SAPE  H18X11865   0.811   2.890   4.540 -0.8806 -0.3118 -1.3833
  113SAPE  H18Y11866   0.928   3.001   4.453  0.7586 -0.0407  2.8246
  113SAPE  H18Z11867   0.773   2.959   4.374  1.5378 -2.0533 -0.3602
  114SAPE     N11868   4.789   6.370   2.363  0.2452 -0.0715 -0.5119
  114SAPE   HN111869   4.869   6.325   2.314 -0.3230 -0.3746 -1.1654
  114SAPE   HN211870   4.702   6.344   2.313 -0.2664  1.2668 -0.3707
  114SAPE   HN311871   4.806   6.470   2.337  2.3146 -0.0916  0.5563
  114SAPE   C1211872   4.808   6.342   2.506 -0.3452  0.6100  0.3662
  114SAPE  H12A11873   4.765   6.240   2.516 -1.5859  0.8381 -1.9510
  114SAPE  H12B11874   4.751   6.417   2.564 -1.0356  0.5245 -0.1830
  114SAPE   C1111875   4.960   6.345   2.538 -0.8218  0.7406  0.7385
  114SAPE  H11A11876   4.959   6.332   2.648  1.6946  3.5360  1.2241
  114SAPE  H11B11877   5.008   6.441   2.509 -0.3118  0.1582 -0.4092
  114SAPE     P11878   5.178   6.231   2.461 -0.0521  0.0366  0.3605
  114SAPE   O1311879   5.201   6.112   2.383 -0.2047 -0.0657  0.0594
  114SAPE   O1411880   5.222   6.359   2.402 -0.3329 -0.4005  0.0833
  114SAPE   O1211881   5.024   6.225   2.481 -0.1211 -0.1929 -0.0745
  114SAPE   O1111882   5.219   6.216   2.614 -0.2283  0.0835 -0.9845
  114SAPE    C111883   5.248   6.092   2.676 -0.2079 -0.2671 -0.0652
  114SAPE    HA11884   5.178   6.012   2.641  1.1674 -2.0660  1.1078
  114SAPE    HB11885   5.351   6.055   2.657 -0.8388 -2.5201  0.5302
  114SAPE    C211886   5.234   6.103   2.828  0.6543  0.7135 -0.6617
  114SAPE    HS11887   5.288   6.196   2.857 -2.5614  2.7329 -0.6929
  114SAPE   O2111888   5.277   5.980   2.889 -0.9492  0.8603  0.6345
  114SAPE   C2111889   5.365   5.993   2.977  0.1344  0.3248 -0.0107
  114SAPE   O2211890   5.405   6.094   3.027  0.2290 -0.8396 -0.3267
  114SAPE   C2211891   5.407   5.851   3.016  0.7055  0.1773  0.8837
  114SAPE   H2R11892   5.420   5.793   2.922  1.1050 -1.5993  1.9845
  114SAPE   H2S11893   5.505   5.859   3.069  0.0071  1.0329  2.1019
  114SAPE    C311894   5.092   6.129   2.876  0.1260 -0.5579  0.9523
  114SAPE    HX11895   5.025   6.047   2.842 -0.2955 -0.5154  1.6596
  114SAPE    HY11896   5.055   6.224   2.832  1.8160 -0.6135 -0.7074
  114SAPE   O3111897   5.077   6.139   3.016 -0.0744  0.6378 -0.3095
  114SAPE   C3111898   5.129   6.248   3.081  1.0719  0.1405 -0.0272
  114SAPE   O3211899   5.164   6.354   3.025  0.1813  0.0451  0.6999
  114SAPE   C3211900   5.122   6.226   3.229  0.0244 -0.1966 -0.7707
  114SAPE   H2X11901   5.103   6.118   3.248  0.5241 -0.3071 -0.8958
  114SAPE   H2Y11902   5.041   6.284   3.279  1.1258  0.7311 -0.0026
  114SAPE   C2311903   5.293   5.778   3.097  0.4513  0.2369  0.2486
  114SAPE   H3R11904   5.287   5.668   3.087  0.3598  0.4427 -2.8029
  114SAPE   H3S11905   5.195   5.814   3.060  1.9191  1.5380 -2.6789
  114SAPE   C2411906   5.297   5.809   3.247 -0.1773 -0.3356 -0.4489
  114SAPE   H4R11907   5.211   5.764   3.302  1.3901 -0.8647  1.7256
  114SAPE   H4S11908   5.303   5.917   3.269 -0.3193 -0.4494  0.1621
  114SAPE   C2511909   5.415   5.750   3.313 -0.3570 -0.0673  0.7728
  114SAPE   H5R11910   5.511   5.743   3.261 -0.8907 -1.1389 -0.1091
  114SAPE   C2611911   5.419   5.688   3.432  0.4840  0.0929 -0.2154
  114SAPE   H6R11912   5.510   5.632   3.457  1.0670  0.0191 -2.3285
  114SAPE   C2711913   5.318   5.699   3.544  0.1549  0.4964  0.7190
  114SAPE   H7R11914   5.268   5.601   3.564  0.1245 -0.3216 -2.6360
  114SAPE   H7S11915   5.238   5.773   3.522  0.6535  0.3769 -1.8466
  114SAPE   C2811916   5.382   5.758   3.668 -0.4655 -0.2564  0.1752
  114SAPE   H8R11917   5.415   5.862   3.650 -0.0156 -0.3891  0.2384
  114SAPE   C2911918   5.395   5.709   3.793 -0.1822  0.2621  0.5574
  114SAPE   H9R11919   5.451   5.766   3.869 -0.5577  1.0062  0.2820
  114SAPE  C21011920   5.332   5.579   3.846  0.7773  0.3385  0.2673
  114SAPE  H10R11921   5.268   5.546   3.762 -1.2307 -0.4758  2.0037
  114SAPE  H10S11922   5.259   5.604   3.926  1.6612  1.3924  0.7733
  114SAPE  C21111923   5.430   5.469   3.874 -0.2443  0.3019 -0.4412
  114SAPE  H11R11924   5.532   5.503   3.853  0.2326 -0.1780  0.9785
  114SAPE  C21211925   5.408   5.338   3.900  0.7760  0.1906  0.7774
  114SAPE  H12R11926   5.495   5.279   3.930  1.3235  1.9149  2.8038
  114SAPE  C21311927   5.268   5.277   3.916 -0.1444  0.3415 -0.1303
  114SAPE  H13R11928   5.252   5.193   3.845  0.1288 -1.3601  1.7377
  114SAPE  H13S11929   5.186   5.349   3.893  0.4040  1.3560  0.9474
  114SAPE  C21411930   5.248   5.226   4.060  0.3476 -0.0719  0.1367
  114SAPE  H14R11931   5.189   5.303   4.112  1.3673  0.6223  0.2976
  114SAPE  C21511932   5.286   5.110   4.110 -0.3285 -0.7023 -0.7157
  114SAPE  H15R11933   5.260   5.080   4.212 -1.6930 -0.8529 -1.0815
  114SAPE  C21611934   5.365   5.001   4.036 -0.7291 -0.1159 -0.7138
  114SAPE  H16R11935   5.407   5.030   3.938  0.0139 -0.4336 -0.4939
  114SAPE  H16S11936   5.303   4.912   4.013 -0.3572 -0.1668 -1.5147
  114SAPE  C21711937   5.481   4.947   4.124 -0.5720  0.3429 -0.7408
  114SAPE  H17R11938   5.443   4.908   4.220  0.5412 -4.7667 -2.1106
  114SAPE  H17S11939   5.560   5.026   4.134  0.4941 -0.6192 -1.2878
  114SAPE  C21811940   5.530   4.817   4.061 -0.9592 -0.9283  0.7241
  114SAPE  H18R11941   5.606   4.836   3.982 -1.4521  1.5437  0.7652
  114SAPE  H18S11942   5.446   4.778   4.001 -2.4216  1.7483  0.8943
  114SAPE  C21911943   5.574   4.712   4.164  0.7373 -0.4904 -0.6043
  114SAPE  H19R11944   5.488   4.692   4.232 -0.1322  1.6604 -1.0232
  114SAPE  H19S11945   5.656   4.744   4.232 -0.9939 -0.6212  1.6599
  114SAPE  C22011946   5.615   4.577   4.096 -0.0200  0.1310  0.4471
  114SAPE  H20R11947   5.717   4.575   4.051 -0.6744  1.5914 -1.1992
  114SAPE  H20S11948   5.542   4.545   4.018  0.4927 -2.4761  0.9340
  114SAPE  H20T11949   5.630   4.497   4.172  3.1976 -0.9300 -1.0896
  114SAPE   C3311950   5.254   6.262   3.307 -0.1842  0.2982  0.1245
  114SAPE   H3X11951   5.282   6.366   3.283 -0.5381  1.3532  3.6555
  114SAPE   H3Y11952   5.339   6.195   3.284  0.6851  0.0804  3.4278
  114SAPE   C3411953   5.236   6.268   3.459  0.4179  0.0816 -0.1260
  114SAPE   H4X11954   5.145   6.325   3.487  0.0986 -0.4791 -0.0104
  114SAPE   H4Y11955   5.319   6.326   3.504  1.9580 -1.0182 -1.4111
  114SAPE   C3511956   5.248   6.124   3.514 -0.0917  0.1487 -0.1475
  114SAPE   H5X11957   5.354   6.096   3.497  0.6002  0.5018  2.9932
  114SAPE   H5Y11958   5.187   6.048   3.461 -0.5767 -0.7892  1.6831
  114SAPE   C3611959   5.227   6.136   3.669 -0.0746 -0.2890  0.7202
  114SAPE   H6X11960   5.293   6.213   3.716  1.9207 -0.7214 -1.2030
  114SAPE   H6Y11961   5.254   6.045   3.726 -1.5254 -1.2602 -0.0954
  114SAPE   C3711962   5.085   6.149   3.711  0.5284 -0.2383 -0.4517
  114SAPE   H7X11963   5.014   6.092   3.647  0.2409  0.3466 -0.6656
  114SAPE   H7Y11964   5.060   6.254   3.683  0.2589  0.1480  1.1348
  114SAPE   C3811965   5.059   6.127   3.862 -0.2376 -0.3974  0.6841
  114SAPE   H8X11966   5.142   6.189   3.902  1.2443  0.2213 -2.8925
  114SAPE   H8Y11967   5.072   6.022   3.896 -2.0584 -0.2777  1.8788
  114SAPE   C3911968   4.916   6.167   3.902 -0.3691  0.0077  0.8819
  114SAPE   H9X11969   4.872   6.077   3.949 -0.4301  2.2778  5.7526
  114SAPE   H9Y11970   4.852   6.208   3.820 -1.8955 -1.8143  1.1059
  114SAPE  C31011971   4.924   6.268   4.022  0.1858  0.9811 -1.3013
  114SAPE  H10X11972   4.818   6.295   4.042 -0.8290 -2.6707 -0.9703
  114SAPE  H10Y11973   4.984   6.357   3.995  0.3119  1.3926  0.2242
  114SAPE  C31111974   4.987   6.217   4.151  0.0406  0.1464 -0.2692
  114SAPE  H11X11975   5.086   6.169   4.137  0.8686  2.0776 -1.3481
  114SAPE  H11Y11976   4.910   6.153   4.200 -0.2714  1.2982  0.7992
  114SAPE  C31211977   5.007   6.324   4.259 -0.2811  0.0967  0.0582
  114SAPE  H12X11978   4.936   6.408   4.243 -1.0773  0.0564  2.9326
  114SAPE  H12Y11979   5.106   6.370   4.237  0.5576 -1.1605  1.0670
  114SAPE  C31311980   4.992   6.290   4.405 -0.1195 -0.4558  0.0744
  114SAPE  H13X11981   4.884   6.271   4.424 -0.4520  0.1656 -1.0970
  114SAPE  H13Y11982   5.019   6.385   4.455 -0.3737  1.3834 -3.0317
  114SAPE  C31411983   5.083   6.184   4.467 -0.6958 -0.0673 -0.1500
  114SAPE  H14X11984   5.087   6.197   4.577 -3.7772  1.2859 -0.1082
  114SAPE  H14Y11985   5.186   6.196   4.426  0.0869 -0.3526  1.6264
  114SAPE  C31511986   5.037   6.036   4.441  0.5870 -0.4471 -0.0724
  114SAPE  H15X11987   5.030   6.016   4.332 -0.3465  1.3892 -0.3774
  114SAPE  H15Y11988   4.934   6.029   4.481  0.2299  1.2099 -0.6166
  114SAPE  C31611989   5.123   5.923   4.507  0.2371 -1.3365  0.3210
  114SAPE  H16X11990   5.146   5.953   4.612 -0.2721 -2.6310  0.8253
  114SAPE  H16Y11991   5.215   5.946   4.450  0.1720 -0.5150  0.5422
  114SAPE  C31711992   5.075   5.785   4.500 -0.2118  0.2173 -0.0298
  114SAPE  H17X11993   5.146   5.709   4.540 -2.0398 -1.0766  0.9013
  114SAPE  H17Y11994   5.045   5.775   4.394 -0.5096 -3.0733  0.2795
  114SAPE  C31811995   4.948   5.762   4.567 -0.3446 -0.5498  0.2361
  114SAPE  H18X11996   4.866   5.783   4.496 -0.1792  2.8643  0.8671
  114SAPE  H18Y11997   4.925   5.821   4.658 -0.6714 -0.7715  0.2967
  114SAPE  H18Z11998   4.938   5.654   4.590 -0.3314 -0.4557  0.6838
  115SAPE     N11999   0.996   0.172   2.633  0.7629  0.4095 -0.5458
  115SAPE   HN112000   1.060   0.143   2.709  0.6506  1.0955 -0.1789
  115SAPE   HN212001   1.061   0.218   2.565  0.6389 -0.4000 -1.2368
  115SAPE   HN312002   0.928   0.243   2.668  0.3637 -0.0654 -0.3580
  115SAPE   C1212003   0.914   0.062   2.579 -1.0557 -0.1628  0.9461
  115SAPE  H12A12004   0.874   0.093   2.480 -1.0364  1.2525  1.3625
  115SAPE  H12B12005   0.833   0.042   2.652 -2.7596  1.4866 -0.3837
  115SAPE   C1112006   0.996  -0.069   2.554  0.1939  0.4556 -1.1364
  115SAPE  H11A12007   0.926  -0.142   2.509  0.1583  1.8834 -3.5990
  115SAPE  H11B12008   1.043  -0.103   2.649 -0.6070 -0.5212 -1.0765
  115SAPE     P12009   1.211  -0.160   2.420  0.6363  0.1956 -0.2243
  115SAPE   O1312010   1.172  -0.240   2.308  1.3125  0.4370  0.0098
  115SAPE   O1412011   1.341  -0.085   2.417 -0.0353  0.5234 -0.2460
  115SAPE   O1212012   1.096  -0.059   2.452 -0.2326 -0.3603 -0.0167
  115SAPE   O1112013   1.209  -0.255   2.550  0.0189 -0.0498  0.1866
  115SAPE    C112014   1.294  -0.377   2.552 -0.1103  0.3079 -0.6915
  115SAPE    HA12015   1.239  -0.457   2.604 -0.7951  0.3245 -1.3772
  115SAPE    HB12016   1.302  -0.431   2.455  0.3878 -3.1914  1.1452
  115SAPE    C212017   1.436  -0.366   2.629  0.0804  0.9827  0.6187
  115SAPE    HS12018   1.466  -0.465   2.668  1.2978 -0.6263 -3.7664
  115SAPE   O2112019   1.437  -0.266   2.730 -0.2688 -0.1302  0.5329
  115SAPE   C2112020   1.355  -0.296   2.826 -0.4158  0.3804 -0.0271
  115SAPE   O2212021   1.294  -0.402   2.843 -0.5196 -0.2261 -0.1270
  115SAPE   C2212022   1.354  -0.181   2.916  0.2697  0.0659 -0.0200
  115SAPE   H2R12023   1.455  -0.183   2.963  0.4227 -2.4506 -0.3145
  115SAPE   H2S12024   1.340  -0.088   2.857 -0.3186  0.4217  0.6678
  115SAPE    C312025   1.546  -0.336   2.520  0.9500 -0.3059 -0.1012
  115SAPE    HX12026   1.540  -0.241   2.462  2.3684 -0.4590 -0.5482
  115SAPE    HY12027   1.550  -0.425   2.453 -0.5730 -1.0550  0.7665
  115SAPE   O3112028   1.676  -0.342   2.578 -0.1697 -0.1279 -0.3064
  115SAPE   C3112029   1.730  -0.230   2.629 -0.1880 -0.5979  0.4572
  115SAPE   O3212030   1.675  -0.118   2.615  0.1399  0.8793 -0.7782
  115SAPE   C3212031   1.855  -0.253   2.713 -0.0803 -0.2754  0.7482
  115SAPE   H2X12032   1.929  -0.194   2.655 -1.4147 -0.6476 -1.4486
  115SAPE   H2Y12033   1.892  -0.357   2.705 -0.6790 -0.4752  0.4827
  115SAPE   C2312034   1.244  -0.183   3.022 -0.5729 -0.3028 -0.7650
  115SAPE   H3R12035   1.141  -0.214   2.995 -0.4509 -5.1045  2.8027
  115SAPE   H3S12036   1.248  -0.076   3.053 -0.1097 -0.4254 -0.3789
  115SAPE   C2412037   1.271  -0.259   3.156  0.2562 -0.2623  0.7086
  115SAPE   H4R12038   1.287  -0.367   3.136  2.5323  0.4017 -1.5828
  115SAPE   H4S12039   1.180  -0.242   3.217  1.8405  1.8003  2.6860
  115SAPE   C2512040   1.393  -0.214   3.235  0.4025 -0.1653  0.0074
  115SAPE   H5R12041   1.476  -0.167   3.180  0.6881 -0.3453  0.2781
  115SAPE   C2612042   1.414  -0.236   3.364  0.0942 -0.5448  0.4469
  115SAPE   H6R12043   1.504  -0.193   3.410 -0.2554  1.4429 -0.5986
  115SAPE   C2712044   1.326  -0.306   3.461  0.0496 -0.0026 -0.2094
  115SAPE   H7R12045   1.245  -0.360   3.409  0.7469 -0.1382 -1.1785
  115SAPE   H7S12046   1.266  -0.231   3.518 -1.1086  0.4383 -1.9593
  115SAPE   C2812047   1.397  -0.406   3.557 -0.4805 -0.1527  0.9408
  115SAPE   H8R12048   1.446  -0.493   3.512 -0.5715  0.5729 -0.6299
  115SAPE   C2912049   1.373  -0.405   3.693 -0.2116  0.6655 -0.0489
  115SAPE   H9R12050   1.437  -0.467   3.757  1.4681  4.8990  2.8600
  115SAPE  C21012051   1.294  -0.303   3.770 -0.2223  0.5185 -0.1948
  115SAPE  H10R12052   1.264  -0.216   3.708 -2.0256 -0.1362 -0.2893
  115SAPE  H10S12053   1.361  -0.265   3.850  0.9658 -0.9639 -0.4379
  115SAPE  C21112054   1.179  -0.386   3.829 -0.7876  0.6124 -0.3010
  115SAPE  H11R12055   1.098  -0.407   3.757  0.5451 -0.4839 -1.5303
  115SAPE  C21212056   1.178  -0.430   3.956  0.5516 -0.2592 -1.0853
  115SAPE  H12R12057   1.087  -0.479   3.992 -0.3653  1.0847 -1.4835
  115SAPE  C21312058   1.283  -0.391   4.058  0.3674  0.2934 -0.4762
  115SAPE  H13R12059   1.282  -0.281   4.073 -0.6224  0.2661 -0.3238
  115SAPE  H13S12060   1.386  -0.406   4.017  0.0975  0.1250 -1.1041
  115SAPE  C21412061   1.260  -0.469   4.186  0.4082 -0.5679  0.7082
  115SAPE  H14R12062   1.258  -0.575   4.158  0.3006  0.8442 -6.5255
  115SAPE  C21512063   1.213  -0.424   4.304  0.6856 -0.3214 -0.0181
  115SAPE  H15R12064   1.207  -0.503   4.380  1.9945 -1.6465 -1.2422
  115SAPE  C21612065   1.192  -0.281   4.352 -0.2396 -0.5330 -0.6723
  115SAPE  H16R12066   1.258  -0.206   4.302  2.1596 -0.7082  1.9502
  115SAPE  H16S12067   1.198  -0.283   4.463 -1.6878  1.3071 -0.5143
  115SAPE  C21712068   1.053  -0.221   4.318 -0.3381 -0.8342  0.4032
  115SAPE  H17R12069   0.980  -0.292   4.363 -1.8886 -0.7698 -1.8057
  115SAPE  H17S12070   1.025  -0.212   4.210  1.2726  3.8397  0.1753
  115SAPE  C21812071   1.004  -0.090   4.378 -0.3272  0.4128  0.4361
  115SAPE  H18R12072   0.907  -0.072   4.328  0.0654  1.4468  0.0093
  115SAPE  H18S12073   1.060   0.001   4.350 -0.7385  0.2560 -0.9659
  115SAPE  C21912074   0.993  -0.100   4.530 -0.2418  0.0348  0.1527
  115SAPE  H19R12075   1.082  -0.051   4.575 -0.2423 -1.6155  2.0944
  115SAPE  H19S12076   1.001  -0.206   4.562  0.5498  0.2074  0.5397
  115SAPE  C22012077   0.855  -0.051   4.586 -0.2254  0.0697 -0.8498
  115SAPE  H20R12078   0.849   0.059   4.572  1.5949  0.1464 -1.3125
  115SAPE  H20S12079   0.843  -0.067   4.695  0.0070  2.7358 -0.3549
  115SAPE  H20T12080   0.776  -0.101   4.528 -0.1613 -2.5086  1.1118
  115SAPE   C3312081   1.837  -0.208   2.858  0.1073  0.0188  0.3991
  115SAPE   H3X12082   1.799  -0.104   2.860 -1.4187 -0.4952 -0.0783
  115SAPE   H3Y12083   1.939  -0.207   2.901  1.0859 -0.8163 -1.7541
  115SAPE   C3412084   1.750  -0.306   2.934  0.3346 -0.0211  0.1031
  115SAPE   H4X12085   1.790  -0.409   2.926  2.3210  0.7818 -1.0770
  115SAPE   H4Y12086   1.661  -0.311   2.868  0.4761  1.9446 -0.2854
  115SAPE   C3512087   1.736  -0.263   3.073  0.3062 -0.2228 -0.1975
  115SAPE   H5X12088   1.645  -0.316   3.109 -0.4138  1.7854  1.0933
  115SAPE   H5Y12089   1.694  -0.160   3.070  0.2700 -0.2501 -0.8261
  115SAPE   C3612090   1.854  -0.278   3.174  0.4242 -0.4024 -1.2498
  115SAPE   H6X12091   1.939  -0.210   3.149  2.0878 -1.5017  1.0320
  115SAPE   H6Y12092   1.891  -0.383   3.173 -0.6525 -0.8094 -0.2439
  115SAPE   C3712093   1.798  -0.249   3.316 -0.1976  0.4888 -0.0443
  115SAPE   H7X12094   1.711  -0.316   3.331  1.6054 -1.8016  0.9098
  115SAPE   H7Y12095   1.759  -0.146   3.323 -1.2160  0.0998  0.2145
  115SAPE   C3812096   1.904  -0.270   3.427  1.0300 -0.2013  0.1451
  115SAPE   H8X12097   1.991  -0.206   3.402  0.0953  0.0543 -2.7655
  115SAPE   H8Y12098   1.935  -0.376   3.436 -1.6123 -0.9904  1.1022
  115SAPE   C3912099   1.849  -0.220   3.564  0.1673 -0.1202 -0.2804
  115SAPE   H9X12100   1.827  -0.111   3.564  2.0105  0.2756 -1.3847
  115SAPE   H9Y12101   1.931  -0.227   3.638  1.1022  0.5563 -1.2378
  115SAPE  C31012102   1.733  -0.287   3.612  0.9337  0.3080 -0.2438
  115SAPE  H10X12103   1.777  -0.388   3.622 -1.0500 -0.5978 -0.1384
  115SAPE  H10Y12104   1.655  -0.291   3.533  1.1738 -0.8828 -0.4383
  115SAPE  C31112105   1.677  -0.226   3.736 -0.4813 -0.2836 -1.0077
  115SAPE  H11X12106   1.576  -0.264   3.766 -0.1783  1.0521  2.0774
  115SAPE  H11Y12107   1.664  -0.116   3.746 -0.5872 -0.4922  3.9333
  115SAPE  C31212108   1.756  -0.266   3.863 -0.1130  0.7290  0.3441
  115SAPE  H12X12109   1.858  -0.223   3.866 -0.3411  1.2660  0.6691
  115SAPE  H12Y12110   1.756  -0.376   3.872  1.1275  0.8192  1.7635
  115SAPE  C31312111   1.689  -0.225   4.001 -1.1102 -0.1237 -0.5337
  115SAPE  H13X12112   1.580  -0.205   3.991 -1.6635 -2.0740  0.9366
  115SAPE  H13Y12113   1.732  -0.129   4.035  0.6196 -0.8126 -0.6824
  115SAPE  C31412114   1.709  -0.344   4.095  0.0902 -0.0689  0.5807
  115SAPE  H14X12115   1.819  -0.355   4.110  0.3225  2.7176  1.4227
  115SAPE  H14Y12116   1.661  -0.430   4.043 -0.4216  1.7171 -2.1105
  115SAPE  C31512117   1.636  -0.306   4.225 -0.2314 -0.2918  0.0579
  115SAPE  H15X12118   1.528  -0.305   4.198 -0.2145  0.8034 -0.0073
  115SAPE  H15Y12119   1.664  -0.203   4.256 -2.0141 -0.2626  1.7638
  115SAPE  C31612120   1.653  -0.403   4.348 -0.3915  0.0740  0.9673
  115SAPE  H16X12121   1.761  -0.413   4.369 -0.0076  0.2939 -0.7120
  115SAPE  H16Y12122   1.620  -0.505   4.319 -3.6110  1.0015  0.9341
  115SAPE  C31712123   1.571  -0.358   4.475 -0.3700  0.3779  0.7442
  115SAPE  H17X12124   1.468  -0.337   4.440 -0.5722  0.6656  1.4950
  115SAPE  H17Y12125   1.614  -0.264   4.516 -1.6249  1.5262 -0.4616
  115SAPE  C31812126   1.550  -0.464   4.576  0.5007 -0.1652  0.3637
  115SAPE  H18X12127   1.645  -0.509   4.612  0.7765  0.4689  0.4525
  115SAPE  H18Y12128   1.492  -0.547   4.531  1.8328 -1.5856  1.1465
  115SAPE  H18Z12129   1.501  -0.418   4.665 -1.5147  2.2292 -1.7994
  116SAPE     N12130   6.730   2.111   1.840 -0.3652  0.4139  0.6635
  116SAPE   HN112131   6.820   2.062   1.855 -1.3439 -1.2899  1.2072
  116SAPE   HN212132   6.687   2.084   1.749 -0.1662 -1.0321  0.9706
  116SAPE   HN312133   6.731   2.215   1.837  2.2032  0.4200 -1.2264
  116SAPE   C1212134   6.651   2.068   1.954 -0.7315 -0.5435 -0.9854
  116SAPE  H12A12135   6.599   1.974   1.924 -1.4076 -1.0069  1.3771
  116SAPE  H12B12136   6.572   2.143   1.978 -0.5408 -0.2503 -1.2701
  116SAPE   C1112137   6.753   2.058   2.072  0.4120  0.0939 -0.3963
  116SAPE  H11A12138   6.702   2.015   2.161  3.7014 -0.4852  1.3730
  116SAPE  H11B12139   6.809   2.151   2.097 -1.4937  0.9297  1.0922
  116SAPE     P12140   6.845   1.809   2.091  0.1102 -0.0559 -0.1761
  116SAPE   O1312141   6.731   1.757   2.013  0.2968 -0.1016  0.9018
  116SAPE   O1412142   6.976   1.751   2.074 -0.2930 -0.3120  0.0467
  116SAPE   O1212143   6.851   1.958   2.046 -0.0796 -0.1778  0.3744
  116SAPE   O1112144   6.812   1.826   2.242 -0.5068  0.4675  0.0164
  116SAPE    C112145   6.749   1.729   2.335 -0.0123  0.2769 -0.3949
  116SAPE    HA12146   6.736   1.628   2.291 -1.0621  0.3847 -0.3536
  116SAPE    HB12147   6.808   1.713   2.428  0.5430  1.5784 -0.4992
  116SAPE    C212148   6.608   1.789   2.371 -0.4082  0.2173  0.1961
  116SAPE    HS12149   6.573   1.806   2.267  0.5430  0.9880 -0.0180
  116SAPE   O2112150   6.634   1.917   2.433 -0.5241 -0.2688 -0.2081
  116SAPE   C2112151   6.532   2.001   2.436 -0.1350  0.4622  0.1109
  116SAPE   O2212152   6.420   1.979   2.388 -0.0335  0.0173 -1.0620
  116SAPE   C2212153   6.573   2.120   2.516  0.0369 -0.1813 -0.4898
  116SAPE   H2R12154   6.636   2.091   2.602  0.9331 -0.5757 -1.2618
  116SAPE   H2S12155   6.634   2.190   2.455  0.5095 -0.8820 -0.8228
  116SAPE    C312156   6.525   1.693   2.468  0.8562  0.8398  0.6777
  116SAPE    HX12157   6.515   1.600   2.409  0.4770  1.7650 -0.7688
  116SAPE    HY12158   6.422   1.722   2.499  1.3153  0.9294  2.2258
  116SAPE   O3112159   6.600   1.670   2.590 -0.3077  0.0954 -0.0398
  116SAPE   C3112160   6.603   1.752   2.685 -0.1197 -0.0092  0.1148
  116SAPE   O3212161   6.538   1.852   2.700  0.5030 -0.2205 -0.0324
  116SAPE   C3212162   6.715   1.713   2.782  0.4681 -0.4342 -0.8198
  116SAPE   H2X12163   6.802   1.713   2.713  0.5533  1.3282 -0.7536
  116SAPE   H2Y12164   6.685   1.617   2.830  2.0646  0.9855  3.4839
  116SAPE   C2312165   6.457   2.199   2.580  0.5531  0.0186  0.1401
  116SAPE   H3R12166   6.404   2.131   2.649 -0.4814 -1.3170 -1.8703
  116SAPE   H3S12167   6.378   2.225   2.507 -0.5332 -1.6636  0.6838
  116SAPE   C2412168   6.504   2.309   2.671  0.2751 -0.3165  0.2927
  116SAPE   H4R12169   6.543   2.382   2.598  1.1639 -1.8533 -0.8020
  116SAPE   H4S12170   6.592   2.271   2.727 -0.5379 -1.9704  0.5419
  116SAPE   C2512171   6.395   2.366   2.753 -0.2865  0.1389 -0.1194
  116SAPE   H5R12172   6.320   2.403   2.681  1.6337  1.6484 -1.4608
  116SAPE   C2612173   6.384   2.388   2.889 -0.8347 -0.1687 -0.2001
  116SAPE   H6R12174   6.301   2.436   2.943 -0.1976  0.3026  0.3821
  116SAPE   C2712175   6.492   2.346   2.980 -0.7983 -0.0924 -0.3276
  116SAPE   H7R12176   6.475   2.393   3.080  0.7590 -0.5281  0.1693
  116SAPE   H7S12177   6.592   2.384   2.950 -0.7053  1.6480  1.8807
  116SAPE   C2812178   6.504   2.201   3.005 -0.4419  0.9706  0.0437
  116SAPE   H8R12179   6.478   2.146   2.913  0.5494 -0.1872  0.4349
  116SAPE   C2912180   6.538   2.129   3.112  0.3992  0.7325 -0.2043
  116SAPE   H9R12181   6.556   2.022   3.095 -0.3072  0.7912 -1.4757
  116SAPE  C21012182   6.613   2.184   3.229  0.4481 -0.6268 -0.4964
  116SAPE  H10R12183   6.622   2.295   3.238 -0.0772 -0.7370  2.3509
  116SAPE  H10S12184   6.720   2.155   3.221  0.7026 -0.4011  1.4309
  116SAPE  C21112185   6.567   2.128   3.362 -0.2871 -0.0409 -0.3562
  116SAPE  H11R12186   6.605   2.028   3.386 -2.0861 -0.2215  2.0718
  116SAPE  C21212187   6.526   2.200   3.470 -0.4070  0.1563  0.2686
  116SAPE  H12R12188   6.499   2.144   3.560  1.4143  0.4128  1.0151
  116SAPE  C21312189   6.493   2.345   3.463  0.1941 -0.1767  0.4096
  116SAPE  H13R12190   6.449   2.364   3.363  1.6273  2.7625  0.2137
  116SAPE  H13S12191   6.582   2.411   3.473  0.3729 -0.4439  0.5956
  116SAPE  C21412192   6.392   2.375   3.577  0.2580 -0.7686 -0.7636
  116SAPE  H14R12193   6.288   2.344   3.557  0.2053 -1.1249  0.0072
  116SAPE  C21512194   6.418   2.434   3.692  0.2911  0.1226  0.7446
  116SAPE  H15R12195   6.338   2.431   3.767  0.3143  1.6325  0.8623
  116SAPE  C21612196   6.552   2.481   3.729 -0.6837 -0.0546 -0.3105
  116SAPE  H16R12197   6.544   2.568   3.798  3.2928 -2.1675  3.3680
  116SAPE  H16S12198   6.618   2.509   3.644  1.4369  0.5671  1.4438
  116SAPE  C21712199   6.649   2.384   3.793  0.1912 -0.0875  1.3635
  116SAPE  H17R12200   6.748   2.433   3.791 -1.1507  2.8662 -1.2374
  116SAPE  H17S12201   6.654   2.286   3.742  1.1626  1.4919 -1.8438
  116SAPE  C21812202   6.607   2.358   3.943  0.2019  0.1532  0.1316
  116SAPE  H18R12203   6.674   2.281   3.988  0.4328  0.0736 -0.3397
  116SAPE  H18S12204   6.502   2.322   3.950 -0.6130  2.1842 -0.8188
  116SAPE  C21912205   6.625   2.483   4.030  0.2789  0.2009 -0.0742
  116SAPE  H19R12206   6.559   2.569   4.007 -1.9204 -1.3378  0.1543
  116SAPE  H19S12207   6.735   2.496   4.036  0.2708 -0.1584  0.9704
  116SAPE  C22012208   6.585   2.462   4.176  0.1738 -0.0799 -0.7902
  116SAPE  H20R12209   6.578   2.562   4.223 -0.0297  1.3839 -3.6600
  116SAPE  H20S12210   6.667   2.405   4.224  0.1460  0.4407 -0.1135
  116SAPE  H20T12211   6.493   2.406   4.204 -0.4306  1.7159  0.9570
  116SAPE   C3312212   6.730   1.810   2.900 -0.0838  0.3049  0.2380
  116SAPE   H3X12213   6.640   1.823   2.964  1.7618 -0.2660  3.1274
  116SAPE   H3Y12214   6.755   1.910   2.859 -4.0446  0.5234 -2.1663
  116SAPE   C3412215   6.838   1.753   2.994 -0.8156 -0.0158 -0.1200
  116SAPE   H4X12216   6.922   1.739   2.922 -0.4991  2.1388 -0.2312
  116SAPE   H4Y12217   6.820   1.656   3.045  0.2199  1.4236  3.2569
  116SAPE   C3512218   6.873   1.843   3.112  0.9777 -0.3742 -0.4644
  116SAPE   H5X12219   6.783   1.898   3.146  0.2592 -1.0340 -1.2740
  116SAPE   H5Y12220   6.948   1.917   3.075  1.8601 -1.3619 -0.7016
  116SAPE   C3612221   6.918   1.756   3.240  0.4494 -0.9484  0.1768
  116SAPE   H6X12222   6.990   1.681   3.199  0.2353  0.0086 -2.0784
  116SAPE   H6Y12223   6.830   1.703   3.283 -0.6624  1.0103  0.3936
  116SAPE   C3712224   6.990   1.849   3.347  0.0241 -0.0985  0.0160
  116SAPE   H7X12225   6.928   1.939   3.368 -0.9067 -0.9204  0.9032
  116SAPE   H7Y12226   7.085   1.890   3.306  0.0653  1.6684  1.6911
  116SAPE   C3812227   7.010   1.779   3.482  0.7546  0.3958  0.0299
  116SAPE   H8X12228   7.073   1.689   3.465 -1.3075 -1.1818  0.3377
  116SAPE   H8Y12229   6.909   1.747   3.515  0.9587 -0.5403 -0.2148
  116SAPE   C3912230   7.083   1.866   3.587  0.4792  0.5854  0.2566
  116SAPE   H9X12231   7.019   1.956   3.596  0.0332  0.3877 -0.7804
  116SAPE   H9Y12232   7.186   1.899   3.563  0.8563  1.9413  3.3267
  116SAPE  C31012233   7.092   1.798   3.726  0.9034  0.9638  0.9262
  116SAPE  H10X12234   7.164   1.714   3.720  0.4439  0.6849 -1.9032
  116SAPE  H10Y12235   6.989   1.775   3.761  0.4004  1.6338 -0.0778
  116SAPE  C31112236   7.150   1.889   3.828 -0.0670  0.2447 -0.0762
  116SAPE  H11X12237   7.142   1.839   3.927  1.5624  0.3841  0.1631
  116SAPE  H11Y12238   7.093   1.984   3.825  1.3828  1.1446  0.0235
  116SAPE  C31212239   7.303   1.901   3.811 -0.0007  0.2416  0.2344
  116SAPE  H12X12240   7.316   1.947   3.710 -1.8143 -1.7258 -0.9755
  116SAPE  H12Y12241   7.335   1.795   3.799 -1.5945 -0.1470 -0.8881
  116SAPE  C31312242   7.380   1.967   3.921 -0.6067  0.4153  0.0348
  116SAPE  H13X12243   7.374   1.925   4.024  0.2809  0.4964  0.1289
  116SAPE  H13Y12244   7.341   2.071   3.916 -0.0492  0.6065 -0.5700
  116SAPE  C31412245   7.523   2.000   3.875  0.3312 -0.3311 -0.3006
  116SAPE  H14X12246   7.517   2.053   3.778  0.0083  1.5685  0.7126
  116SAPE  H14Y12247   7.562   1.898   3.855  1.2258  0.1792 -1.2784
  116SAPE  C31512248   7.597   2.086   3.970 -0.1171  0.0259 -0.4562
  116SAPE  H15X12249   7.537   2.179   3.975  0.9633  0.6844  1.9724
  116SAPE  H15Y12250   7.704   2.104   3.947  1.0791 -3.8507  1.1355
  116SAPE  C31612251   7.605   2.043   4.119  0.2348  0.3348  0.0040
  116SAPE  H16X12252   7.624   1.933   4.116 -0.8604  0.1458 -1.5368
  116SAPE  H16Y12253   7.508   2.043   4.173  1.1574 -0.9972  1.7525
  116SAPE  C31712254   7.703   2.124   4.212 -0.3772 -0.1023 -0.0754
  116SAPE  H17X12255   7.669   2.229   4.219 -0.7196 -0.2720  1.0341
  116SAPE  H17Y12256   7.808   2.120   4.176  0.3751  4.4654  0.9712
  116SAPE  C31812257   7.710   2.064   4.351 -0.9189 -0.6592 -0.3160
  116SAPE  H18X12258   7.789   2.115   4.410 -1.2684  0.3781 -0.7196
  116SAPE  H18Y12259   7.741   1.957   4.346 -2.5061 -1.2449  1.2747
  116SAPE  H18Z12260   7.608   2.067   4.393 -0.6426 -0.6173  0.3682
  117SOPE     N12261   4.546   3.198   6.666 -0.3985  0.3600  0.2855
  117SOPE   HN112262   4.545   3.158   6.762 -1.9324  2.0582  1.0155
  117SOPE   HN212263   4.498   3.290   6.671 -2.7087 -0.8037  1.4402
  117SOPE   HN312264   4.486   3.143   6.601  0.7641  0.2204 -0.7157
  117SOPE   C1212265   4.684   3.212   6.615 -0.3058 -0.3028  0.9874
  117SOPE  H12A12266   4.718   3.107   6.601 -2.6586 -0.9271 -0.6116
  117SOPE  H12B12267   4.752   3.264   6.686 -0.8079  0.8342  0.6488
  117SOPE   C1112268   4.692   3.289   6.482  0.1019  0.8185 -0.4093
  117SOPE  H11A12269   4.798   3.299   6.451  0.1801  0.4784 -0.2504
  117SOPE  H11B12270   4.670   3.395   6.510  0.1840  0.7327 -0.0036
  117SOPE     P12271   4.639   3.201   6.239 -0.1386  0.2716 -0.0849
  117SOPE   O1312272   4.518   3.133   6.185 -0.6491 -0.3859  0.1186
  117SOPE   O1412273   4.761   3.118   6.240 -0.1428  0.1837  0.9396
  117SOPE   O1212274   4.600   3.234   6.387  0.0104  0.5341  0.0247
  117SOPE   O1112275   4.660   3.348   6.180  0.0802  0.0943 -0.3060
  117SOPE    C112276   4.769   3.386   6.092 -0.1505  0.6278  0.4464
  117SOPE    HA12277   4.752   3.355   5.987 -1.7343  0.6393  0.6791
  117SOPE    HB12278   4.859   3.324   6.116  0.1488  1.1193  0.6065
  117SOPE    C212279   4.817   3.528   6.109 -0.0898 -0.1850  0.5936
  117SOPE    HS12280   4.822   3.538   6.220 -2.8934 -1.2851  0.8901
  117SOPE   O2112281   4.707   3.606   6.056  0.0638  0.1234  0.5740
  117SOPE   C2112282   4.709   3.724   6.097 -0.8641  0.9183  0.5048
  117SOPE   O2212283   4.793   3.775   6.166  0.2607 -0.2770  0.2466
  117SOPE   C2212284   4.585   3.799   6.051  0.3559 -0.2175 -0.3510
  117SOPE   H2R12285   4.582   3.879   6.128  0.7695 -1.6349  1.2064
  117SOPE   H2S12286   4.501   3.728   6.063  0.5222 -0.2932  0.4630
  117SOPE    C312287   4.953   3.559   6.040 -0.1255 -0.6491 -0.0976
  117SOPE    HX12288   5.029   3.489   6.081  2.8568  3.0052  1.1795
  117SOPE    HY12289   4.995   3.654   6.079 -1.8313  0.0255  0.1985
  117SOPE   O3112290   4.956   3.563   5.897  0.0482 -0.3794  0.6769
  117SOPE   C3112291   5.007   3.461   5.831  0.3508  0.1853  0.5843
  117SOPE   O3212292   5.066   3.366   5.879  0.4378 -0.1380 -0.5407
  117SOPE   C3212293   4.994   3.502   5.686  0.0439  0.3684  0.8287
  117SOPE   H2X12294   5.077   3.573   5.665 -1.3865  1.7314 -0.4823
  117SOPE   H2Y12295   4.899   3.554   5.664  0.2978  0.0422 -1.3620
  117SOPE   C2312296   4.596   3.853   5.909  0.1198 -0.5833 -0.5607
  117SOPE   H3R12297   4.694   3.903   5.896 -0.6004  1.6889  1.8340
  117SOPE   H3S12298   4.516   3.926   5.886  0.0986 -0.7304 -0.9562
  117SOPE   C2412299   4.579   3.744   5.800 -0.4371  0.2659  0.1323
  117SOPE   H4R12300   4.647   3.657   5.813  1.0826  1.3868 -0.0451
  117SOPE   H4S12301   4.474   3.707   5.799 -0.2742 -0.4683  2.5962
  117SOPE   C2512302   4.613   3.797   5.659 -0.1833  0.2676 -0.4475
  117SOPE   H5R12303   4.552   3.884   5.627  2.1251  1.3395 -2.2698
  117SOPE   H5S12304   4.716   3.835   5.680 -0.8655  0.5239  3.0685
  117SOPE   C2612305   4.606   3.688   5.555  0.0944 -0.4255 -0.1492
  117SOPE   H6R12306   4.645   3.595   5.602 -0.8978 -1.2829 -0.9813
  117SOPE   H6S12307   4.496   3.678   5.543 -0.4263  2.8948  0.8318
  117SOPE   C2712308   4.686   3.724   5.426 -0.3332 -0.3636  0.5744
  117SOPE   H7R12309   4.625   3.791   5.363  0.9507  2.0177  1.7548
  117SOPE   H7S12310   4.775   3.782   5.457 -0.6324  1.1660 -1.2852
  117SOPE   C2812311   4.730   3.603   5.342  0.0506 -0.9349 -0.0767
  117SOPE   H8R12312   4.818   3.561   5.396 -0.2290 -0.4262  0.7888
  117SOPE   H8S12313   4.639   3.539   5.349 -1.1463  0.7873  0.8458
  117SOPE   C2912314   4.761   3.656   5.197  0.0381  0.0618  0.0026
  117SOPE   H9112315   4.694   3.734   5.160 -0.4727  0.4170  1.6044
  117SOPE  C21012316   4.876   3.636   5.134  0.0660 -0.0269  0.3118
  117SOPE  H10112317   4.886   3.674   5.032  2.1778  1.4345  1.0051
  117SOPE  C21112318   4.986   3.540   5.170  0.1670 -0.0980  0.0105
  117SOPE  H11R12319   4.981   3.501   5.274  1.4213  0.2054  0.2046
  117SOPE  H11S12320   5.077   3.604   5.162  0.9965 -1.4166 -1.4530
  117SOPE  C21212321   5.007   3.411   5.086  0.3249  0.0516  0.5088
  117SOPE  H12R12322   4.908   3.361   5.078  0.1936  0.2528  0.8437
  117SOPE  H12S12323   5.076   3.340   5.137  2.9183  1.8096 -0.3471
  117SOPE  C21312324   5.060   3.444   4.945 -0.8654 -0.3496 -0.5839
  117SOPE  H13R12325   4.999   3.530   4.910 -0.2684  0.4593  0.3147
  117SOPE  H13S12326   5.042   3.360   4.874  0.0214 -1.1745  0.1453
  117SOPE  C21412327   5.212   3.479   4.946 -0.6940  0.4587 -0.4971
  117SOPE  H14R12328   5.251   3.404   5.018  1.7584  1.2506 -0.8952
  117SOPE  H14S12329   5.240   3.579   4.984 -2.3950  0.4787  0.8206
  117SOPE  C21512330   5.281   3.463   4.815  0.0726 -0.3287 -0.4298
  117SOPE  H15R12331   5.214   3.430   4.732  1.8230 -1.2353 -1.5404
  117SOPE  H15S12332   5.369   3.397   4.824  0.2861 -0.1461 -1.0651
  117SOPE  C21612333   5.339   3.600   4.768 -0.0573  0.7272  0.1302
  117SOPE  H16R12334   5.411   3.631   4.847 -1.3449 -0.8327  2.0370
  117SOPE  H16S12335   5.254   3.670   4.754  0.3057  0.9722 -0.9341
  117SOPE  C21712336   5.415   3.584   4.638  0.2175 -0.2721 -0.8457
  117SOPE  H17R12337   5.369   3.503   4.579  1.9316 -2.2995  0.4473
  117SOPE  H17S12338   5.519   3.549   4.659  0.0754 -0.1713  0.0916
  117SOPE  C21812339   5.414   3.711   4.554 -0.2131  0.0564 -0.2380
  117SOPE  H18R12340   5.311   3.734   4.520 -0.3218  2.3160  1.3808
  117SOPE  H18S12341   5.471   3.684   4.463  0.8739 -1.6681  0.9140
  117SOPE  H18T12342   5.453   3.801   4.606 -0.9655  1.1905 -1.5741
  117SOPE   C3312343   4.989   3.377   5.593  0.9681  0.7849  0.3779
  117SOPE   H3X12344   5.081   3.321   5.622  0.1831  0.0820  1.6063
  117SOPE   H3Y12345   4.986   3.412   5.488  0.9081 -0.3302 -0.0012
  117SOPE   C3412346   4.859   3.294   5.625 -0.8158 -0.4530 -0.4541
  117SOPE   H4X12347   4.764   3.351   5.635 -0.7540 -0.2993 -0.7369
  117SOPE   H4Y12348   4.878   3.240   5.720 -1.6014 -0.5736 -0.3533
  117SOPE   C3512349   4.839   3.189   5.515 -0.1775  0.0223  0.2372
  117SOPE   H5X12350   4.795   3.102   5.569  0.2929  0.8578  2.0204
  117SOPE   H5Y12351   4.938   3.154   5.480  0.1236  1.9653 -0.9900
  117SOPE   C3612352   4.750   3.227   5.397  0.0133 -0.1096 -0.0777
  117SOPE   H6X12353   4.790   3.321   5.354  4.4149 -1.0123  1.4255
  117SOPE   H6Y12354   4.643   3.237   5.422 -0.7107  1.0625 -3.2325
  117SOPE   C3712355   4.756   3.123   5.289  1.1737  0.0703  0.4221
  117SOPE   H7X12356   4.715   3.023   5.318  0.7306  0.3710  0.8614
  117SOPE   H7Y12357   4.851   3.110   5.233  0.3467  1.4690 -1.4177
  117SOPE   C3812358   4.673   3.159   5.163  0.1688  0.3672  0.2003
  117SOPE   H8X12359   4.724   3.250   5.125  2.6401  0.6728  3.7934
  117SOPE   H8Y12360   4.565   3.173   5.186 -0.0391  0.8213 -0.9807
  117SOPE   C3912361   4.684   3.050   5.048 -0.3234 -1.0577  0.5413
  117SOPE   H9X12362   4.645   2.958   5.097  3.6792 -2.2530  1.8288
  117SOPE   H9Y12363   4.789   3.034   5.014  0.4775 -1.1120  2.9035
  117SOPE  C31012364   4.598   3.080   4.926  0.4670 -0.3676 -0.1216
  117SOPE  H10X12365   4.637   3.173   4.878  1.2658 -0.9842 -0.6972
  117SOPE  H10Y12366   4.496   3.102   4.966  0.6747  3.6058 -1.2769
  117SOPE  C31112367   4.597   2.967   4.819 -0.3561  0.6120 -0.3383
  117SOPE  H11X12368   4.573   2.870   4.867 -0.1555  0.5426 -0.3769
  117SOPE  H11Y12369   4.701   2.943   4.789  0.2144  0.2137  1.8213
  117SOPE  C31212370   4.498   3.000   4.703 -0.6900  0.2741 -0.8096
  117SOPE  H12X12371   4.512   3.104   4.668 -0.6971  0.2189 -0.9767
  117SOPE  H12Y12372   4.394   2.987   4.740 -0.4332 -5.0354 -1.1240
  117SOPE  C31312373   4.518   2.901   4.590 -0.1052  0.1024  0.2412
  117SOPE  H13X12374   4.617   2.914   4.544 -0.2669  0.3462 -0.0412
  117SOPE  H13Y12375   4.443   2.935   4.515  0.6664  0.0545 -0.5562
  117SOPE  C31412376   4.500   2.750   4.613  0.3780  0.0105  0.4662
  117SOPE  H14X12377   4.415   2.753   4.684 -0.5740  1.5563 -0.6585
  117SOPE  H14Y12378   4.585   2.705   4.668  1.0005  1.3489  0.6490
  117SOPE  C31512379   4.462   2.662   4.488 -0.1651  0.9003  0.0023
  117SOPE  H15X12380   4.412   2.731   4.416  0.3561 -0.7624 -2.0582
  117SOPE  H15Y12381   4.393   2.582   4.524 -1.9731  1.6974 -1.4988
  117SOPE  C31612382   4.591   2.607   4.419 -0.1601  0.0538  0.6087
  117SOPE  H16X12383   4.647   2.532   4.478  0.3651  0.4759  0.6529
  117SOPE  H16Y12384   4.670   2.682   4.402  1.7471 -1.8167  0.7937
  117SOPE  C31712385   4.569   2.544   4.281  0.2971  0.8342 -0.6920
  117SOPE  H17X12386   4.662   2.493   4.248  2.2688  2.1201  2.4647
  117SOPE  H17Y12387   4.529   2.618   4.208 -1.2398  1.0566  0.3287
  117SOPE  C31812388   4.465   2.434   4.305  0.0366  0.3696 -0.3444
  117SOPE  H18X12389   4.498   2.367   4.387 -0.8542 -2.6744 -2.2911
  117SOPE  H18Y12390   4.458   2.360   4.222 -2.5872 -0.2497  0.3405
  117SOPE  H18Z12391   4.363   2.471   4.329 -0.8257 -2.8881  1.6267
  118SOPE     N12392   6.325   0.567   7.391  0.6439 -0.3372  0.1268
  118SOPE   HN112393   6.383   0.566   7.477 -0.5972  2.4720  1.1199
  118SOPE   HN212394   6.287   0.664   7.386 -0.0473 -0.5994  0.2138
  118SOPE   HN312395   6.245   0.502   7.407 -0.0271  0.2451 -0.7657
  118SOPE   C1212396   6.405   0.540   7.273 -0.5409 -0.1496 -0.4550
  118SOPE  H12A12397   6.414   0.430   7.260  2.8103  0.0032 -0.2501
  118SOPE  H12B12398   6.508   0.577   7.290 -0.3210 -0.5378 -0.9140
  118SOPE   C1112399   6.346   0.599   7.144 -0.1578 -0.6083  0.0518
  118SOPE  H11A12400   6.250   0.548   7.123 -0.1391 -0.7063  0.2017
  118SOPE  H11B12401   6.422   0.558   7.074 -2.5757 -1.1058 -2.4606
  118SOPE     P12402   6.450   0.825   7.052  0.1050 -0.1648 -0.3895
  118SOPE   O1312403   6.591   0.786   7.085 -0.4294 -0.1956  0.3181
  118SOPE   O1412404   6.418   0.967   7.057 -0.2690  0.0452  0.4020
  118SOPE   O1212405   6.351   0.747   7.149  0.1900  0.1511 -0.2049
  118SOPE   O1112406   6.400   0.763   6.912  0.2840  0.1183  0.2163
  118SOPE    C112407   6.280   0.805   6.847 -0.6890 -0.0050  0.7715
  118SOPE    HA12408   6.300   0.879   6.768 -0.7021 -0.0749  0.7030
  118SOPE    HB12409   6.210   0.843   6.924 -1.8869 -0.6910  0.0448
  118SOPE    C212410   6.216   0.673   6.782 -0.7954  0.1882 -0.9147
  118SOPE    HS12411   6.181   0.608   6.864 -0.2633  1.4066  0.3165
  118SOPE   O2112412   6.308   0.595   6.703  0.1812 -0.5329 -0.3551
  118SOPE   C2112413   6.281   0.472   6.664  0.2488  0.0332  0.1236
  118SOPE   O2212414   6.190   0.405   6.707  0.6775 -0.0624 -0.3998
  118SOPE   C2212415   6.380   0.412   6.563 -0.0338 -0.3661 -0.6973
  118SOPE   H2R12416   6.453   0.355   6.625 -0.4830 -0.7022 -0.4725
  118SOPE   H2S12417   6.436   0.491   6.508 -0.8446  0.4066 -0.4297
  118SOPE    C312418   6.085   0.707   6.699  0.0784 -0.5538 -0.1022
  118SOPE    HX12419   6.022   0.759   6.774  1.1017  0.6540 -0.0540
  118SOPE    HY12420   6.044   0.608   6.668  0.3235 -0.5196 -0.5444
  118SOPE   O3112421   6.111   0.799   6.593 -0.5631 -0.3740  0.2553
  118SOPE   C3112422   6.133   0.747   6.472  0.1499 -0.1126  0.2978
  118SOPE   O3212423   6.139   0.629   6.441 -0.0792  0.0862 -0.0716
  118SOPE   C3212424   6.136   0.859   6.364 -0.7123 -0.3198 -0.2524
  118SOPE   H2X12425   6.194   0.945   6.404  0.8557 -0.3092 -2.3866
  118SOPE   H2Y12426   6.034   0.898   6.342  0.3669  0.6900 -4.3803
  118SOPE   C2312427   6.306   0.316   6.464  0.2116  0.6258 -0.7142
  118SOPE   H3R12428   6.210   0.355   6.426 -0.6783  0.1526  0.9675
  118SOPE   H3S12429   6.285   0.217   6.510  0.5183  0.6538 -0.5101
  118SOPE   C2412430   6.402   0.295   6.350 -0.0665  0.1160 -0.3299
  118SOPE   H4R12431   6.501   0.269   6.393  0.1686  1.0791 -0.2719
  118SOPE   H4S12432   6.368   0.201   6.302 -1.2590 -0.5964  1.7618
  118SOPE   C2512433   6.404   0.415   6.256 -0.4263 -0.0825  0.4857
  118SOPE   H5R12434   6.307   0.427   6.202  0.4355 -1.8505 -1.6027
  118SOPE   H5S12435   6.433   0.511   6.303  0.9588  2.4626 -4.8593
  118SOPE   C2612436   6.512   0.394   6.153 -0.1038  0.4194  0.1021
  118SOPE   H6R12437   6.529   0.489   6.098  1.8164 -0.8039 -1.5679
  118SOPE   H6S12438   6.609   0.368   6.202 -0.6801  1.1385  1.6753
  118SOPE   C2712439   6.466   0.282   6.058 -0.1734 -0.4452 -0.0612
  118SOPE   H7R12440   6.477   0.186   6.114 -2.9119 -0.5619  0.4028
  118SOPE   H7S12441   6.363   0.302   6.024 -0.0142  1.4965  0.4946
  118SOPE   C2812442   6.555   0.268   5.934 -0.1841  0.7712 -0.4397
  118SOPE   H8R12443   6.664   0.275   5.955 -0.6888  1.2966  2.3600
  118SOPE   H8S12444   6.539   0.173   5.878  1.0591  0.7657 -0.8112
  118SOPE   C2912445   6.517   0.382   5.840  0.1112  0.0266 -0.2729
  118SOPE   H9112446   6.453   0.459   5.884  2.8114  2.0248  0.3902
  118SOPE  C21012447   6.580   0.403   5.722 -0.1333  0.2089  0.1970
  118SOPE  H10112448   6.565   0.490   5.657  3.5504  0.0411 -1.1207
  118SOPE  C21112449   6.699   0.318   5.672  1.1458 -0.4087 -0.0723
  118SOPE  H11R12450   6.711   0.231   5.740 -2.0507 -0.0763  1.0792
  118SOPE  H11S12451   6.797   0.369   5.669  0.8497  0.1365 -0.8179
  118SOPE  C21212452   6.674   0.251   5.538  0.2446  0.6122  0.3588
  118SOPE  H12R12453   6.584   0.185   5.540  0.9568 -0.3845  0.2256
  118SOPE  H12S12454   6.764   0.188   5.523  1.8239  2.7455  0.4172
  118SOPE  C21312455   6.672   0.340   5.418 -0.1303 -0.7628 -0.5256
  118SOPE  H13R12456   6.765   0.401   5.425 -1.1238  0.9033 -1.1170
  118SOPE  H13S12457   6.591   0.416   5.427  0.4011 -0.1567 -0.7688
  118SOPE  C21412458   6.641   0.272   5.288  0.0572  0.3001  0.5142
  118SOPE  H14R12459   6.554   0.207   5.314  1.5860 -0.7052  3.6521
  118SOPE  H14S12460   6.725   0.202   5.265 -0.8670 -0.4065 -0.8314
  118SOPE  C21512461   6.605   0.361   5.172  0.2933 -0.2263 -0.4019
  118SOPE  H15R12462   6.696   0.424   5.176  0.3918 -0.4136  1.0970
  118SOPE  H15S12463   6.524   0.429   5.205  0.0546 -0.7359  0.0884
  118SOPE  C21612464   6.578   0.297   5.037 -0.1951 -0.3739  0.5205
  118SOPE  H16R12465   6.674   0.275   4.985 -1.1360  2.5294 -2.9361
  118SOPE  H16S12466   6.520   0.365   4.970 -1.3003 -0.8623  0.9753
  118SOPE  C21712467   6.488   0.174   5.031 -0.0687 -0.1878  0.2633
  118SOPE  H17R12468   6.388   0.208   5.065 -0.0437  0.6421 -0.4615
  118SOPE  H17S12469   6.532   0.099   5.100  0.2244  1.9708  2.5699
  118SOPE  C21812470   6.454   0.116   4.893  0.6346 -0.4235 -0.1432
  118SOPE  H18R12471   6.397   0.021   4.896 -0.0590 -0.1912 -2.7842
  118SOPE  H18S12472   6.546   0.101   4.832 -0.2586  2.4468 -2.4083
  118SOPE  H18T12473   6.397   0.184   4.825  0.8581 -2.4893 -2.5691
  118SOPE   C3312474   6.185   0.802   6.231  0.3558 -0.0631  0.0529
  118SOPE   H3X12475   6.257   0.718   6.246 -1.0978 -1.5959 -1.2719
  118SOPE   H3Y12476   6.243   0.881   6.180  3.2279 -0.7976  1.9087
  118SOPE   C3412477   6.074   0.758   6.133  0.5217  0.0324 -0.4288
  118SOPE   H4X12478   5.985   0.822   6.145  0.9636  0.2871  1.7734
  118SOPE   H4Y12479   6.058   0.648   6.142  3.3716 -0.3869  0.6521
  118SOPE   C3512480   6.102   0.777   5.980 -0.4946  0.3755 -0.3115
  118SOPE   H5X12481   6.185   0.714   5.941  1.4705  2.5561  0.1116
  118SOPE   H5Y12482   6.147   0.878   5.970 -1.6414  0.8581 -0.7255
  118SOPE   C3612483   5.986   0.746   5.886 -0.3121 -0.8213  0.3095
  118SOPE   H6X12484   5.898   0.806   5.918  1.8119  2.6446  0.1734
  118SOPE   H6Y12485   5.946   0.646   5.913 -0.4319 -0.4497  1.5833
  118SOPE   C3712486   6.017   0.767   5.740  0.4108 -0.2401 -0.4919
  118SOPE   H7X12487   6.111   0.720   5.704 -1.0014 -1.3178 -3.0783
  118SOPE   H7Y12488   6.012   0.875   5.714 -2.5998  0.5022  2.4747
  118SOPE   C3812489   5.905   0.709   5.644 -0.3783  1.0852 -0.3096
  118SOPE   H8X12490   5.803   0.749   5.661 -0.2214  1.7732 -0.9376
  118SOPE   H8Y12491   5.898   0.599   5.662 -1.8654  1.2805  0.4689
  118SOPE   C3912492   5.951   0.718   5.493  0.2122  0.3681 -0.2730
  118SOPE   H9X12493   5.966   0.615   5.453  0.9134  0.9101 -1.4818
  118SOPE   H9Y12494   6.050   0.762   5.468  1.3396 -0.3142  2.5499
  118SOPE  C31012495   5.835   0.766   5.407  0.2647 -0.4242 -0.4110
  118SOPE  H10X12496   5.815   0.874   5.423 -2.4057 -1.0140  0.7022
  118SOPE  H10Y12497   5.739   0.721   5.438  0.3278 -0.2476  0.0458
  118SOPE  C31112498   5.863   0.757   5.258 -0.1937 -0.3206  0.0632
  118SOPE  H11X12499   5.877   0.651   5.227 -2.8911 -1.1740  1.4374
  118SOPE  H11Y12500   5.962   0.804   5.240 -0.3265  1.3652  3.1266
  118SOPE  C31212501   5.761   0.812   5.159  0.1796 -0.1967 -0.4156
  118SOPE  H12X12502   5.728   0.914   5.185 -1.5861  0.0425 -3.2088
  118SOPE  H12Y12503   5.668   0.751   5.160  0.4336 -0.5869 -0.3079
  118SOPE  C31312504   5.810   0.807   5.012  0.0795 -0.1850  0.5008
  118SOPE  H13X12505   5.834   0.700   4.994 -0.5389 -0.4709  1.3206
  118SOPE  H13Y12506   5.899   0.871   4.996 -1.4057  2.2287  1.3443
  118SOPE  C31412507   5.711   0.846   4.898 -0.4481 -0.1958 -0.5774
  118SOPE  H14X12508   5.701   0.957   4.901 -0.1555 -0.1909  0.4887
  118SOPE  H14Y12509   5.610   0.801   4.909  0.4046 -2.0008  0.3808
  118SOPE  C31512510   5.764   0.792   4.761 -0.0419 -0.3020  1.0944
  118SOPE  H15X12511   5.732   0.688   4.740  0.3311  0.3483 -3.8937
  118SOPE  H15Y12512   5.875   0.791   4.762  0.0017  1.3521  0.9556
  118SOPE  C31612513   5.714   0.859   4.622 -0.4856  0.6055  0.2468
  118SOPE  H16X12514   5.775   0.835   4.532  0.9863  1.4055  1.0095
  118SOPE  H16Y12515   5.730   0.966   4.643 -0.2915  1.0647 -1.9526
  118SOPE  C31712516   5.562   0.848   4.587  0.3166 -0.3874  0.3167
  118SOPE  H17X12517   5.513   0.889   4.678  2.1359 -1.8051  2.0467
  118SOPE  H17Y12518   5.548   0.739   4.573  1.0790 -0.2268 -2.1352
  118SOPE  C31812519   5.525   0.929   4.463  0.1054 -0.3461 -0.3903
  118SOPE  H18X12520   5.559   0.878   4.370  1.5582  0.2703 -0.2253
  118SOPE  H18Y12521   5.554   1.037   4.466 -1.3634  0.1827 -2.5871
  118SOPE  H18Z12522   5.415   0.932   4.455 -0.0158 -1.0347  0.8678
  119SOPE     N12523   1.453   0.978   6.838  0.5316 -0.3167  0.0642
  119SOPE   HN112524   1.546   1.024   6.829 -0.4438  1.9006  0.6800
  119SOPE   HN212525   1.386   1.040   6.887  1.2917  0.8953 -0.3765
  119SOPE   HN312526   1.459   0.888   6.891 -1.1102 -0.3591  0.2207
  119SOPE   C1212527   1.400   0.954   6.699 -0.1914  0.4849  0.4202
  119SOPE  H12A12528   1.401   1.052   6.647  2.4026  0.2892 -0.0336
  119SOPE  H12B12529   1.293   0.924   6.702 -0.9324  2.8138 -0.5487
  119SOPE   C1112530   1.483   0.853   6.616 -0.3112 -0.5524 -0.1793
  119SOPE  H11A12531   1.575   0.905   6.582 -0.1393 -0.6355  0.1682
  119SOPE  H11B12532   1.420   0.830   6.527 -1.6587  2.0496 -0.0076
  119SOPE     P12533   1.594   0.612   6.663  0.1896  0.8638 -0.0131
  119SOPE   O1312534   1.510   0.492   6.699 -0.4081 -0.5284 -0.0664
  119SOPE   O1412535   1.727   0.618   6.733  0.4804 -0.5931  0.7446
  119SOPE   O1212536   1.504   0.740   6.710 -0.6074  0.0437  0.0685
  119SOPE   O1112537   1.609   0.624   6.505 -0.2232 -0.0720 -0.0995
  119SOPE    C112538   1.734   0.646   6.448  0.2993 -0.5051 -0.1454
  119SOPE    HA12539   1.823   0.640   6.514  1.7309 -0.2029 -1.9932
  119SOPE    HB12540   1.729   0.746   6.400 -2.5324  0.5608  2.0711
  119SOPE    C212541   1.768   0.543   6.339 -0.3436 -0.4317  0.0220
  119SOPE    HS12542   1.865   0.574   6.293  0.1807 -1.8009  0.1429
  119SOPE   O2112543   1.663   0.526   6.244 -0.0980 -0.2104 -0.2490
  119SOPE   C2112544   1.658   0.615   6.146 -0.5677 -0.7678 -1.0990
  119SOPE   O2212545   1.716   0.722   6.149 -0.1771  0.7708  1.0501
  119SOPE   C2212546   1.562   0.572   6.031 -0.0311  0.1060 -0.3926
  119SOPE   H2R12547   1.465   0.580   6.083  0.1128 -1.3009  0.1527
  119SOPE   H2S12548   1.597   0.467   6.018  0.1063  0.1731 -0.5723
  119SOPE    C312549   1.789   0.410   6.417 -0.1705 -0.2814  0.0984
  119SOPE    HX12550   1.689   0.398   6.465 -0.5375  1.6528 -0.0776
  119SOPE    HY12551   1.861   0.428   6.500 -2.2870 -1.0582  2.2122
  119SOPE   O3112552   1.828   0.304   6.331  0.5116  0.4430  0.1140
  119SOPE   C3112553   1.727   0.227   6.279 -0.0760 -0.0472  0.0666
  119SOPE   O3212554   1.607   0.245   6.301 -0.0727 -0.3012 -0.3682
  119SOPE   C3212555   1.785   0.104   6.217  0.2877  0.3534  0.2246
  119SOPE   H2X12556   1.704   0.044   6.171  0.2594  0.3308  0.3030
  119SOPE   H2Y12557   1.823   0.037   6.297  0.7253 -0.8496 -0.9651
  119SOPE   C2312558   1.564   0.656   5.906 -0.1748 -0.1145  0.5579
  119SOPE   H3R12559   1.670   0.675   5.879 -0.2475 -1.3930 -0.7657
  119SOPE   H3S12560   1.510   0.751   5.926 -2.9457 -1.7608  1.4829
  119SOPE   C2412561   1.492   0.583   5.791  0.3064 -0.1086  0.2711
  119SOPE   H4R12562   1.507   0.473   5.790 -0.4774 -0.2232  0.4919
  119SOPE   H4S12563   1.384   0.589   5.817  0.2863 -1.9750  0.7532
  119SOPE   C2512564   1.506   0.639   5.649  0.0855 -0.5325  0.1090
  119SOPE   H5R12565   1.461   0.570   5.574  1.7457 -1.0430 -0.4718
  119SOPE   H5S12566   1.457   0.739   5.640  1.3883  0.2045  0.8311
  119SOPE   C2612567   1.651   0.661   5.613  0.6718 -0.4244  0.7251
  119SOPE   H6R12568   1.693   0.735   5.683  0.9778 -0.2018  0.3139
  119SOPE   H6S12569   1.712   0.570   5.630  1.1421 -0.8576 -2.5209
  119SOPE   C2712570   1.675   0.716   5.465  0.4165 -0.4309 -0.0594
  119SOPE   H7R12571   1.637   0.820   5.457 -1.9835 -1.0413  1.9680
  119SOPE   H7S12572   1.783   0.723   5.441  0.9057 -2.8539  1.0763
  119SOPE   C2812573   1.595   0.637   5.361 -0.3502  0.4428  0.1484
  119SOPE   H8R12574   1.618   0.531   5.385 -1.9193  0.6999  3.4767
  119SOPE   H8S12575   1.491   0.658   5.395  0.8453  3.2228  2.5064
  119SOPE   C2912576   1.616   0.661   5.218  0.4891 -1.2866 -0.3781
  119SOPE   H9112577   1.720   0.676   5.185  0.3045 -1.1600 -0.9096
  119SOPE  C21012578   1.518   0.710   5.136  0.1316 -1.1755 -0.0275
  119SOPE  H10112579   1.536   0.735   5.030 -4.9034 -3.7774 -1.7941
  119SOPE  C21112580   1.369   0.719   5.171 -0.5505  0.2829  0.9192
  119SOPE  H11R12581   1.347   0.701   5.278 -1.6151  0.7189  0.7854
  119SOPE  H11S12582   1.320   0.642   5.108  1.6622  0.0157 -0.5965
  119SOPE  C21212583   1.323   0.860   5.132 -0.2108 -0.3594  0.3132
  119SOPE  H12R12584   1.359   0.893   5.032  1.3273 -1.3278  0.5341
  119SOPE  H12S12585   1.361   0.936   5.204  0.1089 -0.1431 -0.0799
  119SOPE  C21312586   1.168   0.876   5.130  0.1178  0.6559  0.0343
  119SOPE  H13R12587   1.138   0.844   5.232 -0.4343 -1.6061 -0.7719
  119SOPE  H13S12588   1.116   0.809   5.058 -3.6340  1.5787  1.6814
  119SOPE  C21412589   1.114   1.025   5.116  0.0062 -0.0092  0.0883
  119SOPE  H14R12590   1.192   1.097   5.149  1.2852 -0.3066 -2.1087
  119SOPE  H14S12591   1.020   1.041   5.173 -0.6893  1.3522 -1.3645
  119SOPE  C21512592   1.069   1.050   4.969 -0.9634  0.2593  0.0638
  119SOPE  H15R12593   0.991   0.978   4.934  0.4546 -0.7062 -1.2617
  119SOPE  H15S12594   1.158   1.029   4.906 -1.1722  0.4784 -0.3026
  119SOPE  C21612595   1.011   1.187   4.927 -0.5145  0.1752 -0.6023
  119SOPE  H16R12596   1.072   1.263   4.981 -0.7079  0.4675 -0.7982
  119SOPE  H16S12597   0.907   1.188   4.966 -0.0902  1.8988  0.6104
  119SOPE  C21712598   1.007   1.201   4.773 -0.7427 -0.6749 -0.3857
  119SOPE  H17R12599   0.965   1.108   4.729  2.4481 -1.5199 -1.9781
  119SOPE  H17S12600   1.111   1.213   4.737 -0.4341  0.7769  0.8610
  119SOPE  C21812601   0.922   1.324   4.728 -0.3493  0.0224 -0.3525
  119SOPE  H18R12602   0.987   1.399   4.778  0.1128 -0.2249 -0.5791
  119SOPE  H18S12603   0.827   1.318   4.785  0.5486 -0.2377  1.1913
  119SOPE  H18T12604   0.916   1.338   4.618 -0.8717  0.9507 -0.2214
  119SOPE   C3312605   1.909   0.135   6.126 -0.1495  0.1123 -0.6056
  119SOPE   H3X12606   1.955   0.037   6.105 -1.9013 -0.6398 -1.1600
  119SOPE   H3Y12607   1.981   0.203   6.176  0.7516 -0.9227 -0.4560
  119SOPE   C3412608   1.855   0.197   5.997 -1.0030 -0.3483 -0.3484
  119SOPE   H4X12609   1.929   0.261   5.945  0.6429 -0.6612  1.4677
  119SOPE   H4Y12610   1.775   0.267   6.031 -0.1795  0.4204  0.0259
  119SOPE   C3512611   1.789   0.096   5.910 -0.0040  0.0064  0.4044
  119SOPE   H5X12612   1.700   0.050   5.958 -1.5348  0.5664 -1.7508
  119SOPE   H5Y12613   1.870   0.021   5.897  1.3881  1.6950 -1.1279
  119SOPE   C3612614   1.715   0.147   5.788 -0.3731 -0.9388 -0.0849
  119SOPE   H6X12615   1.631   0.212   5.820  0.6921  0.7715 -0.6279
  119SOPE   H6Y12616   1.672   0.057   5.738  0.1446 -1.0205 -0.3937
  119SOPE   C3712617   1.808   0.238   5.697 -0.0830 -0.1898  0.5473
  119SOPE   H7X12618   1.907   0.188   5.692  0.9271  1.7386  0.1483
  119SOPE   H7Y12619   1.826   0.340   5.737 -0.6234  0.4242 -0.7201
  119SOPE   C3812620   1.754   0.257   5.552  0.1233 -0.1970 -0.6598
  119SOPE   H8X12621   1.652   0.298   5.569  0.8270  1.2324  0.3282
  119SOPE   H8Y12622   1.736   0.160   5.500  0.3758 -0.0614 -1.0002
  119SOPE   C3912623   1.838   0.359   5.468 -0.0266 -0.2128 -0.1509
  119SOPE   H9X12624   1.847   0.448   5.533  4.6541 -1.1325  0.7976
  119SOPE   H9Y12625   1.773   0.369   5.378 -2.7495  0.4010  1.7532
  119SOPE  C31012626   1.974   0.314   5.420 -0.3725  0.2505  0.1109
  119SOPE  H10X12627   1.978   0.207   5.390 -1.2855  0.0998  0.4752
  119SOPE  H10Y12628   2.044   0.329   5.505  1.5451 -1.9089 -0.9774
  119SOPE  C31112629   2.039   0.397   5.304 -1.0414 -0.0083  1.2084
  119SOPE  H11X12630   2.149   0.380   5.295 -1.2166 -0.2864 -0.9201
  119SOPE  H11Y12631   2.034   0.507   5.320  0.2829  0.1124  0.9656
  119SOPE  C31212632   1.969   0.372   5.175 -0.0589  0.3659  0.4383
  119SOPE  H12X12633   1.864   0.407   5.181 -0.3037 -0.4433  0.9586
  119SOPE  H12Y12634   1.962   0.262   5.168 -1.6361  0.4991 -0.6524
  119SOPE  C31312635   2.037   0.430   5.053 -0.0620 -0.1399  0.7212
  119SOPE  H13X12636   2.123   0.364   5.030 -1.7529 -2.4814  0.7629
  119SOPE  H13Y12637   2.068   0.530   5.090  0.4060 -1.3232  3.8641
  119SOPE  C31412638   1.959   0.426   4.921 -0.1002  0.3047  0.0793
  119SOPE  H14X12639   1.886   0.509   4.908 -0.9469 -0.4315  0.0509
  119SOPE  H14Y12640   1.897   0.334   4.924  0.0683  0.1776 -0.3152
  119SOPE  C31512641   2.054   0.426   4.794 -0.2544 -0.0827  0.0208
  119SOPE  H15X12642   2.127   0.343   4.803  1.1006  1.1822  1.3153
  119SOPE  H15Y12643   2.104   0.525   4.789  0.4810 -0.3694  1.3222
  119SOPE  C31612644   1.956   0.421   4.665 -1.0210  0.0861  0.5862
  119SOPE  H16X12645   1.928   0.526   4.638  0.9774  0.5880  0.3117
  119SOPE  H16Y12646   1.863   0.365   4.690 -1.1848  0.3639  0.6049
  119SOPE  C31712647   2.010   0.370   4.530  0.7770  0.5900 -0.4175
  119SOPE  H17X12648   1.929   0.378   4.455  1.5835  1.2093 -1.2523
  119SOPE  H17Y12649   2.017   0.262   4.555 -2.4581  0.5063  0.5925
  119SOPE  C31812650   2.132   0.429   4.470  0.4224  0.5618 -0.4720
  119SOPE  H18X12651   2.162   0.378   4.376 -0.2904  0.3873 -0.6104
  119SOPE  H18Y12652   2.219   0.441   4.539 -0.2107  2.6863  0.0375
  119SOPE  H18Z12653   2.123   0.536   4.445 -0.5945  1.1116  1.9302
  120SOPE     N12654   0.444   4.468   6.775 -0.1692  0.6733  0.0041
  120SOPE   HN112655   0.368   4.478   6.705 -1.1418 -0.5015  0.8210
  120SOPE   HN212656   0.396   4.416   6.852 -2.8508  0.9696 -1.3638
  120SOPE   HN312657   0.484   4.557   6.811 -2.3564  1.6329  0.2744
  120SOPE   C1212658   0.542   4.377   6.711 -0.1074 -0.3513  0.0976
  120SOPE  H12A12659   0.613   4.334   6.784  0.3888 -2.3146 -1.4401
  120SOPE  H12B12660   0.599   4.435   6.634 -0.6360 -1.3108 -1.0470
  120SOPE   C1112661   0.465   4.260   6.644 -0.3070  0.0537 -0.3773
  120SOPE  H11A12662   0.547   4.197   6.604 -0.4351 -0.8766  0.7938
  120SOPE  H11B12663   0.407   4.302   6.559  0.2356  0.3893 -0.5853
  120SOPE     P12664   0.401   4.025   6.763 -0.5964  0.0534 -0.1970
  120SOPE   O1312665   0.275   3.962   6.804 -0.5469  0.5429 -0.2805
  120SOPE   O1412666   0.514   4.022   6.853  0.5621  0.2863 -0.0383
  120SOPE   O1212667   0.382   4.184   6.731 -0.4352  0.5705  0.0458
  120SOPE   O1112668   0.448   3.959   6.619  0.6177 -0.3933  0.2194
  120SOPE    C112669   0.333   3.953   6.523  0.1739  0.9993 -0.1658
  120SOPE    HA12670   0.266   4.041   6.534 -0.0037  0.7835  0.5796
  120SOPE    HB12671   0.271   3.862   6.538  1.5999  0.0201  0.0159
  120SOPE    C212672   0.378   3.947   6.373 -0.0702 -0.3837  0.3372
  120SOPE    HS12673   0.464   3.880   6.353 -0.4864 -0.9661  0.4902
  120SOPE   O2112674   0.404   4.079   6.321  0.0977  0.0679 -0.3085
  120SOPE   C2112675   0.532   4.124   6.312  0.5116  0.7939  0.2157
  120SOPE   O2212676   0.633   4.061   6.347  0.1382 -0.0281  0.8223
  120SOPE   C2212677   0.533   4.260   6.244 -0.8769  0.5610 -0.4643
  120SOPE   H2R12678   0.490   4.325   6.323 -0.3832  0.1537  0.1528
  120SOPE   H2S12679   0.458   4.244   6.164 -1.9382 -2.2174  0.9572
  120SOPE    C312680   0.256   3.893   6.293  0.3800  0.0515  0.8317
  120SOPE    HX12681   0.167   3.960   6.305  0.8783  0.9503 -0.2804
  120SOPE    HY12682   0.238   3.790   6.330  1.1077 -0.1173  0.7270
  120SOPE   O3112683   0.285   3.892   6.148  0.9103  0.4723 -0.1552
  120SOPE   C3112684   0.350   3.792   6.103 -1.1012  0.0739 -0.2578
  120SOPE   O3212685   0.391   3.701   6.180 -0.8490  0.0631  0.1484
  120SOPE   C3212686   0.362   3.795   5.952 -0.2925  0.1499  0.2039
  120SOPE   H2X12687   0.435   3.873   5.922  0.4407 -1.1931 -1.7290
  120SOPE   H2Y12688   0.264   3.820   5.906  0.1059  0.5220 -0.4579
  120SOPE   C2312689   0.668   4.306   6.191 -0.1358 -0.0118 -0.4033
  120SOPE   H3R12690   0.745   4.252   6.251 -2.2072 -5.6005 -2.0908
  120SOPE   H3S12691   0.680   4.416   6.199 -0.0161 -0.0705  0.3640
  120SOPE   C2412692   0.683   4.284   6.042 -0.1863  0.2067 -0.1034
  120SOPE   H4R12693   0.594   4.335   5.998  0.6293  0.2277 -1.7933
  120SOPE   H4S12694   0.773   4.338   6.005 -1.0429  0.4145 -2.0154
  120SOPE   C2512695   0.686   4.130   5.995 -0.1376  0.2650  0.4945
  120SOPE   H5R12696   0.782   4.094   6.038  0.7551  0.3883 -1.3367
  120SOPE   H5S12697   0.597   4.072   6.029 -0.9064  0.9299 -0.3312
  120SOPE   C2612698   0.710   4.099   5.844  0.0056 -0.4905  1.1531
  120SOPE   H6R12699   0.643   4.156   5.776  2.2928  0.3479 -0.5305
  120SOPE   H6S12700   0.812   4.137   5.822 -1.1339 -0.1679 -5.5415
  120SOPE   C2712701   0.708   3.955   5.804 -0.2221  0.7409  0.0067
  120SOPE   H7R12702   0.793   3.901   5.851 -1.0942  1.5188  2.6311
  120SOPE   H7S12703   0.619   3.902   5.844  0.7032 -0.3844  0.6686
  120SOPE   C2812704   0.717   3.933   5.647 -0.5907  0.1457  0.1806
  120SOPE   H8R12705   0.709   3.823   5.630 -0.6504  0.0335  0.9155
  120SOPE   H8S12706   0.627   3.973   5.595 -0.2661  1.3950  0.5473
  120SOPE   C2912707   0.849   3.980   5.585 -0.0406 -0.0354  0.0609
  120SOPE   H9112708   0.934   3.950   5.647 -0.4859  1.6807  1.5742
  120SOPE  C21012709   0.845   4.076   5.489  0.0037  0.8058 -0.4153
  120SOPE  H10112710   0.941   4.103   5.442 -0.1887  0.4849 -1.0013
  120SOPE  C21112711   0.715   4.127   5.413  0.3972  0.1152 -0.1563
  120SOPE  H11R12712   0.751   4.205   5.343  0.9085  0.2348  0.2323
  120SOPE  H11S12713   0.645   4.171   5.487  0.1187  0.7435 -0.7813
  120SOPE  C21212714   0.650   4.025   5.321  0.5985 -0.0112  0.4843
  120SOPE  H12R12715   0.557   4.075   5.285  0.7825 -0.6308 -0.9186
  120SOPE  H12S12716   0.622   3.935   5.379 -1.6086  1.1439  1.3562
  120SOPE  C21312717   0.737   3.983   5.201 -0.2345 -0.2748 -0.2389
  120SOPE  H13R12718   0.820   4.052   5.175  0.6434 -1.0151  0.4991
  120SOPE  H13S12719   0.663   3.977   5.118  0.0474  1.1077 -0.6085
  120SOPE  C21412720   0.794   3.837   5.223 -0.2834  0.0728  0.1742
  120SOPE  H14R12721   0.708   3.774   5.253 -0.9523  1.1014  0.4723
  120SOPE  H14S12722   0.867   3.836   5.307 -0.5603 -1.1199  0.4160
  120SOPE  C21512723   0.871   3.778   5.099 -0.5279 -0.1669 -1.6531
  120SOPE  H15R12724   0.897   3.672   5.121 -0.5377 -0.1955 -1.7794
  120SOPE  H15S12725   0.963   3.834   5.072  0.7689 -1.9390 -1.0862
  120SOPE  C21612726   0.788   3.763   4.968 -0.1365 -0.1862 -0.4425
  120SOPE  H16R12727   0.764   3.861   4.921 -0.9977 -0.7602 -1.2508
  120SOPE  H16S12728   0.693   3.706   4.978 -1.6632  1.8423 -2.2888
  120SOPE  C21712729   0.852   3.670   4.863  0.7814 -0.3760  0.4219
  120SOPE  H17R12730   0.846   3.562   4.885 -0.1481  0.1898  3.3255
  120SOPE  H17S12731   0.962   3.680   4.867  0.7014  0.6294  0.3719
  120SOPE  C21812732   0.799   3.700   4.725  0.1431 -0.0531  0.0284
  120SOPE  H18R12733   0.836   3.625   4.652 -1.0770 -0.1975 -0.4688
  120SOPE  H18S12734   0.842   3.799   4.699  2.5071 -0.3769  2.3085
  120SOPE  H18T12735   0.689   3.690   4.721  0.0700  0.3770  0.7823
  120SOPE   C3312736   0.404   3.659   5.893  0.1578 -0.4961  0.3577
  120SOPE   H3X12737   0.323   3.587   5.915  0.4055 -0.5791  0.9969
  120SOPE   H3Y12738   0.502   3.618   5.925  1.1328  1.6872  0.3885
  120SOPE   C3412739   0.431   3.673   5.743 -0.2418 -0.9152  0.3121
  120SOPE   H4X12740   0.522   3.729   5.710 -0.8936 -0.4273 -0.6986
  120SOPE   H4Y12741   0.351   3.740   5.706  2.6024  1.8030 -1.4309
  120SOPE   C3512742   0.432   3.544   5.662  0.3142  0.1257 -0.0158
  120SOPE   H5X12743   0.333   3.498   5.681 -1.6592  4.0336  0.1028
  120SOPE   H5Y12744   0.503   3.470   5.706 -2.1514 -0.3159  3.6938
  120SOPE   C3612745   0.451   3.562   5.507 -0.3314 -0.0409  0.5708
  120SOPE   H6X12746   0.555   3.596   5.484 -0.7613  0.2520 -1.1300
  120SOPE   H6Y12747   0.381   3.644   5.481 -0.5368 -0.4044 -0.0343
  120SOPE   C3712748   0.421   3.442   5.414 -0.5967 -0.2530  0.3271
  120SOPE   H7X12749   0.329   3.391   5.452 -2.4946  2.4438 -0.3568
  120SOPE   H7Y12750   0.508   3.373   5.411 -1.5092 -1.5331  1.6956
  120SOPE   C3812751   0.393   3.481   5.267  0.7606 -0.0218 -1.5057
  120SOPE   H8X12752   0.462   3.567   5.253  0.3081  0.6274 -0.0019
  120SOPE   H8Y12753   0.289   3.517   5.252  0.8326 -0.1674 -2.3785
  120SOPE   C3912754   0.428   3.378   5.157 -0.1229 -0.2728 -0.0306
  120SOPE   H9X12755   0.357   3.293   5.171 -0.7562  0.2876  0.1790
  120SOPE   H9Y12756   0.532   3.347   5.181  0.0984  1.0042  0.7554
  120SOPE  C31012757   0.418   3.429   5.010  0.2884  0.5015  0.5937
  120SOPE  H10X12758   0.500   3.499   4.984 -0.4061  1.0587 -0.1086
  120SOPE  H10Y12759   0.324   3.487   4.997  1.1905  1.4466 -2.3264
  120SOPE  C31112760   0.424   3.308   4.910  0.0230 -0.0343 -0.1088
  120SOPE  H11X12761   0.347   3.237   4.948  0.5731 -0.6061 -0.0514
  120SOPE  H11Y12762   0.513   3.245   4.929  0.4327  1.0397  1.7139
  120SOPE  C31212763   0.411   3.345   4.764  0.3961 -0.4408  0.2050
  120SOPE  H12X12764   0.504   3.396   4.730  0.1736 -1.4557 -2.0966
  120SOPE  H12Y12765   0.319   3.407   4.752 -1.1787 -2.2275  2.3332
  120SOPE  C31312766   0.394   3.218   4.671  0.2726 -0.8004 -0.2634
  120SOPE  H13X12767   0.485   3.160   4.696  1.4715  1.8001  1.8500
  120SOPE  H13Y12768   0.395   3.235   4.561  0.1654 -0.7310 -0.2540
  120SOPE  C31412769   0.272   3.126   4.704  0.2541  0.0286  0.1501
  120SOPE  H14X12770   0.174   3.166   4.669 -0.5287 -1.6847  0.2847
  120SOPE  H14Y12771   0.255   3.119   4.813 -0.0836  1.4452  0.2017
  120SOPE  C31512772   0.286   2.988   4.629  0.0068 -0.4856 -0.5679
  120SOPE  H15X12773   0.385   2.951   4.660  0.3155  1.7794  1.4549
  120SOPE  H15Y12774   0.296   3.012   4.521 -0.0383  2.8654  0.0713
  120SOPE  C31612775   0.177   2.879   4.668 -0.2424 -0.6277  0.0047
  120SOPE  H16X12776   0.073   2.917   4.656 -1.8885 -3.6837  2.9798
  120SOPE  H16Y12777   0.192   2.870   4.777  0.1146  2.2618  0.2549
  120SOPE  C31712778   0.193   2.747   4.606  0.4533  0.3513  0.8946
  120SOPE  H17X12779   0.298   2.710   4.609  0.3478  0.0094  0.4039
  120SOPE  H17Y12780   0.173   2.776   4.501 -2.9136  2.3882  1.9649
  120SOPE  C31812781   0.091   2.655   4.661  0.8754 -0.6721  0.1735
  120SOPE  H18X12782  -0.008   2.706   4.665  1.5829  0.9113 -1.1196
  120SOPE  H18Y12783   0.111   2.611   4.761 -0.6890 -0.8963  0.4101
  120SOPE  H18Z12784   0.091   2.570   4.589 -1.6276  0.8900 -1.8433
  121SOPE     N12785   2.079   0.768   6.879  0.3507  0.3082  0.1077
  121SOPE   HN112786   2.044   0.672   6.858  1.3813  0.1691 -1.1281
  121SOPE   HN212787   2.179   0.762   6.906  0.5440 -1.2295 -0.7868
  121SOPE   HN312788   2.013   0.802   6.951 -1.7092  1.7904 -2.2913
  121SOPE   C1212789   2.079   0.855   6.755 -0.1788  0.6257 -0.5271
  121SOPE  H12A12790   2.151   0.804   6.687  1.5104  0.1446  1.5050
  121SOPE  H12B12791   2.133   0.950   6.779 -2.2283  1.0118  3.3019
  121SOPE   C1112792   1.943   0.886   6.701  0.5293 -0.0422  0.3789
  121SOPE  H11A12793   1.902   0.787   6.672  0.7887  0.1399 -0.6231
  121SOPE  H11B12794   1.942   0.940   6.604  0.7223  0.3497  0.5929
  121SOPE     P12795   1.828   1.099   6.806  0.1790  0.0556 -0.3570
  121SOPE   O1312796   1.874   1.155   6.939  0.0110 -0.2150 -0.3432
  121SOPE   O1412797   1.680   1.116   6.775 -0.2148  0.7687 -0.1975
  121SOPE   O1212798   1.862   0.947   6.800  0.9424  0.4053 -0.3166
  121SOPE   O1112799   1.913   1.162   6.693  0.0975  0.3145 -0.1155
  121SOPE    C112800   1.914   1.303   6.661 -0.6974  0.6099 -0.1439
  121SOPE    HA12801   1.973   1.360   6.736  1.6966 -0.1634 -1.3487
  121SOPE    HB12802   1.810   1.343   6.654 -0.3932  1.5960  0.7550
  121SOPE    C212803   1.973   1.326   6.521  0.7111 -0.4073 -0.6816
  121SOPE    HS12804   1.910   1.276   6.444 -0.0131  0.8770 -0.9650
  121SOPE   O2112805   2.107   1.287   6.520 -0.1780  0.4017  0.1970
  121SOPE   C2112806   2.128   1.161   6.482 -0.6152  0.9561  0.6825
  121SOPE   O2212807   2.045   1.084   6.439  0.3627 -1.2570 -0.8451
  121SOPE   C2212808   2.275   1.128   6.516  0.0776 -0.1491 -0.1812
  121SOPE   H2R12809   2.272   1.072   6.612 -1.9337  1.2838  0.6758
  121SOPE   H2S12810   2.325   1.224   6.536  0.6416 -0.3868 -0.4444
  121SOPE    C312811   1.974   1.478   6.489 -0.0118 -0.6490 -0.0383
  121SOPE    HX12812   2.024   1.524   6.577 -0.4197  0.1025 -0.1838
  121SOPE    HY12813   1.867   1.508   6.488  0.2798  0.4899  0.7187
  121SOPE   O3112814   2.028   1.512   6.360 -0.0282 -0.3782  0.9854
  121SOPE   C3112815   2.156   1.567   6.364  0.2894  0.1659  1.1296
  121SOPE   O3212816   2.216   1.614   6.456 -0.6132  0.4575  0.2266
  121SOPE   C3212817   2.223   1.559   6.224  0.0632  0.0318  0.1937
  121SOPE   H2X12818   2.193   1.642   6.156  2.0820 -0.1069 -0.9596
  121SOPE   H2Y12819   2.182   1.468   6.177  1.0298  0.2063 -1.0454
  121SOPE   C2312820   2.341   1.061   6.393  0.0689  0.7825  0.2698
  121SOPE   H3R12821   2.289   0.964   6.374  0.0518  1.0710 -1.3465
  121SOPE   H3S12822   2.447   1.042   6.419 -0.1811  0.5672  1.1497
  121SOPE   C2412823   2.337   1.144   6.256  0.0911 -0.0198 -0.4485
  121SOPE   H4R12824   2.231   1.171   6.237 -0.0565 -0.7580 -0.7284
  121SOPE   H4S12825   2.393   1.240   6.253  1.8663 -1.0266 -1.2354
  121SOPE   C2512826   2.383   1.059   6.132 -0.2006  0.0456  0.5916
  121SOPE   H5R12827   2.482   1.016   6.158  0.5494 -0.8646 -3.1264
  121SOPE   H5S12828   2.309   0.976   6.125 -0.5013  0.4272 -1.5474
  121SOPE   C2612829   2.378   1.143   6.000 -0.4342  0.1264  0.6438
  121SOPE   H6R12830   2.418   1.244   6.024 -0.7573 -0.1504  2.4252
  121SOPE   H6S12831   2.454   1.097   5.932  0.6616 -1.2219  2.6610
  121SOPE   C2712832   2.232   1.147   5.938 -0.3875  0.1183  0.3231
  121SOPE   H7R12833   2.195   1.046   5.911 -0.8181  0.7717 -1.7030
  121SOPE   H7S12834   2.165   1.200   6.009  1.5350  2.0255  0.8268
  121SOPE   C2812835   2.226   1.234   5.810  0.4395  0.4394  0.2701
  121SOPE   H8R12836   2.232   1.344   5.823 -1.2487  0.5822  0.0478
  121SOPE   H8S12837   2.296   1.190   5.736 -1.7554  0.5183 -2.0122
  121SOPE   C2912838   2.087   1.221   5.746  0.4827  0.0377 -0.3580
  121SOPE   H9112839   2.006   1.199   5.817  0.8861  3.3470  1.3411
  121SOPE  C21012840   2.063   1.234   5.613 -0.0210 -0.4939 -0.8530
  121SOPE  H10112841   1.960   1.227   5.574 -0.0669  0.7788 -0.9898
  121SOPE  C21112842   2.156   1.254   5.504 -0.1665 -0.1194  0.0787
  121SOPE  H11R12843   2.165   1.152   5.463  0.9822 -0.5967  1.4441
  121SOPE  H11S12844   2.258   1.282   5.539  0.5527 -1.7648 -0.6505
  121SOPE  C21212845   2.122   1.352   5.386 -0.3657  0.0590 -0.7435
  121SOPE  H12R12846   2.215   1.356   5.326  1.5337 -0.0667  1.9925
  121SOPE  H12S12847   2.094   1.450   5.431  2.8449  1.9025 -2.3992
  121SOPE  C21312848   2.004   1.313   5.302 -0.0991 -0.8688 -0.4804
  121SOPE  H13R12849   1.915   1.345   5.360  0.4098  0.3582 -0.3361
  121SOPE  H13S12850   1.992   1.206   5.276  1.0955 -0.7327 -1.7926
  121SOPE  C21412851   2.014   1.387   5.167  0.9645  0.4461 -0.0300
  121SOPE  H14R12852   2.093   1.356   5.095  0.6225 -3.3581  1.0056
  121SOPE  H14S12853   2.017   1.496   5.190 -2.6542  0.8166 -0.6809
  121SOPE  C21512854   1.879   1.364   5.095 -0.2016  0.2356 -0.4423
  121SOPE  H15R12855   1.788   1.389   5.153  0.3548 -0.8375  0.9368
  121SOPE  H15S12856   1.871   1.253   5.089 -0.5826  0.1924  0.7511
  121SOPE  C21612857   1.873   1.411   4.946 -0.3497 -0.5062 -0.1594
  121SOPE  H16R12858   1.781   1.367   4.903 -2.3569  0.9594  2.3493
  121SOPE  H16S12859   1.957   1.362   4.892 -1.3719 -1.0360 -1.3145
  121SOPE  C21712860   1.857   1.564   4.919  0.4568  0.1665  0.5105
  121SOPE  H17R12861   1.851   1.581   4.809  0.7801  1.1421  0.6316
  121SOPE  H17S12862   1.949   1.621   4.946  2.2320 -2.1806 -0.2438
  121SOPE  C21812863   1.742   1.640   4.984 -0.0137 -0.5409 -0.5998
  121SOPE  H18R12864   1.762   1.656   5.092  2.8945 -0.3718 -1.0818
  121SOPE  H18S12865   1.648   1.582   4.981 -0.1401 -0.4133  0.6253
  121SOPE  H18T12866   1.721   1.744   4.950 -1.0043 -0.4907  0.1208
  121SOPE   C3312867   2.380   1.559   6.216 -0.0503  0.2284 -0.3287
  121SOPE   H3X12868   2.416   1.472   6.275  0.0249  0.7575  0.4221
  121SOPE   H3Y12869   2.423   1.651   6.262  1.3645 -0.9869  0.9124
  121SOPE   C3412870   2.446   1.551   6.079  0.3258 -0.5293 -0.1478
  121SOPE   H4X12871   2.425   1.453   6.030  0.3766 -0.2145 -0.8104
  121SOPE   H4Y12872   2.555   1.565   6.095  0.6267 -1.9912 -0.7700
  121SOPE   C3512873   2.398   1.658   5.973 -0.3251 -0.2568  0.7213
  121SOPE   H5X12874   2.413   1.762   6.009 -1.3653  0.8299 -1.7584
  121SOPE   H5Y12875   2.291   1.641   5.948  0.1014 -2.1885 -0.0011
  121SOPE   C3612876   2.489   1.635   5.853 -0.0599 -0.2380  0.6753
  121SOPE   H6X12877   2.450   1.558   5.783  1.4554 -0.3590 -0.0929
  121SOPE   H6Y12878   2.582   1.582   5.883 -1.6155 -3.8082 -0.2765
  121SOPE   C3712879   2.525   1.767   5.781  0.1666 -0.2451  0.1341
  121SOPE   H7X12880   2.625   1.794   5.820 -0.0746 -0.7928  1.1935
  121SOPE   H7Y12881   2.459   1.854   5.800  0.8712  0.4435 -0.5281
  121SOPE   C3812882   2.531   1.744   5.628 -0.3942 -0.1378 -0.0875
  121SOPE   H8X12883   2.441   1.694   5.587 -0.0017 -1.3813  0.5135
  121SOPE   H8Y12884   2.617   1.675   5.613  2.5759  3.1786  0.1493
  121SOPE   C3912885   2.579   1.860   5.543  0.2424 -0.5091  0.1940
  121SOPE   H9X12886   2.676   1.899   5.583  0.5968  3.0942 -3.5284
  121SOPE   H9Y12887   2.501   1.937   5.564 -0.1980 -1.2471  1.3302
  121SOPE  C31012888   2.584   1.827   5.391 -0.4340  0.0199 -0.1261
  121SOPE  H10X12889   2.504   1.756   5.365 -0.6731 -0.6678  2.2240
  121SOPE  H10Y12890   2.682   1.787   5.359  0.8082  1.2518  1.8467
  121SOPE  C31112891   2.555   1.959   5.317 -0.7862 -0.2615  0.4063
  121SOPE  H11X12892   2.627   2.036   5.353  0.7496 -1.5930  0.2695
  121SOPE  H11Y12893   2.454   1.996   5.346 -0.3528 -0.8944  2.9134
  121SOPE  C31212894   2.586   1.941   5.168 -0.1685 -0.0446 -0.1916
  121SOPE  H12X12895   2.546   1.852   5.116  1.3273  0.4577 -2.3485
  121SOPE  H12Y12896   2.696   1.930   5.157 -0.3284 -1.2128 -0.7260
  121SOPE  C31312897   2.536   2.057   5.083  0.3087  0.7140 -0.0178
  121SOPE  H13X12898   2.561   2.150   5.139  0.5581  0.6732 -0.0595
  121SOPE  H13Y12899   2.425   2.061   5.075  0.3036 -0.4546 -0.7657
  121SOPE  C31412900   2.596   2.062   4.948  0.4997 -0.1339 -0.0825
  121SOPE  H14X12901   2.569   1.964   4.903 -0.0313  0.4909 -1.1582
  121SOPE  H14Y12902   2.706   2.059   4.968  0.1861 -0.0956  1.8764
  121SOPE  C31512903   2.554   2.173   4.855  0.6631  0.3920  0.5795
  121SOPE  H15X12904   2.581   2.266   4.909  0.1306  0.3279  0.9597
  121SOPE  H15Y12905   2.445   2.189   4.843  0.5733 -0.9730 -0.7266
  121SOPE  C31612906   2.625   2.169   4.721 -0.1341 -0.1539  0.1568
  121SOPE  H16X12907   2.613   2.067   4.679 -0.9698 -0.2715  0.6515
  121SOPE  H16Y12908   2.734   2.192   4.729  0.6997 -3.6260  0.5926
  121SOPE  C31712909   2.561   2.261   4.624 -0.4058  0.1676 -0.3694
  121SOPE  H17X12910   2.605   2.361   4.644  0.9685 -0.1260 -1.7430
  121SOPE  H17Y12911   2.450   2.260   4.634 -0.5278 -0.5581 -1.6106
  121SOPE  C31812912   2.598   2.227   4.476  1.1663 -0.6300  0.4083
  121SOPE  H18X12913   2.568   2.121   4.457  1.5606 -0.2860 -2.6872
  121SOPE  H18Y12914   2.706   2.230   4.454  1.7345  0.1764  2.9644
  121SOPE  H18Z12915   2.542   2.286   4.401 -2.2385 -1.9703  1.6895
  122SOPE     N12916   3.359   2.486   6.680  0.0232 -0.0903 -0.2084
  122SOPE   HN112917   3.304   2.496   6.592 -0.5926  0.3321  0.2182
  122SOPE   HN212918   3.450   2.442   6.656 -0.2486 -1.8929  1.8414
  122SOPE   HN312919   3.306   2.426   6.745  0.7792 -0.2637  0.2635
  122SOPE   C1212920   3.390   2.628   6.731 -0.3017  1.1276  0.6410
  122SOPE  H12A12921   3.474   2.625   6.805  0.2256 -0.5301  0.0219
  122SOPE  H12B12922   3.301   2.668   6.784 -2.9458 -0.6213 -2.1545
  122SOPE   C1112923   3.425   2.725   6.618 -0.2228 -0.9670  0.5842
  122SOPE  H11A12924   3.431   2.828   6.659  0.3303 -1.0512  0.7189
  122SOPE  H11B12925   3.343   2.727   6.543  1.0659 -0.3459 -0.8654
  122SOPE     P12926   3.690   2.716   6.572 -0.2423 -0.2361 -0.2695
  122SOPE   O1312927   3.772   2.593   6.555 -0.2433 -0.3928 -0.2757
  122SOPE   O1412928   3.697   2.789   6.701  0.1972  0.3579  0.1411
  122SOPE   O1212929   3.543   2.679   6.548 -0.1408 -0.3584 -0.5297
  122SOPE   O1112930   3.704   2.822   6.451 -0.0294  0.5015 -0.0683
  122SOPE    C112931   3.759   2.786   6.319  0.0695 -0.7237 -0.7338
  122SOPE    HA12932   3.841   2.711   6.329  2.4997  1.6631 -1.5706
  122SOPE    HB12933   3.810   2.874   6.274  0.2774  0.5599  1.8187
  122SOPE    C212934   3.658   2.745   6.208  0.2828 -0.4649 -0.2410
  122SOPE    HS12935   3.712   2.757   6.112 -1.4408  1.0767 -1.0755
  122SOPE   O2112936   3.544   2.827   6.214 -0.7157  0.1368 -0.1768
  122SOPE   C2112937   3.558   2.950   6.182  0.0049  0.5619  0.2800
  122SOPE   O2212938   3.657   3.012   6.151  0.4218 -0.3806  0.5451
  122SOPE   C2212939   3.416   3.006   6.152  0.7018 -0.5764 -0.3654
  122SOPE   H2R12940   3.413   3.117   6.150  0.5314 -0.5839 -0.5699
  122SOPE   H2S12941   3.350   2.967   6.232  0.0776  1.5738  0.2390
  122SOPE    C312942   3.611   2.596   6.234  0.4541 -0.0012  0.3772
  122SOPE    HX12943   3.539   2.566   6.155  0.4989 -0.0085  0.3392
  122SOPE    HY12944   3.542   2.608   6.321  1.6215  1.7425  1.1253
  122SOPE   O3112945   3.718   2.509   6.231 -0.1678 -0.2633  0.2843
  122SOPE   C3112946   3.700   2.401   6.304 -0.4865 -0.0385 -0.1031
  122SOPE   O3212947   3.587   2.356   6.323  0.6583 -0.3548 -0.5009
  122SOPE   C3212948   3.830   2.344   6.368  0.0509 -0.4097 -0.2562
  122SOPE   H2X12949   3.798   2.258   6.430  1.2871 -0.5283  0.2399
  122SOPE   H2Y12950   3.877   2.427   6.424 -0.2838 -0.5723  0.2795
  122SOPE   C2312951   3.356   2.947   6.020  0.5674 -0.5935  0.6502
  122SOPE   H3R12952   3.253   2.990   6.013  0.6402 -0.1853  1.8916
  122SOPE   H3S12953   3.334   2.838   6.028 -1.3812 -0.3243 -0.3062
  122SOPE   C2412954   3.443   2.983   5.899  0.9115  0.1615  0.7871
  122SOPE   H4R12955   3.481   3.087   5.892 -1.9957  1.2728 -0.0945
  122SOPE   H4S12956   3.538   2.925   5.903 -0.3533 -2.0306  0.5918
  122SOPE   C2512957   3.379   2.934   5.766 -0.4693  0.4909 -0.1735
  122SOPE   H5R12958   3.372   2.823   5.766  1.7900  0.2987 -0.4302
  122SOPE   H5S12959   3.280   2.982   5.750 -0.9109 -0.1150  0.7031
  122SOPE   C2612960   3.468   2.971   5.645  0.1830 -0.0519  0.2612
  122SOPE   H6R12961   3.471   3.082   5.648 -1.1729  0.2031 -3.1607
  122SOPE   H6S12962   3.573   2.935   5.650  0.0142 -0.8374 -1.1547
  122SOPE   C2712963   3.415   2.924   5.508  0.0277  0.6164  0.3516
  122SOPE   H7R12964   3.441   2.819   5.482 -0.6087  0.6145 -0.3009
  122SOPE   H7S12965   3.304   2.930   5.514  0.0670  0.0582  2.4930
  122SOPE   C2812966   3.458   3.020   5.398 -0.2529 -0.3554  0.2342
  122SOPE   H8R12967   3.391   2.995   5.313 -1.6327  2.7288  0.2865
  122SOPE   H8S12968   3.432   3.120   5.439  0.5086 -0.6662  1.5490
  122SOPE   C2912969   3.606   2.992   5.365 -0.4849  0.7014  0.4513
  122SOPE   H9112970   3.671   3.044   5.437 -1.0956 -0.5784  1.9902
  122SOPE  C21012971   3.668   2.923   5.266  0.1101  0.1934 -0.6162
  122SOPE  H10112972   3.777   2.909   5.257 -0.1935 -1.9771 -1.6392
  122SOPE  C21112973   3.589   2.853   5.160 -0.0042  0.3197  0.1435
  122SOPE  H11R12974   3.480   2.873   5.170 -0.8364 -2.6908 -1.5121
  122SOPE  H11S12975   3.609   2.744   5.168 -1.7103 -0.0112  0.3175
  122SOPE  C21212976   3.635   2.896   5.020 -0.1200 -0.3971  0.3601
  122SOPE  H12R12977   3.596   2.827   4.942 -1.6519 -0.8762  1.4820
  122SOPE  H12S12978   3.742   2.922   5.024 -0.1322 -0.1613 -0.6374
  122SOPE  C21312979   3.575   3.034   4.979 -0.4308  0.5914  0.5300
  122SOPE  H13R12980   3.640   3.110   5.026  0.6748  0.0590 -0.0980
  122SOPE  H13S12981   3.470   3.045   5.014 -0.3388  3.0789  0.2027
  122SOPE  C21412982   3.579   3.048   4.829 -0.3332  0.2246  0.4005
  122SOPE  H14R12983   3.530   2.960   4.782  0.9595 -1.1213  1.4929
  122SOPE  H14S12984   3.685   3.036   4.799 -0.4297 -1.9372  0.7832
  122SOPE  C21512985   3.526   3.187   4.786  0.3540 -0.3383 -0.5739
  122SOPE  H15R12986   3.598   3.248   4.844  1.2399 -1.5554 -0.3292
  122SOPE  H15S12987   3.425   3.186   4.832  1.2643  0.7112  1.5908
  122SOPE  C21612988   3.541   3.198   4.632 -0.4234 -0.0237  0.1672
  122SOPE  H16R12989   3.474   3.123   4.584  1.0804 -1.4906  0.2774
  122SOPE  H16S12990   3.644   3.174   4.597 -1.0993 -1.1670 -1.1432
  122SOPE  C21712991   3.496   3.337   4.589 -0.2637 -0.7367 -0.0363
  122SOPE  H17R12992   3.562   3.408   4.644 -0.4760 -0.4520 -0.1470
  122SOPE  H17S12993   3.392   3.351   4.626  0.1481 -1.1809  1.3489
  122SOPE  C21812994   3.499   3.374   4.444 -0.2962 -0.3068  0.2759
  122SOPE  H18R12995   3.464   3.479   4.432 -2.4405 -0.9031  0.7542
  122SOPE  H18S12996   3.446   3.300   4.380 -0.2793  0.3056 -0.4580
  122SOPE  H18T12997   3.604   3.389   4.411 -0.2317  0.4712  0.8002
  122SOPE   C3312998   3.921   2.278   6.259  0.7929  1.0644 -0.0692
  122SOPE   H3X12999   4.023   2.268   6.301  0.5735 -0.1406  0.2297
  122SOPE   H3Y13000   3.927   2.328   6.160 -2.3427  0.6749 -0.5551
  122SOPE   C3413001   3.874   2.132   6.233  0.0718  0.1518  0.3992
  122SOPE   H4X13002   3.772   2.144   6.191  0.2060  2.5803  0.6421
  122SOPE   H4Y13003   3.885   2.068   6.323  1.9052 -0.4637 -0.2211
  122SOPE   C3513004   3.960   2.069   6.125  0.6970 -0.3382 -0.3886
  122SOPE   H5X13005   4.000   1.971   6.160 -0.1683 -0.0649  1.5001
  122SOPE   H5Y13006   4.052   2.131   6.126  0.1896  0.4378  0.3655
  122SOPE   C3613007   3.893   2.057   5.994  0.1755 -0.4954  0.1549
  122SOPE   H6X13008   3.848   2.157   5.979 -1.6713 -1.1342  1.0696
  122SOPE   H6Y13009   3.803   1.992   6.001  0.3622 -0.8591 -0.6907
  122SOPE   C3713010   3.960   1.996   5.869  0.8708  0.1699  0.5348
  122SOPE   H7X13011   3.953   1.885   5.869  0.9981  0.1474  1.7150
  122SOPE   H7Y13012   4.068   2.023   5.873  1.1649 -0.9121  0.2019
  122SOPE   C3813013   3.898   2.053   5.736 -0.0392  0.5518 -0.7875
  122SOPE   H8X13014   3.883   2.163   5.735 -0.7006  0.5651  1.9679
  122SOPE   H8Y13015   3.795   2.011   5.735 -0.6550  1.7075  2.4247
  122SOPE   C3913016   3.968   2.005   5.611 -0.1744  0.1751 -0.2289
  122SOPE   H9X13017   3.965   1.894   5.622 -0.0802  0.1904 -0.0446
  122SOPE   H9Y13018   4.072   2.041   5.604 -0.3002  0.3375 -1.6164
  122SOPE  C31013019   3.896   2.049   5.482 -0.0603  0.3764 -0.2898
  122SOPE  H10X13020   3.893   2.160   5.491 -2.5690  0.1822  3.3971
  122SOPE  H10Y13021   3.796   2.003   5.478 -0.1225  0.3101  1.3289
  122SOPE  C31113022   3.980   2.003   5.358  0.1108 -0.4797 -0.0980
  122SOPE  H11X13023   3.993   1.893   5.351 -0.7487 -0.7086  1.3777
  122SOPE  H11Y13024   4.081   2.049   5.370 -0.1740 -0.3287  2.1705
  122SOPE  C31213025   3.929   2.052   5.218  0.6620 -0.5130  0.0949
  122SOPE  H12X13026   3.893   2.156   5.226 -1.4325 -1.2381  0.5538
  122SOPE  H12Y13027   3.844   1.987   5.190 -0.4664 -0.3087  2.7557
  122SOPE  C31313028   4.038   2.054   5.106  0.0631 -0.6743 -0.7199
  122SOPE  H13X13029   4.091   1.957   5.116  1.4616 -0.1864 -2.7379
  122SOPE  H13Y13030   4.104   2.144   5.113 -2.0656  0.9814 -0.9538
  122SOPE  C31413031   3.972   2.065   4.970 -0.0683 -0.4407 -0.0150
  122SOPE  H14X13032   3.909   2.156   4.958 -1.2120 -1.3213 -0.8543
  122SOPE  H14Y13033   3.903   1.979   4.967 -1.9021  0.7665  2.8443
  122SOPE  C31513034   4.071   2.055   4.851  0.0401 -0.3887 -1.1400
  122SOPE  H15X13035   4.133   1.964   4.864 -3.4637 -2.8319 -0.0815
  122SOPE  H15Y13036   4.134   2.146   4.852  0.3944 -0.4556  3.7311
  122SOPE  C31613037   3.997   2.028   4.718  0.1617  0.3963  0.0501
  122SOPE  H16X13038   3.938   1.934   4.719  1.5135 -0.5130 -1.2904
  122SOPE  H16Y13039   4.070   2.004   4.638  0.4843  1.4984 -0.0032
  122SOPE  C31713040   3.912   2.148   4.675 -0.2005  0.5843 -0.5709
  122SOPE  H17X13041   3.983   2.232   4.666 -1.0558  1.2577 -1.1007
  122SOPE  H17Y13042   3.844   2.174   4.759 -0.1967 -1.2557  0.0494
  122SOPE  C31813043   3.841   2.129   4.543 -0.4486 -0.7241 -0.0386
  122SOPE  H18X13044   3.904   2.110   4.453 -0.7901  1.7236 -0.8866
  122SOPE  H18Y13045   3.809   2.234   4.527  1.6796  0.0341  0.2457
  122SOPE  H18Z13046   3.754   2.061   4.552 -1.9008  1.2830  2.3246
  123SOPE     N13047   3.411   4.366   2.166  0.1437 -0.5927 -0.3971
  123SOPE   HN113048   3.370   4.461   2.175 -1.9761 -1.6059  1.7278
  123SOPE   HN213049   3.321   4.314   2.154  0.1704 -0.4158 -1.5371
  123SOPE   HN313050   3.458   4.345   2.256  0.5754  1.1001 -0.1909
  123SOPE   C1213051   3.498   4.344   2.047  0.2104  0.0656  0.6149
  123SOPE  H12A13052   3.559   4.437   2.035  1.5317 -1.0204 -1.9864
  123SOPE  H12B13053   3.427   4.339   1.961  1.3532 -0.4785 -0.3298
  123SOPE   C1113054   3.577   4.214   2.052 -0.2279  0.2005  0.6072
  123SOPE  H11A13055   3.614   4.180   1.952 -1.0043  0.9676  0.0375
  123SOPE  H11B13056   3.502   4.137   2.077 -0.7566  0.0188 -1.3295
  123SOPE     P13057   3.824   4.289   2.108  0.2970  0.2699 -0.0114
  123SOPE   O1313058   3.804   4.367   1.984  0.3819 -0.0806  0.0200
  123SOPE   O1413059   3.938   4.195   2.107  0.9567 -0.0892 -0.0001
  123SOPE   O1213060   3.682   4.224   2.158  0.3480  0.2851 -0.0291
  123SOPE   O1113061   3.840   4.394   2.222 -0.4785  0.3893  0.0079
  123SOPE    C113062   3.782   4.387   2.347 -0.3732 -0.3577 -0.2373
  123SOPE    HA13063   3.738   4.290   2.379  0.0623 -0.7771 -0.8973
  123SOPE    HB13064   3.702   4.464   2.343 -0.2918 -0.3053 -1.1630
  123SOPE    C213065   3.880   4.425   2.462 -0.3195  0.1878  0.5928
  123SOPE    HS13066   3.944   4.337   2.486 -0.4786 -0.6070 -1.6772
  123SOPE   O2113067   3.809   4.474   2.579 -1.0031  0.4982 -0.2100
  123SOPE   C2113068   3.750   4.379   2.648  0.3509  0.4921 -0.7675
  123SOPE   O2213069   3.742   4.261   2.621 -0.1198  0.6002  0.1029
  123SOPE   C2213070   3.738   4.435   2.790  0.4609  0.0027 -0.2395
  123SOPE   H2R13071   3.710   4.542   2.782  1.5702  0.1868 -2.4148
  123SOPE   H2S13072   3.837   4.450   2.838 -0.5617  2.8393  1.2336
  123SOPE    C313073   3.997   4.523   2.421 -0.0842  0.2469 -0.0237
  123SOPE    HX13074   3.949   4.596   2.352 -1.7479 -0.3005  0.5155
  123SOPE    HY13075   4.067   4.455   2.367 -0.4331 -0.0464 -0.1102
  123SOPE   O3113076   4.062   4.594   2.528 -0.0782 -0.5253  0.2589
  123SOPE   C3113077   4.180   4.551   2.569 -0.3829  0.0831  0.3613
  123SOPE   O3213078   4.239   4.453   2.524 -0.4441  0.4278 -0.3991
  123SOPE   C3213079   4.219   4.651   2.683 -0.7815 -0.0048 -1.0291
  123SOPE   H2X13080   4.328   4.633   2.694 -0.9919 -1.7583 -1.5559
  123SOPE   H2Y13081   4.173   4.617   2.778 -1.5869  0.1600 -1.3454
  123SOPE   C2313082   3.653   4.352   2.890  0.0340 -0.1548  0.5380
  123SOPE   H3R13083   3.705   4.256   2.910 -1.2798 -1.4226 -1.7394
  123SOPE   H3S13084   3.559   4.324   2.839  1.6094 -0.9481 -2.1536
  123SOPE   C2413085   3.629   4.434   3.013 -0.7180 -0.0319 -0.8754
  123SOPE   H4R13086   3.724   4.461   3.064 -0.5866  0.8858 -1.5966
  123SOPE   H4S13087   3.576   4.528   2.990 -1.5272  0.0288  1.0694
  123SOPE   C2513088   3.548   4.352   3.111 -0.3265  0.1416 -0.2395
  123SOPE   H5R13089   3.453   4.318   3.064 -0.8664 -1.3643  1.7668
  123SOPE   H5S13090   3.604   4.268   3.157  2.9790  1.6348 -1.2546
  123SOPE   C2613091   3.500   4.432   3.234  0.4755  0.1421 -0.4409
  123SOPE   H6R13092   3.583   4.497   3.269  0.5103 -0.4058  0.5172
  123SOPE   H6S13093   3.408   4.494   3.226  1.3893  1.5987 -0.0754
  123SOPE   C2713094   3.468   4.347   3.351 -0.0479  0.0820 -0.2404
  123SOPE   H7R13095   3.409   4.257   3.323  1.2859 -0.6808 -0.6944
  123SOPE   H7S13096   3.559   4.296   3.391 -0.0212 -1.6105 -2.2748
  123SOPE   C2813097   3.409   4.411   3.477  0.1225 -0.3057 -0.0706
  123SOPE   H8R13098   3.442   4.352   3.565  2.2436  1.3264  0.2958
  123SOPE   H8S13099   3.465   4.506   3.490  1.3212 -0.7070 -1.9654
  123SOPE   C2913100   3.262   4.425   3.464 -0.8360  0.3002 -0.7861
  123SOPE   H9113101   3.238   4.432   3.357  0.7542  0.6003 -1.1586
  123SOPE  C21013102   3.177   4.431   3.563  0.3765 -0.0096  0.4712
  123SOPE  H10113103   3.071   4.430   3.531 -0.0225 -4.9905  1.1238
  123SOPE  C21113104   3.192   4.417   3.711 -0.7510 -0.2922 -0.4988
  123SOPE  H11R13105   3.267   4.338   3.732  0.9013  1.3654  0.0205
  123SOPE  H11S13106   3.099   4.377   3.757 -0.3480 -1.2431 -0.4924
  123SOPE  C21213107   3.240   4.537   3.799  0.0274 -0.7581  0.3000
  123SOPE  H12R13108   3.189   4.630   3.765  0.6561  0.0079  1.3749
  123SOPE  H12S13109   3.342   4.559   3.761  0.0321 -0.7062  0.3420
  123SOPE  C21313110   3.243   4.517   3.943 -0.0159 -0.3301 -0.0398
  123SOPE  H13R13111   3.321   4.439   3.948 -2.4312 -3.0802 -1.8112
  123SOPE  H13S13112   3.149   4.472   3.984 -1.3926  2.8167  0.5304
  123SOPE  C21413113   3.274   4.643   4.039  0.5610 -0.1622  0.3268
  123SOPE  H14R13114   3.191   4.716   4.041  0.6711  0.0296 -0.9023
  123SOPE  H14S13115   3.352   4.696   3.980 -0.0325  0.8467  0.4219
  123SOPE  C21513116   3.313   4.611   4.187  0.1077 -0.3781 -0.1777
  123SOPE  H15R13117   3.328   4.712   4.232  2.2723 -0.9829  0.5568
  123SOPE  H15S13118   3.414   4.565   4.194  0.2547  0.0029  0.2754
  123SOPE  C21613119   3.215   4.526   4.264 -0.7017  0.3679 -0.3029
  123SOPE  H16R13120   3.135   4.482   4.201  0.3322 -0.4189 -1.1156
  123SOPE  H16S13121   3.155   4.585   4.336 -2.9518 -1.9347 -0.1416
  123SOPE  C21713122   3.291   4.411   4.327  0.0037  0.3608  0.2465
  123SOPE  H17R13123   3.357   4.454   4.405 -0.4237  0.2872  0.6557
  123SOPE  H17S13124   3.351   4.362   4.248 -0.4495  2.0287 -1.2022
  123SOPE  C21813125   3.209   4.307   4.390  0.2743 -0.3642  0.4657
  123SOPE  H18R13126   3.275   4.224   4.422  0.2463 -0.7900 -0.5281
  123SOPE  H18S13127   3.151   4.264   4.305  1.5537 -0.5505 -0.3324
  123SOPE  H18T13128   3.157   4.345   4.481 -0.0643  0.1625  0.0564
  123SOPE   C3313129   4.184   4.804   2.666 -0.1353 -0.4147 -0.2391
  123SOPE   H3X13130   4.074   4.818   2.677 -0.2891 -0.6207 -1.3257
  123SOPE   H3Y13131   4.208   4.830   2.561  0.0527  0.5630  0.0388
  123SOPE   C3413132   4.258   4.901   2.750  0.0348 -0.4882 -0.6091
  123SOPE   H4X13133   4.217   5.003   2.733  0.7060  0.1292  1.2595
  123SOPE   H4Y13134   4.363   4.910   2.715  1.0715 -0.6631  2.2414
  123SOPE   C3513135   4.260   4.866   2.900 -0.5504  0.1484  0.6657
  123SOPE   H5X13136   4.315   4.770   2.911 -0.7854 -0.2182 -1.0430
  123SOPE   H5Y13137   4.159   4.843   2.941 -0.4485 -0.8886  0.3751
  123SOPE   C3613138   4.312   4.979   2.994  0.6517 -0.0550 -0.7852
  123SOPE   H6X13139   4.236   5.014   3.067  1.9661 -1.6310  1.4625
  123SOPE   H6Y13140   4.343   5.067   2.934  1.0011 -0.3988 -1.1078
  123SOPE   C3713141   4.418   4.930   3.093  0.1441  0.1497  0.2830
  123SOPE   H7X13142   4.518   4.927   3.044  0.1382  1.3411  0.1806
  123SOPE   H7Y13143   4.399   4.832   3.141  1.5545  1.0861  2.9606
  123SOPE   C3813144   4.444   5.041   3.200 -1.1589  0.3030  0.0435
  123SOPE   H8X13145   4.352   5.044   3.263 -0.4419 -0.0111  1.1246
  123SOPE   H8Y13146   4.444   5.136   3.143 -1.4480  0.3629  0.1414
  123SOPE   C3913147   4.580   5.018   3.271  0.2431  0.2888 -0.0528
  123SOPE   H9X13148   4.603   5.111   3.328  1.5653 -1.1960  1.9491
  123SOPE   H9Y13149   4.659   4.989   3.199  0.0919 -0.0874 -0.0661
  123SOPE  C31013150   4.580   4.903   3.379 -0.5005 -1.0979 -0.1865
  123SOPE  H10X13151   4.551   4.806   3.333  0.5873 -0.9761 -1.1828
  123SOPE  H10Y13152   4.505   4.934   3.455  0.9430  2.3272  0.0385
  123SOPE  C31113153   4.714   4.881   3.451  0.0021  0.0269 -0.7705
  123SOPE  H11X13154   4.768   4.974   3.479  0.6606 -0.5689 -0.0118
  123SOPE  H11Y13155   4.790   4.842   3.380  2.1115  1.0117  0.8267
  123SOPE  C31213156   4.701   4.785   3.565  0.6236  0.3840  0.0622
  123SOPE  H12X13157   4.800   4.765   3.612 -0.1744  0.4639  1.8825
  123SOPE  H12Y13158   4.679   4.686   3.519  1.5446  0.5458 -0.7509
  123SOPE  C31313159   4.602   4.819   3.670 -0.5100  0.0688 -0.2066
  123SOPE  H13X13160   4.501   4.816   3.623 -0.9640 -1.4158  0.7954
  123SOPE  H13Y13161   4.615   4.925   3.699 -2.1430  0.5382 -1.0736
  123SOPE  C31413162   4.612   4.727   3.793 -0.1084 -0.7889  0.2527
  123SOPE  H14X13163   4.718   4.707   3.818  0.2468  0.6148 -0.0467
  123SOPE  H14Y13164   4.571   4.628   3.763  0.7140 -1.4245  1.1839
  123SOPE  C31513165   4.547   4.791   3.912 -0.0250 -0.4019  0.2070
  123SOPE  H15X13166   4.448   4.826   3.877  0.1393 -1.3398 -1.2849
  123SOPE  H15Y13167   4.598   4.876   3.964 -1.9807 -0.8039  3.0328
  123SOPE  C31613168   4.518   4.675   4.016  0.3598  0.4045  0.3062
  123SOPE  H16X13169   4.621   4.643   4.044 -0.1631 -1.0265  0.6886
  123SOPE  H16Y13170   4.465   4.593   3.962 -0.4652  0.4827  0.9778
  123SOPE  C31713171   4.445   4.710   4.151 -0.0564  0.1709  0.4453
  123SOPE  H17X13172   4.357   4.771   4.121  0.9668  0.5777 -1.9998
  123SOPE  H17Y13173   4.509   4.772   4.218  1.7408 -3.4575  2.3603
  123SOPE  C31813174   4.411   4.588   4.233  0.0550 -0.1160  0.3285
  123SOPE  H18X13175   4.352   4.619   4.322  2.2578  0.5530  1.6338
  123SOPE  H18Y13176   4.502   4.534   4.267 -0.1238 -1.5772 -1.3560
  123SOPE  H18Z13177   4.344   4.514   4.184 -0.0669  0.2335 -0.0411
  124SOPE     N13178   6.854   6.444   2.374 -0.0063  0.3563 -0.0797
  124SOPE   HN113179   6.912   6.471   2.292  3.0356 -1.4067  1.2820
  124SOPE   HN213180   6.903   6.394   2.451  0.0286  1.4383  0.6306
  124SOPE   HN313181   6.794   6.372   2.330  0.9425 -0.4358 -0.1037
  124SOPE   C1213182   6.780   6.571   2.427 -0.1220  0.9280  0.3270
  124SOPE  H12A13183   6.849   6.655   2.405  1.3667 -0.3553 -0.0798
  124SOPE  H12B13184   6.755   6.546   2.533 -1.0038  0.7270  0.0798
  124SOPE   C1113185   6.650   6.574   2.339 -0.4288 -0.5796 -0.9542
  124SOPE  H11A13186   6.684   6.573   2.234  1.3950 -2.1501 -0.4163
  124SOPE  H11B13187   6.593   6.667   2.357  2.5313  1.0468  0.9891
  124SOPE     P13188   6.453   6.416   2.434 -0.0343  0.1175 -0.4077
  124SOPE   O1313189   6.425   6.270   2.422 -0.1835 -0.0208  0.1052
  124SOPE   O1413190   6.337   6.505   2.396 -0.3490 -0.0439 -0.0207
  124SOPE   O1213191   6.579   6.458   2.353  0.2716  0.4710 -0.1998
  124SOPE   O1113192   6.494   6.433   2.584  0.2843  0.3236 -0.5123
  124SOPE    C113193   6.433   6.529   2.671 -0.1657 -0.1805  0.4795
  124SOPE    HA13194   6.390   6.476   2.759 -1.4021 -0.6722 -0.4088
  124SOPE    HB13195   6.340   6.573   2.630 -0.3604  1.3304  2.3716
  124SOPE    C213196   6.540   6.631   2.719  0.0343 -0.6963 -0.5264
  124SOPE    HS13197   6.582   6.689   2.633 -0.3269  1.6400  0.7905
  124SOPE   O2113198   6.646   6.569   2.792  0.3632  0.5691 -0.3258
  124SOPE   C2113199   6.758   6.641   2.803 -0.0649  0.1432  0.3161
  124SOPE   O2213200   6.767   6.756   2.762 -0.1038 -0.1678 -0.7027
  124SOPE   C2213201   6.872   6.559   2.857  0.2935  0.2165  0.2835
  124SOPE   H2R13202   6.957   6.630   2.866 -0.7297  1.6515 -0.9338
  124SOPE   H2S13203   6.892   6.485   2.776 -2.2210 -0.7700  0.4707
  124SOPE    C313204   6.478   6.760   2.785  0.3189 -0.0331 -0.8712
  124SOPE    HX13205   6.393   6.797   2.723 -0.2439 -0.1871 -0.2080
  124SOPE    HY13206   6.556   6.839   2.790  1.8132 -1.5247  0.2950
  124SOPE   O3113207   6.436   6.748   2.924  0.4080 -0.8853  0.5191
  124SOPE   C3113208   6.310   6.788   2.958 -1.0616  0.3510 -0.0957
  124SOPE   O3213209   6.228   6.836   2.886 -0.2283 -0.1328  0.5305
  124SOPE   C3213210   6.284   6.761   3.107  0.4221 -0.2033 -0.0940
  124SOPE   H2X13211   6.350   6.826   3.168  0.7105 -1.2871  0.7725
  124SOPE   H2Y13212   6.315   6.658   3.136 -1.9827 -0.6432  1.1620
  124SOPE   C2313213   6.841   6.478   2.979 -0.4763  0.2098 -0.4006
  124SOPE   H3R13214   6.776   6.391   2.957  0.6501 -0.7200 -0.1586
  124SOPE   H3S13215   6.794   6.542   3.057 -0.8956 -0.6546  0.0702
  124SOPE   C2413216   6.968   6.416   3.045  0.4441 -0.4630  0.4354
  124SOPE   H4R13217   7.042   6.382   2.970  0.1220  0.3882 -0.2745
  124SOPE   H4S13218   7.021   6.489   3.110  1.1768 -0.1694 -0.4766
  124SOPE   C2513219   6.932   6.295   3.137 -1.0116 -0.2148 -0.4169
  124SOPE   H5R13220   6.890   6.222   3.064 -1.0074 -0.2785 -0.3553
  124SOPE   H5S13221   7.022   6.245   3.178 -0.7983  0.2297 -0.3401
  124SOPE   C2613222   6.827   6.326   3.241 -0.1324 -0.3343 -0.2947
  124SOPE   H6R13223   6.883   6.378   3.322 -0.2114  0.1212 -0.5288
  124SOPE   H6S13224   6.752   6.399   3.203 -0.8992 -1.1100 -0.2800
  124SOPE   C2713225   6.770   6.193   3.295 -0.0930 -0.8176  0.4246
  124SOPE   H7R13226   6.702   6.148   3.219 -0.4868  0.3652  0.0518
  124SOPE   H7S13227   6.859   6.128   3.308 -0.4637 -1.6121 -0.8212
  124SOPE   C2813228   6.697   6.208   3.428  0.2361 -0.2024  0.2312
  124SOPE   H8R13229   6.775   6.257   3.490 -0.9907  2.0484  0.0895
  124SOPE   H8S13230   6.613   6.281   3.425  0.7764  0.4074 -0.3723
  124SOPE   C2913231   6.650   6.069   3.484  0.5564 -0.2194  0.5709
  124SOPE   H9113232   6.632   5.993   3.406 -0.8177  0.4724  0.1787
  124SOPE  C21013233   6.621   6.048   3.613  0.2688 -0.2940 -0.0777
  124SOPE  H10113234   6.601   5.946   3.649 -1.3699 -0.3934 -1.1568
  124SOPE  C21113235   6.626   6.145   3.725  0.1357 -0.6996 -0.3798
  124SOPE  H11R13236   6.563   6.108   3.809 -0.7664  0.2368 -0.6214
  124SOPE  H11S13237   6.582   6.245   3.705  0.8005 -0.7075 -2.0157
  124SOPE  C21213238   6.762   6.165   3.792 -0.3784  0.7038  0.4975
  124SOPE  H12R13239   6.837   6.196   3.715  0.5746 -3.2055 -0.3735
  124SOPE  H12S13240   6.809   6.065   3.808  1.8992  1.6387  0.0324
  124SOPE  C21313241   6.780   6.249   3.919  1.1609  0.2184  0.1203
  124SOPE  H13R13242   6.740   6.352   3.906 -0.0856 -0.1374  0.9187
  124SOPE  H13S13243   6.887   6.261   3.947  1.9692 -3.0085 -1.2508
  124SOPE  C21413244   6.704   6.192   4.037  0.2318  0.1834  0.2229
  124SOPE  H14R13245   6.737   6.086   4.049  0.3560  0.3562  1.6066
  124SOPE  H14S13246   6.594   6.180   4.023 -0.0546  2.7792 -0.2808
  124SOPE  C21513247   6.742   6.268   4.164  0.3538 -0.6511  0.3142
  124SOPE  H15R13248   6.728   6.376   4.144  1.0217 -0.6870 -0.4239
  124SOPE  H15S13249   6.849   6.251   4.188  0.2868 -1.9076 -0.1950
  124SOPE  C21613250   6.660   6.227   4.289 -0.4922 -0.2239  0.1875
  124SOPE  H16R13251   6.695   6.125   4.318 -0.7238 -0.7762 -1.3650
  124SOPE  H16S13252   6.556   6.211   4.253 -0.5121  1.2731 -0.4976
  124SOPE  C21713253   6.664   6.328   4.404  0.0905 -0.5377  0.2602
  124SOPE  H17R13254   6.619   6.428   4.387  3.6115  1.0953 -0.6026
  124SOPE  H17S13255   6.771   6.350   4.424  0.2866 -1.8175  0.6923
  124SOPE  C21813256   6.601   6.261   4.525 -0.0070 -0.8964 -0.2764
  124SOPE  H18R13257   6.602   6.333   4.610 -0.8744 -0.9458 -0.2173
  124SOPE  H18S13258   6.655   6.169   4.556  1.8854 -0.8822 -3.1219
  124SOPE  H18T13259   6.495   6.247   4.498 -0.9736  0.0726  2.6328
  124SOPE   C3313260   6.132   6.771   3.133  0.8168  0.0714 -0.3802
  124SOPE   H3X13261   6.071   6.702   3.071 -1.3597 -0.5959  2.2933
  124SOPE   H3Y13262   6.100   6.872   3.099  1.6349  0.0753 -1.1575
  124SOPE   C3413263   6.098   6.755   3.283 -0.4707 -0.1068  0.0485
  124SOPE   H4X13264   6.076   6.649   3.308 -3.7629  0.5834  0.5122
  124SOPE   H4Y13265   5.999   6.803   3.299 -0.8778 -1.7045  2.8983
  124SOPE   C3513266   6.204   6.813   3.375 -0.5692  0.4559  0.3958
  124SOPE   H5X13267   6.226   6.918   3.346  0.1442  0.0669 -0.5054
  124SOPE   H5Y13268   6.295   6.750   3.360 -0.7500  0.3932 -0.4932
  124SOPE   C3613269   6.159   6.801   3.519 -0.0343  0.4493  0.3489
  124SOPE   H6X13270   6.158   6.696   3.556  3.0018  0.3040  0.2219
  124SOPE   H6Y13271   6.057   6.845   3.527 -0.8314 -1.0511 -1.0509
  124SOPE   C3713272   6.249   6.883   3.604 -1.0558 -0.3004  0.0954
  124SOPE   H7X13273   6.267   6.987   3.568  1.6108 -0.5278  0.5547
  124SOPE   H7Y13274   6.348   6.834   3.611 -1.2918 -0.8279 -0.2469
  124SOPE   C3813275   6.193   6.882   3.741  0.2152 -0.9022  0.2118
  124SOPE   H8X13276   6.190   6.780   3.784  3.2156 -1.3278 -0.3105
  124SOPE   H8Y13277   6.093   6.928   3.743 -0.2349 -1.8300  2.5183
  124SOPE   C3913278   6.286   6.944   3.842 -0.0042  0.6148 -0.1381
  124SOPE   H9X13279   6.298   7.049   3.809  1.7616  0.4230 -0.2296
  124SOPE   H9Y13280   6.388   6.900   3.851 -0.3936 -0.9131 -2.2337
  124SOPE  C31013281   6.230   6.956   3.983 -0.2899 -1.0340  0.0251
  124SOPE  H10X13282   6.218   6.860   4.038 -2.4697 -0.2896  0.9651
  124SOPE  H10Y13283   6.124   6.991   3.978 -0.4569 -0.2344  4.6921
  124SOPE  C31113284   6.300   7.050   4.084  0.0480 -0.4098  0.0946
  124SOPE  H11X13285   6.235   7.050   4.174  0.4444  0.2584  0.3935
  124SOPE  H11Y13286   6.306   7.156   4.054  2.1198  0.5580  3.3439
  124SOPE  C31213287   6.440   6.994   4.136  0.7528 -0.8764  1.1500
  124SOPE  H12X13288   6.493   6.969   4.042 -1.5245 -0.2438 -0.3752
  124SOPE  H12Y13289   6.435   6.899   4.194  2.1880 -0.7927  1.4546
  124SOPE  C31313290   6.505   7.111   4.212  0.3074  0.3024 -0.6221
  124SOPE  H13X13291   6.488   7.208   4.161 -0.8158  0.1222 -0.6248
  124SOPE  H13Y13292   6.614   7.091   4.215 -0.0436 -1.8160  2.1915
  124SOPE  C31413293   6.444   7.112   4.359 -0.4029 -0.4852 -0.4395
  124SOPE  H14X13294   6.436   7.007   4.396  2.0842 -0.5252  0.1888
  124SOPE  H14Y13295   6.340   7.148   4.346  0.2074  1.2090 -0.8758
  124SOPE  C31513296   6.522   7.200   4.451  0.4622 -0.0568  0.0970
  124SOPE  H15X13297   6.464   7.219   4.544 -0.4129 -0.9118 -0.2527
  124SOPE  H15Y13298   6.553   7.291   4.396 -1.0739  0.8704  0.6934
  124SOPE  C31613299   6.651   7.117   4.484 -0.3547 -0.0764 -0.5430
  124SOPE  H16X13300   6.715   7.098   4.395  0.3901  1.3797 -0.3532
  124SOPE  H16Y13301   6.626   7.016   4.524  0.7980 -0.3665 -0.5020
  124SOPE  C31713302   6.749   7.180   4.593  0.7161  0.2165 -0.1071
  124SOPE  H17X13303   6.693   7.189   4.689  0.7370  1.1398 -0.1682
  124SOPE  H17Y13304   6.784   7.280   4.560 -0.0329  0.7849  0.7685
  124SOPE  C31813305   6.854   7.077   4.631 -0.4476 -0.4800 -0.1479
  124SOPE  H18X13306   6.802   6.981   4.649  0.2046 -0.7182  0.4811
  124SOPE  H18Y13307   6.910   7.105   4.723  1.2903 -0.5167 -1.1608
  124SOPE  H18Z13308   6.924   7.070   4.546 -0.5026 -0.3448 -0.2062
  125SOPE     N13309   0.691   4.318   2.334  0.1651 -0.5499 -0.4831
  125SOPE   HN113310   0.696   4.386   2.255  1.3580  1.4233  1.1840
  125SOPE   HN213311   0.700   4.218   2.307  0.0332 -0.8292  0.4709
  125SOPE   HN313312   0.599   4.328   2.382  0.5972  2.6287 -0.0876
  125SOPE   C1213313   0.794   4.354   2.437 -0.3278 -0.8005 -0.0974
  125SOPE  H12A13314   0.871   4.409   2.380  1.2755 -1.1941  1.6277
  125SOPE  H12B13315   0.844   4.271   2.491  0.2415  1.0725  2.4463
  125SOPE   C1113316   0.712   4.433   2.538  0.1943 -0.2120  0.0175
  125SOPE  H11A13317   0.766   4.451   2.633 -0.2308  0.7020  0.0993
  125SOPE  H11B13318   0.625   4.372   2.569  0.5217 -1.7526 -1.9137
  125SOPE     P13319   0.563   4.635   2.531  0.6005 -0.1128 -0.4205
  125SOPE   O1313320   0.459   4.613   2.429 -0.7636 -0.2559  0.5163
  125SOPE   O1413321   0.595   4.768   2.571  0.5027  0.2252  0.5483
  125SOPE   O1213322   0.678   4.555   2.474  0.1675  0.3920 -0.0457
  125SOPE   O1113323   0.517   4.557   2.659  0.2341 -0.1496 -0.1830
  125SOPE    C113324   0.439   4.604   2.771  0.3053 -0.8482 -0.5700
  125SOPE    HA13325   0.355   4.669   2.738  1.4908  0.9518 -0.1712
  125SOPE    HB13326   0.509   4.663   2.834  0.1168 -1.8939  0.6638
  125SOPE    C213327   0.387   4.490   2.857 -0.6098  0.1953 -0.0670
  125SOPE    HS13328   0.277   4.489   2.840 -0.6378  2.2476 -0.2363
  125SOPE   O2113329   0.417   4.524   2.996  0.3954 -0.2418 -0.2200
  125SOPE   C2113330   0.345   4.619   3.055  0.0340  0.0920 -0.4815
  125SOPE   O2213331   0.268   4.686   2.995  0.0316 -0.5808 -0.2159
  125SOPE   C2213332   0.380   4.611   3.202  0.1655  0.3359  0.2166
  125SOPE   H2R13333   0.488   4.621   3.226 -0.2089  2.0702  1.4103
  125SOPE   H2S13334   0.358   4.509   3.240  0.6441  0.2021  0.1429
  125SOPE    C313335   0.448   4.357   2.813 -0.0600  0.8511 -0.3703
  125SOPE    HX13336   0.558   4.372   2.806  0.2828 -1.3051 -0.3077
  125SOPE    HY13337   0.421   4.337   2.707  2.4584 -0.5838 -0.8307
  125SOPE   O3113338   0.421   4.247   2.907  0.1591  0.1616 -0.4868
  125SOPE   C3113339   0.408   4.126   2.852 -0.4208  0.2662  0.1251
  125SOPE   O3213340   0.409   4.103   2.729  0.6692  0.3729  0.2216
  125SOPE   C3213341   0.404   4.021   2.959  0.5216 -0.3103  0.1098
  125SOPE   H2X13342   0.297   3.992   2.960  0.2455  0.6445 -0.7410
  125SOPE   H2Y13343   0.436   4.064   3.057  1.1700  0.3777 -0.3929
  125SOPE   C2313344   0.296   4.710   3.280 -0.3152  0.4514 -0.2079
  125SOPE   H3R13345   0.189   4.690   3.258  0.2274 -1.4009 -1.4072
  125SOPE   H3S13346   0.303   4.815   3.243 -2.6535  0.0555 -2.0472
  125SOPE   C2413347   0.323   4.700   3.436 -0.4300 -0.6786  0.7295
  125SOPE   H4R13348   0.255   4.627   3.484 -1.0506  0.4771  1.6549
  125SOPE   H4S13349   0.423   4.656   3.459 -1.3096 -2.1457  1.8818
  125SOPE   C2513350   0.312   4.828   3.516 -0.5728  0.1225  0.4041
  125SOPE   H5R13351   0.392   4.896   3.478 -0.3726 -0.4090 -0.1332
  125SOPE   H5S13352   0.219   4.879   3.484 -1.1954 -1.2951 -0.0852
  125SOPE   C2613353   0.330   4.812   3.663 -0.5217 -0.6767 -0.1548
  125SOPE   H6R13354   0.272   4.893   3.712  1.0317  1.0069 -0.9857
  125SOPE   H6S13355   0.288   4.717   3.703  3.1129 -2.2646  0.3116
  125SOPE   C2713356   0.481   4.824   3.700 -0.4881  0.0589  0.3291
  125SOPE   H7R13357   0.546   4.747   3.654  1.6425  2.5394 -1.0620
  125SOPE   H7S13358   0.519   4.915   3.649  1.8909 -0.6748  0.6941
  125SOPE   C2813359   0.497   4.824   3.851  0.0650 -0.0152  0.4891
  125SOPE   H8R13360   0.457   4.724   3.877  1.5123  0.0237  3.2548
  125SOPE   H8S13361   0.605   4.829   3.877  0.0103  1.1655  0.5498
  125SOPE   C2913362   0.431   4.939   3.932  0.2342 -0.0968  0.6738
  125SOPE   H9113363   0.452   5.041   3.898 -0.8098 -0.6827 -2.0471
  125SOPE  C21013364   0.330   4.916   4.018  0.3176 -0.1692  1.0046
  125SOPE  H10113365   0.285   5.005   4.062  1.7520  0.4607  1.2456
  125SOPE  C21113366   0.273   4.786   4.058  0.0006  0.5797 -0.0968
  125SOPE  H11R13367   0.325   4.701   4.009  0.4317  1.9050 -2.0151
  125SOPE  H11S13368   0.171   4.770   4.017  0.6616 -1.2098 -1.1871
  125SOPE  C21213369   0.272   4.768   4.214 -0.1606 -0.0282  0.2697
  125SOPE  H12R13370   0.379   4.766   4.244  0.1722 -0.1897 -0.8620
  125SOPE  H12S13371   0.241   4.662   4.229  1.2562 -0.4654  0.2271
  125SOPE  C21313372   0.176   4.865   4.288  0.1280  0.3352  0.0342
  125SOPE  H13R13373   0.092   4.795   4.309  2.2396 -1.7374  2.1636
  125SOPE  H13S13374   0.139   4.942   4.217 -0.1452  1.7501  1.6317
  125SOPE  C21413375   0.238   4.931   4.409 -0.2267 -0.3566 -0.6694
  125SOPE  H14R13376   0.303   5.017   4.381 -1.6416  0.9671 -0.0524
  125SOPE  H14S13377   0.298   4.850   4.456 -2.2725 -2.8020 -2.0544
  125SOPE  C21513378   0.132   4.983   4.502  0.2524 -0.0208  0.0739
  125SOPE  H15R13379   0.079   4.903   4.558 -0.4083  1.7062  2.0563
  125SOPE  H15S13380   0.066   5.051   4.443 -0.3215 -1.1386 -0.6012
  125SOPE  C21613381   0.205   5.050   4.625 -0.9911  0.2838  0.2011
  125SOPE  H16R13382   0.273   5.125   4.578  0.7626 -2.0826 -1.2327
  125SOPE  H16S13383   0.273   4.975   4.670  0.4500  1.3748 -0.0809
  125SOPE  C21713384   0.116   5.115   4.730  0.6040  0.3423  0.5793
  125SOPE  H17R13385   0.050   5.034   4.769 -1.2337  1.4092 -0.1836
  125SOPE  H17S13386   0.049   5.189   4.681  0.0483 -0.1394  0.6028
  125SOPE  C21813387   0.179   5.178   4.856 -0.0294 -0.5044 -0.3242
  125SOPE  H18R13388   0.277   5.130   4.880  0.1687  0.3680  0.7201
  125SOPE  H18S13389   0.112   5.154   4.941  0.3802 -0.2848  0.0690
  125SOPE  H18T13390   0.187   5.288   4.847  1.0503 -0.2367  2.6118
  125SOPE   C3313391   0.493   3.896   2.930 -0.0021 -0.1451 -0.3413
  125SOPE   H3X13392   0.598   3.928   2.910  1.0321 -0.7282  3.3883
  125SOPE   H3Y13393   0.444   3.857   2.839  1.3119  1.6323 -1.8969
  125SOPE   C3413394   0.491   3.811   3.054 -0.2061  0.1049 -0.1350
  125SOPE   H4X13395   0.389   3.770   3.065  0.3209 -1.1130  0.3082
  125SOPE   H4Y13396   0.512   3.880   3.139  0.1354  0.4832 -0.5155
  125SOPE   C3513397   0.601   3.707   3.051 -0.2188  0.0080  0.5123
  125SOPE   H5X13398   0.698   3.738   3.006  0.1734 -0.2222  1.1755
  125SOPE   H5Y13399   0.556   3.629   2.985 -0.5616  1.3397 -0.8671
  125SOPE   C3613400   0.622   3.640   3.187 -0.8593 -0.6922  0.6494
  125SOPE   H6X13401   0.688   3.552   3.172 -0.9097 -0.9000  1.5545
  125SOPE   H6Y13402   0.525   3.602   3.227 -1.3679  0.4579  0.5545
  125SOPE   C3713403   0.699   3.734   3.289 -0.1004 -0.6392 -0.0455
  125SOPE   H7X13404   0.653   3.834   3.300  2.4315  0.4835  1.0249
  125SOPE   H7Y13405   0.796   3.758   3.242 -0.6374  0.7701 -0.4985
  125SOPE   C3813406   0.714   3.670   3.428  0.2849 -0.4000  0.1560
  125SOPE   H8X13407   0.770   3.743   3.490 -0.4101  0.5623 -0.3158
  125SOPE   H8Y13408   0.779   3.580   3.419  3.1674  1.6526 -1.0998
  125SOPE   C3913409   0.584   3.652   3.500  0.1217 -0.2710 -0.5168
  125SOPE   H9X13410   0.516   3.571   3.466  1.1136 -2.2032  1.7574
  125SOPE   H9Y13411   0.524   3.745   3.492 -0.5765 -0.8326 -2.2571
  125SOPE  C31013412   0.620   3.615   3.645 -0.1944 -1.0977  0.3267
  125SOPE  H10X13413   0.675   3.692   3.703  1.6684 -0.0144 -2.6682
  125SOPE  H10Y13414   0.690   3.529   3.654 -0.4968 -1.1991  1.8860
  125SOPE  C31113415   0.489   3.587   3.724 -0.1694  0.4075  0.0958
  125SOPE  H11X13416   0.410   3.559   3.651 -0.2748 -1.8941  1.0145
  125SOPE  H11Y13417   0.439   3.674   3.771 -2.1816 -0.5291 -0.1939
  125SOPE  C31213418   0.510   3.466   3.819 -0.4024  0.6374 -0.3732
  125SOPE  H12X13419   0.585   3.494   3.895  0.0975 -1.0237 -0.2022
  125SOPE  H12Y13420   0.537   3.375   3.761  2.7611  1.3297 -0.1568
  125SOPE  C31313421   0.381   3.434   3.894  0.7961 -0.2085 -0.3359
  125SOPE  H13X13422   0.302   3.400   3.824  2.4611 -0.1837 -2.3095
  125SOPE  H13Y13423   0.337   3.525   3.941  0.4824  1.1371 -3.0296
  125SOPE  C31413424   0.388   3.315   3.986 -0.7154  1.1165 -0.4984
  125SOPE  H14X13425   0.450   3.339   4.075 -0.5943 -1.1184  0.0850
  125SOPE  H14Y13426   0.444   3.236   3.932 -2.4693  0.5574 -1.5953
  125SOPE  C31513427   0.249   3.265   4.037  0.1101 -0.1524 -0.7771
  125SOPE  H15X13428   0.181   3.239   3.953 -1.2357 -1.2917  0.6018
  125SOPE  H15Y13429   0.193   3.345   4.089 -0.2300 -0.7807 -0.1450
  125SOPE  C31613430   0.254   3.144   4.122 -0.0628  0.0194 -0.3889
  125SOPE  H16X13431   0.335   3.154   4.198 -0.2187 -0.1121 -0.2018
  125SOPE  H16Y13432   0.289   3.059   4.060 -0.9823 -1.2233  0.7194
  125SOPE  C31713433   0.122   3.106   4.191 -0.9174  0.3449 -0.2167
  125SOPE  H17X13434   0.047   3.083   4.112 -1.4102 -0.4878  0.4691
  125SOPE  H17Y13435   0.094   3.196   4.251  2.0538 -0.2343  2.2691
  125SOPE  C31813436   0.128   2.973   4.273  0.4446 -0.5779 -0.4309
  125SOPE  H18X13437   0.022   2.943   4.287  0.8845 -1.1192  2.1667
  125SOPE  H18Y13438   0.181   2.984   4.369 -0.3402 -0.0254 -0.0459
  125SOPE  H18Z13439   0.183   2.897   4.213 -1.3726 -1.3342 -1.2313
  126SOPE     N13440   1.038   1.463   2.495  0.4478 -0.4292 -0.0489
  126SOPE   HN113441   1.100   1.386   2.527  2.0816  0.3503 -1.1323
  126SOPE   HN213442   0.961   1.419   2.441 -1.4447  1.4522  0.9856
  126SOPE   HN313443   1.090   1.518   2.423 -2.0347  1.5057 -0.4808
  126SOPE   C1213444   0.979   1.533   2.619  0.3595 -0.4622  1.1529
  126SOPE  H12A13445   1.064   1.587   2.666 -1.5214  1.6636  2.2984
  126SOPE  H12B13446   0.930   1.454   2.680 -1.8325  0.6667  0.9707
  126SOPE   C1113447   0.867   1.628   2.579 -0.2619  0.1446  0.0159
  126SOPE  H11A13448   0.909   1.702   2.508 -0.0779 -0.6640 -0.7383
  126SOPE  H11B13449   0.847   1.687   2.671  2.2424  0.8810  0.1572
  126SOPE     P13450   0.636   1.635   2.465 -0.4130  0.2542 -0.1375
  126SOPE   O1313451   0.508   1.565   2.492 -0.5525 -0.1990 -0.7329
  126SOPE   O1413452   0.673   1.663   2.323 -0.6733  0.3969  0.5287
  126SOPE   O1213453   0.749   1.557   2.541 -0.2975 -0.2457  0.1581
  126SOPE   O1113454   0.634   1.773   2.544  0.3140 -0.0498  0.4749
  126SOPE    C113455   0.577   1.789   2.668  0.4835  0.2599 -0.0505
  126SOPE    HA13456   0.637   1.852   2.737 -0.1999 -0.8016  1.5617
  126SOPE    HB13457   0.550   1.696   2.722 -0.7769 -0.6492 -2.1116
  126SOPE    C213458   0.435   1.867   2.653 -0.3286 -0.7566  0.4337
  126SOPE    HS13459   0.368   1.810   2.586  1.5116 -0.6757 -1.5778
  126SOPE   O2113460   0.456   2.001   2.606 -0.4197  0.3554 -0.1070
  126SOPE   C2113461   0.472   2.020   2.475  0.2880 -0.2194 -0.0716
  126SOPE   O2213462   0.437   1.938   2.393 -0.0278  0.2034 -0.2408
  126SOPE   C2213463   0.515   2.172   2.453  0.5548 -0.8227  0.6074
  126SOPE   H2R13464   0.505   2.178   2.343 -3.4409 -2.4809  0.7319
  126SOPE   H2S13465   0.621   2.182   2.484  1.5705 -4.3282 -1.2625
  126SOPE    C313466   0.351   1.889   2.789 -0.3888 -0.0835 -0.4864
  126SOPE    HX13467   0.251   1.935   2.770 -0.8479  0.3397  2.5072
  126SOPE    HY13468   0.409   1.963   2.848 -0.8611  0.1750 -0.3384
  126SOPE   O3113469   0.348   1.762   2.852  0.2686 -0.3465 -0.0928
  126SOPE   C3113470   0.258   1.680   2.811  0.1548 -1.1909  0.4806
  126SOPE   O3213471   0.175   1.708   2.727  0.3963  0.2353  0.5832
  126SOPE   C3213472   0.272   1.540   2.876 -0.1157  0.0402  0.5456
  126SOPE   H2X13473   0.291   1.472   2.790  2.2662  0.0614  0.9876
  126SOPE   H2Y13474   0.177   1.501   2.918 -1.1644 -0.0740 -1.7612
  126SOPE   C2313475   0.421   2.278   2.524 -1.2164  0.1545 -0.6075
  126SOPE   H3R13476   0.312   2.257   2.521 -1.5296  1.5614  0.1888
  126SOPE   H3S13477   0.440   2.360   2.451  1.4433 -0.9363 -1.2808
  126SOPE   C2413478   0.475   2.320   2.662  0.0705 -0.0893 -0.1389
  126SOPE   H4R13479   0.466   2.237   2.736  0.1823  0.2200  0.2230
  126SOPE   H4S13480   0.584   2.331   2.645  0.0233  0.0064 -0.3893
  126SOPE   C2513481   0.414   2.451   2.725 -0.5060 -0.4349 -0.8027
  126SOPE   H5R13482   0.408   2.531   2.647  1.3244 -0.3698 -0.9351
  126SOPE   H5S13483   0.309   2.425   2.749 -0.8368 -0.9675 -2.6206
  126SOPE   C2613484   0.489   2.525   2.840  0.3908  0.1968 -0.4926
  126SOPE   H6R13485   0.588   2.557   2.800  0.0466 -2.1682 -3.5692
  126SOPE   H6S13486   0.425   2.611   2.869 -2.6684 -2.5932  1.7886
  126SOPE   C2713487   0.518   2.438   2.963  0.2380  0.1108 -0.3839
  126SOPE   H7R13488   0.420   2.424   3.012  0.1502  0.9243 -0.3087
  126SOPE   H7S13489   0.552   2.333   2.951  1.3356  0.0171  2.6932
  126SOPE   C2813490   0.616   2.512   3.062  0.2033  1.1001  0.4644
  126SOPE   H8R13491   0.621   2.448   3.153 -0.3923  0.3913  0.0131
  126SOPE   H8S13492   0.716   2.520   3.015  0.7736  1.9240  1.7712
  126SOPE   C2913493   0.549   2.643   3.111  0.3378  0.6788 -0.2753
  126SOPE   H9113494   0.536   2.724   3.038  1.1387  0.9747 -0.1061
  126SOPE  C21013495   0.511   2.662   3.240 -0.5151 -0.5743  0.7452
  126SOPE  H10113496   0.475   2.760   3.275  1.6919  0.7464 -0.4598
  126SOPE  C21113497   0.543   2.569   3.349  0.6639  0.9083  0.4307
  126SOPE  H11R13498   0.650   2.562   3.380 -0.0994  0.5340  3.2771
  126SOPE  H11S13499   0.507   2.473   3.308  1.0227  1.0343 -0.1995
  126SOPE  C21213500   0.460   2.606   3.476  0.6354  0.2333 -0.8159
  126SOPE  H12R13501   0.352   2.603   3.448  0.0902  0.7878  1.0424
  126SOPE  H12S13502   0.501   2.708   3.488  1.9859 -0.4136  0.3864
  126SOPE  C21313503   0.483   2.526   3.603  0.5561 -1.3223 -0.7765
  126SOPE  H13R13504   0.431   2.588   3.679  1.0693 -0.5813 -1.0222
  126SOPE  H13S13505   0.592   2.527   3.624  0.0655  0.0778  2.2409
  126SOPE  C21413506   0.415   2.381   3.606  0.4223 -0.4808 -0.3193
  126SOPE  H14R13507   0.431   2.335   3.706 -0.7562  0.7147  0.4590
  126SOPE  H14S13508   0.458   2.324   3.521 -0.1529  0.6213 -1.3880
  126SOPE  C21513509   0.265   2.392   3.580  0.3013  1.1019 -0.3782
  126SOPE  H15R13510   0.252   2.413   3.472  0.1982 -2.5893 -1.2437
  126SOPE  H15S13511   0.215   2.465   3.646 -1.8357  0.0742 -0.7631
  126SOPE  C21613512   0.183   2.255   3.593 -0.1779 -0.5013  0.0667
  126SOPE  H16R13513   0.183   2.226   3.700 -3.3006 -2.1702 -0.2728
  126SOPE  H16S13514   0.238   2.176   3.537 -0.1317 -0.6817  0.3681
  126SOPE  C21713515   0.039   2.263   3.548 -0.8322  0.5493 -0.3515
  126SOPE  H17R13516  -0.004   2.344   3.612 -0.7662  1.7087 -1.7184
  126SOPE  H17S13517  -0.021   2.174   3.578  1.0603 -0.1681  1.5240
  126SOPE  C21813518   0.011   2.286   3.403 -0.1812 -0.7928  0.4147
  126SOPE  H18R13519  -0.095   2.311   3.379 -0.0804  0.0671  0.8532
  126SOPE  H18S13520   0.025   2.193   3.343  1.4809  0.7384 -1.7485
  126SOPE  H18T13521   0.073   2.369   3.364 -0.5631  0.1487  1.7608
  126SOPE   C3313522   0.392   1.518   2.968 -0.1667  0.9252  0.1847
  126SOPE   H3X13523   0.488   1.556   2.926  0.7028  0.9467  2.0703
  126SOPE   H3Y13524   0.420   1.412   2.988 -0.8474  0.7139  0.0327
  126SOPE   C3413525   0.357   1.564   3.116 -0.1109  0.1962 -1.2328
  126SOPE   H4X13526   0.256   1.525   3.140  0.1483  0.5201  0.4545
  126SOPE   H4Y13527   0.356   1.675   3.114 -0.0142  0.3546  2.0062
  126SOPE   C3513528   0.458   1.518   3.221 -0.3455  0.4591 -0.9735
  126SOPE   H5X13529   0.568   1.535   3.216 -0.1512 -0.0411  0.8267
  126SOPE   H5Y13530   0.457   1.407   3.221 -0.3434  0.4594 -1.1644
  126SOPE   C3613531   0.404   1.544   3.365  0.0284 -0.0854 -0.4833
  126SOPE   H6X13532   0.301   1.505   3.381  0.8043 -2.5990 -1.1260
  126SOPE   H6Y13533   0.406   1.653   3.384  1.9717 -0.2903  0.7923
  126SOPE   C3713534   0.499   1.478   3.471  0.5989 -0.3944 -0.0321
  126SOPE   H7X13535   0.604   1.509   3.453  0.7047 -0.2982  0.7210
  126SOPE   H7Y13536   0.506   1.368   3.461  1.3482 -0.3049 -0.5393
  126SOPE   C3813537   0.461   1.507   3.616 -0.2032 -0.3177  0.4662
  126SOPE   H8X13538   0.361   1.464   3.636  0.0658 -1.2920 -0.1962
  126SOPE   H8Y13539   0.458   1.617   3.628  3.0811  0.1517 -1.6655
  126SOPE   C3913540   0.561   1.443   3.716 -0.4011 -0.1494  0.5497
  126SOPE   H9X13541   0.656   1.450   3.659 -1.5197  0.4174 -1.3535
  126SOPE   H9Y13542   0.544   1.335   3.736 -2.7621  0.0048 -0.2951
  126SOPE  C31013543   0.569   1.517   3.854  0.3817 -0.1101  0.2365
  126SOPE  H10X13544   0.590   1.624   3.834 -2.9336  0.5881 -0.2352
  126SOPE  H10Y13545   0.637   1.462   3.922 -0.7562 -1.8355  0.0323
  126SOPE  C31113546   0.434   1.519   3.929 -0.0759  0.1633  0.4920
  126SOPE  H11X13547   0.387   1.419   3.941  1.1819 -0.7710 -1.7117
  126SOPE  H11Y13548   0.360   1.568   3.862 -0.3928 -1.2004 -0.1903
  126SOPE  C31213549   0.441   1.589   4.064 -0.5302  0.2835 -0.0886
  126SOPE  H12X13550   0.482   1.691   4.053 -1.1435  0.4712 -0.7295
  126SOPE  H12Y13551   0.518   1.529   4.116  0.5083  1.2619 -0.4655
  126SOPE  C31313552   0.313   1.584   4.147 -0.2788  0.1164  0.3790
  126SOPE  H13X13553   0.286   1.477   4.161  0.9210 -0.5745 -1.9583
  126SOPE  H13Y13554   0.237   1.634   4.083  2.4000  0.2465 -3.0321
  126SOPE  C31413555   0.311   1.660   4.272 -0.2534 -0.0534 -0.0816
  126SOPE  H14X13556   0.346   1.764   4.254 -1.4564  0.1720 -1.3415
  126SOPE  H14Y13557   0.394   1.610   4.327 -0.0748 -0.9286 -1.0902
  126SOPE  C31513558   0.168   1.663   4.334  0.7423  0.8974  0.3819
  126SOPE  H15X13559   0.142   1.559   4.362 -0.7591  1.1340 -0.0089
  126SOPE  H15Y13560   0.097   1.678   4.249  0.1794 -0.3658  0.6132
  126SOPE  C31613561   0.145   1.764   4.445 -0.4206  0.5969 -0.2947
  126SOPE  H16X13562   0.036   1.760   4.469 -0.6910  0.9156 -1.4318
  126SOPE  H16Y13563   0.165   1.864   4.402 -1.0339  0.0280 -1.9765
  126SOPE  C31713564   0.229   1.723   4.572  0.4464  0.4215  0.7996
  126SOPE  H17X13565   0.335   1.738   4.544  0.9015 -1.7449  1.2122
  126SOPE  H17Y13566   0.209   1.618   4.601  2.4850  0.1853  1.4747
  126SOPE  C31813567   0.187   1.809   4.696 -0.9097  0.1020 -0.1920
  126SOPE  H18X13568   0.079   1.826   4.719 -0.7583 -0.9120  1.4066
  126SOPE  H18Y13569   0.236   1.909   4.686 -1.5462  0.3729 -0.6903
  126SOPE  H18Z13570   0.231   1.772   4.791  0.1333  0.6345 -0.4492
  127SOPE     N13571   4.054   2.016   2.381  0.0888  0.5203  0.2187
  127SOPE   HN113572   4.121   2.007   2.301 -0.2624  1.2393 -0.1601
  127SOPE   HN213573   3.964   1.967   2.365 -0.6985  1.1635  2.3176
  127SOPE   HN313574   4.020   2.113   2.370  0.4125  0.4306 -1.9223
  127SOPE   C1213575   4.117   1.974   2.510  0.1080  0.4838 -0.2055
  127SOPE  H12A13576   4.170   1.878   2.494  1.0980  0.8441  0.7829
  127SOPE  H12B13577   4.041   1.960   2.590  0.4992  0.5553  0.1845
  127SOPE   C1113578   4.212   2.088   2.564 -0.4672  0.5359 -0.7292
  127SOPE  H11A13579   4.253   2.050   2.660  0.3303 -2.0019 -1.9732
  127SOPE  H11B13580   4.143   2.170   2.592  1.9109  2.1046  0.8450
  127SOPE     P13581   4.470   2.097   2.490  0.0797  0.0446 -0.2725
  127SOPE   O1313582   4.549   2.143   2.368  0.2336 -0.4821 -0.2360
  127SOPE   O1413583   4.489   1.952   2.521  0.4781 -0.2518  0.1948
  127SOPE   O1213584   4.315   2.119   2.470 -0.0232 -0.2564  0.1305
  127SOPE   O1113585   4.510   2.174   2.617 -0.0186 -0.4002 -0.6586
  127SOPE    C113586   4.637   2.149   2.679  0.1708  0.3773  0.5107
  127SOPE    HA13587   4.683   2.248   2.702 -0.0151 -0.1290  3.5114
  127SOPE    HB13588   4.712   2.111   2.607  0.6911  1.5327  0.4196
  127SOPE    C213589   4.645   2.060   2.808 -0.2968 -0.4826  0.0689
  127SOPE    HS13590   4.604   1.958   2.790 -1.7358  0.2673 -1.0646
  127SOPE   O2113591   4.567   2.125   2.902  0.2666  0.2947 -0.5657
  127SOPE   C2113592   4.439   2.105   2.915  0.2297  0.1854 -0.2644
  127SOPE   O2213593   4.378   2.014   2.860  0.0275  0.4980 -0.0178
  127SOPE   C2213594   4.372   2.201   3.013  0.5407  0.1436  0.6715
  127SOPE   H2R13595   4.275   2.228   2.966  0.2657  0.4913  1.4172
  127SOPE   H2S13596   4.429   2.296   3.002  1.5354 -0.6027 -0.9909
  127SOPE    C313597   4.784   2.054   2.872 -0.2739 -0.3904  0.6866
  127SOPE    HX13598   4.804   2.155   2.913 -1.6215 -0.1456  0.8137
  127SOPE    HY13599   4.859   2.041   2.791  1.5738  1.1400  2.0862
  127SOPE   O3113600   4.792   1.953   2.966  0.0268 -0.1018 -0.2935
  127SOPE   C3113601   4.800   1.823   2.921  0.4416  0.5124 -0.5667
  127SOPE   O3213602   4.799   1.789   2.804  0.4823 -1.0725  0.7073
  127SOPE   C3213603   4.811   1.736   3.053 -0.2489 -0.4137  0.2523
  127SOPE   H2X13604   4.844   1.802   3.136  0.1106  1.0970 -1.0426
  127SOPE   H2Y13605   4.891   1.660   3.044 -1.3320 -1.3819 -1.9720
  127SOPE   C2313606   4.344   2.154   3.161  0.3860  0.2173 -0.4405
  127SOPE   H3R13607   4.439   2.144   3.217 -0.3274  0.1895  0.8083
  127SOPE   H3S13608   4.293   2.057   3.177 -0.1008  0.6943  1.0744
  127SOPE   C2413609   4.251   2.254   3.228  0.4574  0.4739  0.5942
  127SOPE   H4R13610   4.303   2.350   3.247 -0.2363  0.4820  2.7107
  127SOPE   H4S13611   4.165   2.266   3.159  0.9815 -0.1407 -0.1829
  127SOPE   C2513612   4.204   2.216   3.370 -0.0739  0.3329  0.1366
  127SOPE   H5R13613   4.129   2.291   3.404  0.5450  2.1714 -2.3544
  127SOPE   H5S13614   4.140   2.126   3.358  0.4209 -0.3021  1.9191
  127SOPE   C2613615   4.316   2.216   3.475  0.2445 -0.0581  0.5456
  127SOPE   H6R13616   4.384   2.129   3.460 -1.7811 -1.7669  0.7751
  127SOPE   H6S13617   4.376   2.309   3.482  1.3957 -0.8524  2.0400
  127SOPE   C2713618   4.255   2.178   3.609 -0.5357 -0.0359  0.4762
  127SOPE   H7R13619   4.179   2.251   3.642 -0.5599  0.1748 -0.0383
  127SOPE   H7S13620   4.204   2.080   3.595 -0.1625 -0.0202 -1.2381
  127SOPE   C2813621   4.366   2.184   3.718 -0.8997 -0.3564  0.8849
  127SOPE   H8R13622   4.461   2.138   3.684  0.4983  3.2250 -0.6582
  127SOPE   H8S13623   4.396   2.288   3.744  0.5661 -0.9948  1.8875
  127SOPE   C2913624   4.319   2.115   3.838  0.4603  0.1591 -0.1334
  127SOPE   H9113625   4.216   2.077   3.832  0.2762  0.7369 -0.7476
  127SOPE  C21013626   4.389   2.113   3.952 -0.6709  0.0151  0.0052
  127SOPE  H10113627   4.344   2.060   4.038  0.3247 -1.7688 -0.5083
  127SOPE  C21113628   4.530   2.165   3.963  0.3457  0.3633  0.0033
  127SOPE  H11R13629   4.536   2.242   4.043 -1.1820 -1.5498  2.1226
  127SOPE  H11S13630   4.568   2.202   3.866 -0.9256  1.3198 -0.1541
  127SOPE  C21213631   4.616   2.053   4.028 -0.1110  0.0301 -0.1109
  127SOPE  H12R13632   4.722   2.084   4.020 -0.1707  0.5422  0.8606
  127SOPE  H12S13633   4.597   1.956   3.978 -1.5383  0.4766 -0.4594
  127SOPE  C21313634   4.592   2.042   4.179  0.0988  0.3278  0.0766
  127SOPE  H13R13635   4.487   2.061   4.209  0.5561  0.4516  1.6793
  127SOPE  H13S13636   4.638   2.137   4.215  2.8869 -0.7180 -0.4465
  127SOPE  C21413637   4.655   1.918   4.241 -0.0191  0.0285 -0.0477
  127SOPE  H14R13638   4.759   1.953   4.260 -0.1856  0.2940  0.3710
  127SOPE  H14S13639   4.655   1.831   4.170  1.2169 -0.8574  0.9888
  127SOPE  C21513640   4.604   1.871   4.381  0.2242  0.2463  0.2380
  127SOPE  H15R13641   4.507   1.821   4.359  1.0341 -0.8341 -1.0651
  127SOPE  H15S13642   4.590   1.960   4.445  0.6877  0.4947 -0.0017
  127SOPE  C21613643   4.686   1.770   4.453  0.1459  0.5766 -0.4674
  127SOPE  H16R13644   4.792   1.806   4.453 -0.1146  1.3805 -1.2552
  127SOPE  H16S13645   4.675   1.669   4.406 -0.3956 -0.1528  1.1655
  127SOPE  C21713646   4.631   1.763   4.597 -0.2475  0.5968 -0.1812
  127SOPE  H17R13647   4.523   1.737   4.593 -0.5873  2.0415 -0.9707
  127SOPE  H17S13648   4.639   1.860   4.651 -1.9365  0.6636 -0.0072
  127SOPE  C21813649   4.710   1.674   4.696 -0.2736  0.3784  0.9573
  127SOPE  H18R13650   4.817   1.704   4.694  0.0707 -0.7199  1.6241
  127SOPE  H18S13651   4.708   1.565   4.671 -0.4460  0.8050 -1.0697
  127SOPE  H18T13652   4.665   1.685   4.797 -0.4777 -0.6615  0.9876
  127SOPE   C3313653   4.672   1.683   3.088  0.5925 -0.6478 -0.7188
  127SOPE   H3X13654   4.676   1.616   3.176 -1.4782  0.7277  0.5033
  127SOPE   H3Y13655   4.641   1.625   2.998 -1.3838 -2.1889  0.8718
  127SOPE   C3413656   4.559   1.787   3.129 -0.3749  0.1681 -0.3711
  127SOPE   H4X13657   4.476   1.718   3.154  1.0268 -0.8252  1.8184
  127SOPE   H4Y13658   4.523   1.847   3.042  0.1230 -0.1999 -0.8369
  127SOPE   C3513659   4.585   1.881   3.245  1.0792 -0.1291 -0.6633
  127SOPE   H5X13660   4.490   1.918   3.287  1.6798 -0.5897  1.1900
  127SOPE   H5Y13661   4.641   1.974   3.220  0.7089  0.3210  0.1476
  127SOPE   C3613662   4.642   1.803   3.368 -0.3480 -0.1252  0.5779
  127SOPE   H6X13663   4.750   1.779   3.357 -0.7741 -1.9560  0.1135
  127SOPE   H6Y13664   4.596   1.703   3.386 -0.3296 -0.0497  1.0717
  127SOPE   C3713665   4.620   1.879   3.497 -0.0344 -0.2331 -0.2104
  127SOPE   H7X13666   4.509   1.887   3.505 -0.2830 -0.0553 -2.7566
  127SOPE   H7Y13667   4.659   1.980   3.471 -0.8375  0.0541 -0.3410
  127SOPE   C3813668   4.692   1.827   3.624  0.4684 -0.3351  0.4739
  127SOPE   H8X13669   4.670   1.895   3.709  1.7127  1.9699 -0.9598
  127SOPE   H8Y13670   4.799   1.839   3.598  0.2336  1.3722  0.1785
  127SOPE   C3913671   4.655   1.686   3.677  0.6920 -0.6200 -0.5124
  127SOPE   H9X13672   4.658   1.602   3.604  0.2765 -2.5066  1.5407
  127SOPE   H9Y13673   4.554   1.704   3.718  1.3162 -2.2886  2.0506
  127SOPE  C31013674   4.749   1.651   3.796  0.2052  0.2275  0.0201
  127SOPE  H10X13675   4.793   1.739   3.848 -0.3215 -0.4843  1.7550
  127SOPE  H10Y13676   4.839   1.601   3.756  1.4930  3.1614 -1.0540
  127SOPE  C31113677   4.683   1.570   3.907  0.0321  0.2202 -0.8682
  127SOPE  H11X13678   4.645   1.477   3.859  2.1359 -0.8777 -0.5224
  127SOPE  H11Y13679   4.588   1.623   3.930 -0.0467 -0.0968 -0.4435
  127SOPE  C31213680   4.781   1.534   4.018 -0.2819  0.8519  0.3280
  127SOPE  H12X13681   4.818   1.635   4.044  2.1240 -0.0035  0.4979
  127SOPE  H12Y13682   4.864   1.469   3.983 -0.8648  1.8569 -3.3759
  127SOPE  C31313683   4.716   1.464   4.132 -0.3076 -0.0032  0.2003
  127SOPE  H13X13684   4.690   1.364   4.091 -0.1785  0.5069 -1.1562
  127SOPE  H13Y13685   4.632   1.530   4.162  0.8538  1.7328 -0.2419
  127SOPE  C31413686   4.798   1.437   4.255 -0.2182 -0.2907  0.0153
  127SOPE  H14X13687   4.805   1.531   4.313  0.9349  1.4557 -2.7300
  127SOPE  H14Y13688   4.900   1.394   4.241 -0.3032 -1.4791  2.4092
  127SOPE  C31513689   4.721   1.325   4.338 -1.0776 -0.0084 -0.3215
  127SOPE  H15X13690   4.739   1.232   4.281 -0.4130 -0.1209  0.0572
  127SOPE  H15Y13691   4.613   1.348   4.337 -1.2007 -0.5698 -1.4864
  127SOPE  C31613692   4.772   1.295   4.485 -0.4116  0.3946  0.8595
  127SOPE  H16X13693   4.776   1.395   4.534 -1.5857 -0.1486  2.1280
  127SOPE  H16Y13694   4.872   1.246   4.481 -2.0084 -3.0849 -2.1609
  127SOPE  C31713695   4.677   1.187   4.541 -0.0627 -0.3682 -0.0137
  127SOPE  H17X13696   4.690   1.094   4.482  2.1464 -0.6137  0.7437
  127SOPE  H17Y13697   4.574   1.229   4.537  0.1589  0.1546 -0.4087
  127SOPE  C31813698   4.695   1.145   4.683  0.2865  0.1864 -0.3155
  127SOPE  H18X13699   4.697   1.233   4.751 -0.4898 -0.8835  1.1539
  127SOPE  H18Y13700   4.790   1.088   4.688 -1.0028 -1.9796  0.6549
  127SOPE  H18Z13701   4.612   1.076   4.710  1.2773 -0.9520 -0.1265
  128SOPE     N13702   3.813   6.641   2.429 -0.2750 -0.0601  0.5023
  128SOPE   HN113703   3.778   6.548   2.399 -0.6282 -0.2707  1.5236
  128SOPE   HN213704   3.898   6.670   2.376 -1.8653  1.5017 -1.3147
  128SOPE   HN313705   3.839   6.627   2.529 -1.3143 -1.6713  0.5834
  128SOPE   C1213706   3.701   6.742   2.399 -1.1722  0.9171 -0.6169
  128SOPE  H12A13707   3.622   6.730   2.476 -0.4859  0.1592 -0.0207
  128SOPE  H12B13708   3.671   6.724   2.293  0.7950 -0.2665 -1.0217
  128SOPE   C1113709   3.748   6.888   2.402  0.2789 -0.4377  0.6619
  128SOPE  H11A13710   3.797   6.901   2.501 -1.3305  2.0333  1.2151
  128SOPE  H11B13711   3.661   6.954   2.422  0.6381 -0.2011  1.5013
  128SOPE     P13712   3.899   7.064   2.293  0.0648 -0.3979  0.3988
  128SOPE   O1313713   3.795   7.170   2.282 -0.3921  1.2961  0.1613
  128SOPE   O1413714   3.998   7.060   2.185 -0.0595 -0.6586  0.1743
  128SOPE   O1213715   3.828   6.923   2.292  0.2730  0.1308  0.2558
  128SOPE   O1113716   3.966   7.071   2.434 -0.4270 -0.4473 -0.0773
  128SOPE    C113717   4.077   6.979   2.468  0.1180 -0.1172  0.4711
  128SOPE    HA13718   4.143   6.970   2.379 -0.1611  2.2609 -0.0510
  128SOPE    HB13719   4.037   6.878   2.489 -1.9450  0.3588 -0.9081
  128SOPE    C213720   4.156   7.041   2.588  0.4054  0.3166  0.7904
  128SOPE    HS13721   4.164   7.149   2.564  0.1745  0.3359  0.8062
  128SOPE   O2113722   4.285   6.987   2.620 -0.3877 -0.3582  0.4520
  128SOPE   C2113723   4.386   7.071   2.639 -0.7621  0.1587  0.4780
  128SOPE   O2213724   4.380   7.191   2.624 -0.0840  0.2119  0.4836
  128SOPE   C2213725   4.516   6.998   2.686 -0.0245  0.2237  0.0769
  128SOPE   H2R13726   4.562   7.066   2.761  0.0785  0.7465 -0.4504
  128SOPE   H2S13727   4.581   6.997   2.596 -1.8852  0.8277 -1.3443
  128SOPE    C313728   4.076   7.041   2.725 -0.0187  0.1571  0.0688
  128SOPE    HX13729   4.053   6.935   2.752 -1.6100  0.1600 -1.1177
  128SOPE    HY13730   3.975   7.086   2.715  0.0829  0.4394  0.3205
  128SOPE   O3113731   4.153   7.104   2.827  0.0852  0.6680 -0.0365
  128SOPE   C3113732   4.127   7.230   2.844  0.2692 -0.7623 -0.0813
  128SOPE   O3213733   4.047   7.296   2.780  1.0332  0.0655 -0.0378
  128SOPE   C3213734   4.217   7.286   2.954 -0.0795  0.0627 -0.0498
  128SOPE   H2X13735   4.280   7.364   2.906  0.0213 -0.3171 -0.5498
  128SOPE   H2Y13736   4.287   7.210   2.993  1.8316  0.7822 -1.8602
  128SOPE   C2313737   4.492   6.855   2.725 -0.1368 -0.7307  0.3956
  128SOPE   H3R13738   4.444   6.798   2.642  0.6391 -1.9661  0.7679
  128SOPE   H3S13739   4.414   6.854   2.804 -1.7798 -2.0422 -1.1348
  128SOPE   C2413740   4.622   6.792   2.774  0.1375 -0.1054 -0.5107
  128SOPE   H4R13741   4.697   6.790   2.692  0.5646  0.5126 -0.1392
  128SOPE   H4S13742   4.673   6.863   2.842  0.8072  0.2003 -1.3099
  128SOPE   C2513743   4.598   6.650   2.816  0.1012  0.0553  0.8398
  128SOPE   H5R13744   4.520   6.655   2.894  1.3681 -0.7548  2.2024
  128SOPE   H5S13745   4.550   6.586   2.739  2.1921 -1.5361  0.7555
  128SOPE   C2613746   4.727   6.582   2.870  0.1489 -0.1264  0.5855
  128SOPE   H6R13747   4.802   6.570   2.789  0.5825 -1.4358  1.1521
  128SOPE   H6S13748   4.773   6.635   2.955  0.3276  1.2386 -0.3248
  128SOPE   C2713749   4.700   6.431   2.908 -0.1096 -0.1324  0.1969
  128SOPE   H7R13750   4.615   6.434   2.980 -0.2565 -1.8964  0.1395
  128SOPE   H7S13751   4.670   6.365   2.824  1.6452 -0.7260  0.0021
  128SOPE   C2813752   4.822   6.373   2.981  0.1118  0.1941  0.1462
  128SOPE   H8R13753   4.903   6.348   2.909  0.9890 -0.0560  1.2032
  128SOPE   H8S13754   4.856   6.450   3.053 -0.3064  0.1273  0.4241
  128SOPE   C2913755   4.786   6.253   3.070 -0.5405  0.4718  0.0129
  128SOPE   H9113756   4.801   6.157   3.018 -0.1940  0.4159  0.2137
  128SOPE  C21013757   4.727   6.259   3.192  1.0661  0.1213 -0.4867
  128SOPE  H10113758   4.702   6.161   3.235  3.7254  0.1407  1.3810
  128SOPE  C21113759   4.692   6.384   3.276 -0.3633  0.0300  0.1467
  128SOPE  H11R13760   4.583   6.402   3.288 -0.4339 -0.0786 -0.2883
  128SOPE  H11S13761   4.717   6.479   3.224 -3.7606  0.9899  0.0123
  128SOPE  C21213762   4.774   6.390   3.406  0.0099  0.8266 -0.0212
  128SOPE  H12R13763   4.881   6.379   3.381 -0.0882 -0.6725  0.0979
  128SOPE  H12S13764   4.741   6.298   3.460 -2.9105  0.5739 -1.9681
  128SOPE  C21313765   4.746   6.508   3.495 -0.7922  0.0253 -0.5613
  128SOPE  H13R13766   4.637   6.504   3.517 -0.7034 -0.1549 -0.1350
  128SOPE  H13S13767   4.774   6.600   3.440 -1.3554  0.9001  0.5757
  128SOPE  C21413768   4.828   6.501   3.631 -0.0477  0.4647  0.3908
  128SOPE  H14R13769   4.935   6.499   3.600 -0.2109  0.6212 -0.1900
  128SOPE  H14S13770   4.807   6.408   3.688  3.1491  0.6618  2.1643
  128SOPE  C21513771   4.814   6.630   3.720 -0.3620  0.3950 -1.2166
  128SOPE  H15R13772   4.706   6.658   3.716 -0.2154  1.1195 -0.4809
  128SOPE  H15S13773   4.882   6.709   3.680 -0.9639  0.6430 -1.7794
  128SOPE  C21613774   4.852   6.599   3.865 -0.2298  0.8387  0.2391
  128SOPE  H16R13775   4.945   6.538   3.862 -0.5572  0.3831 -1.2084
  128SOPE  H16S13776   4.767   6.541   3.906 -0.1919 -1.0369 -2.1259
  128SOPE  C21713777   4.874   6.732   3.941  0.7293  0.1155 -0.1184
  128SOPE  H17R13778   4.806   6.807   3.895  1.3426  0.0640 -1.1338
  128SOPE  H17S13779   4.975   6.776   3.930  0.7889 -0.5816 -3.3706
  128SOPE  C21813780   4.842   6.732   4.094 -0.5597 -0.1217 -0.6999
  128SOPE  H18R13781   4.736   6.698   4.102 -0.1335 -1.1317  1.1117
  128SOPE  H18S13782   4.858   6.824   4.153 -1.7055 -1.4024  1.7421
  128SOPE  H18T13783   4.890   6.652   4.153  0.8697 -0.1628 -1.8532
  128SOPE   C3313784   4.141   7.346   3.063  0.5443 -0.2067 -0.5149
  128SOPE   H3X13785   4.092   7.270   3.128  4.4041 -0.1812  2.7283
  128SOPE   H3Y13786   4.066   7.420   3.026  0.9676  1.0170  0.9811
  128SOPE   C3413787   4.245   7.421   3.147 -0.2374  0.3136  0.2412
  128SOPE   H4X13788   4.314   7.475   3.079  2.0240 -1.1417  1.2525
  128SOPE   H4Y13789   4.305   7.340   3.195  0.8957  0.4418 -0.9060
  128SOPE   C3513790   4.215   7.508   3.271 -0.2699  0.8543  0.3980
  128SOPE   H5X13791   4.175   7.601   3.226 -0.7675  0.9988  1.1242
  128SOPE   H5Y13792   4.311   7.535   3.321  1.1434 -2.2179 -0.4086
  128SOPE   C3613793   4.101   7.448   3.360  0.1878  0.2202  0.0566
  128SOPE   H6X13794   4.145   7.367   3.422 -0.3502  0.4031  0.6944
  128SOPE   H6Y13795   4.021   7.410   3.293 -0.1052 -1.0816  1.0897
  128SOPE   C3713796   4.047   7.549   3.467  0.3502  0.7378  0.2949
  128SOPE   H7X13797   3.959   7.515   3.526 -0.8288  3.0164  0.0023
  128SOPE   H7Y13798   4.009   7.639   3.413  0.7964  0.0843 -1.1615
  128SOPE   C3813799   4.153   7.587   3.568  0.4266  0.1755  0.9186
  128SOPE   H8X13800   4.209   7.666   3.513  0.7393 -0.2722  0.5858
  128SOPE   H8Y13801   4.218   7.501   3.595  3.6988  1.3769 -2.1520
  128SOPE   C3913802   4.098   7.652   3.694  0.1890 -0.7709 -0.1598
  128SOPE   H9X13803   4.020   7.722   3.657 -0.1075 -0.0758  1.6696
  128SOPE   H9Y13804   4.174   7.714   3.745 -0.4959 -2.5418  3.3806
  128SOPE  C31013805   4.040   7.564   3.806  0.0695 -0.1186 -0.4156
  128SOPE  H10X13806   3.976   7.484   3.761 -0.1080 -0.6188  0.6891
  128SOPE  H10Y13807   3.979   7.624   3.877 -0.5415  0.7191 -1.6238
  128SOPE  C31113808   4.149   7.498   3.882 -1.0624  0.4365 -0.6897
  128SOPE  H11X13809   4.211   7.574   3.935 -0.3824 -0.5525 -0.0345
  128SOPE  H11Y13810   4.208   7.443   3.806  0.0167  0.8411 -0.1681
  128SOPE  C31213811   4.101   7.403   3.995 -0.2849  0.1017 -0.0449
  128SOPE  H12X13812   4.049   7.319   3.944  1.1496 -1.3098  0.7214
  128SOPE  H12Y13813   4.030   7.449   4.067 -0.2987 -1.8485  1.2633
  128SOPE  C31313814   4.208   7.328   4.086  0.1823  0.4469  0.7389
  128SOPE  H13X13815   4.276   7.276   4.015 -1.2408  0.0269 -0.3662
  128SOPE  H13Y13816   4.155   7.242   4.133 -1.9296 -0.2384 -2.5757
  128SOPE  C31413817   4.265   7.426   4.184 -0.2894  0.0783 -0.1090
  128SOPE  H14X13818   4.185   7.464   4.250  0.1568  1.6141 -0.4260
  128SOPE  H14Y13819   4.315   7.511   4.133 -0.4718 -0.4581 -1.2319
  128SOPE  C31513820   4.366   7.371   4.278  0.5773 -0.5432  0.5054
  128SOPE  H15X13821   4.463   7.366   4.222 -0.4133 -2.0950 -1.1868
  128SOPE  H15Y13822   4.343   7.265   4.301 -0.2364 -0.3458  0.6035
  128SOPE  C31613823   4.357   7.452   4.406  0.7728 -0.3505 -0.1418
  128SOPE  H16X13824   4.257   7.453   4.454 -0.3608 -0.0885 -2.3809
  128SOPE  H16Y13825   4.378   7.557   4.377  1.2254  0.0381  1.4577
  128SOPE  C31713826   4.465   7.409   4.508 -0.3868  0.4146 -0.1867
  128SOPE  H17X13827   4.562   7.441   4.464 -0.5240  2.1329  0.6995
  128SOPE  H17Y13828   4.463   7.298   4.503  0.0040  0.4410 -1.8351
  128SOPE  C31813829   4.442   7.447   4.653  0.3514 -0.4817 -0.0355
  128SOPE  H18X13830   4.351   7.397   4.695 -0.1089  1.2863  1.1945
  128SOPE  H18Y13831   4.426   7.556   4.664 -0.1509 -0.5228 -0.3444
  128SOPE  H18Z13832   4.531   7.415   4.711  0.3350 -1.3548 -0.4730
  129OSM      N13833   4.469   5.764   6.614  1.3128  0.0230  0.3315
  129OSM    C1513834   4.389   5.893   6.626  0.4105  1.3941  0.2072
  129OSM   H15A13835   4.382   5.920   6.521  2.7194 -0.6536 -0.5629
  129OSM   H15B13836   4.450   5.966   6.678  1.2392  0.9929 -0.1891
  129OSM   H15C13837   4.290   5.882   6.667  0.3746  0.9899  0.0138
  129OSM    C1413838   4.436   5.678   6.735 -0.4619 -0.1999 -0.5284
  129OSM   H14A13839   4.486   5.584   6.718  0.8521  0.5967 -1.1942
  129OSM   H14B13840   4.330   5.661   6.747 -0.3290 -0.2161  0.7198
  129OSM   H14C13841   4.470   5.721   6.828 -1.0445 -0.7971 -0.0262
  129OSM    C1313842   4.434   5.694   6.488 -0.2408  0.7682  0.3409
  129OSM   H13A13843   4.331   5.710   6.458 -0.5140 -1.5135 -0.0999
  129OSM   H13B13844   4.456   5.589   6.477  0.8032  1.0435 -0.3994
  129OSM   H13C13845   4.478   5.752   6.408 -3.0227  3.1906  0.3736
  129OSM    C1213846   4.616   5.794   6.611  0.7418 -0.8905  0.3108
  129OSM   H12A13847   4.624   5.867   6.531 -0.6416  0.5101  1.3861
  129OSM   H12B13848   4.674   5.706   6.587  1.0893  0.1385 -3.4197
  129OSM    C1113849   4.674   5.872   6.732 -0.7397  0.1240 -0.8454
  129OSM   H11A13850   4.783   5.870   6.711 -0.6467  1.9490 -0.7000
  129OSM   H11B13851   4.652   5.815   6.825  0.3429 -1.0359 -1.2698
  129OSM      P13852   4.688   6.121   6.662 -0.1062  0.2571  0.1333
  129OSM    O1313853   4.592   6.231   6.649 -0.1910 -0.2011 -0.1076
  129OSM    O1413854   4.821   6.155   6.723 -0.0049  0.0074  0.9434
  129OSM    O1113855   4.710   6.051   6.522  0.1416 -0.7255  0.2407
  129OSM    O1213856   4.621   6.003   6.751  0.4625  0.2490  0.4578
  129OSM    C1S13857   4.739   6.125   6.402 -0.3419 -0.6787  0.2689
  129OSM    H1S13858   4.693   6.226   6.395 -0.3137 -0.6280  0.7821
  129OSM    H1T13859   4.693   6.059   6.326 -3.7292  0.5380  1.0966
  129OSM     NF13860   4.933   6.240   6.286  0.1090  0.4389  0.1538
  129OSM    HNF13861   4.954   6.210   6.194 -1.2856 -1.2099  0.3225
  129OSM    C2S13862   4.891   6.128   6.378 -0.3421 -0.7366 -0.2562
  129OSM    H2S13863   4.936   6.139   6.480  0.7554  1.2878 -0.9073
  129OSM    C3S13864   4.930   5.993   6.325  1.2279 -0.0735 -0.3886
  129OSM    H3S13865   4.872   5.970   6.233 -1.3319  0.2518  1.0232
  129OSM     O313866   4.909   5.882   6.413  0.7441 -0.2342  0.1882
  129OSM    HO313867   4.847   5.916   6.478  2.1128  1.0672  0.8713
  129OSM    C4S13868   5.078   5.986   6.293  0.0399  0.3783  0.1988
  129OSM    H4S13869   5.138   6.000   6.384  0.1988 -0.5434  0.2387
  129OSM    C5S13870   5.142   5.969   6.170 -0.0343 -0.4951  0.3846
  129OSM    H5S13871   5.081   5.982   6.080  1.1429  0.7567 -0.2662
  129OSM    C6S13872   5.293   5.983   6.153 -0.1447 -0.0127  0.3580
  129OSM    H6S13873   5.354   5.890   6.151  0.4555  0.3433  1.4515
  129OSM    H6T13874   5.331   6.030   6.246  0.0246  0.8098 -0.1197
  129OSM    C7S13875   5.341   6.063   6.037  0.1974  0.4378 -0.0247
  129OSM    H7S13876   5.440   6.108   6.059 -0.9272  2.5133  1.1059
  129OSM    H7T13877   5.273   6.148   6.015 -0.1840  0.1676  0.0883
  129OSM    C8S13878   5.348   5.974   5.914  0.4767  0.1034  0.3092
  129OSM    H8S13879   5.251   5.925   5.891 -0.7484  1.7778  1.7087
  129OSM    H8T13880   5.408   5.882   5.926 -0.0922 -0.2090  0.8002
  129OSM    C9S13881   5.399   6.058   5.799  0.4682 -0.4307  0.7047
  129OSM    H9S13882   5.508   6.073   5.811  0.6139 -1.0964  0.2664
  129OSM    H9T13883   5.341   6.152   5.809 -0.1084 -0.7404  0.3325
  129OSM   C10S13884   5.372   6.007   5.661 -0.5169  0.3869 -0.3829
  129OSM   H10S13885   5.265   5.978   5.657 -0.2733 -0.8245  1.1565
  129OSM   H10T13886   5.436   5.916   5.650 -2.1456 -0.8456 -0.0505
  129OSM   C11S13887   5.407   6.101   5.556 -0.0842 -0.3872  0.4585
  129OSM   H11S13888   5.511   6.137   5.568 -0.1482 -0.5010  1.4427
  129OSM   H11T13889   5.344   6.193   5.554 -0.1810 -0.4517  0.4996
  129OSM   C12S13890   5.379   6.033   5.416 -0.3816 -0.4162 -0.1433
  129OSM   H12S13891   5.280   5.984   5.428 -2.1486  2.3865 -2.0040
  129OSM   H12T13892   5.460   5.959   5.400  0.8673  1.4135 -3.1790
  129OSM   C13S13893   5.370   6.122   5.291  0.4480 -0.1679  0.2754
  129OSM   H13S13894   5.441   6.205   5.310 -1.6549  1.0332  3.6497
  129OSM   H13T13895   5.266   6.160   5.295 -0.1717 -1.7555  0.1227
  129OSM   C14S13896   5.398   6.056   5.158 -0.4309 -0.1057 -0.0577
  129OSM   H14S13897   5.361   5.952   5.165  1.4063 -0.7017  1.4115
  129OSM   H14T13898   5.508   6.051   5.146 -0.4006 -0.3559  0.3284
  129OSM   C15S13899   5.356   6.143   5.036 -0.2206 -0.3868 -0.1871
  129OSM   H15S13900   5.379   6.250   5.054  2.1184 -1.2679  2.7613
  129OSM   H15T13901   5.245   6.135   5.025 -0.4026  1.7908 -0.3038
  129OSM   C16S13902   5.432   6.106   4.913 -0.6951  0.0464  0.6700
  129OSM   H16S13903   5.456   5.997   4.920  1.3674  0.5212  1.5300
  129OSM   H16T13904   5.526   6.164   4.910  0.3163 -1.5316  0.4708
  129OSM   C17S13905   5.352   6.131   4.784 -0.2405 -0.7637 -0.6307
  129OSM   H17S13906   5.305   6.231   4.790  0.4772 -0.5295  3.1452
  129OSM   H17T13907   5.264   6.062   4.776  0.5200 -1.8016 -0.2821
  129OSM   C18S13908   5.438   6.119   4.660  0.1497  0.0956  0.8149
  129OSM   H18S13909   5.371   6.099   4.573 -0.5822 -3.8076  2.0396
  129OSM   H18T13910   5.505   6.031   4.656 -1.0120 -0.8003 -0.0360
  129OSM   H18U13911   5.486   6.215   4.633  0.6490 -0.3004  0.2741
  129OSM    C1F13912   4.912   6.365   6.312  0.6208 -0.4591  0.1561
  129OSM     OF13913   4.908   6.397   6.431 -0.1265  0.2404  0.6522
  129OSM    C2F13914   4.911   6.458   6.194 -0.1408 -0.0326  0.0983
  129OSM    H2F13915   4.835   6.425   6.120 -1.9694 -0.6880  2.1611
  129OSM    H2G13916   5.009   6.442   6.145  0.0216 -1.3853  0.8237
  129OSM    C3F13917   4.907   6.610   6.230 -0.7213  0.0255 -0.0394
  129OSM    H3F13918   4.979   6.631   6.313 -1.2480  0.8484  0.2203
  129OSM    H3G13919   4.802   6.633   6.258  0.0909  1.7859  1.8681
  129OSM    C4F13920   4.948   6.695   6.108  0.0484  0.4726 -0.0919
  129OSM    H4F13921   4.872   6.681   6.027  1.2253  1.3795 -1.4049
  129OSM    H4G13922   5.043   6.652   6.072 -0.6104 -0.0305 -1.2850
  129OSM    C5F13923   4.959   6.849   6.136  0.1630 -0.1794  0.0704
  129OSM    H5F13924   4.872   6.884   6.195 -0.8126 -1.6244 -0.4730
  129OSM    H5G13925   4.957   6.900   6.038 -1.5734 -2.2808 -1.0798
  129OSM    C6F13926   5.097   6.871   6.208 -0.0680  0.0004  0.2155
  129OSM    H6F13927   5.168   6.799   6.162 -2.2074 -0.8454 -2.0440
  129OSM    H6G13928   5.083   6.851   6.316  1.1024 -1.3000  0.1546
  129OSM    C7F13929   5.149   7.017   6.191 -1.0874 -0.3290  0.2493
  129OSM    H7F13930   5.225   7.017   6.272 -0.0096  0.3936 -0.7444
  129OSM    H7G13931   5.065   7.085   6.220  0.0142  2.2889 -2.2478
  129OSM    C8F13932   5.215   7.035   6.056 -0.2905 -0.0639 -0.3159
  129OSM    H8F13933   5.137   7.020   5.978 -0.5325  0.2741 -0.1399
  129OSM    H8G13934   5.297   6.962   6.038 -0.9044 -0.4943 -1.5023
  129OSM    C9F13935   5.272   7.177   6.058 -0.2303 -0.6423  0.3352
  129OSM    H9F13936   5.212   7.254   6.109 -1.6806 -0.2651 -1.7997
  129OSM   C10F13937   5.385   7.210   6.002  0.1848 -0.2050 -0.0849
  129OSM   H10F13938   5.437   7.305   6.021  1.3417 -0.5409 -1.4007
  129OSM   C11F13939   5.486   7.120   5.942  0.1176  0.3471  0.1040
  129OSM   H11F13940   5.439   7.031   5.896 -1.1494  0.1606  1.6892
  129OSM   H11G13941   5.551   7.081   6.023 -0.0743 -0.3632 -0.0801
  129OSM   C12F13942   5.567   7.195   5.838 -0.0601  0.2883  0.4386
  129OSM   H12F13943   5.669   7.155   5.857 -0.5104 -0.5906  1.1056
  129OSM   H12G13944   5.575   7.302   5.868  0.7263  0.0145  1.2754
  129OSM   C13F13945   5.534   7.189   5.689  0.1416  0.5619 -0.5079
  129OSM   H13F13946   5.430   7.224   5.678 -0.6588 -0.7776  1.9203
  129OSM   H13G13947   5.533   7.081   5.660 -1.0401  1.1654 -3.0009
  129OSM   C14F13948   5.623   7.261   5.596  0.1677  0.3854 -0.1720
  129OSM   H14F13949   5.728   7.234   5.622  0.5764  1.4146 -0.6671
  129OSM   H14G13950   5.603   7.370   5.609  1.7104  0.7090 -0.2334
  129OSM   C15F13951   5.610   7.212   5.457  0.1949  0.1951 -0.0666
  129OSM   H15F13952   5.503   7.226   5.430 -0.6041 -2.6172  1.2119
  129OSM   H15G13953   5.626   7.102   5.452 -1.2831 -0.0568  0.1051
  129OSM   C16F13954   5.705   7.289   5.366  0.5128  0.2686  0.3298
  129OSM   H16F13955   5.804   7.240   5.381  0.1083 -1.1955 -1.4437
  129OSM   H16G13956   5.726   7.391   5.406 -1.9646 -0.2750  3.3778
  129OSM   C17F13957   5.667   7.283   5.212  0.3367 -0.2241 -0.6315
  129OSM   H17F13958   5.750   7.330   5.155  1.5966 -0.2939  1.0921
  129OSM   H17G13959   5.575   7.346   5.207 -0.1364 -0.9674 -1.8666
  129OSM   C18F13960   5.635   7.145   5.154  0.0903 -0.1704 -0.6614
  129OSM   H18F13961   5.584   7.156   5.057 -3.1656  2.1596  1.1340
  129OSM   H18G13962   5.580   7.084   5.230  0.1717  1.8169  1.0909
  129OSM   H18H13963   5.731   7.092   5.138 -0.6818 -2.0783  0.6079
  130OSM      N13964   0.803   0.636   6.732  0.0215 -0.3460 -0.5679
  130OSM    C1513965   0.911   0.687   6.646  0.1190  0.0107 -0.0675
  130OSM   H15A13966   0.960   0.606   6.594 -1.2604 -2.0371  1.6565
  130OSM   H15B13967   0.989   0.724   6.710  1.2413 -1.7238 -0.3584
  130OSM   H15C13968   0.879   0.762   6.574  3.7376  1.4735 -0.3786
  130OSM    C1413969   0.702   0.574   6.643  0.3265  0.7188  0.0752
  130OSM   H14A13970   0.670   0.642   6.566  0.3827  0.0724 -0.5261
  130OSM   H14B13971   0.611   0.545   6.694  0.2583  0.0163 -0.4217
  130OSM   H14C13972   0.729   0.480   6.598  0.3722 -0.3376  2.1742
  130OSM    C1313973   0.858   0.528   6.817  0.3617  0.2572 -0.4561
  130OSM   H13A13974   0.939   0.573   6.872 -0.6763  0.1750  1.2288
  130OSM   H13B13975   0.887   0.444   6.756  0.6366 -0.3350  0.4729
  130OSM   H13C13976   0.781   0.486   6.880  0.3379  0.8742 -0.0651
  130OSM    C1213977   0.737   0.744   6.830 -0.5620 -0.3636 -0.3505
  130OSM   H12A13978   0.812   0.777   6.900  1.3478 -1.6378 -1.6951
  130OSM   H12B13979   0.660   0.698   6.891  1.0041 -1.4560  0.9036
  130OSM    C1113980   0.684   0.874   6.766 -0.3640  0.4660  0.2853
  130OSM   H11A13981   0.768   0.891   6.695 -1.9831 -2.2567 -2.5180
  130OSM   H11B13982   0.666   0.957   6.838 -2.4304  0.3984 -0.0943
  130OSM      P13983   0.520   0.910   6.568 -0.0682  0.2394 -0.4429
  130OSM    O1313984   0.419   1.006   6.607  0.4912  0.1698  0.5753
  130OSM    O1413985   0.635   0.968   6.500 -0.1630 -0.2129 -0.2363
  130OSM    O1113986   0.468   0.795   6.470  0.7702 -0.1501 -0.6066
  130OSM    O1213987   0.568   0.826   6.693 -0.6278 -0.5183  0.3602
  130OSM    C1S13988   0.379   0.814   6.368  0.0578 -0.0689  0.1610
  130OSM    H1S13989   0.318   0.904   6.389  0.0462  0.3062 -1.3416
  130OSM    H1T13990   0.314   0.724   6.374  0.3855 -0.4536 -1.4485
  130OSM     NF13991   0.333   0.872   6.139  0.2964 -0.3022 -0.3268
  130OSM    HNF13992   0.263   0.809   6.107 -0.8310  0.9666 -0.4433
  130OSM    C2S13993   0.437   0.812   6.222  0.1924  0.0256  0.3712
  130OSM    H2S13994   0.527   0.878   6.219  0.3597 -0.2325 -1.6262
  130OSM    C3S13995   0.475   0.667   6.185  0.7717  0.0369 -0.4298
  130OSM    H3S13996   0.386   0.605   6.163  0.6399  0.3427 -0.7683
  130OSM     O313997   0.543   0.601   6.291  0.5227  0.2335  0.1283
  130OSM    HO313998   0.525   0.649   6.372 -0.6047 -1.2723  0.8259
  130OSM    C4S13999   0.559   0.666   6.060  0.4081 -0.0495  0.2776
  130OSM    H4S14000   0.667   0.665   6.082  0.1281 -1.1021  1.7654
  130OSM    C5S14001   0.509   0.662   5.934 -0.6922 -0.2767  0.6453
  130OSM    H5S14002   0.401   0.641   5.924 -0.8258  0.3091  0.8567
  130OSM    C6S14003   0.585   0.671   5.800  0.0851  0.0462  0.1159
  130OSM    H6S14004   0.695   0.651   5.803  0.0876 -0.3355 -1.3766
  130OSM    H6T14005   0.553   0.764   5.748 -0.0907 -0.7509 -1.2437
  130OSM    C7S14006   0.531   0.544   5.726  0.1304 -0.1040 -0.1191
  130OSM    H7S14007   0.422   0.534   5.746  0.1523 -0.3572 -0.1267
  130OSM    H7T14008   0.578   0.450   5.760  0.1602  0.0854  0.3707
  130OSM    C8S14009   0.536   0.549   5.576  0.7250 -0.6521  0.9708
  130OSM    H8S14010   0.494   0.640   5.529 -0.8770 -2.7549 -1.9622
  130OSM    H8T14011   0.484   0.465   5.526  1.0248 -0.0181 -0.4434
  130OSM    C9S14012   0.681   0.532   5.524 -0.0050 -0.4777 -0.6709
  130OSM    H9S14013   0.721   0.436   5.565  0.5709 -0.0557 -0.2319
  130OSM    H9T14014   0.755   0.609   5.555  0.7704 -0.3471 -2.6655
  130OSM   C10S14015   0.696   0.525   5.374  0.3998 -0.5560  0.8249
  130OSM   H10S14016   0.620   0.458   5.328  1.4679 -0.2241 -1.5784
  130OSM   H10T14017   0.791   0.470   5.360  0.6526 -0.0949  0.7068
  130OSM   C11S14018   0.692   0.662   5.315  0.0648 -0.4036 -0.1582
  130OSM   H11S14019   0.784   0.722   5.328 -0.1260 -0.1736  0.1369
  130OSM   H11T14020   0.608   0.726   5.350  1.5849  0.2307  2.5634
  130OSM   C12S14021   0.693   0.663   5.163  0.3089  0.4373  0.3092
  130OSM   H12S14022   0.594   0.629   5.125 -0.1120 -0.8472  2.3789
  130OSM   H12T14023   0.765   0.586   5.127 -1.5749 -0.3188 -2.0957
  130OSM   C13S14024   0.745   0.796   5.101  0.3926 -0.2257  0.4440
  130OSM   H13S14025   0.846   0.827   5.135  0.2296  0.1745  0.5770
  130OSM   H13T14026   0.670   0.865   5.145 -1.2770 -2.5032  1.3948
  130OSM   C14S14027   0.738   0.788   4.948  0.5207  0.4094 -0.1231
  130OSM   H14S14028   0.647   0.727   4.927  1.2416 -0.3073 -1.2274
  130OSM   H14T14029   0.833   0.749   4.908  1.2838 -0.1457  2.0721
  130OSM   C15S14030   0.703   0.924   4.891  0.2190  0.1225  0.0075
  130OSM   H15S14031   0.724   0.931   4.782  0.5437 -1.7294 -0.0768
  130OSM   H15T14032   0.757   1.003   4.948 -1.6456  0.2062  1.7584
  130OSM   C16S14033   0.557   0.959   4.895 -0.7034  0.0478 -0.1105
  130OSM   H16S14034   0.526   0.965   5.001  2.8918  0.9600  1.0200
  130OSM   H16T14035   0.494   0.889   4.836 -2.0240  1.0979 -0.0144
  130OSM   C17S14036   0.495   1.102   4.841 -1.0148 -0.1036 -0.5889
  130OSM   H17S14037   0.536   1.119   4.739  0.8945  1.2666  0.3503
  130OSM   H17T14038   0.522   1.179   4.917 -0.6435  1.1077 -1.9096
  130OSM   C18S14039   0.345   1.091   4.814  0.0209 -0.7057 -0.2990
  130OSM   H18S14040   0.320   1.049   4.715  0.6329 -0.8124 -0.4112
  130OSM   H18T14041   0.302   1.194   4.818  1.3367 -0.1569  1.0128
  130OSM   H18U14042   0.282   1.042   4.891 -2.3756  2.5358  0.0197
  130OSM    C1F14043   0.307   1.002   6.140 -0.3020 -0.0534 -0.2620
  130OSM     OF14044   0.368   1.081   6.219 -0.7630  0.3523 -0.5999
  130OSM    C2F14045   0.185   1.043   6.069  0.0559  0.2876  0.3704
  130OSM    H2F14046   0.129   1.114   6.133  0.5641  0.0009  1.1456
  130OSM    H2G14047   0.127   0.951   6.045 -1.1338  1.4945 -1.7456
  130OSM    C3F14048   0.233   1.112   5.939  0.3809 -0.5532 -0.4694
  130OSM    H3F14049   0.294   1.199   5.970 -1.5704  0.9642 -0.6674
  130OSM    H3G14050   0.140   1.160   5.900  0.2037 -1.4288 -1.1653
  130OSM    C4F14051   0.309   1.022   5.842 -0.1213 -0.4851 -0.4535
  130OSM    H4F14052   0.245   0.933   5.821 -2.9646  1.3621 -0.1958
  130OSM    H4G14053   0.406   0.990   5.885 -0.4648  0.4099  1.0359
  130OSM    C5F14054   0.337   1.087   5.703  0.5090 -0.2012  0.4482
  130OSM    H5F14055   0.404   1.010   5.660 -0.5524 -1.6263  1.2684
  130OSM    H5G14056   0.391   1.184   5.714  0.9862 -0.6000  1.9856
  130OSM    C6F14057   0.207   1.102   5.619  0.0755 -0.4951  0.5366
  130OSM    H6F14058   0.145   1.178   5.671 -1.8377 -2.6300  1.5768
  130OSM    H6G14059   0.140   1.013   5.618 -0.9864  0.1602  3.4139
  130OSM    C7F14060   0.226   1.141   5.475 -0.4014  0.0944 -0.3196
  130OSM    H7F14061   0.314   1.082   5.444 -1.3390 -0.7027 -1.5775
  130OSM    H7G14062   0.238   1.251   5.462 -2.3499  0.4088  0.1404
  130OSM    C8F14063   0.100   1.108   5.388 -0.4684 -0.2409  0.0020
  130OSM    H8F14064   0.005   1.138   5.438 -1.4588  0.7800 -2.3788
  130OSM    H8G14065   0.102   0.998   5.397 -2.5983 -0.2776  0.5979
  130OSM    C9F14066   0.098   1.120   5.239  0.2474 -0.0804 -0.4005
  130OSM    H9F14067   0.082   1.023   5.190 -0.1408 -0.5371  0.6150
  130OSM   C10F14068   0.134   1.234   5.169  0.1981  0.6474 -0.1069
  130OSM   H10F14069   0.126   1.235   5.059 -0.2784  1.5034 -0.0755
  130OSM   C11F14070   0.183   1.362   5.223 -0.4160 -0.5213 -0.8305
  130OSM   H11F14071   0.282   1.345   5.269 -0.8436 -1.4389 -0.2205
  130OSM   H11G14072   0.108   1.400   5.296 -0.9640  0.7027 -1.9802
  130OSM   C12F14073   0.190   1.479   5.118 -0.6554  0.3512 -0.5519
  130OSM   H12F14074   0.092   1.493   5.068 -1.4901 -0.2480  0.8787
  130OSM   H12G14075   0.278   1.447   5.057  2.1461 -0.3816  3.4595
  130OSM   C13F14076   0.241   1.614   5.174 -0.1527  0.4169  0.6454
  130OSM   H13F14077   0.344   1.600   5.212 -0.4213  2.2813  2.1659
  130OSM   H13G14078   0.200   1.654   5.269  0.9937  3.4121 -0.0118
  130OSM   C14F14079   0.257   1.728   5.077 -0.4784 -0.1368  0.9084
  130OSM   H14F14080   0.160   1.757   5.031 -0.6235 -0.9932  0.6653
  130OSM   H14G14081   0.319   1.696   4.990 -0.4685 -1.6217  1.4363
  130OSM   C15F14082   0.317   1.856   5.145  0.3876 -0.2556  0.3105
  130OSM   H15F14083   0.403   1.827   5.209  0.4548  0.1678  0.4178
  130OSM   H15G14084   0.240   1.900   5.212  0.4170  0.0321  0.1575
  130OSM   C16F14085   0.351   1.960   5.039 -0.3750  0.3081  0.0707
  130OSM   H16F14086   0.263   1.979   4.974 -1.1533 -1.8599  0.4137
  130OSM   H16G14087   0.433   1.923   4.974 -1.5573 -1.2516 -0.6039
  130OSM   C17F14088   0.407   2.093   5.101  0.0864  0.0498  0.0048
  130OSM   H17F14089   0.342   2.113   5.188 -1.4400 -4.0257  0.0107
  130OSM   H17G14090   0.416   2.178   5.030 -0.2125 -1.7968 -2.3757
  130OSM   C18F14091   0.548   2.061   5.158 -0.4207  0.1337  0.2476
  130OSM   H18F14092   0.547   1.999   5.249  1.5103  0.7777  0.7504
  130OSM   H18G14093   0.593   2.161   5.178 -0.1378 -0.2478  1.5837
  130OSM   H18H14094   0.616   2.025   5.077  1.2769 -0.0309  1.6895
  131OSM      N14095   5.714   3.186   6.236  0.5719 -0.0475 -0.2845
  131OSM    C1514096   5.723   3.131   6.094  0.1872  0.2299  0.5355
  131OSM   H15A14097   5.796   3.175   6.028 -0.9497  1.5061  0.0572
  131OSM   H15B14098   5.626   3.137   6.047  1.0265  2.0128 -1.1011
  131OSM   H15C14099   5.744   3.025   6.096  1.2374  0.3979 -0.7037
  131OSM    C1414100   5.850   3.165   6.292 -0.3395 -0.8686  0.2153
  131OSM   H14A14101   5.876   3.061   6.281  0.2587 -0.6438 -0.5890
  131OSM   H14B14102   5.850   3.206   6.392 -0.9053  0.5837 -0.3499
  131OSM   H14C14103   5.918   3.234   6.245 -1.3383  1.4565  1.9949
  131OSM    C1314104   5.693   3.333   6.229  0.2294  0.5211 -0.1915
  131OSM   H13A14105   5.707   3.383   6.324  0.4691 -0.0388  0.0773
  131OSM   H13B14106   5.588   3.351   6.216  0.3870 -0.2925 -3.4081
  131OSM   H13C14107   5.743   3.383   6.147 -1.3744  0.8681 -0.9870
  131OSM    C1214108   5.608   3.111   6.318 -0.1355 -0.5940 -0.3254
  131OSM   H12A14109   5.639   3.009   6.333  1.6880  0.0143  0.3037
  131OSM   H12B14110   5.512   3.107   6.268 -0.5414  0.7166  0.3013
  131OSM    C1114111   5.585   3.168   6.464  0.1676  1.2318  0.9769
  131OSM   H11A14112   5.687   3.167   6.509  0.4100 -1.0199  0.5093
  131OSM   H11B14113   5.526   3.088   6.513  0.9628 -0.5169 -0.7409
  131OSM      P14114   5.356   3.297   6.438 -0.1570  0.0912  0.4557
  131OSM    O1314115   5.292   3.225   6.546 -0.5546 -0.3405  0.1346
  131OSM    O1414116   5.303   3.430   6.412 -0.4915 -0.9174  0.7136
  131OSM    O1114117   5.320   3.202   6.314 -0.1510 -0.2452  0.5948
  131OSM    O1214118   5.519   3.296   6.466  0.0336  0.0026  0.3428
  131OSM    C1S14119   5.315   3.258   6.182 -0.7538 -0.0568 -0.3708
  131OSM    H1S14120   5.399   3.329   6.167 -0.2509 -0.9454 -2.1880
  131OSM    H1T14121   5.220   3.315   6.173  1.1044  3.4172  0.3981
  131OSM     NF14122   5.322   3.220   5.938 -0.0383  0.2222 -0.2650
  131OSM    HNF14123   5.237   3.244   5.892  1.3559  2.7792 -1.7328
  131OSM    C2S14124   5.321   3.148   6.067  0.3925 -1.4327  0.0697
  131OSM    H2S14125   5.414   3.090   6.084  0.2289 -1.5263  0.6939
  131OSM    C3S14126   5.195   3.052   6.086  0.0222 -0.2721  0.5197
  131OSM    H3S14127   5.104   3.108   6.057  0.0249 -0.2437  0.5660
  131OSM     O314128   5.171   2.996   6.211  0.2946  0.1457 -0.3380
  131OSM    HO314129   5.229   3.047   6.269 -0.9859  1.5975 -0.2871
  131OSM    C4S14130   5.214   2.939   5.994  0.7570  0.0391  0.0084
  131OSM    H4S14131   5.316   2.898   5.996  0.5809 -0.3749  1.4792
  131OSM    C5S14132   5.117   2.886   5.915 -0.4117 -0.2532  0.0221
  131OSM    H5S14133   5.020   2.933   5.898 -0.5647 -0.1229  1.1802
  131OSM    C6S14134   5.129   2.786   5.806  0.1000  0.4397  0.3127
  131OSM    H6S14135   5.069   2.700   5.842  0.8793  0.2070  1.0992
  131OSM    H6T14136   5.231   2.744   5.793  0.0401  0.6176 -0.8409
  131OSM    C7S14137   5.079   2.829   5.663  0.5203 -0.6031  0.0860
  131OSM    H7S14138   5.123   2.929   5.644  0.2728 -0.4868  0.1273
  131OSM    H7T14139   4.968   2.836   5.660  0.5653 -0.0488 -0.3174
  131OSM    C8S14140   5.131   2.734   5.555 -0.0330  0.2599 -0.5715
  131OSM    H8S14141   5.110   2.631   5.591  1.7861  0.4246  1.1916
  131OSM    H8T14142   5.242   2.747   5.555 -0.1390  2.3940  2.6370
  131OSM    C9S14143   5.087   2.781   5.416  0.2055 -0.0610  0.3352
  131OSM    H9S14144   5.140   2.862   5.362  1.4008 -2.0248 -1.5746
  131OSM    H9T14145   4.983   2.818   5.429  0.2178  1.1611 -2.4502
  131OSM   C10S14146   5.086   2.671   5.307 -0.3177 -0.1132 -0.3177
  131OSM   H10S14147   5.045   2.578   5.351  0.9658 -1.4294 -1.7599
  131OSM   H10T14148   5.189   2.634   5.286 -0.2533 -1.0402  1.4772
  131OSM   C11S14149   5.017   2.698   5.175 -0.1946  0.2434 -0.0424
  131OSM   H11S14150   5.061   2.791   5.131  0.8135 -0.2427 -0.0877
  131OSM   H11T14151   4.911   2.717   5.204 -1.3833 -1.0837 -3.1246
  131OSM   C12S14152   5.026   2.578   5.079  0.1897  0.4912 -0.1573
  131OSM   H12S14153   4.995   2.493   5.144  1.7613  1.1799  1.5620
  131OSM   H12T14154   5.131   2.556   5.051 -0.4212  0.4905 -2.7166
  131OSM   C13S14155   4.937   2.583   4.954 -0.3492  0.6585  0.4194
  131OSM   H13S14156   4.830   2.605   4.973 -0.8368  0.3920 -1.8589
  131OSM   H13T14157   4.954   2.494   4.891  3.3790 -0.7356  2.9990
  131OSM   C14S14158   4.973   2.702   4.866 -0.2789 -0.1207 -0.4062
  131OSM   H14S14159   5.077   2.698   4.829  0.0571 -0.8058  0.5782
  131OSM   H14T14160   4.980   2.800   4.917  0.8063 -0.4492  0.1018
  131OSM   C15S14161   4.892   2.711   4.739 -0.1342  0.0972  0.0857
  131OSM   H15S14162   4.788   2.728   4.774 -0.5887 -0.1144 -1.1179
  131OSM   H15T14163   4.898   2.614   4.685  1.3657 -1.1869  2.4093
  131OSM   C16S14164   4.945   2.819   4.644 -0.2552  0.2545 -0.3730
  131OSM   H16S14165   4.966   2.909   4.706  0.6165 -1.1328  1.3991
  131OSM   H16T14166   4.855   2.834   4.580 -0.6511 -0.1392  0.0875
  131OSM   C17S14167   5.065   2.780   4.553 -0.7160 -1.0999 -0.4593
  131OSM   H17S14168   5.070   2.674   4.522  0.1238 -0.7558 -1.5710
  131OSM   H17T14169   5.144   2.790   4.631 -1.4158 -1.7929  0.3578
  131OSM   C18S14170   5.083   2.867   4.427 -0.0160 -0.3792 -0.1943
  131OSM   H18S14171   5.180   2.850   4.376  0.1009  0.6214 -0.3389
  131OSM   H18T14172   5.070   2.977   4.435 -0.5909 -0.5530  2.0774
  131OSM   H18U14173   5.011   2.845   4.345 -0.4370  1.1995 -0.2964
  131OSM    C1F14174   5.425   3.285   5.885  0.3051 -0.0201  0.0109
  131OSM     OF14175   5.532   3.305   5.945 -0.2045 -0.4049  0.1843
  131OSM    C2F14176   5.390   3.350   5.752 -0.7538  0.3185  0.1620
  131OSM    H2F14177   5.478   3.407   5.714 -0.2190 -1.5140 -1.4554
  131OSM    H2G14178   5.304   3.418   5.771  0.4087  1.7632  0.4818
  131OSM    C3F14179   5.364   3.240   5.641  0.7346  0.1329 -0.3728
  131OSM    H3F14180   5.272   3.184   5.668  1.4561 -1.9194 -1.9118
  131OSM    H3G14181   5.442   3.160   5.643 -0.2562 -0.9045 -1.2654
  131OSM    C4F14182   5.356   3.286   5.496 -0.2838  0.2679 -0.0638
  131OSM    H4F14183   5.443   3.352   5.476  0.9571 -1.1606  0.3625
  131OSM    H4G14184   5.270   3.354   5.485  1.1192  2.2817  0.8624
  131OSM    C5F14185   5.342   3.168   5.395  0.6248  0.0310 -0.6375
  131OSM    H5F14186   5.256   3.106   5.428  2.0100 -1.5105  0.2261
  131OSM    H5G14187   5.433   3.104   5.400 -0.1849 -1.4581 -3.1402
  131OSM    C6F14188   5.326   3.204   5.248 -0.1540 -0.4969  0.1252
  131OSM    H6F14189   5.398   3.271   5.197 -0.2381 -1.7309 -1.7244
  131OSM    H6G14190   5.226   3.246   5.228 -0.1523 -0.0614  1.0023
  131OSM    C7F14191   5.325   3.075   5.168  0.3562  0.2231  0.0533
  131OSM    H7F14192   5.263   2.995   5.214 -0.0556 -0.6958 -1.9453
  131OSM    H7G14193   5.426   3.030   5.168  0.2467 -0.0580 -0.9762
  131OSM    C8F14194   5.287   3.097   5.026 -0.2687 -0.2050  0.0135
  131OSM    H8F14195   5.364   3.167   4.988 -2.7313  1.5891 -1.9046
  131OSM    H8G14196   5.192   3.153   5.019 -1.0825 -1.4564  0.6234
  131OSM    C9F14197   5.273   2.984   4.930 -0.8485 -0.0451  0.2563
  131OSM    H9F14198   5.202   2.909   4.967  1.1027 -2.5181 -0.7186
  131OSM   C10F14199   5.342   2.947   4.812  0.3784  0.0760 -0.0544
  131OSM   H10F14200   5.314   2.847   4.776 -0.2706 -1.5813  4.3896
  131OSM   C11F14201   5.444   3.024   4.737  0.1104  0.8398 -0.3657
  131OSM   H11F14202   5.540   2.968   4.749 -0.4703 -0.5107 -1.6008
  131OSM   H11G14203   5.465   3.127   4.773 -0.7005  1.7946 -2.4668
  131OSM   C12F14204   5.426   3.026   4.588 -0.5207  0.1833  0.2144
  131OSM   H12F14205   5.417   2.919   4.562 -0.9558  0.3137 -0.1784
  131OSM   H12G14206   5.519   3.066   4.542 -0.9001  0.7795 -0.0496
  131OSM   C13F14207   5.314   3.110   4.545 -0.0201  0.2098  0.1441
  131OSM   H13F14208   5.327   3.211   4.590 -1.2348  1.4767 -2.1805
  131OSM   H13G14209   5.212   3.076   4.573 -0.5748  1.1690 -0.6582
  131OSM   C14F14210   5.315   3.135   4.390 -0.3231  0.3182  0.1771
  131OSM   H14F14211   5.296   3.046   4.327  1.4038  0.9406 -1.3033
  131OSM   H14G14212   5.421   3.169   4.379  0.3355 -1.0416  1.8646
  131OSM   C15F14213   5.228   3.250   4.336  0.2632 -0.7060 -0.4407
  131OSM   H15F14214   5.259   3.340   4.394 -2.4861 -0.1389  0.3198
  131OSM   H15G14215   5.120   3.223   4.340  0.5475 -1.7240  1.6558
  131OSM   C16F14216   5.248   3.280   4.193  0.0330  1.0023 -0.6401
  131OSM   H16F14217   5.188   3.212   4.128  0.6928 -0.5404  0.3149
  131OSM   H16G14218   5.356   3.268   4.170  0.2820 -0.3350  1.0236
  131OSM   C17F14219   5.209   3.423   4.152  0.3096  0.1176  0.4575
  131OSM   H17F14220   5.262   3.499   4.214 -0.2544  0.7531  0.1817
  131OSM   H17G14221   5.100   3.437   4.170 -0.0649 -1.0558 -0.7584
  131OSM   C18F14222   5.248   3.444   4.005  0.2684 -0.6960  0.2195
  131OSM   H18F14223   5.259   3.550   3.975 -1.9977 -0.8112 -1.2868
  131OSM   H18G14224   5.170   3.406   3.936 -1.2423  1.4657  0.6285
  131OSM   H18H14225   5.343   3.390   3.987  0.8189 -0.3927  1.9854
  132OSM      N14226   2.994   6.729   6.630 -0.2666 -0.4436  0.3282
  132OSM    C1514227   3.054   6.619   6.544 -0.3615 -0.2402 -0.3803
  132OSM   H15A14228   3.013   6.624   6.444  2.6672  0.2309 -1.6872
  132OSM   H15B14229   3.039   6.522   6.589  1.0629 -0.1557  0.3258
  132OSM   H15C14230   3.162   6.623   6.541 -0.2316  0.2761  2.2993
  132OSM    C1414231   3.074   6.751   6.764  0.3497 -0.3558  0.0976
  132OSM   H14A14232   3.171   6.791   6.737 -0.6148  1.9778 -0.1356
  132OSM   H14B14233   3.080   6.654   6.811 -3.1080 -1.3203 -1.1624
  132OSM   H14C14234   3.033   6.827   6.828 -1.2195  0.6098 -1.9283
  132OSM    C1314235   2.995   6.858   6.552  0.8818  0.2758 -0.1439
  132OSM   H13A14236   2.955   6.945   6.601  0.6934  0.5496 -0.7716
  132OSM   H13B14237   2.927   6.844   6.468  1.7967 -3.6997 -0.4491
  132OSM   H13C14238   3.090   6.886   6.509  1.0311 -0.4224 -0.2864
  132OSM    C1214239   2.852   6.705   6.667  0.3480  0.3435 -0.3924
  132OSM   H12A14240   2.804   6.705   6.570  1.0473 -1.3470 -0.7679
  132OSM   H12B14241   2.802   6.782   6.725 -1.1535 -0.2665 -0.8301
  132OSM    C1114242   2.839   6.580   6.753  0.8324  0.5458 -0.0711
  132OSM   H11A14243   2.877   6.606   6.854 -2.0372  0.6819  1.0545
  132OSM   H11B14244   2.899   6.492   6.723  1.5165  0.4457  1.4904
  132OSM      P14245   2.640   6.413   6.736  0.0848  0.1880  0.3131
  132OSM    O1314246   2.725   6.324   6.818 -0.6266 -0.1859 -0.1135
  132OSM    O1414247   2.490   6.416   6.740  0.0055 -0.0582 -0.4085
  132OSM    O1114248   2.687   6.387   6.586 -0.1800 -0.5150 -0.3253
  132OSM    O1214249   2.697   6.557   6.762  0.2040 -0.1434 -0.1635
  132OSM    C1S14250   2.683   6.490   6.490 -0.6154  0.2045  0.2471
  132OSM    H1S14251   2.781   6.543   6.491  0.0658 -1.0132 -0.0940
  132OSM    H1T14252   2.615   6.574   6.517 -0.1397  1.2026 -1.4978
  132OSM     NF14253   2.666   6.563   6.253 -0.1124 -0.4438 -0.1230
  132OSM    HNF14254   2.579   6.608   6.234 -0.2736  1.1087  3.5449
  132OSM    C2S14255   2.662   6.447   6.341  0.3520 -0.7935  0.2881
  132OSM    H2S14256   2.745   6.378   6.314 -0.1321 -1.7680  1.2370
  132OSM    C3S14257   2.530   6.371   6.311 -0.4361 -0.4743 -0.0752
  132OSM    H3S14258   2.441   6.431   6.339  1.8567  2.4178  1.6574
  132OSM     O314259   2.517   6.264   6.400  0.0649 -0.1248  0.0428
  132OSM    HO314260   2.581   6.274   6.471 -0.4634 -2.0995  0.8712
  132OSM    C4S14261   2.527   6.334   6.167 -0.0368 -0.2141  1.1062
  132OSM    H4S14262   2.628   6.300   6.137 -0.0047 -0.4708  1.5008
  132OSM    C5S14263   2.437   6.380   6.077  0.4447  0.7295  0.2417
  132OSM    H5S14264   2.350   6.431   6.121 -0.0802  0.4532 -0.4608
  132OSM    C6S14265   2.451   6.353   5.926 -0.1423 -0.6610 -0.0759
  132OSM    H6S14266   2.359   6.362   5.865 -1.1400 -0.2463  1.4460
  132OSM    H6T14267   2.489   6.249   5.921  2.3051  0.0677  1.4477
  132OSM    C7S14268   2.557   6.451   5.868  0.0754  0.1240  0.5409
  132OSM    H7S14269   2.648   6.435   5.930  0.6879 -0.6591 -0.5479
  132OSM    H7T14270   2.521   6.555   5.882 -0.1935  0.0643  0.2972
  132OSM    C8S14271   2.597   6.408   5.728  0.5608  0.5224 -0.2900
  132OSM    H8S14272   2.660   6.490   5.688 -0.2401  2.7191  2.5862
  132OSM    H8T14273   2.498   6.404   5.677  2.0042  0.7141 -3.3107
  132OSM    C9S14274   2.662   6.263   5.719  0.3016 -0.1800 -0.1494
  132OSM    H9S14275   2.592   6.183   5.686  0.0100  0.5629 -1.4240
  132OSM    H9T14276   2.719   6.234   5.810  2.0512 -1.1585 -1.4719
  132OSM   C10S14277   2.766   6.264   5.612 -0.0474  0.3323  0.4685
  132OSM   H10S14278   2.805   6.161   5.604  2.2660  1.1681  0.0966
  132OSM   H10T14279   2.848   6.333   5.643  0.2195  2.0227 -3.4083
  132OSM   C11S14280   2.714   6.300   5.472  0.0767  0.3527 -0.4640
  132OSM   H11S14281   2.644   6.385   5.463 -0.9893 -0.5742 -1.2404
  132OSM   H11T14282   2.655   6.216   5.429 -0.2104  0.1950  0.2253
  132OSM   C12S14283   2.828   6.342   5.378  0.1578 -0.1480 -0.4788
  132OSM   H12S14284   2.912   6.271   5.366  0.2023  0.0241 -1.2336
  132OSM   H12T14285   2.863   6.432   5.434 -1.7764  1.3993 -1.6040
  132OSM   C13S14286   2.784   6.380   5.237 -0.0894 -0.9186 -0.2516
  132OSM   H13S14287   2.716   6.468   5.232  2.1669  1.2279  2.5748
  132OSM   H13T14288   2.736   6.287   5.202 -1.3683 -0.0687 -0.8312
  132OSM   C14S14289   2.905   6.411   5.147  0.3951 -0.4087  0.7489
  132OSM   H14S14290   2.969   6.321   5.160  0.4422 -0.7361 -1.3980
  132OSM   H14T14291   2.958   6.500   5.186 -2.8969  0.6701  3.2974
  132OSM   C15S14292   2.872   6.414   4.993 -1.1053  1.1924  0.2269
  132OSM   H15S14293   2.837   6.511   4.952 -0.6229  0.9463 -0.8124
  132OSM   H15T14294   2.809   6.326   4.967 -0.7130  1.1318 -0.5532
  132OSM   C16S14295   2.997   6.387   4.912  0.5186 -0.0596  0.7996
  132OSM   H16S14296   3.050   6.295   4.944 -0.4291  0.1913  3.2354
  132OSM   H16T14297   3.060   6.477   4.931  2.4934 -0.6941 -1.9964
  132OSM   C17S14298   2.966   6.398   4.763 -0.7000  0.4969 -0.1698
  132OSM   H17S14299   2.939   6.504   4.743 -3.3311 -0.1188 -0.2927
  132OSM   H17T14300   2.881   6.332   4.734  0.2518 -1.7952  1.9025
  132OSM   C18S14301   3.094   6.360   4.681 -0.7514  0.5107  0.3919
  132OSM   H18S14302   3.121   6.259   4.719  1.9748  0.5989 -1.1243
  132OSM   H18T14303   3.181   6.423   4.706  0.0445 -1.4663  3.1209
  132OSM   H18U14304   3.071   6.356   4.573  0.0749 -0.1609  0.2284
  132OSM    C1F14305   2.784   6.629   6.226  0.7309 -0.1685 -0.2597
  132OSM     OF14306   2.881   6.603   6.290 -0.2782  0.6784  0.3984
  132OSM    C2F14307   2.786   6.740   6.124  0.2230 -0.0741 -1.3289
  132OSM    H2F14308   2.796   6.840   6.172  0.1041  0.1217 -1.7003
  132OSM    H2G14309   2.687   6.755   6.074  0.0775  2.0466 -0.5296
  132OSM    C3F14310   2.879   6.709   6.008 -0.2311 -0.1151 -0.0185
  132OSM    H3F14311   2.847   6.612   5.964 -0.2310 -0.0229 -0.2227
  132OSM    H3G14312   2.978   6.685   6.050 -1.6355 -0.0277  3.7077
  132OSM    C4F14313   2.878   6.829   5.905  0.0295  0.1977 -0.3537
  132OSM    H4F14314   2.919   6.920   5.954  1.0954  0.9800 -2.5465
  132OSM    H4G14315   2.772   6.851   5.883  0.7492  1.2138 -3.3475
  132OSM    C5F14316   2.966   6.799   5.783 -0.1900 -0.2176  0.0425
  132OSM    H5F14317   2.984   6.690   5.778 -1.1104 -0.4406  1.1852
  132OSM    H5G14318   3.070   6.836   5.799 -0.6983  0.3842  2.2118
  132OSM    C6F14319   2.899   6.852   5.655  0.4642 -0.2156  0.2263
  132OSM    H6F14320   2.882   6.961   5.658  4.1821  0.5573 -1.3299
  132OSM    H6G14321   2.799   6.803   5.649  1.1447 -1.4731 -2.6158
  132OSM    C7F14322   2.985   6.827   5.536  0.8565 -0.7107  0.7287
  132OSM    H7F14323   2.991   6.717   5.522  1.0475 -0.6313  0.1783
  132OSM    H7G14324   3.078   6.882   5.562 -1.6361  3.5350  1.8044
  132OSM    C8F14325   2.917   6.893   5.411 -0.7044 -0.2862 -0.8233
  132OSM    H8F14326   2.995   6.893   5.332 -1.0888 -0.7448 -1.2103
  132OSM    H8G14327   2.903   6.999   5.441 -2.1711 -0.3272 -1.2566
  132OSM    C9F14328   2.795   6.825   5.364  0.1696  0.1202  0.3935
  132OSM    H9F14329   2.720   6.801   5.441  0.0322  3.2037  1.3595
  132OSM   C10F14330   2.769   6.783   5.238 -1.0509  0.6909  0.3972
  132OSM   H10F14331   2.677   6.726   5.218  0.2713 -0.7941 -1.9640
  132OSM   C11F14332   2.856   6.798   5.114 -0.2546 -0.5791  0.2100
  132OSM   H11F14333   2.874   6.698   5.069 -0.1019  0.1640 -1.4213
  132OSM   H11G14334   2.955   6.842   5.137  0.2093  0.4753 -3.2999
  132OSM   C12F14335   2.783   6.890   5.009 -0.1078  0.2487 -0.1363
  132OSM   H12F14336   2.762   6.985   5.064 -0.0861 -0.2897  0.8319
  132OSM   H12G14337   2.689   6.852   4.963  0.3351 -1.7804  0.5482
  132OSM   C13F14338   2.878   6.926   4.889  0.3279 -0.0716 -0.2944
  132OSM   H13F14339   2.908   6.838   4.830  0.0926  0.1600 -0.7633
  132OSM   H13G14340   2.960   6.984   4.936 -0.0182  1.3468 -1.3540
  132OSM   C14F14341   2.822   7.039   4.801 -0.7635  0.1483 -0.6274
  132OSM   H14F14342   2.828   7.134   4.858  0.5505  0.5771 -1.4358
  132OSM   H14G14343   2.713   7.028   4.782 -1.1668  1.1754  0.9295
  132OSM   C15F14344   2.909   7.049   4.674  0.2130  0.0505 -0.5278
  132OSM   H15F14345   2.836   7.095   4.604 -1.4133  0.1620  1.1777
  132OSM   H15G14346   2.924   6.943   4.644 -1.4851 -0.3377 -0.0906
  132OSM   C16F14347   3.040   7.128   4.691  0.6437  0.5426  0.6078
  132OSM   H16F14348   3.107   7.087   4.771  1.8459  1.6343  0.1981
  132OSM   H16G14349   3.021   7.232   4.723  1.4966  1.3300 -1.2799
  132OSM   C17F14350   3.128   7.113   4.566 -0.2917 -0.0014 -0.6955
  132OSM   H17F14351   3.070   7.150   4.478 -0.0643  1.3004 -0.3177
  132OSM   H17G14352   3.160   7.009   4.545 -0.5446  0.2087 -2.2278
  132OSM   C18F14353   3.246   7.221   4.558 -0.2456 -0.4871  0.3408
  132OSM   H18F14354   3.222   7.323   4.522  1.4390 -0.1965 -0.0705
  132OSM   H18G14355   3.318   7.187   4.481  1.2853  0.4051  1.3264
  132OSM   H18H14356   3.303   7.212   4.653  1.6661 -0.2837 -0.7371
  133OSM      N14357   4.455   0.793   7.186 -0.2297  0.3010  0.6071
  133OSM    C1514358   4.568   0.813   7.091 -0.3984 -0.3981  0.2596
  133OSM   H15A14359   4.663   0.841   7.135  0.3655 -0.1140 -1.4727
  133OSM   H15B14360   4.545   0.882   7.012  0.9994 -0.1311  0.0627
  133OSM   H15C14361   4.598   0.723   7.039 -0.3857  0.2672 -0.9028
  133OSM    C1414362   4.504   0.702   7.298 -0.2413 -0.3689 -0.2525
  133OSM   H14A14363   4.607   0.717   7.326 -1.0630 -0.7503  3.3358
  133OSM   H14B14364   4.505   0.601   7.262 -1.8098 -0.2445 -0.7476
  133OSM   H14C14365   4.433   0.721   7.377  0.4958  4.2238 -0.3994
  133OSM    C1314366   4.428   0.922   7.257  0.2611 -0.0960 -0.4826
  133OSM   H13A14367   4.339   0.926   7.319  0.0735  0.9336 -0.8069
  133OSM   H13B14368   4.415   1.007   7.191  2.3842  1.1176  0.5624
  133OSM   H13C14369   4.510   0.958   7.318  0.0941  0.0256 -0.3283
  133OSM    C1214370   4.327   0.738   7.124  0.3472 -0.3643 -0.7447
  133OSM   H12A14371   4.294   0.811   7.051  0.4629  0.9156  0.4309
  133OSM   H12B14372   4.257   0.746   7.206  1.1426  0.6850 -0.1406
  133OSM    C1114373   4.330   0.598   7.071 -0.1685  0.4098 -0.2370
  133OSM   H11A14374   4.234   0.580   7.020  0.6529 -0.6397 -1.5012
  133OSM   H11B14375   4.342   0.526   7.156  1.5097  0.9723  0.0518
  133OSM      P14376   4.402   0.493   6.848 -0.0930  0.1548  0.4853
  133OSM    O1314377   4.529   0.433   6.801 -0.5506 -0.2940 -0.0927
  133OSM    O1414378   4.283   0.405   6.869 -0.4339  0.1725  0.5720
  133OSM    O1114379   4.362   0.609   6.741  0.2682 -0.0898  0.4060
  133OSM    O1214380   4.434   0.575   6.983 -0.0438 -0.1012  0.7511
  133OSM    C1S14381   4.441   0.730   6.736 -0.1737  0.2624  0.1939
  133OSM    H1S14382   4.547   0.705   6.718  0.4605  1.6309  1.7552
  133OSM    H1T14383   4.420   0.803   6.818 -2.3674  2.2928 -2.0263
  133OSM     NF14384   4.500   0.885   6.552 -0.5063  0.0489 -0.8427
  133OSM    HNF14385   4.486   0.983   6.535 -0.7161  0.0065 -0.9215
  133OSM    C2S14386   4.397   0.794   6.602 -0.7414 -0.2391 -0.4643
  133OSM    H2S14387   4.401   0.719   6.520  1.4633  0.9353 -1.5217
  133OSM    C3S14388   4.261   0.862   6.619  0.0017 -0.4917  1.0043
  133OSM    H3S14389   4.277   0.960   6.670  1.2633  0.7432 -1.6082
  133OSM     O314390   4.160   0.790   6.706  0.0195  0.2426 -0.0915
  133OSM    HO314391   4.206   0.709   6.732 -2.6579 -1.2088  0.5208
  133OSM    C4S14392   4.199   0.907   6.482  0.1872 -0.3792 -0.1368
  133OSM    H4S14393   4.209   1.012   6.449 -3.6048  0.1591 -0.0338
  133OSM    C5S14394   4.125   0.825   6.401 -0.2249 -0.3333 -0.5151
  133OSM    H5S14395   4.115   0.720   6.432  2.6465 -0.0386  1.9172
  133OSM    C6S14396   4.058   0.869   6.271 -0.0638 -0.2454  0.0392
  133OSM    H6S14397   4.071   0.788   6.195 -0.2673 -0.8694  0.6611
  133OSM    H6T14398   4.089   0.968   6.231  1.5536 -0.7734 -0.0728
  133OSM    C7S14399   3.905   0.886   6.287  0.5556 -0.8856  0.1037
  133OSM    H7S14400   3.882   0.961   6.366  1.2463  0.3190 -0.7897
  133OSM    H7T14401   3.860   0.785   6.297 -1.7098  0.1286  0.8666
  133OSM    C8S14402   3.838   0.931   6.151 -0.6561  0.3582  0.4571
  133OSM    H8S14403   3.730   0.922   6.175 -0.7202  1.4884  0.6636
  133OSM    H8T14404   3.855   0.855   6.072 -0.0737 -0.3785  1.2719
  133OSM    C9S14405   3.863   1.077   6.117 -0.3887 -0.8466  0.1454
  133OSM    H9S14406   3.971   1.100   6.101 -1.2480  1.9371 -3.0747
  133OSM    H9T14407   3.822   1.133   6.203 -2.6702 -3.9701  1.2728
  133OSM   C10S14408   3.798   1.125   5.982  0.7697 -0.1871 -0.2349
  133OSM   H10S14409   3.801   1.236   5.983 -1.4518 -0.0641  2.3375
  133OSM   H10T14410   3.689   1.104   5.979  1.3104 -3.3596 -0.7317
  133OSM   C11S14411   3.863   1.068   5.855  0.4678 -0.3301  0.1487
  133OSM   H11S14412   3.813   0.971   5.834  0.5376 -0.3623  0.1302
  133OSM   H11T14413   3.974   1.068   5.854  0.4766 -1.2380  0.2010
  133OSM   C12S14414   3.849   1.157   5.727  0.7486  0.2958 -0.3776
  133OSM   H12S14415   3.858   1.267   5.735 -0.7685  0.3970  0.3605
  133OSM   H12T14416   3.742   1.142   5.700  0.2265  1.3752  0.9645
  133OSM   C13S14417   3.928   1.108   5.608  0.2670  1.1759 -0.2509
  133OSM   H13S14418   3.935   0.997   5.614  0.3777  1.0878 -1.7410
  133OSM   H13T14419   4.033   1.144   5.617  0.5629  0.5630 -1.0676
  133OSM   C14S14420   3.864   1.134   5.471 -0.0508  0.1199 -0.4935
  133OSM   H14S14421   3.833   1.240   5.474 -2.3471 -0.5147  2.1319
  133OSM   H14T14422   3.766   1.080   5.468  0.6793 -1.2918  0.0817
  133OSM   C15S14423   3.957   1.086   5.363 -0.1777 -0.0702  0.0625
  133OSM   H15S14424   3.979   0.980   5.384 -0.9412 -0.2724 -0.1178
  133OSM   H15T14425   4.046   1.149   5.382  1.0779 -0.9525 -2.4562
  133OSM   C16S14426   3.881   1.109   5.233  0.8167  0.3267  0.1273
  133OSM   H16S14427   3.839   1.212   5.227  1.2855  0.7593  2.8980
  133OSM   H16T14428   3.803   1.031   5.240 -1.4417  2.6026  2.8998
  133OSM   C17S14429   3.972   1.088   5.112 -0.6585 -0.6454 -0.1248
  133OSM   H17S14430   3.904   1.102   5.026 -1.3393  0.1557  0.5151
  133OSM   H17T14431   4.017   0.987   5.128  3.6179  0.9580 -0.5245
  133OSM   C18S14432   4.089   1.189   5.108 -0.3785 -0.1692 -0.0835
  133OSM   H18S14433   4.053   1.284   5.154  1.3645  0.5286 -0.0987
  133OSM   H18T14434   4.122   1.217   5.005  0.9163  3.2294  1.1127
  133OSM   H18U14435   4.171   1.148   5.170 -0.1518 -1.0908 -0.9586
  133OSM    C1F14436   4.616   0.844   6.495  0.0752  0.1727  0.6027
  133OSM     OF14437   4.642   0.724   6.498 -0.3069 -0.1842 -0.0007
  133OSM    C2F14438   4.697   0.948   6.435  0.0855 -0.1232  0.2043
  133OSM    H2F14439   4.695   1.035   6.504  0.2926 -0.6577  0.8953
  133OSM    H2G14440   4.643   0.978   6.343 -3.7106 -1.8909  1.6407
  133OSM    C3F14441   4.845   0.909   6.417 -0.5469  0.1147  0.9454
  133OSM    H3F14442   4.879   0.883   6.520 -2.8623  1.7116  2.2011
  133OSM    H3G14443   4.905   0.994   6.376  3.3255 -3.6930 -2.2816
  133OSM    C4F14444   4.879   0.796   6.307 -0.0891 -0.1437 -0.0605
  133OSM    H4F14445   4.848   0.693   6.335  0.0438  0.3407  2.0883
  133OSM    H4G14446   4.990   0.797   6.304 -0.0865  0.6372  0.0750
  133OSM    C5F14447   4.840   0.828   6.164  0.0731  0.0519  0.3864
  133OSM    H5F14448   4.879   0.932   6.154  0.0546  0.0653  0.4517
  133OSM    H5G14449   4.730   0.833   6.153  0.0237 -0.3988  0.6523
  133OSM    C6F14450   4.910   0.749   6.051  0.2412 -0.0582 -0.1116
  133OSM    H6F14451   5.017   0.743   6.080 -0.2319  1.1347  2.1153
  133OSM    H6G14452   4.904   0.820   5.966  1.1134  2.2025  1.6221
  133OSM    C7F14453   4.863   0.602   6.033 -0.3666  0.0761  0.5055
  133OSM    H7F14454   4.768   0.594   6.090  0.2372 -1.2553  1.3947
  133OSM    H7G14455   4.927   0.531   6.090  0.2656 -0.8283 -1.2632
  133OSM    C8F14456   4.853   0.548   5.898  0.1461  0.5696  0.6202
  133OSM    H8F14457   4.958   0.538   5.864  0.7430 -0.8093  2.6958
  133OSM    H8G14458   4.806   0.609   5.818 -0.3416  0.7249  1.0180
  133OSM    C9F14459   4.795   0.408   5.891  0.2786  0.4613  0.2018
  133OSM    H9F14460   4.717   0.381   5.963 -0.2117 -1.5582 -1.0276
  133OSM   C10F14461   4.818   0.313   5.797 -0.2734  0.3240 -0.3498
  133OSM   H10F14462   4.760   0.220   5.807 -1.8962  1.3927  0.9074
  133OSM   C11F14463   4.900   0.334   5.676 -0.6358 -0.2579 -0.5817
  133OSM   H11F14464   4.952   0.240   5.648  0.8911  0.2510  0.3640
  133OSM   H11G14465   4.988   0.402   5.684  0.8057 -2.0705 -0.2631
  133OSM   C12F14466   4.823   0.390   5.556  0.0086 -0.3525 -0.1820
  133OSM   H12F14467   4.801   0.498   5.570  1.0052 -0.0469 -0.9002
  133OSM   H12G14468   4.728   0.333   5.544 -0.9416  1.2950 -0.7678
  133OSM   C13F14469   4.908   0.372   5.434 -0.3022  0.0625  0.1017
  133OSM   H13F14470   4.936   0.265   5.425 -1.5260 -0.1921 -0.9883
  133OSM   H13G14471   4.999   0.425   5.471 -1.3569  1.9316  0.1558
  133OSM   C14F14472   4.861   0.451   5.310 -0.3799 -0.2635  0.6412
  133OSM   H14F14473   4.867   0.558   5.339  0.2085 -0.2244  0.4015
  133OSM   H14G14474   4.758   0.417   5.287  0.2354 -0.5842 -2.0040
  133OSM   C15F14475   4.951   0.454   5.178  0.8180  0.1945 -0.3853
  133OSM   H15F14476   5.049   0.500   5.205  0.3177 -0.1344  2.2803
  133OSM   H15G14477   4.894   0.513   5.103  1.1945  0.1266 -0.7340
  133OSM   C16F14478   4.958   0.311   5.134  0.7466 -0.5626  0.2366
  133OSM   H16F14479   4.855   0.271   5.141  1.1014 -1.4927  0.2559
  133OSM   H16G14480   5.023   0.252   5.202  1.2695 -1.4776 -1.0149
  133OSM   C17F14481   5.002   0.280   4.987  0.2580  0.5061 -0.3500
  133OSM   H17F14482   4.985   0.174   4.957 -0.5156  0.5746 -0.1815
  133OSM   H17G14483   5.110   0.306   4.990  0.5514 -0.7697  1.1191
  133OSM   C18F14484   4.929   0.366   4.878 -0.4907 -0.0220  0.2031
  133OSM   H18F14485   4.981   0.463   4.867  0.5328 -0.5667  0.0872
  133OSM   H18G14486   4.819   0.376   4.892 -0.3983 -0.1978  1.1744
  133OSM   H18H14487   4.944   0.307   4.785 -1.9387 -0.4419  0.2045
  134OSM      N14488   2.555   3.508   6.815 -0.1887  0.6960 -0.5369
  134OSM    C1514489   2.611   3.366   6.809  0.9956  0.3460  0.0595
  134OSM   H15A14490   2.680   3.339   6.888  0.4977 -1.1953 -0.0175
  134OSM   H15B14491   2.671   3.352   6.720 -1.0424  0.0864 -1.3292
  134OSM   H15C14492   2.539   3.288   6.794 -0.9208  1.8624  0.8940
  134OSM    C1414493   2.669   3.605   6.821 -0.8316  0.8066  0.0801
  134OSM   H14A14494   2.748   3.578   6.752  0.4283  1.3811  1.2557
  134OSM   H14B14495   2.720   3.606   6.916 -0.8303  1.3386  0.0777
  134OSM   H14C14496   2.639   3.706   6.798 -3.2710 -0.4145 -2.8240
  134OSM    C1314497   2.467   3.529   6.694  0.2278  0.2088  0.1041
  134OSM   H13A14498   2.526   3.528   6.604  1.5946 -0.7802  0.9514
  134OSM   H13B14499   2.424   3.627   6.705 -0.1984  0.2003 -1.3250
  134OSM   H13C14500   2.391   3.453   6.687  2.1105 -2.4530  4.4580
  134OSM    C1214501   2.473   3.516   6.946 -1.0819  0.1725  1.2542
  134OSM   H12A14502   2.455   3.620   6.964 -0.5669  0.3723  0.6709
  134OSM   H12B14503   2.530   3.466   7.023  2.5984  0.3804 -1.0752
  134OSM    C1114504   2.345   3.430   6.932  0.2612  0.7018 -0.1687
  134OSM   H11A14505   2.284   3.479   6.853 -2.0820 -1.4565  0.1871
  134OSM   H11B14506   2.297   3.449   7.031  0.2545  1.0413 -0.2331
  134OSM      P14507   2.243   3.206   6.859  0.3550 -0.2243 -0.1676
  134OSM    O1314508   2.272   3.065   6.825 -0.1645 -0.1037 -0.2573
  134OSM    O1414509   2.115   3.238   6.928 -0.2675  0.7279  0.4388
  134OSM    O1114510   2.238   3.283   6.720  0.3804  0.2684  0.2445
  134OSM    O1214511   2.363   3.284   6.924 -0.3621  0.3261 -0.2805
  134OSM    C1S14512   2.144   3.239   6.620 -0.3566  0.4083 -0.4488
  134OSM    H1S14513   2.067   3.319   6.613 -2.0474 -0.9421  1.7392
  134OSM    H1T14514   2.090   3.146   6.645 -0.2713  0.5859  0.4295
  134OSM     NF14515   2.115   3.201   6.379  0.0396 -0.1079  0.3912
  134OSM    HNF14516   2.121   3.110   6.338  0.8383  0.0460  0.1466
  134OSM    C2S14517   2.208   3.223   6.485 -0.0963  0.7758  1.0991
  134OSM    H2S14518   2.242   3.321   6.445  0.6311 -0.1620 -0.7184
  134OSM    C3S14519   2.336   3.133   6.489  0.0186 -0.1334 -0.1994
  134OSM    H3S14520   2.296   3.033   6.519 -2.6474  0.7001 -0.6996
  134OSM     O314521   2.437   3.163   6.582 -0.2539  0.6922 -0.0392
  134OSM    HO314522   2.403   3.221   6.651  2.0138  0.9503  0.9640
  134OSM    C4S14523   2.409   3.120   6.361  0.3209 -0.1471 -0.3886
  134OSM    H4S14524   2.425   3.220   6.317 -1.5222 -0.5019 -2.0280
  134OSM    C5S14525   2.433   3.003   6.290  0.8241  0.1597 -0.4003
  134OSM    H5S14526   2.398   2.909   6.335  0.6301 -0.1879 -1.2659
  134OSM    C6S14527   2.507   2.977   6.167 -1.0199 -0.0762  0.0315
  134OSM    H6S14528   2.465   2.891   6.111 -1.5825 -0.2020  0.6288
  134OSM    H6T14529   2.612   2.960   6.199 -1.5906 -1.6256  1.1910
  134OSM    C7S14530   2.506   3.095   6.062 -0.1546  0.0995 -0.2050
  134OSM    H7S14531   2.577   3.087   5.978  1.1793  2.6311  0.5819
  134OSM    H7T14532   2.537   3.187   6.116 -3.2435 -0.0121  2.0492
  134OSM    C8S14533   2.368   3.124   5.999  0.2197 -0.9307  0.5084
  134OSM    H8S14534   2.365   3.224   5.952 -1.6126 -0.8642  0.6851
  134OSM    H8T14535   2.292   3.117   6.080  0.2530  1.7098  0.8429
  134OSM    C9S14536   2.330   3.025   5.891 -0.5673 -0.3279  0.0318
  134OSM    H9S14537   2.221   3.041   5.881 -0.8511 -0.7881  2.0573
  134OSM    H9T14538   2.340   2.920   5.926  3.6284 -0.2979 -0.5776
  134OSM   C10S14539   2.392   3.042   5.753 -0.1449 -0.0507 -0.6612
  134OSM   H10S14540   2.319   3.010   5.676 -1.6316  0.9367  0.2915
  134OSM   H10T14541   2.484   2.980   5.746 -0.0723 -0.1482  0.8539
  134OSM   C11S14542   2.435   3.186   5.719 -0.7136 -0.7194 -0.1677
  134OSM   H11S14543   2.508   3.226   5.793  0.8666  0.5637 -2.3335
  134OSM   H11T14544   2.335   3.234   5.723 -1.0273 -1.3615 -0.0892
  134OSM   C12S14545   2.485   3.196   5.579 -1.0997  0.2472  0.1778
  134OSM   H12S14546   2.582   3.143   5.571 -0.4255  1.6432 -1.6226
  134OSM   H12T14547   2.515   3.300   5.555 -0.4652 -0.2361 -1.1903
  134OSM   C13S14548   2.389   3.144   5.475  0.2240  0.3259  0.8949
  134OSM   H13S14549   2.287   3.147   5.518 -0.0455  2.1189  0.1957
  134OSM   H13T14550   2.420   3.038   5.461  0.1373  0.4800 -0.6400
  134OSM   C14S14551   2.398   3.232   5.341  0.8419  0.1195 -0.0321
  134OSM   H14S14552   2.392   3.340   5.367 -0.2372 -0.1543  0.9310
  134OSM   H14T14553   2.308   3.210   5.280  1.8774 -2.2216 -0.8223
  134OSM   C15S14554   2.527   3.198   5.262  0.5597  0.4690 -0.2023
  134OSM   H15S14555   2.514   3.095   5.223 -3.2437  1.0838 -0.8957
  134OSM   H15T14556   2.620   3.208   5.322 -0.3225 -0.5113  1.3675
  134OSM   C16S14557   2.545   3.291   5.145 -0.1557 -0.5761  0.2169
  134OSM   H16S14558   2.591   3.390   5.166 -0.0145  0.0530 -2.5650
  134OSM   H16T14559   2.447   3.336   5.117 -0.6844 -3.0116 -2.3793
  134OSM   C17S14560   2.607   3.233   5.027 -0.1008 -0.0450  0.0079
  134OSM   H17S14561   2.542   3.148   4.996 -2.1742  2.1798 -2.1234
  134OSM   H17T14562   2.711   3.196   5.039  0.5776  1.5910 -0.5753
  134OSM   C18S14563   2.602   3.331   4.910  0.3513 -0.2564  0.4433
  134OSM   H18S14564   2.601   3.275   4.814 -2.4532  0.9219 -0.3269
  134OSM   H18T14565   2.681   3.409   4.909 -0.6468  0.7967  0.4197
  134OSM   H18U14566   2.500   3.375   4.923 -0.6452 -3.0109  3.1887
  134OSM    C1F14567   2.025   3.282   6.331 -0.4594 -0.2132 -0.2919
  134OSM     OF14568   2.000   3.392   6.378  0.0155  0.2265 -0.1838
  134OSM    C2F14569   1.952   3.229   6.214  0.2540  0.0751 -0.2072
  134OSM    H2F14570   1.843   3.242   6.233  0.4061 -1.0527  1.8358
  134OSM    H2G14571   1.948   3.118   6.223 -1.0498  0.0747 -0.6187
  134OSM    C3F14572   2.005   3.279   6.079  0.1372  0.3469  0.4945
  134OSM    H3F14573   2.114   3.256   6.085 -0.1579 -0.7058  2.9148
  134OSM    H3G14574   1.985   3.388   6.078 -1.1387  0.1266 -0.0778
  134OSM    C4F14575   1.927   3.207   5.963 -0.6484 -0.0706  0.1987
  134OSM    H4F14576   1.819   3.231   5.966 -0.7308 -0.3083 -0.7230
  134OSM    H4G14577   1.951   3.100   5.984 -1.2270  0.0391  1.5424
  134OSM    C5F14578   1.996   3.244   5.834  0.1647  0.4163 -0.6924
  134OSM    H5F14579   2.106   3.231   5.831  0.2708  1.2773 -0.9300
  134OSM    H5G14580   1.986   3.354   5.821  2.8053  0.5687 -1.9698
  134OSM    C6F14581   1.947   3.179   5.707 -0.6184 -0.3359 -0.6758
  134OSM    H6F14582   1.837   3.169   5.708 -0.5941 -0.8872 -1.7351
  134OSM    H6G14583   1.987   3.076   5.698 -1.7373 -0.6234 -3.6842
  134OSM    C7F14584   1.969   3.265   5.579  0.1751 -0.1899  0.5357
  134OSM    H7F14585   2.071   3.306   5.564 -0.6894  0.9324 -3.4902
  134OSM    H7G14586   1.905   3.356   5.580  1.2823  0.6175 -0.2146
  134OSM    C8F14587   1.934   3.181   5.454  0.6283 -0.4017 -0.1200
  134OSM    H8F14588   2.008   3.098   5.454  1.8807  0.6154  1.8653
  134OSM    H8G14589   1.960   3.245   5.367 -1.3152  0.9085  0.2055
  134OSM    C9F14590   1.791   3.126   5.430 -0.1141 -0.1850 -0.3413
  134OSM    H9F14591   1.776   3.032   5.486 -2.4829  0.4143  0.1592
  134OSM   C10F14592   1.701   3.168   5.337 -0.8714  0.4844  0.6541
  134OSM   H10F14593   1.616   3.105   5.309  0.2033 -0.3907 -0.7627
  134OSM   C11F14594   1.714   3.291   5.258 -0.2679 -0.1529 -0.0997
  134OSM   H11F14595   1.816   3.335   5.262  0.3297 -1.3416 -1.4182
  134OSM   H11G14596   1.646   3.368   5.302 -0.4185  0.1099 -0.7746
  134OSM   C12F14597   1.692   3.272   5.098 -0.2392 -0.0503  0.4440
  134OSM   H12F14598   1.585   3.246   5.081  0.4827 -2.3053 -1.0962
  134OSM   H12G14599   1.740   3.179   5.060 -2.0836 -0.9376  0.1475
  134OSM   C13F14600   1.733   3.399   5.019  0.3804  0.4115 -0.6364
  134OSM   H13F14601   1.842   3.420   5.025  0.1941  2.0562 -2.0679
  134OSM   H13G14602   1.675   3.483   5.063 -5.2647 -2.1551 -2.1821
  134OSM   C14F14603   1.700   3.406   4.870 -0.7007  0.0711  0.2465
  134OSM   H14F14604   1.756   3.491   4.827 -1.6540  0.8822  0.5507
  134OSM   H14G14605   1.593   3.436   4.861 -0.5762  0.5850  0.4432
  134OSM   C15F14606   1.742   3.289   4.779  0.4455  0.1408 -0.3082
  134OSM   H15F14607   1.678   3.200   4.800  1.0761 -0.7555 -2.0551
  134OSM   H15G14608   1.842   3.246   4.798  0.5970 -0.4798 -2.2956
  134OSM   C16F14609   1.730   3.318   4.628 -0.1727 -0.4448  0.2217
  134OSM   H16F14610   1.808   3.392   4.603 -0.0941 -0.7565 -0.4563
  134OSM   H16G14611   1.633   3.349   4.583 -1.9977 -3.6333  1.5504
  134OSM   C17F14612   1.759   3.186   4.555 -0.5160 -0.1177 -0.4168
  134OSM   H17F14613   1.677   3.114   4.578 -0.0047  0.2725  3.2222
  134OSM   H17G14614   1.836   3.141   4.621 -2.0373  2.7114  3.6080
  134OSM   C18F14615   1.794   3.196   4.407  0.7803 -0.3253 -0.2546
  134OSM   H18F14616   1.789   3.095   4.362 -1.0507 -0.4048  0.0406
  134OSM   H18G14617   1.894   3.243   4.399  0.9053  0.5630  3.9120
  134OSM   H18H14618   1.726   3.265   4.353  1.8838  0.7061 -0.3733
  135OSM      N14619   4.495   3.791   6.531  0.2200  0.1739  0.0132
  135OSM    C1514620   4.483   3.739   6.390 -0.3573  0.1561  0.5600
  135OSM   H15A14621   4.447   3.817   6.326  2.3841  1.2077  0.1946
  135OSM   H15B14622   4.407   3.662   6.388 -2.0771  1.8057 -0.3657
  135OSM   H15C14623   4.577   3.707   6.348 -0.7905 -3.3374  1.8795
  135OSM    C1414624   4.567   3.686   6.611  0.4680 -0.6893 -0.2167
  135OSM   H14A14625   4.596   3.735   6.703 -0.3008  2.7976 -1.6877
  135OSM   H14B14626   4.653   3.659   6.553  1.0176  0.7085 -0.0713
  135OSM   H14C14627   4.505   3.597   6.617  1.7333 -1.4941  1.4562
  135OSM    C1314628   4.582   3.917   6.521 -0.1168  0.2270 -0.2883
  135OSM   H13A14629   4.537   4.000   6.468  0.4729 -0.4915 -1.9961
  135OSM   H13B14630   4.678   3.886   6.482 -0.2707 -1.9680  0.9004
  135OSM   H13C14631   4.613   3.951   6.619  2.5460  1.6298 -1.5120
  135OSM    C1214632   4.356   3.826   6.588 -0.2657  0.4040 -0.2124
  135OSM   H12A14633   4.306   3.908   6.537 -0.5048 -1.1049 -2.5427
  135OSM   H12B14634   4.368   3.849   6.693 -1.4600 -2.8640  0.7424
  135OSM    C1114635   4.241   3.725   6.582  0.3847  0.2678  0.1755
  135OSM   H11A14636   4.228   3.708   6.473  1.3327  0.1064  0.0778
  135OSM   H11B14637   4.144   3.751   6.628  1.8172  0.1269  3.5467
  135OSM      P14638   4.256   3.469   6.596 -0.1746  0.6818 -0.0963
  135OSM    O1314639   4.385   3.405   6.632  0.3111 -0.4215 -0.1604
  135OSM    O1414640   4.132   3.400   6.638  0.6567  0.0916  0.2300
  135OSM    O1114641   4.252   3.481   6.437 -0.3960  0.1045 -0.2963
  135OSM    O1214642   4.268   3.610   6.656  0.0531  0.1458 -0.5413
  135OSM    C1S14643   4.275   3.362   6.365  0.3546  0.2538  0.5114
  135OSM    H1S14644   4.211   3.277   6.398  1.5204 -1.0484 -0.4479
  135OSM    H1T14645   4.377   3.321   6.375 -0.7222 -2.9318 -0.2456
  135OSM     NF14646   4.266   3.247   6.140 -0.0731 -0.2390  0.2453
  135OSM    HNF14647   4.361   3.224   6.120 -0.3126 -1.3365  0.3571
  135OSM    C2S14648   4.246   3.375   6.208 -0.1590 -0.5104 -0.8186
  135OSM    H2S14649   4.146   3.423   6.211 -0.0825 -0.1147  3.9712
  135OSM    C3S14650   4.335   3.487   6.139 -0.8519  0.8167 -0.5374
  135OSM    H3S14651   4.440   3.472   6.172 -0.7528  0.9534 -0.7886
  135OSM     O314652   4.302   3.613   6.193  0.2797 -0.3393  0.4346
  135OSM    HO314653   4.245   3.588   6.266 -0.4662 -1.5101 -0.4903
  135OSM    C4S14654   4.332   3.476   5.992 -0.7182  0.2413  0.7006
  135OSM    H4S14655   4.234   3.494   5.946 -1.2014 -0.4653  1.4211
  135OSM    C5S14656   4.442   3.449   5.921  0.0361 -0.4278 -0.1365
  135OSM    H5S14657   4.538   3.438   5.972  0.2818  0.7189 -0.3284
  135OSM    C6S14658   4.450   3.433   5.770 -0.4415  0.6367  0.5194
  135OSM    H6S14659   4.558   3.435   5.742 -0.8440 -1.0075 -1.3915
  135OSM    H6T14660   4.399   3.521   5.727  1.0335  2.1414  1.7020
  135OSM    C7S14661   4.392   3.304   5.704 -0.0329  0.5011  0.5065
  135OSM    H7S14662   4.432   3.301   5.601 -1.3377 -1.6369  0.0039
  135OSM    H7T14663   4.284   3.327   5.691 -0.1612  1.2046  2.4563
  135OSM    C8S14664   4.405   3.166   5.777 -0.3318  0.2245  0.0459
  135OSM    H8S14665   4.348   3.088   5.721  0.4337  0.1769 -0.6808
  135OSM    H8T14666   4.380   3.170   5.885  2.6434 -0.2840  0.8467
  135OSM    C9S14667   4.557   3.131   5.781 -0.5898 -0.2078 -0.0247
  135OSM    H9S14668   4.615   3.212   5.830 -0.2031 -0.7069  0.3505
  135OSM    H9T14669   4.593   3.119   5.677 -2.0052  1.6943 -0.7963
  135OSM   C10S14670   4.583   3.008   5.860 -0.1264  0.1688 -0.0236
  135OSM   H10S14671   4.522   2.920   5.831  0.0199  0.1067 -0.1481
  135OSM   H10T14672   4.553   3.022   5.966  0.1498  0.1249  0.0634
  135OSM   C11S14673   4.737   2.965   5.856  0.0662  0.1427  0.2126
  135OSM   H11S14674   4.795   3.060   5.861  0.6063 -0.1985  0.5637
  135OSM   H11T14675   4.753   2.921   5.755 -1.4257 -4.6707  1.7683
  135OSM   C12S14676   4.762   2.858   5.959 -0.7961  0.7279  0.3656
  135OSM   H12S14677   4.730   2.911   6.051  0.7665  1.4212  0.5366
  135OSM   H12T14678   4.871   2.838   5.969 -0.5742  0.4645 -2.0022
  135OSM   C13S14679   4.689   2.715   5.947 -0.5980 -1.4679 -0.3875
  135OSM   H13S14680   4.580   2.728   5.932 -0.7694 -0.1412  1.5820
  135OSM   H13T14681   4.692   2.652   6.038 -0.4123 -0.4754  0.3218
  135OSM   C14S14682   4.744   2.641   5.830 -0.0728 -0.2264  0.3296
  135OSM   H14S14683   4.854   2.632   5.844 -0.2243 -1.0751  1.0512
  135OSM   H14T14684   4.722   2.682   5.730  2.1605  0.0761 -0.0890
  135OSM   C15S14685   4.695   2.492   5.834 -0.4210 -0.4268  0.0758
  135OSM   H15S14686   4.585   2.506   5.831 -0.1313  2.5575  0.3310
  135OSM   H15T14687   4.743   2.443   5.922 -2.6091  0.4071  1.8341
  135OSM   C16S14688   4.745   2.405   5.716  0.2067  0.8412  0.3194
  135OSM   H16S14689   4.733   2.299   5.748  2.1996  1.0516  1.9319
  135OSM   H16T14690   4.855   2.417   5.720  0.4108 -0.5116 -0.6131
  135OSM   C17S14691   4.669   2.429   5.575  0.3124 -0.4247  0.1135
  135OSM   H17S14692   4.669   2.540   5.564 -0.3133 -0.5211 -1.0285
  135OSM   H17T14693   4.560   2.408   5.572  0.4824 -1.2621 -1.9810
  135OSM   C18S14694   4.728   2.347   5.455 -0.3116 -0.0294  0.0110
  135OSM   H18S14695   4.658   2.370   5.372 -1.0711  1.0441  0.9260
  135OSM   H18T14696   4.713   2.239   5.479  2.1433 -0.5249 -0.3888
  135OSM   H18U14697   4.835   2.377   5.445 -0.0971 -0.9109 -0.4432
  135OSM    C1F14698   4.173   3.154   6.145 -0.4881  0.8505 -0.1163
  135OSM     OF14699   4.060   3.167   6.204 -0.3974  0.3963 -0.1731
  135OSM    C2F14700   4.216   3.021   6.083 -0.3665  0.1880  0.3128
  135OSM    H2F14701   4.222   2.951   6.169 -0.1441 -0.5796 -0.3208
  135OSM    H2G14702   4.314   3.042   6.036 -0.7203  1.0129 -0.0875
  135OSM    C3F14703   4.124   2.968   5.969  0.5330 -0.2752  0.3265
  135OSM    H3F14704   4.190   2.892   5.922 -1.4457 -2.5963  1.1524
  135OSM    H3G14705   4.105   3.048   5.895  3.3416 -1.0827 -1.4122
  135OSM    C4F14706   3.988   2.919   6.013 -0.3882 -0.5935  0.3987
  135OSM    H4F14707   3.984   2.851   6.101  0.2154  0.9217  1.6603
  135OSM    H4G14708   3.922   3.004   6.041 -1.0716 -0.5576 -1.2127
  135OSM    C5F14709   3.916   2.833   5.899 -0.2118 -0.1113  0.1359
  135OSM    H5F14710   3.950   2.852   5.796 -0.2474 -2.6432 -0.4082
  135OSM    H5G14711   3.810   2.867   5.898  0.0374  0.7386 -2.2897
  135OSM    C6F14712   3.927   2.682   5.924 -0.2170  0.2262  0.7635
  135OSM    H6F14713   3.904   2.658   6.029 -1.2357 -0.9642  0.2919
  135OSM    H6G14714   4.028   2.638   5.909  0.1977  0.4187  2.7270
  135OSM    C7F14715   3.835   2.602   5.828  0.2544  0.4060  0.0650
  135OSM    H7F14716   3.856   2.494   5.844  0.7239  0.0189 -2.6730
  135OSM    H7G14717   3.849   2.616   5.719 -3.0654 -0.5535 -0.6184
  135OSM    C8F14718   3.694   2.632   5.856  0.2476  0.1938  0.2036
  135OSM    H8F14719   3.650   2.734   5.845 -1.3560 -0.3550  1.2011
  135OSM    H8G14720   3.682   2.616   5.966 -1.2475  0.9951  0.1888
  135OSM    C9F14721   3.585   2.529   5.812 -1.0546 -0.2845  0.1131
  135OSM    H9F14722   3.523   2.485   5.891 -0.3136 -2.5731 -0.5030
  135OSM   C10F14723   3.557   2.502   5.685 -0.3083 -0.1272 -0.1069
  135OSM   H10F14724   3.487   2.421   5.661  0.6831 -1.3187  0.9122
  135OSM   C11F14725   3.614   2.564   5.559  0.2578  0.2907  0.1082
  135OSM   H11F14726   3.666   2.661   5.579  0.7962  0.4445 -1.7867
  135OSM   H11G14727   3.532   2.604   5.495 -1.7029 -3.1433  0.2553
  135OSM   C12F14728   3.707   2.473   5.481  0.4275  0.4895  0.3028
  135OSM   H12F14729   3.656   2.382   5.443  3.4463  0.1324 -3.4986
  135OSM   H12G14730   3.782   2.441   5.557  1.6589  2.4018 -0.0257
  135OSM   C13F14731   3.783   2.535   5.367 -0.5975 -0.2643  0.5043
  135OSM   H13F14732   3.849   2.606   5.421  0.3116 -2.9684  3.2805
  135OSM   H13G14733   3.718   2.597   5.302 -1.8297 -1.6706  0.3266
  135OSM   C14F14734   3.863   2.427   5.295 -0.1649 -0.2348  0.0296
  135OSM   H14F14735   3.798   2.341   5.266 -3.1221  1.7415  0.3210
  135OSM   H14G14736   3.933   2.382   5.368 -0.9504 -1.3140  0.1496
  135OSM   C15F14737   3.955   2.487   5.178  0.4904  0.8309  0.0097
  135OSM   H15F14738   4.023   2.404   5.148  0.6230  0.7577  0.5035
  135OSM   H15G14739   4.015   2.571   5.218  0.9460  1.0276 -1.0494
  135OSM   C16F14740   3.882   2.520   5.047  0.9037 -0.7516 -0.0780
  135OSM   H16F14741   3.853   2.627   5.038  0.5026 -0.6590  1.8419
  135OSM   H16G14742   3.785   2.467   5.044  0.0611  0.7568 -1.9823
  135OSM   C17F14743   3.952   2.484   4.920 -0.2499  0.4748  0.4919
  135OSM   H17F14744   3.960   2.373   4.922  2.6130  0.5536 -1.0955
  135OSM   H17G14745   4.059   2.511   4.906 -0.4581  1.0793  0.0312
  135OSM   C18F14746   3.880   2.519   4.790 -0.1668 -0.2248  0.3616
  135OSM   H18F14747   3.933   2.475   4.703  0.1377  0.6070  0.1111
  135OSM   H18G14748   3.863   2.629   4.782 -0.4388 -0.2164  0.9585
  135OSM   H18H14749   3.779   2.474   4.782  0.1429 -0.7427 -0.8591
  136OSM      N14750   6.391   5.447   7.382 -0.5739 -0.6140 -0.9599
  136OSM    C1514751   6.508   5.512   7.452  0.5489  0.2648  0.0567
  136OSM   H15A14752   6.549   5.437   7.517 -0.3548 -0.8268 -0.5991
  136OSM   H15B14753   6.475   5.607   7.491 -2.2454  0.6535 -2.8505
  136OSM   H15C14754   6.578   5.530   7.372  0.9950  0.4665  0.4899
  136OSM    C1414755   6.444   5.347   7.285 -0.0246 -0.1711  0.5575
  136OSM   H14A14756   6.521   5.287   7.333 -0.2601  0.2098  1.4335
  136OSM   H14B14757   6.486   5.391   7.197 -0.5391 -0.2898  0.2484
  136OSM   H14C14758   6.369   5.270   7.271  1.5184 -2.0628  1.9319
  136OSM    C1314759   6.309   5.374   7.486  0.1995 -0.6084 -0.3041
  136OSM   H13A14760   6.212   5.337   7.455 -0.0939 -0.3414  0.2703
  136OSM   H13B14761   6.296   5.434   7.575 -2.2567 -2.0232  0.4046
  136OSM   H13C14762   6.368   5.288   7.514  1.1608  0.3111  0.5613
  136OSM    C1214763   6.304   5.553   7.321  0.2789 -0.4800 -0.5846
  136OSM   H12A14764   6.277   5.631   7.390  0.0785 -0.4609 -0.6828
  136OSM   H12B14765   6.208   5.509   7.299  0.3254 -1.4974  1.0742
  136OSM    C1114766   6.371   5.611   7.196 -0.9530 -0.5757  0.2280
  136OSM   H11A14767   6.384   5.535   7.115  2.9383  0.2831 -0.1872
  136OSM   H11B14768   6.477   5.640   7.215 -0.2068 -1.9881 -1.4745
  136OSM      P14769   6.347   5.811   7.035  0.3942  0.1096  0.1528
  136OSM    O1314770   6.231   5.847   6.954  0.5816 -0.7714  0.5229
  136OSM    O1414771   6.436   5.913   7.095  0.0758  0.8519 -0.5459
  136OSM    O1114772   6.452   5.713   6.957  0.0851  0.4143 -0.4552
  136OSM    O1214773   6.293   5.721   7.151  0.0692  0.5301  0.3040
  136OSM    C1S14774   6.418   5.667   6.826 -0.2785  0.2340  0.6763
  136OSM    H1S14775   6.311   5.638   6.818 -0.1481  0.2351 -4.2704
  136OSM    H1T14776   6.473   5.574   6.799  0.0136  0.7523 -0.5658
  136OSM     NF14777   6.396   5.716   6.585  0.1805 -0.4005 -0.3836
  136OSM    HNF14778   6.452   5.647   6.538 -1.0127 -0.1864 -2.1977
  136OSM    C2S14779   6.433   5.775   6.713 -0.9216  0.3177 -0.4890
  136OSM    H2S14780   6.365   5.860   6.733 -2.4440 -1.0606  0.4647
  136OSM    C3S14781   6.580   5.828   6.715 -0.5475  0.2321 -0.3947
  136OSM    H3S14782   6.659   5.751   6.721 -0.8759 -0.0127  1.2280
  136OSM     O314783   6.616   5.910   6.822  0.2812  0.1900 -0.5072
  136OSM    HO314784   6.550   5.885   6.887  1.1479 -1.8243 -0.3319
  136OSM    C4S14785   6.596   5.912   6.594  0.3099  0.2535 -0.5098
  136OSM    H4S14786   6.527   5.997   6.596 -2.6190 -1.9896  0.2064
  136OSM    C5S14787   6.689   5.904   6.499  0.1656  0.5611 -0.7894
  136OSM    H5S14788   6.775   5.837   6.515  0.7475  1.2863 -0.8520
  136OSM    C6S14789   6.709   5.994   6.382  0.0998 -0.1994 -0.5393
  136OSM    H6S14790   6.777   6.079   6.403  1.3286 -1.0908 -0.8081
  136OSM    H6T14791   6.617   6.051   6.357  0.2956  0.6022  0.4988
  136OSM    C7S14792   6.762   5.918   6.262  0.2150 -0.4898  0.2462
  136OSM    H7S14793   6.855   5.862   6.285  0.9998  0.8266  0.3868
  136OSM    H7T14794   6.797   5.987   6.182 -1.2806 -1.3678 -1.2435
  136OSM    C8S14795   6.650   5.832   6.205 -0.0077 -0.2367 -0.4632
  136OSM    H8S14796   6.568   5.903   6.182  0.1114  0.3186  0.7371
  136OSM    H8T14797   6.613   5.762   6.283 -1.3244 -0.4711 -1.2699
  136OSM    C9S14798   6.698   5.747   6.083 -0.5490 -0.1444 -0.5025
  136OSM    H9S14799   6.633   5.657   6.085 -0.5675 -0.2251 -2.5183
  136OSM    H9T14800   6.803   5.717   6.104  0.3706  3.3065  0.3929
  136OSM   C10S14801   6.695   5.826   5.955 -0.0904 -0.2248  0.6060
  136OSM   H10S14802   6.772   5.906   5.949 -2.6519  2.2394 -2.2684
  136OSM   H10T14803   6.596   5.875   5.959  0.9003  1.8541  0.8943
  136OSM   C11S14804   6.707   5.736   5.833 -1.0905  0.3220 -0.1699
  136OSM   H11S14805   6.626   5.661   5.842 -0.6278 -0.0793  0.7634
  136OSM   H11T14806   6.796   5.671   5.825 -1.5682 -0.1669 -2.0749
  136OSM   C12S14807   6.694   5.817   5.704 -0.7321 -0.7882  0.2044
  136OSM   H12S14808   6.773   5.895   5.703 -1.7830  0.3129 -0.3334
  136OSM   H12T14809   6.595   5.867   5.696 -0.5933 -0.4550  0.5295
  136OSM   C13S14810   6.721   5.730   5.585  0.7570  0.6525 -0.5709
  136OSM   H13S14811   6.645   5.650   5.592  2.1597 -0.6185  0.7510
  136OSM   H13T14812   6.822   5.685   5.600  1.0813  1.5313 -0.0542
  136OSM   C14S14813   6.699   5.811   5.459  0.6474  0.1725  0.1257
  136OSM   H14S14814   6.774   5.891   5.446 -1.7469  2.1303 -3.5552
  136OSM   H14T14815   6.604   5.869   5.462  1.5055  1.5953  0.5489
  136OSM   C15S14816   6.704   5.723   5.328 -0.6959  0.1857 -0.2481
  136OSM   H15S14817   6.645   5.631   5.351  0.9580 -0.9911 -0.5855
  136OSM   H15T14818   6.809   5.694   5.311 -1.0024 -1.3273  0.3047
  136OSM   C16S14819   6.652   5.782   5.194 -0.1634 -0.7338 -0.8890
  136OSM   H16S14820   6.715   5.869   5.166  1.2947 -0.4819  2.7271
  136OSM   H16T14821   6.554   5.831   5.205  0.6996  0.5826  1.6592
  136OSM   C17S14822   6.644   5.692   5.072 -0.6537  0.1944  0.3697
  136OSM   H17S14823   6.573   5.609   5.090  0.7913 -1.5738 -1.5509
  136OSM   H17T14824   6.741   5.636   5.073 -0.1637  0.8311 -2.7641
  136OSM   C18S14825   6.623   5.759   4.936  0.7290 -0.2427  0.5518
  136OSM   H18S14826   6.641   5.691   4.850  2.1588 -0.2049  0.7922
  136OSM   H18T14827   6.685   5.850   4.924  1.6601 -1.2118 -3.6086
  136OSM   H18U14828   6.517   5.792   4.932  1.5711  2.5450 -1.1096
  136OSM    C1F14829   6.276   5.711   6.540  0.2649  0.3334  0.3857
  136OSM     OF14830   6.186   5.767   6.600  0.2062  0.9729 -0.4879
  136OSM    C2F14831   6.251   5.624   6.426  0.0750 -0.4806  0.6117
  136OSM    H2F14832   6.144   5.599   6.413  0.3395 -0.8168 -1.1256
  136OSM    H2G14833   6.303   5.525   6.426 -2.5289 -1.9473  0.9397
  136OSM    C3F14834   6.291   5.698   6.298 -0.3432  0.0335 -0.3261
  136OSM    H3F14835   6.400   5.719   6.303 -0.0200 -1.3107 -1.2445
  136OSM    H3G14836   6.248   5.799   6.279  0.0503  0.3963  0.6687
  136OSM    C4F14837   6.265   5.614   6.169 -0.5659  0.6163 -0.3134
  136OSM    H4F14838   6.157   5.588   6.157  0.0428 -0.9752 -2.8706
  136OSM    H4G14839   6.306   5.512   6.185 -0.4508  0.9020  1.4844
  136OSM    C5F14840   6.308   5.670   6.034 -0.3579  0.0268  0.2001
  136OSM    H5F14841   6.394   5.736   6.059  0.8486 -1.1411 -0.7001
  136OSM    H5G14842   6.225   5.728   5.988 -0.7314 -1.1518 -0.6488
  136OSM    C6F14843   6.353   5.567   5.933 -0.9544  0.8049  0.0269
  136OSM    H6F14844   6.440   5.507   5.967 -1.8472 -0.3050  0.4127
  136OSM    H6G14845   6.383   5.619   5.839 -0.8293 -0.4090 -0.6254
  136OSM    C7F14846   6.243   5.455   5.898  0.3779  0.1338  0.4171
  136OSM    H7F14847   6.202   5.401   5.985 -1.7731 -2.6251 -2.1187
  136OSM    H7G14848   6.298   5.384   5.833 -1.2553 -1.5942  0.8484
  136OSM    C8F14849   6.120   5.506   5.828  0.0899 -0.2783  0.2264
  136OSM    H8F14850   6.065   5.572   5.899 -0.8021 -3.1089  2.3062
  136OSM    H8G14851   6.042   5.429   5.811  0.0681  0.0436 -1.3203
  136OSM    C9F14852   6.150   5.576   5.697 -0.3857 -0.3921  0.5799
  136OSM    H9F14853   6.208   5.669   5.708  1.6839 -0.9146 -3.6966
  136OSM   C10F14854   6.116   5.545   5.570  0.4787  1.0695 -0.6657
  136OSM   H10F14855   6.153   5.610   5.489  0.5174 -0.2566 -1.7578
  136OSM   C11F14856   6.040   5.422   5.533 -0.1365 -0.4708  0.0975
  136OSM   H11F14857   5.967   5.447   5.453  1.7554  0.6786 -1.3754
  136OSM   H11G14858   5.985   5.368   5.613  0.7738  1.5901  2.2488
  136OSM   C12F14859   6.140   5.320   5.471 -0.3755 -0.3002 -0.4453
  136OSM   H12F14860   6.191   5.281   5.562 -1.7988  0.6642  0.8134
  136OSM   H12G14861   6.220   5.366   5.410  2.4525 -0.6931  2.6966
  136OSM   C13F14862   6.070   5.208   5.395 -0.0900  0.1659  0.3890
  136OSM   H13F14863   5.997   5.148   5.453 -0.1667 -0.4837 -0.3786
  136OSM   H13G14864   6.153   5.139   5.369  1.2188  1.0700  1.9586
  136OSM   C14F14865   6.015   5.241   5.255  0.0458  0.2951  0.6981
  136OSM   H14F14866   6.091   5.300   5.198  0.9903  0.3852  2.0098
  136OSM   H14G14867   5.927   5.308   5.259 -1.0862 -1.0217 -0.7900
  136OSM   C15F14868   5.962   5.119   5.177  0.0487 -0.7017  0.9082
  136OSM   H15F14869   5.892   5.072   5.249 -1.3102 -0.0012  0.0834
  136OSM   H15G14870   6.039   5.043   5.153  0.1517  0.4484 -3.2046
  136OSM   C16F14871   5.880   5.141   5.048 -0.0948  0.1367 -0.1384
  136OSM   H16F14872   5.787   5.199   5.061 -0.3945  0.6434 -3.6204
  136OSM   H16G14873   5.842   5.047   5.003  0.1942  0.9839 -2.2372
  136OSM   C17F14874   5.947   5.216   4.936 -0.1171  0.4146 -0.0600
  136OSM   H17F14875   6.050   5.177   4.916  0.5500  0.9158  2.1002
  136OSM   H17G14876   5.968   5.317   4.978  3.4758 -0.5295  0.8073
  136OSM   C18F14877   5.861   5.238   4.814 -0.4593 -0.2734  0.7000
  136OSM   H18F14878   5.877   5.158   4.738  0.1953  1.0684 -0.6530
  136OSM   H18G14879   5.905   5.325   4.761  0.9182 -2.3452 -1.8325
  136OSM   H18H14880   5.753   5.252   4.837 -0.2504  1.6121  0.7052
  137OSM      N14881   3.041   4.594   7.153  0.4963 -0.2629 -0.1747
  137OSM    C1514882   2.994   4.648   7.288  0.1083 -0.0474  0.0375
  137OSM   H15A14883   3.079   4.656   7.355  1.4777  1.6730 -1.7759
  137OSM   H15B14884   2.921   4.580   7.329 -1.5059 -0.2954 -2.9974
  137OSM   H15C14885   2.943   4.742   7.272 -2.8995 -1.6442 -0.3332
  137OSM    C1414886   3.144   4.689   7.099  1.0918  0.6151 -0.0814
  137OSM   H14A14887   3.166   4.662   6.997  0.1520 -0.1273 -0.1011
  137OSM   H14B14888   3.243   4.682   7.141  0.8404 -2.5307  0.2252
  137OSM   H14C14889   3.115   4.793   7.105  0.3294  0.4131 -0.1338
  137OSM    C1314890   3.106   4.467   7.165  0.0696  0.3695 -0.0307
  137OSM   H13A14891   3.122   4.413   7.072  0.3945 -0.8951  0.7258
  137OSM   H13B14892   3.042   4.397   7.218  1.3892  0.0363  1.1925
  137OSM   H13C14893   3.200   4.470   7.218 -0.4645 -1.8488  1.1600
  137OSM    C1214894   2.932   4.587   7.047 -0.2168  0.1324  0.1236
  137OSM   H12A14895   2.902   4.688   7.022  1.3706  0.3852 -0.9519
  137OSM   H12B14896   2.851   4.524   7.080 -0.3303  0.7810  1.1314
  137OSM    C1114897   2.972   4.515   6.912 -0.4427 -0.0024 -0.3535
  137OSM   H11A14898   3.081   4.530   6.900 -0.6749  0.8815 -1.5021
  137OSM   H11B14899   2.926   4.577   6.833  2.0562  0.2580 -1.6827
  137OSM      P14900   3.031   4.270   6.859  0.0980  0.1894 -0.2959
  137OSM    O1314901   3.161   4.271   6.927 -0.1754  0.2489 -0.3472
  137OSM    O1414902   2.960   4.140   6.854 -0.3130  0.2344 -0.7594
  137OSM    O1114903   3.054   4.315   6.718 -0.5366 -0.1953  0.5800
  137OSM    O1214904   2.932   4.372   6.930 -0.2682  0.1339  1.1794
  137OSM    C1S14905   2.944   4.297   6.623 -0.1229  0.0614  0.0720
  137OSM    H1S14906   2.862   4.362   6.660  0.6744  0.5333  1.0626
  137OSM    H1T14907   2.913   4.191   6.617  0.6661 -0.2553  1.2146
  137OSM     NF14908   2.878   4.294   6.381  0.1781 -0.4851  0.1914
  137OSM    HNF14909   2.914   4.226   6.317  1.1889 -0.9401  1.2165
  137OSM    C2S14910   2.978   4.355   6.474 -0.2392  1.0207 -0.6892
  137OSM    H2S14911   2.951   4.462   6.487 -1.7737  0.3632  2.6702
  137OSM    C3S14912   3.130   4.343   6.431 -0.7867  0.3137  0.3111
  137OSM    H3S14913   3.158   4.238   6.409  1.8895  1.3884 -1.8708
  137OSM     O314914   3.233   4.372   6.523  0.0114 -0.2599 -0.5829
  137OSM    HO314915   3.185   4.386   6.605 -0.5807 -0.9383 -0.8112
  137OSM    C4S14916   3.157   4.390   6.285 -0.1905 -0.7391 -0.1841
  137OSM    H4S14917   3.139   4.313   6.209  1.5806 -0.6414 -0.7551
  137OSM    C5S14918   3.217   4.507   6.246 -0.1830  0.1500  1.2696
  137OSM    H5S14919   3.262   4.575   6.320  2.5233 -0.3443  0.1852
  137OSM    C6S14920   3.246   4.541   6.100 -0.2270 -0.3131  0.5003
  137OSM    H6S14921   3.340   4.599   6.106 -0.7324  0.3756  2.1670
  137OSM    H6T14922   3.176   4.615   6.056  0.3693 -0.9936 -1.7260
  137OSM    C7S14923   3.265   4.434   5.992 -0.6264  0.9885 -0.7563
  137OSM    H7S14924   3.166   4.395   5.960  0.1056 -1.2079 -0.5268
  137OSM    H7T14925   3.332   4.353   6.030 -1.7228  1.1678  1.7042
  137OSM    C8S14926   3.337   4.486   5.871 -0.3815 -0.3517 -0.1707
  137OSM    H8S14927   3.367   4.401   5.807  1.5051 -0.9420  1.4321
  137OSM    H8T14928   3.431   4.532   5.908 -0.1050 -1.7306  0.8882
  137OSM    C9S14929   3.256   4.567   5.772  0.7580  0.2937 -0.2911
  137OSM    H9S14930   3.192   4.635   5.831 -0.4460 -0.8205 -0.2562
  137OSM    H9T14931   3.182   4.505   5.717 -0.3370 -0.0202  1.4699
  137OSM   C10S14932   3.350   4.652   5.685  0.1899 -0.6242 -0.4060
  137OSM   H10S14933   3.397   4.728   5.750 -0.6647 -1.0017  0.6772
  137OSM   H10T14934   3.288   4.712   5.615 -0.2294  3.8510  3.3060
  137OSM   C11S14935   3.456   4.583   5.611  0.0245  0.0177  0.5387
  137OSM   H11S14936   3.405   4.515   5.539 -1.1661  1.2063  0.2190
  137OSM   H11T14937   3.510   4.507   5.671  0.6818  1.0453  1.2959
  137OSM   C12S14938   3.547   4.685   5.534 -0.3080 -0.0580  0.1194
  137OSM   H12S14939   3.643   4.638   5.502 -0.0904  1.9061 -2.4944
  137OSM   H12T14940   3.568   4.778   5.591 -1.5026 -0.6099  1.4990
  137OSM   C13S14941   3.480   4.722   5.399  0.2078 -0.2491 -0.4992
  137OSM   H13S14942   3.550   4.801   5.363  0.0967  0.3781  0.6160
  137OSM   H13T14943   3.379   4.768   5.406  1.9604  4.0515 -0.5587
  137OSM   C14S14944   3.465   4.610   5.296 -0.2373  0.1210  0.4684
  137OSM   H14S14945   3.450   4.515   5.352  1.3587  0.3399  1.3235
  137OSM   H14T14946   3.558   4.600   5.235  0.5983  1.6052  1.4458
  137OSM   C15S14947   3.340   4.600   5.207 -0.7990  0.2097  0.5750
  137OSM   H15S14948   3.253   4.605   5.276 -0.7489  2.9151  0.5573
  137OSM   H15T14949   3.349   4.499   5.161  0.1496  0.0542  1.0853
  137OSM   C16S14950   3.341   4.708   5.100 -0.7921 -0.7983  0.8718
  137OSM   H16S14951   3.442   4.727   5.058 -0.7158 -1.1526  0.8900
  137OSM   H16T14952   3.323   4.806   5.149  1.4205  0.2536 -0.2689
  137OSM   C17S14953   3.228   4.694   4.995  0.3157 -0.4533  0.0742
  137OSM   H17S14954   3.137   4.658   5.047  0.3905 -2.3586 -1.0538
  137OSM   H17T14955   3.269   4.612   4.932  1.7142  1.1744 -1.2514
  137OSM   C18S14956   3.202   4.821   4.908 -0.3410  0.1712  0.0012
  137OSM   H18S14957   3.284   4.824   4.834 -0.8114 -0.6130 -0.5633
  137OSM   H18T14958   3.189   4.916   4.965  1.4019  0.4163  0.0563
  137OSM   H18U14959   3.106   4.810   4.854  0.5989 -1.2802 -1.4602
  137OSM    C1F14960   2.741   4.312   6.391 -1.0259 -0.4201 -1.1493
  137OSM     OF14961   2.688   4.384   6.473  0.0059 -0.0111  0.0044
  137OSM    C2F14962   2.667   4.230   6.303  0.1529 -0.2130 -0.3919
  137OSM    H2F14963   2.684   4.122   6.324 -1.0991 -0.2274  0.7133
  137OSM    H2G14964   2.709   4.243   6.201 -4.1451 -1.5567 -2.5931
  137OSM    C3F14965   2.512   4.249   6.316 -0.1716 -0.3122 -0.2613
  137OSM    H3F14966   2.481   4.356   6.317 -0.9742 -0.5438  0.7386
  137OSM    H3G14967   2.495   4.217   6.420 -0.9761  0.3347 -0.1803
  137OSM    C4F14968   2.433   4.171   6.214  0.2202  0.5785  0.0587
  137OSM    H4F14969   2.326   4.160   6.244  0.4072 -0.5708  0.3576
  137OSM    H4G14970   2.468   4.066   6.212 -3.3128 -0.7256 -0.5428
  137OSM    C5F14971   2.433   4.235   6.072 -0.7857 -0.8138  0.4398
  137OSM    H5F14972   2.533   4.243   6.024 -0.1041  1.4540  2.0187
  137OSM    H5G14973   2.402   4.342   6.077 -2.6783 -0.9993 -3.4265
  137OSM    C6F14974   2.328   4.184   5.973 -0.8468  0.4551 -0.5595
  137OSM    H6F14975   2.382   4.111   5.909  0.0134 -1.4570  2.1860
  137OSM    H6G14976   2.279   4.257   5.906 -0.2420  2.1615  0.7767
  137OSM    C7F14977   2.218   4.087   6.016 -0.7930  0.0037 -0.0715
  137OSM    H7F14978   2.161   4.124   6.104  1.7851 -3.0368  3.1361
  137OSM    H7G14979   2.267   3.995   6.052 -0.3337  0.2021 -0.1796
  137OSM    C8F14980   2.136   4.035   5.901 -0.3129 -0.4236 -0.2384
  137OSM    H8F14981   2.080   3.957   5.956 -0.8263  0.1173  0.0102
  137OSM    H8G14982   2.215   3.998   5.831  1.0080  2.3520 -0.3317
  137OSM    C9F14983   2.031   4.127   5.833  0.4176  0.2772  1.1993
  137OSM    H9F14984   1.933   4.136   5.882 -0.7586 -1.3785 -0.6910
  137OSM   C10F14985   2.045   4.188   5.712 -0.0206  0.6625 -0.7241
  137OSM   H10F14986   1.954   4.229   5.665 -1.6147 -0.6912  1.0168
  137OSM   C11F14987   2.156   4.165   5.615 -0.8922 -0.4235 -1.1539
  137OSM   H11F14988   2.242   4.102   5.646 -0.8164 -0.2055 -0.9183
  137OSM   H11G14989   2.206   4.257   5.576  0.5043 -1.5031 -1.9755
  137OSM   C12F14990   2.093   4.097   5.491 -0.1830 -0.2146  0.0262
  137OSM   H12F14991   2.026   4.180   5.458 -0.0672  0.8940  2.3586
  137OSM   H12G14992   2.034   4.007   5.519 -2.6572  0.6664 -1.9881
  137OSM   C13F14993   2.193   4.067   5.380  0.1273 -0.2277  0.6775
  137OSM   H13F14994   2.253   3.982   5.418  0.3237 -0.0303  0.8092
  137OSM   H13G14995   2.261   4.154   5.366 -0.3101  0.2414  1.4058
  137OSM   C14F14996   2.130   4.018   5.244 -0.1532 -0.0540  0.0877
  137OSM   H14F14997   2.049   4.088   5.213  0.1272 -0.2451 -1.1150
  137OSM   H14G14998   2.093   3.916   5.266 -1.4086  0.1348 -1.0405
  137OSM   C15F14999   2.238   4.033   5.131 -0.0787 -0.8367 -0.3295
  137OSM   H15F15000   2.334   3.981   5.149 -0.5274 -1.4338  0.3535
  137OSM   H15G15001   2.250   4.143   5.120 -1.9311 -0.7957 -2.9564
  137OSM   C16F15002   2.190   3.982   4.992 -0.1723  0.4548  0.0498
  137OSM   H16F15003   2.104   4.051   4.980  0.8205  2.0471  1.5425
  137OSM   H16G15004   2.153   3.877   5.001 -2.1530  1.1282  0.1581
  137OSM   C17F15005   2.288   3.998   4.874  0.1076 -0.5519 -0.3830
  137OSM   H17F15006   2.227   3.967   4.787 -0.8699  0.0409  0.0682
  137OSM   H17G15007   2.378   3.933   4.877  2.3520  2.3724  1.1722
  137OSM   C18F15008   2.321   4.146   4.867 -0.4081  0.3067 -0.0273
  137OSM   H18F15009   2.390   4.163   4.782 -0.3516  1.6739  0.2634
  137OSM   H18G15010   2.377   4.190   4.953 -0.4808  1.8012 -0.6994
  137OSM   H18H15011   2.232   4.212   4.859 -0.2307  0.9628  2.3575
  138OSM      N15012   6.571   4.221   6.804 -0.0342 -0.0285  0.2811
  138OSM    C1515013   6.667   4.129   6.716 -0.1117 -0.2623  0.6554
  138OSM   H15A15014   6.762   4.179   6.708  0.2529 -0.8416  1.2702
  138OSM   H15B15015   6.620   4.098   6.624 -0.2390 -1.2179  1.0372
  138OSM   H15C15016   6.681   4.037   6.771  0.4408 -1.7149 -1.7753
  138OSM    C1415017   6.622   4.220   6.945 -0.6529 -0.3109  0.8398
  138OSM   H14A15018   6.730   4.219   6.945 -0.6338 -2.0154  0.1003
  138OSM   H14B15019   6.596   4.131   7.001  0.8064  0.5417  3.0245
  138OSM   H14C15020   6.583   4.305   6.998  0.4581  0.7290  0.0257
  138OSM    C1315021   6.583   4.355   6.751 -0.3183  0.5454  0.9479
  138OSM   H13A15022   6.525   4.430   6.803 -1.0891  1.2035 -0.7653
  138OSM   H13B15023   6.561   4.357   6.645 -2.5971  0.6344  1.3616
  138OSM   H13C15024   6.683   4.394   6.752 -0.6133  1.3765  0.0009
  138OSM    C1215025   6.434   4.166   6.801  0.5097 -0.2588  0.1594
  138OSM   H12A15026   6.365   4.238   6.843 -0.9832 -1.2996 -0.4323
  138OSM   H12B15027   6.425   4.073   6.855  1.2231  0.1208  0.9660
  138OSM    C1115028   6.380   4.143   6.661  0.3652 -0.2462 -0.6549
  138OSM   H11A15029   6.440   4.061   6.614  0.9610 -0.8728  1.1097
  138OSM   H11B15030   6.390   4.234   6.599 -1.8721  0.5761  0.0873
  138OSM      P15031   6.191   3.965   6.676  0.0931 -0.0069 -0.6482
  138OSM    O1315032   6.252   3.898   6.789 -0.2916 -0.1450  0.0230
  138OSM    O1415033   6.044   3.972   6.671  0.3985 -0.2741 -0.5508
  138OSM    O1115034   6.247   3.904   6.542 -0.3147 -0.1708  0.1336
  138OSM    O1215035   6.241   4.110   6.660  0.1964  0.1559  0.5140
  138OSM    C1S15036   6.230   3.959   6.413  0.3542 -0.8812 -0.6407
  138OSM    H1S15037   6.291   4.052   6.414  1.9041 -1.8752  0.8006
  138OSM    H1T15038   6.129   4.002   6.396  1.6257  1.9050 -1.8149
  138OSM     NF15039   6.289   3.938   6.167  0.5015  0.1645 -0.9578
  138OSM    HNF15040   6.216   3.912   6.104 -1.9502  1.5828  1.0791
  138OSM    C2S15041   6.285   3.864   6.297 -0.5001  0.1689  1.0479
  138OSM    H2S15042   6.388   3.844   6.332 -0.4235 -0.3562  0.5416
  138OSM    C3S15043   6.200   3.730   6.295 -0.8961 -0.0932  0.0161
  138OSM    H3S15044   6.097   3.751   6.259 -1.1056  1.7416  1.5699
  138OSM     O315045   6.169   3.674   6.425  0.1587 -0.1450 -0.0260
  138OSM    HO315046   6.162   3.757   6.473  0.9857  2.6078 -4.1238
  138OSM    C4S15047   6.259   3.626   6.200 -0.1141  0.7351 -0.2633
  138OSM    H4S15048   6.202   3.606   6.108  1.7591 -1.2820 -1.0700
  138OSM    C5S15049   6.372   3.547   6.219  0.3356  0.1999 -0.8558
  138OSM    H5S15050   6.428   3.551   6.314  1.2287  0.6702 -1.3876
  138OSM    C6S15051   6.424   3.451   6.122  0.1983 -0.0749 -0.1402
  138OSM    H6S15052   6.419   3.345   6.153  2.9090 -0.6298 -1.3713
  138OSM    H6T15053   6.535   3.459   6.119  0.0930  1.5140 -1.2672
  138OSM    C7S15054   6.375   3.465   5.976 -0.6034  0.7063  0.6225
  138OSM    H7S15055   6.410   3.558   5.927  0.7991 -0.8648 -1.5158
  138OSM    H7T15056   6.264   3.465   5.971 -0.5505  0.8782 -2.6424
  138OSM    C8S15057   6.414   3.336   5.889 -0.4876  0.1981 -0.3987
  138OSM    H8S15058   6.382   3.248   5.948 -2.0817  1.8093  1.2669
  138OSM    H8T15059   6.525   3.325   5.888 -0.4013  0.8413  0.7983
  138OSM    C9S15060   6.355   3.316   5.747 -0.3211 -0.8594  0.3440
  138OSM    H9S15061   6.246   3.333   5.742 -0.3367  1.0646  3.9967
  138OSM    H9T15062   6.372   3.210   5.719 -1.3301 -1.7812  2.8961
  138OSM   C10S15063   6.430   3.399   5.642  0.1068 -0.6018  0.1114
  138OSM   H10S15064   6.539   3.395   5.667 -0.1345 -1.1852  1.1771
  138OSM   H10T15065   6.405   3.507   5.646  0.0480 -0.4943 -2.2490
  138OSM   C11S15066   6.406   3.350   5.497 -0.9123 -0.2579 -0.6228
  138OSM   H11S15067   6.298   3.370   5.478 -0.7697  0.0396 -1.1097
  138OSM   H11T15068   6.428   3.242   5.484 -0.5775 -0.3485  0.5827
  138OSM   C12S15069   6.482   3.439   5.392  0.3038 -0.6766  0.4286
  138OSM   H12S15070   6.592   3.453   5.394  0.1724  1.9255 -2.4904
  138OSM   H12T15071   6.435   3.540   5.387 -0.1482 -0.8141  1.5053
  138OSM   C13S15072   6.467   3.383   5.244 -0.4987  0.2725  0.2388
  138OSM   H13S15073   6.358   3.371   5.225 -1.0015  2.3783  1.5099
  138OSM   H13T15074   6.519   3.285   5.248  0.1420  0.6375  1.2581
  138OSM   C14S15075   6.524   3.473   5.140 -0.4851  0.5653 -0.2357
  138OSM   H14S15076   6.619   3.523   5.168 -1.5135  2.0357  0.7773
  138OSM   H14T15077   6.455   3.560   5.135 -0.7550  0.3996  0.4077
  138OSM   C15S15078   6.529   3.419   4.993  0.5617  0.2530  0.3237
  138OSM   H15S15079   6.422   3.410   4.965  0.6173  0.3227  0.0872
  138OSM   H15T15080   6.582   3.321   4.994  0.3931  0.1606  0.3796
  138OSM   C16S15081   6.595   3.516   4.891  0.2843  0.2831 -0.7433
  138OSM   H16S15082   6.600   3.613   4.945 -0.6519 -0.7921  1.3454
  138OSM   H16T15083   6.530   3.522   4.801  0.1508  2.7746 -0.5635
  138OSM   C17S15084   6.737   3.488   4.837  0.3805  0.4688  0.1433
  138OSM   H17S15085   6.765   3.567   4.764 -0.7508 -0.9981 -1.9841
  138OSM   H17T15086   6.734   3.392   4.782 -3.5368 -0.4162  1.5674
  138OSM   C18S15087   6.850   3.479   4.940 -0.1463  0.1902  0.3241
  138OSM   H18S15088   6.820   3.408   5.021  0.2122  1.4905  1.6332
  138OSM   H18T15089   6.881   3.567   4.999 -0.3337 -0.4553  1.4123
  138OSM   H18U15090   6.942   3.445   4.889  0.0867  0.5280  0.5238
  138OSM    C1F15091   6.370   4.033   6.137  0.5155  0.0303  0.0094
  138OSM     OF15092   6.455   4.080   6.223  0.1502 -0.1534 -0.1638
  138OSM    C2F15093   6.354   4.098   5.999  0.6634  0.4298  0.1749
  138OSM    H2F15094   6.245   4.118   5.991  0.9827  1.8164 -0.9314
  138OSM    H2G15095   6.380   4.024   5.920 -1.0053 -1.6796  1.4756
  138OSM    C3F15096   6.449   4.220   5.979  0.3856 -0.3563  0.2670
  138OSM    H3F15097   6.554   4.202   6.010  0.6203  1.0193  0.3549
  138OSM    H3G15098   6.414   4.299   6.049 -0.8782 -0.2139 -0.4991
  138OSM    C4F15099   6.457   4.284   5.842  0.1805 -0.5041  0.6638
  138OSM    H4F15100   6.525   4.371   5.859 -1.2711  0.3307  2.5776
  138OSM    H4G15101   6.367   4.339   5.808  1.0708 -0.0142 -1.0065
  138OSM    C5F15102   6.514   4.181   5.739  0.2925  0.5555 -0.1794
  138OSM    H5F15103   6.446   4.096   5.714  1.9337 -1.3775  1.5693
  138OSM    H5G15104   6.608   4.138   5.779  0.2923 -1.0295 -1.7551
  138OSM    C6F15105   6.552   4.256   5.607 -0.1760  0.5910 -1.0260
  138OSM    H6F15106   6.621   4.338   5.633  1.0655 -0.8922  0.6521
  138OSM    H6G15107   6.463   4.307   5.564 -0.4891  0.6518 -0.3265
  138OSM    C7F15108   6.607   4.165   5.497  0.3393 -0.1301 -0.0464
  138OSM    H7F15109   6.543   4.078   5.473  1.1716 -0.8535  0.3085
  138OSM    H7G15110   6.707   4.127   5.527  0.7515  0.0344 -1.1575
  138OSM    C8F15111   6.629   4.247   5.361 -0.1260 -0.2826  0.5948
  138OSM    H8F15112   6.697   4.180   5.303 -0.5449 -2.0909  2.0905
  138OSM    H8G15113   6.693   4.334   5.385 -1.2663  0.8065 -0.2302
  138OSM    C9F15114   6.507   4.292   5.281 -0.5273  0.5450  0.2876
  138OSM    H9F15115   6.418   4.301   5.345  0.2576  0.8965  1.3495
  138OSM   C10F15116   6.498   4.312   5.150 -0.0444 -0.1526 -0.2550
  138OSM   H10F15117   6.402   4.362   5.128 -0.7217 -1.0292  0.6417
  138OSM   C11F15118   6.611   4.318   5.053 -0.1314 -0.0793  0.3167
  138OSM   H11F15119   6.709   4.335   5.102 -0.2604 -2.5613  1.5984
  138OSM   H11G15120   6.595   4.401   4.982  2.2315 -0.2455 -0.4697
  138OSM   C12F15121   6.624   4.183   4.978  0.3012 -0.4832  0.2850
  138OSM   H12F15122   6.529   4.162   4.923  0.4663 -0.8916  0.1515
  138OSM   H12G15123   6.637   4.099   5.049 -0.9808 -0.6978  0.2918
  138OSM   C13F15124   6.743   4.201   4.882  0.0693  0.3565  0.2975
  138OSM   H13F15125   6.830   4.218   4.949 -1.6806 -0.3870  2.9152
  138OSM   H13G15126   6.729   4.290   4.816  1.3095  0.1859 -0.2330
  138OSM   C14F15127   6.775   4.075   4.800  0.4600 -0.4978  0.0657
  138OSM   H14F15128   6.796   3.985   4.862 -0.5482 -0.7814  0.0061
  138OSM   H14G15129   6.867   4.108   4.746  0.5243 -1.4497 -0.4339
  138OSM   C15F15130   6.656   4.039   4.709 -0.5313 -0.8518  0.3187
  138OSM   H15F15131   6.587   3.990   4.782 -0.4320 -0.0026  0.9966
  138OSM   H15G15132   6.689   3.958   4.641  1.7842 -0.7232  1.2097
  138OSM   C16F15133   6.603   4.152   4.619  0.4456  0.1702 -0.2655
  138OSM   H16F15134   6.675   4.195   4.545  1.0085  1.8807  1.1966
  138OSM   H16G15135   6.566   4.239   4.678  0.8654  0.7506 -0.8422
  138OSM   C17F15136   6.489   4.097   4.535 -0.4189  0.1635 -0.6667
  138OSM   H17F15137   6.435   4.183   4.489 -2.6141 -0.4661  0.6197
  138OSM   H17G15138   6.417   4.039   4.595  0.1975 -1.1429 -1.1510
  138OSM   C18F15139   6.523   4.006   4.403 -0.0904 -0.4859  0.1926
  138OSM   H18F15140   6.604   4.066   4.357 -1.0238  1.0047  0.3980
  138OSM   H18G15141   6.440   3.994   4.330 -0.8370 -3.0768  1.3639
  138OSM   H18H15142   6.565   3.909   4.434  3.3613  0.6966 -0.3399
  139OSM      N15143   1.847   4.674   7.023 -0.6975  0.0791  0.1542
  139OSM    C1515144   1.721   4.735   6.963 -0.4999 -0.3776 -1.0221
  139OSM   H15A15145   1.688   4.658   6.894  0.2384 -2.4054  0.7794
  139OSM   H15B15146   1.748   4.832   6.922 -0.6814  0.4745  0.7906
  139OSM   H15C15147   1.654   4.755   7.045 -0.5480 -1.0387 -0.8939
  139OSM    C1415148   1.916   4.782   7.100 -0.3247 -0.0694 -0.2906
  139OSM   H14A15149   1.849   4.816   7.177 -1.0833 -3.2139  0.5987
  139OSM   H14B15150   1.954   4.868   7.047 -0.5933  0.4367  0.3363
  139OSM   H14C15151   1.993   4.723   7.148 -0.3908 -2.7455 -3.0926
  139OSM    C1315152   1.809   4.558   7.105 -0.4036 -0.5812  0.0778
  139OSM   H13A15153   1.793   4.471   7.043  0.5222 -1.7657  1.4331
  139OSM   H13B15154   1.729   4.590   7.170  0.2511  1.1971  0.0448
  139OSM   H13C15155   1.889   4.533   7.173  0.6261 -0.6783 -1.1473
  139OSM    C1215156   1.938   4.622   6.912  0.1367 -0.0221 -0.6991
  139OSM   H12A15157   1.952   4.704   6.842  0.9308 -0.2599 -0.8227
  139OSM   H12B15158   1.882   4.550   6.854 -0.8610  2.2290 -2.7154
  139OSM    C1115159   2.083   4.573   6.947 -0.0354  0.0882  0.2367
  139OSM   H11A15160   2.136   4.635   7.023 -1.0534 -1.1291  2.0081
  139OSM   H11B15161   2.148   4.591   6.858  0.5253  2.9932  1.1167
  139OSM      P15162   2.038   4.317   6.921  0.4131  0.2874  0.6919
  139OSM    O1315163   2.114   4.201   6.963 -0.5024 -1.5310  0.2005
  139OSM    O1415164   1.891   4.312   6.941 -0.0793  0.1329 -0.0750
  139OSM    O1115165   2.068   4.354   6.770  0.1247  0.3220 -0.4807
  139OSM    O1215166   2.091   4.439   6.998  0.6078 -0.4631  0.2014
  139OSM    C1S15167   1.995   4.319   6.654 -0.6132 -0.7845  0.1307
  139OSM    H1S15168   1.886   4.340   6.662 -0.4057  3.3918 -3.7165
  139OSM    H1T15169   2.015   4.212   6.632 -2.2394 -1.0077 -0.3546
  139OSM     NF15170   1.966   4.381   6.418  0.3968  0.0274 -0.2281
  139OSM    HNF15171   2.011   4.306   6.371 -0.1305 -1.9446  2.2165
  139OSM    C2S15172   2.042   4.416   6.539  0.0678 -0.2694 -1.0324
  139OSM    H2S15173   2.009   4.521   6.555 -1.7448 -0.8785 -0.4947
  139OSM    C3S15174   2.199   4.409   6.531  0.2733  0.8632 -0.5342
  139OSM    H3S15175   2.206   4.299   6.511  0.7927  1.1892 -2.3344
  139OSM     O315176   2.283   4.428   6.647 -0.3632  0.3622  0.3731
  139OSM    HO315177   2.218   4.436   6.717 -0.3879 -0.6770  0.4875
  139OSM    C4S15178   2.246   4.475   6.408  0.1816 -0.8169 -0.1538
  139OSM    H4S15179   2.218   4.427   6.313 -1.0911  0.0961 -0.2703
  139OSM    C5S15180   2.297   4.606   6.410  0.3257 -0.3525  0.3503
  139OSM    H5S15181   2.286   4.655   6.507 -1.6773 -2.0613  1.0389
  139OSM    C6S15182   2.346   4.694   6.294 -0.1730  0.2403  0.3317
  139OSM    H6S15183   2.455   4.712   6.300 -0.1483 -0.2949  1.7746
  139OSM    H6T15184   2.282   4.784   6.298 -2.3539 -0.8870 -3.4497
  139OSM    C7S15185   2.323   4.635   6.156  0.2460 -0.1668  0.3692
  139OSM    H7S15186   2.213   4.621   6.143  0.0730 -0.2920  1.7689
  139OSM    H7T15187   2.382   4.543   6.133  0.6956  0.4146 -0.9136
  139OSM    C8S15188   2.384   4.737   6.047 -0.0845 -0.1743 -0.5804
  139OSM    H8S15189   2.493   4.744   6.068  0.1475 -0.9193 -1.4725
  139OSM    H8T15190   2.335   4.833   6.074 -0.6076 -0.7907  0.7609
  139OSM    C9S15191   2.358   4.690   5.904 -0.1970 -0.2843  0.3736
  139OSM    H9S15192   2.250   4.669   5.888 -0.2960 -0.0352  0.6977
  139OSM    H9T15193   2.417   4.596   5.896 -1.2412 -0.8031 -2.4971
  139OSM   C10S15194   2.401   4.781   5.788  0.2588 -0.2086 -0.3894
  139OSM   H10S15195   2.339   4.872   5.801  0.5789 -0.1338  0.6969
  139OSM   H10T15196   2.361   4.729   5.698  2.6189 -1.5346 -0.7662
  139OSM   C11S15197   2.552   4.807   5.776  0.1057 -0.5673  0.2222
  139OSM   H11S15198   2.608   4.712   5.793 -2.2840 -1.9638  0.6636
  139OSM   H11T15199   2.585   4.894   5.837 -1.4515  0.4530 -0.3350
  139OSM   C12S15200   2.579   4.853   5.622  0.7005  0.3708  0.1188
  139OSM   H12S15201   2.540   4.767   5.564  2.6960 -0.4214 -0.0919
  139OSM   H12T15202   2.688   4.864   5.604  0.4089  1.6973 -0.9653
  139OSM   C13S15203   2.509   4.984   5.563 -0.3700  0.1819 -0.5497
  139OSM   H13S15204   2.400   4.964   5.571 -0.2294 -1.1324 -1.6913
  139OSM   H13T15205   2.536   5.002   5.457  1.6995  0.2620 -0.0473
  139OSM   C14S15206   2.550   5.118   5.639 -0.2140  0.6195  0.8281
  139OSM   H14S15207   2.523   5.101   5.745  3.3112 -0.8246  1.6194
  139OSM   H14T15208   2.473   5.193   5.612 -1.2007 -0.9639 -1.0587
  139OSM   C15S15209   2.694   5.166   5.618  0.0929  0.6288 -0.9550
  139OSM   H15S15210   2.758   5.079   5.643  0.6357  0.5447 -2.5430
  139OSM   H15T15211   2.719   5.251   5.685 -2.0311 -1.1158  2.3709
  139OSM   C16S15212   2.709   5.206   5.470 -0.0877 -0.3406 -0.4259
  139OSM   H16S15213   2.650   5.299   5.455 -1.4964 -1.0482  0.5391
  139OSM   H16T15214   2.672   5.135   5.394 -0.5054  0.0768 -0.6137
  139OSM   C17S15215   2.854   5.234   5.438  0.1448  0.3241  0.6684
  139OSM   H17S15216   2.908   5.140   5.412 -0.2136  1.1041 -3.8214
  139OSM   H17T15217   2.905   5.286   5.521  2.2412 -0.4541 -0.0624
  139OSM   C18S15218   2.874   5.323   5.314  0.6715  0.0358 -0.0320
  139OSM   H18S15219   2.810   5.275   5.236  0.0119  1.3086 -0.3152
  139OSM   H18T15220   2.983   5.320   5.293  0.7519 -1.2294  0.4869
  139OSM   H18U15221   2.838   5.426   5.336  2.0416  0.4675  0.2608
  139OSM    C1F15222   1.839   4.421   6.389 -0.5578  0.5738 -0.0392
  139OSM     OF15223   1.785   4.506   6.457 -0.2186  0.1324  0.0441
  139OSM    C2F15224   1.760   4.345   6.272  0.3402 -0.4034  0.4475
  139OSM    H2F15225   1.669   4.312   6.327  0.0672 -0.0594  0.2110
  139OSM    H2G15226   1.815   4.252   6.245  0.6255  0.3051 -1.5635
  139OSM    C3F15227   1.745   4.443   6.149  0.3363 -0.1155 -0.1988
  139OSM    H3F15228   1.722   4.549   6.174 -0.2389 -0.4741  0.8773
  139OSM    H3G15229   1.657   4.408   6.091  0.5897  1.0167 -1.3096
  139OSM    C4F15230   1.861   4.438   6.052  0.2135 -0.1107 -0.6620
  139OSM    H4F15231   1.880   4.338   6.008  2.4416 -0.7623  1.5573
  139OSM    H4G15232   1.945   4.465   6.121 -1.8733 -0.3000  2.1367
  139OSM    C5F15233   1.849   4.540   5.943 -0.2614 -0.9731  0.0643
  139OSM    H5F15234   1.812   4.641   5.973 -1.9532 -2.2409  2.5908
  139OSM    H5G15235   1.766   4.503   5.879 -0.3091  0.3661 -0.6803
  139OSM    C6F15236   1.974   4.563   5.870  0.6317 -0.5440 -0.5526
  139OSM    H6F15237   2.007   4.466   5.829  0.0092 -0.7730 -0.5219
  139OSM    H6G15238   2.057   4.584   5.941 -0.0278 -3.4621  1.2343
  139OSM    C7F15239   1.975   4.674   5.761 -0.5367 -0.2819  0.1428
  139OSM    H7F15240   2.037   4.761   5.792  0.7068 -0.7998 -0.7948
  139OSM    H7G15241   1.872   4.714   5.755 -0.4933 -0.3040 -0.8440
  139OSM    C8F15242   2.016   4.615   5.620 -0.3233 -0.1548 -0.8935
  139OSM    H8F15243   2.003   4.701   5.551  2.9132  2.6177  1.6558
  139OSM    H8G15244   1.951   4.531   5.587 -0.4809 -0.1092 -0.7020
  139OSM    C9F15245   2.151   4.564   5.601  0.2946  0.4674  0.5935
  139OSM    H9F15246   2.197   4.522   5.692 -0.3465 -0.9948  0.2711
  139OSM   C10F15247   2.212   4.529   5.487  0.1845  0.7344 -0.1830
  139OSM   H10F15248   2.312   4.483   5.484 -1.0159 -2.1434  0.0753
  139OSM   C11F15249   2.155   4.563   5.354 -0.3195  0.2829  0.1402
  139OSM   H11F15250   2.044   4.566   5.341 -0.2211 -0.0589 -0.9164
  139OSM   H11G15251   2.196   4.486   5.285  0.0907  0.7056 -0.0907
  139OSM   C12F15252   2.201   4.693   5.303 -0.1274 -0.2711  0.2253
  139OSM   H12F15253   2.145   4.783   5.336 -0.6571 -0.6397  0.3436
  139OSM   H12G15254   2.175   4.700   5.195 -0.8206  0.5191  0.4339
  139OSM   C13F15255   2.349   4.718   5.306  0.1408 -0.2158  0.0654
  139OSM   H13F15256   2.387   4.630   5.249  0.1746  0.2259 -0.5940
  139OSM   H13G15257   2.399   4.706   5.405  2.3641  1.1421 -0.8289
  139OSM   C14F15258   2.398   4.848   5.245 -0.0876 -0.5394 -0.2484
  139OSM   H14F15259   2.508   4.865   5.238 -0.3449  0.8080 -1.5566
  139OSM   H14G15260   2.364   4.932   5.310 -1.3386 -1.1791 -0.0646
  139OSM   C15F15261   2.366   4.879   5.099 -0.7349  0.9901  0.1495
  139OSM   H15F15262   2.256   4.881   5.083 -0.8624  3.0119  0.9214
  139OSM   H15G15263   2.405   4.803   5.028 -0.7347 -0.3374  1.5178
  139OSM   C16F15264   2.419   5.019   5.048 -0.0807  0.9791  0.7346
  139OSM   H16F15265   2.527   5.024   5.070  0.0710 -0.6391  0.4345
  139OSM   H16G15266   2.367   5.099   5.106 -1.5317  0.9439 -0.4497
  139OSM   C17F15267   2.386   5.039   4.899 -0.2097  0.9544 -0.6067
  139OSM   H17F15268   2.276   5.026   4.903  0.0146 -0.9835  2.9236
  139OSM   H17G15269   2.435   4.958   4.840 -0.2274  0.8537 -0.4835
  139OSM   C18F15270   2.412   5.174   4.843  0.0172  0.4129 -0.1170
  139OSM   H18F15271   2.522   5.191   4.840  0.0196  0.2868 -0.8174
  139OSM   H18G15272   2.374   5.254   4.911 -0.9481  0.2791 -0.4832
  139OSM   H18H15273   2.382   5.194   4.738 -1.9151  1.3227  0.5637
  140OSM      N15274   3.178   1.048   6.901 -0.7186  0.6654  0.0436
  140OSM    C1515275   3.034   1.027   6.917 -0.5659 -0.4496 -0.2644
  140OSM   H15A15276   3.000   0.952   6.847 -0.7435 -0.2431 -0.3996
  140OSM   H15B15277   2.976   1.118   6.913 -0.6081 -0.5259 -2.3588
  140OSM   H15C15278   3.008   0.985   7.013 -1.2442  2.0920  0.7403
  140OSM    C1415279   3.244   0.913   6.922  0.2433 -0.4779 -0.2521
  140OSM   H14A15280   3.221   0.842   6.845  0.5320  1.6192 -2.3855
  140OSM   H14B15281   3.222   0.870   7.018 -0.0387  1.4116  0.5839
  140OSM   H14C15282   3.349   0.934   6.910 -0.1412  1.5086 -0.6149
  140OSM    C1315283   3.221   1.092   6.766 -0.6968  0.3999  0.2351
  140OSM   H13A15284   3.176   1.028   6.692 -1.2485  0.1281  0.7882
  140OSM   H13B15285   3.327   1.075   6.758 -0.5380  0.2930  2.0281
  140OSM   H13C15286   3.201   1.193   6.733  0.1372  0.6609  0.5013
  140OSM    C1215287   3.222   1.143   7.012 -0.1565  0.5569 -0.4731
  140OSM   H12A15288   3.329   1.145   7.002 -0.1800 -0.3232 -0.9657
  140OSM   H12B15289   3.195   1.101   7.108  0.4793 -1.2277 -1.0468
  140OSM    C1115290   3.184   1.297   6.996 -0.4889  0.1417 -0.1081
  140OSM   H11A15291   3.207   1.331   6.893 -3.2929  0.0144 -0.8325
  140OSM   H11B15292   3.235   1.364   7.069 -0.1883  0.4059 -0.5519
  140OSM      P15293   2.969   1.440   6.988  0.3216  0.2507  0.3818
  140OSM    O1315294   2.823   1.428   7.014  0.3869 -0.1156 -0.6821
  140OSM    O1415295   3.036   1.546   7.069 -0.4642  0.1378  0.2176
  140OSM    O1115296   2.994   1.479   6.836  0.2254 -0.3793 -0.2441
  140OSM    O1215297   3.043   1.305   7.004  0.1364 -0.2356  0.2634
  140OSM    C1S15298   2.965   1.386   6.735  0.3725 -0.6564 -0.3213
  140OSM    H1S15299   2.859   1.357   6.722  0.7607 -2.4225  0.0796
  140OSM    H1T15300   3.014   1.287   6.750  0.4020 -0.6209 -0.1786
  140OSM     NF15301   2.986   1.349   6.476 -0.1244  0.5325  0.1899
  140OSM    HNF15302   3.057   1.303   6.423 -1.7520 -0.5637 -1.1205
  140OSM    C2S15303   3.018   1.434   6.593  0.0479 -0.0323  0.3863
  140OSM    H2S15304   2.963   1.527   6.566 -0.9950 -0.9196 -0.6574
  140OSM    C3S15305   3.162   1.480   6.600  0.4312 -0.5491  0.1533
  140OSM    H3S15306   3.232   1.405   6.643  0.7098  0.2429  1.1036
  140OSM     O315307   3.176   1.590   6.688 -0.0618  0.4768  0.4124
  140OSM    HO315308   3.124   1.556   6.762  0.2085 -1.7230 -0.3481
  140OSM    C4S15309   3.211   1.532   6.468 -0.4816 -0.1819  1.1363
  140OSM    H4S15310   3.156   1.619   6.428 -1.9669 -1.8364 -0.5985
  140OSM    C5S15311   3.315   1.486   6.390 -0.5343 -0.1257  0.1761
  140OSM    H5S15312   3.378   1.409   6.436 -1.5381 -0.1776  1.5329
  140OSM    C6S15313   3.343   1.534   6.245 -0.0154  0.0161 -0.6170
  140OSM    H6S15314   3.425   1.609   6.239 -0.2873  0.2827 -1.0274
  140OSM    H6T15315   3.256   1.593   6.209 -1.2666 -0.9216  0.7625
  140OSM    C7S15316   3.386   1.412   6.166  0.4696 -0.3681 -0.4307
  140OSM    H7S15317   3.302   1.339   6.161  1.7731 -2.0684  1.0417
  140OSM    H7T15318   3.472   1.358   6.210  0.1480 -1.0297 -0.5975
  140OSM    C8S15319   3.418   1.453   6.023 -0.1281  0.3487  0.6977
  140OSM    H8S15320   3.520   1.496   6.009  0.2263 -0.7868 -0.3818
  140OSM    H8T15321   3.338   1.529   6.007 -2.1968 -1.5708  1.4312
  140OSM    C9S15322   3.410   1.331   5.925  0.1009 -0.8134 -0.5914
  140OSM    H9S15323   3.307   1.290   5.932 -0.2321  0.2964  1.8764
  140OSM    H9T15324   3.480   1.255   5.965  1.3619  1.0489  0.8900
  140OSM   C10S15325   3.441   1.372   5.785 -0.1330 -0.3674  0.9687
  140OSM   H10S15326   3.537   1.428   5.785 -0.6815  0.6046  1.4483
  140OSM   H10T15327   3.369   1.453   5.759  0.6417 -0.4224 -1.5504
  140OSM   C11S15328   3.433   1.258   5.683 -0.3927  0.4598  0.9002
  140OSM   H11S15329   3.328   1.243   5.652  0.1701  0.2665 -0.9980
  140OSM   H11T15330   3.474   1.161   5.719 -3.1966 -0.2390  2.5452
  140OSM   C12S15331   3.509   1.284   5.552 -0.3754 -0.0798  0.5097
  140OSM   H12S15332   3.483   1.207   5.476 -0.5398  0.5667 -0.1055
  140OSM   H12T15333   3.617   1.284   5.576 -0.2692 -0.1905  0.0533
  140OSM   C13S15334   3.494   1.419   5.479 -0.4141  0.3243 -0.4088
  140OSM   H13S15335   3.567   1.491   5.521 -0.5757 -0.5513  1.5065
  140OSM   H13T15336   3.386   1.439   5.494  0.1651  4.9675 -1.1982
  140OSM   C14S15337   3.508   1.400   5.322  0.1982 -0.6789 -0.4754
  140OSM   H14S15338   3.436   1.319   5.298  0.2843 -1.2095  0.9454
  140OSM   H14T15339   3.611   1.357   5.316  0.4686 -0.8729  3.4569
  140OSM   C15S15340   3.477   1.530   5.233  0.2915  0.1069  0.3140
  140OSM   H15S15341   3.552   1.595   5.283  0.9019 -2.1326  2.5083
  140OSM   H15T15342   3.372   1.564   5.248 -0.5265 -1.6596 -1.0149
  140OSM   C16S15343   3.504   1.501   5.087  0.1408 -0.2594 -0.0403
  140OSM   H16S15344   3.431   1.432   5.039  1.9245 -0.2289 -3.1238
  140OSM   H16T15345   3.611   1.471   5.080  0.3918  0.7376 -0.5860
  140OSM   C17S15346   3.475   1.633   5.008  0.3479 -0.0276 -0.0907
  140OSM   H17S15347   3.530   1.718   5.053  0.1662 -0.4029  0.8545
  140OSM   H17T15348   3.371   1.670   5.019  1.3937  2.7866  1.2936
  140OSM   C18S15349   3.510   1.624   4.861 -0.0898  0.2454  0.1325
  140OSM   H18S15350   3.616   1.593   4.846 -0.3476  0.0188 -1.4050
  140OSM   H18T15351   3.500   1.722   4.810 -1.8734  0.7764  1.4060
  140OSM   H18U15352   3.435   1.566   4.803  0.3733 -1.2132  0.9369
  140OSM    C1F15353   2.862   1.313   6.443 -0.5539 -0.7040  0.3258
  140OSM     OF15354   2.768   1.371   6.489  0.2634 -0.5520 -0.3496
  140OSM    C2F15355   2.853   1.193   6.363  1.0526 -0.0624 -0.2373
  140OSM    H2F15356   2.852   1.114   6.441  1.6649 -0.3571 -0.5225
  140OSM    H2G15357   2.939   1.184   6.293 -0.9296 -0.2437 -2.7745
  140OSM    C3F15358   2.717   1.185   6.283  0.9115 -0.4455  0.0901
  140OSM    H3F15359   2.634   1.201   6.356 -0.8435  2.2982 -2.2661
  140OSM    H3G15360   2.698   1.085   6.239 -3.6920  0.4348 -0.4786
  140OSM    C4F15361   2.710   1.287   6.164  0.9232 -0.3832  1.3498
  140OSM    H4F15362   2.731   1.390   6.199  0.1625  0.3669 -0.2751
  140OSM    H4G15363   2.615   1.282   6.106  1.5133  2.2122 -0.0206
  140OSM    C5F15364   2.813   1.251   6.054 -0.1823 -0.8171  0.7503
  140OSM    H5F15365   2.809   1.142   6.032 -1.5646 -1.3732  3.4226
  140OSM    H5G15366   2.917   1.271   6.086 -0.4873  0.2910  1.1095
  140OSM    C6F15367   2.782   1.355   5.937  0.2758 -0.1282  0.0167
  140OSM    H6F15368   2.877   1.365   5.879 -1.0751  1.9699 -1.9937
  140OSM    H6G15369   2.757   1.455   5.979 -2.2009 -1.1530  1.1369
  140OSM    C7F15370   2.665   1.302   5.848  0.9887 -0.4018  0.3049
  140OSM    H7F15371   2.580   1.331   5.915  1.7397  0.6177  0.8443
  140OSM    H7G15372   2.673   1.192   5.841  0.5848 -0.4278  0.2253
  140OSM    C8F15373   2.669   1.361   5.708 -0.4260 -1.0822  0.1267
  140OSM    H8F15374   2.765   1.328   5.665 -0.2313  1.3886 -1.5279
  140OSM    H8G15375   2.686   1.471   5.714  0.5027 -0.9916 -2.8691
  140OSM    C9F15376   2.548   1.322   5.631 -0.1666 -0.5922  0.2016
  140OSM    H9F15377   2.456   1.326   5.691  0.7113  1.5809  1.5357
  140OSM   C10F15378   2.542   1.271   5.511  0.1848 -0.0289 -0.3237
  140OSM   H10F15379   2.446   1.256   5.459  0.7328 -0.0024 -1.3871
  140OSM   C11F15380   2.664   1.247   5.425 -0.0747  0.2544  0.5877
  140OSM   H11F15381   2.648   1.163   5.354  0.0565 -0.3433  1.2506
  140OSM   H11G15382   2.761   1.225   5.475  0.4083 -0.5756 -0.6606
  140OSM   C12F15383   2.695   1.378   5.342 -0.6918 -0.2491 -0.1054
  140OSM   H12F15384   2.786   1.356   5.282  0.3453  1.3145  0.8127
  140OSM   H12G15385   2.709   1.468   5.405 -1.5300 -0.4181  0.3331
  140OSM   C13F15386   2.601   1.428   5.229 -0.3410  0.5568 -0.1761
  140OSM   H13F15387   2.653   1.487   5.150  1.0845  1.1425  1.1618
  140OSM   H13G15388   2.523   1.493   5.273  1.1541  1.3475  1.4033
  140OSM   C14F15389   2.530   1.318   5.150 -0.0666  0.3700  0.1506
  140OSM   H14F15390   2.480   1.243   5.216 -0.6028  0.3759 -0.2391
  140OSM   H14G15391   2.598   1.267   5.079 -0.6565  0.1921 -0.2955
  140OSM   C15F15392   2.415   1.365   5.052 -0.4781 -0.2086 -0.2466
  140OSM   H15F15393   2.454   1.441   4.981  1.5700 -2.3480 -1.5241
  140OSM   H15G15394   2.335   1.415   5.112  0.9229  2.8698 -0.7346
  140OSM   C16F15395   2.356   1.256   4.968 -0.3646  0.4230  0.1218
  140OSM   H16F15396   2.301   1.186   5.034 -1.8881  0.9875 -0.4781
  140OSM   H16G15397   2.438   1.204   4.914  0.3674  0.5749  1.0719
  140OSM   C17F15398   2.266   1.311   4.853 -0.4329 -0.7066  0.2190
  140OSM   H17F15399   2.322   1.397   4.811 -0.5867 -1.5430 -1.7887
  140OSM   H17G15400   2.169   1.335   4.902 -0.2552 -2.3201  1.4539
  140OSM   C18F15401   2.241   1.220   4.736  1.3655  0.1804 -0.7730
  140OSM   H18F15402   2.140   1.245   4.695  0.5416  0.6897  1.4194
  140OSM   H18G15403   2.229   1.116   4.774 -0.3124  1.7163  3.6007
  140OSM   H18H15404   2.317   1.231   4.656  3.8011 -0.0726  1.4014
  141OSM      N15405   0.032   5.832   7.076 -0.3580 -0.1184 -0.4478
  141OSM    C1515406  -0.072   5.925   7.032 -0.0730 -0.1907 -0.7183
  141OSM   H15A15407  -0.114   5.985   7.112  1.3008  1.5328 -1.2226
  141OSM   H15B15408  -0.152   5.875   6.979  0.2578  1.2955 -2.7399
  141OSM   H15C15409  -0.029   6.012   6.984  0.1975  1.9449  3.0092
  141OSM    C1415410   0.141   5.894   7.150  0.5940  0.4176  0.1740
  141OSM   H14A15411   0.179   5.966   7.079 -1.0145 -0.5485 -1.7838
  141OSM   H14B15412   0.222   5.831   7.184 -0.7425 -1.8338 -0.5698
  141OSM   H14C15413   0.113   5.951   7.237  1.9384  1.7327 -0.2121
  141OSM    C1315414  -0.037   5.734   7.165  0.1106  0.1170 -0.0687
  141OSM   H13A15415  -0.076   5.789   7.249 -0.7773 -1.4509  0.5771
  141OSM   H13B15416   0.035   5.665   7.204  0.2819  1.5533  2.3259
  141OSM   H13C15417  -0.111   5.696   7.096  1.3278  2.3129 -2.7921
  141OSM    C1215418   0.088   5.755   6.952  0.2549 -1.0598 -0.4165
  141OSM   H12A15419   0.003   5.722   6.893  0.4245 -1.5151 -0.4123
  141OSM   H12B15420   0.135   5.663   6.984 -0.8018 -0.9094  1.7610
  141OSM    C1115421   0.181   5.825   6.856 -0.3806 -0.3452 -0.1351
  141OSM   H11A15422   0.147   5.929   6.839  0.9983  0.1304 -0.1394
  141OSM   H11B15423   0.200   5.785   6.754  1.0767 -0.5309  0.1832
  141OSM      P15424   0.414   5.742   6.956  0.0509 -0.1567  0.1609
  141OSM    O1315425   0.542   5.803   7.007  0.1939  0.6585  0.1240
  141OSM    O1415426   0.351   5.639   7.039 -0.8337  0.3083 -0.1078
  141OSM    O1115427   0.454   5.682   6.817 -0.5974  0.1488 -0.0913
  141OSM    O1215428   0.308   5.848   6.920 -0.4288 -0.5028 -0.2843
  141OSM    C1S15429   0.455   5.538   6.791  0.2523  0.1652 -0.1418
  141OSM    H1S15430   0.356   5.517   6.746  0.1294  1.3994 -0.4705
  141OSM    H1T15431   0.467   5.480   6.885 -1.5670  2.3246  1.5075
  141OSM     NF15432   0.535   5.375   6.622  0.0482 -0.5427 -0.0974
  141OSM    HNF15433   0.559   5.286   6.661 -1.5996 -1.0725 -0.2231
  141OSM    C2S15434   0.573   5.501   6.689  0.6046  0.2843  0.3158
  141OSM    H2S15435   0.560   5.577   6.609 -1.8841  0.5972  0.9445
  141OSM    C3S15436   0.705   5.511   6.761  0.5001  0.0070 -0.7672
  141OSM    H3S15437   0.715   5.421   6.826 -0.3372 -0.6102 -1.4667
  141OSM     O315438   0.724   5.626   6.844 -0.7945 -0.2034  0.1278
  141OSM    HO315439   0.639   5.670   6.845 -0.4274  0.5131  1.0245
  141OSM    C4S15440   0.812   5.481   6.662  0.1583 -0.5036  0.0335
  141OSM    H4S15441   0.827   5.373   6.648 -3.3283 -1.3091  1.3928
  141OSM    C5S15442   0.871   5.564   6.581 -0.5558  0.8441  0.3730
  141OSM    H5S15443   0.830   5.666   6.576  0.2491  1.1129 -1.3173
  141OSM    C6S15444   0.980   5.527   6.482  0.4794  0.6490  0.1711
  141OSM    H6S15445   1.049   5.447   6.517  2.7747  2.2428 -0.4403
  141OSM    H6T15446   1.059   5.605   6.477  2.5186 -1.2445  0.8014
  141OSM    C7S15447   0.927   5.497   6.347  0.2321 -0.5319 -0.2372
  141OSM    H7S15448   0.870   5.588   6.319  1.7859  0.8421  0.9078
  141OSM    H7T15449   0.853   5.415   6.358  0.8060 -0.9169  0.8734
  141OSM    C8S15450   1.026   5.471   6.235  0.2439 -0.1105 -0.4800
  141OSM    H8S15451   1.091   5.384   6.259 -1.6679 -2.0295 -1.7527
  141OSM    H8T15452   1.091   5.558   6.215 -1.8003  1.7587  0.5553
  141OSM    C9S15453   0.946   5.437   6.108 -0.2375  0.0729 -0.8415
  141OSM    H9S15454   0.875   5.518   6.081  0.7314  0.9913 -0.6812
  141OSM    H9T15455   0.889   5.343   6.126 -0.8519  0.2529 -1.7875
  141OSM   C10S15456   1.045   5.426   5.995  0.3305  0.1589  0.7387
  141OSM   H10S15457   1.111   5.339   6.015 -1.6981 -1.0419  2.7517
  141OSM   H10T15458   1.121   5.507   5.987 -0.4001  0.8249  0.3864
  141OSM   C11S15459   0.981   5.397   5.862  0.2265  0.8057 -0.2287
  141OSM   H11S15460   0.903   5.474   5.843 -2.0696 -0.9525  1.4388
  141OSM   H11T15461   0.935   5.296   5.851  0.2056  0.9067 -1.1682
  141OSM   C12S15462   1.080   5.403   5.744  0.6170  0.1853  0.5707
  141OSM   H12S15463   1.022   5.366   5.656  3.0746  0.4696 -1.2866
  141OSM   H12T15464   1.159   5.326   5.760 -0.2846 -1.0027 -0.4383
  141OSM   C13S15465   1.126   5.545   5.705 -0.3868  0.2718 -0.5940
  141OSM   H13S15466   1.190   5.591   5.783 -1.5984  2.0376 -0.5822
  141OSM   H13T15467   1.031   5.601   5.706 -1.4456 -1.4247  0.4413
  141OSM   C14S15468   1.195   5.555   5.573  0.0708 -0.1268 -0.0198
  141OSM   H14S15469   1.122   5.513   5.500  0.1210 -1.0077  0.4307
  141OSM   H14T15470   1.277   5.480   5.572 -1.2039 -1.5581  0.0013
  141OSM   C15S15471   1.251   5.688   5.532  0.2573 -0.2790  0.3789
  141OSM   H15S15472   1.159   5.748   5.526 -1.0325 -2.2109 -0.1814
  141OSM   H15T15473   1.289   5.679   5.428  0.5718 -1.9492  0.6083
  141OSM   C16S15474   1.362   5.737   5.622 -0.2447 -0.3564  0.1287
  141OSM   H16S15475   1.429   5.656   5.658  0.9909  0.4103 -0.3637
  141OSM   H16T15476   1.320   5.775   5.718  1.0169  0.8825  0.2254
  141OSM   C17S15477   1.459   5.836   5.548  0.1623  0.2571  0.4466
  141OSM   H17S15478   1.511   5.775   5.472  0.5483  2.3257 -1.0447
  141OSM   H17T15479   1.528   5.881   5.623  0.6486 -1.2490  0.9325
  141OSM   C18S15480   1.384   5.955   5.483 -0.0019 -0.5227 -0.4228
  141OSM   H18S15481   1.312   5.910   5.412  0.7065  1.2513 -2.3724
  141OSM   H18T15482   1.456   6.022   5.431 -0.2301 -0.1102 -0.2108
  141OSM   H18U15483   1.323   6.011   5.557  0.8417 -0.9931  0.6576
  141OSM    C1F15484   0.438   5.371   6.526  0.9859 -0.2647  0.4538
  141OSM     OF15485   0.383   5.477   6.493 -0.6150  0.6686 -0.3656
  141OSM    C2F15486   0.392   5.242   6.481  0.4073 -0.0058  0.1392
  141OSM    H2F15487   0.305   5.199   6.535  1.4524 -1.0124  1.0772
  141OSM    H2G15488   0.474   5.172   6.510 -0.6274  0.5009  5.2637
  141OSM    C3F15489   0.371   5.234   6.322 -0.3151 -0.6068 -0.2541
  141OSM    H3F15490   0.304   5.316   6.289 -0.6258 -0.4950  0.6233
  141OSM    H3G15491   0.322   5.134   6.310 -3.1865  0.3924  2.0043
  141OSM    C4F15492   0.505   5.247   6.251 -0.3336 -0.6550  0.1295
  141OSM    H4F15493   0.576   5.173   6.295 -0.1635 -1.1806 -0.9997
  141OSM    H4G15494   0.536   5.350   6.279 -2.1353  0.1947 -0.8000
  141OSM    C5F15495   0.503   5.233   6.096  0.0299  0.4040 -0.4500
  141OSM    H5F15496   0.440   5.311   6.049 -0.6379 -0.3104 -0.7742
  141OSM    H5G15497   0.455   5.135   6.075  1.1040  0.0336 -1.2263
  141OSM    C6F15498   0.638   5.248   6.029 -0.8615  0.8277 -0.1757
  141OSM    H6F15499   0.708   5.165   6.050 -0.1718  1.4610  0.0889
  141OSM    H6G15500   0.685   5.342   6.065  1.1476 -0.8504  1.7826
  141OSM    C7F15501   0.620   5.271   5.879  0.1043 -0.2587 -0.7878
  141OSM    H7F15502   0.718   5.281   5.828 -0.7819 -2.8072 -3.1869
  141OSM    H7G15503   0.571   5.371   5.877 -0.6948 -0.6095  0.4080
  141OSM    C8F15504   0.533   5.168   5.804 -0.1220 -0.7883 -0.5199
  141OSM    H8F15505   0.511   5.217   5.706  1.4841  2.8151  0.7296
  141OSM    H8G15506   0.432   5.159   5.849  0.3424  1.1942  1.0711
  141OSM    C9F15507   0.609   5.038   5.783 -0.7387 -0.5086  0.2875
  141OSM    H9F15508   0.620   4.982   5.877  1.4670  1.9000  1.6195
  141OSM   C10F15509   0.690   4.990   5.687  0.9751 -0.1053 -0.6639
  141OSM   H10F15510   0.741   4.894   5.705  2.2232  1.1446  3.9447
  141OSM   C11F15511   0.699   5.055   5.545  0.4004 -0.2159  0.1970
  141OSM   H11F15512   0.805   5.064   5.512  0.2391  0.0928 -0.2476
  141OSM   H11G15513   0.659   5.159   5.545 -0.8069 -0.6385 -1.3620
  141OSM   C12F15514   0.616   4.981   5.433  0.3381  0.1308  0.2931
  141OSM   H12F15515   0.509   4.986   5.462  0.4055  2.3393  0.3475
  141OSM   H12G15516   0.657   4.878   5.438 -0.1420 -0.0421  0.9091
  141OSM   C13F15517   0.610   5.034   5.291  0.8745  0.6132  0.0481
  141OSM   H13F15518   0.714   5.047   5.254  1.6474 -2.3461  0.8371
  141OSM   H13G15519   0.563   5.134   5.301 -0.8236 -0.3410  2.6623
  141OSM   C14F15520   0.529   4.947   5.197  0.0735 -0.1724 -0.1194
  141OSM   H14F15521   0.424   4.934   5.228  0.3156 -2.1095  0.0201
  141OSM   H14G15522   0.565   4.842   5.204  1.9962  0.4402  0.0053
  141OSM   C15F15523   0.533   5.003   5.056  0.5762 -0.4200  0.7895
  141OSM   H15F15524   0.639   5.010   5.022  0.8105 -1.6113  1.2265
  141OSM   H15G15525   0.492   5.104   5.036  0.1195 -1.4952 -6.7001
  141OSM   C16F15526   0.453   4.910   4.959 -0.2342  0.2213  0.0221
  141OSM   H16F15527   0.437   4.962   4.862  1.7523  1.5780  0.3592
  141OSM   H16G15528   0.356   4.887   5.008  1.2943 -2.1666  2.2060
  141OSM   C17F15529   0.517   4.775   4.938 -0.4206 -0.1740  0.4417
  141OSM   H17F15530   0.510   4.721   5.035 -0.3950 -1.1993 -0.1121
  141OSM   H17G15531   0.623   4.800   4.915 -1.2368  1.0098 -2.5497
  141OSM   C18F15532   0.457   4.690   4.827  0.0679 -0.5028  0.4273
  141OSM   H18F15533   0.467   4.734   4.725 -0.3017 -1.1537  0.1008
  141OSM   H18G15534   0.355   4.651   4.845  0.4816 -0.3234  3.8707
  141OSM   H18H15535   0.518   4.597   4.827  1.2654  0.2606  1.3018
  142OSM      N15536   2.487   4.314   6.991 -0.0371 -0.1830  0.2935
  142OSM    C1515537   2.618   4.366   6.961 -0.0158  0.7246  0.2652
  142OSM   H15A15538   2.663   4.418   7.044 -1.4864  0.2083  1.4234
  142OSM   H15B15539   2.606   4.445   6.888  0.9122  1.2438  0.6462
  142OSM   H15C15540   2.688   4.295   6.919 -1.7843 -0.1088 -1.4182
  142OSM    C1415541   2.482   4.210   7.098  0.3532 -0.4006  0.5937
  142OSM   H14A15542   2.475   4.255   7.197 -2.3256  0.4737  0.0954
  142OSM   H14B15543   2.556   4.132   7.103 -0.4377 -1.1561  0.8590
  142OSM   H14C15544   2.386   4.160   7.092  0.3329 -0.5332  1.7287
  142OSM    C1315545   2.387   4.426   7.030 -0.1338  0.0726  0.0779
  142OSM   H13A15546   2.283   4.395   7.030  0.3752 -1.7871  0.3796
  142OSM   H13B15547   2.385   4.510   6.962 -0.4997 -0.1328 -0.1698
  142OSM   H13C15548   2.410   4.458   7.130  0.1018 -1.2848  0.4838
  142OSM    C1215549   2.418   4.250   6.870  0.2448 -0.6208 -0.3273
  142OSM   H12A15550   2.382   4.326   6.802 -1.0266  0.5259  1.5360
  142OSM   H12B15551   2.328   4.213   6.915 -0.8229  1.8633 -0.2533
  142OSM    C1115552   2.487   4.146   6.790  0.4191  0.0019 -0.0730
  142OSM   H11A15553   2.545   4.086   6.863  1.2559 -0.2012 -0.8901
  142OSM   H11B15554   2.550   4.199   6.716 -0.8417  3.1578  0.9372
  142OSM      P15555   2.433   3.911   6.686 -0.3179  0.4717  0.0862
  142OSM    O1315556   2.584   3.903   6.684  0.2878 -0.1073 -0.0086
  142OSM    O1415557   2.363   3.804   6.759 -0.3693  0.0662  0.5299
  142OSM    O1115558   2.381   3.909   6.541 -0.4649  0.7810 -0.0676
  142OSM    O1215559   2.390   4.053   6.742 -0.4817 -0.4306  0.4287
  142OSM    C1S15560   2.246   3.915   6.515  0.5159  0.9952 -0.2299
  142OSM    H1S15561   2.199   4.013   6.537 -0.1178  0.7340 -0.4098
  142OSM    H1T15562   2.192   3.833   6.566  2.4539 -1.1331 -1.4002
  142OSM     NF15563   2.083   3.883   6.311  0.5159 -0.3426 -0.5227
  142OSM    HNF15564   2.043   3.796   6.284  0.2233 -0.0883 -0.9234
  142OSM    C2S15565   2.222   3.884   6.359  0.1926 -0.3856 -0.1898
  142OSM    H2S15566   2.273   3.959   6.296 -0.4589 -0.7056 -1.1335
  142OSM    C3S15567   2.293   3.750   6.322  0.1921  0.0577  0.2979
  142OSM    H3S15568   2.241   3.678   6.389 -0.8683  2.2829  2.0219
  142OSM     O315569   2.428   3.742   6.366  0.8842 -0.4610  0.0034
  142OSM    HO315570   2.444   3.830   6.399 -1.4744 -0.7077  2.0277
  142OSM    C4S15571   2.278   3.715   6.172 -1.4952  0.3683  0.5518
  142OSM    H4S15572   2.312   3.788   6.097 -1.5567 -0.0225  0.1394
  142OSM    C5S15573   2.236   3.597   6.131 -0.4795  0.1736 -0.4213
  142OSM    H5S15574   2.211   3.530   6.215  0.5906  0.3961  0.0901
  142OSM    C6S15575   2.209   3.556   5.989 -0.1971 -1.0617 -0.3495
  142OSM    H6S15576   2.102   3.526   5.989 -0.7260  0.7394 -0.3181
  142OSM    H6T15577   2.274   3.468   5.969  0.0369 -1.8987  3.3418
  142OSM    C7S15578   2.220   3.666   5.888  0.3317 -1.1608 -0.6051
  142OSM    H7S15579   2.322   3.706   5.874 -0.5265  2.1219  1.2663
  142OSM    H7T15580   2.154   3.750   5.918 -0.6690 -2.2036  0.2075
  142OSM    C8S15581   2.179   3.625   5.747  0.2749  0.0314 -0.1676
  142OSM    H8S15582   2.087   3.561   5.743  1.3552 -1.7377  1.4062
  142OSM    H8T15583   2.258   3.554   5.715  0.7743  0.7158 -0.4727
  142OSM    C9S15584   2.152   3.745   5.660  0.3601 -0.6373  0.5786
  142OSM    H9S15585   2.250   3.797   5.654 -0.4381  0.9594  0.8192
  142OSM    H9T15586   2.077   3.807   5.713 -0.4056 -1.2667  0.2492
  142OSM   C10S15587   2.090   3.697   5.529  0.0482 -0.2943  0.3924
  142OSM   H10S15588   2.049   3.787   5.479  0.4618 -0.2092  0.2015
  142OSM   H10T15589   2.014   3.616   5.541 -0.3685 -0.1682 -1.1465
  142OSM   C11S15590   2.189   3.636   5.424 -0.3934  0.3565  0.1009
  142OSM   H11S15591   2.240   3.548   5.466  0.2699 -0.3897 -2.1463
  142OSM   H11T15592   2.264   3.715   5.403 -2.2749  1.6380 -2.3923
  142OSM   C12S15593   2.115   3.606   5.288  0.9945  0.1615 -0.2743
  142OSM   H12S15594   2.037   3.681   5.263  0.7003  0.0591  0.3300
  142OSM   H12T15595   2.064   3.513   5.319  1.9040  0.0853  1.0374
  142OSM   C13S15596   2.208   3.568   5.172  0.5518  0.1377  0.1063
  142OSM   H13S15597   2.262   3.475   5.199  0.4618 -0.1562 -0.6888
  142OSM   H13T15598   2.287   3.639   5.138 -1.0541  1.2424 -1.5299
  142OSM   C14S15599   2.125   3.537   5.047  0.1163  0.0064  0.2639
  142OSM   H14S15600   2.054   3.623   5.038 -0.5202 -0.4532  0.7555
  142OSM   H14T15601   2.070   3.442   5.064 -0.3844  0.3987  0.8873
  142OSM   C15S15602   2.211   3.528   4.920  0.2442 -0.7641  0.3977
  142OSM   H15S15603   2.252   3.426   4.910  0.7951 -0.4447 -0.8409
  142OSM   H15T15604   2.301   3.592   4.906 -0.3901 -0.5247 -3.6593
  142OSM   C16S15605   2.129   3.560   4.802 -0.0379  0.8439  0.1776
  142OSM   H16S15606   2.120   3.671   4.808  2.8946  1.1354  1.1657
  142OSM   H16T15607   2.030   3.512   4.808  0.2760  0.1757  0.0938
  142OSM   C17S15608   2.187   3.520   4.667 -0.8458 -0.1104 -0.2773
  142OSM   H17S15609   2.200   3.411   4.650 -1.5896 -0.1752 -0.4454
  142OSM   H17T15610   2.290   3.561   4.663 -1.2452  0.9803  0.0906
  142OSM   C18S15611   2.115   3.589   4.541  0.1110 -0.0669  0.2911
  142OSM   H18S15612   2.136   3.698   4.545 -2.4373  0.6280 -2.0885
  142OSM   H18T15613   2.008   3.562   4.541  0.2871 -0.7810 -0.2857
  142OSM   H18U15614   2.151   3.549   4.444  1.4673  1.1835  0.2333
  142OSM    C1F15615   2.007   3.995   6.330 -0.7520  0.9614  0.1014
  142OSM     OF15616   2.053   4.098   6.373 -0.1749 -0.0259 -0.2333
  142OSM    C2F15617   1.866   3.975   6.295 -0.2494  0.3890  0.7487
  142OSM    H2F15618   1.800   4.062   6.314 -0.3972  0.2121  1.0470
  142OSM    H2G15619   1.824   3.899   6.364 -0.6362 -0.4795 -0.4254
  142OSM    C3F15620   1.839   3.931   6.143 -0.1667  0.2510  0.4084
  142OSM    H3F15621   1.891   3.838   6.113  0.5139  0.8317 -0.2781
  142OSM    H3G15622   1.891   4.009   6.083  2.4573 -1.3144  0.4932
  142OSM    C4F15623   1.692   3.920   6.112 -0.0394  0.0358  0.4176
  142OSM    H4F15624   1.632   4.003   6.157 -2.0729  0.2082 -2.3226
  142OSM    H4G15625   1.656   3.827   6.160 -0.0529  0.0642  0.4628
  142OSM    C5F15626   1.655   3.922   5.961 -0.9177  0.1417 -0.8996
  142OSM    H5F15627   1.571   3.850   5.947  0.3750 -1.7832  0.6064
  142OSM    H5G15628   1.750   3.885   5.918  0.1523  2.1066 -0.3235
  142OSM    C6F15629   1.613   4.057   5.911  0.0177 -0.2404  0.9641
  142OSM    H6F15630   1.691   4.127   5.948  0.9635  0.1935 -1.6773
  142OSM    H6G15631   1.514   4.086   5.953  0.1073 -0.1295  1.1012
  142OSM    C7F15632   1.614   4.055   5.754 -0.5437  0.2440 -0.3047
  142OSM    H7F15633   1.567   3.960   5.718 -1.3594  0.5113  0.0252
  142OSM    H7G15634   1.712   4.039   5.705 -0.8962 -1.6354 -0.4893
  142OSM    C8F15635   1.547   4.172   5.684 -0.1171 -0.2297 -0.4430
  142OSM    H8F15636   1.442   4.184   5.718 -0.1026 -1.0200 -0.0845
  142OSM    H8G15637   1.532   4.150   5.576  0.0606  1.4145 -0.8269
  142OSM    C9F15638   1.624   4.299   5.699  0.2554  0.0233 -0.6386
  142OSM    H9F15639   1.637   4.323   5.806  0.7820 -2.0202 -0.1901
  142OSM   C10F15640   1.684   4.379   5.611 -0.3125 -0.4524 -0.0441
  142OSM   H10F15641   1.746   4.465   5.640  1.1298 -0.7032 -2.1479
  142OSM   C11F15642   1.690   4.339   5.467 -0.1020  0.5797 -0.5660
  142OSM   H11F15643   1.602   4.381   5.412 -0.5642 -0.1698 -0.4122
  142OSM   H11G15644   1.684   4.230   5.449  2.7966  0.7066 -3.0530
  142OSM   C12F15645   1.810   4.386   5.387 -0.2380 -0.6896  0.2966
  142OSM   H12F15646   1.904   4.352   5.436 -0.6372  1.1349  2.4719
  142OSM   H12G15647   1.814   4.497   5.395  0.9407 -0.6941 -0.0153
  142OSM   C13F15648   1.816   4.329   5.243  0.2371  0.1255  0.3104
  142OSM   H13F15649   1.735   4.369   5.179 -0.5976 -1.8110  0.0639
  142OSM   H13G15650   1.799   4.219   5.243 -0.7856  0.2486 -1.2319
  142OSM   C14F15651   1.953   4.353   5.181 -0.2288 -0.4592 -0.0247
  142OSM   H14F15652   2.031   4.316   5.250  1.0252 -1.3280 -1.8275
  142OSM   H14G15653   1.970   4.460   5.157  0.1740 -1.0573 -2.7785
  142OSM   C15F15654   1.979   4.288   5.050  0.3194  0.0345  0.6186
  142OSM   H15F15655   1.964   4.179   5.036 -1.8523  0.4161 -0.3722
  142OSM   H15G15656   2.086   4.294   5.017 -0.0499  0.0349 -0.6536
  142OSM   C16F15657   1.870   4.338   4.954  0.3510 -0.6464 -0.1041
  142OSM   H16F15658   1.861   4.449   4.961 -2.4615 -0.7717 -0.5291
  142OSM   H16G15659   1.772   4.298   4.988  0.2151 -0.5682 -0.3945
  142OSM   C17F15660   1.879   4.309   4.804 -0.1830  0.6961 -0.7391
  142OSM   H17F15661   1.983   4.298   4.765 -0.4074 -0.1735 -1.1049
  142OSM   H17G15662   1.834   4.397   4.754  0.3727  1.6404  0.3532
  142OSM   C18F15663   1.792   4.187   4.772  0.6027  0.2540 -0.5954
  142OSM   H18F15664   1.779   4.169   4.663  0.2490  1.7371 -0.8218
  142OSM   H18G15665   1.692   4.204   4.818  0.8390 -2.3569  1.0615
  142OSM   H18H15666   1.840   4.102   4.823  1.8623  1.2872 -0.0041
  143OSM      N15667   1.124   5.662   6.899  0.7209  0.3973  0.2782
  143OSM    C1515668   1.155   5.516   6.896 -0.3246 -0.3043 -0.1353
  143OSM   H15A15669   1.077   5.461   6.845  0.4998 -0.5124 -1.2161
  143OSM   H15B15670   1.175   5.473   6.992 -1.3519  1.8258  1.1090
  143OSM   H15C15671   1.249   5.511   6.843  1.1303  1.0544  2.1528
  143OSM    C1415672   1.001   5.679   6.984  0.2271  0.8976 -0.0543
  143OSM   H14A15673   1.019   5.639   7.082 -0.9025 -2.1981 -0.9816
  143OSM   H14B15674   0.915   5.628   6.941  0.2786  0.7787 -0.0176
  143OSM   H14C15675   0.962   5.780   6.986 -2.0245  0.1077 -0.8577
  143OSM    C1315676   1.234   5.738   6.973 -0.6152  0.2941  0.0780
  143OSM   H13A15677   1.320   5.699   6.920  0.2832  2.1186  0.1275
  143OSM   H13B15678   1.243   5.702   7.074  0.7311  1.4544  0.3997
  143OSM   H13C15679   1.223   5.846   6.966  2.3135  0.7299  1.0983
  143OSM    C1215680   1.098   5.725   6.766 -0.0225 -0.6051  0.9369
  143OSM   H12A15681   1.061   5.825   6.784  1.1137 -0.4588  2.6946
  143OSM   H12B15682   1.017   5.680   6.709  0.0721  1.5540 -1.0785
  143OSM    C1115683   1.211   5.727   6.660  0.0850 -0.5904 -0.0697
  143OSM   H11A15684   1.179   5.786   6.571 -1.9289  1.1324  1.6854
  143OSM   H11B15685   1.232   5.625   6.620  1.6596 -0.7007  0.9319
  143OSM      P15686   1.467   5.695   6.720 -0.2472 -0.3132 -0.2748
  143OSM    O1315687   1.543   5.749   6.840  0.5339  0.5725  0.6029
  143OSM    O1415688   1.421   5.557   6.734  0.3763 -0.3448  0.2297
  143OSM    O1115689   1.552   5.700   6.583  0.2450  0.1432  0.0264
  143OSM    O1215690   1.345   5.788   6.698  0.5765  0.1118  0.1296
  143OSM    C1S15691   1.477   5.706   6.457 -0.0313  0.3406  0.1587
  143OSM    H1S15692   1.410   5.795   6.462 -1.2052 -0.5574  1.0253
  143OSM    H1T15693   1.416   5.614   6.446  3.5859 -2.3467  0.8767
  143OSM     NF15694   1.503   5.711   6.219 -0.0746 -0.4428 -0.0548
  143OSM    HNF15695   1.505   5.632   6.159 -0.1585  0.2948 -1.0511
  143OSM    C2S15696   1.577   5.705   6.340  0.1104 -0.1844  0.1649
  143OSM    H2S15697   1.642   5.795   6.340  2.2781 -1.6649  1.2326
  143OSM    C3S15698   1.678   5.587   6.346  0.0783 -0.0789  0.5957
  143OSM    H3S15699   1.629   5.488   6.348 -0.6400  0.2793  1.4816
  143OSM     O315700   1.749   5.582   6.471  0.4295  0.1764 -0.1945
  143OSM    HO315701   1.694   5.634   6.530 -0.8524 -0.9048 -0.3914
  143OSM    C4S15702   1.767   5.599   6.224  0.1165 -0.8224 -0.3665
  143OSM    H4S15703   1.790   5.699   6.184  0.8433 -1.2650 -1.0718
  143OSM    C5S15704   1.834   5.492   6.168 -0.0039 -0.7233  0.0388
  143OSM    H5S15705   1.818   5.399   6.224 -1.5268  0.1221  1.0858
  143OSM    C6S15706   1.920   5.500   6.046 -0.7113 -0.4520 -0.2127
  143OSM    H6S15707   1.883   5.421   5.977 -1.0170  0.6628 -1.3740
  143OSM    H6T15708   2.026   5.479   6.068 -0.9618 -0.2547  1.2715
  143OSM    C7S15709   1.910   5.628   5.966 -0.2442 -0.1395  0.1304
  143OSM    H7S15710   1.952   5.708   6.030 -1.6660 -0.2386  1.2339
  143OSM    H7T15711   1.813   5.661   5.923  0.3971  0.2315 -1.0755
  143OSM    C8S15712   1.991   5.614   5.836 -0.2796  0.3677  0.3807
  143OSM    H8S15713   2.086   5.557   5.842  0.6089  1.1346 -3.5491
  143OSM    H8T15714   2.028   5.716   5.810 -0.0906  0.2292  0.0871
  143OSM    C9S15715   1.911   5.559   5.721  0.1859 -0.1520 -0.0979
  143OSM    H9S15716   1.824   5.502   5.761 -0.8837  2.1477  1.0493
  143OSM    H9T15717   1.979   5.488   5.670  0.2699  1.3863 -2.2391
  143OSM   C10S15718   1.871   5.662   5.615 -0.2404 -0.0552  0.4418
  143OSM   H10S15719   1.795   5.734   5.655 -2.2833 -1.2040 -1.1482
  143OSM   H10T15720   1.814   5.613   5.533  0.4216 -0.1510  0.0329
  143OSM   C11S15721   1.996   5.724   5.538  0.0442 -0.0360 -0.1952
  143OSM   H11S15722   2.077   5.650   5.523  0.7859  1.2869 -3.7950
  143OSM   H11T15723   2.035   5.804   5.606 -0.7827  0.5301 -0.3683
  143OSM   C12S15724   1.982   5.755   5.386 -0.4331  0.2205  0.4493
  143OSM   H12S15725   1.912   5.839   5.365  0.3722  0.4658 -1.5051
  143OSM   H12T15726   1.947   5.662   5.337  1.0731 -0.3999  0.4850
  143OSM   C13S15727   2.123   5.789   5.324 -0.1091 -0.1710 -0.2112
  143OSM   H13S15728   2.189   5.701   5.337  0.8249  0.3358 -1.3107
  143OSM   H13T15729   2.169   5.867   5.390 -1.5818 -0.4000  1.1391
  143OSM   C14S15730   2.120   5.836   5.178  0.1467 -0.1950 -0.8546
  143OSM   H14S15731   2.179   5.930   5.170 -0.0144  0.5070  3.6623
  143OSM   H14T15732   2.013   5.855   5.156 -0.8242  1.2979  3.9783
  143OSM   C15S15733   2.177   5.744   5.081 -0.0201 -0.0519  0.5380
  143OSM   H15S15734   2.120   5.650   5.097 -0.4608  0.1391  0.1312
  143OSM   H15T15735   2.283   5.727   5.109  0.4705 -1.4878 -1.8974
  143OSM   C16S15736   2.157   5.788   4.936  0.0712  0.6408  0.1844
  143OSM   H16S15737   2.218   5.879   4.919 -2.6583  2.4843 -0.2619
  143OSM   H16T15738   2.057   5.819   4.900  0.6713 -0.0020 -2.2192
  143OSM   C17S15739   2.194   5.679   4.836  0.1774  0.3686  0.4321
  143OSM   H17S15740   2.121   5.597   4.852  0.6102 -0.4490 -1.5090
  143OSM   H17T15741   2.294   5.635   4.861 -0.8639 -0.7637  3.0223
  143OSM   C18S15742   2.185   5.729   4.687  0.0074 -0.3768 -0.2960
  143OSM   H18S15743   2.210   5.655   4.609 -1.6924  0.1803 -1.4351
  143OSM   H18T15744   2.245   5.821   4.673  0.0060 -0.1946  0.7727
  143OSM   H18U15745   2.078   5.757   4.682  0.5339  2.1092  0.6904
  143OSM    C1F15746   1.416   5.808   6.191 -0.6060  0.5826 -0.3563
  143OSM     OF15747   1.412   5.914   6.243  0.2320  0.5042 -0.5302
  143OSM    C2F15748   1.313   5.771   6.082  0.2353  0.0651 -0.2643
  143OSM    H2F15749   1.228   5.734   6.144  0.5596  1.7622  1.2924
  143OSM    H2G15750   1.356   5.695   6.013 -0.5527  0.8935 -1.6874
  143OSM    C3F15751   1.265   5.900   6.012 -0.2211  0.3214  0.3489
  143OSM    H3F15752   1.348   5.948   5.955  1.0963 -1.3831  0.7281
  143OSM    H3G15753   1.235   5.976   6.086 -0.5238 -0.9891  1.6221
  143OSM    C4F15754   1.151   5.871   5.921  0.2018 -0.5013  0.7038
  143OSM    H4F15755   1.066   5.853   5.991 -0.6580 -0.3743 -0.2907
  143OSM    H4G15756   1.167   5.789   5.848 -0.1176  0.8393 -0.9196
  143OSM    C5F15757   1.109   5.998   5.843 -0.2688  0.3250 -0.6590
  143OSM    H5F15758   1.176   6.005   5.755 -0.2814 -1.4953 -0.8607
  143OSM    H5G15759   1.120   6.090   5.904 -1.8001  0.5862 -0.7226
  143OSM    C6F15760   0.974   5.993   5.778 -0.1971  0.4721 -0.3754
  143OSM    H6F15761   0.909   5.984   5.867  0.2098  1.5932  0.0575
  143OSM    H6G15762   0.981   5.901   5.716  1.9472 -0.0314  0.5061
  143OSM    C7F15763   0.946   6.119   5.691 -0.4606  0.1699  0.0610
  143OSM    H7F15764   1.024   6.133   5.613 -0.3221 -0.0611  0.1590
  143OSM    H7G15765   0.955   6.207   5.758 -1.7722 -0.6102  1.3196
  143OSM    C8F15766   0.804   6.126   5.622 -0.2219 -0.3669 -0.6945
  143OSM    H8F15767   0.732   6.106   5.705 -0.6930  2.2670 -0.3621
  143OSM    H8G15768   0.780   6.053   5.543 -1.0185  1.3159 -2.0846
  143OSM    C9F15769   0.782   6.266   5.577  0.1907 -0.2709  0.3384
  143OSM    H9F15770   0.799   6.338   5.659  0.7943  1.8807 -1.5745
  143OSM   C10F15771   0.719   6.308   5.464  0.5928  0.1588 -0.0334
  143OSM   H10F15772   0.715   6.416   5.446 -0.8417  0.2578  0.8003
  143OSM   C11F15773   0.694   6.219   5.339 -0.7117  0.0645 -0.1944
  143OSM   H11F15774   0.600   6.245   5.287 -0.0572  2.1562 -0.4522
  143OSM   H11G15775   0.678   6.110   5.354 -1.8778 -0.0785 -2.2167
  143OSM   C12F15776   0.798   6.249   5.229  0.2381 -0.1874  0.1127
  143OSM   H12F15777   0.804   6.360   5.224  2.6588 -0.3150 -1.7354
  143OSM   H12G15778   0.758   6.217   5.131  0.2171 -0.1138  0.0973
  143OSM   C13F15779   0.933   6.184   5.261 -0.1605 -0.1946  0.0821
  143OSM   H13F15780   0.929   6.073   5.269 -0.9091 -0.3981 -2.3155
  143OSM   H13G15781   0.951   6.215   5.367 -1.2781 -0.6308  0.4230
  143OSM   C14F15782   1.057   6.236   5.189 -0.3363 -0.3578 -0.7303
  143OSM   H14F15783   1.069   6.346   5.176 -3.6360  0.4063  1.4558
  143OSM   H14G15784   1.064   6.191   5.087  2.0396 -0.2501 -0.6862
  143OSM   C15F15785   1.180   6.170   5.262  0.0382  0.8556  0.5096
  143OSM   H15F15786   1.158   6.070   5.306  1.1407  1.4675  2.6077
  143OSM   H15G15787   1.213   6.225   5.353  1.3459  2.0344 -0.6306
  143OSM   C16F15788   1.311   6.157   5.180 -0.0330 -0.2413  0.1510
  143OSM   H16F15789   1.279   6.144   5.075  0.1992 -0.3320  0.0901
  143OSM   H16G15790   1.354   6.057   5.203  0.5462  0.2380  1.2471
  143OSM   C17F15791   1.412   6.269   5.173  0.3996 -0.1826 -0.1807
  143OSM   H17F15792   1.479   6.271   5.262  1.1196  0.3141 -0.7214
  143OSM   H17G15793   1.361   6.368   5.178 -0.4840 -0.6708  0.9650
  143OSM   C18F15794   1.501   6.269   5.048  0.0471  0.5632  0.2299
  143OSM   H18F15795   1.567   6.358   5.047  3.3621 -1.6642  2.0029
  143OSM   H18G15796   1.451   6.244   4.952 -1.7659  2.3856  0.6229
  143OSM   H18H15797   1.573   6.187   5.071 -0.7440 -0.9119 -2.2164
  144OSM      N15798   2.634   6.030   7.030 -0.3344 -0.1229 -0.0145
  144OSM    C1515799   2.534   6.130   6.970  0.1096  0.1539  0.1132
  144OSM   H15A15800   2.475   6.077   6.897 -1.4982 -0.0403  1.5018
  144OSM   H15B15801   2.586   6.217   6.932  0.8730 -0.3320  0.0156
  144OSM   H15C15802   2.475   6.160   7.055  1.6190  0.6496  1.0289
  144OSM    C1415803   2.724   5.983   6.917 -0.3703 -0.3394  0.4389
  144OSM   H14A15804   2.789   6.063   6.886 -0.4442 -0.0587  0.9930
  144OSM   H14B15805   2.667   5.946   6.834  1.2252 -0.8928 -0.4534
  144OSM   H14C15806   2.783   5.898   6.947 -0.7252 -0.1577  1.7096
  144OSM    C1315807   2.696   6.095   7.142 -0.8788 -0.6345  0.1350
  144OSM   H13A15808   2.633   6.173   7.184 -2.3551 -0.9708 -1.3563
  144OSM   H13B15809   2.781   6.155   7.114 -0.5139 -0.1355  2.1606
  144OSM   H13C15810   2.722   6.019   7.214 -1.2291 -1.0492 -0.1707
  144OSM    C1215811   2.568   5.899   7.074 -0.4332  1.1565 -0.3938
  144OSM   H12A15812   2.491   5.924   7.146  0.6565  1.6497  0.6457
  144OSM   H12B15813   2.632   5.835   7.132 -1.6504  0.1540 -0.1078
  144OSM    C1115814   2.513   5.814   6.951  0.1603  0.2212  0.1170
  144OSM   H11A15815   2.467   5.719   6.984  2.5458 -0.6953  1.0004
  144OSM   H11B15816   2.596   5.787   6.882 -0.7083 -0.9294 -0.5181
  144OSM      P15817   2.294   5.815   6.811 -0.1980  0.1021 -0.3460
  144OSM    O1315818   2.336   5.675   6.775  0.7702 -0.4476  0.1380
  144OSM    O1415819   2.179   5.831   6.901 -0.8394  0.6628  0.2998
  144OSM    O1115820   2.266   5.888   6.671  0.3182 -0.1587 -0.5051
  144OSM    O1215821   2.417   5.895   6.878  0.9398 -0.1042 -0.1145
  144OSM    C1S15822   2.379   5.943   6.604  0.4709  0.6286 -0.3134
  144OSM    H1S15823   2.473   5.885   6.614 -0.8559 -2.0837 -2.1643
  144OSM    H1T15824   2.392   6.051   6.627 -0.4876  0.9835 -1.3413
  144OSM     NF15825   2.471   5.969   6.374 -0.1590  0.1371 -0.0186
  144OSM    HNF15826   2.480   6.064   6.344 -3.8387 -0.4370 -3.8615
  144OSM    C2S15827   2.354   5.930   6.448  0.2428 -0.7182  0.0784
  144OSM    H2S15828   2.321   5.827   6.424 -1.9811  0.3117 -1.6621
  144OSM    C3S15829   2.239   6.019   6.421  0.2331  0.2429 -0.3924
  144OSM    H3S15830   2.279   6.116   6.460  1.2325 -0.4731  0.4138
  144OSM     O315831   2.117   6.001   6.492 -0.0043  0.2440  0.3067
  144OSM    HO315832   2.135   5.949   6.571 -1.5491 -1.1793 -0.2180
  144OSM    C4S15833   2.219   6.015   6.270  0.4721  0.0935 -0.2914
  144OSM    H4S15834   2.278   6.087   6.212 -0.7896  1.8000  0.4668
  144OSM    C5S15835   2.134   5.936   6.198 -0.1377  0.3815 -0.4053
  144OSM    H5S15836   2.065   5.869   6.252 -1.1379  0.4049 -1.6124
  144OSM    C6S15837   2.124   5.938   6.053 -0.1177  0.3861 -0.9150
  144OSM    H6S15838   2.015   5.955   6.042 -0.2577 -0.2929 -0.6450
  144OSM    H6T15839   2.152   5.836   6.018  1.2666  1.0831 -1.9327
  144OSM    C7S15840   2.205   6.026   5.965 -0.7208 -0.6001  0.8534
  144OSM    H7S15841   2.312   6.011   5.992 -0.2779  0.4560 -0.2453
  144OSM    H7T15842   2.192   6.134   5.986  0.3857  0.1276 -1.8732
  144OSM    C8S15843   2.195   5.983   5.817  0.1544 -0.0872  0.6356
  144OSM    H8S15844   2.088   5.970   5.792 -0.0816  0.8455  1.1248
  144OSM    H8T15845   2.242   5.882   5.811  1.8865  0.6491  1.1574
  144OSM    C9S15846   2.267   6.080   5.732 -0.1940 -0.5162  0.4834
  144OSM    H9S15847   2.377   6.077   5.742 -0.1173 -1.8864 -0.4840
  144OSM    H9T15848   2.241   6.184   5.761  0.4867  1.1574 -3.9954
  144OSM   C10S15849   2.235   6.071   5.580  0.2997 -0.2928 -0.5121
  144OSM   H10S15850   2.129   6.101   5.563 -0.3416 -3.2677 -2.6389
  144OSM   H10T15851   2.256   5.967   5.549 -1.3297 -1.0973  0.9673
  144OSM   C11S15852   2.326   6.172   5.510  0.0004 -0.3629 -0.0436
  144OSM   H11S15853   2.430   6.143   5.538 -0.3190 -1.1035  0.4022
  144OSM   H11T15854   2.316   6.275   5.551 -0.3694 -0.5266  0.2810
  144OSM   C12S15855   2.324   6.160   5.355  0.5214 -0.3616  0.2457
  144OSM   H12S15856   2.337   6.055   5.320 -1.8182 -0.0620 -1.8308
  144OSM   H12T15857   2.408   6.217   5.310 -0.2786  1.7439  1.2740
  144OSM   C13S15858   2.197   6.206   5.287  0.8240  0.0324  0.0030
  144OSM   H13S15859   2.174   6.312   5.313 -0.4190  0.0206 -0.9400
  144OSM   H13T15860   2.114   6.141   5.323  0.9638 -0.5091 -0.6333
  144OSM   C14S15861   2.201   6.209   5.133 -0.9251 -0.7258 -0.0929
  144OSM   H14S15862   2.256   6.118   5.103  2.1151  0.4402  1.5152
  144OSM   H14T15863   2.275   6.285   5.099  2.4708 -4.5589 -2.1754
  144OSM   C15S15864   2.065   6.216   5.058  0.0457 -0.5756  0.3015
  144OSM   H15S15865   2.014   6.291   5.123  1.0623 -0.4632  0.9848
  144OSM   H15T15866   2.016   6.117   5.072 -0.9799 -0.1096  0.1055
  144OSM   C16S15867   2.087   6.261   4.910  0.7992 -0.6998 -1.0571
  144OSM   H16S15868   2.158   6.347   4.903 -0.3645  0.5181  0.9640
  144OSM   H16T15869   1.994   6.298   4.860  0.9100 -0.1198 -0.8486
  144OSM   C17S15870   2.146   6.155   4.817 -0.0735 -0.2856 -0.4742
  144OSM   H17S15871   2.081   6.065   4.808  1.1705 -1.3920  1.0421
  144OSM   H17T15872   2.237   6.112   4.864 -0.6499 -0.8909  0.1041
  144OSM   C18S15873   2.193   6.209   4.684  0.0421 -0.3035 -0.2337
  144OSM   H18S15874   2.110   6.271   4.644 -0.2867 -1.1061 -0.8056
  144OSM   H18T15875   2.234   6.136   4.611  0.4191 -0.9586  0.6182
  144OSM   H18U15876   2.274   6.281   4.707  1.0018 -1.2352 -0.6194
  144OSM    C1F15877   2.572   5.881   6.371  0.0897  0.2686 -0.0847
  144OSM     OF15878   2.557   5.772   6.421  0.5437 -0.5847 -0.0035
  144OSM    C2F15879   2.692   5.928   6.301  0.2433  0.3379  0.1931
  144OSM    H2F15880   2.789   5.889   6.337  1.3328  1.8329 -0.9813
  144OSM    H2G15881   2.695   6.039   6.310  2.4855  0.3387  0.0258
  144OSM    C3F15882   2.680   5.888   6.147 -0.3985 -0.1691  0.2825
  144OSM    H3F15883   2.588   5.925   6.097 -0.4642 -0.0124  0.5188
  144OSM    H3G15884   2.676   5.777   6.143 -1.6177 -0.1179 -0.2692
  144OSM    C4F15885   2.810   5.924   6.066 -0.1807  0.2845  0.4032
  144OSM    H4F15886   2.803   5.879   5.964  3.6183 -0.3767  0.2689
  144OSM    H4G15887   2.899   5.874   6.110  1.8704  1.6110 -1.9842
  144OSM    C5F15888   2.839   6.077   6.047  0.1946 -0.2169  0.3441
  144OSM    H5F15889   2.737   6.122   6.039  0.0744 -0.7921 -2.3064
  144OSM    H5G15890   2.894   6.096   5.953  2.8680  0.4867  1.9479
  144OSM    C6F15891   2.927   6.141   6.151  0.6773  0.7322  0.3598
  144OSM    H6F15892   3.026   6.093   6.137  1.7764  1.8444  3.4243
  144OSM    H6G15893   2.890   6.112   6.252  0.7165 -0.0874  0.1454
  144OSM    C7F15894   2.939   6.293   6.134 -0.6497  0.0455 -0.0594
  144OSM    H7F15895   2.999   6.339   6.216  0.7412 -0.6016 -0.6928
  144OSM    H7G15896   2.838   6.337   6.123 -0.6372  0.1663  0.2772
  144OSM    C8F15897   3.003   6.343   5.995  0.4302  0.2920 -0.6072
  144OSM    H8F15898   3.008   6.454   6.006  4.0580  0.0898  1.1755
  144OSM    H8G15899   2.946   6.312   5.905 -3.7830 -2.9461  2.7473
  144OSM    C9F15900   3.147   6.293   5.995 -0.1285 -0.1171  0.1770
  144OSM    H9F15901   3.210   6.345   6.068 -1.3336 -0.1634  1.2926
  144OSM   C10F15902   3.199   6.203   5.912 -0.9175  0.0840 -0.2997
  144OSM   H10F15903   3.301   6.165   5.925 -0.8777  0.0135 -0.8143
  144OSM   C11F15904   3.132   6.146   5.788  0.8265  0.4199 -0.4598
  144OSM   H11F15905   3.023   6.168   5.781  0.6701 -0.5191 -1.1228
  144OSM   H11G15906   3.127   6.036   5.800  0.0950  0.5259  0.2849
  144OSM   C12F15907   3.209   6.167   5.657 -0.4900  0.0940 -0.1465
  144OSM   H12F15908   3.307   6.117   5.672 -0.5025  0.3637  0.9486
  144OSM   H12G15909   3.231   6.275   5.640 -1.8010  0.5729  0.9819
  144OSM   C13F15910   3.135   6.115   5.528  0.2505 -0.4550 -0.9625
  144OSM   H13F15911   3.028   6.145   5.525  0.3319 -0.1028 -0.5038
  144OSM   H13G15912   3.160   6.007   5.531  0.0320 -0.4884  0.1568
  144OSM   C14F15913   3.196   6.187   5.406  0.1327  0.4673  0.6228
  144OSM   H14F15914   3.299   6.229   5.419  0.4073  0.6627 -1.8056
  144OSM   H14G15915   3.129   6.272   5.382  0.2231  0.3692 -0.0013
  144OSM   C15F15916   3.200   6.088   5.289  0.6033  1.1524  0.0121
  144OSM   H15F15917   3.112   6.020   5.279  2.5858 -1.4025 -1.1081
  144OSM   H15G15918   3.282   6.015   5.305 -0.5758 -0.7248 -1.9716
  144OSM   C16F15919   3.222   6.167   5.157  0.2268  0.3929 -0.9590
  144OSM   H16F15920   3.171   6.265   5.168  1.4032  1.5962 -4.6240
  144OSM   H16G15921   3.162   6.124   5.073 -0.8833 -1.0910  0.5101
  144OSM   C17F15922   3.369   6.174   5.127  0.3819  0.0334 -0.6585
  144OSM   H17F15923   3.385   6.077   5.075  1.4111 -0.6808  0.9119
  144OSM   H17G15924   3.442   6.177   5.211 -0.0521  1.6749 -0.3171
  144OSM   C18F15925   3.412   6.286   5.034  0.2073  0.1863 -0.4217
  144OSM   H18F15926   3.500   6.255   4.973 -0.8177  1.2315 -2.5218
  144OSM   H18G15927   3.437   6.373   5.098 -0.1824 -0.9122  1.3155
  144OSM   H18H15928   3.339   6.327   4.961  2.1604 -0.0174 -2.5937
  145OSM      N15929   4.695   1.725   7.001  0.2885  0.0503 -0.5978
  145OSM    C1515930   4.694   1.583   7.049 -0.3406  0.0373 -0.6247
  145OSM   H15A15931   4.600   1.560   7.097 -0.5033  0.0607 -0.9345
  145OSM   H15B15932   4.777   1.565   7.116 -0.5885  1.0901 -0.0019
  145OSM   H15C15933   4.699   1.511   6.969  1.5448  0.8390 -1.2943
  145OSM    C1415934   4.657   1.807   7.115  0.9133 -0.2343 -0.6665
  145OSM   H14A15935   4.728   1.817   7.196  1.7809  0.8268 -1.5221
  145OSM   H14B15936   4.560   1.777   7.151  0.5232  0.5097 -1.0845
  145OSM   H14C15937   4.638   1.907   7.079 -4.0134 -1.1506 -1.3075
  145OSM    C1315938   4.834   1.767   6.961  0.1762  0.3004 -0.5654
  145OSM   H13A15939   4.869   1.697   6.887  0.7872  2.1849 -2.1675
  145OSM   H13B15940   4.902   1.759   7.044 -1.8729 -2.9248  0.9798
  145OSM   H13C15941   4.829   1.861   6.907  2.4621  0.2862 -0.8797
  145OSM    C1215942   4.602   1.745   6.882  1.0025 -0.5890 -0.3940
  145OSM   H12A15943   4.617   1.842   6.837 -0.3419 -0.8234 -1.4075
  145OSM   H12B15944   4.498   1.742   6.909  1.0674 -2.0356 -0.2041
  145OSM    C1115945   4.630   1.653   6.757  0.2370 -0.5623  0.4140
  145OSM   H11A15946   4.739   1.655   6.738 -0.3921  1.3928 -4.3244
  145OSM   H11B15947   4.575   1.696   6.671 -1.1816 -0.9880  1.0839
  145OSM      P15948   4.451   1.464   6.725  0.2273 -0.3091 -0.1828
  145OSM    O1315949   4.433   1.321   6.743  0.7381  0.2657  0.0814
  145OSM    O1415950   4.339   1.548   6.778 -0.4418  0.0655  0.6019
  145OSM    O1115951   4.460   1.490   6.570 -0.1091 -0.7000  0.5345
  145OSM    O1215952   4.589   1.514   6.777  0.0396  0.3279 -0.5191
  145OSM    C1S15953   4.575   1.459   6.492 -0.0563  0.2832  0.0429
  145OSM    H1S15954   4.595   1.350   6.499  2.1375  0.7014  1.0015
  145OSM    H1T15955   4.667   1.506   6.532  1.1896 -0.8330 -1.3893
  145OSM     NF15956   4.637   1.417   6.266 -0.1082  0.1896  0.3283
  145OSM    HNF15957   4.706   1.469   6.216  0.3794 -1.3228 -0.6396
  145OSM    C2S15958   4.548   1.490   6.348 -0.2539 -0.0483  0.8849
  145OSM    H2S15959   4.451   1.443   6.324  0.3799 -1.6126  1.2648
  145OSM    C3S15960   4.536   1.641   6.321  0.2504 -0.0422 -0.0123
  145OSM    H3S15961   4.641   1.677   6.316  0.3503 -0.3344 -0.0380
  145OSM     O315962   4.467   1.714   6.422  0.3374 -0.0919 -1.0600
  145OSM    HO315963   4.437   1.650   6.487  0.2193 -1.2086 -2.1631
  145OSM    C4S15964   4.472   1.665   6.189 -0.1544 -0.6551 -0.1278
  145OSM    H4S15965   4.548   1.689   6.113 -2.6258 -2.8181 -3.5936
  145OSM    C5S15966   4.339   1.672   6.158  0.4681  0.2636 -0.1700
  145OSM    H5S15967   4.262   1.673   6.236  0.2092  0.0840 -0.4221
  145OSM    C6S15968   4.275   1.704   6.025 -0.5639 -0.5234  0.6120
  145OSM    H6S15969   4.191   1.777   6.029 -1.1744 -1.2056  0.5594
  145OSM    H6T15970   4.222   1.612   5.991 -0.6322  0.1664 -1.2496
  145OSM    C7S15971   4.369   1.751   5.916 -0.2444 -0.4195 -0.5758
  145OSM    H7S15972   4.448   1.675   5.899  0.3731 -0.1000  0.6703
  145OSM    H7T15973   4.424   1.834   5.967 -1.8554 -0.7409  1.8742
  145OSM    C8S15974   4.299   1.782   5.786 -0.0824  0.1124 -0.0656
  145OSM    H8S15975   4.211   1.848   5.803 -1.2599 -1.2903 -0.5208
  145OSM    H8T15976   4.262   1.693   5.732  0.7780  0.1112 -0.6825
  145OSM    C9S15977   4.400   1.862   5.698 -0.2757  0.2761 -0.0448
  145OSM    H9S15978   4.480   1.787   5.677  0.0758  1.0319 -1.5149
  145OSM    H9T15979   4.450   1.947   5.750  1.4571 -1.8898  2.0710
  145OSM   C10S15980   4.347   1.910   5.558 -0.0735  0.2357 -0.1094
  145OSM   H10S15981   4.274   1.989   5.585  0.1755  0.0805  1.0758
  145OSM   H10T15982   4.297   1.824   5.508 -0.9236  0.8225 -0.2868
  145OSM   C11S15983   4.446   1.963   5.460 -0.4898  0.1037 -0.0184
  145OSM   H11S15984   4.523   1.886   5.437  0.0681 -0.0467  2.1263
  145OSM   H11T15985   4.503   2.053   5.493 -1.5053  0.9013 -0.4058
  145OSM   C12S15986   4.389   2.006   5.321 -0.6324 -0.4092 -0.8602
  145OSM   H12S15987   4.319   2.088   5.344 -0.0596  0.3210 -1.6647
  145OSM   H12T15988   4.341   1.919   5.270 -0.5660 -1.6811  1.1510
  145OSM   C13S15989   4.495   2.060   5.226  0.5223  0.4653  0.0130
  145OSM   H13S15990   4.562   1.976   5.199  0.0207 -0.0628  0.4104
  145OSM   H13T15991   4.569   2.122   5.282 -0.1762  0.8617  0.5096
  145OSM   C14S15992   4.449   2.138   5.099 -0.0279 -0.0008 -0.2853
  145OSM   H14S15993   4.365   2.079   5.057  0.9752  0.2447 -2.7937
  145OSM   H14T15994   4.528   2.140   5.021  0.8911 -0.5302  0.6041
  145OSM   C15S15995   4.391   2.280   5.120  0.0853  0.1584 -0.0819
  145OSM   H15S15996   4.476   2.345   5.151  0.5690  0.1898 -1.4246
  145OSM   H15T15997   4.311   2.269   5.197  0.6207 -1.2086  0.2965
  145OSM   C16S15998   4.347   2.344   4.990 -0.7593 -1.0347  0.4541
  145OSM   H16S15999   4.327   2.453   5.004  1.3680 -0.2610 -1.7859
  145OSM   H16T16000   4.253   2.296   4.956 -0.8196 -1.5869  1.3768
  145OSM   C17S16001   4.435   2.319   4.866 -1.2204 -0.5039  0.6497
  145OSM   H17S16002   4.411   2.217   4.827  0.6424 -0.6170 -0.3172
  145OSM   H17T16003   4.540   2.322   4.901 -0.1469 -0.7074 -2.2847
  145OSM   C18S16004   4.435   2.414   4.749  0.4067  0.0573  0.2523
  145OSM   H18S16005   4.334   2.403   4.705  0.6111  3.0871 -1.2582
  145OSM   H18T16006   4.512   2.388   4.673 -0.8451  1.2710 -1.5203
  145OSM   H18U16007   4.433   2.523   4.773 -2.9462  0.2905 -0.5923
  145OSM    C1F16008   4.629   1.283   6.257 -0.2205  0.5759 -0.5807
  145OSM     OF16009   4.544   1.215   6.311 -0.4071 -0.6409  0.5645
  145OSM    C2F16010   4.723   1.220   6.152  0.0476  0.5710  0.1920
  145OSM    H2F16011   4.716   1.110   6.157 -0.8616  0.6313  0.4791
  145OSM    H2G16012   4.826   1.261   6.164  1.0569 -1.8599  0.2559
  145OSM    C3F16013   4.679   1.257   6.012 -0.0410 -0.4989  0.3240
  145OSM    H3F16014   4.690   1.367   5.996  0.9182 -0.5760  0.3801
  145OSM    H3G16015   4.571   1.249   5.989  0.2169 -1.0786 -0.7657
  145OSM    C4F16016   4.743   1.180   5.897  0.3726  0.0267 -0.0457
  145OSM    H4F16017   4.722   1.071   5.901 -0.6665  0.0991 -2.1914
  145OSM    H4G16018   4.851   1.206   5.909 -0.2578  1.7028  3.2527
  145OSM    C5F16019   4.692   1.211   5.753  0.2486  0.3601 -0.2828
  145OSM    H5F16020   4.680   1.321   5.744 -1.0925  0.1667 -1.1847
  145OSM    H5G16021   4.587   1.176   5.750 -0.0827  1.3444 -1.0617
  145OSM    C6F16022   4.766   1.140   5.645 -0.0978 -0.5456  0.3136
  145OSM    H6F16023   4.755   1.032   5.671 -2.2076 -0.1328  1.3620
  145OSM    H6G16024   4.873   1.167   5.650 -0.0229 -0.5730 -0.8716
  145OSM    C7F16025   4.714   1.162   5.505 -0.0543 -0.2831 -0.1387
  145OSM    H7F16026   4.736   1.260   5.456 -0.5412 -0.2051 -0.2058
  145OSM    H7G16027   4.604   1.171   5.513 -0.0395  0.0070 -0.2490
  145OSM    C8F16028   4.759   1.049   5.408 -0.3683  0.2875  0.2214
  145OSM    H8F16029   4.748   0.956   5.468 -0.7634 -1.1470 -1.9621
  145OSM    H8G16030   4.867   1.073   5.396  0.3879 -1.7929  1.9616
  145OSM    C9F16031   4.689   1.045   5.274 -0.0066  0.4329 -0.7524
  145OSM    H9F16032   4.596   0.987   5.268  0.5202 -0.2486 -2.8004
  145OSM   C10F16033   4.719   1.114   5.165 -0.9022 -0.2078 -0.3452
  145OSM   H10F16034   4.672   1.081   5.071  1.4549 -3.4737 -0.5611
  145OSM   C11F16035   4.838   1.203   5.164 -0.0176 -0.5165  0.4006
  145OSM   H11F16036   4.940   1.160   5.173 -0.1031 -0.9285 -0.5319
  145OSM   H11G16037   4.826   1.291   5.232 -0.5572  1.0878 -1.6810
  145OSM   C12F16038   4.857   1.276   5.025  0.3061 -0.2724  0.7421
  145OSM   H12F16039   4.767   1.340   5.018 -0.3707 -0.6677  4.1065
  145OSM   H12G16040   4.868   1.195   4.949 -1.9070 -0.2930  0.4020
  145OSM   C13F16041   4.987   1.358   5.018 -0.9475 -0.1544 -0.0621
  145OSM   H13F16042   5.075   1.292   5.037 -0.9260 -0.0398  0.2371
  145OSM   H13G16043   4.979   1.438   5.094  1.0542 -1.2390  1.4119
  145OSM   C14F16044   5.007   1.423   4.873 -0.9038 -0.8193  0.3771
  145OSM   H14F16045   4.918   1.489   4.860 -0.2924 -0.3611 -2.2007
  145OSM   H14G16046   5.015   1.348   4.792  2.5479 -0.6282  0.3928
  145OSM   C15F16047   5.125   1.520   4.869 -0.5236 -0.2144  0.2101
  145OSM   H15F16048   5.209   1.449   4.886  0.5820  0.9812 -0.1552
  145OSM   H15G16049   5.129   1.588   4.956 -2.3587  1.1627 -0.7119
  145OSM   C16F16050   5.145   1.594   4.736  0.1597 -0.3203 -0.2114
  145OSM   H16F16051   5.062   1.666   4.726  0.3823 -0.0683 -0.2437
  145OSM   H16G16052   5.140   1.516   4.657  0.6821  0.8790 -1.4552
  145OSM   C17F16053   5.273   1.676   4.729  0.0756 -0.2308 -0.5164
  145OSM   H17F16054   5.287   1.692   4.620 -2.0239 -0.4266 -0.8462
  145OSM   H17G16055   5.362   1.622   4.769  1.2720  0.4582 -2.1390
  145OSM   C18F16056   5.255   1.807   4.801  0.2642  0.3728 -0.1885
  145OSM   H18F16057   5.330   1.882   4.766  0.3417 -0.2269 -1.3681
  145OSM   H18G16058   5.265   1.801   4.912 -1.3031  2.9431  0.1669
  145OSM   H18H16059   5.156   1.854   4.782  1.6611  3.2760 -0.8970
  146OSM      N16060   0.429   3.599   6.761 -0.0987  0.1644  0.5903
  146OSM    C1516061   0.317   3.560   6.667  0.0416 -0.6762  0.8400
  146OSM   H15A16062   0.278   3.654   6.632  1.0704 -0.2909  0.6887
  146OSM   H15B16063   0.241   3.505   6.721 -0.2242  0.6491  1.8560
  146OSM   H15C16064   0.356   3.508   6.580  2.1330 -0.8675  1.8198
  146OSM    C1416065   0.526   3.675   6.674  0.9594  0.4935  0.7001
  146OSM   H14A16066   0.538   3.628   6.578  3.0226  0.2780  1.0035
  146OSM   H14B16067   0.625   3.677   6.719  1.8644 -1.7479 -0.9908
  146OSM   H14C16068   0.495   3.773   6.642  1.2518  0.6246  0.8162
  146OSM    C1316069   0.391   3.688   6.873  0.8853 -0.2982  0.1501
  146OSM   H13A16070   0.322   3.628   6.931 -1.2463  0.7064 -1.1979
  146OSM   H13B16071   0.341   3.775   6.831  2.2538  0.3817 -0.1320
  146OSM   H13C16072   0.477   3.717   6.932 -0.1011  0.9172  1.0593
  146OSM    C1216073   0.499   3.483   6.816 -0.2489 -0.2457  0.0781
  146OSM   H12A16074   0.433   3.444   6.892  0.8596 -1.1292  0.6320
  146OSM   H12B16075   0.586   3.522   6.867  0.5411  0.2300 -1.5631
  146OSM    C1116076   0.549   3.374   6.720 -0.1999  0.4421 -0.3343
  146OSM   H11A16077   0.617   3.415   6.643  0.5507 -0.2237 -0.0372
  146OSM   H11B16078   0.463   3.337   6.661 -0.9031  0.2419  0.7733
  146OSM      P16079   0.549   3.128   6.816 -0.4969 -0.0825  0.0812
  146OSM    O1316080   0.639   3.032   6.888  0.2644 -0.5176 -0.2085
  146OSM    O1416081   0.407   3.148   6.857 -0.5313  0.5971  0.4007
  146OSM    O1116082   0.552   3.071   6.668  0.2433 -0.1400 -0.3930
  146OSM    O1216083   0.618   3.274   6.803  0.3557 -0.3173 -0.3854
  146OSM    C1S16084   0.670   3.096   6.593  0.1288 -0.4237  0.3142
  146OSM    H1S16085   0.751   3.025   6.621 -1.5695 -2.6810 -0.2225
  146OSM    H1T16086   0.708   3.199   6.603  0.1805 -0.4045 -0.0749
  146OSM     NF16087   0.758   3.101   6.364  0.1198 -0.3611 -0.4970
  146OSM    HNF16088   0.802   3.190   6.372 -2.6338  0.9667  0.8429
  146OSM    C2S16089   0.639   3.080   6.440 -0.5635 -0.6131 -0.0015
  146OSM    H2S16090   0.603   2.975   6.433  1.3064 -1.2157 -1.1183
  146OSM    C3S16091   0.527   3.175   6.389  0.5579  0.4630  0.6182
  146OSM    H3S16092   0.565   3.278   6.408  2.6407  0.1510 -1.3450
  146OSM     O316093   0.406   3.170   6.459  0.3347 -0.4129  0.7138
  146OSM    HO316094   0.436   3.137   6.544  4.2808  2.3283  0.6490
  146OSM    C4S16095   0.495   3.167   6.245  0.4623 -0.8295 -0.0127
  146OSM    H4S16096   0.463   3.066   6.214 -1.0756  0.1896 -2.0481
  146OSM    C5S16097   0.492   3.268   6.153  0.1444  0.6828  0.5603
  146OSM    H5S16098   0.499   3.373   6.183  1.6926  1.0873 -1.0514
  146OSM    C6S16099   0.440   3.254   6.010  0.3214 -0.1678  0.6613
  146OSM    H6S16100   0.527   3.250   5.942 -0.4807  1.3411 -0.5310
  146OSM    H6T16101   0.390   3.347   5.974 -1.0515 -0.3299  2.0507
  146OSM    C7S16102   0.329   3.140   5.999  0.1094 -0.3493 -0.8230
  146OSM    H7S16103   0.267   3.159   6.090  2.0449  0.5412  0.3859
  146OSM    H7T16104   0.372   3.039   6.010 -0.4969 -1.0961 -4.1873
  146OSM    C8S16105   0.267   3.143   5.859 -0.4035  0.0722 -0.4529
  146OSM    H8S16106   0.225   3.245   5.842 -2.1758 -0.3637  0.9797
  146OSM    H8T16107   0.201   3.055   5.874  0.1059  0.0189  1.9977
  146OSM    C9S16108   0.374   3.108   5.754  0.2689  0.1166  0.1234
  146OSM    H9S16109   0.429   3.016   5.783  1.9544  1.0135 -0.0567
  146OSM    H9T16110   0.451   3.188   5.749  0.8297 -0.4625 -1.0226
  146OSM   C10S16111   0.309   3.077   5.620  0.1679 -0.1361  0.1501
  146OSM   H10S16112   0.251   3.165   5.585 -0.1392 -0.7449 -0.9234
  146OSM   H10T16113   0.234   2.995   5.628 -1.0253  1.1023  2.2414
  146OSM   C11S16114   0.417   3.038   5.517  0.3257  0.0442  0.3516
  146OSM   H11S16115   0.476   2.951   5.551  3.1540  0.8019 -2.1506
  146OSM   H11T16116   0.486   3.125   5.522  0.6592 -0.1767 -0.3209
  146OSM   C12S16117   0.362   3.022   5.367 -0.4935  0.8827 -0.5310
  146OSM   H12S16118   0.331   3.124   5.338 -0.7800  0.4525 -1.7909
  146OSM   H12T16119   0.275   2.955   5.384 -0.1990  0.7070  0.3460
  146OSM   C13S16120   0.471   2.968   5.275 -0.1039  0.0519 -0.0873
  146OSM   H13S16121   0.502   2.875   5.326 -0.0447  1.2559  2.2096
  146OSM   H13T16122   0.555   3.042   5.276  0.7819 -0.8626  2.3281
  146OSM   C14S16123   0.422   2.920   5.128  0.1678 -0.0641 -0.1795
  146OSM   H14S16124   0.375   3.002   5.069  0.0279 -0.6795 -0.9449
  146OSM   H14T16125   0.344   2.841   5.126 -0.0314  0.1378 -0.8958
  146OSM   C15S16126   0.535   2.867   5.054  0.4822  0.5199 -0.2548
  146OSM   H15S16127   0.535   2.757   5.071  0.9232  0.6669  0.8008
  146OSM   H15T16128   0.636   2.906   5.080  0.9695 -1.9476  1.9707
  146OSM   C16S16129   0.518   2.887   4.895 -0.4787  0.0859 -0.3263
  146OSM   H16S16130   0.517   2.996   4.874 -1.1381  0.2642  0.5753
  146OSM   H16T16131   0.430   2.833   4.855 -0.2828 -1.2349  0.9466
  146OSM   C17S16132   0.644   2.836   4.822  0.9568 -0.4272 -0.2322
  146OSM   H17S16133   0.629   2.844   4.712 -1.2741  0.1406  0.0639
  146OSM   H17T16134   0.668   2.732   4.853 -0.2848 -0.1815  1.7008
  146OSM   C18S16135   0.775   2.903   4.856 -0.0146 -0.3890 -0.3231
  146OSM   H18S16136   0.778   3.014   4.849 -0.7316 -0.2891  0.7433
  146OSM   H18T16137   0.854   2.854   4.796  0.9901 -0.0808  0.7033
  146OSM   H18U16138   0.808   2.882   4.960  2.3113 -1.8438 -1.2811
  146OSM    C1F16139   0.837   3.005   6.318  0.4584  0.1647  0.0298
  146OSM     OF16140   0.808   2.882   6.328  0.6403  0.0263 -0.3674
  146OSM    C2F16141   0.961   3.050   6.254 -0.0933 -0.2500  0.3742
  146OSM    H2F16142   1.029   3.096   6.329  1.9285  0.7329 -1.9039
  146OSM    H2G16143   0.936   3.139   6.192  0.4933 -0.9973 -0.9881
  146OSM    C3F16144   1.040   2.941   6.185  0.0812  0.1890  0.5524
  146OSM    H3F16145   0.977   2.906   6.101 -0.7054 -2.5260  2.1313
  146OSM    H3G16146   1.056   2.854   6.252  1.6738  0.6642  0.8451
  146OSM    C4F16147   1.181   2.989   6.130 -0.2563  0.5345 -0.4785
  146OSM    H4F16148   1.234   2.897   6.101 -0.0234  0.3162  0.5857
  146OSM    H4G16149   1.230   3.041   6.216 -1.4624  4.5669 -1.9655
  146OSM    C5F16150   1.163   3.104   6.021  0.3102  0.3804 -0.6479
  146OSM    H5F16151   1.154   3.200   6.076  0.4380 -0.9598  1.8336
  146OSM    H5G16152   1.071   3.089   5.961  1.1883  0.1991 -1.9896
  146OSM    C6F16153   1.267   3.101   5.906 -0.2314  0.1983  0.1443
  146OSM    H6F16154   1.361   3.109   5.964 -0.8707 -0.9768  1.3940
  146OSM    H6G16155   1.247   3.188   5.841 -2.1588 -1.6574 -1.9037
  146OSM    C7F16156   1.272   2.963   5.837 -0.0321 -0.1126 -0.5319
  146OSM    H7F16157   1.220   2.884   5.895  0.3612 -0.9140 -1.2392
  146OSM    H7G16158   1.380   2.942   5.822 -0.0775  0.3144 -1.5279
  146OSM    C8F16159   1.206   2.950   5.700 -0.3963  0.1703 -0.1437
  146OSM    H8F16160   1.099   2.975   5.718 -0.0998  0.2637  1.6556
  146OSM    H8G16161   1.208   2.845   5.665  0.2243  0.4660 -1.0313
  146OSM    C9F16162   1.277   3.029   5.598 -0.2479 -0.4167  0.4468
  146OSM    H9F16163   1.256   3.137   5.601 -5.7130 -0.9071 -3.9445
  146OSM   C10F16164   1.340   2.984   5.484 -0.5155 -0.1747  0.7680
  146OSM   H10F16165   1.385   3.056   5.414 -1.6423  2.1682  2.3326
  146OSM   C11F16166   1.373   2.841   5.442  0.3243  0.7873  0.9068
  146OSM   H11F16167   1.363   2.779   5.533  0.2936  1.0310  1.0725
  146OSM   H11G16168   1.477   2.843   5.404 -0.7761 -0.4866 -2.4799
  146OSM   C12F16169   1.278   2.799   5.330 -0.0993  0.3434 -0.0427
  146OSM   H12F16170   1.171   2.807   5.360  0.6412 -1.5920  3.8142
  146OSM   H12G16171   1.291   2.689   5.326 -2.7863 -0.0142 -0.6921
  146OSM   C13F16172   1.325   2.841   5.191  0.0515  0.1119 -0.0397
  146OSM   H13F16173   1.428   2.803   5.176 -0.2412  0.0758 -2.2892
  146OSM   H13G16174   1.332   2.952   5.190 -2.9348  0.3903  0.7948
  146OSM   C14F16175   1.236   2.804   5.080 -0.1111  0.2617  0.3306
  146OSM   H14F16176   1.131   2.838   5.091  0.9570  5.4143 -2.3113
  146OSM   H14G16177   1.274   2.858   4.990 -0.7320  1.1879  0.6172
  146OSM   C15F16178   1.246   2.652   5.064 -0.0453  0.1770 -0.1516
  146OSM   H15F16179   1.178   2.615   5.143  0.0420 -0.4203 -0.3520
  146OSM   H15G16180   1.352   2.622   5.083 -0.2245  1.2734  3.4238
  146OSM   C16F16181   1.183   2.590   4.940 -0.5115 -0.0672  0.2330
  146OSM   H16F16182   1.077   2.623   4.942 -0.5363 -0.0090 -1.1345
  146OSM   H16G16183   1.197   2.481   4.952  3.4550  0.1210 -1.1940
  146OSM   C17F16184   1.234   2.636   4.804 -0.7707  0.4508  0.8003
  146OSM   H17F16185   1.331   2.585   4.788  0.0905  2.2214  0.1058
  146OSM   H17G16186   1.259   2.743   4.815  1.8939  0.0450 -0.5526
  146OSM   C18F16187   1.144   2.599   4.685  0.6150  0.0148 -0.7330
  146OSM   H18F16188   1.180   2.653   4.595 -0.3752  1.0452 -0.5385
  146OSM   H18G16189   1.040   2.636   4.697  0.6753  0.7692 -2.3243
  146OSM   H18H16190   1.135   2.489   4.668  0.1810  0.3619 -3.1390
  147OSM      N16191   2.173   1.204   2.002  0.7850 -0.1579  0.1526
  147OSM    C1516192   2.043   1.232   1.944  0.4347  0.6449  0.3231
  147OSM   H15A16193   1.991   1.146   1.905 -2.3407  3.3845 -2.6721
  147OSM   H15B16194   2.045   1.284   1.849  0.2413 -0.9912 -0.6192
  147OSM   H15C16195   1.974   1.282   2.011  0.5465 -1.4561  2.1096
  147OSM    C1416196   2.162   1.112   2.116 -0.7717  0.2638  0.1553
  147OSM   H14A16197   2.129   1.015   2.083 -2.4590  0.7621  0.2581
  147OSM   H14B16198   2.094   1.157   2.187 -0.8933  2.4402 -1.2199
  147OSM   H14C16199   2.259   1.112   2.163 -0.2997  1.7099 -0.7457
  147OSM    C1316200   2.248   1.153   1.889 -0.1668  0.4854 -0.5184
  147OSM   H13A16201   2.354   1.159   1.909  0.7477 -0.3792 -4.3339
  147OSM   H13B16202   2.231   1.211   1.800  1.2306  1.7635  0.0000
  147OSM   H13C16203   2.228   1.052   1.859  1.1730 -0.3539  1.1871
  147OSM    C1216204   2.228   1.340   2.054 -0.6563  0.9445 -0.6149
  147OSM   H12A16205   2.323   1.315   2.099 -0.4203  2.6042 -0.1105
  147OSM   H12B16206   2.173   1.379   2.138 -0.2768  0.0577  0.0664
  147OSM    C1116207   2.240   1.445   1.942 -0.1352 -0.6669 -0.6000
  147OSM   H11A16208   2.142   1.479   1.902  0.1889 -1.1013 -1.8126
  147OSM   H11B16209   2.303   1.396   1.864  1.1293 -1.8859  1.1019
  147OSM      P16210   2.224   1.698   2.020 -0.1697 -0.1359  0.5591
  147OSM    O1316211   2.308   1.790   2.101  0.4503  1.0175  0.6503
  147OSM    O1416212   2.187   1.744   1.882  0.1102  0.7339  0.2834
  147OSM    O1116213   2.091   1.663   2.110 -0.4981  0.0456  0.4769
  147OSM    O1216214   2.304   1.558   1.996  1.2217 -1.1161 -0.4099
  147OSM    C1S16215   2.106   1.619   2.244 -0.1730 -0.1533 -1.1606
  147OSM    H1S16216   2.202   1.568   2.266 -0.6434  0.1442  2.1270
  147OSM    H1T16217   2.016   1.562   2.273 -0.0069  0.1697  0.0678
  147OSM     NF16218   2.136   1.677   2.471  0.2652 -0.0286 -0.1844
  147OSM    HNF16219   2.054   1.656   2.524  1.4069 -0.9018  1.2966
  147OSM    C2S16220   2.115   1.736   2.344 -0.2039 -0.0918  0.3785
  147OSM    H2S16221   2.210   1.793   2.339 -0.9035  1.0863  0.1088
  147OSM    C3S16222   1.993   1.829   2.329  0.3493 -0.4869 -0.4238
  147OSM    H3S16223   1.896   1.775   2.335  0.3519 -0.6107 -1.3556
  147OSM     O316224   1.990   1.895   2.204 -0.0404 -0.3225  0.4964
  147OSM    HO316225   2.029   1.826   2.149 -0.4312  0.8728 -1.3813
  147OSM    C4S16226   1.992   1.924   2.445  0.3780 -0.3046 -1.0781
  147OSM    H4S16227   1.926   1.888   2.526 -1.5457  2.6779 -1.1257
  147OSM    C5S16228   2.038   2.050   2.459  0.2292 -0.5098  1.0453
  147OSM    H5S16229   2.091   2.092   2.372  3.0060 -1.3541  2.2005
  147OSM    C6S16230   2.041   2.125   2.587 -0.4979  0.0533 -0.2891
  147OSM    H6S16231   1.969   2.080   2.659 -0.3147 -1.6284 -1.1048
  147OSM    H6T16232   2.000   2.227   2.573 -1.6067 -0.3861 -0.3655
  147OSM    C7S16233   2.183   2.125   2.650 -0.1159  0.3741 -0.0289
  147OSM    H7S16234   2.175   2.196   2.735  0.0434 -0.4880  0.7231
  147OSM    H7T16235   2.263   2.164   2.584  0.5408  0.1998  0.6549
  147OSM    C8S16236   2.223   1.994   2.708 -0.0334  0.0006  0.4457
  147OSM    H8S16237   2.241   1.914   2.633  0.0269 -0.0038  0.4644
  147OSM    H8T16238   2.132   1.962   2.763  0.1325  0.8704  1.2426
  147OSM    C9S16239   2.344   2.005   2.808  0.0930  0.0707  0.0783
  147OSM    H9S16240   2.441   2.035   2.762  0.4379  2.8213  2.3547
  147OSM    H9T16241   2.362   1.903   2.847  1.7494 -0.6294 -2.2852
  147OSM   C10S16242   2.312   2.079   2.943 -0.0038 -0.3131  0.6316
  147OSM   H10S16243   2.230   2.016   2.984  0.6099 -1.6915 -0.1871
  147OSM   H10T16244   2.254   2.171   2.919 -1.4736 -1.8136 -2.0535
  147OSM   C11S16245   2.434   2.096   3.035 -0.5553  1.1188  0.3208
  147OSM   H11S16246   2.529   2.122   2.984  1.5580 -2.0520  2.3036
  147OSM   H11T16247   2.462   1.998   3.080 -0.9982  0.7629 -0.1696
  147OSM   C12S16248   2.408   2.189   3.158  1.1082  0.7544 -0.1920
  147OSM   H12S16249   2.304   2.228   3.162  1.1776  1.1539 -1.5837
  147OSM   H12T16250   2.463   2.284   3.138 -1.6080  2.7176  0.9991
  147OSM   C13S16251   2.432   2.134   3.298  0.6527 -0.0775  0.4116
  147OSM   H13S16252   2.540   2.113   3.315  0.6794  0.1987  0.5907
  147OSM   H13T16253   2.378   2.038   3.308 -0.9719  1.0064  2.9320
  147OSM   C14S16254   2.381   2.229   3.404  0.7094 -0.4055 -0.5247
  147OSM   H14S16255   2.378   2.329   3.357  2.0594  0.3863  0.9480
  147OSM   H14T16256   2.459   2.223   3.484 -0.0674  1.7610  0.4780
  147OSM   C15S16257   2.242   2.201   3.473  0.1801  0.1889 -0.8045
  147OSM   H15S16258   2.220   2.092   3.467  1.8552 -0.1117 -2.9084
  147OSM   H15T16259   2.179   2.258   3.401  0.0784  0.0150 -0.8553
  147OSM   C16S16260   2.226   2.269   3.617  0.7803 -0.3135 -0.0170
  147OSM   H16S16261   2.116   2.276   3.632  0.8203 -1.1369  0.8003
  147OSM   H16T16262   2.258   2.375   3.614  1.3994 -0.4555  1.0642
  147OSM   C17S16263   2.290   2.196   3.737 -0.3885 -1.0810 -0.0435
  147OSM   H17S16264   2.399   2.213   3.735 -0.7177  1.2962 -0.4477
  147OSM   H17T16265   2.270   2.087   3.732 -0.6203 -0.9894 -2.6279
  147OSM   C18S16266   2.231   2.255   3.869 -0.9894  0.2477 -0.2938
  147OSM   H18S16267   2.291   2.235   3.960 -1.5813  1.0894  0.2975
  147OSM   H18T16268   2.124   2.231   3.887 -0.5990 -1.1290  0.3132
  147OSM   H18U16269   2.246   2.364   3.850 -1.7739  0.3268 -0.4772
  147OSM    C1F16270   2.251   1.624   2.522  0.1051 -0.6483 -1.0765
  147OSM     OF16271   2.351   1.620   2.455 -0.1168 -0.1711  0.3139
  147OSM    C2F16272   2.263   1.589   2.666  0.3490  1.0620 -0.0980
  147OSM    H2F16273   2.160   1.561   2.697  0.4924 -0.4397 -0.8807
  147OSM    H2G16274   2.285   1.683   2.722  0.7889 -0.2901  2.1670
  147OSM    C3F16275   2.357   1.471   2.698  0.5257  0.2158  0.4483
  147OSM    H3F16276   2.459   1.503   2.667 -0.3170  1.4219 -1.2197
  147OSM    H3G16277   2.325   1.378   2.646  1.5049 -0.1495  0.4898
  147OSM    C4F16278   2.357   1.441   2.848 -0.4836 -0.2508 -0.5298
  147OSM    H4F16279   2.419   1.350   2.865 -0.6877 -0.2524  0.2472
  147OSM    H4G16280   2.250   1.431   2.875 -0.3916  0.2218  0.0258
  147OSM    C5F16281   2.418   1.557   2.935  0.1424  0.3687  0.1422
  147OSM    H5F16282   2.346   1.641   2.922 -0.5441  0.2160  2.5072
  147OSM    H5G16283   2.524   1.580   2.910  0.6711 -2.1639 -0.2012
  147OSM    C6F16284   2.400   1.544   3.090  0.1480  0.2032 -0.3875
  147OSM    H6F16285   2.465   1.463   3.131  1.6480  0.3738 -2.2691
  147OSM    H6G16286   2.296   1.507   3.097  0.9216 -1.7950  2.0253
  147OSM    C7F16287   2.431   1.671   3.166 -0.2149 -0.2734 -0.1845
  147OSM    H7F16288   2.361   1.749   3.127  1.1747  0.6055 -1.0159
  147OSM    H7G16289   2.531   1.704   3.131 -0.4337 -0.7399 -1.3172
  147OSM    C8F16290   2.424   1.661   3.324 -0.5446 -0.0120 -0.0266
  147OSM    H8F16291   2.488   1.581   3.369 -1.1729  0.8454  2.6152
  147OSM    H8G16292   2.321   1.640   3.360 -0.2831 -1.1929  0.0837
  147OSM    C9F16293   2.472   1.791   3.383  0.3333 -0.1984 -0.1023
  147OSM    H9F16294   2.534   1.847   3.311 -2.6057  2.9207 -0.4760
  147OSM   C10F16295   2.436   1.846   3.497 -0.2054  0.2129 -0.1724
  147OSM   H10F16296   2.475   1.945   3.524  0.5647 -0.2684  0.5453
  147OSM   C11F16297   2.345   1.784   3.593 -1.1111 -1.0874 -0.3001
  147OSM   H11F16298   2.336   1.673   3.586  1.6355 -1.4287  0.2533
  147OSM   H11G16299   2.257   1.850   3.577 -0.8362 -0.7108 -0.2743
  147OSM   C12F16300   2.409   1.830   3.726  0.2677 -0.6627  0.1053
  147OSM   H12F16301   2.466   1.925   3.727  0.4441 -0.7624  1.7257
  147OSM   H12G16302   2.484   1.752   3.749 -1.5863 -2.4393  0.4971
  147OSM   C13F16303   2.313   1.824   3.840 -0.0130 -0.4444 -0.3874
  147OSM   H13F16304   2.263   1.725   3.838  1.2930 -1.1109 -1.2986
  147OSM   H13G16305   2.235   1.900   3.822 -0.1999  0.0084  1.9872
  147OSM   C14F16306   2.386   1.845   3.978  0.6382  0.3180 -0.1509
  147OSM   H14F16307   2.421   1.949   3.993 -0.2946  0.4696  1.1258
  147OSM   H14G16308   2.467   1.774   4.006 -0.4234 -0.5569  0.7923
  147OSM   C15F16309   2.290   1.823   4.103 -0.4069  0.2513  0.8963
  147OSM   H15F16310   2.252   1.719   4.099  2.4563 -0.8548 -0.4198
  147OSM   H15G16311   2.198   1.885   4.091 -1.9321 -1.9743  0.4941
  147OSM   C16F16312   2.357   1.843   4.237  0.0003  0.0559  0.1186
  147OSM   H16F16313   2.455   1.792   4.246  0.1307  0.1232 -0.7482
  147OSM   H16G16314   2.299   1.790   4.316  0.3566 -3.9132 -2.0167
  147OSM   C17F16315   2.379   1.996   4.270 -0.0425  0.4656  0.3436
  147OSM   H17F16316   2.444   2.046   4.195 -0.7990  0.2025 -0.4885
  147OSM   H17G16317   2.434   2.002   4.367  1.0518 -1.4221 -0.1042
  147OSM   C18F16318   2.248   2.078   4.287 -0.3391 -0.7835  0.0830
  147OSM   H18F16319   2.288   2.181   4.303  0.2932 -1.0290  0.0933
  147OSM   H18G16320   2.191   2.040   4.374  0.2009  0.2847  0.9388
  147OSM   H18H16321   2.186   2.084   4.195  0.2530  0.6716 -0.2412
  148OSM      N16322   6.310   2.600   2.111  0.7160  0.1876  0.2486
  148OSM    C1516323   6.190   2.557   2.034 -0.0596 -1.1913 -0.0385
  148OSM   H15A16324   6.229   2.507   1.946 -0.4212 -0.3412 -0.6987
  148OSM   H15B16325   6.125   2.641   2.013 -1.6048 -2.1979  0.5551
  148OSM   H15C16326   6.129   2.486   2.087 -1.2807 -0.7845 -0.8483
  148OSM    C1416327   6.385   2.688   2.020  0.6178 -0.5257  0.5838
  148OSM   H14A16328   6.411   2.626   1.936 -2.6067 -1.0747 -0.1383
  148OSM   H14B16329   6.468   2.734   2.072 -0.2181  1.8972 -0.1025
  148OSM   H14C16330   6.334   2.772   1.976  0.1550 -1.4008 -0.5903
  148OSM    C1316331   6.265   2.687   2.223  0.0581 -0.3954  0.0597
  148OSM   H13A16332   6.221   2.782   2.195 -0.5280 -0.5274  0.4994
  148OSM   H13B16333   6.351   2.712   2.283  0.2662 -1.6034  0.2931
  148OSM   H13C16334   6.195   2.643   2.293 -2.5687  1.4228 -1.2280
  148OSM    C1216335   6.397   2.485   2.165 -0.0782 -0.0809  0.4290
  148OSM   H12A16336   6.341   2.440   2.246 -1.0967  0.8588  0.2738
  148OSM   H12B16337   6.477   2.523   2.227 -1.8895  1.2788  2.0829
  148OSM    C1116338   6.446   2.365   2.079  0.2260  0.1958 -0.4068
  148OSM   H11A16339   6.357   2.315   2.033  0.5224  0.8519 -1.7755
  148OSM   H11B16340   6.493   2.286   2.141 -0.7702 -0.5272 -0.5463
  148OSM      P16341   6.680   2.469   1.995 -0.3679  0.0246  0.0515
  148OSM    O1316342   6.772   2.370   1.927 -0.0552 -0.0659  0.2492
  148OSM    O1416343   6.691   2.611   1.956  0.6074 -0.2351  0.2189
  148OSM    O1116344   6.708   2.451   2.150 -0.0193  0.1198 -0.7915
  148OSM    O1216345   6.533   2.424   1.980  0.2123  0.5074  0.1123
  148OSM    C1S16346   6.718   2.561   2.244  1.0007  0.6648  0.0895
  148OSM    H1S16347   6.617   2.607   2.253  0.0763 -1.6637  3.0213
  148OSM    H1T16348   6.800   2.631   2.216 -1.2901  3.2815 -0.4886
  148OSM     NF16349   6.744   2.643   2.476  0.2243  0.9550 -0.6241
  148OSM    HNF16350   6.827   2.693   2.499 -1.3986  2.6454  2.0825
  148OSM    C2S16351   6.760   2.521   2.393 -0.1072 -0.2193 -0.3096
  148OSM    H2S16352   6.683   2.446   2.423 -1.2713  0.7032 -0.9304
  148OSM    C3S16353   6.903   2.460   2.408 -0.4447 -0.3070 -0.6553
  148OSM    H3S16354   6.989   2.529   2.395  0.0444 -0.8782 -0.5465
  148OSM     O316355   6.934   2.363   2.306 -0.2222 -0.2177 -0.1269
  148OSM    HO316356   6.857   2.357   2.250 -2.0838  1.5961  2.0615
  148OSM    C4S16357   6.914   2.406   2.543 -0.2519  0.0555 -0.0963
  148OSM    H4S16358   6.939   2.488   2.612  0.4608  2.0771 -2.6125
  148OSM    C5S16359   6.910   2.285   2.587 -1.1623 -0.0394  0.2774
  148OSM    H5S16360   6.901   2.206   2.511 -0.3988  0.7737 -0.6842
  148OSM    C6S16361   6.929   2.223   2.725 -0.1418 -0.6667  0.3902
  148OSM    H6S16362   7.027   2.172   2.718  0.0995 -0.0706 -0.8492
  148OSM    H6T16363   6.836   2.166   2.745  0.0098 -1.4303 -0.9522
  148OSM    C7S16364   6.932   2.327   2.842 -0.5495 -0.1511 -0.2789
  148OSM    H7S16365   6.840   2.389   2.836 -0.8101 -0.6715 -2.5890
  148OSM    H7T16366   7.011   2.405   2.837 -0.0242 -0.6692 -0.1826
  148OSM    C8S16367   6.956   2.259   2.981  0.6751  0.8589  0.0125
  148OSM    H8S16368   6.868   2.201   3.016 -0.7785  1.1839 -2.8287
  148OSM    H8T16369   6.959   2.345   3.052 -0.8813 -0.3278  1.6356
  148OSM    C9S16370   7.082   2.181   2.983 -0.8744  0.0921 -0.2099
  148OSM    H9S16371   7.150   2.234   2.913  0.8436 -0.7992  0.7186
  148OSM    H9T16372   7.073   2.076   2.949 -3.1713  0.2884 -0.3789
  148OSM   C10S16373   7.153   2.168   3.113 -0.3527  0.2838  0.3341
  148OSM   H10S16374   7.074   2.118   3.174  1.3942 -2.1411  0.7819
  148OSM   H10T16375   7.175   2.273   3.142 -3.0807  0.8293  0.6792
  148OSM   C11S16376   7.273   2.079   3.101 -0.3589  0.6551  0.0987
  148OSM   H11S16377   7.331   2.136   3.025  0.6668  0.0645  0.4179
  148OSM   H11T16378   7.246   1.977   3.064 -2.3274  1.3312 -0.4255
  148OSM   C12S16379   7.355   2.076   3.229 -0.2367  1.0963 -0.5017
  148OSM   H12S16380   7.298   2.025   3.310 -0.2631 -0.1281 -1.2720
  148OSM   H12T16381   7.390   2.175   3.266  0.7008  0.5141  0.2321
  148OSM   C13S16382   7.489   1.999   3.197 -0.3767  0.3426 -0.2673
  148OSM   H13S16383   7.526   2.051   3.106  2.0389 -0.0704  0.4155
  148OSM   H13T16384   7.470   1.892   3.174  0.5389  0.2602 -0.7062
  148OSM   C14S16385   7.599   2.019   3.306 -0.4470  0.3565 -0.1318
  148OSM   H14S16386   7.690   1.979   3.257 -0.1939  0.7866 -0.0126
  148OSM   H14T16387   7.574   1.942   3.382 -2.2232 -0.5184 -1.5102
  148OSM   C15S16388   7.636   2.160   3.358 -0.0038 -0.2701 -0.5772
  148OSM   H15S16389   7.557   2.195   3.428  0.0448 -1.9016  0.3539
  148OSM   H15T16390   7.634   2.224   3.267  1.1099 -0.9739 -1.1266
  148OSM   C16S16391   7.775   2.159   3.430 -0.5181 -0.2286  0.5045
  148OSM   H16S16392   7.820   2.260   3.434  2.8028 -1.5280 -0.4343
  148OSM   H16T16393   7.836   2.089   3.369 -0.0158  0.9691 -0.4082
  148OSM   C17S16394   7.747   2.098   3.574  0.4226 -0.0709 -0.0073
  148OSM   H17S16395   7.706   1.996   3.554  2.0538 -0.5728 -1.0460
  148OSM   H17T16396   7.675   2.165   3.625  0.3852 -0.3642  0.3268
  148OSM   C18S16397   7.875   2.088   3.656 -0.2481 -0.1553  0.1124
  148OSM   H18S16398   7.907   2.190   3.685  0.8206  0.0476 -1.5982
  148OSM   H18T16399   7.951   2.049   3.585 -0.0534  2.3533 -1.1732
  148OSM   H18U16400   7.863   2.029   3.749 -2.7339 -0.0456 -0.0612
  148OSM    C1F16401   6.623   2.692   2.507  0.8714 -0.6435 -0.4934
  148OSM     OF16402   6.525   2.633   2.456 -0.4571  0.0330  0.9893
  148OSM    C2F16403   6.605   2.814   2.597 -0.7841 -0.1652  0.5235
  148OSM    H2F16404   6.530   2.873   2.541 -0.0810  1.5431  1.3225
  148OSM    H2G16405   6.700   2.870   2.611 -2.3650  2.6057  0.6656
  148OSM    C3F16406   6.542   2.779   2.733  0.1199  0.6062 -0.4015
  148OSM    H3F16407   6.606   2.719   2.802  1.4520  0.8358 -1.3973
  148OSM    H3G16408   6.439   2.739   2.729 -0.0104  0.8662  0.2416
  148OSM    C4F16409   6.514   2.903   2.816 -0.9012 -0.2276 -0.0350
  148OSM    H4F16410   6.444   2.971   2.764 -2.6545 -1.2838  0.8486
  148OSM    H4G16411   6.611   2.956   2.824 -2.0662  2.3749 -1.8621
  148OSM    C5F16412   6.453   2.887   2.962 -0.4167  0.4082  0.2998
  148OSM    H5F16413   6.347   2.853   2.969 -0.2500  0.0415  1.1709
  148OSM    H5G16414   6.463   2.990   3.004  2.5484  0.2130  0.2547
  148OSM    C6F16415   6.536   2.793   3.053  0.5956 -0.5197 -0.6932
  148OSM    H6F16416   6.642   2.823   3.044  0.5507 -0.2482 -0.3604
  148OSM    H6G16417   6.524   2.692   3.007  0.3466 -0.0413 -1.7066
  148OSM    C7F16418   6.501   2.782   3.205  0.3342  0.5793 -0.3429
  148OSM    H7F16419   6.527   2.875   3.260 -1.1930 -0.1061  1.6753
  148OSM    H7G16420   6.569   2.703   3.244 -0.1173 -0.0176 -0.7354
  148OSM    C8F16421   6.361   2.728   3.242 -0.2891 -0.4785  0.2781
  148OSM    H8F16422   6.341   2.654   3.161  1.0767  1.1605 -1.6730
  148OSM    H8G16423   6.297   2.816   3.223  0.0961 -0.3120 -0.2874
  148OSM    C9F16424   6.351   2.685   3.384  0.1426  0.0227 -0.3818
  148OSM    H9F16425   6.334   2.577   3.395  0.5541 -0.2786 -2.3565
  148OSM   C10F16426   6.344   2.763   3.492 -0.0337 -0.6401  0.5268
  148OSM   H10F16427   6.335   2.713   3.590 -2.7093 -0.9126  0.1931
  148OSM   C11F16428   6.357   2.923   3.498  0.1492 -0.2631  0.4062
  148OSM   H11F16429   6.277   2.977   3.444  1.5143  1.6469  0.2034
  148OSM   H11G16430   6.449   2.970   3.457 -1.2285  1.5115 -0.7759
  148OSM   C12F16431   6.348   2.967   3.645  0.0200  0.1532  0.7023
  148OSM   H12F16432   6.275   2.909   3.705  2.4250 -0.6697  3.0272
  148OSM   H12G16433   6.313   3.072   3.638  1.2964  0.4872 -1.5671
  148OSM   C13F16434   6.479   2.983   3.729  0.7081 -0.1977  0.4488
  148OSM   H13F16435   6.436   3.030   3.820 -2.6423 -0.7526 -0.7223
  148OSM   H13G16436   6.551   3.052   3.681 -0.4996  0.2061 -0.8442
  148OSM   C14F16437   6.544   2.852   3.770  0.1418  0.4452  0.2916
  148OSM   H14F16438   6.585   2.807   3.677 -1.0496 -0.3378  0.1244
  148OSM   H14G16439   6.459   2.786   3.799 -0.0615  1.1394  1.3102
  148OSM   C15F16440   6.644   2.860   3.879 -0.8064 -0.2719 -0.8090
  148OSM   H15F16441   6.728   2.926   3.851  0.6897 -2.1402 -0.9293
  148OSM   H15G16442   6.688   2.759   3.888 -0.2769  0.0538  0.4775
  148OSM   C16F16443   6.590   2.886   4.022 -0.2232 -0.0427 -0.2058
  148OSM   H16F16444   6.496   2.828   4.036 -1.7266  2.6295  1.5530
  148OSM   H16G16445   6.562   2.992   4.037  1.6063  0.4528  0.0008
  148OSM   C17F16446   6.691   2.848   4.132  0.2706  0.2612 -0.2914
  148OSM   H17F16447   6.773   2.924   4.133  1.1520 -0.5769 -2.8548
  148OSM   H17G16448   6.724   2.748   4.098  0.1920 -0.0943  0.6503
  148OSM   C18F16449   6.626   2.825   4.267 -0.3163 -0.0341  0.2272
  148OSM   H18F16450   6.686   2.754   4.328 -2.6623 -1.3688  1.0925
  148OSM   H18G16451   6.520   2.793   4.260 -0.7084  1.2653 -0.0435
  148OSM   H18H16452   6.632   2.918   4.328 -1.1003 -0.9047  1.6956
  149OSM      N16453   3.688   3.553   2.230  0.1096 -0.5109  0.1848
  149OSM    C1516454   3.541   3.584   2.203 -0.1192 -0.3331 -0.2306
  149OSM   H15A16455   3.542   3.687   2.173  1.2068  0.0300  0.9203
  149OSM   H15B16456   3.477   3.576   2.290 -1.4339  0.0464 -1.1455
  149OSM   H15C16457   3.487   3.519   2.135  0.1397 -0.6591 -0.1310
  149OSM    C1416458   3.756   3.566   2.096  0.1625 -0.0138  0.5196
  149OSM   H14A16459   3.732   3.497   2.017  2.1796 -0.1370 -0.0426
  149OSM   H14B16460   3.862   3.552   2.111 -0.1688 -1.5024  1.6479
  149OSM   H14C16461   3.742   3.663   2.049  1.3686 -1.2318 -2.6320
  149OSM    C1316462   3.736   3.646   2.336  0.2934 -0.0701  0.2597
  149OSM   H13A16463   3.711   3.749   2.315  1.9556 -0.0768 -2.1773
  149OSM   H13B16464   3.844   3.643   2.348  0.3271 -0.6494 -0.1767
  149OSM   H13C16465   3.685   3.623   2.428 -1.0697  1.4038 -0.0777
  149OSM    C1216466   3.688   3.409   2.288  0.4455 -0.7618 -0.8401
  149OSM   H12A16467   3.666   3.343   2.206 -0.0591 -0.4353 -0.9757
  149OSM   H12B16468   3.609   3.399   2.361  2.2237  0.1472  1.3475
  149OSM    C1116469   3.819   3.352   2.357 -0.2280  0.0202 -0.3466
  149OSM   H11A16470   3.797   3.251   2.397  2.0075  0.4154  2.1710
  149OSM   H11B16471   3.846   3.410   2.448  1.9297  0.7677 -1.3828
  149OSM      P16472   3.965   3.224   2.182 -0.0381 -0.1771  0.3031
  149OSM    O1316473   3.844   3.151   2.135 -0.7084  0.1011 -0.0062
  149OSM    O1416474   4.046   3.268   2.068  0.5626 -0.6151 -0.3102
  149OSM    O1116475   4.051   3.125   2.270 -0.2270  0.0189 -0.1149
  149OSM    O1216476   3.929   3.357   2.264  0.5348 -0.4895 -0.4731
  149OSM    C1S16477   4.118   3.173   2.392  0.3309  0.3950  0.5209
  149OSM    H1S16478   4.146   3.280   2.379 -0.8642  0.5546 -0.9785
  149OSM    H1T16479   4.209   3.110   2.399  0.0733 -0.4621 -2.5007
  149OSM     NF16480   4.111   3.201   2.639 -0.3502 -0.0129 -0.7869
  149OSM    HNF16481   4.158   3.136   2.697 -1.8410  0.6942  1.3307
  149OSM    C2S16482   4.039   3.152   2.526 -0.3941  0.0610 -0.1580
  149OSM    H2S16483   3.945   3.209   2.510 -0.5724 -0.6654 -1.8276
  149OSM    C3S16484   3.986   3.002   2.530 -0.0265 -0.1588  0.2090
  149OSM    H3S16485   4.080   2.943   2.529 -0.0695 -0.2212 -0.6709
  149OSM     O316486   3.942   2.943   2.405  0.1724 -0.2257  0.0240
  149OSM    HO316487   3.969   3.015   2.347  2.7481  1.9564  3.4942
  149OSM    C4S16488   3.906   2.973   2.654 -0.1377 -0.3019  0.6352
  149OSM    H4S16489   3.967   2.958   2.744 -0.8257 -3.3664  0.6979
  149OSM    C5S16490   3.772   2.988   2.665  0.4806  0.3962  0.6396
  149OSM    H5S16491   3.723   3.024   2.574  0.0262  2.4750  1.6398
  149OSM    C6S16492   3.695   2.986   2.796  0.5529 -0.6129  0.2895
  149OSM    H6S16493   3.595   2.944   2.773 -0.8977  1.3511  2.5464
  149OSM    H6T16494   3.685   3.093   2.825 -1.8606 -0.5426 -0.5280
  149OSM    C7S16495   3.765   2.904   2.912 -0.3868  0.0875  0.5542
  149OSM    H7S16496   3.846   2.971   2.950 -0.2587 -0.1447  0.6884
  149OSM    H7T16497   3.788   2.806   2.866 -1.1314  0.3464 -0.3956
  149OSM    C8S16498   3.670   2.883   3.031  0.7158  0.1729  0.1513
  149OSM    H8S16499   3.590   2.811   3.003  0.0886 -0.2660  2.7899
  149OSM    H8T16500   3.621   2.980   3.055 -0.0668 -0.1838  0.0064
  149OSM    C9S16501   3.728   2.817   3.149 -0.1715  0.4016 -0.3271
  149OSM    H9S16502   3.796   2.887   3.202 -0.1228  1.5091 -1.8027
  149OSM    H9T16503   3.787   2.727   3.122 -0.9121 -0.2728  0.2490
  149OSM   C10S16504   3.626   2.785   3.261  0.4024 -0.3826 -0.0461
  149OSM   H10S16505   3.554   2.707   3.229  0.8801  0.1039 -2.4962
  149OSM   H10T16506   3.565   2.877   3.273 -0.7258 -0.8572 -1.8448
  149OSM   C11S16507   3.695   2.734   3.388  0.0340 -0.3132  0.2182
  149OSM   H11S16508   3.774   2.807   3.419  0.2430  0.0476 -1.1326
  149OSM   H11T16509   3.739   2.633   3.376  2.8835  0.5258  2.3197
  149OSM   C12S16510   3.600   2.731   3.509 -0.1601  0.0458 -1.1050
  149OSM   H12S16511   3.517   2.660   3.490 -0.1371 -0.2035 -0.3141
  149OSM   H12T16512   3.553   2.832   3.504 -1.8375 -0.5778  0.5468
  149OSM   C13S16513   3.670   2.704   3.640  0.6778  0.0859 -0.2463
  149OSM   H13S16514   3.742   2.787   3.661  0.6424 -0.7560  3.9128
  149OSM   H13T16515   3.712   2.602   3.636 -0.4724 -0.6061  2.8848
  149OSM   C14S16516   3.565   2.703   3.755 -0.4144  0.0200  0.0872
  149OSM   H14S16517   3.502   2.614   3.735 -1.6070  0.7598  0.4505
  149OSM   H14T16518   3.497   2.791   3.750 -1.4811 -0.6851  1.6313
  149OSM   C15S16519   3.625   2.685   3.896 -0.1761  0.3401 -0.1747
  149OSM   H15S16520   3.686   2.775   3.916 -2.2977  2.2131 -1.6967
  149OSM   H15T16521   3.688   2.594   3.905 -2.0940 -1.1280 -0.8308
  149OSM   C16S16522   3.522   2.679   4.005 -0.1199  0.0366 -0.0148
  149OSM   H16S16523   3.578   2.703   4.098 -0.3524  1.2056 -0.1643
  149OSM   H16T16524   3.486   2.576   4.023 -1.0190  0.5795  1.4637
  149OSM   C17S16525   3.415   2.790   3.991  0.5243  0.1351 -0.8520
  149OSM   H17S16526   3.325   2.743   3.946  2.6083 -4.9667 -0.3253
  149OSM   H17T16527   3.448   2.882   3.937  0.9731  1.8663  2.1724
  149OSM   C18S16528   3.357   2.833   4.130 -0.0095 -0.2727  0.4103
  149OSM   H18S16529   3.436   2.887   4.187  1.4748 -0.6752 -1.1891
  149OSM   H18T16530   3.320   2.744   4.184 -1.5474  0.2147  0.2129
  149OSM   H18U16531   3.278   2.909   4.110  0.6896 -0.0614 -1.8857
  149OSM    C1F16532   4.146   3.328   2.656  0.9207 -0.1540  0.6277
  149OSM     OF16533   4.076   3.419   2.624 -0.0237  0.2233  0.3693
  149OSM    C2F16534   4.258   3.356   2.744 -0.2347  0.5677  0.0725
  149OSM    H2F16535   4.359   3.357   2.699 -0.4897  2.3110 -0.5214
  149OSM    H2G16536   4.275   3.274   2.818  2.4219  0.4617 -0.5658
  149OSM    C3F16537   4.267   3.486   2.832  0.6529 -0.0046  0.3569
  149OSM    H3F16538   4.259   3.572   2.762 -0.5008 -0.4729 -0.1300
  149OSM    H3G16539   4.366   3.495   2.881  0.0778  1.5685  1.3067
  149OSM    C4F16540   4.164   3.477   2.948 -0.7557  0.4229  0.5873
  149OSM    H4F16541   4.191   3.390   3.013 -0.2360  0.6520  0.6876
  149OSM    H4G16542   4.069   3.436   2.907 -0.7278 -0.3265  1.2411
  149OSM    C5F16543   4.147   3.594   3.037 -0.0677  0.4285  0.7367
  149OSM    H5F16544   4.122   3.688   2.984 -1.3383 -0.1622  0.2551
  149OSM    H5G16545   4.245   3.602   3.089 -0.0193 -2.2287  1.2262
  149OSM    C6F16546   4.030   3.572   3.138 -0.2030 -0.0788  0.2617
  149OSM    H6F16547   4.051   3.478   3.195  1.6287 -0.0876 -0.3647
  149OSM    H6G16548   3.936   3.555   3.083 -1.7170 -2.7847  3.3629
  149OSM    C7F16549   4.017   3.686   3.240  0.2586 -0.6026 -0.2519
  149OSM    H7F16550   3.977   3.774   3.184 -0.7904 -0.4364  0.7277
  149OSM    H7G16551   4.123   3.701   3.267  0.0814  1.0329 -0.3272
  149OSM    C8F16552   3.927   3.649   3.359 -0.5080 -0.0623  0.4743
  149OSM    H8F16553   3.978   3.563   3.407 -0.3092 -1.0159 -1.3586
  149OSM    H8G16554   3.834   3.601   3.323  0.4341 -1.7922  0.2376
  149OSM    C9F16555   3.900   3.775   3.446  0.0113 -0.0524  0.2851
  149OSM    H9F16556   3.895   3.871   3.391  0.5200 -0.1100  0.1314
  149OSM   C10F16557   3.906   3.773   3.581  0.7076 -0.1259 -0.4630
  149OSM   H10F16558   3.883   3.871   3.626  0.3523 -0.3189 -0.2258
  149OSM   C11F16559   3.911   3.666   3.687  0.4386  0.6942 -0.3289
  149OSM   H11F16560   3.956   3.707   3.780  1.0467 -1.8003  0.5513
  149OSM   H11G16561   3.981   3.591   3.646  0.8291  0.1135  1.3362
  149OSM   C12F16562   3.767   3.609   3.713  0.4611 -0.5100  0.4459
  149OSM   H12F16563   3.743   3.543   3.627 -0.8176 -0.4128  0.7105
  149OSM   H12G16564   3.687   3.686   3.721 -0.3770 -1.3499  0.4272
  149OSM   C13F16565   3.770   3.525   3.840 -0.3244  0.4007 -0.2111
  149OSM   H13F16566   3.874   3.489   3.857  0.4522  3.1176  1.4653
  149OSM   H13G16567   3.717   3.429   3.821  0.5881  0.0037 -0.8385
  149OSM   C14F16568   3.716   3.593   3.965  0.8726 -0.1449 -0.0735
  149OSM   H14F16569   3.744   3.701   3.962  0.9549 -0.1498  0.4653
  149OSM   H14G16570   3.747   3.557   4.065 -0.4178 -0.4861  0.2170
  149OSM   C15F16571   3.557   3.578   3.969  0.5075 -0.5378  0.3426
  149OSM   H15F16572   3.530   3.471   3.979 -0.0991 -0.4279 -0.0562
  149OSM   H15G16573   3.515   3.626   3.878  4.5039  1.1331 -0.8839
  149OSM   C16F16574   3.501   3.661   4.087  0.0987 -0.1078  0.0198
  149OSM   H16F16575   3.487   3.765   4.052 -2.1861  0.1632  1.6084
  149OSM   H16G16576   3.568   3.654   4.175  0.0514 -2.5727 -0.0531
  149OSM   C17F16577   3.372   3.608   4.151 -0.0571 -0.0651  0.0302
  149OSM   H17F16578   3.352   3.658   4.248  0.8342  0.6211 -0.1293
  149OSM   H17G16579   3.385   3.500   4.171  2.7889 -0.1041 -1.5251
  149OSM   C18F16580   3.243   3.634   4.071  0.5824 -0.3334 -0.6981
  149OSM   H18F16581   3.216   3.742   4.060 -2.2774 -0.9522 -0.4622
  149OSM   H18G16582   3.158   3.585   4.123  0.9468  0.3457  0.5793
  149OSM   H18H16583   3.242   3.593   3.968  0.4495  0.1681 -0.8992
  150OSM      N16584   6.654   3.385   2.226  0.1555 -0.3124  0.1858
  150OSM    C1516585   6.670   3.250   2.290  0.3862 -0.6714  0.1675
  150OSM   H15A16586   6.685   3.173   2.216  0.4381  0.1173 -0.6752
  150OSM   H15B16587   6.586   3.223   2.352 -0.3090  1.1653  0.0837
  150OSM   H15C16588   6.762   3.245   2.347 -1.0163 -1.4925  2.4831
  150OSM    C1416589   6.551   3.374   2.121  0.8592  0.3024  0.1894
  150OSM   H14A16590   6.452   3.359   2.160  1.1446  0.4196  0.9714
  150OSM   H14B16591   6.570   3.298   2.047  0.9071  0.1464  0.3609
  150OSM   H14C16592   6.546   3.469   2.069 -0.0958  0.5553  0.7183
  150OSM    C1316593   6.610   3.485   2.330  0.7856  0.2490  0.0561
  150OSM   H13A16594   6.505   3.481   2.355  1.1565  2.7656  2.5376
  150OSM   H13B16595   6.620   3.590   2.304 -2.0202  0.2043 -1.5666
  150OSM   H13C16596   6.659   3.467   2.424 -0.5419 -0.0043  0.7204
  150OSM    C1216597   6.790   3.417   2.152 -0.2072 -0.4806  0.0326
  150OSM   H12A16598   6.761   3.505   2.096  0.5394 -0.3708 -0.1846
  150OSM   H12B16599   6.814   3.338   2.083 -0.1710 -0.1953 -0.2849
  150OSM    C1116600   6.918   3.454   2.244  0.2367 -0.7515 -0.2033
  150OSM   H11A16601   6.888   3.534   2.314  2.2920  1.0649 -1.2819
  150OSM   H11B16602   7.000   3.496   2.182  0.0608  0.7674  0.5524
  150OSM      P16603   7.032   3.228   2.238 -0.1781  0.1068  0.1719
  150OSM    O1316604   6.975   3.098   2.293 -0.4712 -0.0092 -0.1019
  150OSM    O1416605   7.024   3.247   2.092  0.0551 -0.4326  0.1983
  150OSM    O1116606   7.178   3.233   2.284  0.4479 -0.1666 -0.5543
  150OSM    O1216607   6.956   3.340   2.316  0.3521 -0.0459 -0.4506
  150OSM    C1S16608   7.223   3.276   2.414  0.3949 -0.2970  0.5904
  150OSM    H1S16609   7.148   3.344   2.459 -0.0379 -0.5723  0.2917
  150OSM    H1T16610   7.310   3.342   2.393  0.3161  0.0808  1.4035
  150OSM     NF16611   7.293   3.201   2.646 -0.4174  0.2439  0.0056
  150OSM    HNF16612   7.385   3.199   2.684  0.0423 -0.9847 -1.1162
  150OSM    C2S16613   7.277   3.161   2.507  0.0602  0.5709  0.0274
  150OSM    H2S16614   7.209   3.074   2.497 -0.6038  0.9514  1.1157
  150OSM    C3S16615   7.416   3.107   2.443 -0.0259  0.3758 -0.0633
  150OSM    H3S16616   7.488   3.191   2.439 -1.7949  1.9394 -3.5631
  150OSM     O316617   7.405   3.065   2.309  0.2160  0.4553  0.5403
  150OSM    HO316618   7.312   3.079   2.287  0.6094  1.9734 -0.2479
  150OSM    C4S16619   7.470   2.997   2.528 -0.7923 -0.4357  0.2831
  150OSM    H4S16620   7.405   2.911   2.552 -1.7351  0.0932 -0.3253
  150OSM    C5S16621   7.594   3.001   2.580 -1.0024 -0.1580  0.5458
  150OSM    H5S16622   7.660   3.087   2.560 -2.0515  0.6460  0.5108
  150OSM    C6S16623   7.643   2.888   2.670 -0.3388 -0.3048 -0.2155
  150OSM    H6S16624   7.732   2.839   2.626  0.1494  0.1748  0.2225
  150OSM    H6T16625   7.564   2.810   2.680  0.2263 -0.8742 -0.1500
  150OSM    C7S16626   7.671   2.939   2.812 -0.1053 -0.5353 -0.5017
  150OSM    H7S16627   7.740   3.025   2.809  0.0738 -0.6572 -0.0143
  150OSM    H7T16628   7.728   2.858   2.863  1.2353  0.7666  0.1284
  150OSM    C8S16629   7.550   2.976   2.896  0.3517  0.2915  0.2631
  150OSM    H8S16630   7.488   2.887   2.919  2.4419 -0.4975  3.3913
  150OSM    H8T16631   7.492   3.055   2.843 -0.1636 -1.0744 -1.3010
  150OSM    C9S16632   7.612   3.040   3.028 -0.1971  0.0923  0.5656
  150OSM    H9S16633   7.665   3.134   3.000 -2.3930  1.6124  1.2257
  150OSM    H9T16634   7.681   2.960   3.064 -0.0806 -0.9700 -1.7994
  150OSM   C10S16635   7.510   3.082   3.138 -0.1358  0.6054  0.0639
  150OSM   H10S16636   7.419   3.018   3.136 -0.4566  0.9768 -3.7024
  150OSM   H10T16637   7.467   3.182   3.116 -0.7979  0.0830 -1.0920
  150OSM   C11S16638   7.568   3.081   3.282  0.0398  0.3838 -0.0469
  150OSM   H11S16639   7.654   3.152   3.282  0.1454  0.2574  0.2861
  150OSM   H11T16640   7.596   2.979   3.314  0.1668  0.1766 -0.7999
  150OSM   C12S16641   7.457   3.130   3.382 -0.2312 -0.5328 -0.5549
  150OSM   H12S16642   7.386   3.045   3.391 -2.1700  1.0762  0.0882
  150OSM   H12T16643   7.403   3.215   3.335  2.3990  0.9373 -1.0967
  150OSM   C13S16644   7.505   3.175   3.520  0.1076 -0.3354  0.3464
  150OSM   H13S16645   7.414   3.207   3.574  0.2736 -0.5401  0.7487
  150OSM   H13T16646   7.561   3.270   3.505  0.8753 -1.0433 -1.7263
  150OSM   C14S16647   7.586   3.061   3.583  0.4475  0.5872  0.2692
  150OSM   H14S16648   7.670   3.034   3.515 -1.2769 -3.5327 -0.5676
  150OSM   H14T16649   7.516   2.976   3.599  0.3746  0.3755 -1.0373
  150OSM   C15S16650   7.650   3.107   3.715 -0.5840  0.1302  0.5597
  150OSM   H15S16651   7.569   3.156   3.772 -0.6247  4.1335 -2.4893
  150OSM   H15T16652   7.725   3.188   3.697 -0.5318  0.2813  1.4148
  150OSM   C16S16653   7.716   2.993   3.786  0.3169 -0.7634 -0.5908
  150OSM   H16S16654   7.802   2.959   3.725 -0.9267 -1.4287 -2.0291
  150OSM   H16T16655   7.644   2.908   3.788 -1.5668  0.7547 -0.5364
  150OSM   C17S16656   7.759   3.009   3.935 -0.8678  0.4304 -0.4756
  150OSM   H17S16657   7.670   3.036   3.995 -0.5796  0.2843  0.0179
  150OSM   H17T16658   7.827   3.097   3.936  0.8846 -0.8597  1.5891
  150OSM   C18S16659   7.824   2.891   4.000 -0.3314 -0.5191  0.4193
  150OSM   H18S16660   7.751   2.852   4.074 -1.4014 -2.0870 -1.3861
  150OSM   H18T16661   7.928   2.905   4.039  0.0994 -0.7898 -0.6020
  150OSM   H18U16662   7.825   2.809   3.926  0.3975  0.6228 -0.8860
  150OSM    C1F16663   7.192   3.239   2.722 -0.3742 -0.3529  0.2490
  150OSM     OF16664   7.075   3.226   2.689  0.0639 -1.0260 -0.0123
  150OSM    C2F16665   7.232   3.293   2.855 -0.2866  0.7703 -0.0394
  150OSM    H2F16666   7.329   3.346   2.843 -0.2667  0.3928 -1.8235
  150OSM    H2G16667   7.237   3.208   2.926  0.0360 -0.0398 -1.0176
  150OSM    C3F16668   7.125   3.385   2.917  0.2495  0.2816  0.1849
  150OSM    H3F16669   7.021   3.346   2.911 -0.7458  2.7854 -0.2164
  150OSM    H3G16670   7.134   3.468   2.844  0.2947  0.2730  0.1804
  150OSM    C4F16671   7.158   3.438   3.054 -0.0635 -0.0839 -0.3679
  150OSM    H4F16672   7.074   3.510   3.065 -0.6372 -0.7676 -0.2840
  150OSM    H4G16673   7.251   3.499   3.063  0.6936 -1.4467  1.7017
  150OSM    C5F16674   7.138   3.337   3.172 -0.3972 -0.3185  0.0582
  150OSM    H5F16675   7.221   3.264   3.179  0.4041  0.7032  1.8338
  150OSM    H5G16676   7.051   3.273   3.146  0.0188 -0.7034 -0.4050
  150OSM    C6F16677   7.131   3.393   3.308 -0.1044 -0.3780 -0.4933
  150OSM    H6F16678   7.040   3.456   3.313 -0.2589 -0.6763  1.0335
  150OSM    H6G16679   7.223   3.454   3.320 -0.8458  1.8784 -4.4818
  150OSM    C7F16680   7.108   3.274   3.409 -0.8503  0.1638  0.5309
  150OSM    H7F16681   7.185   3.197   3.388  0.5758  1.8110 -0.6456
  150OSM    H7G16682   7.003   3.242   3.393 -0.1436 -1.6565 -0.7750
  150OSM    C8F16683   7.114   3.331   3.552 -0.4655  0.2632 -0.0431
  150OSM    H8F16684   7.215   3.371   3.572 -0.3526  0.2312 -0.5314
  150OSM    H8G16685   7.098   3.248   3.625 -1.6944 -0.6352 -1.2742
  150OSM    C9F16686   7.018   3.446   3.582  0.4212  0.2297  0.1352
  150OSM    H9F16687   7.053   3.544   3.546 -0.5413  0.8316  0.7726
  150OSM   C10F16688   6.902   3.440   3.657  0.3182  0.1191  0.7856
  150OSM   H10F16689   6.850   3.537   3.654  1.4002  0.6993 -0.9388
  150OSM   C11F16690   6.831   3.320   3.712  0.3311  0.5949 -0.5275
  150OSM   H11F16691   6.880   3.221   3.702 -0.1815  0.4349 -1.5404
  150OSM   H11G16692   6.732   3.305   3.664  0.3286  0.0306 -0.3536
  150OSM   C12F16693   6.799   3.348   3.859 -0.4952 -0.1637 -0.0521
  150OSM   H12F16694   6.737   3.440   3.854 -0.1301  0.1200  0.5414
  150OSM   H12G16695   6.884   3.354   3.930  0.4361 -0.9897 -1.0678
  150OSM   C13F16696   6.700   3.246   3.915 -0.1429  0.1733 -0.1086
  150OSM   H13F16697   6.755   3.157   3.953 -1.0925 -1.3342 -2.0453
  150OSM   H13G16698   6.630   3.197   3.844  3.0893  0.1997 -3.6411
  150OSM   C14F16699   6.625   3.301   4.039  0.4405 -0.3054 -0.0967
  150OSM   H14F16700   6.557   3.217   4.066 -2.3747  1.7644 -0.2553
  150OSM   H14G16701   6.553   3.379   4.006  0.7164 -0.1099 -0.2375
  150OSM   C15F16702   6.717   3.340   4.156 -0.2509  0.4608  0.2754
  150OSM   H15F16703   6.771   3.431   4.125 -0.9240  0.6087 -0.5172
  150OSM   H15G16704   6.790   3.256   4.164 -1.3963 -0.4946  1.1162
  150OSM   C16F16705   6.635   3.364   4.282  0.7786  0.3389 -0.0760
  150OSM   H16F16706   6.593   3.266   4.316 -1.5264  1.5755  0.8892
  150OSM   H16G16707   6.544   3.416   4.245 -0.0716  0.3041  1.8344
  150OSM   C17F16708   6.701   3.427   4.402  0.1863 -0.7322  0.5728
  150OSM   H17F16709   6.800   3.456   4.361 -0.2027 -1.1504 -0.7131
  150OSM   H17G16710   6.710   3.343   4.475  1.1084  0.9784  2.5120
  150OSM   C18F16711   6.622   3.552   4.447  0.0435 -0.4663  0.3070
  150OSM   H18F16712   6.526   3.526   4.496 -2.3337  2.9475 -2.0120
  150OSM   H18G16713   6.607   3.613   4.355  0.8540  0.8805  1.0427
  150OSM   H18H16714   6.683   3.616   4.514 -0.8793 -0.1689  0.8886
  151OSM      N16715   4.005   1.355   2.262 -0.2135 -0.3884 -0.5969
  151OSM    C1516716   4.062   1.474   2.193  0.5836  0.4245 -0.5624
  151OSM   H15A16717   3.984   1.505   2.124 -0.3457  1.5079  0.9332
  151OSM   H15B16718   4.138   1.434   2.128 -0.4860 -3.0543  0.0999
  151OSM   H15C16719   4.085   1.555   2.260 -0.3883  0.4066 -0.1929
  151OSM    C1416720   3.972   1.255   2.166  0.3589 -0.1525  0.1966
  151OSM   H14A16721   3.916   1.171   2.205 -3.2559  1.1517 -1.7119
  151OSM   H14B16722   4.056   1.218   2.110 -0.8271 -0.1954 -1.6514
  151OSM   H14C16723   3.909   1.292   2.087  0.5730  0.6785  0.4067
  151OSM    C1316724   4.118   1.305   2.357 -0.2268  0.3882  0.5614
  151OSM   H13A16725   4.072   1.243   2.433 -1.4216  1.2289  0.5512
  151OSM   H13B16726   4.158   1.387   2.415  1.5690  0.3294 -0.5325
  151OSM   H13C16727   4.193   1.267   2.290  0.4523  0.9578  0.9868
  151OSM    C1216728   3.883   1.397   2.347  0.0113 -0.2439  0.4565
  151OSM   H12A16729   3.917   1.466   2.423 -0.1478  0.9269 -0.5031
  151OSM   H12B16730   3.835   1.314   2.396 -0.4552 -0.4025 -0.2460
  151OSM    C1116731   3.776   1.490   2.269 -0.1937 -0.0037  0.1629
  151OSM   H11A16732   3.684   1.498   2.330 -1.4244  0.8512 -1.6999
  151OSM   H11B16733   3.748   1.448   2.170  1.3583  0.3682 -0.4647
  151OSM      P16734   3.835   1.737   2.361 -0.1529 -0.2350  0.1871
  151OSM    O1316735   3.942   1.706   2.461 -0.0506  0.5295 -0.4284
  151OSM    O1416736   3.840   1.873   2.297  0.1326 -0.1560  0.4759
  151OSM    O1116737   3.691   1.731   2.437 -0.2084  0.7642 -0.7543
  151OSM    O1216738   3.825   1.619   2.256 -0.0852 -0.4112  0.1416
  151OSM    C1S16739   3.687   1.669   2.569 -0.3369  0.1421  0.1649
  151OSM    H1S16740   3.743   1.728   2.644  2.0250 -0.8434 -0.7069
  151OSM    H1T16741   3.727   1.565   2.567 -0.0482  0.2413  0.6450
  151OSM     NF16742   3.542   1.593   2.743 -0.0981  0.3495 -0.2946
  151OSM    HNF16743   3.523   1.495   2.753  0.8309  0.2573  0.8415
  151OSM    C2S16744   3.542   1.652   2.612 -0.4864  0.4260  0.2579
  151OSM    H2S16745   3.497   1.753   2.621 -1.3635  0.1813 -1.1169
  151OSM    C3S16746   3.454   1.570   2.501 -0.5220  0.8290 -0.3006
  151OSM    H3S16747   3.479   1.462   2.506  0.9788  1.2026  1.2425
  151OSM     O316748   3.481   1.610   2.370 -0.1970  0.5285  0.0048
  151OSM    HO316749   3.566   1.655   2.374  0.2857 -0.1134 -2.1701
  151OSM    C4S16750   3.305   1.571   2.538  0.5622 -0.0662  0.0261
  151OSM    H4S16751   3.277   1.497   2.615  0.4983 -0.5968 -0.4987
  151OSM    C5S16752   3.219   1.663   2.500 -0.0336 -1.0598 -0.1305
  151OSM    H5S16753   3.256   1.737   2.427  0.4281 -1.4575 -0.3093
  151OSM    C6S16754   3.077   1.682   2.552  0.0850  0.2512 -0.3999
  151OSM    H6S16755   3.016   1.657   2.462  1.7865  0.0535 -1.5321
  151OSM    H6T16756   3.053   1.791   2.558  0.2133  0.2655 -0.1666
  151OSM    C7S16757   3.034   1.589   2.672  0.0321  0.2045  0.5038
  151OSM    H7S16758   3.048   1.481   2.648  3.1184  1.1833 -2.8122
  151OSM    H7T16759   2.924   1.605   2.675 -0.0865 -0.7167  1.5194
  151OSM    C8S16760   3.091   1.636   2.802 -0.8012  0.5244  0.2014
  151OSM    H8S16761   3.118   1.744   2.810  2.2174  0.0411 -1.7266
  151OSM    H8T16762   3.189   1.584   2.808 -1.0450  0.1601  1.2763
  151OSM    C9S16763   3.008   1.592   2.915  0.1653 -0.3632 -0.1487
  151OSM    H9S16764   3.013   1.482   2.904  1.5146 -0.1857 -1.7351
  151OSM    H9T16765   2.903   1.624   2.901  0.7252  0.9531 -1.4969
  151OSM   C10S16766   3.061   1.627   3.053 -0.2204 -0.0260 -0.1122
  151OSM   H10S16767   3.059   1.737   3.065 -0.3185  0.0103 -0.4546
  151OSM   H10T16768   3.164   1.586   3.066  1.5771  3.9648 -0.3629
  151OSM   C11S16769   2.986   1.554   3.167  0.1592 -0.4972  0.3571
  151OSM   H11S16770   3.007   1.445   3.162  1.4894 -0.2282 -0.3120
  151OSM   H11T16771   2.875   1.565   3.162  0.1431  1.9850  2.9929
  151OSM   C12S16772   3.023   1.618   3.299 -0.0408  0.5446 -0.3262
  151OSM   H12S16773   3.017   1.729   3.286 -3.1080  0.5377  0.3160
  151OSM   H12T16774   3.130   1.600   3.323 -0.0300  1.7067  0.6065
  151OSM   C13S16775   2.927   1.581   3.421 -0.2505 -0.7373  0.7641
  151OSM   H13S16776   2.912   1.471   3.423  2.4721 -1.1590  2.9610
  151OSM   H13T16777   2.825   1.622   3.405 -0.0627 -0.8686 -1.0260
  151OSM   C14S16778   3.003   1.614   3.548  0.2760  0.2848 -0.6915
  151OSM   H14S16779   3.004   1.725   3.551  3.1317  0.3205  0.8279
  151OSM   H14T16780   3.110   1.583   3.553 -0.4105 -2.1209  2.1888
  151OSM   C15S16781   2.930   1.558   3.668 -0.0262 -0.1072 -0.5012
  151OSM   H15S16782   2.930   1.448   3.652 -0.6593 -0.1849 -0.0180
  151OSM   H15T16783   2.823   1.587   3.662  0.0327  0.3479  0.4667
  151OSM   C16S16784   2.995   1.612   3.796 -0.9151 -0.2896 -0.5093
  151OSM   H16S16785   2.977   1.722   3.791  0.5638  0.0058  0.1782
  151OSM   H16T16786   3.100   1.576   3.799 -0.5682  0.6711 -0.7041
  151OSM   C17S16787   2.926   1.563   3.926  0.0289 -0.8740  0.0888
  151OSM   H17S16788   2.924   1.452   3.922  1.1877 -0.8982  0.0008
  151OSM   H17T16789   2.823   1.601   3.910  0.1804 -0.2205  0.6068
  151OSM   C18S16790   2.960   1.630   4.057 -0.6643  0.5322  0.7127
  151OSM   H18S16791   2.969   1.739   4.038  0.0713  0.3699  0.0838
  151OSM   H18T16792   3.051   1.588   4.104  0.5010  1.8052 -0.3448
  151OSM   H18U16793   2.874   1.607   4.123  0.8427 -0.8976  2.2799
  151OSM    C1F16794   3.580   1.649   2.858  0.6538  0.1211 -0.0584
  151OSM     OF16795   3.610   1.767   2.849 -0.1287 -0.1445 -0.0893
  151OSM    C2F16796   3.575   1.561   2.981 -0.0572 -0.1870 -0.0112
  151OSM    H2F16797   3.653   1.482   2.987 -1.8541 -2.1337 -1.1226
  151OSM    H2G16798   3.483   1.498   2.979  0.2297 -0.5914 -0.7023
  151OSM    C3F16799   3.574   1.645   3.116 -0.1499  0.3416 -0.3751
  151OSM    H3F16800   3.487   1.713   3.117  0.7197  1.4895 -0.8408
  151OSM    H3G16801   3.662   1.713   3.113  0.2272 -0.1483 -2.9369
  151OSM    C4F16802   3.577   1.553   3.244 -0.8938  0.3982  0.1376
  151OSM    H4F16803   3.488   1.486   3.235  0.1286 -1.0120  0.1084
  151OSM    H4G16804   3.563   1.614   3.336  0.1477 -0.6170  1.0068
  151OSM    C5F16805   3.697   1.462   3.260  0.0788 -0.3796 -0.1190
  151OSM    H5F16806   3.788   1.525   3.273 -0.1584 -0.0445 -0.0900
  151OSM    H5G16807   3.691   1.389   3.177  2.7937 -0.7184 -0.1083
  151OSM    C6F16808   3.699   1.388   3.400  0.1421  0.3879  0.7764
  151OSM    H6F16809   3.787   1.321   3.400 -1.1625 -1.3846  1.2475
  151OSM    H6G16810   3.602   1.334   3.403 -0.0274  0.6909  0.8655
  151OSM    C7F16811   3.712   1.484   3.524 -0.0813 -0.1424 -0.2270
  151OSM    H7F16812   3.646   1.572   3.508 -0.9115 -0.7949 -0.4676
  151OSM    H7G16813   3.816   1.522   3.524 -0.1533  0.2506  2.4946
  151OSM    C8F16814   3.670   1.420   3.654 -0.4598  0.0435 -0.3457
  151OSM    H8F16815   3.721   1.476   3.735 -0.7070 -0.3885  0.1189
  151OSM    H8G16816   3.703   1.313   3.658  0.5936  0.3303 -0.8463
  151OSM    C9F16817   3.522   1.432   3.671  0.0686  0.3205  0.0078
  151OSM    H9F16818   3.463   1.437   3.578  0.1489  1.5535  0.0011
  151OSM   C10F16819   3.457   1.473   3.782  0.2002  0.1938  0.3350
  151OSM   H10F16820   3.349   1.492   3.774 -0.2296 -1.6276  1.1261
  151OSM   C11F16821   3.516   1.489   3.921  0.1888  0.3193 -0.0196
  151OSM   H11F16822   3.470   1.576   3.972 -0.4267  0.1854 -0.3349
  151OSM   H11G16823   3.627   1.498   3.925  0.3019  1.5264 -2.9810
  151OSM   C12F16824   3.490   1.368   4.015 -0.0115 -0.6026  0.7849
  151OSM   H12F16825   3.539   1.280   3.967 -1.3396 -2.3334  2.5033
  151OSM   H12G16826   3.381   1.350   4.024 -0.1128  0.6336  2.6643
  151OSM   C13F16827   3.548   1.382   4.154  0.1574  0.0377  0.5406
  151OSM   H13F16828   3.486   1.451   4.216  2.3293 -0.2613  3.2259
  151OSM   H13G16829   3.644   1.437   4.162 -0.1114  0.8377 -1.1817
  151OSM   C14F16830   3.572   1.253   4.230  0.0218 -0.3817 -0.1627
  151OSM   H14F16831   3.482   1.189   4.243 -0.0830 -0.2568 -0.2840
  151OSM   H14G16832   3.605   1.282   4.332  1.7472  2.1011 -1.3397
  151OSM   C15F16833   3.675   1.155   4.179  0.3240 -0.8219  0.1575
  151OSM   H15F16834   3.649   1.125   4.075 -0.6563 -0.2237  0.2110
  151OSM   H15G16835   3.679   1.063   4.241  0.3895 -0.2916  0.9472
  151OSM   C16F16836   3.819   1.201   4.184  0.1486  0.3061 -0.1841
  151OSM   H16F16837   3.843   1.246   4.282  0.1341 -1.1039  0.4895
  151OSM   H16G16838   3.824   1.288   4.115 -0.5340  2.5027  2.3650
  151OSM   C17F16839   3.924   1.098   4.131  0.2994 -0.0289  0.4643
  151OSM   H17F16840   3.938   1.020   4.210  2.4142  0.1919  0.3536
  151OSM   H17G16841   4.020   1.145   4.104  0.4295  0.1223  1.1759
  151OSM   C18F16842   3.880   1.024   4.002  0.0242  0.5914  0.1263
  151OSM   H18F16843   3.880   1.099   3.920  2.9833  1.4359  0.7827
  151OSM   H18G16844   3.786   0.968   4.020 -0.5087  1.3151 -0.3496
  151OSM   H18H16845   3.955   0.944   3.980  0.6430  0.8756  1.1550
  152OSM      N16846   1.807   4.584   2.002 -0.1137  0.3546 -0.2048
  152OSM    C1516847   1.881   4.473   1.935  0.4678  0.5568  0.1615
  152OSM   H15A16848   1.938   4.507   1.849  0.1641  1.3301  0.2590
  152OSM   H15B16849   1.808   4.406   1.892 -0.8531  1.9113  0.2124
  152OSM   H15C16850   1.953   4.421   1.997  0.3896 -3.5795 -2.7811
  152OSM    C1416851   1.909   4.684   2.061  0.4893 -0.6985  0.2601
  152OSM   H14A16852   1.966   4.730   1.982 -1.4426  1.9373  0.2750
  152OSM   H14B16853   1.979   4.643   2.132  1.7985 -0.1900 -0.7058
  152OSM   H14C16854   1.863   4.765   2.116  1.8300  0.4832 -0.2994
  152OSM    C1316855   1.725   4.657   1.906  0.3842 -0.3529 -0.1064
  152OSM   H13A16856   1.650   4.597   1.856  0.6902 -1.5198  0.7950
  152OSM   H13B16857   1.790   4.694   1.828  1.7368 -0.0040  1.1445
  152OSM   H13C16858   1.670   4.736   1.955  0.0778 -1.0590  0.7085
  152OSM    C1216859   1.725   4.531   2.118  0.2213  0.9913 -0.3488
  152OSM   H12A16860   1.652   4.472   2.065  1.2874 -0.2080 -0.5357
  152OSM   H12B16861   1.671   4.612   2.164 -1.4787 -1.0603  1.5467
  152OSM    C1116862   1.783   4.440   2.228  0.3193  0.4810  0.0184
  152OSM   H11A16863   1.827   4.347   2.188 -1.8262 -1.3327  1.5813
  152OSM   H11B16864   1.700   4.409   2.295  0.6636 -0.3347  0.0725
  152OSM      P16865   1.825   4.609   2.418 -0.0569  0.2711  0.0222
  152OSM    O1316866   1.944   4.673   2.482  0.4865  0.3492  0.3885
  152OSM    O1416867   1.721   4.700   2.365  0.1161  0.2254 -0.4875
  152OSM    O1116868   1.756   4.513   2.513 -0.3893  0.0652  0.0949
  152OSM    O1216869   1.881   4.519   2.296  0.5388 -0.0916 -0.4659
  152OSM    C1S16870   1.819   4.394   2.561  0.0650  0.1556 -0.0125
  152OSM    H1S16871   1.923   4.401   2.598  1.1077  0.7925 -2.8523
  152OSM    H1T16872   1.824   4.324   2.475  0.7492  1.2002 -0.8440
  152OSM     NF16873   1.808   4.257   2.774 -0.2825 -0.0730 -0.0695
  152OSM    HNF16874   1.788   4.159   2.770  0.3622 -0.2087 -0.0604
  152OSM    C2S16875   1.731   4.337   2.682 -0.1848 -0.1088 -0.3966
  152OSM    H2S16876   1.698   4.428   2.737 -3.4934 -0.3902 -1.7078
  152OSM    C3S16877   1.603   4.268   2.627  0.4087  0.4723 -0.3154
  152OSM    H3S16878   1.620   4.167   2.584 -2.4914 -0.0967 -0.3110
  152OSM     O316879   1.529   4.340   2.538  0.3645 -0.0431  0.2637
  152OSM    HO316880   1.585   4.417   2.523 -1.6908  1.3541 -0.5925
  152OSM    C4S16881   1.498   4.253   2.740 -0.1249 -0.2082 -0.2236
  152OSM    H4S16882   1.444   4.348   2.751  0.6173  0.4820 -2.1007
  152OSM    C5S16883   1.460   4.156   2.821  0.3774 -0.8438 -0.4731
  152OSM    H5S16884   1.510   4.058   2.826  1.9668 -0.0159  1.6951
  152OSM    C6S16885   1.346   4.177   2.919 -0.7040 -0.1145 -0.6039
  152OSM    H6S16886   1.293   4.079   2.924  0.3009 -0.6077  1.8945
  152OSM    H6T16887   1.269   4.248   2.882  0.0305  1.0957  0.1257
  152OSM    C7S16888   1.384   4.222   3.058  0.1902 -0.1320 -0.3060
  152OSM    H7S16889   1.416   4.328   3.050 -0.4317  0.0253 -0.8394
  152OSM    H7T16890   1.469   4.161   3.096  0.8257  1.6091  1.2042
  152OSM    C8S16891   1.273   4.206   3.171  0.0952 -0.4650  0.0956
  152OSM    H8S16892   1.231   4.104   3.156 -2.2023  0.3347  0.6606
  152OSM    H8T16893   1.180   4.264   3.152 -1.1138 -1.4310  2.5919
  152OSM    C9S16894   1.334   4.234   3.309  0.8218  0.3198  0.0417
  152OSM    H9S16895   1.380   4.335   3.306  1.2107  0.1639  0.6227
  152OSM    H9T16896   1.420   4.165   3.323  0.9390  0.3789 -0.3644
  152OSM   C10S16897   1.224   4.227   3.418  0.1106 -0.0639  0.0995
  152OSM   H10S16898   1.186   4.124   3.437  1.4731 -0.4138  1.0544
  152OSM   H10T16899   1.144   4.291   3.376  1.4940  0.5720 -1.6970
  152OSM   C11S16900   1.280   4.273   3.556 -0.0233 -0.5590  0.3754
  152OSM   H11S16901   1.337   4.368   3.555 -0.0854 -0.5240 -0.0209
  152OSM   H11T16902   1.354   4.199   3.593  0.5013  0.8743  2.3701
  152OSM   C12S16903   1.166   4.274   3.659  0.1315  0.6022  0.2353
  152OSM   H12S16904   1.106   4.181   3.646  1.1659  0.1612 -2.0003
  152OSM   H12T16905   1.103   4.364   3.643 -0.6291 -0.0154 -0.3490
  152OSM   C13S16906   1.222   4.277   3.797 -0.8163  0.1726  0.0422
  152OSM   H13S16907   1.299   4.356   3.811  0.8414 -1.4326  0.3841
  152OSM   H13T16908   1.273   4.179   3.813  2.2778  1.6146 -0.1574
  152OSM   C14S16909   1.112   4.305   3.909 -0.5972 -0.3612 -0.2351
  152OSM   H14S16910   1.029   4.231   3.901 -0.1310 -0.8105 -0.9686
  152OSM   H14T16911   1.068   4.406   3.895  0.0386  0.1020  0.9999
  152OSM   C15S16912   1.177   4.291   4.052  0.3615 -0.1754  0.1261
  152OSM   H15S16913   1.275   4.343   4.050  0.4913 -0.3844  0.8219
  152OSM   H15T16914   1.203   4.188   4.086  0.6144 -0.2836 -0.3797
  152OSM   C16S16915   1.090   4.334   4.173  0.4379 -0.2074  0.5919
  152OSM   H16S16916   0.993   4.280   4.165 -0.5393  1.5649 -0.1872
  152OSM   H16T16917   1.066   4.442   4.168 -0.7592 -0.5083 -1.6866
  152OSM   C17S16918   1.137   4.300   4.316  0.2819 -0.2337 -0.1893
  152OSM   H17S16919   1.074   4.348   4.393  1.1971  0.0669  0.3966
  152OSM   H17T16920   1.243   4.329   4.336  0.2139 -0.1110 -0.0146
  152OSM   C18S16921   1.156   4.156   4.346  0.0442 -0.0393 -0.3360
  152OSM   H18S16922   1.165   4.156   4.457  0.2436 -0.1764 -0.3500
  152OSM   H18T16923   1.237   4.099   4.294 -1.0831 -3.2246  1.1319
  152OSM   H18U16924   1.060   4.107   4.321 -1.1080  2.3605 -0.8574
  152OSM    C1F16925   1.910   4.299   2.844  0.7655  0.0363  0.6870
  152OSM     OF16926   1.926   4.418   2.857 -0.6070  0.1502 -0.4177
  152OSM    C2F16927   1.994   4.189   2.909  0.0219  0.0160  0.7293
  152OSM    H2F16928   2.097   4.229   2.907  0.5353 -1.2477  0.7886
  152OSM    H2G16929   1.982   4.101   2.841 -0.8898  1.0110 -0.4357
  152OSM    C3F16930   1.936   4.143   3.043 -0.5170  0.0814  0.3380
  152OSM    H3F16931   1.828   4.170   3.049 -0.6087 -0.3069  0.4588
  152OSM    H3G16932   1.985   4.216   3.110 -0.6866  0.7032 -0.2037
  152OSM    C4F16933   1.951   3.997   3.082  0.1076  0.6205 -0.2847
  152OSM    H4F16934   2.056   3.978   3.048  0.8643  1.0062  1.7257
  152OSM    H4G16935   1.881   3.939   3.018 -1.8556  3.3209 -0.7191
  152OSM    C5F16936   1.938   3.955   3.224  0.0178 -0.6195 -0.2693
  152OSM    H5F16937   2.022   3.999   3.283 -0.6371 -0.8154  0.8308
  152OSM    H5G16938   1.958   3.846   3.227  0.2931 -0.5673 -0.0963
  152OSM    C6F16939   1.798   3.975   3.280 -0.4859  0.3101 -0.1713
  152OSM    H6F16940   1.720   3.916   3.227  0.4724  1.6272 -3.2701
  152OSM    H6G16941   1.768   4.081   3.279  1.9869  1.1432 -3.8899
  152OSM    C7F16942   1.802   3.933   3.427 -0.1815 -0.8275 -0.6435
  152OSM    H7F16943   1.897   3.974   3.466 -1.3186  2.2380 -0.7873
  152OSM    H7G16944   1.826   3.824   3.424  4.2392 -0.0222 -1.3697
  152OSM    C8F16945   1.678   3.949   3.512 -0.4552  0.5486  0.2546
  152OSM    H8F16946   1.674   3.877   3.596 -0.4357 -2.3494 -2.0672
  152OSM    H8G16947   1.594   3.914   3.449 -0.7047  0.5366  0.5970
  152OSM    C9F16948   1.642   4.090   3.547 -0.1806 -0.2249 -0.0913
  152OSM    H9F16949   1.559   4.139   3.494 -1.5461 -0.2543  1.9118
  152OSM   C10F16950   1.719   4.164   3.624 -0.5984  0.0091 -0.9741
  152OSM   H10F16951   1.690   4.270   3.634  1.4978  0.5966 -0.5656
  152OSM   C11F16952   1.842   4.110   3.695 -0.1320 -0.7406 -0.1563
  152OSM   H11F16953   1.936   4.156   3.658  0.0051 -0.7778  0.1383
  152OSM   H11G16954   1.857   4.002   3.673 -0.1113 -0.5707 -0.9980
  152OSM   C12F16955   1.836   4.113   3.849 -0.4869 -0.6464 -0.1080
  152OSM   H12F16956   1.927   4.061   3.887  0.0969  0.2802 -0.2094
  152OSM   H12G16957   1.754   4.047   3.885 -1.6615  0.0682 -1.4164
  152OSM   C13F16958   1.846   4.249   3.914 -0.2486 -0.0644  0.4001
  152OSM   H13F16959   1.771   4.315   3.865  0.0329  0.2199  0.3403
  152OSM   H13G16960   1.947   4.292   3.895 -0.5089  0.4240  0.0844
  152OSM   C14F16961   1.826   4.249   4.067 -0.5550 -0.2255 -0.9051
  152OSM   H14F16962   1.863   4.347   4.103 -3.0305 -0.1702  1.9343
  152OSM   H14G16963   1.877   4.175   4.132 -0.7838  0.7656  0.4409
  152OSM   C15F16964   1.680   4.248   4.109  0.4779 -0.0967 -1.1289
  152OSM   H15F16965   1.629   4.155   4.077  0.7962 -1.3237  1.6117
  152OSM   H15G16966   1.628   4.332   4.058  1.6654  3.0000  2.2930
  152OSM   C16F16967   1.659   4.250   4.260  0.2909 -0.2814 -0.3869
  152OSM   H16F16968   1.681   4.351   4.303 -0.9533 -0.5035  0.8784
  152OSM   H16G16969   1.717   4.170   4.310  0.0649  0.4429  1.1187
  152OSM   C17F16970   1.511   4.218   4.294 -0.6908  0.5715 -0.1780
  152OSM   H17F16971   1.479   4.125   4.242  0.8982 -0.9954  1.4520
  152OSM   H17G16972   1.450   4.302   4.256 -0.1688  1.2967  0.5480
  152OSM   C18F16973   1.499   4.209   4.446  0.4496  0.4675  0.3221
  152OSM   H18F16974   1.407   4.147   4.457  0.0649  0.5938 -1.7333
  152OSM   H18G16975   1.515   4.308   4.492  1.7886  1.1615 -1.4995
  152OSM   H18H16976   1.583   4.149   4.486  0.4877  0.2611 -0.0540
  153OSM      N16977   3.496   5.065   1.937  0.2175 -0.6778  0.7345
  153OSM    C1516978   3.372   5.006   1.894  0.2681  0.2791  0.0839
  153OSM   H15A16979   3.293   5.018   1.966 -0.1071 -0.3185 -0.2146
  153OSM   H15B16980   3.380   4.898   1.898  1.8255  0.4238  2.5674
  153OSM   H15C16981   3.353   5.025   1.789  0.9178 -2.9934 -0.7363
  153OSM    C1416982   3.596   5.041   1.822 -0.1823 -0.6422 -0.4648
  153OSM   H14A16983   3.695   5.060   1.861 -1.0426  2.4258  0.5835
  153OSM   H14B16984   3.578   5.111   1.742  0.8492  0.8648  0.5726
  153OSM   H14C16985   3.589   4.935   1.806  1.2437 -0.5653 -1.7234
  153OSM    C1316986   3.482   5.213   1.955 -0.2242  0.0261 -0.4073
  153OSM   H13A16987   3.448   5.250   1.860 -0.4988 -0.8379 -0.6474
  153OSM   H13B16988   3.571   5.264   1.989 -0.2285  1.4854 -2.4045
  153OSM   H13C16989   3.401   5.222   2.026  0.3151 -0.6925  0.3188
  153OSM    C1216990   3.558   5.007   2.064 -1.3870  0.3922  0.1729
  153OSM   H12A16991   3.647   5.063   2.090  0.2193 -1.0067 -1.8691
  153OSM   H12B16992   3.604   4.911   2.044 -0.8777  0.6943 -0.1329
  153OSM    C1116993   3.465   4.980   2.183 -0.1631 -0.3451  0.0978
  153OSM   H11A16994   3.400   5.070   2.180  1.4213  0.8563  0.1569
  153OSM   H11B16995   3.510   4.993   2.284 -0.2470  2.3743 -0.1366
  153OSM      P16996   3.453   4.716   2.149  0.0133  0.1957 -0.0974
  153OSM    O1316997   3.345   4.620   2.141 -0.0042 -0.2810  0.2230
  153OSM    O1416998   3.558   4.706   2.051 -0.2719 -0.1969  0.8069
  153OSM    O1116999   3.510   4.699   2.294  0.5733 -0.4931  0.1051
  153OSM    O1217000   3.393   4.859   2.155 -0.1421 -0.2608 -0.6581
  153OSM    C1S17001   3.427   4.714   2.405  0.0137 -0.0469 -0.2948
  153OSM    H1S17002   3.355   4.629   2.409  1.4251 -1.2244  2.2090
  153OSM    H1T17003   3.380   4.815   2.402 -0.7292 -0.2694  1.9107
  153OSM     NF17004   3.407   4.717   2.647 -0.1778  0.1146 -0.5044
  153OSM    HNF17005   3.392   4.802   2.697  1.3565  0.6943 -0.9758
  153OSM    C2S17006   3.506   4.718   2.535  0.7245  0.5467  0.0437
  153OSM    H2S17007   3.573   4.629   2.534  0.3623  0.2803 -0.8122
  153OSM    C3S17008   3.596   4.842   2.537  0.1147 -0.0774 -0.3722
  153OSM    H3S17009   3.533   4.929   2.507 -1.4324 -0.7371  0.8955
  153OSM     O317010   3.684   4.846   2.429  0.1721 -0.3090  0.0769
  153OSM    HO317011   3.647   4.782   2.368  2.1315 -0.4509 -1.0403
  153OSM    C4S17012   3.666   4.864   2.676  0.1555 -0.0142 -0.0558
  153OSM    H4S17013   3.623   4.940   2.743  0.6061  0.6167 -0.4696
  153OSM    C5S17014   3.777   4.813   2.728  0.2588  0.8440  0.0345
  153OSM    H5S17015   3.840   4.744   2.670  2.0176  0.5393  2.1448
  153OSM    C6S17016   3.841   4.855   2.859 -0.2067 -0.0830 -0.8336
  153OSM    H6S17017   3.798   4.944   2.910 -0.8316 -1.7304  1.6998
  153OSM    H6T17018   3.947   4.881   2.836  0.5743 -0.7663  1.6390
  153OSM    C7S17019   3.832   4.750   2.970  0.0213  0.6528  0.6378
  153OSM    H7S17020   3.884   4.663   2.924  0.6250  1.6956 -0.7382
  153OSM    H7T17021   3.722   4.737   2.978 -0.0716  2.0064  2.4016
  153OSM    C8S17022   3.892   4.796   3.101 -0.0879 -0.0612 -0.1282
  153OSM    H8S17023   3.864   4.901   3.126  1.8981  0.6298 -0.6447
  153OSM    H8T17024   4.001   4.802   3.085 -0.2685  2.6689 -0.8318
  153OSM    C9S17025   3.857   4.699   3.215 -0.0291 -0.1579 -0.2543
  153OSM    H9S17026   3.900   4.603   3.180  0.0510  0.4969 -2.0902
  153OSM    H9T17027   3.749   4.704   3.239  0.6671 -1.2223  3.7191
  153OSM   C10S17028   3.925   4.736   3.351 -0.2932  0.1606  0.5774
  153OSM   H10S17029   3.875   4.829   3.384  0.5518  1.0262 -0.5101
  153OSM   H10T17030   4.031   4.758   3.329  0.2143 -1.4306  1.2330
  153OSM   C11S17031   3.919   4.639   3.467 -0.2936  0.1314 -0.0684
  153OSM   H11S17032   4.004   4.663   3.535 -0.5597 -0.2555  0.4058
  153OSM   H11T17033   3.932   4.531   3.445 -2.5708 -0.2632  0.2411
  153OSM   C12S17034   3.796   4.640   3.564 -0.8846  0.3532  0.1256
  153OSM   H12S17035   3.706   4.649   3.500  0.2122 -0.1030 -1.5517
  153OSM   H12T17036   3.807   4.733   3.624  0.3499 -0.5810  1.4131
  153OSM   C13S17037   3.783   4.520   3.655  0.5812  0.1808 -0.3713
  153OSM   H13S17038   3.880   4.480   3.694  0.6688  1.5212  0.8540
  153OSM   H13T17039   3.735   4.430   3.610 -0.7681 -0.6548  2.5078
  153OSM   C14S17040   3.703   4.547   3.782 -0.3486  0.8598 -0.5805
  153OSM   H14S17041   3.605   4.593   3.758 -1.7796 -1.6151  0.2182
  153OSM   H14T17042   3.764   4.610   3.850  0.5998 -2.6889  2.1224
  153OSM   C15S17043   3.677   4.419   3.867 -0.5419  0.0595 -0.5936
  153OSM   H15S17044   3.721   4.332   3.811 -1.3064 -2.1197  1.9995
  153OSM   H15T17045   3.569   4.395   3.867 -0.7068  0.4506  2.4165
  153OSM   C16S17046   3.739   4.418   4.004 -0.2024 -0.5527  0.2318
  153OSM   H16S17047   3.703   4.506   4.063 -2.1947 -1.7835  0.9558
  153OSM   H16T17048   3.850   4.417   4.008 -0.1966  0.5779  0.6640
  153OSM   C17S17049   3.699   4.298   4.078  0.4721  0.3709  0.4006
  153OSM   H17S17050   3.730   4.210   4.018 -1.3571  0.0954 -0.1905
  153OSM   H17T17051   3.588   4.302   4.076  0.3773 -1.6806 -0.5824
  153OSM   C18S17052   3.762   4.285   4.220 -0.5218 -0.3963 -0.1382
  153OSM   H18S17053   3.873   4.279   4.212 -0.5704  0.4841 -1.8501
  153OSM   H18T17054   3.716   4.198   4.272  0.5012 -1.1739 -0.4907
  153OSM   H18U17055   3.741   4.374   4.283 -1.8330 -1.0440  0.3720
  153OSM    C1F17056   3.336   4.608   2.686 -0.6379 -0.3692  0.5209
  153OSM     OF17057   3.356   4.510   2.625  0.0657  0.1207  0.3059
  153OSM    C2F17058   3.248   4.614   2.811  0.1608  0.1487  0.0147
  153OSM    H2F17059   3.145   4.639   2.776 -0.9074 -0.0731  2.7678
  153OSM    H2G17060   3.299   4.687   2.876  5.5080 -3.5185  0.5919
  153OSM    C3F17061   3.224   4.481   2.890 -0.2346 -0.0378 -0.6419
  153OSM    H3F17062   3.323   4.453   2.932 -1.1461 -1.9288  0.3290
  153OSM    H3G17063   3.194   4.403   2.817  0.1947  0.8730 -1.8311
  153OSM    C4F17064   3.117   4.487   3.000 -0.5182 -0.2691 -0.3119
  153OSM    H4F17065   3.016   4.508   2.960 -0.1996  0.2384 -0.8695
  153OSM    H4G17066   3.148   4.573   3.063  0.0759 -0.2991 -0.5552
  153OSM    C5F17067   3.106   4.361   3.085 -0.1288  0.3330 -0.6768
  153OSM    H5F17068   3.207   4.349   3.130  0.4690 -0.3059 -2.1120
  153OSM    H5G17069   3.079   4.273   3.022  1.3055 -0.4766 -0.1987
  153OSM    C6F17070   2.999   4.389   3.191  0.3461  0.6374 -0.1494
  153OSM    H6F17071   2.917   4.451   3.149 -0.3511 -1.5827 -2.3355
  153OSM    H6G17072   3.047   4.448   3.272 -1.0397  0.8172  0.5720
  153OSM    C7F17073   2.917   4.263   3.248  0.3078 -0.0989 -0.6936
  153OSM    H7F17074   2.993   4.194   3.290  1.0459  0.7561 -0.5880
  153OSM    H7G17075   2.867   4.215   3.161  0.3843  0.1081 -0.8524
  153OSM    C8F17076   2.813   4.291   3.353  0.6642  0.3037  0.0160
  153OSM    H8F17077   2.756   4.377   3.313  0.5120 -0.4055 -1.3542
  153OSM    H8G17078   2.863   4.331   3.444  1.7334  1.6379 -1.1259
  153OSM    C9F17079   2.737   4.166   3.386 -0.0268  0.8299  0.0001
  153OSM    H9F17080   2.693   4.122   3.296 -0.4356  3.7190 -1.3264
  153OSM   C10F17081   2.688   4.118   3.498 -0.5163  0.3115 -0.3809
  153OSM   H10F17082   2.618   4.033   3.495  1.3124 -1.2658 -0.5849
  153OSM   C11F17083   2.733   4.167   3.636  0.7495  0.3471 -0.0057
  153OSM   H11F17084   2.639   4.192   3.689  0.7870 -0.9040  0.6734
  153OSM   H11G17085   2.796   4.259   3.635 -0.5402  1.2873 -2.5060
  153OSM   C12F17086   2.802   4.045   3.709 -0.4854  0.1249  0.1387
  153OSM   H12F17087   2.885   4.011   3.643  0.8851  2.3734  0.5703
  153OSM   H12G17088   2.723   3.969   3.724  0.8378 -0.8863  2.4663
  153OSM   C13F17089   2.870   4.087   3.842 -0.4185 -0.0558  0.1222
  153OSM   H13F17090   2.935   4.175   3.823  0.5243 -0.8195 -0.2348
  153OSM   H13G17091   2.936   4.006   3.879  1.5217  1.3643 -0.0571
  153OSM   C14F17092   2.772   4.103   3.957  0.3128 -0.0274 -0.0968
  153OSM   H14F17093   2.731   4.002   3.981  0.4806  0.1775  1.1195
  153OSM   H14G17094   2.684   4.160   3.923 -0.3899 -0.3136  1.1934
  153OSM   C15F17095   2.841   4.146   4.090  0.1258  0.3017  0.6505
  153OSM   H15F17096   2.934   4.085   4.098  2.0369  2.0458 -4.0688
  153OSM   H15G17097   2.771   4.137   4.175 -1.1719  0.4568 -0.3740
  153OSM   C16F17098   2.899   4.291   4.091 -0.1490  0.4259  0.6032
  153OSM   H16F17099   2.958   4.307   3.998 -0.6351 -0.2656  0.1696
  153OSM   H16G17100   2.974   4.316   4.168  1.9994  2.5658 -1.9673
  153OSM   C17F17101   2.790   4.399   4.096  0.4839 -0.2046 -0.4298
  153OSM   H17F17102   2.726   4.366   4.011 -1.2583 -0.6903  1.0084
  153OSM   H17G17103   2.832   4.497   4.066 -1.6545  0.9006  0.0127
  153OSM   C18F17104   2.709   4.412   4.223 -0.0009  0.5373  0.3213
  153OSM   H18F17105   2.783   4.449   4.296  1.5692  0.0534 -0.9585
  153OSM   H18G17106   2.665   4.315   4.256 -0.7105 -0.2808 -2.6252
  153OSM   H18H17107   2.634   4.493   4.210  0.1093  0.4968 -0.7069
  154OSM      N17108   1.458   1.741   2.064  0.1697 -0.2861  0.7524
  154OSM    C1517109   1.336   1.665   2.096 -0.0958  0.5866 -0.7264
  154OSM   H15A17110   1.276   1.703   2.178  0.0150  0.0557 -0.3957
  154OSM   H15B17111   1.359   1.570   2.141 -1.9359 -0.9142 -2.7278
  154OSM   H15C17112   1.268   1.650   2.014 -1.4612  0.4864  0.3884
  154OSM    C1417113   1.537   1.655   1.971  0.3974  0.0903  0.3403
  154OSM   H14A17114   1.513   1.552   1.994 -0.7180  0.4705  1.0178
  154OSM   H14B17115   1.640   1.681   1.986  0.8311 -1.9276  1.1057
  154OSM   H14C17116   1.516   1.671   1.867 -1.3732 -1.1197  0.4667
  154OSM    C1317117   1.422   1.873   1.991 -0.0440  0.5764  0.2448
  154OSM   H13A17118   1.515   1.928   1.985  0.8949 -0.5267  3.0094
  154OSM   H13B17119   1.345   1.927   2.045 -1.9943 -0.5170 -1.3112
  154OSM   H13C17120   1.386   1.860   1.890 -0.0531  4.0074 -0.3188
  154OSM    C1217121   1.521   1.782   2.194 -0.3192  0.0272  1.0467
  154OSM   H12A17122   1.449   1.837   2.253 -1.1473 -1.0513  1.0692
  154OSM   H12B17123   1.597   1.856   2.176  0.8328 -1.4600 -0.4769
  154OSM    C1117124   1.590   1.680   2.288 -0.4925 -1.0111 -0.1670
  154OSM   H11A17125   1.622   1.738   2.377 -1.1854 -1.5707  0.4609
  154OSM   H11B17126   1.681   1.648   2.232  1.4082  1.6260  1.2238
  154OSM      P17127   1.564   1.435   2.373  0.0095 -0.2647  0.5813
  154OSM    O1317128   1.468   1.329   2.411 -0.3250  0.0830  1.0695
  154OSM    O1417129   1.672   1.403   2.272  0.1720  0.2895  0.1787
  154OSM    O1117130   1.643   1.463   2.501  0.1330 -0.2358 -0.4490
  154OSM    O1217131   1.503   1.576   2.333  0.7271 -0.0859 -0.0329
  154OSM    C1S17132   1.588   1.551   2.594  0.1351 -0.5968 -0.3163
  154OSM    H1S17133   1.496   1.508   2.638  0.4841 -0.1274  0.8855
  154OSM    H1T17134   1.559   1.646   2.545 -0.0012 -0.5931 -0.2262
  154OSM     NF17135   1.611   1.667   2.811 -0.0410  0.2979 -0.4359
  154OSM    HNF17136   1.604   1.767   2.802 -0.2434  0.2750 -0.5474
  154OSM    C2S17137   1.682   1.585   2.717  0.5161  0.0327  0.4935
  154OSM    H2S17138   1.699   1.483   2.759  0.1406 -0.9736 -1.6762
  154OSM    C3S17139   1.818   1.645   2.680  0.1934 -0.0142  0.3200
  154OSM    H3S17140   1.802   1.746   2.638  0.8482  0.2602  0.7297
  154OSM     O317141   1.890   1.571   2.580 -0.1497  0.3035 -0.3998
  154OSM    HO317142   1.840   1.491   2.561  0.5230 -0.2450  0.0886
  154OSM    C4S17143   1.901   1.660   2.807  0.3687 -0.3392 -0.0469
  154OSM    H4S17144   1.927   1.568   2.862 -4.6072 -1.4947  0.9024
  154OSM    C5S17145   1.936   1.775   2.870  0.0939  0.5754 -0.8058
  154OSM    H5S17146   1.912   1.876   2.834 -1.4292  0.1282 -1.1257
  154OSM    C6S17147   2.007   1.772   3.005  0.1821  0.7042  0.7242
  154OSM    H6S17148   2.118   1.767   2.996  0.0383 -2.3301 -0.6278
  154OSM    H6T17149   1.976   1.675   3.051  0.2907  1.4278  2.3831
  154OSM    C7S17150   1.951   1.875   3.108 -0.2086  0.4812  0.3811
  154OSM    H7S17151   1.841   1.861   3.102  0.1987 -3.1878 -0.6793
  154OSM    H7T17152   1.975   1.978   3.072 -0.8627  0.3927 -0.3407
  154OSM    C8S17153   1.987   1.850   3.259 -0.5728 -0.2474 -0.3880
  154OSM    H8S17154   2.091   1.887   3.275 -0.4433 -0.1860 -1.3023
  154OSM    H8T17155   1.990   1.743   3.287  0.2480 -0.0740  0.2337
  154OSM    C9S17156   1.886   1.923   3.356 -0.2830 -0.4182 -0.1398
  154OSM    H9S17157   1.786   1.881   3.332  0.5210 -2.1223 -0.6977
  154OSM    H9T17158   1.879   2.033   3.343  0.6826 -0.3072  0.1485
  154OSM   C10S17159   1.930   1.899   3.507  0.2093  0.1513  0.2506
  154OSM   H10S17160   2.028   1.950   3.521  1.8441 -2.4158 -0.9653
  154OSM   H10T17161   1.950   1.791   3.521  2.0364  0.2787 -0.9436
  154OSM   C11S17162   1.824   1.955   3.611 -0.5950  0.2238 -0.2467
  154OSM   H11S17163   1.740   1.883   3.601  1.0609 -1.9431  0.6307
  154OSM   H11T17164   1.782   2.056   3.594 -0.5101 -0.0230 -2.1097
  154OSM   C12S17165   1.882   1.944   3.754 -0.5340  0.7905  0.2665
  154OSM   H12S17166   1.978   2.000   3.757 -1.7193  2.9245  0.3730
  154OSM   H12T17167   1.908   1.840   3.783 -1.9363 -0.2108 -1.8522
  154OSM   C13S17168   1.794   2.006   3.859  0.0808 -0.5367 -0.1854
  154OSM   H13S17169   1.712   1.934   3.875  0.4217 -0.6286  1.2639
  154OSM   H13T17170   1.752   2.103   3.826 -0.0637 -0.2132  0.9192
  154OSM   C14S17171   1.873   2.032   3.991 -0.3435  0.4613  0.5688
  154OSM   H14S17172   1.930   2.128   3.984 -0.4245  0.7736  3.2194
  154OSM   H14T17173   1.941   1.944   3.998 -0.7182 -0.0879 -1.8402
  154OSM   C15S17174   1.796   2.036   4.119 -0.2017 -0.0665  0.4743
  154OSM   H15S17175   1.869   2.050   4.201 -1.0403  0.9192  1.0730
  154OSM   H15T17176   1.753   1.937   4.145 -1.1725 -0.1227 -1.2138
  154OSM   C16S17177   1.702   2.161   4.130 -0.1462 -0.0682  0.1161
  154OSM   H16S17178   1.624   2.150   4.051 -1.5927 -0.4782  1.5489
  154OSM   H16T17179   1.759   2.254   4.108 -0.0009 -0.0722  0.4677
  154OSM   C17S17180   1.648   2.167   4.267  0.3086  0.1329 -0.3275
  154OSM   H17S17181   1.726   2.150   4.344 -0.5666 -0.7880  0.3840
  154OSM   H17T17182   1.561   2.099   4.283  0.1764  0.1947 -0.7661
  154OSM   C18S17183   1.588   2.307   4.305  0.3561 -0.3465 -1.1386
  154OSM   H18S17184   1.660   2.387   4.332  0.1573 -0.4942 -0.1347
  154OSM   H18T17185   1.518   2.291   4.389  0.5706 -1.9738 -1.2351
  154OSM   H18U17186   1.536   2.350   4.217  2.3719  0.3779 -2.0490
  154OSM    C1F17187   1.520   1.619   2.889  0.8821 -0.6182  0.6449
  154OSM     OF17188   1.506   1.496   2.906 -0.0894  0.2852  0.4882
  154OSM    C2F17189   1.417   1.714   2.947 -0.9925 -0.3283  0.3410
  154OSM    H2F17190   1.350   1.656   3.014 -1.1178 -1.6821 -0.9209
  154OSM    H2G17191   1.365   1.752   2.857  0.3877 -0.9253 -0.7552
  154OSM    C3F17192   1.491   1.831   3.025 -0.5668  0.1106 -0.4505
  154OSM    H3F17193   1.414   1.910   3.037 -1.0666 -0.4136 -0.1822
  154OSM    H3G17194   1.565   1.882   2.960 -0.4201 -0.9167 -1.1059
  154OSM    C4F17195   1.546   1.794   3.164 -0.0938 -0.0958 -0.1172
  154OSM    H4F17196   1.629   1.864   3.188  1.5850 -2.1599  0.4676
  154OSM    H4G17197   1.585   1.690   3.176  0.0159  0.0356  0.6963
  154OSM    C5F17198   1.437   1.818   3.275 -0.4807  0.1338  0.1007
  154OSM    H5F17199   1.359   1.740   3.261 -1.5496  1.0488  0.7773
  154OSM    H5G17200   1.393   1.920   3.275  0.8278  0.7193  0.2605
  154OSM    C6F17201   1.495   1.803   3.417 -0.3821  0.6226 -0.1369
  154OSM    H6F17202   1.556   1.889   3.449  1.5971 -0.3758 -1.0544
  154OSM    H6G17203   1.561   1.715   3.436 -0.1636  1.1197  1.4900
  154OSM    C7F17204   1.376   1.789   3.514  0.0466  0.2576 -0.4621
  154OSM    H7F17205   1.323   1.695   3.487 -0.5001  1.2197 -3.0154
  154OSM    H7G17206   1.304   1.869   3.488  0.0075  0.0012 -1.1648
  154OSM    C8F17207   1.421   1.787   3.661  0.2198 -0.2182  0.4019
  154OSM    H8F17208   1.503   1.860   3.676  0.6584 -0.3044 -1.4339
  154OSM    H8G17209   1.450   1.687   3.701 -0.6925 -0.2660  0.9805
  154OSM    C9F17210   1.293   1.822   3.730 -0.7790 -0.2077 -0.0325
  154OSM    H9F17211   1.205   1.793   3.670 -0.6117  1.9087 -1.4047
  154OSM   C10F17212   1.267   1.876   3.852 -0.4355 -0.2025 -0.7032
  154OSM   H10F17213   1.162   1.884   3.886  0.3742 -1.6800  2.5085
  154OSM   C11F17214   1.368   1.923   3.948 -0.2009 -0.3947 -0.6436
  154OSM   H11F17215   1.434   1.992   3.891 -2.3482  0.8670 -1.7185
  154OSM   H11G17216   1.427   1.838   3.989  1.4944  1.8552  1.9753
  154OSM   C12F17217   1.302   2.011   4.059  0.4019  0.2848 -0.1420
  154OSM   H12F17218   1.200   2.042   4.030  1.7267  3.8445 -1.5332
  154OSM   H12G17219   1.359   2.106   4.068 -0.7175  0.8292  2.0876
  154OSM   C13F17220   1.298   1.940   4.197 -0.1180 -0.2472 -0.2764
  154OSM   H13F17221   1.400   1.899   4.213  1.5143  3.9438  1.5585
  154OSM   H13G17222   1.230   1.855   4.177  0.2118 -0.6995  0.4919
  154OSM   C14F17223   1.254   2.017   4.323 -0.4216 -0.1520 -0.5841
  154OSM   H14F17224   1.143   2.026   4.319 -0.4625 -0.7597 -0.9704
  154OSM   H14G17225   1.303   2.116   4.309  2.2653 -1.2458  0.4274
  154OSM   C15F17226   1.306   1.966   4.459 -0.1275  0.3802 -0.0827
  154OSM   H15F17227   1.287   2.042   4.538  1.1542 -0.1187  0.7275
  154OSM   H15G17228   1.416   1.967   4.451 -0.1377  2.4225 -0.5208
  154OSM   C16F17229   1.260   1.819   4.492  0.1835  0.2658 -0.7340
  154OSM   H16F17230   1.312   1.770   4.577 -0.7812 -2.4546 -1.6016
  154OSM   H16G17231   1.310   1.759   4.413  3.7448 -0.5970  1.9090
  154OSM   C17F17232   1.109   1.799   4.502  0.2534 -0.0912 -0.5716
  154OSM   H17F17233   1.046   1.828   4.415 -0.7522  1.3193  0.5779
  154OSM   H17G17234   1.065   1.863   4.581 -1.0466  0.1018 -1.4255
  154OSM   C18F17235   1.059   1.659   4.529 -0.2565  0.2412 -0.0264
  154OSM   H18F17236   1.100   1.596   4.447 -0.6030  1.0364 -0.8251
  154OSM   H18G17237   0.948   1.662   4.533 -0.2169  0.7120  1.0268
  154OSM   H18H17238   1.110   1.617   4.619  1.1426 -0.9406 -1.3121
  155OSM      N17239   3.408   0.336   2.252 -0.0271  0.1920  0.1807
  155OSM    C1517240   3.435   0.320   2.110  0.2560  0.2783  0.1772
  155OSM   H15A17241   3.402   0.410   2.060 -1.8981 -0.6522 -0.1755
  155OSM   H15B17242   3.382   0.238   2.064  0.0925 -0.1077  1.0323
  155OSM   H15C17243   3.540   0.304   2.090  0.3120  2.3493 -1.5888
  155OSM    C1417244   3.415   0.483   2.296  0.3503  0.3680 -0.1611
  155OSM   H14A17245   3.326   0.531   2.258 -0.5749 -2.2431 -1.5357
  155OSM   H14B17246   3.505   0.532   2.261  0.3255  0.6022  0.0976
  155OSM   H14C17247   3.409   0.483   2.404 -2.9130  0.3184 -0.2481
  155OSM    C1317248   3.267   0.293   2.246  0.2700 -0.2453 -0.0247
  155OSM   H13A17249   3.247   0.200   2.195  0.8831  0.3516 -1.4326
  155OSM   H13B17250   3.212   0.365   2.187 -1.4379 -1.5362 -0.0715
  155OSM   H13C17251   3.225   0.292   2.345 -0.6357  0.0726 -0.3954
  155OSM    C1217252   3.493   0.245   2.336 -0.0846  0.3443  0.0802
  155OSM   H12A17253   3.600   0.258   2.326  0.0985 -2.3828 -3.2203
  155OSM   H12B17254   3.476   0.145   2.299  1.3548 -0.2758  1.0010
  155OSM    C1117255   3.465   0.254   2.489  0.6759  0.5425  0.6651
  155OSM   H11A17256   3.474   0.353   2.539  1.0152  1.6606 -1.4962
  155OSM   H11B17257   3.551   0.199   2.532  2.0974  1.1911 -1.2602
  155OSM      P17258   3.343   0.030   2.530 -0.0015 -0.1682 -0.0538
  155OSM    O1317259   3.209  -0.015   2.578  0.6554 -0.6966  0.3251
  155OSM    O1417260   3.396  -0.018   2.402  0.4564  0.2528 -0.0337
  155OSM    O1117261   3.450   0.012   2.649  0.5899  0.0951  0.1268
  155OSM    O1217262   3.343   0.188   2.529  0.0828  0.3035  0.4390
  155OSM    C1S17263   3.413   0.052   2.777 -0.2669 -0.7006  0.4923
  155OSM    H1S17264   3.315   0.013   2.811 -0.6248 -0.7736 -0.6039
  155OSM    H1T17265   3.401   0.162   2.774 -0.1346 -0.7021 -0.5132
  155OSM     NF17266   3.463   0.062   3.013  0.4080 -0.2417  0.2571
  155OSM    HNF17267   3.482   0.152   3.052  1.4848 -0.5040  0.3583
  155OSM    C2S17268   3.525   0.034   2.886  0.0386 -0.4112  0.3704
  155OSM    H2S17269   3.556  -0.073   2.886  3.1203  0.3315  2.5866
  155OSM    C3S17270   3.650   0.116   2.857 -0.4087  0.1540  0.0806
  155OSM    H3S17271   3.613   0.221   2.863 -2.6866 -0.6643  3.0679
  155OSM     O317272   3.695   0.095   2.725 -0.4465 -0.2247 -0.4502
  155OSM    HO317273   3.626   0.034   2.697 -1.7444 -0.2535  2.4454
  155OSM    C4S17274   3.753   0.102   2.961  0.4959  0.4845 -0.4429
  155OSM    H4S17275   3.741   0.175   3.043  2.3423 -0.4302  0.7052
  155OSM    C5S17276   3.853   0.005   2.973 -0.6454 -0.4060  0.4935
  155OSM    H5S17277   3.866  -0.063   2.887  0.2352 -0.5102  0.6935
  155OSM    C6S17278   3.945  -0.016   3.085 -0.9267  0.2689 -0.1657
  155OSM    H6S17279   4.050  -0.009   3.047  0.5452 -0.6842  3.3284
  155OSM    H6T17280   3.929  -0.120   3.120  0.1905  0.5632  1.2960
  155OSM    C7S17281   3.933   0.075   3.211  0.1466  0.2899 -0.1940
  155OSM    H7S17282   3.829   0.053   3.242  0.5681 -2.0580 -0.2130
  155OSM    H7T17283   3.961   0.181   3.191  1.3450  0.1540  0.6523
  155OSM    C8S17284   4.025   0.020   3.324  0.2980 -0.0137  0.5125
  155OSM    H8S17285   4.133   0.044   3.317  0.0586  0.7895 -0.7209
  155OSM    H8T17286   4.019  -0.088   3.299 -1.6292 -0.3308  2.1206
  155OSM    C9S17287   3.966   0.038   3.463  0.4887 -0.3066  0.2683
  155OSM    H9S17288   3.995  -0.049   3.526  1.5599 -2.0304 -2.4045
  155OSM    H9T17289   3.856   0.029   3.454  0.5261 -0.1180 -0.4907
  155OSM   C10S17290   4.012   0.177   3.513 -0.2906 -0.3994  0.2389
  155OSM   H10S17291   3.974   0.246   3.434 -0.7178  1.1717  1.7515
  155OSM   H10T17292   4.123   0.184   3.509 -0.3366  0.0705 -0.4388
  155OSM   C11S17293   3.971   0.214   3.661 -0.0810  0.0718  0.1963
  155OSM   H11S17294   3.861   0.211   3.673 -0.1860  2.1240 -0.0109
  155OSM   H11T17295   3.997   0.319   3.684 -3.5572  0.8378  1.1817
  155OSM   C12S17296   4.030   0.122   3.770 -0.4086 -0.0445 -0.8553
  155OSM   H12S17297   4.030   0.017   3.735  2.0545 -0.3035 -0.2586
  155OSM   H12T17298   3.968   0.130   3.862 -1.8614 -1.7148 -1.6379
  155OSM   C13S17299   4.168   0.153   3.818 -0.0020  1.0016  0.1401
  155OSM   H13S17300   4.185   0.260   3.845 -1.1352  0.9607  1.0900
  155OSM   H13T17301   4.251   0.117   3.753  0.3811  0.7808  0.7370
  155OSM   C14S17302   4.195   0.066   3.944  0.0337 -0.4789  0.2485
  155OSM   H14S17303   4.165  -0.040   3.931 -0.5391 -0.1582 -1.1142
  155OSM   H14T17304   4.129   0.119   4.016 -0.4510  2.8887 -2.4346
  155OSM   C15S17305   4.342   0.071   3.999  0.1722 -0.3991 -0.0876
  155OSM   H15S17306   4.381   0.174   3.989 -1.9980  0.3025 -2.1531
  155OSM   H15T17307   4.411   0.001   3.948 -1.2562  0.0051 -2.7129
  155OSM   C16S17308   4.344   0.053   4.152 -0.0083  0.5400 -0.7337
  155OSM   H16S17309   4.282  -0.033   4.186  2.8132 -0.6739  1.8317
  155OSM   H16T17310   4.304   0.140   4.208 -0.6856 -0.6484  0.6993
  155OSM   C17S17311   4.488   0.030   4.201  0.7287  0.1810 -0.0192
  155OSM   H17S17312   4.540  -0.044   4.137  0.2199  1.8871 -2.5825
  155OSM   H17T17313   4.482  -0.018   4.301 -0.5973 -3.2405 -1.5524
  155OSM   C18S17314   4.572   0.154   4.187 -0.3817 -0.7062  0.3966
  155OSM   H18S17315   4.516   0.235   4.136  0.0850  0.1122  1.1480
  155OSM   H18T17316   4.661   0.132   4.125 -0.8423  0.7903 -0.8438
  155OSM   H18U17317   4.601   0.190   4.288 -1.1530  3.6270 -0.7615
  155OSM    C1F17318   3.378  -0.015   3.075  0.1816 -0.0950  0.1276
  155OSM     OF17319   3.331  -0.108   3.016  0.1901 -0.1962  0.9295
  155OSM    C2F17320   3.335   0.015   3.219  0.8404  0.3884 -0.4287
  155OSM    H2F17321   3.356   0.122   3.237  1.2156  0.5062 -1.5108
  155OSM    H2G17322   3.389  -0.035   3.302  1.7644 -0.3431 -1.4533
  155OSM    C3F17323   3.188  -0.038   3.238  0.6934 -0.1156 -0.1004
  155OSM    H3F17324   3.193  -0.147   3.216 -1.2041 -0.2611  0.0500
  155OSM    H3G17325   3.133   0.007   3.151  0.7919  0.9296  0.3606
  155OSM    C4F17326   3.117   0.003   3.365 -0.2486  0.7077 -0.0188
  155OSM    H4F17327   3.096   0.112   3.360 -1.4716  0.4705 -0.4609
  155OSM    H4G17328   3.188  -0.014   3.449 -0.3924 -1.0976 -0.2144
  155OSM    C5F17329   2.987  -0.078   3.382 -0.1789 -0.7471 -0.0690
  155OSM    H5F17330   3.025  -0.182   3.377  2.5953  0.1763 -0.0959
  155OSM    H5G17331   2.921  -0.042   3.300 -1.5056  0.2670  1.3751
  155OSM    C6F17332   2.914  -0.042   3.512 -0.2569 -1.1242  0.6831
  155OSM    H6F17333   2.806  -0.060   3.490 -0.2524  0.3573 -0.7216
  155OSM    H6G17334   2.918   0.068   3.523 -1.3864 -0.7304 -2.0727
  155OSM    C7F17335   2.967  -0.110   3.634  0.4908 -0.3889  0.2373
  155OSM    H7F17336   3.057  -0.049   3.660  1.1438  0.6183 -3.6860
  155OSM    H7G17337   3.000  -0.212   3.609 -1.6126 -0.7780 -1.2136
  155OSM    C8F17338   2.860  -0.122   3.743  0.0499  0.0005 -0.0305
  155OSM    H8F17339   2.892  -0.195   3.820  0.0787 -1.9078 -1.7685
  155OSM    H8G17340   2.778  -0.181   3.697  0.3133 -1.2768  1.0752
  155OSM    C9F17341   2.831   0.017   3.799  0.6239  0.4755  0.7713
  155OSM    H9F17342   2.812   0.087   3.716 -0.6649 -0.7741 -0.0322
  155OSM   C10F17343   2.821   0.050   3.929  0.0824 -0.8356 -0.1642
  155OSM   H10F17344   2.783   0.147   3.962  1.5202 -0.4070  0.3113
  155OSM   C11F17345   2.846  -0.047   4.046  0.7485  0.6534  0.2185
  155OSM   H11F17346   2.824  -0.154   4.024  1.4156  0.5194  0.1877
  155OSM   H11G17347   2.783  -0.030   4.136  0.5294 -1.8639  0.6149
  155OSM   C12F17348   2.992  -0.046   4.099 -0.2100  0.7093  0.0995
  155OSM   H12F17349   3.011   0.059   4.130  0.6063  0.9454 -1.1505
  155OSM   H12G17350   3.064  -0.075   4.020 -0.0182 -0.9459  0.8508
  155OSM   C13F17351   3.011  -0.134   4.221  0.0804  0.7221 -0.0983
  155OSM   H13F17352   2.935  -0.215   4.222  1.3441 -0.5170 -0.3746
  155OSM   H13G17353   2.984  -0.078   4.313 -0.5433  2.3143 -1.2132
  155OSM   C14F17354   3.151  -0.190   4.233 -0.1156  0.3516  0.0298
  155OSM   H14F17355   3.214  -0.099   4.227  0.2023  0.5546  4.0190
  155OSM   H14G17356   3.165  -0.254   4.143 -1.9143  0.6195 -0.4833
  155OSM   C15F17357   3.178  -0.272   4.361 -0.4831 -0.4346 -0.0281
  155OSM   H15F17358   3.104  -0.354   4.378  0.3538 -0.8643  1.8036
  155OSM   H15G17359   3.156  -0.195   4.438 -1.3693  2.0469 -2.6252
  155OSM   C16F17360   3.318  -0.325   4.390  0.0327  0.2369 -0.1532
  155OSM   H16F17361   3.341  -0.364   4.491  1.7253 -1.7513 -1.2215
  155OSM   H16G17362   3.387  -0.238   4.382 -2.3174  2.2812  0.6438
  155OSM   C17F17363   3.368  -0.450   4.299 -0.6184 -0.0029  0.1348
  155OSM   H17F17364   3.319  -0.542   4.336  1.8056 -1.1478  0.7206
  155OSM   H17G17365   3.476  -0.458   4.323 -0.5760  2.9820  1.4829
  155OSM   C18F17366   3.350  -0.434   4.142 -0.0123 -0.3523 -0.2520
  155OSM   H18F17367   3.395  -0.518   4.086  2.4158 -0.1730  1.2854
  155OSM   H18G17368   3.401  -0.339   4.116  1.7676 -1.3346 -0.5048
  155OSM   H18H17369   3.243  -0.424   4.112 -1.1138  2.4127  3.7458
  156OSM      N17370   0.516   0.933   2.191 -0.5157  0.4696 -0.4102
  156OSM    C1517371   0.459   1.067   2.152 -0.2199 -0.0992 -0.0118
  156OSM   H15A17372   0.380   1.100   2.219 -1.4853 -0.6559 -1.1674
  156OSM   H15B17373   0.427   1.056   2.049  2.1121 -1.8390 -0.6076
  156OSM   H15C17374   0.535   1.143   2.147 -0.2036  0.0683  1.9253
  156OSM    C1417375   0.414   0.821   2.165 -0.1486 -0.0265  0.0938
  156OSM   H14A17376   0.373   0.826   2.065  1.3550 -0.3277 -0.5647
  156OSM   H14B17377   0.326   0.821   2.228 -0.4452  0.6264 -0.3045
  156OSM   H14C17378   0.464   0.729   2.191 -0.1349 -0.7039 -2.0921
  156OSM    C1317379   0.637   0.919   2.109  0.6732  0.0623 -0.3948
  156OSM   H13A17380   0.624   0.871   2.013  0.3048 -1.5672  0.4327
  156OSM   H13B17381   0.708   0.848   2.149  0.6277 -0.0730 -0.5522
  156OSM   H13C17382   0.690   1.013   2.102 -1.3214  1.2379 -0.6829
  156OSM    C1217383   0.558   0.935   2.340  1.1045  0.5488 -0.2317
  156OSM   H12A17384   0.471   0.934   2.403  1.9648 -0.5862  1.0031
  156OSM   H12B17385   0.611   1.025   2.368  3.2930 -1.3532  2.2319
  156OSM    C1117386   0.655   0.817   2.392  0.0921 -0.1145 -0.3476
  156OSM   H11A17387   0.670   0.819   2.502 -0.6892 -1.5791 -0.1888
  156OSM   H11B17388   0.758   0.831   2.352  1.7103  2.3207  3.9313
  156OSM      P17389   0.509   0.608   2.452 -0.5585 -0.1646 -0.6666
  156OSM    O1317390   0.393   0.566   2.375 -0.2193 -0.0351  0.1660
  156OSM    O1417391   0.587   0.504   2.520  0.0166 -0.4217  0.4171
  156OSM    O1117392   0.459   0.703   2.570  0.1698 -0.4186  0.3785
  156OSM    O1217393   0.606   0.693   2.361 -0.0426  0.2524 -0.5126
  156OSM    C1S17394   0.342   0.663   2.644 -0.4307  0.6540  0.2292
  156OSM    H1S17395   0.347   0.555   2.669 -0.3005  0.1806 -1.7076
  156OSM    H1T17396   0.243   0.684   2.600  0.9341  1.8569 -2.5007
  156OSM     NF17397   0.227   0.672   2.859  0.0786 -0.1148  0.2665
  156OSM    HNF17398   0.137   0.715   2.864  1.1423  2.1733  1.2853
  156OSM    C2S17399   0.332   0.741   2.783 -0.0102 -0.1785 -0.0327
  156OSM    H2S17400   0.426   0.718   2.838 -1.5283 -3.4193  1.4149
  156OSM    C3S17401   0.303   0.887   2.759 -0.8451 -0.3601  0.5061
  156OSM    H3S17402   0.198   0.912   2.737 -0.4688  0.9151  0.1079
  156OSM     O317403   0.382   0.944   2.655 -0.5337 -0.3051  0.2588
  156OSM    HO317404   0.403   0.867   2.601 -0.6976  0.2769 -0.6572
  156OSM    C4S17405   0.344   0.964   2.879 -0.0816  0.7739 -0.1893
  156OSM    H4S17406   0.448   0.959   2.915  0.5253  0.6276 -1.8942
  156OSM    C5S17407   0.259   1.045   2.954 -0.7140  0.6741 -0.3771
  156OSM    H5S17408   0.153   1.043   2.926 -1.1388  2.1811  0.9929
  156OSM    C6S17409   0.294   1.120   3.080  0.0260  0.4883 -0.3943
  156OSM    H6S17410   0.214   1.185   3.121  1.8876  2.6547  0.0093
  156OSM    H6T17411   0.379   1.191   3.064  1.1295 -1.2357 -3.0258
  156OSM    C7S17412   0.344   1.036   3.202 -0.3622 -0.6740  0.0104
  156OSM    H7S17413   0.443   0.993   3.175  0.4972  1.4181 -0.3700
  156OSM    H7T17414   0.274   0.951   3.212 -0.2085 -0.5868  2.2418
  156OSM    C8S17415   0.367   1.116   3.331  0.3747 -0.2845  0.6777
  156OSM    H8S17416   0.284   1.183   3.364 -1.3686 -2.4051  0.8018
  156OSM    H8T17417   0.453   1.186   3.321  0.8178 -1.1554 -3.3053
  156OSM    C9S17418   0.399   1.026   3.447  0.2144  0.0682  0.0210
  156OSM    H9S17419   0.500   0.984   3.427  0.4293  1.4616 -2.1251
  156OSM    H9T17420   0.344   0.929   3.448 -1.6139  1.0531 -0.3184
  156OSM   C10S17421   0.384   1.092   3.580  0.1531  0.2315 -0.2333
  156OSM   H10S17422   0.280   1.131   3.581  0.6311  1.5881 -0.6663
  156OSM   H10T17423   0.452   1.179   3.594  0.9897 -0.3183 -0.7316
  156OSM   C11S17424   0.389   1.006   3.702  0.3519 -0.0946 -0.7695
  156OSM   H11S17425   0.475   0.935   3.701 -0.1788 -0.7875 -2.9298
  156OSM   H11T17426   0.299   0.940   3.704 -0.3359  0.7505 -2.0500
  156OSM   C12S17427   0.380   1.090   3.833  0.4012  0.4000  0.7847
  156OSM   H12S17428   0.324   1.185   3.815  0.5736  0.2669 -0.5071
  156OSM   H12T17429   0.478   1.143   3.838 -0.2527  1.7354  0.1799
  156OSM   C13S17430   0.349   1.018   3.969 -0.4922  0.3808  0.0029
  156OSM   H13S17431   0.412   0.927   3.978 -0.9314 -0.0097 -0.7845
  156OSM   H13T17432   0.244   0.982   3.968 -0.4882  0.2901  1.3089
  156OSM   C14S17433   0.370   1.108   4.092  0.4747 -0.1153  0.1621
  156OSM   H14S17434   0.318   1.204   4.072  2.1479  0.5972 -1.0580
  156OSM   H14T17435   0.477   1.140   4.094  0.5660 -0.3854 -0.2206
  156OSM   C15S17436   0.323   1.039   4.218 -0.1362  0.7221  0.5205
  156OSM   H15S17437   0.392   0.959   4.253  1.5880  1.7045 -0.4985
  156OSM   H15T17438   0.229   0.987   4.190  1.3769 -1.6618 -0.4988
  156OSM   C16S17439   0.307   1.142   4.336  0.5432  0.5396  0.1204
  156OSM   H16S17440   0.394   1.211   4.337  1.0505  0.0760  3.6310
  156OSM   H16T17441   0.309   1.059   4.411 -2.1598 -1.3237 -1.7205
  156OSM   C17S17442   0.164   1.200   4.358 -0.2491 -0.3674 -0.1631
  156OSM   H17S17443   0.088   1.129   4.320  0.3144 -0.6274 -0.8355
  156OSM   H17T17444   0.157   1.284   4.286  1.5400  1.6438  1.8472
  156OSM   C18S17445   0.133   1.259   4.494  0.2579 -0.1922  0.1357
  156OSM   H18S17446   0.209   1.337   4.517 -1.6297  1.7285  0.1318
  156OSM   H18T17447   0.139   1.181   4.573 -2.0920  0.1322  0.7115
  156OSM   H18U17448   0.033   1.308   4.500 -1.1790 -3.0285  1.2989
  156OSM    C1F17449   0.238   0.548   2.909  0.0983 -0.2817 -0.4832
  156OSM     OF17450   0.334   0.476   2.889 -1.3023 -0.4315  0.4305
  156OSM    C2F17451   0.117   0.493   2.970  0.5732 -0.0618 -0.4199
  156OSM    H2F17452   0.097   0.394   2.923  1.1604 -1.1632  1.5009
  156OSM    H2G17453   0.032   0.562   2.952  1.1315  0.3828 -1.4084
  156OSM    C3F17454   0.120   0.471   3.120  0.7118 -0.3899 -0.1102
  156OSM    H3F17455   0.124   0.563   3.182  0.2907 -0.7888  0.5296
  156OSM    H3G17456   0.204   0.400   3.140  0.0240 -0.9231  1.0612
  156OSM    C4F17457  -0.013   0.405   3.160  0.3849 -0.7754  0.0519
  156OSM    H4F17458  -0.033   0.313   3.101 -0.6823 -0.7942  0.4249
  156OSM    H4G17459  -0.097   0.476   3.149  1.1184 -0.1139 -1.5298
  156OSM    C5F17460  -0.011   0.376   3.309 -0.1497 -0.0980  0.1062
  156OSM    H5F17461  -0.022   0.471   3.365  2.1145 -0.1220  0.6998
  156OSM    H5G17462   0.084   0.324   3.334 -0.5180  0.0638  2.0015
  156OSM    C6F17463  -0.128   0.294   3.364  0.6740  0.3976 -0.9512
  156OSM    H6F17464  -0.230   0.333   3.340  0.3864  2.3387  2.6819
  156OSM    H6G17465  -0.115   0.277   3.473  0.3152  1.5329 -0.7155
  156OSM    C7F17466  -0.130   0.148   3.304  0.4031 -0.5966 -0.1110
  156OSM    H7F17467  -0.089   0.074   3.376  0.0575 -1.6939 -1.0181
  156OSM    H7G17468  -0.057   0.147   3.220 -0.5087  2.1022 -1.0410
  156OSM    C8F17469  -0.263   0.093   3.260 -0.0193 -0.5489 -0.8465
  156OSM    H8F17470  -0.307   0.165   3.188 -0.1447  1.0945  0.7871
  156OSM    H8G17471  -0.322   0.108   3.353  1.9850 -2.3834  0.8338
  156OSM    C9F17472  -0.278  -0.047   3.218 -0.6871  0.6378  0.0500
  156OSM    H9F17473  -0.272  -0.048   3.108  0.6162  0.1398  0.0998
  156OSM   C10F17474  -0.290  -0.166   3.285 -0.1745 -0.0809 -0.0703
  156OSM   H10F17475  -0.304  -0.248   3.213  0.6647  0.4467 -0.8462
  156OSM   C11F17476  -0.307  -0.196   3.427 -0.0498 -0.0872 -0.1957
  156OSM   H11F17477  -0.414  -0.191   3.456  0.7218  2.4221  2.7343
  156OSM   H11G17478  -0.277  -0.111   3.493 -2.3382  1.0337 -0.4997
  156OSM   C12F17479  -0.254  -0.336   3.473  0.2453 -0.2489  0.6855
  156OSM   H12F17480  -0.152  -0.352   3.433 -0.0718 -2.4020  0.6024
  156OSM   H12G17481  -0.315  -0.419   3.431 -0.5341  0.2163  0.8661
  156OSM   C13F17482  -0.251  -0.343   3.626  0.1332  0.1808 -0.6142
  156OSM   H13F17483  -0.179  -0.272   3.673 -0.3147  0.5754 -0.5175
  156OSM   H13G17484  -0.207  -0.441   3.655  0.9195  1.1281  1.7013
  156OSM   C14F17485  -0.383  -0.305   3.690 -0.1913 -0.0709 -0.4673
  156OSM   H14F17486  -0.453  -0.365   3.629  0.4364 -3.4591  1.8780
  156OSM   H14G17487  -0.399  -0.195   3.682  1.3577  0.1295 -1.1913
  156OSM   C15F17488  -0.384  -0.354   3.836  0.0763  0.3390 -0.4253
  156OSM   H15F17489  -0.290  -0.316   3.883  0.4636 -0.2357 -0.7239
  156OSM   H15G17490  -0.373  -0.464   3.825  0.9651  0.4757 -1.0464
  156OSM   C16F17491  -0.503  -0.307   3.919 -0.3401  0.5628 -0.5796
  156OSM   H16F17492  -0.591  -0.360   3.877 -0.8182 -0.4433  1.5497
  156OSM   H16G17493  -0.513  -0.197   3.922 -0.3162  0.5937  3.3972
  156OSM   C17F17494  -0.493  -0.351   4.070  0.0643 -1.0918  0.3083
  156OSM   H17F17495  -0.566  -0.287   4.124  1.4475 -0.0180  0.9552
  156OSM   H17G17496  -0.390  -0.334   4.107  0.4940  1.3510 -1.6622
  156OSM   C18F17497  -0.517  -0.497   4.098  0.0759 -0.0717 -0.5126
  156OSM   H18F17498  -0.456  -0.550   4.022  2.1665 -0.5647  1.3784
  156OSM   H18G17499  -0.623  -0.524   4.076 -0.3997 -1.8836  3.1444
  156OSM   H18H17500  -0.486  -0.529   4.200  0.2395 -1.5310 -1.0006
  157OSM      N17501   6.005   6.872   2.608  0.0199  0.0688  0.0040
  157OSM    C1517502   5.944   6.829   2.740  0.1307  0.0810 -0.5248
  157OSM   H15A17503   5.909   6.727   2.742 -0.0880  0.0390  4.2880
  157OSM   H15B17504   5.879   6.907   2.778  0.8282 -0.1886  1.3180
  157OSM   H15C17505   6.022   6.824   2.814 -1.0327 -0.9081  0.6846
  157OSM    C1417506   6.100   6.769   2.553  0.2675 -0.0116 -0.0595
  157OSM   H14A17507   6.175   6.770   2.632 -0.6043  2.3814  0.8321
  157OSM   H14B17508   6.139   6.801   2.458  1.2582  0.2867  0.4321
  157OSM   H14C17509   6.062   6.668   2.547 -0.9965  0.3567  1.0845
  157OSM    C1317510   5.890   6.886   2.516 -1.5854  0.6351 -0.0023
  157OSM   H13A17511   5.930   6.900   2.417 -1.8278  2.5846  0.1393
  157OSM   H13B17512   5.842   6.981   2.537 -1.0015  0.5235  2.0767
  157OSM   H13C17513   5.813   6.811   2.514 -1.4160  0.1868  3.6285
  157OSM    C1217514   6.067   7.011   2.622 -0.3801  0.5114 -0.0497
  157OSM   H12A17515   6.102   7.039   2.523 -2.0065 -2.9559 -1.8163
  157OSM   H12B17516   6.152   7.003   2.688  0.5485  0.9309 -1.1529
  157OSM    C1117517   5.980   7.128   2.669 -0.5272 -0.4599  0.0440
  157OSM   H11A17518   6.043   7.216   2.692 -1.1869  0.1786 -0.5183
  157OSM   H11B17519   5.928   7.102   2.763  0.5542  1.4910  1.2312
  157OSM      P17520   5.906   7.253   2.450 -0.1129 -0.0271 -0.2536
  157OSM    O1317521   6.050   7.292   2.449 -0.0943  0.4319  0.5694
  157OSM    O1417522   5.849   7.199   2.321  0.4922  0.2170  0.0860
  157OSM    O1117523   5.826   7.387   2.487 -0.5066 -0.3836 -0.2845
  157OSM    O1217524   5.879   7.166   2.581  0.4376  0.6915  0.3127
  157OSM    C1S17525   5.686   7.373   2.537  0.3063  0.5664 -0.0415
  157OSM    H1S17526   5.640   7.272   2.533  0.8251  0.1183  2.8924
  157OSM    H1T17527   5.621   7.437   2.473 -2.5537 -1.7809  0.2659
  157OSM     NF17528   5.532   7.415   2.711  0.5256  0.5562  0.0236
  157OSM    HNF17529   5.492   7.505   2.697 -0.6610 -0.2252 -1.9798
  157OSM    C2S17530   5.676   7.399   2.691 -0.0136  0.3822 -0.2710
  157OSM    H2S17531   5.712   7.311   2.748 -0.4735  0.6704  0.4826
  157OSM    C3S17532   5.756   7.525   2.740  0.5012  0.0331 -0.5048
  157OSM    H3S17533   5.740   7.610   2.670 -0.6011 -0.9308 -1.4676
  157OSM     O317534   5.899   7.506   2.717  0.2116  0.4396 -0.1062
  157OSM    HO317535   5.896   7.449   2.640  0.3771 -0.2410  0.3754
  157OSM    C4S17536   5.740   7.550   2.889  0.0676  0.0290 -0.7720
  157OSM    H4S17537   5.816   7.495   2.946  0.4148  0.7360 -0.5469
  157OSM    C5S17538   5.662   7.641   2.948  0.9490  0.3425  0.8839
  157OSM    H5S17539   5.611   7.720   2.890  0.6170 -0.0695  0.6053
  157OSM    C6S17540   5.644   7.648   3.098  0.0851 -0.0039  0.5434
  157OSM    H6S17541   5.636   7.753   3.131 -2.1536 -0.1574  0.6613
  157OSM    H6T17542   5.740   7.611   3.142 -0.2145 -0.7869  0.5628
  157OSM    C7S17543   5.531   7.557   3.146 -0.2893 -0.4019 -0.5043
  157OSM    H7S17544   5.540   7.453   3.108  2.2504 -1.3436  2.2471
  157OSM    H7T17545   5.434   7.597   3.110 -0.4239  1.9076  2.0459
  157OSM    C8S17546   5.510   7.553   3.303 -0.1553 -0.1219 -0.4790
  157OSM    H8S17547   5.530   7.648   3.356  1.6940 -1.9202  2.3107
  157OSM    H8T17548   5.577   7.472   3.339 -1.3522 -0.7074  0.4991
  157OSM    C9S17549   5.367   7.509   3.340 -0.6625 -0.3248  0.1183
  157OSM    H9S17550   5.329   7.441   3.261 -0.5883  1.0030 -1.1123
  157OSM    H9T17551   5.290   7.588   3.322  0.0705  0.1011 -1.3240
  157OSM   C10S17552   5.349   7.430   3.471  0.4887  0.3737 -0.1333
  157OSM   H10S17553   5.439   7.369   3.491 -0.0266 -0.9448 -1.6273
  157OSM   H10T17554   5.270   7.352   3.464  0.0311  0.6325  1.5711
  157OSM   C11S17555   5.322   7.524   3.589 -0.4418  0.9097 -0.3000
  157OSM   H11S17556   5.258   7.487   3.672  0.7647  1.8553  1.1122
  157OSM   H11T17557   5.262   7.604   3.541 -2.6125 -0.4978 -0.0824
  157OSM   C12S17558   5.450   7.579   3.660 -0.1729 -0.3084  0.1216
  157OSM   H12S17559   5.503   7.655   3.600  1.1983 -0.2973  1.2970
  157OSM   H12T17560   5.527   7.500   3.675 -0.1820 -0.3681 -0.1293
  157OSM   C13S17561   5.413   7.661   3.785  0.3408  0.3058 -0.0021
  157OSM   H13S17562   5.326   7.723   3.756 -0.0269  0.2549  0.9354
  157OSM   H13T17563   5.495   7.732   3.811  1.7999 -1.1276 -0.4970
  157OSM   C14S17564   5.390   7.567   3.909 -0.1709  0.4816  0.2170
  157OSM   H14S17565   5.489   7.522   3.930  1.0661  1.9212 -2.0901
  157OSM   H14T17566   5.322   7.486   3.873 -0.7259  1.2630 -0.5268
  157OSM   C15S17567   5.342   7.645   4.036  0.4365  0.0037 -0.7001
  157OSM   H15S17568   5.239   7.675   4.006  0.6284 -0.0041 -1.3746
  157OSM   H15T17569   5.397   7.737   4.063  0.0473  0.5543 -1.7463
  157OSM   C16S17570   5.320   7.545   4.147 -0.8603 -0.1293 -0.3022
  157OSM   H16S17571   5.265   7.459   4.104 -0.3665 -0.4084 -0.3780
  157OSM   H16T17572   5.255   7.600   4.218  0.8863 -0.4697  1.6473
  157OSM   C17S17573   5.445   7.488   4.205 -0.8356 -0.4243  0.1692
  157OSM   H17S17574   5.534   7.553   4.194 -1.4507  0.0516 -2.4911
  157OSM   H17T17575   5.471   7.396   4.148  1.0791  0.1059  0.1385
  157OSM   C18S17576   5.422   7.455   4.349  0.0589  0.2109  0.0772
  157OSM   H18S17577   5.351   7.370   4.343  1.1513 -0.8199  1.1932
  157OSM   H18T17578   5.386   7.547   4.401 -0.4712 -1.1643  2.2980
  157OSM   H18U17579   5.517   7.425   4.398 -1.4253  2.2638  4.8183
  157OSM    C1F17580   5.461   7.301   2.729 -0.0062 -0.3187 -0.0727
  157OSM     OF17581   5.522   7.195   2.756 -0.2441 -0.1257 -0.2444
  157OSM    C2F17582   5.311   7.304   2.711 -0.5427 -0.1331  0.4197
  157OSM    H2F17583   5.297   7.278   2.604  0.5340 -1.8176  0.6401
  157OSM    H2G17584   5.280   7.408   2.733 -2.0118 -0.2010 -1.1660
  157OSM    C3F17585   5.234   7.202   2.808 -0.7653 -0.3419 -0.2276
  157OSM    H3F17586   5.276   7.103   2.781 -1.3615 -0.4782 -0.6839
  157OSM    H3G17587   5.129   7.201   2.771  0.0517 -1.2011 -2.6528
  157OSM    C4F17588   5.255   7.242   2.951  0.0250 -0.2078 -0.4429
  157OSM    H4F17589   5.220   7.345   2.973 -1.0887 -0.8770  1.1068
  157OSM    H4G17590   5.360   7.236   2.988 -0.1662  0.4570  0.2346
  157OSM    C5F17591   5.169   7.147   3.038 -0.2224  0.1401  0.2978
  157OSM    H5F17592   5.214   7.047   3.021  1.9923  0.9822  0.8938
  157OSM    H5G17593   5.065   7.147   2.999  0.0820  3.5285 -0.8272
  157OSM    C6F17594   5.167   7.177   3.191  0.2190 -0.2019  0.4594
  157OSM    H6F17595   5.120   7.277   3.203  0.5788  0.1538 -0.8879
  157OSM    H6G17596   5.275   7.191   3.214  0.3824 -0.0009 -0.4133
  157OSM    C7F17597   5.110   7.064   3.278 -0.7709  0.0106 -0.3314
  157OSM    H7F17598   5.177   6.976   3.291 -1.2688  0.0605  4.4355
  157OSM    H7G17599   5.020   7.023   3.228  0.5582 -1.7130 -1.4389
  157OSM    C8F17600   5.066   7.121   3.420  0.0983  0.8346  0.2041
  157OSM    H8F17601   5.007   7.216   3.421 -1.3427 -0.0164  2.3041
  157OSM    H8G17602   5.170   7.139   3.454  0.9826 -1.6324 -0.9776
  157OSM    C9F17603   5.009   7.013   3.510 -0.0140  0.4369  0.6292
  157OSM    H9F17604   4.919   6.966   3.470 -0.1215  1.2793 -0.1819
  157OSM   C10F17605   5.045   6.988   3.634  0.0229  0.3976 -0.4439
  157OSM   H10F17606   4.989   6.906   3.680 -0.0709 -0.7708 -2.5185
  157OSM   C11F17607   5.145   7.060   3.722  0.4463 -0.0517 -0.2369
  157OSM   H11F17608   5.196   7.139   3.662 -1.3588  0.5481 -1.0586
  157OSM   H11G17609   5.213   6.980   3.757  2.0193  1.2518 -0.1617
  157OSM   C12F17610   5.070   7.117   3.843 -0.4054  0.0489  0.6214
  157OSM   H12F17611   4.991   7.052   3.888  0.9716 -1.6689  0.6823
  157OSM   H12G17612   5.013   7.209   3.817 -2.1777 -1.3322 -0.6221
  157OSM   C13F17613   5.158   7.152   3.962 -0.3426 -0.1072 -0.0345
  157OSM   H13F17614   5.092   7.206   4.034  0.8407  0.9512  0.2909
  157OSM   H13G17615   5.239   7.221   3.933 -0.9270  0.3138 -0.6958
  157OSM   C14F17616   5.213   7.032   4.047  0.7595  0.1093 -0.1836
  157OSM   H14F17617   5.304   6.985   4.003 -0.6706 -2.1694 -0.8627
  157OSM   H14G17618   5.132   6.956   4.041  0.3739  0.5691 -0.9227
  157OSM   C15F17619   5.231   7.069   4.193 -0.7047  0.6896 -0.9844
  157OSM   H15F17620   5.134   7.109   4.229 -0.8658 -1.4939  1.3221
  157OSM   H15G17621   5.305   7.151   4.206  1.1451 -0.7453 -2.0733
  157OSM   C16F17622   5.274   6.956   4.287  0.1437 -0.1523 -0.3835
  157OSM   H16F17623   5.357   6.896   4.244  0.1044  0.5571 -1.4827
  157OSM   H16G17624   5.200   6.875   4.300 -0.2381  0.2883  0.2694
  157OSM   C17F17625   5.310   7.010   4.429 -0.5842 -0.1928  0.2938
  157OSM   H17F17626   5.213   7.060   4.451 -0.4063  1.8419 -2.8127
  157OSM   H17G17627   5.386   7.090   4.414 -0.5008 -0.0007  1.6259
  157OSM   C18F17628   5.362   6.911   4.524 -0.1888 -0.5724 -0.4891
  157OSM   H18F17629   5.448   6.859   4.476  0.6907  1.6405 -1.4839
  157OSM   H18G17630   5.277   6.844   4.547 -2.3678  2.2965  0.2733
  157OSM   H18H17631   5.411   6.958   4.612  1.7627  0.3860 -2.0041
  158OSM      N17632   2.976   5.958   1.909  0.2343  0.0551  0.0709
  158OSM    C1517633   3.101   5.937   1.826  0.0070 -0.6669 -0.5262
  158OSM   H15A17634   3.073   5.947   1.722 -3.9622  0.1952  0.4371
  158OSM   H15B17635   3.135   5.835   1.837 -1.2147 -1.1814 -1.3196
  158OSM   H15C17636   3.172   6.016   1.843 -0.7629  0.0144 -0.4216
  158OSM    C1417637   2.912   6.084   1.874 -1.0742  0.0251  0.2717
  158OSM   H14A17638   2.983   6.154   1.832  0.0147  0.4237  2.6012
  158OSM   H14B17639   2.863   6.122   1.962  1.1831  0.8735  1.2403
  158OSM   H14C17640   2.837   6.068   1.798 -1.6178  0.6844  0.6587
  158OSM    C1317641   2.874   5.852   1.887  0.7094  0.7097  0.4938
  158OSM   H13A17642   2.828   5.848   1.790  2.5409 -0.3239 -0.3988
  158OSM   H13B17643   2.793   5.847   1.958  0.8454  2.7680  0.8661
  158OSM   H13C17644   2.917   5.754   1.903 -0.9982  0.0700  1.3928
  158OSM    C1217645   3.013   5.957   2.050 -0.3751  0.0537 -0.2311
  158OSM   H12A17646   3.047   5.860   2.085  0.1231  1.1896  2.6532
  158OSM   H12B17647   2.924   5.966   2.110 -1.3804  1.9093 -1.8764
  158OSM    C1117648   3.124   6.053   2.099  0.1611 -0.2796  0.2616
  158OSM   H11A17649   3.127   6.059   2.210 -0.7207 -1.1218  0.3398
  158OSM   H11B17650   3.092   6.148   2.051 -1.3806 -0.9015 -0.0091
  158OSM      P17651   3.322   5.891   2.109 -0.3679 -0.0251 -0.2151
  158OSM    O1317652   3.265   5.777   2.030  0.5820 -0.7931 -0.3860
  158OSM    O1417653   3.470   5.914   2.106  0.1366  0.1585 -0.0710
  158OSM    O1117654   3.271   5.892   2.258 -0.2641  0.1201  0.0709
  158OSM    O1217655   3.254   6.024   2.054 -0.6487  0.0870  0.6077
  158OSM    C1S17656   3.332   5.817   2.368  0.2296  0.3786  0.3768
  158OSM    H1S17657   3.433   5.861   2.387 -0.0931  0.9214  0.8772
  158OSM    H1T17658   3.349   5.709   2.349 -0.9401  0.3979 -0.9096
  158OSM     NF17659   3.334   5.767   2.615  0.3932  0.0213 -0.3290
  158OSM    HNF17660   3.302   5.681   2.653  0.2465  1.0803  2.1643
  158OSM    C2S17661   3.261   5.833   2.509 -0.2881 -1.0113  0.0563
  158OSM    H2S17662   3.248   5.940   2.536  0.2158 -1.1352  0.8297
  158OSM    C3S17663   3.114   5.778   2.490 -0.0932 -0.0688 -0.1227
  158OSM    H3S17664   3.117   5.671   2.463  1.2396 -0.1638  0.3063
  158OSM     O317665   3.035   5.843   2.386 -0.1061 -0.0009  0.2390
  158OSM    HO317666   3.102   5.881   2.329 -0.3989  0.8217  0.4341
  158OSM    C4S17667   3.029   5.778   2.624 -0.5355 -0.5482 -0.3685
  158OSM    H4S17668   3.032   5.681   2.677 -1.0792 -0.1755  0.3711
  158OSM    C5S17669   2.964   5.884   2.675  0.0546  0.4551 -0.7660
  158OSM    H5S17670   2.977   5.985   2.633 -2.9628  0.4305 -2.0604
  158OSM    C6S17671   2.901   5.876   2.810  0.6193  0.2288 -0.1823
  158OSM    H6S17672   2.790   5.875   2.807  0.5273 -0.1490  1.9253
  158OSM    H6T17673   2.909   5.976   2.857 -2.7987  0.0500  1.0663
  158OSM    C7S17674   2.939   5.766   2.912  0.0805  0.3856 -0.5851
  158OSM    H7S17675   3.048   5.761   2.931 -0.1760 -1.5760  0.5679
  158OSM    H7T17676   2.901   5.670   2.871 -3.1157  0.9833  0.6878
  158OSM    C8S17677   2.879   5.788   3.051  0.1438 -0.4010 -0.3682
  158OSM    H8S17678   2.878   5.684   3.090 -1.6977 -1.4740 -2.9692
  158OSM    H8T17679   2.778   5.832   3.046 -0.3289 -1.5530 -1.8778
  158OSM    C9S17680   2.968   5.865   3.155  0.2813  0.5357  0.5524
  158OSM    H9S17681   2.999   5.963   3.114 -1.1008 -0.4657 -3.3145
  158OSM    H9T17682   3.050   5.790   3.150 -0.7074 -0.5161 -2.8516
  158OSM   C10S17683   2.908   5.873   3.292  0.1340  0.4740  0.2233
  158OSM   H10S17684   2.877   5.769   3.318  1.6297 -0.3007 -0.9441
  158OSM   H10T17685   2.806   5.918   3.286 -0.3207 -0.5894 -0.3168
  158OSM   C11S17686   2.987   5.943   3.399  0.0400  0.4243 -0.2112
  158OSM   H11S17687   2.990   6.051   3.375 -0.1774  1.0148  2.1660
  158OSM   H11T17688   3.086   5.896   3.414  0.3254  0.3052 -2.2142
  158OSM   C12S17689   2.918   5.933   3.531 -0.1508  0.2973 -0.0855
  158OSM   H12S17690   2.901   5.823   3.539 -1.3233  0.5522  1.4159
  158OSM   H12T17691   2.819   5.984   3.528 -0.5946 -0.5914 -2.4084
  158OSM   C13S17692   2.989   5.977   3.659 -0.3848  0.2659  0.4146
  158OSM   H13S17693   3.011   6.085   3.649  0.3920  0.2993  2.1102
  158OSM   H13T17694   3.089   5.932   3.643 -0.8720 -0.9119  0.5365
  158OSM   C14S17695   2.923   5.931   3.790  0.3413 -0.0535  0.3243
  158OSM   H14S17696   2.902   5.822   3.794  0.5593 -0.0644  2.1914
  158OSM   H14T17697   2.825   5.980   3.804 -0.7292 -2.6100  2.6963
  158OSM   C15S17698   3.008   5.975   3.917  0.7464  0.2069 -0.1951
  158OSM   H15S17699   3.033   6.082   3.899  0.6803  0.8053  2.8038
  158OSM   H15T17700   3.101   5.916   3.905  0.2542 -0.5773 -0.2159
  158OSM   C16S17701   2.932   5.956   4.054 -0.2164  0.6344  0.2966
  158OSM   H16S17702   2.847   6.027   4.045  0.0400  0.8733 -0.2789
  158OSM   H16T17703   2.993   5.997   4.137 -0.6782  1.4946  0.2313
  158OSM   C17S17704   2.881   5.813   4.085  0.2231  0.1347 -0.0222
  158OSM   H17S17705   2.946   5.723   4.084  1.6860  1.1346 -2.0460
  158OSM   H17T17706   2.802   5.806   4.007 -0.6226  0.0796  0.8153
  158OSM   C18S17707   2.798   5.801   4.214  0.0499 -0.4220 -0.0625
  158OSM   H18S17708   2.847   5.855   4.298  0.4421  0.2619 -0.7228
  158OSM   H18T17709   2.784   5.693   4.237  0.5280 -0.6263 -0.7138
  158OSM   H18U17710   2.699   5.851   4.206  1.0473  1.6525 -0.0264
  158OSM    C1F17711   3.443   5.809   2.669  0.1885  0.5115 -0.4415
  158OSM     OF17712   3.493   5.910   2.630  0.2167  0.5948  0.3755
  158OSM    C2F17713   3.509   5.718   2.769  0.0997  0.0469  0.9392
  158OSM    H2F17714   3.594   5.663   2.723 -0.9411 -0.6091 -0.2482
  158OSM    H2G17715   3.429   5.655   2.813 -1.4429  2.1675  1.3504
  158OSM    C3F17716   3.576   5.782   2.891 -0.1099  0.1440  0.3232
  158OSM    H3F17717   3.503   5.829   2.960 -0.0108 -1.0765  1.3003
  158OSM    H3G17718   3.639   5.869   2.862 -0.3039  1.0811  2.4983
  158OSM    C4F17719   3.657   5.683   2.980  0.8093  0.0713  0.5277
  158OSM    H4F17720   3.718   5.610   2.921  0.3047 -0.3007  0.4649
  158OSM    H4G17721   3.580   5.618   3.026  0.9408 -0.4818 -0.0187
  158OSM    C5F17722   3.747   5.752   3.081 -0.0360 -0.4643  0.3023
  158OSM    H5F17723   3.785   5.850   3.044  0.6469 -1.0173 -0.5019
  158OSM    H5G17724   3.841   5.695   3.092 -0.5463 -1.5489 -0.7727
  158OSM    C6F17725   3.686   5.764   3.220 -0.7734  0.3290 -0.2784
  158OSM    H6F17726   3.582   5.803   3.216 -0.6533  0.6840 -0.0137
  158OSM    H6G17727   3.751   5.829   3.282 -1.7455  1.0493  0.0178
  158OSM    C7F17728   3.691   5.622   3.279 -0.5876 -0.5100  0.2462
  158OSM    H7F17729   3.777   5.566   3.237  0.3100 -0.2393  1.6386
  158OSM    H7G17730   3.600   5.569   3.244 -0.2876 -0.3273 -0.8682
  158OSM    C8F17731   3.715   5.632   3.434 -0.1741  0.4439 -0.4175
  158OSM    H8F17732   3.637   5.694   3.483 -2.1378 -2.7626  0.8049
  158OSM    H8G17733   3.820   5.665   3.449  0.3667 -2.2774  2.7427
  158OSM    C9F17734   3.703   5.493   3.491 -0.2748 -0.4478 -0.0834
  158OSM    H9F17735   3.627   5.421   3.458 -2.5538  2.1055 -0.6773
  158OSM   C10F17736   3.790   5.447   3.578  0.2553 -0.0006  0.0384
  158OSM   H10F17737   3.783   5.342   3.609 -1.0275 -0.4911 -1.7220
  158OSM   C11F17738   3.886   5.527   3.658  0.1857 -0.2812  0.2275
  158OSM   H11F17739   3.886   5.634   3.628  3.3077  0.0394  0.9776
  158OSM   H11G17740   3.990   5.498   3.631  0.4840 -0.3402  1.3779
  158OSM   C12F17741   3.871   5.510   3.813  1.2143  0.3660 -0.3726
  158OSM   H12F17742   3.940   5.588   3.854  0.0160  0.7688  0.9579
  158OSM   H12G17743   3.894   5.408   3.850 -0.6661 -0.2561 -0.7915
  158OSM   C13F17744   3.732   5.559   3.855  0.6485 -0.0750  0.0906
  158OSM   H13F17745   3.655   5.492   3.812  0.5063  0.0013  0.2262
  158OSM   H13G17746   3.726   5.660   3.808  1.4766  0.6379  1.4733
  158OSM   C14F17747   3.713   5.573   4.007  0.1235  0.3491 -0.1040
  158OSM   H14F17748   3.611   5.605   4.038  0.0214 -0.0684 -0.0058
  158OSM   H14G17749   3.778   5.658   4.039  1.6325 -0.2249 -1.5135
  158OSM   C15F17750   3.757   5.446   4.085 -0.0257  0.1624 -1.2599
  158OSM   H15F17751   3.860   5.422   4.051  0.9996  0.9450  1.1309
  158OSM   H15G17752   3.695   5.362   4.046 -0.4177 -0.5957  0.8832
  158OSM   C16F17753   3.736   5.435   4.233  0.7392 -0.4211  0.0512
  158OSM   H16F17754   3.631   5.454   4.263  1.2613  2.0219  0.5907
  158OSM   H16G17755   3.791   5.514   4.290  1.0350 -0.0716 -0.7095
  158OSM   C17F17756   3.782   5.292   4.282  0.1694  0.9898 -1.3526
  158OSM   H17F17757   3.872   5.256   4.229  0.0355 -0.2361 -0.7707
  158OSM   H17G17758   3.696   5.228   4.252  0.2439  0.9443 -1.4694
  158OSM   C18F17759   3.806   5.292   4.436  0.4725  0.1246  0.6673
  158OSM   H18F17760   3.877   5.374   4.460  2.3631 -0.8161 -1.3957
  158OSM   H18G17761   3.849   5.196   4.473  0.9422  0.7768  1.8650
  158OSM   H18H17762   3.715   5.303   4.498  1.2704 -0.9856  2.0965
  159OSM      N17763   4.145   2.597   2.432 -0.2217 -0.3826  0.1432
  159OSM    C1517764   4.160   2.448   2.440  0.0193 -0.7558 -0.5859
  159OSM   H15A17765   4.094   2.404   2.367 -0.7902  0.9144 -0.9073
  159OSM   H15B17766   4.133   2.410   2.538 -0.5131  0.7098 -0.1336
  159OSM   H15C17767   4.262   2.425   2.414  0.5878  0.0624  0.8041
  159OSM    C1417768   4.194   2.654   2.565 -0.4971 -0.4683  0.5345
  159OSM   H14A17769   4.176   2.760   2.567 -2.1734 -0.7102 -0.0539
  159OSM   H14B17770   4.300   2.638   2.571 -0.4543 -0.1417  0.6587
  159OSM   H14C17771   4.135   2.611   2.645  2.0471 -3.5636  0.9285
  159OSM    C1317772   4.227   2.651   2.320 -0.6258  0.5457  0.0693
  159OSM   H13A17773   4.331   2.635   2.343 -0.7891 -1.3455 -0.3503
  159OSM   H13B17774   4.208   2.754   2.294  2.1339  0.8983 -0.8749
  159OSM   H13C17775   4.220   2.605   2.222  0.4588  0.4241  0.0410
  159OSM    C1217776   3.999   2.626   2.407  0.3377  0.6889 -0.6532
  159OSM   H12A17777   3.973   2.587   2.310 -3.1806 -0.2404  0.4927
  159OSM   H12B17778   3.976   2.731   2.396 -0.1185  0.7750  0.8980
  159OSM    C1117779   3.889   2.574   2.518  0.3149  0.0694 -0.1456
  159OSM   H11A17780   3.790   2.612   2.487 -0.3991  0.3807  2.3311
  159OSM   H11B17781   3.915   2.619   2.617  0.6032 -0.7813  0.1718
  159OSM      P17782   3.823   2.342   2.426  0.5856 -0.4401 -0.0459
  159OSM    O1317783   3.747   2.424   2.331  0.4612 -0.0982  0.5807
  159OSM    O1417784   3.928   2.257   2.373 -0.0394  0.0598  0.9108
  159OSM    O1117785   3.715   2.259   2.515  0.1246  0.3537 -0.3755
  159OSM    O1217786   3.885   2.433   2.541 -0.3946  0.4833 -0.3508
  159OSM    C1S17787   3.765   2.135   2.576  0.2616  0.2755  0.3430
  159OSM    H1S17788   3.872   2.139   2.605  0.8645 -4.1512 -0.5941
  159OSM    H1T17789   3.759   2.051   2.503 -1.2033  1.5718 -1.1276
  159OSM     NF17790   3.747   1.979   2.771  0.3904  0.1867 -0.8170
  159OSM    HNF17791   3.688   1.905   2.804  1.5804  0.1919  1.5366
  159OSM    C2S17792   3.678   2.093   2.699  0.6974 -0.2564  0.1545
  159OSM    H2S17793   3.673   2.183   2.764  1.1081 -0.3167  0.2701
  159OSM    C3S17794   3.528   2.065   2.649 -0.8886 -0.8091 -0.0073
  159OSM    H3S17795   3.531   1.975   2.584 -2.5092 -0.5899 -0.4305
  159OSM     O317796   3.477   2.180   2.575  0.8402  0.5288 -0.1515
  159OSM    HO317797   3.556   2.230   2.551 -0.0214  1.7480 -0.5231
  159OSM    C4S17798   3.445   2.012   2.760 -0.0759 -0.4811  0.6110
  159OSM    H4S17799   3.441   1.903   2.772 -0.3196 -0.4331  0.9936
  159OSM    C5S17800   3.374   2.080   2.846 -0.7120 -0.7942  0.3831
  159OSM    H5S17801   3.369   2.190   2.846 -0.5963 -0.7114  3.2055
  159OSM    C6S17802   3.297   2.029   2.961 -0.5535  0.1868 -0.4673
  159OSM    H6S17803   3.267   1.927   2.930  2.2849 -1.4066  1.5209
  159OSM    H6T17804   3.200   2.082   2.965 -0.4457  0.3057  1.6088
  159OSM    C7S17805   3.373   2.016   3.092  0.0643  0.3695 -0.4025
  159OSM    H7S17806   3.420   2.115   3.109  0.1546  0.6595 -2.1905
  159OSM    H7T17807   3.453   1.941   3.070 -0.5313 -0.6618  0.7993
  159OSM    C8S17808   3.292   1.971   3.212 -0.0432  0.5858 -0.4516
  159OSM    H8S17809   3.242   1.875   3.184 -0.2390  0.9049 -1.2300
  159OSM    H8T17810   3.216   2.043   3.246 -0.1269 -0.4240  1.6300
  159OSM    C9S17811   3.381   1.937   3.338 -0.1314 -0.0046 -0.4537
  159OSM    H9S17812   3.438   2.028   3.365  1.7463 -0.0575 -3.7777
  159OSM    H9T17813   3.461   1.863   3.318  0.2424  0.9183 -2.7171
  159OSM   C10S17814   3.295   1.874   3.453 -0.1013  0.3434  0.2982
  159OSM   H10S17815   3.244   1.785   3.412  0.6547 -0.1191  0.3495
  159OSM   H10T17816   3.210   1.940   3.480  0.1146  0.8343 -0.2041
  159OSM   C11S17817   3.375   1.853   3.584 -0.0478  0.5740  0.0309
  159OSM   H11S17818   3.420   1.951   3.611  0.9402  0.3812 -0.9001
  159OSM   H11T17819   3.452   1.779   3.555  0.8725  1.2814  0.6028
  159OSM   C12S17820   3.292   1.798   3.704  0.3413 -0.2593 -0.3230
  159OSM   H12S17821   3.289   1.688   3.686 -2.3853 -0.4320  0.7734
  159OSM   H12T17822   3.189   1.840   3.703 -0.1968 -1.5328 -0.7941
  159OSM   C13S17823   3.358   1.836   3.834  0.0559  0.2530 -0.1344
  159OSM   H13S17824   3.379   1.945   3.826 -2.9286  0.9969  0.9098
  159OSM   H13T17825   3.455   1.781   3.830  0.2854  0.7399 -2.3094
  159OSM   C14S17826   3.282   1.796   3.960  0.8171  0.2223 -1.2545
  159OSM   H14S17827   3.288   1.685   3.958  0.4020  0.1459  0.2226
  159OSM   H14T17828   3.177   1.829   3.948  0.2358 -1.2641 -0.5467
  159OSM   C15S17829   3.343   1.860   4.087 -0.3727  0.0654 -0.0679
  159OSM   H15S17830   3.318   1.967   4.070 -1.1977 -0.1738 -0.4106
  159OSM   H15T17831   3.450   1.839   4.105  0.1106  0.0574 -2.5644
  159OSM   C16S17832   3.257   1.810   4.212  0.4041  0.0871  0.3736
  159OSM   H16S17833   3.257   1.699   4.219  4.3107 -0.0911  0.1746
  159OSM   H16T17834   3.156   1.846   4.186  0.2742 -0.5643 -0.0470
  159OSM   C17S17835   3.306   1.864   4.347 -0.5365 -0.0371  0.3768
  159OSM   H17S17836   3.311   1.974   4.354  0.1044 -0.1814  3.2990
  159OSM   H17T17837   3.413   1.833   4.351 -0.9816 -2.1327 -1.6018
  159OSM   C18S17838   3.242   1.803   4.473  0.9186  0.1875 -0.2294
  159OSM   H18S17839   3.134   1.829   4.481  0.7081 -0.7644  0.0655
  159OSM   H18T17840   3.289   1.864   4.553  0.2640  0.3660  0.0293
  159OSM   H18U17841   3.250   1.693   4.482  0.4470  0.1815  0.1175
  159OSM    C1F17842   3.866   1.994   2.837  0.3236  0.0253 -0.2748
  159OSM     OF17843   3.941   2.086   2.816  0.0013  0.1922 -0.2942
  159OSM    C2F17844   3.892   1.902   2.943 -0.2339  0.6746  0.8292
  159OSM    H2F17845   3.891   1.797   2.909 -2.7537  0.8603  0.0801
  159OSM    H2G17846   3.805   1.922   3.009  0.1733  0.6880  1.3601
  159OSM    C3F17847   4.022   1.926   3.026 -0.5018  0.5774  0.3060
  159OSM    H3F17848   4.027   2.032   3.060  0.0513  1.6261 -2.7671
  159OSM    H3G17849   4.113   1.906   2.966  0.1950  1.4815  1.0226
  159OSM    C4F17850   4.032   1.834   3.149 -0.5978  0.1170  0.5723
  159OSM    H4F17851   4.133   1.837   3.195 -0.7597  2.2033  0.8912
  159OSM    H4G17852   4.022   1.731   3.109  1.2106  0.6274 -1.3517
  159OSM    C5F17853   3.935   1.857   3.257  0.4709  1.0166 -0.8825
  159OSM    H5F17854   3.832   1.827   3.227 -0.4568  1.0550  1.9807
  159OSM    H5G17855   3.926   1.968   3.264  1.6501  1.0559  0.4493
  159OSM    C6F17856   3.978   1.804   3.395 -0.1655 -0.3644  0.0553
  159OSM    H6F17857   4.062   1.869   3.427 -1.3820  1.0520  0.4968
  159OSM    H6G17858   4.022   1.702   3.390  1.4653  0.2780  0.6708
  159OSM    C7F17859   3.867   1.807   3.503  0.9750 -0.2155 -0.1916
  159OSM    H7F17860   3.783   1.744   3.465 -0.4316  0.7750  1.1632
  159OSM    H7G17861   3.832   1.911   3.517  0.8915 -0.2428 -0.1918
  159OSM    C8F17862   3.913   1.753   3.631 -0.2782 -0.1198 -0.3342
  159OSM    H8F17863   4.006   1.809   3.657 -0.7253 -0.1454  1.4298
  159OSM    H8G17864   3.936   1.645   3.634  1.2113  0.1942  1.4669
  159OSM    C9F17865   3.811   1.770   3.742 -0.4228 -0.0055 -0.0882
  159OSM    H9F17866   3.715   1.808   3.704 -2.6935 -3.7524  1.3150
  159OSM   C10F17867   3.826   1.729   3.867 -0.5445 -0.0337 -0.7896
  159OSM   H10F17868   3.737   1.738   3.931 -1.3461 -2.0147 -1.5609
  159OSM   C11F17869   3.951   1.674   3.928 -0.6139 -0.1192  0.6016
  159OSM   H11F17870   4.034   1.672   3.855  0.6721 -2.5721  2.0154
  159OSM   H11G17871   3.941   1.564   3.937 -0.3668 -0.3317 -1.3187
  159OSM   C12F17872   3.985   1.749   4.058  0.6034 -0.2048 -0.4741
  159OSM   H12F17873   4.056   1.693   4.124  0.1927  0.8526  0.9030
  159OSM   H12G17874   3.889   1.753   4.112  0.2014 -0.9470 -1.1150
  159OSM   C13F17875   4.039   1.891   4.030 -0.5257 -0.6142 -0.2633
  159OSM   H13F17876   3.965   1.949   3.970  0.6097  1.2285  0.0567
  159OSM   H13G17877   4.128   1.867   3.968 -2.0942 -3.6943 -1.5673
  159OSM   C14F17878   4.065   1.983   4.158  0.3233  0.3100 -0.3407
  159OSM   H14F17879   3.976   1.979   4.225  1.2379 -2.5990  0.8486
  159OSM   H14G17880   4.086   2.089   4.130 -0.9887  0.4179 -1.0421
  159OSM   C15F17881   4.179   1.937   4.244  0.1388 -0.6962 -0.8968
  159OSM   H15F17882   4.273   1.943   4.185  0.8909  1.3690  0.3913
  159OSM   H15G17883   4.154   1.834   4.275  0.4348  0.2042  2.8476
  159OSM   C16F17884   4.195   2.012   4.379  0.7101  0.2396  0.3833
  159OSM   H16F17885   4.268   1.946   4.431  0.6905  0.4782  0.7187
  159OSM   H16G17886   4.098   1.998   4.432 -0.2188  1.9334 -0.7795
  159OSM   C17F17887   4.234   2.163   4.366 -0.1838  0.7142 -0.2079
  159OSM   H17F17888   4.183   2.193   4.271  0.2823  2.0022 -0.0735
  159OSM   H17G17889   4.339   2.178   4.335 -0.5671 -0.3177 -2.1795
  159OSM   C18F17890   4.181   2.255   4.474 -0.2709 -0.6197  0.2716
  159OSM   H18F17891   4.071   2.271   4.470 -0.2322 -0.5420 -1.3486
  159OSM   H18G17892   4.215   2.356   4.445 -0.1585 -0.6295  0.3726
  159OSM   H18H17893   4.211   2.232   4.578 -0.5664 -2.3409  0.0182
  160OSM      N17894   3.418   6.346   2.062  0.0036  0.7160  0.4556
  160OSM    C1517895   3.304   6.438   2.011  0.4122 -0.4144 -0.8363
  160OSM   H15A17896   3.212   6.385   2.031 -0.7060  1.0976 -1.8013
  160OSM   H15B17897   3.306   6.453   1.904  2.7748 -2.2920 -1.1698
  160OSM   H15C17898   3.313   6.532   2.062  2.0843 -0.2530 -1.3511
  160OSM    C1417899   3.452   6.242   1.959  0.2598  0.8633  0.2976
  160OSM   H14A17900   3.527   6.173   1.994  1.3962  1.4293 -0.9535
  160OSM   H14B17901   3.475   6.292   1.866  0.8442 -0.9036 -0.5452
  160OSM   H14C17902   3.366   6.182   1.933 -0.3562  2.2606 -0.9889
  160OSM    C1317903   3.533   6.435   2.074  0.2197 -0.4228  0.2709
  160OSM   H13A17904   3.570   6.463   1.976  0.0576 -1.2430 -0.0333
  160OSM   H13B17905   3.616   6.402   2.135  0.4756  0.9956  0.7477
  160OSM   H13C17906   3.512   6.515   2.144 -0.0375 -1.0695  0.9449
  160OSM    C1217907   3.381   6.280   2.188  0.1953  0.9360  0.1489
  160OSM   H12A17908   3.461   6.213   2.216 -2.0571 -0.6892  3.3265
  160OSM   H12B17909   3.301   6.213   2.161  0.2768  1.5030 -1.7065
  160OSM    C1117910   3.339   6.362   2.314 -0.0717 -0.7069 -0.6255
  160OSM   H11A17911   3.304   6.289   2.390  2.1479 -1.0081  0.1863
  160OSM   H11B17912   3.250   6.427   2.303 -0.8226 -1.7406 -0.7819
  160OSM      P17913   3.566   6.398   2.442  0.2735 -0.0828 -0.2347
  160OSM    O1317914   3.537   6.265   2.499  0.4669  0.5429  0.4556
  160OSM    O1417915   3.689   6.411   2.366  0.4026 -0.3087 -0.5260
  160OSM    O1117916   3.565   6.508   2.550 -0.2401 -0.3333  0.4822
  160OSM    O1217917   3.440   6.449   2.362 -0.5777  0.2239  0.2077
  160OSM    C1S17918   3.439   6.538   2.616  0.5717 -0.4639  0.0551
  160OSM    H1S17919   3.351   6.479   2.583 -0.6943 -0.0711  2.4866
  160OSM    H1T17920   3.416   6.644   2.592  2.5348  0.0279  0.2287
  160OSM     NF17921   3.325   6.585   2.822 -0.3864 -0.3810 -0.1601
  160OSM    HNF17922   3.351   6.657   2.886 -2.3587 -1.8498  2.5450
  160OSM    C2S17923   3.428   6.504   2.769  0.0943 -0.0825  0.4551
  160OSM    H2S17924   3.415   6.396   2.788 -0.9884 -0.0914 -0.2744
  160OSM    C3S17925   3.561   6.537   2.838 -0.0274 -0.1308  1.0493
  160OSM    H3S17926   3.602   6.638   2.817  0.2866  0.1561  2.8705
  160OSM     O317927   3.673   6.470   2.781 -0.0417 -0.5413 -0.0111
  160OSM    HO317928   3.623   6.425   2.712 -1.0057  3.4403 -2.2192
  160OSM    C4S17929   3.557   6.512   2.986  0.0662 -1.0614 -0.2433
  160OSM    H4S17930   3.515   6.413   3.012 -0.5108 -0.9683 -0.7907
  160OSM    C5S17931   3.618   6.589   3.076  0.2585 -0.1735 -0.6105
  160OSM    H5S17932   3.688   6.666   3.041  0.3051 -0.4458 -1.1275
  160OSM    C6S17933   3.640   6.553   3.231  0.4420 -0.4215  0.1978
  160OSM    H6S17934   3.749   6.545   3.251  0.8490 -0.7470 -1.9227
  160OSM    H6T17935   3.595   6.455   3.259 -1.3952  0.3202 -0.0233
  160OSM    C7S17936   3.578   6.662   3.317 -0.2197  0.1436  0.0247
  160OSM    H7S17937   3.472   6.663   3.286 -0.8444  0.7066  2.0123
  160OSM    H7T17938   3.610   6.766   3.292 -0.9232 -0.0955 -2.0572
  160OSM    C8S17939   3.587   6.633   3.471 -0.8410  0.7352  0.1887
  160OSM    H8S17940   3.544   6.533   3.493  0.5938 -0.1034 -0.6268
  160OSM    H8T17941   3.528   6.717   3.513  0.2581  0.7213  1.8308
  160OSM    C9S17942   3.730   6.635   3.537  0.2220 -0.4906  0.4453
  160OSM    H9S17943   3.761   6.741   3.534  2.2560 -0.9929  1.6737
  160OSM    H9T17944   3.802   6.564   3.489 -1.0155 -1.1362 -0.5269
  160OSM   C10S17945   3.714   6.600   3.687  0.1764 -0.3652 -0.3151
  160OSM   H10S17946   3.797   6.529   3.709  1.1238 -0.0061 -2.4740
  160OSM   H10T17947   3.621   6.542   3.703 -1.0356  0.7127 -2.8940
  160OSM   C11S17948   3.723   6.721   3.786 -0.3107  0.3385  0.1098
  160OSM   H11S17949   3.656   6.803   3.750  0.2559  1.8944  2.3902
  160OSM   H11T17950   3.816   6.782   3.792 -0.3947  0.5202 -0.3655
  160OSM   C12S17951   3.680   6.682   3.931  0.6948 -0.6109  0.4403
  160OSM   H12S17952   3.765   6.624   3.974  0.5535 -1.4289 -0.3588
  160OSM   H12T17953   3.583   6.629   3.932  1.1212 -1.4177  1.5936
  160OSM   C13S17954   3.666   6.818   4.012 -0.3321 -0.1410  0.0933
  160OSM   H13S17955   3.586   6.876   3.963  1.1726 -0.5568 -3.1474
  160OSM   H13T17956   3.763   6.868   3.990 -0.5146 -1.2179 -4.1570
  160OSM   C14S17957   3.624   6.787   4.161 -0.3447 -0.3294 -0.2724
  160OSM   H14S17958   3.716   6.752   4.214 -1.5669 -0.8995  1.5817
  160OSM   H14T17959   3.546   6.708   4.159 -1.3344  0.6085  0.2165
  160OSM   C15S17960   3.559   6.905   4.239 -0.1786  0.0733 -0.6640
  160OSM   H15S17961   3.551   6.881   4.348 -1.4201  0.2135 -0.7066
  160OSM   H15T17962   3.455   6.922   4.204  0.1188 -0.2055 -1.7105
  160OSM   C16S17963   3.639   7.041   4.231  0.1805  0.1778 -0.2013
  160OSM   H16S17964   3.579   7.124   4.274 -0.6648 -1.2617  1.5321
  160OSM   H16T17965   3.665   7.073   4.128 -2.5391  0.7769 -0.7708
  160OSM   C17S17966   3.780   7.041   4.295 -0.0482 -0.1823 -0.7716
  160OSM   H17S17967   3.843   6.958   4.257 -0.3564  0.3776 -2.6003
  160OSM   H17T17968   3.765   7.022   4.403  0.0449  1.8990 -0.3498
  160OSM   C18S17969   3.855   7.174   4.292 -0.1976  0.1182 -0.2593
  160OSM   H18S17970   3.823   7.245   4.371 -0.4797  0.7548 -0.9339
  160OSM   H18T17971   3.839   7.221   4.192 -0.4001  0.6172  0.0069
  160OSM   H18U17972   3.964   7.156   4.307 -0.4161 -0.6173  0.5193
  160OSM    C1F17973   3.196   6.566   2.801 -0.1166  0.0763  0.1872
  160OSM     OF17974   3.158   6.471   2.732  0.0464  0.0674 -0.5996
  160OSM    C2F17975   3.101   6.661   2.869  0.0726 -0.1237 -0.4536
  160OSM    H2F17976   3.130   6.764   2.838  1.4000 -0.7146 -1.2637
  160OSM    H2G17977   3.125   6.651   2.977 -1.2331  0.4169 -0.0927
  160OSM    C3F17978   2.946   6.655   2.838 -0.1587 -0.2310  0.5469
  160OSM    H3F17979   2.896   6.557   2.857  0.2143 -0.5814 -0.2142
  160OSM    H3G17980   2.932   6.667   2.728 -1.1258  0.0783  0.6925
  160OSM    C4F17981   2.888   6.772   2.919  0.5387 -0.2097 -0.4124
  160OSM    H4F17982   2.922   6.872   2.885 -0.1184  1.5720  3.6181
  160OSM    H4G17983   2.929   6.756   3.021  0.0767 -0.5298 -0.2708
  160OSM    C5F17984   2.735   6.764   2.920  0.2001  0.4513 -0.5178
  160OSM    H5F17985   2.697   6.660   2.933 -1.6373  1.2430  0.9548
  160OSM    H5G17986   2.685   6.808   2.831 -0.7674 -1.6811 -1.0902
  160OSM    C6F17987   2.669   6.837   3.041 -1.0165  0.0036  0.6734
  160OSM    H6F17988   2.691   6.946   3.037  1.7389 -0.4989  0.4703
  160OSM    H6G17989   2.714   6.806   3.137 -0.8492 -3.3077 -0.3389
  160OSM    C7F17990   2.516   6.819   3.058 -0.2576 -0.8973  0.7187
  160OSM    H7F17991   2.508   6.718   3.103  2.5429 -1.6757 -0.2768
  160OSM    H7G17992   2.482   6.816   2.952  1.4831  0.2125  0.0740
  160OSM    C8F17993   2.453   6.923   3.148 -0.5813  0.2612  0.2693
  160OSM    H8F17994   2.472   7.031   3.129  3.3506 -0.2977  0.0594
  160OSM    H8G17995   2.499   6.893   3.245 -2.7256 -0.2028  1.1899
  160OSM    C9F17996   2.308   6.887   3.151  0.3313 -0.0689 -0.3164
  160OSM    H9F17997   2.240   6.920   3.072  0.3839  1.9616  0.4254
  160OSM   C10F17998   2.255   6.813   3.245 -0.0962  0.1872 -0.2274
  160OSM   H10F17999   2.145   6.810   3.255 -0.0779  1.0796  0.3410
  160OSM   C11F18000   2.320   6.737   3.354 -0.4706  0.2976  0.2455
  160OSM   H11F18001   2.428   6.719   3.339  0.7722  4.8106  2.1451
  160OSM   H11G18002   2.256   6.648   3.374 -2.7772  2.0538  1.1994
  160OSM   C12F18003   2.303   6.827   3.476  0.2512 -0.4204 -1.0133
  160OSM   H12F18004   2.196   6.827   3.504 -0.0304  0.7171 -2.0095
  160OSM   H12G18005   2.350   6.926   3.459  0.1544 -0.5208 -1.9264
  160OSM   C13F18006   2.382   6.770   3.589  0.0105  0.0139  0.4269
  160OSM   H13F18007   2.491   6.793   3.583 -0.0675 -0.0027 -1.8004
  160OSM   H13G18008   2.382   6.659   3.581  1.0974  0.1295 -2.2328
  160OSM   C14F18009   2.327   6.813   3.726  0.1194 -0.0622  0.2493
  160OSM   H14F18010   2.221   6.778   3.728 -0.9293  2.5093 -2.8624
  160OSM   H14G18011   2.331   6.924   3.735  1.0950 -0.0521 -0.1728
  160OSM   C15F18012   2.421   6.763   3.833  0.4888  1.0811  0.3869
  160OSM   H15F18013   2.525   6.778   3.798  0.0075 -0.9948 -2.1958
  160OSM   H15G18014   2.400   6.654   3.833 -2.6231  1.5539 -1.9328
  160OSM   C16F18015   2.407   6.823   3.973  0.3583  1.1076  0.2601
  160OSM   H16F18016   2.300   6.816   4.001  0.1372 -0.0298 -0.7487
  160OSM   H16G18017   2.433   6.931   3.976  3.9372  0.4317 -1.1103
  160OSM   C17F18018   2.490   6.754   4.084  0.1024  0.2880 -0.0566
  160OSM   H17F18019   2.596   6.745   4.051 -0.1534 -0.3697 -0.7401
  160OSM   H17G18020   2.450   6.651   4.095 -0.4154  0.3250 -1.3964
  160OSM   C18F18021   2.478   6.833   4.212 -0.3336  0.0530 -0.2232
  160OSM   H18F18022   2.558   6.817   4.287 -0.1812  2.4463  0.2209
  160OSM   H18G18023   2.379   6.815   4.259 -0.6349  0.0409 -0.8521
  160OSM   H18H18024   2.489   6.941   4.187 -2.2095  0.2433 -0.3633
  161OSM      N18025   0.311   5.029   2.451 -0.2283 -0.6887  0.1276
  161OSM    C1518026   0.416   4.938   2.385  0.2914 -0.4569  0.7439
  161OSM   H15A18027   0.375   4.882   2.302 -0.3387  0.7184  0.2391
  161OSM   H15B18028   0.457   4.867   2.455 -0.5487 -2.3337 -0.5898
  161OSM   H15C18029   0.480   5.010   2.335 -3.2489  1.3121 -1.6947
  161OSM    C1418030   0.231   5.090   2.341  0.0661 -1.0153 -0.6918
  161OSM   H14A18031   0.294   5.148   2.275 -1.2014  2.6488  1.0055
  161OSM   H14B18032   0.153   5.160   2.367 -0.9314 -3.1798  2.7822
  161OSM   H14C18033   0.187   5.007   2.289 -1.0872 -1.1432  0.4252
  161OSM    C1318034   0.224   4.944   2.534 -0.6732 -0.8452  0.8361
  161OSM   H13A18035   0.275   4.863   2.584 -2.7304 -1.5099  1.9689
  161OSM   H13B18036   0.148   4.890   2.479 -0.1501 -0.5036 -0.2527
  161OSM   H13C18037   0.185   5.011   2.609 -0.7168  2.8684 -2.2049
  161OSM    C1218038   0.379   5.138   2.539  0.1954  0.4637  0.6925
  161OSM   H12A18039   0.439   5.089   2.615  0.4215 -1.0648 -0.4296
  161OSM   H12B18040   0.308   5.192   2.600 -0.6738  0.8466 -0.6350
  161OSM    C1118041   0.473   5.244   2.464  0.0299 -0.1093 -0.1577
  161OSM   H11A18042   0.546   5.188   2.402 -0.7959 -0.1420 -1.1359
  161OSM   H11B18043   0.532   5.303   2.537 -1.3184  0.5911  0.4081
  161OSM      P18044   0.335   5.464   2.426  0.1432  0.1738 -0.4426
  161OSM    O1318045   0.448   5.559   2.424  0.3551 -0.7753 -0.3928
  161OSM    O1418046   0.208   5.491   2.358  0.1757 -0.1731  0.1621
  161OSM    O1118047   0.294   5.431   2.579 -0.2393 -0.7412  0.3208
  161OSM    O1218048   0.396   5.327   2.380  0.3014  0.4378  0.1134
  161OSM    C1S18049   0.171   5.486   2.627  0.2019 -0.2909  0.1156
  161OSM    H1S18050   0.087   5.417   2.603 -1.4726  1.9220 -0.7774
  161OSM    H1T18051   0.145   5.584   2.582  0.6452 -1.2745 -2.4386
  161OSM     NF18052   0.046   5.552   2.819  1.0114 -0.3956 -0.3722
  161OSM    HNF18053   0.004   5.642   2.815  0.8144 -0.3709  1.2480
  161OSM    C2S18054   0.180   5.525   2.783  0.7654  0.0584  0.8191
  161OSM    H2S18055   0.213   5.433   2.835  0.8276  0.8410  2.2203
  161OSM    C3S18056   0.284   5.634   2.810 -0.7384 -0.0816  0.0086
  161OSM    H3S18057   0.260   5.720   2.744 -0.9493  0.0625  0.2728
  161OSM     O318058   0.419   5.606   2.770 -0.1895  0.2222 -0.8784
  161OSM    HO318059   0.410   5.528   2.715 -0.8087  0.4896 -1.1678
  161OSM    C4S18060   0.278   5.679   2.954  0.3601 -0.2311  0.8775
  161OSM    H4S18061   0.218   5.607   3.012 -2.5840  1.0211 -0.4049
  161OSM    C5S18062   0.322   5.800   3.007  0.3613  0.2443 -0.1442
  161OSM    H5S18063   0.354   5.872   2.930  0.6522 -1.6654 -1.9085
  161OSM    C6S18064   0.290   5.859   3.142  0.9371  0.3146 -0.1867
  161OSM    H6S18065   0.226   5.950   3.129  0.9815  0.5258  0.9083
  161OSM    H6T18066   0.389   5.887   3.184  0.9230 -2.0797  1.6507
  161OSM    C7S18067   0.223   5.767   3.251 -0.1721  0.8016  0.0861
  161OSM    H7S18068   0.281   5.673   3.261  1.1494  1.6809  1.2292
  161OSM    H7T18069   0.120   5.731   3.231 -0.6514  1.6115  0.9656
  161OSM    C8S18070   0.226   5.831   3.391 -0.0013 -0.2288  0.8947
  161OSM    H8S18071   0.169   5.926   3.385 -1.5789 -1.0439  2.0918
  161OSM    H8T18072   0.330   5.857   3.420 -0.0897  1.4915 -0.1756
  161OSM    C9S18073   0.162   5.747   3.501 -0.5141 -0.1386 -0.3028
  161OSM    H9S18074   0.209   5.646   3.505 -2.1909 -0.8975  2.0641
  161OSM    H9T18075   0.057   5.718   3.477 -1.0967  0.3918  1.4533
  161OSM   C10S18076   0.174   5.817   3.631  0.8573 -0.4565 -0.7144
  161OSM   H10S18077   0.155   5.925   3.611 -0.3979 -0.6948 -0.8795
  161OSM   H10T18078   0.274   5.807   3.679  0.7670 -1.3507 -0.6982
  161OSM   C11S18079   0.061   5.780   3.729  0.0018 -0.3563 -0.1347
  161OSM   H11S18080   0.070   5.669   3.734  0.9606 -0.2961 -0.3533
  161OSM   H11T18081  -0.036   5.794   3.676 -0.6689 -2.1017  0.5283
  161OSM   C12S18082   0.082   5.847   3.863 -0.2740 -0.4295  0.2206
  161OSM   H12S18083   0.068   5.957   3.858  2.5793  0.0840  1.2667
  161OSM   H12T18084   0.183   5.836   3.909 -0.5583 -0.0755  0.9358
  161OSM   C13S18085  -0.008   5.793   3.979  0.1845  0.1729  1.4574
  161OSM   H13S18086   0.010   5.687   4.004  0.8635  0.2231  1.2053
  161OSM   H13T18087  -0.114   5.811   3.952  0.9146  1.1361 -1.1105
  161OSM   C14S18088   0.012   5.873   4.112 -0.2236 -0.0430  0.2854
  161OSM   H14S18089  -0.004   5.978   4.081  1.0602 -0.2978 -1.3963
  161OSM   H14T18090   0.116   5.871   4.151 -0.2812 -2.2438  0.4508
  161OSM   C15S18091  -0.074   5.820   4.228  0.5173 -0.4587 -0.3639
  161OSM   H15S18092  -0.071   5.709   4.225 -1.3848 -0.5681  0.4143
  161OSM   H15T18093  -0.182   5.845   4.231  0.2404 -1.5425 -0.6117
  161OSM   C16S18094  -0.024   5.867   4.367 -0.5759 -0.0194  0.1423
  161OSM   H16S18095  -0.055   5.970   4.394 -2.3212 -0.6834  0.8672
  161OSM   H16T18096   0.087   5.863   4.365 -0.6067 -1.0264 -0.1404
  161OSM   C17S18097  -0.082   5.783   4.484 -0.4476 -0.1037  0.3325
  161OSM   H17S18098  -0.036   5.808   4.582  0.2969 -3.1092  0.8595
  161OSM   H17T18099  -0.049   5.678   4.471  0.3710 -0.0040  1.4384
  161OSM   C18S18100  -0.234   5.791   4.497 -0.6978 -0.2095 -0.0265
  161OSM   H18S18101  -0.259   5.889   4.544 -0.4682 -0.2286  0.1403
  161OSM   H18T18102  -0.270   5.709   4.562  1.3291  0.2647  1.8612
  161OSM   H18U18103  -0.290   5.796   4.402 -0.1117 -0.8265 -0.4124
  161OSM    C1F18104  -0.036   5.457   2.864 -0.2573 -0.5181  0.4257
  161OSM     OF18105   0.009   5.349   2.893  0.1316  0.0863 -0.1909
  161OSM    C2F18106  -0.178   5.506   2.881 -0.1266  0.4050  0.6568
  161OSM    H2F18107  -0.237   5.495   2.788 -0.1599  2.0384  0.4702
  161OSM    H2G18108  -0.180   5.609   2.921 -3.0122  0.3310  0.9188
  161OSM    C3F18109  -0.260   5.428   2.987 -0.3104 -0.1630 -0.2544
  161OSM    H3F18110  -0.238   5.319   2.980  0.9379  0.0411  0.2090
  161OSM    H3G18111  -0.368   5.450   2.973  0.1112  2.2550 -0.1440
  161OSM    C4F18112  -0.212   5.446   3.132  0.9014  0.6651 -0.7139
  161OSM    H4F18113  -0.120   5.387   3.153 -0.1278 -0.2376  1.4990
  161OSM    H4G18114  -0.287   5.398   3.198  1.0878 -0.2576 -1.1528
  161OSM    C5F18115  -0.203   5.594   3.181 -0.8797 -0.0521 -0.4007
  161OSM    H5F18116  -0.299   5.648   3.174  0.1541  1.8039 -0.9075
  161OSM    H5G18117  -0.130   5.655   3.123 -1.0627  0.7896  0.2392
  161OSM    C6F18118  -0.152   5.600   3.320  0.8107  0.2740 -0.8416
  161OSM    H6F18119  -0.117   5.702   3.349  0.7772  0.1057 -0.1810
  161OSM    H6G18120  -0.072   5.528   3.348 -0.9216 -1.1365  0.8023
  161OSM    C7F18121  -0.269   5.568   3.421  0.0462 -0.3612  0.6384
  161OSM    H7F18122  -0.319   5.471   3.398  3.3038 -1.8172 -1.0944
  161OSM    H7G18123  -0.342   5.650   3.403 -0.5099 -1.3955 -2.7032
  161OSM    C8F18124  -0.222   5.561   3.565  0.3858  0.1490 -0.1743
  161OSM    H8F18125  -0.312   5.534   3.623  1.8304 -0.4235  1.9250
  161OSM    H8G18126  -0.194   5.662   3.602  0.8595  0.6211 -1.7592
  161OSM    C9F18127  -0.110   5.465   3.596  0.5958  0.0339 -1.4014
  161OSM    H9F18128  -0.012   5.481   3.549 -0.0100 -0.0465 -2.7339
  161OSM   C10F18129  -0.125   5.350   3.664 -0.2301  0.4695 -0.3473
  161OSM   H10F18130  -0.044   5.276   3.662 -0.5566  0.1148 -2.1699
  161OSM   C11F18131  -0.247   5.301   3.741  0.2191 -0.2995 -0.1479
  161OSM   H11F18132  -0.255   5.193   3.716 -0.0716 -0.2087 -0.4585
  161OSM   H11G18133  -0.339   5.348   3.700 -0.2271  0.6259  1.7713
  161OSM   C12F18134  -0.238   5.323   3.894  0.4237 -0.0237 -0.3966
  161OSM   H12F18135  -0.138   5.290   3.929  0.9229 -0.7943 -2.4462
  161OSM   H12G18136  -0.314   5.249   3.927  0.0421  0.3477 -0.4341
  161OSM   C13F18137  -0.255   5.468   3.936  0.1945 -0.5082 -0.2446
  161OSM   H13F18138  -0.198   5.531   3.865 -2.4002  0.0754 -1.9584
  161OSM   H13G18139  -0.211   5.475   4.038 -1.5438  2.1476  0.4647
  161OSM   C14F18140  -0.401   5.513   3.949 -0.8915  0.5851  0.4280
  161OSM   H14F18141  -0.467   5.442   4.001 -2.1909  0.8146 -0.8505
  161OSM   H14G18142  -0.432   5.526   3.843  0.0189 -0.5321  0.0022
  161OSM   C15F18143  -0.418   5.649   4.013 -0.3500 -0.4605 -0.5278
  161OSM   H15F18144  -0.502   5.706   3.969  0.5376  0.0077 -1.6641
  161OSM   H15G18145  -0.327   5.710   3.994 -0.1097 -0.6381  0.0123
  161OSM   C16F18146  -0.431   5.645   4.173 -0.3507  0.6106 -0.5485
  161OSM   H16F18147  -0.403   5.745   4.214 -0.3771 -0.9571  3.7886
  161OSM   H16G18148  -0.363   5.567   4.212 -0.2121  0.3585 -1.2774
  161OSM   C17F18149  -0.570   5.615   4.232  0.3222  0.9238  0.0818
  161OSM   H17F18150  -0.593   5.506   4.233  1.9271  0.5718  0.6220
  161OSM   H17G18151  -0.637   5.655   4.152  1.7515  2.7559 -0.2462
  161OSM   C18F18152  -0.604   5.676   4.364  0.3476  0.3290 -0.3346
  161OSM   H18F18153  -0.712   5.700   4.372  0.5332  1.5066 -1.0834
  161OSM   H18G18154  -0.550   5.773   4.375 -0.4337  0.6448  0.9490
  161OSM   H18H18155  -0.571   5.614   4.449  4.4860  1.3864 -0.9690
  162OSM      N18156   6.762   4.451   1.917  0.1083  0.2701 -0.0654
  162OSM    C1518157   6.614   4.416   1.915  0.1843  0.2213  0.6695
  162OSM   H15A18158   6.561   4.504   1.949  1.4908  1.6140 -0.7747
  162OSM   H15B18159   6.593   4.347   1.995  2.0763 -1.1323  0.0421
  162OSM   H15C18160   6.586   4.373   1.820  1.2166  1.3745 -0.1776
  162OSM    C1418161   6.835   4.321   1.885 -0.1025  0.1321 -0.3548
  162OSM   H14A18162   6.937   4.352   1.871 -0.2325  2.3186  2.5752
  162OSM   H14B18163   6.784   4.259   1.814 -1.5542 -0.3813  1.0685
  162OSM   H14C18164   6.837   4.270   1.980  0.8056 -0.7591 -0.8336
  162OSM    C1318165   6.793   4.552   1.814  0.1028 -0.1673 -0.2881
  162OSM   H13A18166   6.897   4.570   1.790  0.4139  0.3278  1.2939
  162OSM   H13B18167   6.748   4.648   1.838  0.7099 -0.1459  0.8147
  162OSM   H13C18168   6.761   4.510   1.720  2.5438 -3.8422  0.3402
  162OSM    C1218169   6.791   4.509   2.052  0.3394  0.0231  0.0006
  162OSM   H12A18170   6.731   4.598   2.064  0.4258  0.3554 -1.6974
  162OSM   H12B18171   6.894   4.542   2.057  0.5175 -0.4393 -0.5085
  162OSM    C1118172   6.771   4.436   2.189 -0.1607 -0.0267 -0.1198
  162OSM   H11A18173   6.664   4.405   2.188 -0.1183 -0.2079  0.4545
  162OSM   H11B18174   6.794   4.509   2.269 -2.0682  0.8624 -0.3207
  162OSM      P18175   6.957   4.285   2.298  0.1903  0.1493  0.0417
  162OSM    O1318176   6.955   4.145   2.346  0.2710  0.8412  0.4092
  162OSM    O1418177   7.081   4.331   2.235 -0.6202 -0.4806  0.0919
  162OSM    O1118178   6.925   4.387   2.417  0.5703 -0.0117  0.0714
  162OSM    O1218179   6.839   4.308   2.195 -0.0270  0.2395  0.4882
  162OSM    C1S18180   6.806   4.367   2.489  0.1667 -0.4139  0.0478
  162OSM    H1S18181   6.727   4.319   2.427  0.5794  0.5359 -1.2407
  162OSM    H1T18182   6.760   4.467   2.502 -0.6909 -0.3507 -2.7563
  162OSM     NF18183   6.711   4.273   2.697  0.7306 -0.5971  0.5227
  162OSM    HNF18184   6.680   4.356   2.743 -1.0774 -0.0676 -1.4667
  162OSM    C2S18185   6.831   4.293   2.627 -0.5266  0.4603  1.2809
  162OSM    H2S18186   6.873   4.195   2.594  0.0506  1.2466 -0.4169
  162OSM    C3S18187   6.941   4.362   2.702 -0.5342  0.0474 -0.8649
  162OSM    H3S18188   6.915   4.467   2.727 -0.1231 -0.1150  0.2952
  162OSM     O318189   7.064   4.377   2.634  0.1010  0.5791 -0.2328
  162OSM    HO318190   7.040   4.372   2.541  2.0008  1.6761 -0.8366
  162OSM    C4S18191   6.971   4.293   2.830 -0.4303  0.5262  0.4956
  162OSM    H4S18192   7.010   4.190   2.823 -1.0692  0.1865  1.6372
  162OSM    C5S18193   6.957   4.354   2.955  0.1837 -0.0271  0.4098
  162OSM    H5S18194   6.906   4.452   2.961  0.7571  0.3754 -1.0306
  162OSM    C6S18195   6.981   4.294   3.089 -0.5811  0.5447 -0.0765
  162OSM    H6S18196   7.084   4.258   3.106 -1.6178 -1.9213  1.6304
  162OSM    H6T18197   6.916   4.206   3.107 -1.1923  0.9812 -0.1046
  162OSM    C7S18198   6.935   4.399   3.200  0.3178  0.7911 -0.2414
  162OSM    H7S18199   6.824   4.412   3.191  0.0712 -1.4335 -1.1167
  162OSM    H7T18200   6.986   4.497   3.191 -1.0757  1.4643 -1.3757
  162OSM    C8S18201   6.940   4.343   3.341 -0.2287  0.3016 -0.3433
  162OSM    H8S18202   7.041   4.297   3.348  0.8811  2.5757 -0.6458
  162OSM    H8T18203   6.876   4.252   3.344  0.8852 -0.6345 -2.4554
  162OSM    C9S18204   6.904   4.432   3.462 -0.2285  0.2504 -0.5972
  162OSM    H9S18205   6.797   4.462   3.459 -0.0459  0.8004 -3.1191
  162OSM    H9T18206   6.969   4.522   3.457  2.4243 -1.5427 -0.3648
  162OSM   C10S18207   6.929   4.364   3.597 -0.7655 -0.3661 -0.1866
  162OSM   H10S18208   6.870   4.270   3.607 -4.0261  1.2996 -2.0651
  162OSM   H10T18209   6.897   4.435   3.676 -1.8797 -1.4703  0.3814
  162OSM   C11S18210   7.085   4.337   3.616 -0.4503 -1.0075  0.7747
  162OSM   H11S18211   7.145   4.421   3.577 -0.0403 -1.2014  0.9848
  162OSM   H11T18212   7.123   4.249   3.560  1.3473  0.4947 -0.4593
  162OSM   C12S18213   7.125   4.334   3.763  0.3047 -0.4521  0.0518
  162OSM   H12S18214   7.083   4.248   3.819 -0.5672 -0.4916 -0.6389
  162OSM   H12T18215   7.085   4.421   3.820  2.4245 -0.0470  0.9982
  162OSM   C13S18216   7.279   4.333   3.782 -0.2062 -0.0699  0.0743
  162OSM   H13S18217   7.318   4.424   3.732  0.4367 -0.5026 -0.2316
  162OSM   H13T18218   7.318   4.242   3.731 -1.6819 -0.8879  0.3655
  162OSM   C14S18219   7.326   4.326   3.926 -0.2148 -0.5230 -0.6389
  162OSM   H14S18220   7.280   4.415   3.973  1.5511 -0.5684  1.2896
  162OSM   H14T18221   7.431   4.337   3.962 -0.7446  0.0847  0.8153
  162OSM   C15S18222   7.275   4.209   4.007  0.5728 -0.3109 -0.2114
  162OSM   H15S18223   7.322   4.120   3.960  1.4160 -0.3108  0.6011
  162OSM   H15T18224   7.164   4.202   3.997  0.6906 -2.7032 -0.5054
  162OSM   C16S18225   7.340   4.216   4.145  0.0511  0.7641  0.2327
  162OSM   H16S18226   7.296   4.300   4.204  0.2397 -0.5192  2.3075
  162OSM   H16T18227   7.449   4.237   4.148  0.3240 -0.6152  0.9855
  162OSM   C17S18228   7.327   4.081   4.228  0.1039 -0.9694  0.3089
  162OSM   H17S18229   7.333   3.991   4.163  0.1488 -1.6928  1.3012
  162OSM   H17T18230   7.221   4.093   4.256 -0.2728  2.4597 -1.9267
  162OSM   C18S18231   7.416   4.072   4.344 -0.4296 -0.4611  0.2695
  162OSM   H18S18232   7.521   4.091   4.313 -0.0555 -1.1023  1.1321
  162OSM   H18T18233   7.408   3.970   4.387 -0.3399 -0.5597  0.0520
  162OSM   H18U18234   7.398   4.159   4.411  1.3153  2.0744 -2.3204
  162OSM    C1F18235   6.616   4.188   2.670 -0.0788 -0.2096  0.0581
  162OSM     OF18236   6.632   4.107   2.576  0.1037 -0.3301  0.2666
  162OSM    C2F18237   6.495   4.185   2.749  0.2099  0.4321  0.1203
  162OSM    H2F18238   6.404   4.186   2.685  1.1872 -2.0909 -1.4676
  162OSM    H2G18239   6.493   4.281   2.806  0.0617  2.1290 -2.5283
  162OSM    C3F18240   6.468   4.066   2.844 -0.3558 -0.1151  0.3670
  162OSM    H3F18241   6.472   3.968   2.791 -0.3330 -0.6318  1.3100
  162OSM    H3G18242   6.367   4.075   2.888  0.4946  0.8019  2.2309
  162OSM    C4F18243   6.561   4.064   2.962 -0.4525  0.2390 -0.7000
  162OSM    H4F18244   6.668   4.079   2.939 -0.9926  1.2217 -2.7933
  162OSM    H4G18245   6.541   3.968   3.014  0.5341  1.8413  2.9947
  162OSM    C5F18246   6.529   4.169   3.072 -0.4396 -0.9821 -0.2829
  162OSM    H5F18247   6.422   4.154   3.100 -2.0548  3.1687 -3.1779
  162OSM    H5G18248   6.536   4.275   3.040 -0.3321 -0.5997  0.9485
  162OSM    C6F18249   6.604   4.143   3.202 -0.0913  0.2766 -0.3830
  162OSM    H6F18250   6.576   4.221   3.277 -1.9426 -0.3408 -0.3992
  162OSM    H6G18251   6.711   4.149   3.171 -0.3156  0.1037 -1.1898
  162OSM    C7F18252   6.591   4.009   3.277 -0.5059 -0.0888  0.2212
  162OSM    H7F18253   6.633   3.939   3.202  2.2744  3.1860 -1.6104
  162OSM    H7G18254   6.488   3.984   3.311  0.1605 -2.5593  0.6123
  162OSM    C8F18255   6.677   3.987   3.402 -0.2822  0.4383 -0.9467
  162OSM    H8F18256   6.784   3.993   3.371 -0.0634 -0.2607 -0.3655
  162OSM    H8G18257   6.662   3.880   3.427 -0.3099  0.0422 -2.5447
  162OSM    C9F18258   6.636   4.074   3.512 -0.3538 -0.5519  0.2258
  162OSM    H9F18259   6.670   4.178   3.503  0.7993 -0.9203  0.0415
  162OSM   C10F18260   6.540   4.059   3.604  0.9208  0.1283  0.2451
  162OSM   H10F18261   6.519   4.135   3.681  0.4504 -0.4189  0.6708
  162OSM   C11F18262   6.472   3.929   3.633  0.4996  0.9751 -0.2221
  162OSM   H11F18263   6.531   3.837   3.610 -0.5704  0.0277  0.6922
  162OSM   H11G18264   6.383   3.929   3.567 -0.2837 -0.4755  0.7780
  162OSM   C12F18265   6.421   3.925   3.780 -0.2242 -0.7194  0.7420
  162OSM   H12F18266   6.360   3.833   3.791 -0.1432 -0.7090  1.3393
  162OSM   H12G18267   6.354   4.010   3.805 -0.2787 -0.2575 -0.8816
  162OSM   C13F18268   6.530   3.914   3.891  0.0686  0.5008  0.0538
  162OSM   H13F18269   6.491   3.923   3.994  0.2716 -2.5096  0.4919
  162OSM   H13G18270   6.592   4.005   3.875 -0.0318  1.0518  2.4425
  162OSM   C14F18271   6.619   3.790   3.879  0.2596  0.2223  0.4745
  162OSM   H14F18272   6.660   3.805   3.777  0.1511  1.0767  0.5493
  162OSM   H14G18273   6.563   3.694   3.889 -0.0892  0.1985 -1.3653
  162OSM   C15F18274   6.748   3.806   3.966 -0.0689 -0.4736  0.4203
  162OSM   H15F18275   6.772   3.915   3.960 -1.4781 -0.1363  0.5224
  162OSM   H15G18276   6.828   3.745   3.920  1.1579  0.3045  1.4466
  162OSM   C16F18277   6.720   3.770   4.110 -1.1682 -0.6647 -0.6372
  162OSM   H16F18278   6.673   3.672   4.129 -0.5133 -0.7100  0.9270
  162OSM   H16G18279   6.655   3.845   4.160 -1.7358 -0.1019 -2.1517
  162OSM   C17F18280   6.850   3.766   4.194  0.3393  0.2458  0.0037
  162OSM   H17F18281   6.925   3.699   4.147  0.0356 -0.0886 -0.0114
  162OSM   H17G18282   6.832   3.725   4.296 -0.0552 -1.5052 -0.7439
  162OSM   C18F18283   6.894   3.907   4.214  0.9197 -0.2889  0.2754
  162OSM   H18F18284   6.979   3.925   4.283 -0.2398 -0.3523  1.7636
  162OSM   H18G18285   6.809   3.958   4.264  0.3622 -1.3795  0.4688
  162OSM   H18H18286   6.905   3.964   4.119 -1.5204 -1.8408 -1.0442
  163OSM      N18287   1.380   5.636   2.568 -0.0878  0.4121 -0.4573
  163OSM    C1518288   1.319   5.676   2.699 -0.1910 -0.4177  0.3327
  163OSM   H15A18289   1.348   5.613   2.783  2.3060 -0.2505 -0.3344
  163OSM   H15B18290   1.212   5.689   2.687 -0.3023 -1.5224  0.0583
  163OSM   H15C18291   1.347   5.776   2.728 -2.0074  0.0982  0.4343
  163OSM    C1418292   1.523   5.674   2.567  0.6953 -0.2468  0.0559
  163OSM   H14A18293   1.570   5.628   2.652  0.6716 -0.1112  0.1422
  163OSM   H14B18294   1.543   5.778   2.586  0.8269  0.1935 -2.2068
  163OSM   H14C18295   1.568   5.636   2.476  1.1304 -0.3577  0.3159
  163OSM    C1318296   1.376   5.486   2.546 -0.1181  0.1515 -0.5794
  163OSM   H13A18297   1.431   5.462   2.456 -0.3004  1.6493 -1.1175
  163OSM   H13B18298   1.277   5.443   2.545 -0.5789  1.1303  0.7090
  163OSM   H13C18299   1.417   5.441   2.636  1.1302  0.4318 -0.9817
  163OSM    C1218300   1.306   5.709   2.456 -0.4069 -0.7573  0.4861
  163OSM   H12A18301   1.200   5.698   2.469 -0.7207 -0.2675 -1.3401
  163OSM   H12B18302   1.330   5.666   2.359 -2.4321 -1.1543  0.1164
  163OSM    C1118303   1.318   5.862   2.441 -0.5839  0.6360 -0.8461
  163OSM   H11A18304   1.271   5.889   2.345 -0.9357  1.2835 -0.4984
  163OSM   H11B18305   1.423   5.899   2.451 -0.5490  0.1360  1.2827
  163OSM      P18306   1.085   5.927   2.564 -0.0824 -0.0402  0.0289
  163OSM    O1318307   1.037   5.996   2.440 -0.8883 -0.3739 -0.4238
  163OSM    O1418308   1.031   5.791   2.599 -0.1284  0.0822  0.1465
  163OSM    O1118309   1.071   6.013   2.690 -0.2677  0.0724  0.0795
  163OSM    O1218310   1.241   5.927   2.542  1.0677 -0.2559  0.3479
  163OSM    C1S18311   1.076   6.156   2.680  0.9575 -0.2972 -0.5349
  163OSM    H1S18312   0.982   6.194   2.635  2.4594  2.5481 -1.4877
  163OSM    H1T18313   1.166   6.186   2.622  1.4780 -2.2024 -0.8113
  163OSM     NF18314   1.053   6.360   2.806  0.1221 -0.0737  0.3341
  163OSM    HNF18315   1.125   6.417   2.845  2.0365 -1.1317 -1.4386
  163OSM    C2S18316   1.077   6.218   2.821 -0.6086  0.6846 -0.6400
  163OSM    H2S18317   0.995   6.176   2.883 -0.7331 -0.7932 -1.7547
  163OSM    C3S18318   1.213   6.184   2.888  0.4651 -0.6308  0.3068
  163OSM    H3S18319   1.293   6.240   2.835  2.5293 -0.8066  3.0279
  163OSM     O318320   1.265   6.057   2.873  0.3087 -0.0784  0.1242
  163OSM    HO318321   1.196   6.007   2.828  0.0548  0.0559  0.3587
  163OSM    C4S18322   1.226   6.234   3.026  0.6054  0.0066 -0.3445
  163OSM    H4S18323   1.285   6.326   3.034 -0.7666  0.8595  0.3472
  163OSM    C5S18324   1.159   6.187   3.134 -0.4512 -0.1402 -0.2337
  163OSM    H5S18325   1.111   6.089   3.122 -3.3265  0.7397  2.5546
  163OSM    C6S18326   1.168   6.241   3.276  0.0329  1.1210  0.6373
  163OSM    H6S18327   1.064   6.273   3.296 -0.3767 -0.1319  0.6274
  163OSM    H6T18328   1.231   6.332   3.280  0.0585  1.2518 -1.7748
  163OSM    C7S18329   1.214   6.129   3.371 -0.4257 -0.1981 -1.1535
  163OSM    H7S18330   1.303   6.078   3.330  0.6107 -1.4972  2.3367
  163OSM    H7T18331   1.130   6.056   3.374 -0.4972 -0.0970  0.3946
  163OSM    C8S18332   1.247   6.192   3.502 -0.3162 -0.2530 -1.0275
  163OSM    H8S18333   1.174   6.272   3.525 -1.6892 -1.3758 -1.3111
  163OSM    H8T18334   1.343   6.247   3.492 -0.1125 -0.7544 -1.9627
  163OSM    C9S18335   1.251   6.093   3.617  0.0019  0.3294 -0.3249
  163OSM    H9S18336   1.345   6.033   3.615  0.8129  1.4492  1.2769
  163OSM    H9T18337   1.163   6.025   3.615 -1.1435  1.7697 -1.1115
  163OSM   C10S18338   1.237   6.158   3.759 -0.3733  0.4221  0.9218
  163OSM   H10S18339   1.148   6.224   3.765 -1.1911 -0.3538 -1.3782
  163OSM   H10T18340   1.324   6.227   3.756 -0.1935  0.2292 -2.2057
  163OSM   C11S18341   1.241   6.051   3.866  0.3715  0.1927 -0.1626
  163OSM   H11S18342   1.326   5.978   3.864 -0.3958 -0.7432  0.3351
  163OSM   H11T18343   1.156   5.983   3.844  1.5548 -1.1016 -0.9587
  163OSM   C12S18344   1.239   6.111   4.005 -0.4281 -0.2341  0.0067
  163OSM   H12S18345   1.141   6.157   4.032  0.6371  1.4531  1.1754
  163OSM   H12T18346   1.317   6.189   4.008  0.3597 -0.8503 -2.1977
  163OSM   C13S18347   1.265   6.009   4.116  0.3182  0.0230 -0.0074
  163OSM   H13S18348   1.364   5.967   4.088  0.9323  1.4555 -0.0832
  163OSM   H13T18349   1.186   5.931   4.103  0.1482  0.6661 -3.8452
  163OSM   C14S18350   1.263   6.059   4.265  1.0256  0.0843  0.2576
  163OSM   H14S18351   1.160   6.085   4.295 -0.0596 -1.1529 -2.1035
  163OSM   H14T18352   1.316   6.157   4.265 -0.0219  0.6770  1.3402
  163OSM   C15S18353   1.319   5.964   4.365 -0.2932  1.1454  0.4845
  163OSM   H15S18354   1.312   6.011   4.465 -1.0817  4.6959 -1.1098
  163OSM   H15T18355   1.428   5.947   4.345 -0.7136 -1.8328  0.1492
  163OSM   C16S18356   1.251   5.825   4.359  0.2123  0.4758 -0.0284
  163OSM   H16S18357   1.287   5.775   4.267  0.6473 -1.4163  1.1193
  163OSM   H16T18358   1.142   5.844   4.346 -0.3308 -3.2356 -2.0585
  163OSM   C17S18359   1.265   5.739   4.486  0.4362  0.4901  0.6406
  163OSM   H17S18360   1.204   5.649   4.464  0.0207  0.7901  0.5298
  163OSM   H17T18361   1.225   5.805   4.566  1.2194  1.2568  0.4096
  163OSM   C18S18362   1.403   5.689   4.523 -0.5439  0.1150  0.3545
  163OSM   H18S18363   1.410   5.609   4.600 -0.4806  0.0577  0.2903
  163OSM   H18T18364   1.465   5.776   4.551 -1.8178  1.6113 -1.2539
  163OSM   H18U18365   1.460   5.652   4.435 -1.1353  1.7778 -0.7800
  163OSM    C1F18366   0.935   6.418   2.771 -0.2991  0.5275 -0.8502
  163OSM     OF18367   0.841   6.358   2.718 -0.2275  0.5247 -0.7904
  163OSM    C2F18368   0.932   6.563   2.798  0.2018  0.4543 -0.7419
  163OSM    H2F18369   0.947   6.612   2.700  3.1414 -0.4747 -0.8673
  163OSM    H2G18370   1.027   6.594   2.848  0.5125  0.1077 -1.1068
  163OSM    C3F18371   0.794   6.596   2.870 -0.8113 -0.1790 -0.4632
  163OSM    H3F18372   0.712   6.565   2.801  0.9977 -0.1858 -2.7284
  163OSM    H3G18373   0.797   6.706   2.888 -0.2979 -0.6103  2.6701
  163OSM    C4F18374   0.770   6.537   3.003  0.0184 -0.0103  0.4141
  163OSM    H4F18375   0.753   6.428   2.986  0.7161 -0.0534 -0.0458
  163OSM    H4G18376   0.670   6.577   3.034  1.5911  3.1627  1.8624
  163OSM    C5F18377   0.872   6.567   3.114 -0.2524 -0.3751 -0.0230
  163OSM    H5F18378   0.892   6.676   3.101 -2.3482 -0.0662 -1.0169
  163OSM    H5G18379   0.966   6.510   3.104  0.8161  1.2519  0.2969
  163OSM    C6F18380   0.809   6.545   3.251 -0.4432  0.4863  0.9637
  163OSM    H6F18381   0.767   6.442   3.260  1.7780 -0.5780  0.1788
  163OSM    H6G18382   0.726   6.614   3.274 -1.7485 -0.3490 -0.9105
  163OSM    C7F18383   0.906   6.571   3.361  0.3286 -0.4861 -0.2449
  163OSM    H7F18384   0.942   6.673   3.338 -0.9296 -0.1402 -0.7790
  163OSM    H7G18385   0.979   6.489   3.346 -1.0426 -1.6746 -0.6302
  163OSM    C8F18386   0.860   6.570   3.511 -0.4204 -0.4068 -0.0056
  163OSM    H8F18387   0.802   6.658   3.545 -1.9636 -1.1641 -0.5864
  163OSM    H8G18388   0.953   6.558   3.571 -1.8402 -1.8793  2.0164
  163OSM    C9F18389   0.768   6.453   3.535  0.5871  0.4315 -0.6878
  163OSM    H9F18390   0.693   6.441   3.455  3.8302  0.7866 -4.1153
  163OSM   C10F18391   0.766   6.362   3.641 -0.4396  1.0067  0.4319
  163OSM   H10F18392   0.702   6.274   3.622  1.7621 -0.6469  0.2790
  163OSM   C11F18393   0.861   6.339   3.759  0.4901  0.3353  0.7611
  163OSM   H11F18394   0.948   6.405   3.740 -0.6050  2.8913  3.7393
  163OSM   H11G18395   0.908   6.240   3.742  1.0163  1.0701 -2.7724
  163OSM   C12F18396   0.822   6.360   3.908 -0.3404 -0.1839 -0.0445
  163OSM   H12F18397   0.908   6.346   3.976  0.1608 -1.6924 -0.9358
  163OSM   H12G18398   0.749   6.281   3.939 -1.0945  0.9313  1.1000
  163OSM   C13F18399   0.763   6.501   3.942 -0.2117  0.8186 -0.3855
  163OSM   H13F18400   0.664   6.508   3.890 -1.5757 -1.2162  1.7461
  163OSM   H13G18401   0.830   6.582   3.905 -0.4609  0.5363 -1.4992
  163OSM   C14F18402   0.750   6.510   4.091  0.3509 -0.3327  0.0208
  163OSM   H14F18403   0.815   6.589   4.135 -2.6824  0.6536  3.0778
  163OSM   H14G18404   0.782   6.426   4.156  0.2605 -0.1984  0.2405
  163OSM   C15F18405   0.598   6.551   4.126  0.0556  0.0998  0.2551
  163OSM   H15F18406   0.537   6.464   4.093  0.7463 -0.6622  0.9451
  163OSM   H15G18407   0.561   6.638   4.067 -1.8089 -0.1424  0.9829
  163OSM   C16F18408   0.589   6.563   4.274  0.0706 -0.0120 -0.8074
  163OSM   H16F18409   0.660   6.635   4.320  2.2154 -1.4570 -1.7294
  163OSM   H16G18410   0.612   6.465   4.321 -1.3729 -0.7163 -1.5100
  163OSM   C17F18411   0.442   6.600   4.313  1.0021 -0.6793 -0.5027
  163OSM   H17F18412   0.371   6.527   4.268 -0.0744 -0.0765  0.1480
  163OSM   H17G18413   0.415   6.699   4.271  2.3146  0.4120  1.0910
  163OSM   C18F18414   0.397   6.600   4.460 -0.2030  0.4777 -0.0845
  163OSM   H18F18415   0.287   6.596   4.441  0.2903 -0.8922 -3.4384
  163OSM   H18G18416   0.433   6.689   4.516 -2.0990  0.3571  1.4340
  163OSM   H18H18417   0.416   6.501   4.506 -1.0578  0.0720 -0.5770
  164OSM      N18418   2.516   5.722   2.352 -0.8375 -0.1756  0.0032
  164OSM    C1518419   2.578   5.773   2.475 -0.6331 -0.3844  0.1637
  164OSM   H15A18420   2.555   5.730   2.571 -0.1350  2.2271  1.5417
  164OSM   H15B18421   2.545   5.874   2.493  0.3107  0.4131 -2.2121
  164OSM   H15C18422   2.685   5.778   2.478 -0.5931  0.3930  5.0353
  164OSM    C1418423   2.528   5.831   2.248  0.6108  0.8591  0.7428
  164OSM   H14A18424   2.476   5.919   2.283 -1.1617  0.3949 -0.5808
  164OSM   H14B18425   2.480   5.803   2.155  0.4440 -0.6498  1.2585
  164OSM   H14C18426   2.627   5.870   2.232  1.3670 -0.7632  1.2442
  164OSM    C1318427   2.599   5.602   2.309 -0.3510  0.0060  0.2834
  164OSM   H13A18428   2.591   5.524   2.384 -0.8309 -0.6812 -0.4667
  164OSM   H13B18429   2.705   5.618   2.295 -0.0590 -1.9502 -0.1202
  164OSM   H13C18430   2.558   5.558   2.219 -2.3293  0.2784  1.0082
  164OSM    C1218431   2.371   5.672   2.365  0.4548  0.4222 -0.3320
  164OSM   H12A18432   2.376   5.583   2.426  3.7214  0.1790 -0.8150
  164OSM   H12B18433   2.334   5.644   2.268  1.1486 -1.9648  0.0216
  164OSM    C1118434   2.273   5.757   2.441  0.7492 -0.8520  0.2165
  164OSM   H11A18435   2.304   5.753   2.547  2.8258  0.6962 -0.2651
  164OSM   H11B18436   2.170   5.717   2.428  0.6052 -0.0008 -1.6162
  164OSM      P18437   2.167   5.969   2.328 -0.0629 -0.3360 -0.0416
  164OSM    O1318438   2.229   6.090   2.267  0.0449  0.1029  0.0874
  164OSM    O1418439   2.109   5.883   2.230 -0.1309 -0.7412  0.4304
  164OSM    O1118440   2.059   6.013   2.437  0.4420 -0.0493 -0.4406
  164OSM    O1218441   2.283   5.899   2.405 -0.0539 -0.1197 -0.0603
  164OSM    C1S18442   1.953   5.936   2.491 -0.2163 -0.1730 -0.9970
  164OSM    H1S18443   1.986   5.833   2.518 -0.0498  0.1219 -0.0132
  164OSM    H1T18444   1.861   5.938   2.428  0.7198  0.5037 -2.3896
  164OSM     NF18445   1.804   5.898   2.691 -0.1740  1.5625  0.1131
  164OSM    HNF18446   1.710   5.932   2.696 -0.2721  1.4432 -0.8038
  164OSM    C2S18447   1.904   5.993   2.633 -0.1593  0.6910 -0.2675
  164OSM    H2S18448   1.990   5.985   2.703 -2.0186 -1.3691  1.9640
  164OSM    C3S18449   1.882   6.143   2.621 -0.3513 -0.8931  0.2842
  164OSM    H3S18450   1.798   6.172   2.554 -0.7999 -1.0572  0.7582
  164OSM     O318451   1.997   6.215   2.589 -0.2582 -0.0575 -0.6915
  164OSM    HO318452   2.062   6.158   2.548  1.2391  2.0994 -1.5128
  164OSM    C4S18453   1.829   6.182   2.759 -0.5045  0.5546  0.7771
  164OSM    H4S18454   1.721   6.166   2.766 -0.5038 -0.2458 -0.7161
  164OSM    C5S18455   1.898   6.228   2.872 -0.2132  0.1751  0.0957
  164OSM    H5S18456   2.008   6.223   2.873 -0.2262 -0.0232  0.9622
  164OSM    C6S18457   1.841   6.239   3.011  0.1976 -0.3472  0.4856
  164OSM    H6S18458   1.861   6.342   3.047 -1.0620 -1.0242  3.4913
  164OSM    H6T18459   1.898   6.172   3.079  1.6722 -0.6707 -0.9939
  164OSM    C7S18460   1.694   6.204   3.033 -0.0440 -0.4706  0.1229
  164OSM    H7S18461   1.667   6.098   3.009 -1.7619 -0.1140  0.2973
  164OSM    H7T18462   1.638   6.277   2.971  2.0886  0.7334 -0.4447
  164OSM    C8S18463   1.640   6.223   3.178  0.0020 -0.1548 -0.1749
  164OSM    H8S18464   1.532   6.197   3.180  0.2996 -1.4758 -0.4403
  164OSM    H8T18465   1.656   6.332   3.195 -1.9742  0.6567 -2.8126
  164OSM    C9S18466   1.703   6.132   3.284  0.2501  0.7629 -0.2775
  164OSM    H9S18467   1.809   6.160   3.296 -0.1474  1.4630  1.9524
  164OSM    H9T18468   1.698   6.029   3.241  1.0658  0.1051  1.1280
  164OSM   C10S18469   1.638   6.137   3.420 -0.3495  0.1507 -0.4883
  164OSM   H10S18470   1.556   6.067   3.446 -0.7389  1.6466  2.7795
  164OSM   H10T18471   1.576   6.228   3.430  0.0990  0.7166 -2.4301
  164OSM   C11S18472   1.741   6.136   3.538  0.3839  0.5304 -1.1799
  164OSM   H11S18473   1.798   6.230   3.525  0.0623  0.6226 -1.9740
  164OSM   H11T18474   1.816   6.055   3.522  1.0741  1.5287 -3.3314
  164OSM   C12S18475   1.683   6.122   3.679  0.2512  0.4895  0.4277
  164OSM   H12S18476   1.633   6.023   3.685 -0.8942  0.8847 -1.5348
  164OSM   H12T18477   1.604   6.199   3.690 -1.3875 -1.1149  0.3831
  164OSM   C13S18478   1.782   6.142   3.787  0.1966 -0.1021 -0.3474
  164OSM   H13S18479   1.831   6.238   3.762 -1.8388  1.2568  0.6017
  164OSM   H13T18480   1.848   6.053   3.780 -1.4392 -1.2392 -2.8941
  164OSM   C14S18481   1.719   6.159   3.919  0.0779 -0.2187  0.5972
  164OSM   H14S18482   1.655   6.070   3.930 -1.2562  0.5919 -0.3277
  164OSM   H14T18483   1.661   6.253   3.931  0.1608  0.0131 -0.6250
  164OSM   C15S18484   1.825   6.166   4.019  0.0652 -0.1844  0.1310
  164OSM   H15S18485   1.890   6.254   4.000 -2.1447  0.9342 -3.0544
  164OSM   H15T18486   1.886   6.074   4.005 -1.2891 -1.0492 -0.3025
  164OSM   C16S18487   1.760   6.183   4.155 -0.4023 -0.2465 -0.0631
  164OSM   H16S18488   1.712   6.084   4.168 -2.3228  0.3935 -1.6959
  164OSM   H16T18489   1.684   6.264   4.165 -0.6088 -0.7059  3.1639
  164OSM   C17S18490   1.863   6.203   4.276  0.0346 -0.2489 -0.4134
  164OSM   H17S18491   1.917   6.300   4.269 -2.2944  1.2202  0.8255
  164OSM   H17T18492   1.940   6.123   4.268  1.3869  0.7098  2.1071
  164OSM   C18S18493   1.808   6.199   4.420 -0.3981  0.1901 -0.6279
  164OSM   H18S18494   1.779   6.302   4.451 -1.1795 -0.5773  1.3219
  164OSM   H18T18495   1.869   6.147   4.497 -0.4160 -0.2816 -0.9328
  164OSM   H18U18496   1.718   6.134   4.418 -0.9009  0.8087  0.4667
  164OSM    C1F18497   1.828   5.776   2.745  0.3035  0.7603 -0.5342
  164OSM     OF18498   1.936   5.721   2.735  0.1804 -0.1363  0.6607
  164OSM    C2F18499   1.723   5.732   2.842 -0.3329  0.0931 -0.3024
  164OSM    H2F18500   1.660   5.652   2.798  0.5661 -0.4930 -0.5585
  164OSM    H2G18501   1.658   5.819   2.867 -1.9778 -1.0631 -0.3725
  164OSM    C3F18502   1.792   5.660   2.967 -0.1204  0.4578  0.2131
  164OSM    H3F18503   1.856   5.581   2.922 -0.6258  1.4845 -2.4535
  164OSM    H3G18504   1.701   5.618   3.015  0.2228  0.4306  0.8475
  164OSM    C4F18505   1.865   5.750   3.063 -1.2602  0.7884 -0.2236
  164OSM    H4F18506   1.799   5.831   3.100 -1.0077  1.5941 -1.4579
  164OSM    H4G18507   1.950   5.801   3.013 -0.5104 -0.8537 -0.6958
  164OSM    C5F18508   1.921   5.691   3.193 -0.1668 -0.3312  0.0539
  164OSM    H5F18509   1.991   5.606   3.182  0.5843  0.3612 -0.6645
  164OSM    H5G18510   1.833   5.665   3.257  0.3715  1.0668  1.4463
  164OSM    C6F18511   2.006   5.798   3.265 -0.2924 -0.1133 -0.0200
  164OSM    H6F18512   1.935   5.882   3.281 -0.2391  0.0434 -0.5711
  164OSM    H6G18513   2.093   5.825   3.201 -1.3618  0.5521 -1.2536
  164OSM    C7F18514   2.088   5.757   3.392  0.0555  1.0121 -0.5738
  164OSM    H7F18515   2.139   5.849   3.427 -1.1570  0.7919  2.0143
  164OSM    H7G18516   2.158   5.678   3.357 -0.9584  0.3692 -1.1909
  164OSM    C8F18517   1.989   5.712   3.499  0.2272 -0.1145  0.1368
  164OSM    H8F18518   1.923   5.629   3.465 -0.8874  0.3494  1.1044
  164OSM    H8G18519   1.912   5.790   3.519  1.5896  1.6489 -1.1449
  164OSM    C9F18520   2.059   5.661   3.620 -0.1911  0.4101 -0.0839
  164OSM    H9F18521   2.129   5.576   3.611 -0.6870 -0.1639  1.2229
  164OSM   C10F18522   2.059   5.708   3.748 -0.1776  0.9750  0.1522
  164OSM   H10F18523   2.120   5.664   3.828 -1.1312  1.0962  0.9659
  164OSM   C11F18524   1.983   5.826   3.803  0.7296  0.4154 -0.0141
  164OSM   H11F18525   1.931   5.886   3.726  0.4550  0.3841  0.1449
  164OSM   H11G18526   2.048   5.895   3.861 -1.7520  2.5374  0.4232
  164OSM   C12F18527   1.874   5.785   3.903 -0.3682  0.1477  0.3844
  164OSM   H12F18528   1.788   5.734   3.854 -0.8914  0.3121  1.0954
  164OSM   H12G18529   1.831   5.878   3.946  2.7772  1.1407  1.6682
  164OSM   C13F18530   1.918   5.704   4.022 -0.2173 -0.0554  0.1858
  164OSM   H13F18531   2.008   5.747   4.070  1.5776 -0.0263 -2.9603
  164OSM   H13G18532   1.933   5.596   4.005 -1.4134 -0.4720  1.5066
  164OSM   C14F18533   1.799   5.703   4.123  0.6829  0.9475 -0.3476
  164OSM   H14F18534   1.716   5.662   4.061  0.4851  1.8809 -0.7052
  164OSM   H14G18535   1.767   5.803   4.159 -1.5905 -0.6758  2.5940
  164OSM   C15F18536   1.821   5.605   4.237  0.4249 -0.7156 -0.8209
  164OSM   H15F18537   1.846   5.505   4.195 -0.8075 -0.8106 -1.3660
  164OSM   H15G18538   1.737   5.586   4.307  2.1819 -1.9665  1.0277
  164OSM   C16F18539   1.944   5.646   4.325  0.1861  0.4584 -0.3439
  164OSM   H16F18540   2.031   5.658   4.258 -0.3436 -0.5092 -1.2438
  164OSM   H16G18541   1.969   5.558   4.389  1.1926  1.5011  0.7453
  164OSM   C17F18542   1.910   5.768   4.414 -0.3616  0.2483 -0.4991
  164OSM   H17F18543   1.852   5.850   4.367  0.7862  0.9224 -0.7816
  164OSM   H17G18544   2.012   5.797   4.446 -0.4203 -2.0124  2.1597
  164OSM   C18F18545   1.834   5.735   4.545 -0.0741 -0.2335  0.3318
  164OSM   H18F18546   1.891   5.675   4.619  0.2211 -1.0029 -0.5086
  164OSM   H18G18547   1.745   5.676   4.517  0.4785 -0.6567 -0.5620
  164OSM   H18H18548   1.806   5.827   4.601 -0.6572 -0.6427  0.7276
  165SAPS     N18549   0.213   0.355   6.760 -0.1326 -0.0674 -0.0458
  165SAPS   HN118550   0.142   0.430   6.771  1.3378  1.0320  3.0044
  165SAPS   HN218551   0.287   0.389   6.695 -2.2307  1.6897 -1.6647
  165SAPS   HN318552   0.161   0.275   6.716  1.7994 -1.4711  0.1001
  165SAPS   C1218553   0.260   0.326   6.898 -0.3728  0.3197  1.0248
  165SAPS  H12A18554   0.302   0.418   6.937  0.3402  1.3122 -1.8793
  165SAPS   C1318555   0.154   0.272   6.990 -0.8756  0.6990 -1.0060
  165SAPS  O13A18556   0.033   0.290   6.966  0.0552 -0.3175  0.3428
  165SAPS  O13B18557   0.185   0.233   7.111  0.3698  0.2050  0.6344
  165SAPS   C1118558   0.376   0.227   6.889 -0.0376  0.1488  0.3838
  165SAPS  H11A18559   0.338   0.125   6.870  0.5096 -0.5177  2.6136
  165SAPS  H11B18560   0.428   0.215   6.987  1.6178  1.5170 -0.2719
  165SAPS     P18561   0.612   0.203   6.772  0.8059  0.0572 -0.4177
  165SAPS   O1318562   0.707   0.293   6.698  0.4399  0.3835  0.0925
  165SAPS   O1418563   0.659   0.133   6.895  0.1008  0.3372 -0.0042
  165SAPS   O1218564   0.470   0.274   6.793  0.4594  0.4521 -0.1226
  165SAPS   O1118565   0.572   0.087   6.673  0.5944 -0.0497 -0.4743
  165SAPS    C118566   0.563   0.113   6.537 -0.2885 -0.4019 -0.3040
  165SAPS    HA18567   0.483   0.049   6.493 -1.7309  0.8612  0.3921
  165SAPS    HB18568   0.545   0.219   6.511 -0.6187 -0.2643  0.4659
  165SAPS    C218569   0.699   0.080   6.469  0.4621 -0.2182 -0.7870
  165SAPS    HS18570   0.767   0.147   6.526  0.6482 -0.5994 -0.5637
  165SAPS   O2118571   0.684   0.128   6.329  0.2440  0.2195 -0.2338
  165SAPS   C2118572   0.790   0.180   6.277  0.0607  0.6603 -0.2755
  165SAPS   O2218573   0.895   0.213   6.329  0.2887  0.1865 -0.0416
  165SAPS   C2218574   0.754   0.190   6.129 -0.2480 -0.5483 -0.0594
  165SAPS   H2R18575   0.643   0.179   6.124  0.0417 -4.7464 -1.2888
  165SAPS   H2S18576   0.792   0.290   6.100 -1.1658 -0.2352 -0.2406
  165SAPS    C318577   0.746  -0.068   6.477 -0.1358 -0.1976 -0.0334
  165SAPS    HX18578   0.677  -0.121   6.408 -0.0389  0.0563 -0.3272
  165SAPS    HY18579   0.716  -0.104   6.578 -0.8661  1.1517  0.2665
  165SAPS   O3118580   0.887  -0.091   6.451  0.2314 -0.2689 -0.0721
  165SAPS   C3118581   0.918  -0.178   6.351  0.5046  0.4677 -0.9103
  165SAPS   O3218582   0.836  -0.247   6.295  0.0279  0.1304 -0.4693
  165SAPS   C3218583   1.064  -0.161   6.319  0.0572  0.0348  0.7440
  165SAPS   H2X18584   1.135  -0.178   6.403 -0.3391  0.6761  1.2241
  165SAPS   H2Y18585   1.078  -0.058   6.279 -1.3869  0.5511  1.4952
  165SAPS   C2318586   0.828   0.093   6.038  0.4845  0.1878 -0.9755
  165SAPS   H3R18587   0.802  -0.013   6.053  2.8162 -0.7415 -2.8329
  165SAPS   H3S18588   0.938   0.103   6.049  0.4850 -2.0416  3.2347
  165SAPS   C2418589   0.799   0.118   5.894 -0.1679 -0.1887  0.1268
  165SAPS   H4R18590   0.690   0.105   5.876  0.0908 -0.9099 -1.0178
  165SAPS   H4S18591   0.840   0.033   5.835 -0.0064  1.1902 -1.8229
  165SAPS   C2518592   0.834   0.255   5.831  0.3441  0.2725 -0.2271
  165SAPS   H5R18593   0.771   0.340   5.862  0.0644  0.3223 -0.9028
  165SAPS   C2618594   0.923   0.276   5.731 -0.3091 -0.1178  0.0424
  165SAPS   H6R18595   0.928   0.375   5.682  0.0725  0.2402  0.7877
  165SAPS   C2718596   1.021   0.172   5.681  0.3399  0.7955 -0.2373
  165SAPS   H7R18597   0.975   0.110   5.601  0.2566  0.0526  0.3700
  165SAPS   H7S18598   1.046   0.102   5.764  0.0133  2.1623  1.0515
  165SAPS   C2818599   1.150   0.227   5.639  0.1441  1.0998 -0.1021
  165SAPS   H8R18600   1.227   0.208   5.716 -1.0068 -0.2203  0.7539
  165SAPS   C2918601   1.186   0.289   5.526  0.6562  0.0376  0.5521
  165SAPS   H9R18602   1.288   0.328   5.513  1.0511 -0.5078  1.8636
  165SAPS  C21018603   1.093   0.328   5.415  0.0372 -0.0138 -0.2823
  165SAPS  H10R18604   0.985   0.321   5.440 -0.4812 -0.2527 -2.3869
  165SAPS  H10S18605   1.108   0.253   5.335 -0.4797 -1.9895  1.3884
  165SAPS  C21118606   1.121   0.468   5.367  1.2790 -0.0699 -0.0749
  165SAPS  H11R18607   1.174   0.537   5.433 -1.2579 -0.4399  2.5588
  165SAPS  C21218608   1.084   0.507   5.249  0.3712 -0.8444 -0.3177
  165SAPS  H12R18609   1.111   0.613   5.230 -0.3332 -0.2058  2.0006
  165SAPS  C21318610   1.017   0.436   5.139  0.2442  0.7244 -0.1749
  165SAPS  H13R18611   0.973   0.509   5.067  1.0295  2.1203  0.7302
  165SAPS  H13S18612   0.932   0.386   5.189  0.8075  0.2548  0.3197
  165SAPS  C21418613   1.105   0.339   5.069 -0.5659  0.0587 -0.6286
  165SAPS  H14R18614   1.207   0.358   5.105 -0.2968  1.2125 -1.9016
  165SAPS  C21518615   1.085   0.264   4.964  0.0868 -0.5318  0.1134
  165SAPS  H15R18616   1.162   0.187   4.945  1.0891  0.0524  1.6100
  165SAPS  C21618617   0.949   0.242   4.892 -0.0777 -0.4754  0.1389
  165SAPS  H16R18618   0.863   0.269   4.956 -2.3389 -1.5508 -2.2441
  165SAPS  H16S18619   0.939   0.134   4.868 -0.6107 -0.9749  2.3856
  165SAPS  C21718620   0.916   0.319   4.757 -0.6361  0.2249  0.6015
  165SAPS  H17R18621   0.899   0.420   4.800 -1.8942  0.1988  0.2151
  165SAPS  H17S18622   0.826   0.273   4.711 -0.2291  0.9855 -1.0127
  165SAPS  C21818623   1.033   0.310   4.652 -0.6249 -0.1641 -0.5299
  165SAPS  H18R18624   1.075   0.207   4.657 -0.5414 -0.0658  2.9734
  165SAPS  H18S18625   1.105   0.382   4.696 -0.6503 -1.6104  2.0640
  165SAPS  C21918626   1.005   0.365   4.516 -0.0150  0.3859 -0.2330
  165SAPS  H19R18627   0.956   0.465   4.513  0.9057  0.9284  1.5401
  165SAPS  H19S18628   0.926   0.298   4.478  0.8703 -0.2937 -0.9297
  165SAPS  C22018629   1.120   0.349   4.428  0.2182  0.2747  0.4362
  165SAPS  H20R18630   1.094   0.402   4.334  0.2553  0.3547  0.4713
  165SAPS  H20S18631   1.130   0.240   4.406 -0.4910 -0.1473  2.0581
  165SAPS  H20T18632   1.220   0.375   4.469  1.0703  0.8522 -1.8360
  165SAPS   C3318633   1.117  -0.252   6.205 -0.4116  0.5312  0.1011
  165SAPS   H3X18634   1.077  -0.352   6.231 -0.1106  0.5191  0.5181
  165SAPS   H3Y18635   1.227  -0.244   6.190 -0.5300 -1.1902 -2.3219
  165SAPS   C3418636   1.049  -0.221   6.062  0.2989 -0.4646  0.0185
  165SAPS   H4X18637   1.056  -0.112   6.042 -1.3860 -0.0354  1.4951
  165SAPS   H4Y18638   0.941  -0.246   6.069  0.2071 -0.3000 -0.7366
  165SAPS   C3518639   1.109  -0.299   5.944  0.6033  0.1625 -0.0229
  165SAPS   H5X18640   1.104  -0.403   5.982  1.1146  0.2645  0.3303
  165SAPS   H5Y18641   1.216  -0.275   5.929  1.1357 -0.6745  2.2031
  165SAPS   C3618642   1.022  -0.281   5.818 -0.5697 -0.0179  0.3121
  165SAPS   H6X18643   1.014  -0.173   5.794  1.0928  0.1644  0.4438
  165SAPS   H6Y18644   0.917  -0.308   5.840 -0.4546  0.7420  1.9670
  165SAPS   C3718645   1.079  -0.346   5.688 -0.1460  0.6927  0.1680
  165SAPS   H7X18646   1.085  -0.456   5.705  2.0332  0.6846 -0.3934
  165SAPS   H7Y18647   1.183  -0.309   5.683  0.3653 -0.1907  2.6782
  165SAPS   C3818648   1.005  -0.302   5.561  0.2130 -0.1739 -0.1300
  165SAPS   H8X18649   1.027  -0.194   5.544  1.0252 -0.3842 -0.4561
  165SAPS   H8Y18650   0.895  -0.310   5.570  0.2581 -0.0473  0.5526
  165SAPS   C3918651   1.047  -0.363   5.423  0.4033  0.1906 -0.7034
  165SAPS   H9X18652   1.020  -0.470   5.422 -0.0206  0.2796 -2.5754
  165SAPS   H9Y18653   1.155  -0.377   5.400  0.5070 -1.3645  0.5235
  165SAPS  C31018654   0.971  -0.287   5.304  0.3473  0.7599 -0.4919
  165SAPS  H10X18655   0.866  -0.257   5.324  0.0840  0.0053 -0.6812
  165SAPS  H10Y18656   0.977  -0.358   5.218  0.6310 -1.2447  1.0957
  165SAPS  C31118657   1.055  -0.162   5.257 -0.0040  1.2246 -0.3458
  165SAPS  H11X18658   1.152  -0.204   5.226 -0.6679 -0.1735 -0.6136
  165SAPS  H11Y18659   1.071  -0.089   5.339  2.8611 -0.3054  0.5932
  165SAPS  C31218660   0.991  -0.092   5.140 -0.3140 -0.7279  0.3901
  165SAPS  H12X18661   1.073  -0.032   5.096 -0.0512 -0.0386  1.7640
  165SAPS  H12Y18662   0.923  -0.011   5.172  1.5165  1.3406 -0.7169
  165SAPS  C31318663   0.901  -0.168   5.040 -0.0829  0.0043 -0.3341
  165SAPS  H13X18664   0.849  -0.096   4.974 -3.1132 -0.1434  1.7163
  165SAPS  H13Y18665   0.818  -0.230   5.080  0.2952 -2.6842 -3.3550
  165SAPS  C31418666   0.995  -0.264   4.964 -0.2116 -0.5436  0.0467
  165SAPS  H14X18667   1.042  -0.324   5.044  2.0493  2.1200  0.8622
  165SAPS  H14Y18668   1.074  -0.207   4.910  2.3706 -3.8613  0.0070
  165SAPS  C31518669   0.930  -0.352   4.862  0.2216  0.0275 -1.3630
  165SAPS  H15X18670   0.862  -0.304   4.789 -1.2682 -0.5910 -0.4455
  165SAPS  H15Y18671   0.877  -0.425   4.927  0.1567  0.8339 -0.4936
  165SAPS  C31618672   1.033  -0.431   4.781 -0.1414 -0.1735 -0.6272
  165SAPS  H16X18673   1.105  -0.358   4.739  0.2667  1.4337  2.6054
  165SAPS  H16Y18674   0.990  -0.493   4.699  2.3417 -1.4535 -1.0810
  165SAPS  C31718675   1.100  -0.536   4.871  0.8568 -0.2309 -0.1600
  165SAPS  H17X18676   1.021  -0.602   4.912  0.2908  0.0265 -0.8141
  165SAPS  H17Y18677   1.160  -0.478   4.944  1.9344 -1.8869  0.3250
  165SAPS  C31818678   1.204  -0.625   4.799  0.7846 -0.2929  0.3285
  165SAPS  H18X18679   1.226  -0.716   4.859 -1.0322 -1.1937 -0.2746
  165SAPS  H18Y18680   1.297  -0.570   4.773 -1.4850  3.0184 -1.5388
  165SAPS  H18Z18681   1.157  -0.661   4.704  0.0105  1.6668 -0.0755
  166SAPS     N18682   3.377   5.935   7.055  0.3163 -0.0141 -0.5927
  166SAPS   HN118683   3.358   5.870   7.134  2.0945  0.0828 -0.0289
  166SAPS   HN218684   3.309   5.909   6.981  0.8789 -0.4579 -0.9592
  166SAPS   HN318685   3.469   5.922   7.007  0.1321 -1.6508 -0.5334
  166SAPS   C1218686   3.356   6.072   7.110  0.2810  0.1091  1.0140
  166SAPS  H12A18687   3.254   6.090   7.143 -0.8735  2.3188 -3.0492
  166SAPS   C1318688   3.438   6.101   7.233 -0.4155  0.7347  0.6922
  166SAPS  O13A18689   3.525   6.021   7.270  0.8347 -0.4072 -0.1630
  166SAPS  O13B18690   3.418   6.208   7.294  0.1310 -0.1308  0.2970
  166SAPS   C1118691   3.381   6.172   6.984 -0.0485 -0.0782 -1.0114
  166SAPS  H11A18692   3.369   6.269   7.036 -3.0151 -0.3825 -0.9520
  166SAPS  H11B18693   3.291   6.167   6.919 -2.1946 -0.4795  1.8105
  166SAPS     P18694   3.555   6.233   6.787  0.5127  0.3378  0.1827
  166SAPS   O1318695   3.553   6.382   6.801  0.5131 -0.4026 -0.6927
  166SAPS   O1418696   3.685   6.177   6.756  0.2156 -0.2899 -0.6654
  166SAPS   O1218697   3.514   6.162   6.925 -0.0073 -0.3817 -0.5495
  166SAPS   O1118698   3.442   6.191   6.697 -0.1428  0.0234 -0.4025
  166SAPS    C118699   3.397   6.050   6.695 -0.4181 -0.1863 -0.0763
  166SAPS    HA18700   3.457   5.985   6.763 -1.2073  0.6591  1.4815
  166SAPS    HB18701   3.292   6.038   6.727 -0.2160 -0.7994  0.3742
  166SAPS    C218702   3.414   5.992   6.549  0.3124  0.3255 -0.0457
  166SAPS    HS18703   3.390   5.883   6.555  1.3526  0.0384 -0.8690
  166SAPS   O2118704   3.536   5.997   6.493  0.1274  0.3365  0.6414
  166SAPS   C2118705   3.640   5.931   6.553 -0.6577  0.5319  0.3283
  166SAPS   O2218706   3.633   5.859   6.647 -0.0902 -0.1633 -0.1445
  166SAPS   C2218707   3.773   5.950   6.477 -0.1755  0.2038  0.8321
  166SAPS   H2R18708   3.749   6.028   6.401 -2.3215 -0.7616  0.4521
  166SAPS   H2S18709   3.843   5.990   6.553  0.6282  0.6349 -0.1129
  166SAPS    C318710   3.317   6.060   6.450  0.3645  0.1809  0.5040
  166SAPS    HX18711   3.327   6.170   6.455 -2.1066  0.4979 -0.2997
  166SAPS    HY18712   3.213   6.034   6.476  0.1071 -0.4105 -0.9951
  166SAPS   O3118713   3.356   6.027   6.312 -0.7737  0.2914 -0.1448
  166SAPS   C3118714   3.306   5.925   6.258  0.0721 -0.2130 -0.0467
  166SAPS   O3218715   3.228   5.851   6.311 -0.4661 -0.1959  0.1911
  166SAPS   C3218716   3.345   5.921   6.114  0.6187 -0.3456 -0.0209
  166SAPS   H2X18717   3.453   5.943   6.101  0.7824 -0.5801  0.9040
  166SAPS   H2Y18718   3.282   6.001   6.070 -0.1220  1.4290  3.8731
  166SAPS   C2318719   3.828   5.834   6.394  0.3551 -0.2487 -0.2671
  166SAPS   H3R18720   3.834   5.739   6.451  0.2628 -0.5938 -0.8272
  166SAPS   H3S18721   3.933   5.854   6.365  0.3570 -0.4049 -0.3726
  166SAPS   C2418722   3.737   5.814   6.275 -0.0362  0.1906 -0.3923
  166SAPS   H4R18723   3.739   5.909   6.217 -1.8260  0.1336 -0.5841
  166SAPS   H4S18724   3.636   5.781   6.304 -0.6574  2.1626 -0.1869
  166SAPS   C2518725   3.799   5.699   6.200  0.9663  0.1743 -0.4869
  166SAPS   H5R18726   3.885   5.648   6.245 -0.0313 -0.3557  0.9021
  166SAPS   C2618727   3.778   5.675   6.069 -0.5147 -0.3227 -0.1669
  166SAPS   H6R18728   3.824   5.584   6.027  0.9828  0.3123  0.0397
  166SAPS   C2718729   3.678   5.749   5.984 -1.4222  0.3227 -0.5118
  166SAPS   H7R18730   3.731   5.828   5.926 -0.8750  0.6882  0.4682
  166SAPS   H7S18731   3.603   5.789   6.056  0.7150 -1.1440  2.7477
  166SAPS   C2818732   3.619   5.650   5.878  0.1390  0.3134  0.4490
  166SAPS   H8R18733   3.510   5.640   5.889  0.3336 -1.3772  1.1517
  166SAPS   C2918734   3.679   5.589   5.775 -0.3778  0.0882  0.2763
  166SAPS   H9R18735   3.619   5.530   5.704 -0.5653  2.9104 -2.1031
  166SAPS  C21018736   3.822   5.606   5.741 -0.0712  0.3180 -0.9307
  166SAPS  H10R18737   3.872   5.538   5.813 -0.0718  0.4046 -0.8487
  166SAPS  H10S18738   3.860   5.707   5.766  2.8430 -1.2687  1.9646
  166SAPS  C21118739   3.843   5.564   5.597  0.0286  0.4596 -1.1631
  166SAPS  H11R18740   3.777   5.479   5.576  0.8698 -1.1225  2.0390
  166SAPS  C21218741   3.922   5.623   5.504  0.1279 -0.4434  0.3814
  166SAPS  H12R18742   3.935   5.580   5.404  2.4466  0.8696  0.0617
  166SAPS  C21318743   4.006   5.750   5.508 -0.4341 -0.6219 -0.2984
  166SAPS  H13R18744   3.959   5.822   5.578  0.3305 -1.1095  0.7452
  166SAPS  H13S18745   3.997   5.807   5.413  1.2481  0.7479  0.3139
  166SAPS  C21418746   4.151   5.739   5.554 -0.0884 -0.3410 -0.2024
  166SAPS  H14R18747   4.180   5.757   5.658  0.8098 -0.9643 -0.3350
  166SAPS  C21518748   4.260   5.714   5.473  0.8636 -1.3857  0.1790
  166SAPS  H15R18749   4.359   5.699   5.518  1.0061 -0.1484  0.3299
  166SAPS  C21618750   4.253   5.681   5.323  0.6543  0.2087 -0.6267
  166SAPS  H16R18751   4.152   5.713   5.290  0.5504  0.3713 -0.1583
  166SAPS  H16S18752   4.274   5.572   5.316  2.5531  0.3946  1.1123
  166SAPS  C21718753   4.349   5.758   5.229 -0.1251 -0.5669  0.7676
  166SAPS  H17R18754   4.452   5.732   5.263 -0.0753 -0.2072  0.8939
  166SAPS  H17S18755   4.347   5.869   5.230 -0.2560 -0.5673  0.5813
  166SAPS  C21818756   4.337   5.710   5.079  0.3302  0.1224  0.0563
  166SAPS  H18R18757   4.228   5.709   5.060  0.0741  0.3321  1.3823
  166SAPS  H18S18758   4.384   5.610   5.083 -0.2799 -0.1372  1.2348
  166SAPS  C21918759   4.400   5.819   4.982 -0.8115 -0.4926  0.1082
  166SAPS  H19R18760   4.501   5.844   5.020 -1.8582  1.8140  1.5879
  166SAPS  H19S18761   4.343   5.914   4.978  0.1896  0.1162 -0.0698
  166SAPS  C22018762   4.406   5.781   4.828  0.4087 -0.1012 -0.5579
  166SAPS  H20R18763   4.491   5.711   4.812  0.7870 -0.6023  2.8651
  166SAPS  H20S18764   4.421   5.871   4.765  1.7170  0.1979  0.1365
  166SAPS  H20T18765   4.316   5.723   4.799 -0.7396  1.2377  0.2023
  166SAPS   C3318766   3.309   5.790   6.048 -0.7578 -0.4068  0.0996
  166SAPS   H3X18767   3.214   5.760   6.097 -1.3642  2.0503  0.5759
  166SAPS   H3Y18768   3.383   5.709   6.061  0.9463  1.0239 -0.2087
  166SAPS   C3418769   3.290   5.804   5.899 -0.1171  0.2290  0.4510
  166SAPS   H4X18770   3.374   5.845   5.839  0.4216 -0.3611  0.7957
  166SAPS   H4Y18771   3.216   5.886   5.886 -0.4843  0.1312  1.7290
  166SAPS   C3518772   3.240   5.671   5.840  0.2037 -0.4326 -0.3773
  166SAPS   H5X18773   3.133   5.653   5.864 -0.3300  0.4207 -1.9465
  166SAPS   H5Y18774   3.295   5.584   5.882  1.8028  1.2444  1.1943
  166SAPS   C3618775   3.270   5.673   5.694  0.5807  0.1889  0.1396
  166SAPS   H6X18776   3.365   5.728   5.679 -0.4649  1.8584 -0.7023
  166SAPS   H6Y18777   3.183   5.729   5.653  0.8501 -0.0907 -0.8372
  166SAPS   C3718778   3.280   5.527   5.632  0.4684  0.2792  0.4660
  166SAPS   H7X18779   3.183   5.473   5.643 -0.0325  0.7244 -1.3253
  166SAPS   H7Y18780   3.340   5.459   5.695 -0.6700  0.7599  2.1432
  166SAPS   C3818781   3.310   5.523   5.486  0.3303  0.0119  1.0135
  166SAPS   H8X18782   3.311   5.417   5.452  0.8917  0.7924 -1.6760
  166SAPS   H8Y18783   3.409   5.568   5.468  0.6679 -0.1388  2.3747
  166SAPS   C3918784   3.217   5.614   5.401  0.1347 -0.3629 -0.1598
  166SAPS   H9X18785   3.252   5.719   5.410  0.1636 -0.3717 -0.1682
  166SAPS   H9Y18786   3.111   5.610   5.433  0.4908  1.5427  1.4698
  166SAPS  C31018787   3.213   5.566   5.256 -0.1039 -0.3314 -0.5021
  166SAPS  H10X18788   3.188   5.457   5.251  0.6887 -0.6296  1.3110
  166SAPS  H10Y18789   3.311   5.565   5.203 -1.1486  0.1422 -2.5209
  166SAPS  C31118790   3.113   5.652   5.171 -0.7044 -0.2576  0.0784
  166SAPS  H11X18791   3.155   5.754   5.154  1.1492 -1.3450 -2.6838
  166SAPS  H11Y18792   3.010   5.656   5.212  0.1181 -1.5796  2.4128
  166SAPS  C31218793   3.113   5.595   5.024 -0.0014  0.3451 -1.0791
  166SAPS  H12X18794   3.071   5.493   5.032  2.6620 -0.8429 -1.4972
  166SAPS  H12Y18795   3.216   5.570   4.990 -0.4353 -1.2733 -1.2984
  166SAPS  C31318796   3.026   5.684   4.927 -0.0400  0.2190  0.2688
  166SAPS  H13X18797   2.932   5.710   4.980 -0.2126  2.7860 -1.1004
  166SAPS  H13Y18798   3.003   5.628   4.834 -0.9552 -1.5898  1.5393
  166SAPS  C31418799   3.093   5.820   4.898 -0.7480  0.1808  1.1547
  166SAPS  H14X18800   3.185   5.811   4.835 -2.1277 -5.3036 -0.6479
  166SAPS  H14Y18801   3.130   5.865   4.992 -0.0041 -0.7144  1.3130
  166SAPS  C31518802   2.996   5.933   4.847  0.8187 -0.0358  0.3055
  166SAPS  H15X18803   3.055   6.024   4.821  2.7816 -1.2086  0.4125
  166SAPS  H15Y18804   2.923   5.958   4.926 -0.1861 -0.6358 -0.4014
  166SAPS  C31618805   2.902   5.877   4.731 -0.3282 -0.0985  0.3477
  166SAPS  H16X18806   2.839   5.964   4.701  0.3474 -0.1435 -1.3496
  166SAPS  H16Y18807   2.843   5.795   4.778  0.7092  0.4093  2.6567
  166SAPS  C31718808   2.972   5.826   4.602 -0.6150  0.2344 -0.3900
  166SAPS  H17X18809   2.900   5.831   4.518  0.4209 -0.7525 -1.3847
  166SAPS  H17Y18810   2.994   5.717   4.608 -0.5427  0.2856  0.2923
  166SAPS  C31818811   3.088   5.910   4.540  0.4633 -0.5697 -0.0668
  166SAPS  H18X18812   3.171   5.898   4.613  0.5722 -0.7675 -0.2216
  166SAPS  H18Y18813   3.066   6.019   4.537 -0.9490 -0.5988  3.9062
  166SAPS  H18Z18814   3.117   5.883   4.436  1.5473 -2.5885  0.6984
  167SAPS     N18815   1.467   1.532   6.800 -0.0196 -0.6758 -0.3297
  167SAPS   HN118816   1.546   1.593   6.771  1.2069 -1.1593  1.7765
  167SAPS   HN218817   1.505   1.450   6.850  1.3317 -0.7746 -1.4849
  167SAPS   HN318818   1.445   1.504   6.703  1.4239  1.5804 -1.4014
  167SAPS   C1218819   1.358   1.609   6.869  0.6064 -1.1079 -0.6004
  167SAPS  H12A18820   1.272   1.545   6.884  0.4750 -1.0301 -1.0246
  167SAPS   C1318821   1.392   1.679   7.003  0.1597  0.2958 -0.5074
  167SAPS  O13A18822   1.511   1.660   7.043 -0.5825 -0.2944  0.0752
  167SAPS  O13B18823   1.305   1.736   7.071  0.1537 -0.9459 -0.0939
  167SAPS   C1118824   1.301   1.718   6.768 -0.1001  0.5471  0.2296
  167SAPS  H11A18825   1.201   1.749   6.806 -0.3274 -1.9000  1.8005
  167SAPS  H11B18826   1.283   1.664   6.672  0.4265 -0.8314  0.8901
  167SAPS     P18827   1.347   1.948   6.659  0.5110  0.1892 -0.4456
  167SAPS   O1318828   1.207   1.991   6.684  0.0556  0.3955 -0.4668
  167SAPS   O1418829   1.454   2.047   6.657  0.2693  0.1192  0.0090
  167SAPS   O1218830   1.389   1.831   6.758  0.5536 -0.1567 -0.5542
  167SAPS   O1118831   1.345   1.876   6.513  0.2403  0.6406 -0.0999
  167SAPS    C118832   1.452   1.780   6.488 -0.3833 -0.0573  0.4990
  167SAPS    HA18833   1.534   1.779   6.562 -1.9525 -0.3997  2.2972
  167SAPS    HB18834   1.410   1.677   6.478  0.0229 -0.0129 -3.7326
  167SAPS    C218835   1.518   1.810   6.349  0.5404  0.0810 -1.1269
  167SAPS    HS18836   1.574   1.905   6.360 -3.3758  2.3781  1.4964
  167SAPS   O2118837   1.415   1.818   6.248 -0.5901  0.4166  0.2171
  167SAPS   C2118838   1.443   1.913   6.155 -1.1430  0.3361 -0.1218
  167SAPS   O2218839   1.547   1.976   6.143  0.2683 -0.2070 -0.4216
  167SAPS   C2218840   1.321   1.920   6.070  0.8805  0.2280 -0.5751
  167SAPS   H2R18841   1.286   1.818   6.040  0.9012  0.1377 -0.2916
  167SAPS   H2S18842   1.242   1.959   6.138  1.1096  0.8507 -0.6606
  167SAPS    C318843   1.616   1.696   6.317  0.9327  0.6408 -0.4005
  167SAPS    HX18844   1.563   1.600   6.300 -1.9561  1.5502  2.3961
  167SAPS    HY18845   1.676   1.679   6.409 -1.5078  0.6831  1.2849
  167SAPS   O3118846   1.707   1.732   6.201  0.2739  0.4781 -0.5689
  167SAPS   C3118847   1.695   1.673   6.083  0.5837 -0.2349 -0.6718
  167SAPS   O3218848   1.623   1.583   6.048 -0.1429  0.5783  0.3276
  167SAPS   C3218849   1.801   1.729   5.987 -0.7419  0.1937  0.0775
  167SAPS   H2X18850   1.855   1.818   6.026 -0.4094 -0.5239  1.3234
  167SAPS   H2Y18851   1.741   1.767   5.902  0.2497  1.4603 -0.0908
  167SAPS   C2318852   1.319   2.024   5.957  0.1765 -0.1905 -0.1206
  167SAPS   H3R18853   1.410   2.086   5.969  0.7907 -1.1499  0.2734
  167SAPS   H3S18854   1.233   2.094   5.952  1.5250  1.4505 -1.7047
  167SAPS   C2418855   1.330   1.950   5.825 -0.4601  0.3512 -0.4310
  167SAPS   H4R18856   1.230   1.904   5.809 -0.7440  0.8645 -0.1556
  167SAPS   H4S18857   1.406   1.870   5.831 -1.0048 -0.1896 -0.5715
  167SAPS   C2518858   1.362   2.042   5.710  0.3065  0.8510 -0.2052
  167SAPS   H5R18859   1.277   2.096   5.665 -2.9956 -3.4715  0.2193
  167SAPS   C2618860   1.488   2.084   5.690 -0.7802 -0.2477  0.0128
  167SAPS   H6R18861   1.512   2.153   5.608  0.5503  2.1955  2.2999
  167SAPS   C2718862   1.621   2.035   5.751  0.3530 -0.6599  0.5630
  167SAPS   H7R18863   1.688   2.012   5.666 -0.2597 -0.9966  0.1640
  167SAPS   H7S18864   1.622   1.940   5.809 -0.0382 -0.9945  0.0277
  167SAPS   C2818865   1.685   2.138   5.840 -0.3295  0.4513 -0.5605
  167SAPS   H8R18866   1.626   2.151   5.932 -0.7452 -0.0787 -0.7468
  167SAPS   C2918867   1.791   2.210   5.812 -0.2470 -0.4209 -0.2205
  167SAPS   H9R18868   1.819   2.288   5.884 -0.9432 -0.9012  0.5781
  167SAPS  C21018869   1.872   2.203   5.687  0.8674 -0.1435 -0.2891
  167SAPS  H10R18870   1.917   2.304   5.677 -0.1847  0.6441  2.1857
  167SAPS  H10S18871   1.799   2.209   5.604  0.1628  0.7908  0.3766
  167SAPS  C21118872   1.976   2.094   5.674 -0.1172  0.0853 -0.2883
  167SAPS  H11R18873   1.999   2.046   5.770 -2.6084 -1.3193 -0.2937
  167SAPS  C21218874   2.055   2.089   5.565 -0.3574 -0.3580  0.6969
  167SAPS  H12R18875   2.138   2.018   5.565 -0.3481 -0.3535  0.1405
  167SAPS  C21318876   2.030   2.175   5.441  0.4780 -0.1464  0.2504
  167SAPS  H13R18877   2.022   2.283   5.466 -0.9004 -0.1643 -0.0270
  167SAPS  H13S18878   1.928   2.152   5.402  0.3046  1.2584 -0.1803
  167SAPS  C21418879   2.131   2.140   5.332  0.3424 -0.2444 -0.0210
  167SAPS  H14R18880   2.213   2.075   5.363  1.3701  0.8461 -0.3674
  167SAPS  C21518881   2.126   2.189   5.205 -0.7090  0.0450  0.3366
  167SAPS  H15R18882   2.197   2.158   5.127 -1.0846  1.7611 -0.7479
  167SAPS  C21618883   2.014   2.277   5.150 -0.8707 -0.3036 -0.0265
  167SAPS  H16R18884   1.963   2.330   5.234 -0.2265  0.2690  0.0127
  167SAPS  H16S18885   1.940   2.216   5.093 -1.2033  0.1433 -0.0820
  167SAPS  C21718886   2.080   2.359   5.039 -0.1907 -0.2665  0.8487
  167SAPS  H17R18887   2.176   2.407   5.067 -0.6126  1.2068 -0.1216
  167SAPS  H17S18888   2.007   2.438   5.012 -0.2382 -1.1439 -1.8714
  167SAPS  C21818889   2.099   2.274   4.907  0.6476  0.1116 -0.9832
  167SAPS  H18R18890   2.014   2.204   4.892 -0.1469  0.4331  1.5450
  167SAPS  H18S18891   2.193   2.214   4.911  1.3142  0.8792 -3.3482
  167SAPS  C21918892   2.104   2.356   4.782  0.2749 -0.1229  0.6609
  167SAPS  H19R18893   2.189   2.426   4.796 -0.6953  1.5094 -1.1235
  167SAPS  H19S18894   2.017   2.423   4.768  1.9957  2.8775  2.8900
  167SAPS  C22018895   2.116   2.282   4.645  0.7550 -0.2417 -0.1988
  167SAPS  H20R18896   2.044   2.198   4.651  1.3721 -0.7625 -0.0063
  167SAPS  H20S18897   2.218   2.240   4.629 -0.2692 -2.6870 -0.8224
  167SAPS  H20T18898   2.086   2.352   4.564  0.2373  0.3826  0.5199
  167SAPS   C3318899   1.909   1.620   5.966 -0.2180  0.1746  0.0869
  167SAPS   H3X18900   1.862   1.533   5.916  0.7676  0.2943 -1.0777
  167SAPS   H3Y18901   1.947   1.586   6.065 -0.8200  1.5942  0.8456
  167SAPS   C3418902   2.030   1.663   5.879 -0.1064  0.1649  0.4947
  167SAPS   H4X18903   2.096   1.575   5.892 -0.4859 -0.0991  0.6560
  167SAPS   H4Y18904   2.063   1.754   5.934 -0.6713  1.6367 -1.4864
  167SAPS   C3518905   1.992   1.695   5.738 -0.2078 -0.2241  0.1267
  167SAPS   H5X18906   1.932   1.788   5.724  0.0662  0.0059  0.4728
  167SAPS   H5Y18907   1.937   1.607   5.698  0.2151 -0.1218 -0.6866
  167SAPS   C3618908   2.114   1.692   5.643  1.3876 -0.0668  0.2139
  167SAPS   H6X18909   2.155   1.589   5.630  0.7408 -0.0666 -2.4507
  167SAPS   H6Y18910   2.193   1.762   5.679  1.9361 -0.4026 -0.2980
  167SAPS   C3718911   2.069   1.740   5.496 -0.0509  0.5409  0.0241
  167SAPS   H7X18912   2.010   1.834   5.499 -1.5567 -0.3226 -1.3908
  167SAPS   H7Y18913   2.000   1.664   5.453 -0.6088  2.1440 -2.0945
  167SAPS   C3818914   2.181   1.765   5.404  0.6504 -0.0661  0.0660
  167SAPS   H8X18915   2.242   1.673   5.412  0.2328 -0.2301  1.6403
  167SAPS   H8Y18916   2.244   1.852   5.431  1.4764 -1.1843  1.9176
  167SAPS   C3918917   2.136   1.792   5.257  0.1736 -0.7940  0.6758
  167SAPS   H9X18918   2.072   1.882   5.245  1.2930 -0.3193 -2.5974
  167SAPS   H9Y18919   2.069   1.708   5.227 -0.8457  0.6411 -1.3367
  167SAPS  C31018920   2.247   1.804   5.152 -0.4026 -0.0222 -0.3177
  167SAPS  H10X18921   2.331   1.737   5.181  0.0693  0.9811  0.7303
  167SAPS  H10Y18922   2.285   1.908   5.153 -2.7761  0.9329 -2.1371
  167SAPS  C31118923   2.189   1.777   5.018  0.0430  0.1484 -0.1150
  167SAPS  H11X18924   2.101   1.842   4.999 -1.3233 -1.6676 -0.2628
  167SAPS  H11Y18925   2.147   1.674   5.011 -0.6838  0.2663  1.8226
  167SAPS  C31218926   2.293   1.783   4.905  0.5454 -0.4251  0.5619
  167SAPS  H12X18927   2.376   1.714   4.933  0.4195 -0.1360  1.7004
  167SAPS  H12Y18928   2.339   1.884   4.898  0.6654 -0.4735  0.6529
  167SAPS  C31318929   2.234   1.758   4.769 -0.1200  0.4906  0.7240
  167SAPS  H13X18930   2.157   1.836   4.749  0.9312  0.8033 -2.8154
  167SAPS  H13Y18931   2.191   1.656   4.775 -0.7431  0.6708 -0.4129
  167SAPS  C31418932   2.340   1.777   4.664  0.4010 -0.2803  0.0152
  167SAPS  H14X18933   2.417   1.851   4.694  0.9674 -1.1751  0.8326
  167SAPS  H14Y18934   2.297   1.804   4.565  2.2439 -1.3307 -1.1354
  167SAPS  C31518935   2.408   1.642   4.642 -1.2445  0.2637 -0.2778
  167SAPS  H15X18936   2.332   1.561   4.636 -1.3388  0.4346 -1.6957
  167SAPS  H15Y18937   2.473   1.633   4.731  2.5812 -1.2139 -2.9729
  167SAPS  C31618938   2.509   1.626   4.521 -0.0935 -0.3190 -0.4068
  167SAPS  H16X18939   2.455   1.637   4.424 -2.3946 -0.4318  0.7960
  167SAPS  H16Y18940   2.546   1.522   4.521  1.2529  0.1397 -0.1767
  167SAPS  C31718941   2.638   1.713   4.535 -0.1306 -0.0872  0.6489
  167SAPS  H17X18942   2.696   1.670   4.620  0.1109 -2.4369 -0.6199
  167SAPS  H17Y18943   2.613   1.815   4.571  0.8811  1.1455 -1.9085
  167SAPS  C31818944   2.723   1.714   4.400  0.7885  0.3361 -0.3750
  167SAPS  H18X18945   2.834   1.720   4.407  0.8692  0.2535 -1.3808
  167SAPS  H18Y18946   2.684   1.792   4.330 -0.6255 -1.4858 -1.7231
  167SAPS  H18Z18947   2.712   1.619   4.342  1.6706 -1.0815  1.6680
  168SAPS     N18948   0.208   1.150   6.438  0.2940 -0.4217  0.5597
  168SAPS   HN118949   0.283   1.140   6.367  2.0953  4.0850  1.4982
  168SAPS   HN218950   0.233   1.101   6.526 -0.7758 -1.2738  0.4022
  168SAPS   HN318951   0.121   1.108   6.400  1.0601 -0.3144 -1.4001
  168SAPS   C1218952   0.191   1.290   6.458 -0.6989 -0.0309 -0.0925
  168SAPS  H12A18953   0.149   1.305   6.556 -1.7434 -1.0649 -0.3601
  168SAPS   C1318954   0.311   1.377   6.462 -0.1850 -0.7099  0.3454
  168SAPS  O13A18955   0.425   1.323   6.460  0.0469  0.0295  0.1463
  168SAPS  O13B18956   0.293   1.500   6.495 -0.0370 -0.4742  0.2092
  168SAPS   C1118957   0.085   1.332   6.347 -0.8804 -0.2561  0.0711
  168SAPS  H11A18958   0.147   1.337   6.255  0.4631  0.7911  0.9795
  168SAPS  H11B18959   0.051   1.436   6.367  0.2481  0.1455 -0.0095
  168SAPS     P18960  -0.173   1.278   6.376  0.2954 -0.1882  0.2503
  168SAPS   O1318961  -0.252   1.160   6.338 -0.2389 -0.4847  0.0328
  168SAPS   O1418962  -0.173   1.309   6.520 -0.4668 -0.1323  0.4079
  168SAPS   O1218963  -0.020   1.245   6.326 -0.2326  0.4226 -0.2405
  168SAPS   O1118964  -0.222   1.402   6.288 -0.2597 -0.0117 -0.6299
  168SAPS    C118965  -0.269   1.368   6.163  0.0784 -0.4585  0.7225
  168SAPS    HA18966  -0.227   1.274   6.122  0.0976 -1.1888  2.3485
  168SAPS    HB18967  -0.380   1.365   6.158  0.1065 -3.3436  0.4688
  168SAPS    C218968  -0.237   1.476   6.052  0.4858 -0.0477  0.0696
  168SAPS    HS18969  -0.270   1.450   5.949  1.0446 -1.6620  0.2596
  168SAPS   O2118970  -0.091   1.497   6.051  0.6615 -0.5669 -0.2643
  168SAPS   C2118971  -0.018   1.409   5.998 -0.5145 -0.0886 -0.0877
  168SAPS   O2218972  -0.056   1.298   5.959  0.1097 -0.5812  0.3636
  168SAPS   C2218973   0.127   1.457   5.994  0.6049  0.0242 -0.8616
  168SAPS   H2R18974   0.132   1.552   6.051 -0.2476  0.1069 -0.9120
  168SAPS   H2S18975   0.184   1.375   6.041  0.4493 -0.9655 -2.3267
  168SAPS    C318976  -0.303   1.613   6.091  0.4579 -0.2009 -0.2904
  168SAPS    HX18977  -0.238   1.665   6.164 -0.6048  1.7422 -0.6513
  168SAPS    HY18978  -0.405   1.596   6.132 -0.5725 -0.8017 -2.8593
  168SAPS   O3118979  -0.325   1.685   5.970 -0.3658 -0.1377  0.9826
  168SAPS   C3118980  -0.305   1.815   5.973  0.0420 -0.0374  0.6647
  168SAPS   O3218981  -0.278   1.875   6.073  0.1773 -0.0436  0.4370
  168SAPS   C3218982  -0.332   1.877   5.836  0.1204  0.4439  0.0532
  168SAPS   H2X18983  -0.423   1.830   5.793 -0.8915 -0.7129  3.1719
  168SAPS   H2Y18984  -0.237   1.848   5.787  0.7908  2.8691 -0.1943
  168SAPS   C2318985   0.184   1.480   5.848  0.8070 -0.7970  0.1879
  168SAPS   H3R18986   0.134   1.402   5.786 -1.0281 -0.4959  1.2172
  168SAPS   H3S18987   0.294   1.466   5.856  0.7014 -1.9373 -0.1361
  168SAPS   C2418988   0.137   1.623   5.807 -0.4580  0.2690  0.2166
  168SAPS   H4R18989   0.028   1.640   5.814 -0.5322 -0.2390  0.3160
  168SAPS   H4S18990   0.158   1.622   5.697 -3.9753  1.1611 -0.5895
  168SAPS   C2518991   0.223   1.729   5.874 -0.0342 -0.7717  0.3511
  168SAPS   H5R18992   0.332   1.720   5.866  0.5761  3.4777  1.3128
  168SAPS   C2618993   0.184   1.845   5.926  0.4136 -0.5477 -1.3311
  168SAPS   H6R18994   0.256   1.920   5.961  0.2590 -0.8986 -0.2028
  168SAPS   C2718995   0.039   1.878   5.932  0.5814  0.1548  0.4824
  168SAPS   H7R18996  -0.022   1.820   6.005  0.9788 -1.8468 -0.6834
  168SAPS   H7S18997  -0.012   1.843   5.840 -1.2984  1.2252  1.0759
  168SAPS   C2818998   0.004   2.030   5.961 -0.0872 -0.1870 -0.6838
  168SAPS   H8R18999  -0.059   2.048   6.049  0.1408  0.0963 -0.5760
  168SAPS   C2919000   0.021   2.138   5.884  0.3169  0.4874 -0.1865
  168SAPS   H9R19001  -0.023   2.232   5.919  1.2644  0.6746  0.5475
  168SAPS  C21019002   0.072   2.134   5.744 -0.2561 -0.2641 -0.3998
  168SAPS  H10R19003   0.015   2.056   5.688  0.9963 -3.0324  1.9343
  168SAPS  H10S19004   0.173   2.089   5.749  0.6100  1.3518 -2.0531
  168SAPS  C21119005   0.070   2.270   5.672 -0.1756  0.3087 -0.0545
  168SAPS  H11R19006   0.030   2.353   5.733  4.3562  0.9560  2.5530
  168SAPS  C21219007   0.123   2.294   5.550  0.1438 -0.0817  0.4691
  168SAPS  H12R19008   0.111   2.393   5.504 -0.3282 -0.8268 -1.0882
  168SAPS  C21319009   0.176   2.187   5.457  0.4610 -0.0062  0.3703
  168SAPS  H13R19010   0.148   2.218   5.354  2.2819 -0.0910 -0.1902
  168SAPS  H13S19011   0.129   2.090   5.483  0.1686 -0.0782 -0.3888
  168SAPS  C21419012   0.324   2.171   5.450 -0.2861 -0.1091  0.5518
  168SAPS  H14R19013   0.385   2.254   5.412 -1.1906  1.4800  2.4133
  168SAPS  C21519014   0.385   2.057   5.486  0.8003 -0.4716 -0.0858
  168SAPS  H15R19015   0.495   2.064   5.493  0.7305  0.6011  0.0858
  168SAPS  C21619016   0.340   1.923   5.548 -0.0715  0.1662 -0.2460
  168SAPS  H16R19017   0.256   1.872   5.498 -1.0431 -0.5788  2.0037
  168SAPS  H16S19018   0.287   1.955   5.641 -2.9235  1.9823 -2.3188
  168SAPS  C21719019   0.440   1.809   5.585 -0.5316 -0.1120  0.9304
  168SAPS  H17R19020   0.389   1.752   5.666 -0.3349 -0.5567  0.7471
  168SAPS  H17S19021   0.538   1.828   5.634 -1.1104  1.4910  1.5395
  168SAPS  C21819022   0.461   1.707   5.467  0.4320  0.3569  0.5351
  168SAPS  H18R19023   0.515   1.769   5.392  0.6789 -1.4023 -0.8069
  168SAPS  H18S19024   0.361   1.672   5.434  1.0344 -0.1570 -0.8321
  168SAPS  C21919025   0.546   1.587   5.512 -0.2100  0.1502 -0.0767
  168SAPS  H19R19026   0.643   1.639   5.528  0.2282 -0.5019 -0.5875
  168SAPS  H19S19027   0.561   1.510   5.434  1.1423  2.0982 -1.8564
  168SAPS  C22019028   0.495   1.508   5.630 -0.1165 -0.7082  0.2093
  168SAPS  H20R19029   0.502   1.560   5.729  0.9382  0.8101 -0.6112
  168SAPS  H20S19030   0.561   1.419   5.628 -0.0253 -0.6292 -1.2406
  168SAPS  H20T19031   0.391   1.482   5.605  0.4855 -1.3566 -1.7425
  168SAPS   C3319032  -0.328   2.033   5.829  0.5412 -0.1952 -0.7953
  168SAPS   H3X19033  -0.230   2.077   5.856  1.7941 -1.7148 -2.5408
  168SAPS   H3Y19034  -0.388   2.070   5.915 -0.2175 -0.4520 -1.1943
  168SAPS   C3419035  -0.368   2.093   5.693  0.6574 -0.4785 -0.5275
  168SAPS   H4X19036  -0.390   2.202   5.703 -1.6106 -0.6083 -2.9750
  168SAPS   H4Y19037  -0.462   2.040   5.667 -0.1299 -1.2387  3.1967
  168SAPS   C3519038  -0.279   2.062   5.570  0.1215 -0.6030 -0.2072
  168SAPS   H5X19039  -0.284   1.953   5.553 -0.2221 -0.3505 -1.9115
  168SAPS   H5Y19040  -0.177   2.104   5.577 -0.0558 -0.4305  1.7610
  168SAPS   C3619041  -0.347   2.124   5.449  0.3210 -0.2191 -0.1685
  168SAPS   H6X19042  -0.342   2.234   5.459 -2.0094  0.0926 -1.6771
  168SAPS   H6Y19043  -0.457   2.109   5.450  0.1583  0.8281  1.4054
  168SAPS   C3719044  -0.292   2.077   5.324 -0.6957 -0.2670  0.0526
  168SAPS   H7X19045  -0.355   2.120   5.243 -0.2541  1.1844  0.4445
  168SAPS   H7Y19046  -0.308   1.969   5.307  0.7488 -0.6634  0.9955
  168SAPS   C3819047  -0.145   2.131   5.302 -0.0849  0.4442 -1.1655
  168SAPS   H8X19048  -0.079   2.096   5.384 -0.6124  0.3258 -0.7879
  168SAPS   H8Y19049  -0.143   2.242   5.310 -1.0435  0.3715  0.3874
  168SAPS   C3919050  -0.090   2.087   5.164 -0.0126  0.0174 -0.0223
  168SAPS   H9X19051  -0.113   1.978   5.158  0.3495 -0.2143  1.8894
  168SAPS   H9Y19052   0.020   2.101   5.172  0.2246 -1.9679  1.0157
  168SAPS  C31019053  -0.152   2.169   5.046 -0.2592  0.0089 -0.0338
  168SAPS  H10X19054  -0.175   2.275   5.072  0.3550  0.0359  0.4221
  168SAPS  H10Y19055  -0.251   2.124   5.026 -0.5144  0.3088  0.5275
  168SAPS  C31119056  -0.053   2.173   4.931 -0.4064  0.4774 -0.1578
  168SAPS  H11X19057   0.031   2.105   4.956 -1.0286  0.0186  0.7401
  168SAPS  H11Y19058  -0.014   2.277   4.920 -0.8001  0.4604 -2.0329
  168SAPS  C31219059  -0.122   2.128   4.805  0.2496  0.2529  0.1408
  168SAPS  H12X19060  -0.229   2.157   4.808  0.3191  0.5868 -0.3803
  168SAPS  H12Y19061  -0.135   2.018   4.818 -0.8636  0.3317 -0.2299
  168SAPS  C31319062  -0.067   2.159   4.658  0.3583  0.3970 -0.9111
  168SAPS  H13X19063   0.025   2.098   4.644  0.0148  0.1555 -2.2672
  168SAPS  H13Y19064  -0.057   2.268   4.642 -0.3029  0.2868 -2.2029
  168SAPS  C31419065  -0.177   2.099   4.571  0.4990 -0.0572 -0.6417
  168SAPS  H14X19066  -0.278   2.133   4.601  0.4086 -1.2457  0.5004
  168SAPS  H14Y19067  -0.176   1.991   4.598 -0.0475 -0.1961 -1.1627
  168SAPS  C31519068  -0.178   2.131   4.420 -0.9417  0.1149 -0.0626
  168SAPS  H15X19069  -0.179   2.241   4.404  1.3844 -0.1422 -2.8938
  168SAPS  H15Y19070  -0.275   2.102   4.375 -1.0600 -1.3265  1.0620
  168SAPS  C31619071  -0.061   2.064   4.342 -0.4713  0.3678 -0.1293
  168SAPS  H16X19072  -0.064   1.957   4.374 -0.5634 -0.3317 -2.2980
  168SAPS  H16Y19073   0.035   2.116   4.364 -1.5820  2.1791  0.6494
  168SAPS  C31719074  -0.075   2.053   4.192 -0.2225  0.1176  1.4991
  168SAPS  H17X19075  -0.062   2.158   4.158  2.0103 -0.5248  0.0670
  168SAPS  H17Y19076  -0.179   2.022   4.169  0.1613 -0.6005  0.6825
  168SAPS  C31819077   0.015   1.960   4.120  0.3266 -0.3970  0.2142
  168SAPS  H18X19078   0.034   1.997   4.017  3.5606  0.0476  0.8598
  168SAPS  H18Y19079  -0.036   1.861   4.114 -1.8372  0.7435 -2.0796
  168SAPS  H18Z19080   0.111   1.948   4.174 -0.2133 -0.9178  1.0748
  169SAPS     N19081   3.880   0.622   7.128 -0.3972 -0.5276 -0.3498
  169SAPS   HN119082   3.822   0.663   7.051 -0.7224 -0.3940 -0.0419
  169SAPS   HN219083   3.796   0.609   7.189 -0.4315 -0.7170 -0.4384
  169SAPS   HN319084   3.955   0.679   7.171  0.2723 -0.5941 -1.4008
  169SAPS   C1219085   3.929   0.485   7.099  0.3362  0.2232 -0.2072
  169SAPS  H12A19086   4.010   0.486   7.028  0.4811  2.0595 -0.0719
  169SAPS   C1319087   3.969   0.425   7.232  1.0636 -0.2373 -0.0704
  169SAPS  O13A19088   3.936   0.482   7.341  0.5230 -0.2621 -0.2733
  169SAPS  O13B19089   4.014   0.309   7.231 -0.6140 -0.4247  0.5505
  169SAPS   C1119090   3.800   0.405   7.050  0.2210  0.0436  0.3881
  169SAPS  H11A19091   3.732   0.392   7.138  1.5788 -2.2025  1.1699
  169SAPS  H11B19092   3.834   0.304   7.021 -2.4361 -0.5925 -0.8195
  169SAPS     P19093   3.668   0.411   6.818  0.2878 -0.3492 -0.0387
  169SAPS   O1319094   3.767   0.316   6.756 -0.6977 -0.3719 -0.1820
  169SAPS   O1419095   3.541   0.356   6.873 -0.3881  0.0109  0.2024
  169SAPS   O1219096   3.737   0.479   6.940 -0.3961 -0.1226 -0.4243
  169SAPS   O1119097   3.634   0.531   6.714  0.5352  0.2224  0.3257
  169SAPS    C119098   3.729   0.619   6.653 -0.6712  0.2270  0.5847
  169SAPS    HA19099   3.713   0.724   6.683 -2.3932 -0.3619  1.8836
  169SAPS    HB19100   3.832   0.580   6.670 -0.6213  0.4206  0.7228
  169SAPS    C219101   3.708   0.627   6.497  0.1930 -0.6366  0.3566
  169SAPS    HS19102   3.768   0.713   6.462 -0.3540 -0.4396 -0.1198
  169SAPS   O2119103   3.568   0.636   6.459 -0.3266  0.0327 -0.1301
  169SAPS   C2119104   3.529   0.761   6.426  0.0924 -0.4261  0.3133
  169SAPS   O2219105   3.598   0.861   6.425 -0.3560  0.4053  0.6175
  169SAPS   C2219106   3.376   0.764   6.397  0.1550  0.0404  0.1588
  169SAPS   H2R19107   3.343   0.697   6.479  1.9393 -1.2863 -0.1246
  169SAPS   H2S19108   3.332   0.866   6.400  1.4861  0.6486  0.2048
  169SAPS    C319109   3.767   0.505   6.428 -0.8048  0.4555 -0.2604
  169SAPS    HX19110   3.693   0.423   6.423  1.8132 -2.3622  2.4641
  169SAPS    HY19111   3.846   0.458   6.491 -1.5026  0.8910  0.9802
  169SAPS   O3119112   3.820   0.541   6.298  0.3834  0.7225 -0.3853
  169SAPS   C3119113   3.742   0.506   6.196  0.3471 -0.4246 -1.2423
  169SAPS   O3219114   3.635   0.450   6.207  0.3029 -0.4965  0.0757
  169SAPS   C3219115   3.801   0.560   6.075 -0.3948 -0.6482  0.8656
  169SAPS   H2X19116   3.860   0.478   6.029 -1.0796  0.2853 -1.8817
  169SAPS   H2Y19117   3.868   0.648   6.087 -0.9951 -0.0047 -0.2255
  169SAPS   C2319118   3.350   0.707   6.255 -0.8660  0.4752  0.3837
  169SAPS   H3R19119   3.241   0.701   6.239 -0.5381 -3.2614 -1.5720
  169SAPS   H3S19120   3.383   0.601   6.257  1.0342  1.0188 -0.3107
  169SAPS   C2419121   3.412   0.781   6.132 -0.5745  0.3225 -0.4818
  169SAPS   H4R19122   3.375   0.728   6.041 -0.8504  0.5098 -0.4777
  169SAPS   H4S19123   3.523   0.770   6.125 -0.2207  2.4969  0.8121
  169SAPS   C2519124   3.381   0.926   6.137 -0.0447 -0.7292 -0.4046
  169SAPS   H5R19125   3.420   0.966   6.232 -3.7507 -0.0820  1.0556
  169SAPS   C2619126   3.315   1.007   6.056  0.6837 -0.0914  0.6956
  169SAPS   H6R19127   3.298   1.109   6.092  0.8862 -0.6742  2.5144
  169SAPS   C2719128   3.249   0.958   5.927  0.3662  0.0754  0.2863
  169SAPS   H7R19129   3.249   0.847   5.925 -0.2597  0.0799 -0.7525
  169SAPS   H7S19130   3.318   0.991   5.846  2.0492  2.9345  2.6713
  169SAPS   C2819131   3.108   1.012   5.924  0.3589 -0.1077 -0.4589
  169SAPS   H8R19132   3.062   1.037   6.021  0.7725 -1.7059  0.1792
  169SAPS   C2919133   3.059   1.059   5.809 -0.7815  0.0036  0.0676
  169SAPS   H9R19134   2.964   1.114   5.798 -1.5207 -1.4923 -1.4277
  169SAPS  C21019135   3.119   1.036   5.670  0.2543  0.6007 -0.7180
  169SAPS  H10R19136   3.164   0.934   5.674 -2.2694 -0.5363  1.0099
  169SAPS  H10S19137   3.183   1.120   5.635  2.5146 -0.6111  0.2728
  169SAPS  C21119138   3.006   0.992   5.577  0.4188 -0.3156 -0.0140
  169SAPS  H11R19139   2.919   0.957   5.634  0.2650  1.8864  1.2225
  169SAPS  C21219140   2.988   1.015   5.443 -0.7307  0.3507  0.0557
  169SAPS  H12R19141   2.898   0.970   5.397 -2.0788  0.1281  2.7213
  169SAPS  C21319142   3.087   1.081   5.353 -0.3207  0.1159 -1.1714
  169SAPS  H13R19143   3.190   1.056   5.387 -1.8189 -1.8912  2.4310
  169SAPS  H13S19144   3.075   1.192   5.352 -0.0246  0.1907  0.5412
  169SAPS  C21419145   3.089   1.033   5.212 -0.5109 -0.5142  0.1766
  169SAPS  H14R19146   3.066   0.926   5.209  2.6695 -1.2922  0.1151
  169SAPS  C21519147   3.113   1.104   5.100  0.5804  0.0828  0.5088
  169SAPS  H15R19148   3.087   1.055   5.005 -2.6352  1.0587  0.7598
  169SAPS  C21619149   3.146   1.251   5.092  0.0678  0.5255 -0.0571
  169SAPS  H16R19150   3.255   1.262   5.069 -0.6733  2.8010 -3.1946
  169SAPS  H16S19151   3.118   1.311   5.181  0.5723 -2.4229  2.2181
  169SAPS  C21719152   3.078   1.315   4.975  0.1081 -0.5612  0.3586
  169SAPS  H17R19153   3.104   1.261   4.882  1.2395  0.6286 -0.0549
  169SAPS  H17S19154   3.119   1.418   4.967 -1.4244 -0.0349 -1.3162
  169SAPS  C21819155   2.929   1.319   5.002 -0.1104 -0.0516  0.6784
  169SAPS  H18R19156   2.912   1.381   5.093 -0.4013 -0.5093  0.9396
  169SAPS  H18S19157   2.894   1.220   5.037  0.6728 -0.4055  0.4818
  169SAPS  C21919158   2.840   1.360   4.880 -0.0901 -0.1968 -0.1209
  169SAPS  H19R19159   2.881   1.459   4.848 -1.9960  0.6166 -0.1980
  169SAPS  H19S19160   2.737   1.375   4.920 -0.2089 -0.4954 -0.3130
  169SAPS  C22019161   2.840   1.277   4.749 -0.3181 -0.2937 -0.3775
  169SAPS  H20R19162   2.819   1.169   4.766  1.9391 -0.7729 -0.2362
  169SAPS  H20S19163   2.945   1.264   4.714  0.6021  1.6153  1.4420
  169SAPS  H20T19164   2.781   1.319   4.665 -2.1037 -0.5208  0.7245
  169SAPS   C3319165   3.697   0.594   5.965  0.1941 -0.6111  0.1755
  169SAPS   H3X19166   3.627   0.676   5.991  0.7474 -0.6981  2.0690
  169SAPS   H3Y19167   3.636   0.503   5.947  1.2642 -0.8693 -2.7328
  169SAPS   C3419168   3.770   0.621   5.834 -0.0639  0.3109 -0.1724
  169SAPS   H4X19169   3.844   0.542   5.808  0.2669  1.2489 -2.2801
  169SAPS   H4Y19170   3.831   0.714   5.841  0.0152  0.3132 -0.8186
  169SAPS   C3519171   3.670   0.634   5.715 -0.6857  0.3423 -0.1856
  169SAPS   H5X19172   3.607   0.544   5.701  0.1759 -0.0861 -1.5229
  169SAPS   H5Y19173   3.730   0.645   5.622 -1.0887  0.5273 -0.4307
  169SAPS   C3619174   3.574   0.754   5.734 -0.1651 -0.1205  0.4096
  169SAPS   H6X19175   3.643   0.841   5.740 -1.1522  0.6259  1.1770
  169SAPS   H6Y19176   3.508   0.737   5.821 -1.2790 -1.5113 -0.6752
  169SAPS   C3719177   3.482   0.778   5.619 -0.2536  0.0238  0.3409
  169SAPS   H7X19178   3.415   0.865   5.640  1.5042  1.4013  0.4780
  169SAPS   H7Y19179   3.413   0.690   5.614 -2.5269  1.5894  1.8508
  169SAPS   C3819180   3.559   0.802   5.483 -0.1220  0.0600 -0.0100
  169SAPS   H8X19181   3.599   0.703   5.454 -0.4965  0.3199 -1.4848
  169SAPS   H8Y19182   3.643   0.871   5.506 -0.1793  0.3525 -0.6731
  169SAPS   C3919183   3.470   0.859   5.371 -0.6203  0.1017  0.4610
  169SAPS   H9X19184   3.476   0.968   5.391  0.6198 -0.3304  2.9278
  169SAPS   H9Y19185   3.365   0.826   5.384  0.6226 -4.3474  0.8730
  169SAPS  C31019186   3.520   0.833   5.225 -0.4853  0.0756  0.0707
  169SAPS  H10X19187   3.543   0.727   5.199  0.6385  0.5018 -0.6944
  169SAPS  H10Y19188   3.613   0.891   5.213  0.2447 -1.1571 -0.3862
  169SAPS  C31119189   3.417   0.882   5.125 -0.3090  0.5868  0.0997
  169SAPS  H11X19190   3.390   0.984   5.162  0.6110  0.4266  1.2749
  169SAPS  H11Y19191   3.325   0.820   5.129  0.2432 -0.2897 -0.5497
  169SAPS  C31219192   3.457   0.867   4.980 -0.2899 -0.0407 -0.2605
  169SAPS  H12X19193   3.424   0.772   4.933  0.8550 -0.2168 -0.7555
  169SAPS  H12Y19194   3.567   0.855   4.990 -0.5792 -1.1361  2.1379
  169SAPS  C31319195   3.420   0.979   4.883 -0.0087  0.3145 -0.2737
  169SAPS  H13X19196   3.309   0.983   4.886 -0.0791 -1.2934  0.8916
  169SAPS  H13Y19197   3.459   0.952   4.783 -0.3782  1.6358 -0.7965
  169SAPS  C31419198   3.470   1.118   4.926 -0.1018  0.6331 -0.8166
  169SAPS  H14X19199   3.437   1.162   5.022  3.0759  3.5861 -0.9314
  169SAPS  H14Y19200   3.443   1.189   4.844 -0.5646 -0.9001 -2.0526
  169SAPS  C31519201   3.620   1.126   4.937  0.4606  0.0785  0.2487
  169SAPS  H15X19202   3.653   1.044   5.005 -1.4206  0.7660  2.0842
  169SAPS  H15Y19203   3.646   1.216   4.997 -0.8254 -0.2882  1.3992
  169SAPS  C31619204   3.696   1.137   4.805 -0.3216  0.3021 -0.1151
  169SAPS  H16X19205   3.655   1.067   4.729  0.7314 -0.0175 -0.4051
  169SAPS  H16Y19206   3.798   1.096   4.820 -0.8246 -0.5260  1.2514
  169SAPS  C31719207   3.689   1.269   4.733 -0.3590  0.4524  0.6234
  169SAPS  H17X19208   3.737   1.341   4.803  0.7470 -0.8878  1.2860
  169SAPS  H17Y19209   3.582   1.297   4.730  0.2907  3.2222  0.8755
  169SAPS  C31819210   3.764   1.271   4.603 -0.6715 -0.2793  0.4850
  169SAPS  H18X19211   3.873   1.254   4.614 -0.6158 -0.0458  0.3017
  169SAPS  H18Y19212   3.761   1.368   4.549  1.6162  0.4088  1.5080
  169SAPS  H18Z19213   3.730   1.186   4.538 -0.4849  0.8531 -1.1602
  170SAPS     N19214   3.297   0.301   6.810 -0.2153  0.1690  0.4233
  170SAPS   HN119215   3.391   0.310   6.853 -0.5249 -0.0703  1.1627
  170SAPS   HN219216   3.294   0.207   6.767  0.3960  0.4238 -0.2083
  170SAPS   HN319217   3.286   0.371   6.734  0.4290  1.4196  1.4273
  170SAPS   C1219218   3.179   0.294   6.901 -0.6608  0.7753 -0.9615
  170SAPS  H12A19219   3.100   0.249   6.842 -2.7615  0.4918  1.8624
  170SAPS   C1319220   3.199   0.216   7.035  0.5967  0.5564  0.3814
  170SAPS  O13A19221   3.307   0.160   7.055 -0.9276 -0.2298 -0.0316
  170SAPS  O13B19222   3.106   0.217   7.122  0.2200  0.2164  0.2457
  170SAPS   C1119223   3.131   0.443   6.933 -0.4661  0.5858 -0.5066
  170SAPS  H11A19224   3.201   0.490   7.005 -0.6170 -0.9896  0.7285
  170SAPS  H11B19225   3.036   0.447   6.990 -0.7769 -1.4511 -0.7895
  170SAPS     P19226   3.025   0.620   6.772  0.0472 -0.0855  0.3440
  170SAPS   O1319227   2.945   0.654   6.892 -0.0391 -0.2749 -0.0311
  170SAPS   O1419228   3.086   0.732   6.703 -0.0257 -0.5139 -0.4444
  170SAPS   O1219229   3.128   0.519   6.817 -0.3973  0.8745  0.1595
  170SAPS   O1119230   2.942   0.548   6.669  0.1714 -0.4775  0.2849
  170SAPS    C119231   3.006   0.459   6.579 -0.3029  0.4483 -0.0013
  170SAPS    HA19232   3.100   0.498   6.535 -0.6572  0.8732 -0.3812
  170SAPS    HB19233   3.025   0.366   6.637 -2.4807  0.2996  0.5587
  170SAPS    C219234   2.905   0.429   6.456 -0.1119 -1.0175 -0.5162
  170SAPS    HS19235   2.954   0.366   6.378  0.1391  0.7156 -1.8329
  170SAPS   O2119236   2.857   0.553   6.402 -0.0545 -0.3177 -0.1808
  170SAPS   C2119237   2.923   0.614   6.304 -0.5729 -0.3347 -0.0296
  170SAPS   O2219238   3.011   0.559   6.244  0.6618  0.1524  0.1723
  170SAPS   C2219239   2.871   0.755   6.277  0.2114  0.1438  0.0360
  170SAPS   H2R19240   2.765   0.769   6.308  0.0912  1.7480 -1.0062
  170SAPS   H2S19241   2.939   0.812   6.344  0.5023 -0.4371  0.2461
  170SAPS    C319242   2.789   0.336   6.506 -0.7563 -0.5289  0.2620
  170SAPS    HX19243   2.726   0.390   6.580 -0.7208 -0.9863  0.6321
  170SAPS    HY19244   2.836   0.249   6.558  1.1487 -1.1519 -2.2790
  170SAPS   O3119245   2.711   0.289   6.395  0.4899 -0.6375  0.3879
  170SAPS   C3119246   2.714   0.160   6.371 -0.2506  0.5314 -0.3112
  170SAPS   O3219247   2.804   0.089   6.407 -0.2304  0.0192 -0.8129
  170SAPS   C3219248   2.596   0.116   6.283 -0.4611  0.3021  0.3514
  170SAPS   H2X19249   2.506   0.134   6.346 -1.0678 -1.0223 -0.1044
  170SAPS   H2Y19250   2.615   0.010   6.256  0.1970 -0.1144  2.3165
  170SAPS   C2319251   2.896   0.801   6.127 -0.1045 -0.0763  0.2697
  170SAPS   H3R19252   2.994   0.756   6.100 -1.0177 -0.1836 -3.3639
  170SAPS   H3S19253   2.882   0.910   6.117 -1.0805 -0.2653 -0.7220
  170SAPS   C2419254   2.805   0.734   6.023 -0.3805 -0.2598 -0.3530
  170SAPS   H4R19255   2.813   0.624   6.037 -1.7760 -0.3172  0.1365
  170SAPS   H4S19256   2.865   0.756   5.932  1.0559  0.1876  0.6469
  170SAPS   C2519257   2.659   0.777   6.013 -0.4597 -0.6021 -0.3141
  170SAPS   H5R19258   2.610   0.794   6.110 -0.6348 -1.4135 -0.2532
  170SAPS   C2619259   2.595   0.842   5.914 -0.7153  0.0900 -0.3160
  170SAPS   H6R19260   2.489   0.864   5.929 -0.4915  1.8964 -1.1290
  170SAPS   C2719261   2.646   0.867   5.774  0.2112  0.3963 -0.1306
  170SAPS   H7R19262   2.752   0.901   5.786 -0.3674  1.5736  2.1936
  170SAPS   H7S19263   2.594   0.955   5.730 -0.4606  1.2193  2.1738
  170SAPS   C2819264   2.646   0.747   5.682  0.0916 -0.3964  0.4050
  170SAPS   H8R19265   2.651   0.648   5.730 -2.0277 -1.1721 -0.8017
  170SAPS   C2919266   2.640   0.756   5.551 -0.3294 -0.4192  0.8652
  170SAPS   H9R19267   2.650   0.659   5.500  2.3898  0.3293 -0.1823
  170SAPS  C21019268   2.639   0.873   5.458 -0.5385 -0.1943 -0.5367
  170SAPS  H10R19269   2.703   0.849   5.371 -1.0370  2.0080 -1.5904
  170SAPS  H10S19270   2.682   0.961   5.510 -1.1886 -1.1971  1.8289
  170SAPS  C21119271   2.507   0.927   5.414 -0.5887  0.2678 -0.2028
  170SAPS  H11R19272   2.446   0.979   5.490 -2.0126 -0.1633 -1.0169
  170SAPS  C21219273   2.474   0.944   5.283  0.0417 -0.0752  0.2630
  170SAPS  H12R19274   2.370   0.976   5.269  0.7511  1.8745 -0.8661
  170SAPS  C21319275   2.550   0.899   5.158  0.3399 -0.0821  0.9885
  170SAPS  H13R19276   2.653   0.869   5.187  0.2132 -1.5223  0.0481
  170SAPS  H13S19277   2.543   0.983   5.086 -2.7619 -0.4401  0.7081
  170SAPS  C21419278   2.484   0.775   5.100 -0.6802  0.1971  0.0410
  170SAPS  H14R19279   2.470   0.687   5.165 -0.8183 -0.5626 -0.9826
  170SAPS  C21519280   2.440   0.754   4.976  0.5690  0.2401 -0.1089
  170SAPS  H15R19281   2.394   0.655   4.957  0.9206 -0.1430  0.9770
  170SAPS  C21619282   2.434   0.856   4.864 -0.6103  0.1150 -0.5362
  170SAPS  H16R19283   2.486   0.951   4.889  3.2116 -1.6887 -0.8428
  170SAPS  H16S19284   2.326   0.879   4.856 -0.9576 -1.6316 -1.5315
  170SAPS  C21719285   2.472   0.812   4.720 -0.6550 -0.5436 -0.8623
  170SAPS  H17R19286   2.407   0.731   4.681 -1.5386  0.1359 -0.8365
  170SAPS  H17S19287   2.574   0.770   4.726 -0.9981 -1.3631 -0.6482
  170SAPS  C21819288   2.458   0.931   4.626  0.4521 -0.0662 -0.6478
  170SAPS  H18R19289   2.516   1.013   4.672 -2.1174  0.6887  1.5497
  170SAPS  H18S19290   2.353   0.969   4.628  0.6099  0.3476  0.3344
  170SAPS  C21919291   2.515   0.909   4.485  0.5170  0.0701  0.1525
  170SAPS  H19R19292   2.611   0.852   4.485 -0.2885 -1.4885  2.7109
  170SAPS  H19S19293   2.531   1.014   4.453 -0.2888  0.1968  0.1520
  170SAPS  C22019294   2.416   0.839   4.389  0.6012 -0.5044  0.5262
  170SAPS  H20R19295   2.371   0.755   4.446  0.9506  0.7702  2.8132
  170SAPS  H20S19296   2.451   0.798   4.292 -2.8361 -2.3848 -0.0616
  170SAPS  H20T19297   2.340   0.911   4.351  0.2594 -2.2106 -2.3874
  170SAPS   C3319298   2.575   0.196   6.158 -0.2366 -1.3007  0.5065
  170SAPS   H3X19299   2.558   0.302   6.186 -1.7070 -1.2523 -0.4773
  170SAPS   H3Y19300   2.480   0.169   6.107 -0.1135 -0.0509 -0.4415
  170SAPS   C3419301   2.684   0.182   6.052 -0.2296 -0.5004 -0.1546
  170SAPS   H4X19302   2.653   0.098   5.986 -1.4986 -1.1215  1.1669
  170SAPS   H4Y19303   2.776   0.156   6.109  1.6049  1.3243 -2.1214
  170SAPS   C3519304   2.711   0.316   5.986 -0.5103 -0.2440  0.1024
  170SAPS   H5X19305   2.812   0.315   5.938 -0.4389 -0.3463  0.2555
  170SAPS   H5Y19306   2.711   0.402   6.056  0.9747  0.7055 -0.9970
  170SAPS   C3619307   2.607   0.340   5.869 -0.2911 -0.1844 -0.2728
  170SAPS   H6X19308   2.605   0.450   5.862  1.1295 -0.2241 -1.8303
  170SAPS   H6Y19309   2.502   0.314   5.894 -1.0061 -0.3893 -3.0915
  170SAPS   C3719310   2.657   0.280   5.732  0.6800  0.5967  0.0361
  170SAPS   H7X19311   2.653   0.171   5.751 -3.8181  0.3634 -1.0349
  170SAPS   H7Y19312   2.762   0.306   5.706  0.3861  0.1654 -1.7041
  170SAPS   C3819313   2.566   0.317   5.616 -0.8258 -0.1874  0.1293
  170SAPS   H8X19314   2.582   0.426   5.598  1.0230 -0.8710 -3.2389
  170SAPS   H8Y19315   2.461   0.287   5.636 -0.7623  0.6011  1.8272
  170SAPS   C3919316   2.615   0.239   5.486  0.6866 -0.0546 -0.0165
  170SAPS   H9X19317   2.609   0.134   5.523 -1.3835  0.9518  2.8880
  170SAPS   H9Y19318   2.718   0.269   5.457  0.0940  2.0846 -0.0584
  170SAPS  C31019319   2.517   0.257   5.370  0.2534 -0.1569  0.6624
  170SAPS  H10X19320   2.511   0.366   5.347  3.4440 -0.4816 -2.5960
  170SAPS  H10Y19321   2.417   0.220   5.401 -0.7764  0.6023 -1.5491
  170SAPS  C31119322   2.571   0.197   5.244  0.0530  0.6199  0.1873
  170SAPS  H11X19323   2.559   0.088   5.261 -0.0250  0.7817  1.2530
  170SAPS  H11Y19324   2.678   0.219   5.228 -0.8575  3.6268 -2.8521
  170SAPS  C31219325   2.519   0.256   5.111  0.5710 -0.0093  0.3425
  170SAPS  H12X19326   2.577   0.186   5.047  0.7841 -0.3391  0.8901
  170SAPS  H12Y19327   2.559   0.357   5.090 -1.1143  0.4132 -1.0886
  170SAPS  C31319328   2.367   0.246   5.097 -0.0573  0.4768  0.5845
  170SAPS  H13X19329   2.330   0.314   5.018  0.2516 -0.0714 -0.0470
  170SAPS  H13Y19330   2.325   0.283   5.193  0.9760 -0.7793  1.5582
  170SAPS  C31419331   2.317   0.101   5.088  0.9535  0.7770  0.0742
  170SAPS  H14X19332   2.235   0.086   5.161  0.0242 -3.5482 -1.6177
  170SAPS  H14Y19333   2.394   0.030   5.125  0.4235  1.1346  1.9976
  170SAPS  C31519334   2.261   0.050   4.950  0.6456  0.0682 -0.1278
  170SAPS  H15X19335   2.185   0.124   4.917 -1.1181 -2.0486 -1.0407
  170SAPS  H15Y19336   2.213  -0.050   4.956  0.9977 -0.2114 -1.6167
  170SAPS  C31619337   2.380   0.049   4.849  0.7269 -0.2737 -0.4543
  170SAPS  H16X19338   2.449  -0.026   4.892 -1.0627 -0.9909  1.2771
  170SAPS  H16Y19339   2.429   0.149   4.843  0.6112 -0.0814  1.3062
  170SAPS  C31719340   2.313   0.000   4.716  0.2886  1.3141  0.1159
  170SAPS  H17X19341   2.206  -0.028   4.718  0.3175  1.0350 -1.6275
  170SAPS  H17Y19342   2.365  -0.096   4.696 -0.3961  1.0502 -0.4290
  170SAPS  C31819343   2.346   0.076   4.585  0.3362  0.0424 -0.5974
  170SAPS  H18X19344   2.307   0.180   4.586 -1.7922 -0.6913 -1.2616
  170SAPS  H18Y19345   2.304   0.039   4.489  0.0618 -0.0326 -0.4474
  170SAPS  H18Z19346   2.457   0.078   4.573  0.6058 -0.2572  1.4981
  171SAPS     N19347   3.548   1.647   7.343 -0.0207 -0.3840  0.3993
  171SAPS   HN119348   3.494   1.568   7.302 -0.3674 -0.0922  0.2865
  171SAPS   HN219349   3.610   1.615   7.421  0.5018  1.6915  0.9072
  171SAPS   HN319350   3.491   1.726   7.377 -1.8163 -1.1212 -0.7714
  171SAPS   C1219351   3.644   1.706   7.240  0.3279 -0.0742 -0.6268
  171SAPS  H12A19352   3.582   1.743   7.160 -0.0327 -2.4853 -1.5360
  171SAPS   C1319353   3.719   1.836   7.287  1.0856  0.3844 -0.5890
  171SAPS  O13A19354   3.701   1.879   7.402 -0.4594  0.4959 -0.3104
  171SAPS  O13B19355   3.774   1.910   7.202  0.2864  0.7320  0.1062
  171SAPS   C1119356   3.749   1.604   7.203 -0.6134 -0.2958 -0.5737
  171SAPS  H11A19357   3.810   1.579   7.293 -1.1270 -1.1590 -0.4472
  171SAPS  H11B19358   3.819   1.646   7.127  0.4658 -1.2909 -0.1709
  171SAPS     P19359   3.773   1.381   7.069 -0.2223  0.0611  0.0714
  171SAPS   O1319360   3.887   1.454   7.009 -0.6946 -0.1671  0.1391
  171SAPS   O1419361   3.809   1.273   7.163  0.1203  0.4477 -0.0092
  171SAPS   O1219362   3.693   1.483   7.153  0.6720  0.1942 -0.0906
  171SAPS   O1119363   3.686   1.332   6.962 -0.0621  0.1691 -0.1411
  171SAPS    C119364   3.554   1.382   6.921  0.4195 -0.0887 -0.1652
  171SAPS    HA19365   3.495   1.296   6.884 -1.0105 -0.0241  1.7910
  171SAPS    HB19366   3.486   1.413   7.003  0.3582  2.2534 -1.0335
  171SAPS    C219367   3.557   1.490   6.817 -0.2820  0.2028 -0.2961
  171SAPS    HS19368   3.472   1.482   6.746  0.1704 -0.2283 -0.8035
  171SAPS   O2119369   3.681   1.482   6.742  0.1111  0.1798  0.4272
  171SAPS   C2119370   3.687   1.387   6.645  0.5922  0.1180 -0.8076
  171SAPS   O2219371   3.591   1.347   6.585  0.5325  0.4866  0.3528
  171SAPS   C2219372   3.825   1.360   6.621 -0.2326 -0.4002  0.1211
  171SAPS   H2R19373   3.886   1.453   6.623 -1.7714  0.6365  1.7895
  171SAPS   H2S19374   3.858   1.303   6.711  0.6281 -0.1426 -0.0159
  171SAPS    C319375   3.544   1.638   6.875 -0.1557 -0.6946 -0.3489
  171SAPS    HX19376   3.624   1.663   6.948 -1.9984  1.7739  0.9808
  171SAPS    HY19377   3.449   1.626   6.932 -0.2487 -0.8725 -0.5373
  171SAPS   O3119378   3.521   1.734   6.775 -0.3364 -0.0871 -0.7480
  171SAPS   C3119379   3.623   1.788   6.715 -0.4121 -0.2055  0.0540
  171SAPS   O3219380   3.737   1.794   6.760  0.1249  0.1962 -0.5394
  171SAPS   C3219381   3.589   1.839   6.578  0.1222 -0.4432 -0.3706
  171SAPS   H2X19382   3.635   1.939   6.566  0.6342 -0.6935 -0.5162
  171SAPS   H2Y19383   3.478   1.836   6.575  0.1074 -1.1575  0.4025
  171SAPS   C2319384   3.851   1.285   6.488 -0.0866  0.2164 -0.2088
  171SAPS   H3R19385   3.816   1.336   6.396  3.0770  0.0885 -1.6236
  171SAPS   H3S19386   3.786   1.194   6.482 -0.0551  0.2306 -0.9077
  171SAPS   C2419387   3.996   1.239   6.473 -0.0160  0.2948 -0.2939
  171SAPS   H4R19388   4.007   1.165   6.391  0.6095 -0.7931  0.7428
  171SAPS   H4S19389   4.016   1.184   6.567 -0.5265  1.4418  0.5051
  171SAPS   C2519390   4.092   1.354   6.449 -0.0552 -0.0016  0.1358
  171SAPS   H5R19391   4.115   1.409   6.541  0.1003  1.2076 -0.6113
  171SAPS   C2619392   4.149   1.400   6.332 -0.3174  0.4559 -0.0593
  171SAPS   H6R19393   4.198   1.499   6.329 -1.3092  0.9449 -1.3196
  171SAPS   C2719394   4.142   1.339   6.196 -0.2539 -0.4345  0.0893
  171SAPS   H7R19395   4.137   1.422   6.122  0.1109 -0.5429 -0.0563
  171SAPS   H7S19396   4.049   1.279   6.190 -1.6012  1.3036  1.9142
  171SAPS   C2819397   4.257   1.241   6.162  0.5050  0.2784  0.5231
  171SAPS   H8R19398   4.313   1.211   6.252  0.5677 -1.6345 -0.1028
  171SAPS   C2919399   4.308   1.212   6.041  0.0779  0.0804  0.4613
  171SAPS   H9R19400   4.400   1.152   6.038  0.2445  0.3097  0.8654
  171SAPS  C21019401   4.247   1.260   5.909  0.2710 -0.5067  0.1044
  171SAPS  H10R19402   4.300   1.352   5.875 -0.6801 -0.8224 -2.4468
  171SAPS  H10S19403   4.144   1.295   5.931 -0.3378 -2.3165  0.2833
  171SAPS  C21119404   4.249   1.161   5.798 -0.4745 -0.1998  0.0870
  171SAPS  H11R19405   4.210   1.062   5.825  0.9528 -0.7903  0.0484
  171SAPS  C21219406   4.292   1.181   5.671 -0.1398  0.1997 -0.5437
  171SAPS  H12R19407   4.301   1.098   5.599  2.0126 -0.1960  0.1029
  171SAPS  C21319408   4.345   1.312   5.611  0.3932 -0.8038  0.3853
  171SAPS  H13R19409   4.454   1.312   5.587  0.3105 -1.3229 -0.0143
  171SAPS  H13S19410   4.337   1.392   5.687 -0.5688 -1.1013  0.6110
  171SAPS  C21419411   4.264   1.347   5.484  0.1525  0.4715  0.6945
  171SAPS  H14R19412   4.155   1.341   5.499  0.1328 -1.0231  0.0939
  171SAPS  C21519413   4.307   1.393   5.363 -0.2827  0.0058  0.1146
  171SAPS  H15R19414   4.243   1.427   5.280  0.2200  0.2432 -0.1838
  171SAPS  C21619415   4.450   1.410   5.323  0.3871  0.5333  0.1950
  171SAPS  H16R19416   4.499   1.311   5.313 -0.3539  0.1801 -0.0001
  171SAPS  H16S19417   4.508   1.476   5.391 -0.9595  2.1281 -0.1199
  171SAPS  C21719418   4.454   1.466   5.177 -0.7140  0.0012  0.6976
  171SAPS  H17R19419   4.382   1.400   5.122  0.1418  0.0509 -0.5169
  171SAPS  H17S19420   4.556   1.453   5.135 -0.9281 -0.4825  0.3143
  171SAPS  C21819421   4.432   1.614   5.163  0.5836  0.3154 -0.1974
  171SAPS  H18R19422   4.499   1.677   5.224  0.6358  1.6528 -1.5957
  171SAPS  H18S19423   4.331   1.636   5.205  0.6513 -0.2807  0.2983
  171SAPS  C21919424   4.440   1.651   5.016  0.3299  0.1681 -0.0825
  171SAPS  H19R19425   4.371   1.591   4.952 -0.8790 -0.4752  1.7462
  171SAPS  H19S19426   4.543   1.631   4.980  0.0504  0.1181 -0.8995
  171SAPS  C22019427   4.428   1.797   4.984 -0.9781 -0.3663 -0.3849
  171SAPS  H20R19428   4.440   1.815   4.875  1.4183  0.1346 -0.0880
  171SAPS  H20S19429   4.517   1.845   5.030 -1.2645 -2.6569  2.9326
  171SAPS  H20T19430   4.335   1.849   5.016  0.1390  1.8638 -0.5715
  171SAPS   C3319431   3.655   1.756   6.462  1.0186 -0.0632  0.7298
  171SAPS   H3X19432   3.602   1.779   6.367 -0.7577 -2.8101  0.9413
  171SAPS   H3Y19433   3.640   1.647   6.479 -0.6574 -0.6767 -3.4389
  171SAPS   C3419434   3.808   1.783   6.443  0.6359 -0.0992  0.0142
  171SAPS   H4X19435   3.857   1.761   6.541  2.5785  0.3731 -0.8095
  171SAPS   H4Y19436   3.814   1.889   6.411  0.9522 -0.0993  0.0665
  171SAPS   C3519437   3.882   1.694   6.341 -0.1081  0.0223  0.0630
  171SAPS   H5X19438   3.898   1.597   6.393 -1.1644 -0.7324 -0.9588
  171SAPS   H5Y19439   3.984   1.726   6.310 -0.8366  1.2857 -1.0957
  171SAPS   C3619440   3.819   1.693   6.205  0.3150  0.3710  0.1532
  171SAPS   H6X19441   3.838   1.793   6.159  0.5790 -0.9297 -2.8058
  171SAPS   H6Y19442   3.710   1.676   6.208  0.6932 -3.1570 -1.6617
  171SAPS   C3719443   3.874   1.593   6.101 -0.6543  0.2858 -0.1636
  171SAPS   H7X19444   3.869   1.488   6.139 -0.9417  0.6769  0.9009
  171SAPS   H7Y19445   3.982   1.614   6.087 -1.2096  1.0751 -4.5678
  171SAPS   C3819446   3.809   1.599   5.965  1.0297 -0.6707 -0.4782
  171SAPS   H8X19447   3.779   1.705   5.949  1.9726  0.0083  1.7156
  171SAPS   H8Y19448   3.717   1.537   5.957  2.0324 -2.2431 -0.3064
  171SAPS   C3919449   3.885   1.547   5.850  0.0822 -0.3489 -0.4182
  171SAPS   H9X19450   3.892   1.436   5.848  1.0284 -0.3026  0.0060
  171SAPS   H9Y19451   3.989   1.570   5.880 -0.7457  0.6516  1.9085
  171SAPS  C31019452   3.845   1.602   5.712 -0.6406  0.4679  0.3436
  171SAPS  H10X19453   3.837   1.712   5.727  0.5314  0.7695 -1.0825
  171SAPS  H10Y19454   3.745   1.557   5.694  0.3300 -2.9677  2.5742
  171SAPS  C31119455   3.931   1.579   5.585  0.0536 -0.5062 -0.0076
  171SAPS  H11X19456   3.942   1.469   5.591 -0.3298 -0.4668  1.7794
  171SAPS  H11Y19457   4.030   1.625   5.605  0.7571 -2.5913  1.6258
  171SAPS  C31219458   3.855   1.622   5.456 -0.1909 -0.8920 -0.2781
  171SAPS  H12X19459   3.879   1.730   5.441 -2.3758 -0.4232 -0.6140
  171SAPS  H12Y19460   3.744   1.621   5.458 -0.2893  1.5013 -1.3375
  171SAPS  C31319461   3.902   1.547   5.333 -0.3759 -0.1719 -0.1095
  171SAPS  H13X19462   3.857   1.446   5.335 -1.5753  0.3655  1.3219
  171SAPS  H13Y19463   4.012   1.529   5.327 -0.3723 -0.2383  0.1653
  171SAPS  C31419464   3.877   1.621   5.200  0.2258  0.1590 -0.0423
  171SAPS  H14X19465   3.921   1.722   5.209  0.3833  0.1251 -0.3918
  171SAPS  H14Y19466   3.768   1.626   5.180  0.1916  1.0391  0.3297
  171SAPS  C31519467   3.946   1.546   5.076  0.2347 -0.3672 -0.2470
  171SAPS  H15X19468   3.894   1.448   5.071  1.5812 -1.0944 -0.5578
  171SAPS  H15Y19469   4.047   1.516   5.111  0.6968  0.6959 -0.6452
  171SAPS  C31619470   3.936   1.629   4.944 -0.4739 -0.1871  0.4088
  171SAPS  H16X19471   3.991   1.726   4.951  0.1268 -0.5333  0.5865
  171SAPS  H16Y19472   3.829   1.653   4.928 -0.5028 -0.3645  0.3319
  171SAPS  C31719473   3.990   1.552   4.823  0.3473  0.3285  0.0674
  171SAPS  H17X19474   3.948   1.450   4.835 -0.7006  0.7805  0.2985
  171SAPS  H17Y19475   4.102   1.554   4.824  0.4817 -2.2138 -1.2713
  171SAPS  C31819476   3.941   1.611   4.683  0.4200 -0.4928 -0.4643
  171SAPS  H18X19477   3.831   1.601   4.667  0.2556 -1.1305  0.9023
  171SAPS  H18Y19478   3.997   1.556   4.605  0.0881 -0.4920 -0.7057
  171SAPS  H18Z19479   3.972   1.715   4.663 -0.7376 -0.0279  0.0310
  172SAPS     N19480   5.321   2.324   6.720  0.0570 -0.2562  0.3091
  172SAPS   HN119481   5.335   2.371   6.628  2.0924  1.3314  1.3314
  172SAPS   HN219482   5.393   2.355   6.789  0.3170  0.0054 -0.0752
  172SAPS   HN319483   5.316   2.221   6.705 -3.6371  0.1839 -3.1819
  172SAPS   C1219484   5.189   2.370   6.774  0.2470  0.0504 -0.1560
  172SAPS  H12A19485   5.182   2.303   6.859 -2.5040  0.4028 -0.0059
  172SAPS   C1319486   5.170   2.523   6.817  0.4216  0.1513 -0.6386
  172SAPS  O13A19487   5.278   2.583   6.837  0.6722 -0.0689 -0.2850
  172SAPS  O13B19488   5.059   2.554   6.868 -0.3916 -0.0645  0.2756
  172SAPS   C1119489   5.070   2.325   6.684 -1.0822  0.4750  0.3073
  172SAPS  H11A19490   5.071   2.392   6.595  2.6402  1.4423  0.9103
  172SAPS  H11B19491   4.975   2.347   6.736 -2.0179 -0.5584 -0.9086
  172SAPS     P19492   4.948   2.104   6.663  0.2404 -0.4684 -0.4786
  172SAPS   O1319493   4.968   1.976   6.595 -0.2433 -0.6461 -0.7168
  172SAPS   O1419494   4.916   2.104   6.807 -0.8239 -0.4261  0.0765
  172SAPS   O1219495   5.084   2.189   6.642  0.3871 -0.0155  0.3827
  172SAPS   O1119496   4.840   2.186   6.586  0.0374  0.5487  0.3453
  172SAPS    C119497   4.867   2.206   6.446 -0.5722  0.1769 -0.1615
  172SAPS    HA19498   4.950   2.278   6.425 -0.5425 -0.3337 -1.8900
  172SAPS    HB19499   4.903   2.115   6.395 -1.3139 -0.0290 -0.3234
  172SAPS    C219500   4.741   2.256   6.363 -0.4628 -0.5494 -0.1060
  172SAPS    HS19501   4.678   2.302   6.442 -0.1480  2.8866 -1.6850
  172SAPS   O2119502   4.665   2.147   6.301 -0.1507  0.7403 -0.0640
  172SAPS   C2119503   4.535   2.172   6.278  0.0423 -0.7691 -0.3794
  172SAPS   O2219504   4.480   2.274   6.323  0.7334  1.1517  0.1021
  172SAPS   C2219505   4.466   2.053   6.211  0.2109  0.2639 -1.0254
  172SAPS   H2R19506   4.536   2.028   6.128  0.3908 -0.2363 -0.7280
  172SAPS   H2S19507   4.467   1.963   6.276 -3.0457 -0.7764 -2.2012
  172SAPS    C319508   4.787   2.351   6.250 -0.5152 -0.0161  0.0283
  172SAPS    HX19509   4.845   2.434   6.294  0.9304 -2.1941  2.5259
  172SAPS    HY19510   4.693   2.394   6.210  0.9994  2.3879 -1.1705
  172SAPS   O3119511   4.844   2.278   6.143 -0.1386  0.4494 -0.1504
  172SAPS   C3119512   4.955   2.331   6.084 -0.2482 -0.3010  1.2178
  172SAPS   O3219513   4.991   2.446   6.114 -0.3334  0.0042 -0.0351
  172SAPS   C3219514   5.021   2.245   5.982 -0.1641 -0.2380 -0.1689
  172SAPS   H2X19515   4.944   2.176   5.942  1.7613 -1.7344 -1.4552
  172SAPS   H2Y19516   5.100   2.184   6.032 -1.0920  0.0710  1.7706
  172SAPS   C2319517   4.325   2.071   6.144  0.3546 -0.2076  0.8518
  172SAPS   H3R19518   4.272   2.150   6.201  0.3886 -0.8655  1.8207
  172SAPS   H3S19519   4.268   1.977   6.126 -0.9577  0.5934  0.7234
  172SAPS   C2419520   4.344   2.126   5.996 -0.7704 -0.2395  0.5254
  172SAPS   H4R19521   4.250   2.116   5.938 -0.5184  2.9752 -0.6531
  172SAPS   H4S19522   4.425   2.075   5.940  0.9825  2.8287  0.0310
  172SAPS   C2519523   4.369   2.273   5.999 -0.2900 -0.4742 -0.3837
  172SAPS   H5R19524   4.360   2.308   6.103 -2.7065  0.8186 -0.9419
  172SAPS   C2619525   4.370   2.352   5.898 -0.0407 -0.2312 -0.0179
  172SAPS   H6R19526   4.367   2.461   5.911  0.9246  0.1091 -2.2324
  172SAPS   C2719527   4.359   2.312   5.754  0.4288  0.0574  0.2912
  172SAPS   H7R19528   4.420   2.221   5.735  0.5365 -0.0160  0.9380
  172SAPS   H7S19529   4.411   2.393   5.699 -2.9133  2.1061 -0.1202
  172SAPS   C2819530   4.226   2.297   5.693  0.0732  0.8637  0.6452
  172SAPS   H8R19531   4.169   2.211   5.731  1.0979 -0.2509 -0.2652
  172SAPS   C2919532   4.163   2.383   5.608 -0.0301  0.0473  0.5746
  172SAPS   H9R19533   4.060   2.355   5.579  0.0861 -1.7765  1.7962
  172SAPS  C21019534   4.221   2.515   5.553  0.3253 -0.4148  1.1672
  172SAPS  H10R19535   4.157   2.544   5.468  0.8433 -1.2945  0.4578
  172SAPS  H10S19536   4.315   2.487   5.500  0.0058  0.3861  0.1528
  172SAPS  C21119537   4.245   2.628   5.648  0.3839 -0.0260 -0.7894
  172SAPS  H11R19538   4.182   2.629   5.739 -0.0729  0.3694 -1.1040
  172SAPS  C21219539   4.343   2.720   5.625 -0.1628  0.4030  0.8678
  172SAPS  H12R19540   4.350   2.793   5.706 -0.5365 -0.1317  1.3908
  172SAPS  C21319541   4.451   2.726   5.515  0.0139 -0.8627 -0.2872
  172SAPS  H13R19542   4.449   2.657   5.427 -0.6153 -1.5002  0.2091
  172SAPS  H13S19543   4.544   2.707   5.572 -0.1613 -0.2186  0.2253
  172SAPS  C21419544   4.443   2.869   5.464 -0.4752  0.1078 -0.6332
  172SAPS  H14R19545   4.463   2.952   5.533  2.5205 -0.5658 -0.5453
  172SAPS  C21519546   4.412   2.909   5.343  0.0194 -0.1362  0.3730
  172SAPS  H15R19547   4.404   3.013   5.308 -1.5666 -1.4356 -3.7098
  172SAPS  C21619548   4.386   2.822   5.223  0.6470  0.6331  0.0136
  172SAPS  H16R19549   4.358   2.718   5.252  0.4862  0.4688 -0.7189
  172SAPS  H16S19550   4.482   2.822   5.167  1.2063  0.1855  0.9391
  172SAPS  C21719551   4.285   2.879   5.123 -0.0836 -0.3220  0.0110
  172SAPS  H17R19552   4.310   2.983   5.091 -1.8286  0.6643  1.6619
  172SAPS  H17S19553   4.193   2.898   5.181  0.4434  0.0946  0.7212
  172SAPS  C21819554   4.259   2.782   5.004 -0.1432 -0.3657 -0.2381
  172SAPS  H18R19555   4.218   2.688   5.046 -0.6236  1.0208  2.6411
  172SAPS  H18S19556   4.363   2.760   4.971  0.1584 -1.9838  1.5675
  172SAPS  C21919557   4.174   2.857   4.893 -0.2595  0.0147  0.3908
  172SAPS  H19R19558   4.166   2.796   4.800  1.4245  1.1607 -0.5653
  172SAPS  H19S19559   4.238   2.944   4.865  0.4047 -0.4991  0.2813
  172SAPS  C22019560   4.036   2.900   4.933  0.3921  0.1785  0.3467
  172SAPS  H20R19561   3.979   2.812   4.969  2.0632 -0.5158  1.3846
  172SAPS  H20S19562   3.976   2.950   4.853 -0.0571  2.4049  1.9679
  172SAPS  H20T19563   4.036   2.976   5.014 -1.4168 -0.1260  0.6942
  172SAPS   C3319564   5.093   2.322   5.870  0.4024  1.2328 -0.5444
  172SAPS   H3X19565   5.170   2.391   5.910 -0.6034  0.6013  2.8326
  172SAPS   H3Y19566   5.020   2.391   5.821  0.0094 -0.4074 -2.3956
  172SAPS   C3419567   5.161   2.245   5.757 -0.2604  0.8245 -0.2987
  172SAPS   H4X19568   5.107   2.152   5.730 -0.2084  0.5922  0.3811
  172SAPS   H4Y19569   5.260   2.205   5.790  0.1111  2.5800  0.8207
  172SAPS   C3519570   5.193   2.343   5.643  0.1441  0.0401  0.0877
  172SAPS   H5X19571   5.244   2.433   5.681 -0.7407 -0.0537  1.5624
  172SAPS   H5Y19572   5.096   2.373   5.597  0.8691  0.8915 -0.9216
  172SAPS   C3619573   5.274   2.273   5.532  0.5590 -0.5481  0.5318
  172SAPS   H6X19574   5.259   2.163   5.535  1.7649 -0.7154  2.3251
  172SAPS   H6Y19575   5.379   2.304   5.549 -0.3137  3.0470  0.0135
  172SAPS   C3719576   5.227   2.324   5.395 -0.2418 -0.3716  0.1137
  172SAPS   H7X19577   5.228   2.434   5.377  0.7187 -0.4942 -0.7022
  172SAPS   H7Y19578   5.130   2.275   5.372  0.0624 -0.5922 -0.7802
  172SAPS   C3819579   5.318   2.271   5.282  0.0861 -0.0471  0.5182
  172SAPS   H8X19580   5.314   2.160   5.273  0.2537  0.0021 -0.2412
  172SAPS   H8Y19581   5.423   2.302   5.303  0.0084  0.3039  0.3927
  172SAPS   C3919582   5.263   2.321   5.141  0.0383 -0.4431 -0.1401
  172SAPS   H9X19583   5.278   2.430   5.157  0.5929 -0.8480  2.9189
  172SAPS   H9Y19584   5.155   2.301   5.132  0.3025 -1.2357 -1.8368
  172SAPS  C31019585   5.326   2.267   5.015 -0.1877  0.7905 -0.5176
  172SAPS  H10X19586   5.316   2.160   4.990  0.3229  1.1414 -2.4300
  172SAPS  H10Y19587   5.437   2.282   5.016 -0.0876  0.0578  0.2249
  172SAPS  C31119588   5.269   2.344   4.893  0.6711 -0.1950 -0.0095
  172SAPS  H11X19589   5.277   2.454   4.908  0.2186 -0.2020  0.2888
  172SAPS  H11Y19590   5.161   2.317   4.891  0.7264 -0.7391  2.2535
  172SAPS  C31219591   5.329   2.315   4.757 -0.0769 -0.3137 -0.3222
  172SAPS  H12X19592   5.279   2.233   4.702  1.0310 -1.3108  0.1215
  172SAPS  H12Y19593   5.435   2.285   4.770  0.5438  1.1938 -1.5569
  172SAPS  C31319594   5.319   2.442   4.673 -0.3063 -0.8565 -0.2327
  172SAPS  H13X19595   5.377   2.525   4.719  2.5821 -1.4123 -2.5902
  172SAPS  H13Y19596   5.213   2.476   4.672 -0.3861 -1.0526  0.6046
  172SAPS  C31419597   5.374   2.425   4.527 -0.2535  0.1828 -0.0367
  172SAPS  H14X19598   5.312   2.339   4.494 -0.6360  0.4166  0.0706
  172SAPS  H14Y19599   5.480   2.392   4.528  0.1549  1.4683  0.4607
  172SAPS  C31519600   5.347   2.543   4.431  0.0878 -0.1424  0.4392
  172SAPS  H15X19601   5.308   2.628   4.492  0.4283 -0.3849  0.9973
  172SAPS  H15Y19602   5.273   2.511   4.356 -2.5370  0.9635  2.3890
  172SAPS  C31619603   5.479   2.591   4.360  0.4278  0.6156  0.1426
  172SAPS  H16X19604   5.480   2.693   4.316  1.9935  0.7708  0.4663
  172SAPS  H16Y19605   5.552   2.598   4.443  0.7894 -1.5659  0.0778
  172SAPS  C31719606   5.513   2.480   4.257 -0.0644  0.0597 -0.0671
  172SAPS  H17X19607   5.425   2.440   4.203  2.0060 -1.0527 -2.8849
  172SAPS  H17Y19608   5.563   2.394   4.306  2.7808  0.6115 -1.7661
  172SAPS  C31819609   5.608   2.537   4.148 -0.6901 -0.6401  1.1940
  172SAPS  H18X19610   5.703   2.576   4.189 -1.1819  1.1587  0.7266
  172SAPS  H18Y19611   5.563   2.631   4.109  0.5478 -0.3104  0.5058
  172SAPS  H18Z19612   5.616   2.456   4.072  1.5239  0.0669  0.6101
  173SAPS     N19613   2.859   4.572   2.118  0.2347 -0.2863  0.2061
  173SAPS   HN119614   2.929   4.608   2.051 -1.3314  3.2738  0.2244
  173SAPS   HN219615   2.776   4.635   2.131 -0.9144 -2.1947  3.2063
  173SAPS   HN319616   2.902   4.572   2.213  1.4428 -1.0591 -0.3294
  173SAPS   C1219617   2.801   4.439   2.077  0.0292  0.0434 -0.7611
  173SAPS  H12A19618   2.732   4.406   2.153 -0.0519  0.0453 -0.8335
  173SAPS   C1319619   2.750   4.432   1.939  0.3206  0.3172  0.8762
  173SAPS  O13A19620   2.765   4.530   1.862 -0.8197  0.2843  0.0514
  173SAPS  O13B19621   2.705   4.322   1.895 -0.3550 -0.3163  0.2725
  173SAPS   C1119622   2.918   4.335   2.093  1.0569 -0.4071  0.1831
  173SAPS  H11A19623   3.007   4.361   2.032  1.0559  0.9374  0.7331
  173SAPS  H11B19624   2.878   4.239   2.053 -0.4309  0.9602 -1.8241
  173SAPS     P19625   3.066   4.202   2.257 -0.4209  0.1569  0.1499
  173SAPS   O1319626   3.168   4.228   2.156 -0.3393 -0.1351  0.0942
  173SAPS   O1419627   3.118   4.212   2.396  0.6718  0.4367  0.6053
  173SAPS   O1219628   2.956   4.314   2.232  0.0291 -0.1044 -0.0575
  173SAPS   O1119629   2.988   4.066   2.222  0.2030 -0.2725 -0.1982
  173SAPS    C119630   2.856   4.031   2.275 -0.1068  0.0408  0.0017
  173SAPS    HA19631   2.778   4.109   2.263 -1.4934 -1.2667  0.0887
  173SAPS    HB19632   2.820   3.941   2.220  2.5861 -1.1474  0.0254
  173SAPS    C219633   2.861   3.992   2.428  0.5356 -0.1003  0.4556
  173SAPS    HS19634   2.762   3.955   2.463  1.3181 -0.9908  1.8022
  173SAPS   O2119635   2.903   4.092   2.519  0.5298  0.2060  0.2462
  173SAPS   C2119636   2.809   4.187   2.534  0.6002  0.4291  0.7556
  173SAPS   O2219637   2.705   4.195   2.472  1.2880  0.4286  0.8955
  173SAPS   C2219638   2.869   4.289   2.629 -0.3230 -0.3068  0.3915
  173SAPS   H2R19639   2.946   4.238   2.692  0.0485 -0.2367 -0.0024
  173SAPS   H2S19640   2.912   4.373   2.571 -0.6682 -0.3264  0.1055
  173SAPS    C319641   2.952   3.871   2.446 -0.4602 -0.6765  0.0183
  173SAPS    HX19642   3.057   3.907   2.445 -0.5076 -0.5410 -0.3270
  173SAPS    HY19643   2.934   3.819   2.349 -0.0833  2.9463 -2.2113
  173SAPS   O3119644   2.922   3.789   2.563  0.1549  0.5325 -0.4758
  173SAPS   C3119645   3.007   3.697   2.591 -0.3938  0.2015 -0.6789
  173SAPS   O3219646   3.108   3.661   2.530  0.2081 -0.1536 -0.6298
  173SAPS   C3219647   2.951   3.644   2.719 -0.4620  0.1054  0.4077
  173SAPS   H2X19648   2.848   3.609   2.695  0.4645 -2.1311 -0.6278
  173SAPS   H2Y19649   2.954   3.724   2.796  0.5792 -1.8365  2.4780
  173SAPS   C2319650   2.753   4.348   2.717 -0.8228 -0.2753 -0.2170
  173SAPS   H3R19651   2.652   4.339   2.671 -1.0822  1.9438 -0.1915
  173SAPS   H3S19652   2.778   4.456   2.731 -0.4946 -0.2338 -1.0484
  173SAPS   C2419653   2.744   4.254   2.841 -0.5722  0.2615 -0.0118
  173SAPS   H4R19654   2.844   4.218   2.875  0.0337  1.8302 -0.0625
  173SAPS   H4S19655   2.685   4.163   2.816  0.2959  0.0353 -1.3077
  173SAPS   C2519656   2.675   4.321   2.955  0.0029  0.2517  0.2935
  173SAPS   H5R19657   2.741   4.402   2.990 -0.8219  1.4102 -0.7132
  173SAPS   C2619658   2.563   4.298   3.029 -0.1399  0.1433  0.2357
  173SAPS   H6R19659   2.544   4.361   3.117  1.8048  0.5608  0.4132
  173SAPS   C2719660   2.476   4.175   3.002  0.3716  0.1726  0.4153
  173SAPS   H7R19661   2.531   4.085   3.036  2.1238  1.1138  0.1791
  173SAPS   H7S19662   2.473   4.165   2.891  2.2230  1.8066  0.1719
  173SAPS   C2819663   2.351   4.196   3.070  0.0172 -0.1686  0.1639
  173SAPS   H8R19664   2.278   4.251   3.010  0.5975 -0.3260 -0.7157
  173SAPS   C2919665   2.304   4.143   3.183  0.2594  0.0425 -0.3971
  173SAPS   H9R19666   2.207   4.169   3.228  0.9171 -0.6512  1.5128
  173SAPS  C21019667   2.380   4.054   3.277 -0.2724  0.1759  0.0647
  173SAPS  H10R19668   2.441   4.108   3.352  0.8565  0.1435 -0.7968
  173SAPS  H10S19669   2.464   4.002   3.226  0.5643  1.5255  0.0121
  173SAPS  C21119670   2.292   3.951   3.347  0.2032 -0.5417 -0.1681
  173SAPS  H11R19671   2.239   3.878   3.284  0.3982 -0.2543 -0.6749
  173SAPS  C21219672   2.282   3.929   3.480 -0.9297 -0.0279 -0.5137
  173SAPS  H12R19673   2.219   3.843   3.506 -1.6868 -0.3579 -3.1433
  173SAPS  C21319674   2.362   3.997   3.587 -0.1924 -0.0368  0.1630
  173SAPS  H13R19675   2.424   4.073   3.534  1.2735 -1.6396 -0.5255
  173SAPS  H13S19676   2.442   3.936   3.634  0.9356  2.8348  2.3258
  173SAPS  C21419677   2.277   4.054   3.697 -0.4852  0.0599 -0.0634
  173SAPS  H14R19678   2.181   4.103   3.672 -0.0177  1.0063 -0.0776
  173SAPS  C21519679   2.313   4.068   3.828  0.8240 -0.5314  0.5565
  173SAPS  H15R19680   2.235   4.096   3.900  0.1938  2.2853 -1.0370
  173SAPS  C21619681   2.428   4.011   3.890  0.0275  0.1251 -0.6209
  173SAPS  H16R19682   2.519   4.071   3.867  2.3483 -2.8819 -0.0120
  173SAPS  H16S19683   2.446   3.911   3.843 -0.0543  0.6086 -1.7102
  173SAPS  C21719684   2.408   3.998   4.042 -0.2693 -0.2923 -0.0472
  173SAPS  H17R19685   2.400   4.104   4.074  0.2943  0.7569 -3.0061
  173SAPS  H17S19686   2.494   3.960   4.101 -0.7519  1.4270  1.8960
  173SAPS  C21819687   2.288   3.915   4.088 -0.1529 -0.6409  0.0498
  173SAPS  H18R19688   2.307   3.811   4.054  2.0195 -0.9226  1.8967
  173SAPS  H18S19689   2.195   3.964   4.050  0.7940  2.0985  1.0182
  173SAPS  C21919690   2.264   3.908   4.244  0.3442 -0.0610 -0.1697
  173SAPS  H19R19691   2.361   3.881   4.290  1.9778  1.9236 -2.1948
  173SAPS  H19S19692   2.193   3.827   4.272  0.4018 -0.3773 -0.9178
  173SAPS  C22019693   2.222   4.042   4.313 -0.1478  0.3425  0.0824
  173SAPS  H20R19694   2.275   4.062   4.409 -0.7823  0.8024  0.3534
  173SAPS  H20S19695   2.113   4.033   4.336  0.0660 -2.1722  0.3850
  173SAPS  H20T19696   2.244   4.127   4.245  1.0116  0.7438  0.9262
  173SAPS   C3319697   3.034   3.519   2.754 -0.1587  0.2761  0.8484
  173SAPS   H3X19698   3.143   3.539   2.758 -0.0650 -0.0213 -0.1221
  173SAPS   H3Y19699   3.024   3.449   2.669 -0.4073 -0.8365  1.7607
  173SAPS   C3419700   2.997   3.434   2.879  0.1293  0.4719 -0.5435
  173SAPS   H4X19701   3.053   3.338   2.880 -1.2906 -0.3928  1.3153
  173SAPS   H4Y19702   2.887   3.417   2.879  0.2403 -0.2509 -0.5983
  173SAPS   C3519703   3.031   3.533   2.996 -0.5177  0.4152  0.4661
  173SAPS   H5X19704   2.952   3.611   3.004 -0.4055  0.4001  2.1522
  173SAPS   H5Y19705   3.128   3.582   2.974 -0.9714  0.9229 -0.4641
  173SAPS   C3619706   3.039   3.458   3.127 -0.3037  0.6312  0.3262
  173SAPS   H6X19707   3.052   3.539   3.202 -1.9099  1.2048  0.0116
  173SAPS   H6Y19708   3.128   3.391   3.133 -0.3024  0.5968 -0.0056
  173SAPS   C3719709   2.922   3.372   3.166 -0.4741  0.3714  0.2028
  173SAPS   H7X19710   2.886   3.299   3.091  0.1467 -0.1046  0.3614
  173SAPS   H7Y19711   2.831   3.431   3.191 -1.8027 -1.5450  0.0707
  173SAPS   C3819712   2.964   3.286   3.290  0.1991 -0.3017  0.2056
  173SAPS   H8X19713   3.054   3.224   3.268 -0.7175 -0.8302 -2.4888
  173SAPS   H8Y19714   2.880   3.213   3.294 -2.3425  2.2708 -1.9060
  173SAPS   C3919715   2.953   3.356   3.419  0.0835 -0.0258 -0.8583
  173SAPS   H9X19716   2.846   3.381   3.431  0.2414  0.3721 -0.1916
  173SAPS   H9Y19717   3.019   3.446   3.422  0.1895 -0.1148  1.7008
  173SAPS  C31019718   3.004   3.262   3.537  0.5435  0.1487  0.0260
  173SAPS  H10X19719   3.107   3.227   3.515  0.1307 -1.8712  1.0408
  173SAPS  H10Y19720   2.943   3.169   3.535  1.7739 -0.6800 -0.2044
  173SAPS  C31119721   3.003   3.337   3.670 -0.3613 -0.0976  0.2936
  173SAPS  H11X19722   2.922   3.412   3.687  1.2059  2.0062 -1.0070
  173SAPS  H11Y19723   3.094   3.401   3.661 -1.1802  1.0615  0.0118
  173SAPS  C31219724   3.015   3.244   3.791  0.5332 -0.4331  0.6584
  173SAPS  H12X19725   3.093   3.167   3.771 -0.7009 -0.9208 -3.0370
  173SAPS  H12Y19726   2.923   3.182   3.790  1.5174 -2.1250 -3.3705
  173SAPS  C31319727   3.040   3.319   3.918 -0.5836 -0.1855 -0.5348
  173SAPS  H13X19728   2.960   3.395   3.935 -0.3702  0.6669 -2.9628
  173SAPS  H13Y19729   3.138   3.369   3.933 -0.9871  0.2261  1.0069
  173SAPS  C31419730   3.028   3.211   4.032 -0.1865 -0.0869 -0.6198
  173SAPS  H14X19731   3.099   3.127   4.019 -0.3110 -0.4435  0.7833
  173SAPS  H14Y19732   2.928   3.166   4.045 -0.4316  1.0946  2.6176
  173SAPS  C31519733   3.043   3.286   4.169  0.0227  0.5068  0.2097
  173SAPS  H15X19734   2.967   3.366   4.160  0.8523  1.1777 -1.2038
  173SAPS  H15Y19735   3.136   3.348   4.162 -1.1937  2.3173 -0.6434
  173SAPS  C31619736   3.029   3.203   4.290  0.4692  0.1047 -0.1381
  173SAPS  H16X19737   2.925   3.163   4.289  1.0466 -1.4635 -0.6894
  173SAPS  H16Y19738   3.025   3.262   4.384 -1.2858  1.6368 -1.1183
  173SAPS  C31719739   3.130   3.090   4.306 -0.0949 -0.2147 -0.1900
  173SAPS  H17X19740   3.231   3.129   4.282  1.0180 -2.7439  0.0547
  173SAPS  H17Y19741   3.105   3.015   4.227 -1.0966  0.3526 -0.4211
  173SAPS  C31819742   3.120   3.024   4.442  0.5297 -0.4116  0.0241
  173SAPS  H18X19743   3.223   2.991   4.465  0.3209 -2.1561 -1.2511
  173SAPS  H18Y19744   3.053   2.936   4.427 -1.4719  1.1244 -0.4004
  173SAPS  H18Z19745   3.083   3.088   4.524  1.6703  0.4730 -0.1376
  174SAPS     N19746   3.641   0.839   2.247  0.1164 -0.1185 -0.7335
  174SAPS   HN119747   3.705   0.819   2.168 -0.1936 -0.4066 -0.9157
  174SAPS   HN219748   3.655   0.764   2.318  2.2745  0.9937  0.1112
  174SAPS   HN319749   3.544   0.835   2.210 -0.2153 -1.0663  0.1837
  174SAPS   C1219750   3.654   0.979   2.300  0.2025 -0.0661 -0.1415
  174SAPS  H12A19751   3.576   0.998   2.372 -0.1493  0.3901 -0.6343
  174SAPS   C1319752   3.790   1.007   2.367 -0.1494 -0.1478 -0.3705
  174SAPS  O13A19753   3.877   0.916   2.372 -0.6487  0.5624 -0.2328
  174SAPS  O13B19754   3.805   1.117   2.425 -0.4004  0.4338 -0.0654
  174SAPS   C1119755   3.644   1.071   2.177 -0.1524  0.7448 -0.4627
  174SAPS  H11A19756   3.731   1.045   2.112 -0.6412 -1.7329 -0.2275
  174SAPS  H11B19757   3.675   1.174   2.205  0.6147  0.0410  1.4556
  174SAPS     P19758   3.437   1.167   2.036  0.2495 -0.1540 -0.0851
  174SAPS   O1319759   3.518   1.287   2.028  0.1067  0.2742  0.0179
  174SAPS   O1419760   3.381   1.113   1.909  0.0786  1.2836  0.4619
  174SAPS   O1219761   3.520   1.055   2.103 -0.0955 -1.0167  0.0213
  174SAPS   O1119762   3.320   1.179   2.137  0.1612  0.0258 -0.6035
  174SAPS    C119763   3.338   1.261   2.257 -0.3668  0.5135  0.3178
  174SAPS    HA19764   3.413   1.221   2.328 -1.6406 -0.4046  1.1903
  174SAPS    HB19765   3.372   1.362   2.226  1.6232 -0.5610 -1.1753
  174SAPS    C219766   3.207   1.285   2.331  0.0185  0.3064 -0.2260
  174SAPS    HS19767   3.229   1.334   2.429 -2.3904  1.3060 -0.1224
  174SAPS   O2119768   3.158   1.152   2.354 -0.3296 -0.7933 -0.3760
  174SAPS   C2119769   3.211   1.079   2.459  0.0006 -0.3861  0.2014
  174SAPS   O2219770   3.291   1.122   2.540  0.0978 -0.5752  0.2574
  174SAPS   C2219771   3.167   0.936   2.458 -0.0400  0.4075  0.2383
  174SAPS   H2R19772   3.056   0.926   2.461  0.1681 -3.8586  0.5860
  174SAPS   H2S19773   3.204   0.879   2.370 -2.8645 -0.6677 -0.3800
  174SAPS    C319774   3.094   1.362   2.252  0.3402 -0.4096 -0.1186
  174SAPS    HX19775   3.074   1.313   2.155 -0.6793 -3.1825  1.3749
  174SAPS    HY19776   3.141   1.462   2.236  1.1812 -0.6685  0.6659
  174SAPS   O3119777   2.979   1.380   2.334  0.2542 -0.3947 -0.8514
  174SAPS   C3119778   2.875   1.293   2.323  0.3059 -0.5220  0.1515
  174SAPS   O3219779   2.871   1.209   2.236 -0.2431 -0.0567 -0.5446
  174SAPS   C3219780   2.771   1.312   2.431 -0.2717  0.6315 -0.2852
  174SAPS   H2X19781   2.676   1.330   2.376 -1.7101 -1.8040  1.2122
  174SAPS   H2Y19782   2.783   1.396   2.503 -2.0708  0.1099  0.6953
  174SAPS   C2319783   3.221   0.864   2.583  0.1884 -0.7954 -0.5100
  174SAPS   H3R19784   3.330   0.885   2.585 -0.2487  1.8470  0.7976
  174SAPS   H3S19785   3.211   0.754   2.573  2.2667 -1.0332 -0.3605
  174SAPS   C2419786   3.158   0.902   2.715  0.1488  0.1352  0.0487
  174SAPS   H4R19787   3.049   0.877   2.710  0.0162 -0.5928  3.6386
  174SAPS   H4S19788   3.168   1.012   2.721 -0.2793  0.2106 -0.5113
  174SAPS   C2519789   3.219   0.849   2.840 -0.1444 -0.2814 -0.2727
  174SAPS   H5R19790   3.276   0.755   2.833 -0.0978 -0.3068  0.3538
  174SAPS   C2619791   3.204   0.904   2.962  0.4741  0.2715  0.3053
  174SAPS   H6R19792   3.252   0.854   3.047 -0.6749 -0.2543  0.6492
  174SAPS   C2719793   3.144   1.037   3.007 -0.6384  0.5076 -0.2668
  174SAPS   H7R19794   3.100   1.015   3.106 -0.9114 -1.2996 -0.7503
  174SAPS   H7S19795   3.051   1.048   2.948 -2.3694  0.4932  2.3159
  174SAPS   C2819796   3.223   1.161   2.988  0.3483 -0.0604 -0.6192
  174SAPS   H8R19797   3.225   1.199   2.885  1.3373 -0.9123 -0.9321
  174SAPS   C2919798   3.291   1.229   3.088 -0.2712 -0.6951 -0.1157
  174SAPS   H9R19799   3.354   1.312   3.054 -0.9505 -1.2693 -3.0469
  174SAPS  C21019800   3.309   1.202   3.229  0.1295  1.0597  0.2717
  174SAPS  H10R19801   3.414   1.227   3.258  0.1131  3.3092 -1.3233
  174SAPS  H10S19802   3.307   1.091   3.231 -1.0042  1.0280 -1.1831
  174SAPS  C21119803   3.204   1.257   3.325  0.5078 -0.0883 -0.3518
  174SAPS  H11R19804   3.195   1.367   3.332  0.7476 -0.0105 -1.1331
  174SAPS  C21219805   3.117   1.187   3.403  0.8234 -0.0796  0.2867
  174SAPS  H12R19806   3.041   1.243   3.460  0.7661  0.4225 -0.2786
  174SAPS  C21319807   3.093   1.032   3.409  0.0369 -0.4315  0.3210
  174SAPS  H13R19808   3.135   0.967   3.329  2.9191  0.2631  1.1851
  174SAPS  H13S19809   2.982   1.021   3.399  0.2381 -1.2431 -1.5661
  174SAPS  C21419810   3.122   0.983   3.547 -0.3201 -0.5777  0.1445
  174SAPS  H14R19811   3.225   1.000   3.584 -0.9210  0.7448  1.2836
  174SAPS  C21519812   3.030   0.957   3.647 -0.2101  0.5307  0.9068
  174SAPS  H15R19813   3.063   0.941   3.751 -1.2514  0.7068  1.2749
  174SAPS  C21619814   2.881   0.968   3.630  1.4497 -0.0285 -0.0279
  174SAPS  H16R19815   2.833   0.870   3.612 -0.4411  0.8373  0.0381
  174SAPS  H16S19816   2.855   1.028   3.540  0.1327  1.4671  1.2626
  174SAPS  C21719817   2.801   1.027   3.747 -0.4575 -0.2941 -0.1972
  174SAPS  H17R19818   2.698   1.045   3.709 -0.2967  1.1545  0.0083
  174SAPS  H17S19819   2.849   1.125   3.764 -0.3511 -0.5102  0.8760
  174SAPS  C21819820   2.785   0.941   3.874  0.1762  0.2334 -0.4516
  174SAPS  H18R19821   2.883   0.901   3.908 -0.1552 -1.6594 -1.5866
  174SAPS  H18S19822   2.719   0.854   3.856 -1.2262 -0.1214  4.7311
  174SAPS  C21919823   2.726   1.027   3.983 -0.0558 -0.0033 -0.8317
  174SAPS  H19R19824   2.634   1.083   3.954 -0.5861 -0.8437 -0.8196
  174SAPS  H19S19825   2.805   1.103   3.999 -0.4238  0.9038 -2.8629
  174SAPS  C22019826   2.697   0.947   4.108  0.0844  0.0813 -0.1906
  174SAPS  H20R19827   2.657   0.848   4.077  2.1765 -0.7334 -0.4548
  174SAPS  H20S19828   2.621   0.993   4.175 -0.4851 -0.1848 -0.6388
  174SAPS  H20T19829   2.796   0.934   4.156 -0.6333 -0.6209  1.1719
  174SAPS   C3319830   2.760   1.184   2.521 -0.0339  0.2278  0.1452
  174SAPS   H3X19831   2.746   1.097   2.452 -1.8307  0.1594  0.5497
  174SAPS   H3Y19832   2.665   1.181   2.578 -0.7001 -4.2143 -0.8086
  174SAPS   C3419833   2.883   1.158   2.609  0.4743 -0.3628 -0.5357
  174SAPS   H4X19834   2.968   1.185   2.543  0.6774 -0.3167 -0.2596
  174SAPS   H4Y19835   2.889   1.049   2.629 -0.7356 -0.3624 -0.0857
  174SAPS   C3519836   2.878   1.237   2.742 -0.2163 -0.1036  0.5491
  174SAPS   H5X19837   2.858   1.343   2.716  2.4804  0.5054  0.6273
  174SAPS   H5Y19838   2.978   1.239   2.792  1.1415 -0.5026 -2.0078
  174SAPS   C3619839   2.788   1.183   2.852 -0.8164 -0.0966 -0.1231
  174SAPS   H6X19840   2.814   1.080   2.884 -1.5037 -0.0630  0.5631
  174SAPS   H6Y19841   2.681   1.193   2.825 -0.9330  0.8741  0.6228
  174SAPS   C3719842   2.803   1.263   2.989  0.3488  0.0420  0.4827
  174SAPS   H7X19843   2.779   1.371   2.975  0.4899  0.0662  0.4259
  174SAPS   H7Y19844   2.911   1.260   3.016  0.0357  0.4437  1.8548
  174SAPS   C3819845   2.717   1.203   3.102 -0.4764  0.2248 -0.1513
  174SAPS   H8X19846   2.733   1.094   3.103 -1.0346  0.1242  1.1762
  174SAPS   H8Y19847   2.609   1.220   3.082 -0.6747 -0.2337  0.4689
  174SAPS   C3919848   2.760   1.266   3.236  0.2650  0.1373  1.0598
  174SAPS   H9X19849   2.786   1.373   3.222 -1.4063  0.6238  1.4990
  174SAPS   H9Y19850   2.859   1.224   3.264  1.6676  2.3969 -0.2378
  174SAPS  C31019851   2.646   1.252   3.338 -1.1033  0.0247 -0.1607
  174SAPS  H10X19852   2.607   1.150   3.357  0.8484 -0.5852  0.8724
  174SAPS  H10Y19853   2.560   1.308   3.295  0.1248  1.0338 -1.3979
  174SAPS  C31119854   2.668   1.322   3.475 -0.8924  0.8451  0.0048
  174SAPS  H11X19855   2.686   1.430   3.458  0.3938  0.5553 -0.6119
  174SAPS  H11Y19856   2.765   1.286   3.517 -1.1322 -0.7609 -0.7404
  174SAPS  C31219857   2.559   1.297   3.570  0.6063  0.8223 -0.2782
  174SAPS  H12X19858   2.569   1.190   3.599  1.8737  1.8075  3.4224
  174SAPS  H12Y19859   2.464   1.327   3.522  0.2420 -0.9497 -0.7650
  174SAPS  C31319860   2.578   1.382   3.699  0.0169  0.1486 -0.2632
  174SAPS  H13X19861   2.557   1.490   3.682 -1.3516  0.6445  3.4198
  174SAPS  H13Y19862   2.686   1.361   3.715  0.1963 -0.1745 -1.7627
  174SAPS  C31419863   2.484   1.346   3.813  0.3873  0.3798 -0.5324
  174SAPS  H14X19864   2.513   1.247   3.855  0.0438  1.0407  1.3618
  174SAPS  H14Y19865   2.380   1.340   3.772  1.4749 -0.6717 -3.3736
  174SAPS  C31519866   2.482   1.452   3.928 -0.7707 -0.0102  1.0211
  174SAPS  H15X19867   2.408   1.527   3.895 -1.8589 -1.6045 -0.3075
  174SAPS  H15Y19868   2.586   1.491   3.933 -0.6296 -0.1625 -0.3576
  174SAPS  C31619869   2.456   1.389   4.063 -0.4523  0.1714 -0.0529
  174SAPS  H16X19870   2.467   1.464   4.145 -2.7728 -0.9309  1.3622
  174SAPS  H16Y19871   2.543   1.326   4.091 -0.9087 -1.6355 -2.4034
  174SAPS  C31719872   2.328   1.308   4.084  0.8079 -0.6649 -0.4591
  174SAPS  H17X19873   2.331   1.229   4.006 -0.9636 -0.1302 -1.0994
  174SAPS  H17Y19874   2.249   1.385   4.072  0.0612 -1.5522 -1.4364
  174SAPS  C31819875   2.321   1.249   4.228 -0.0739  0.1483 -0.0444
  174SAPS  H18X19876   2.408   1.181   4.242 -0.5994 -0.6627 -0.6137
  174SAPS  H18Y19877   2.230   1.190   4.251 -0.4080  0.8524  0.4580
  174SAPS  H18Z19878   2.313   1.331   4.302 -0.3048 -0.0508  0.1514
  175SAPS     N19879   5.321   2.872   2.079 -0.3315 -0.2566 -0.0559
  175SAPS   HN119880   5.217   2.868   2.074 -0.3622 -3.9761  0.7897
  175SAPS   HN219881   5.344   2.949   2.144 -0.9607 -2.0982  2.4994
  175SAPS   HN319882   5.355   2.882   1.981 -1.7662  0.1408 -0.5399
  175SAPS   C1219883   5.362   2.738   2.131 -0.5016 -0.8989  0.7018
  175SAPS  H12A19884   5.308   2.719   2.222 -2.5661 -0.7580 -0.4311
  175SAPS   C1319885   5.354   2.631   2.026  0.6214  0.0412 -0.2583
  175SAPS  O13A19886   5.283   2.656   1.923  0.5215 -0.2266  0.3527
  175SAPS  O13B19887   5.399   2.514   2.045  0.2637  0.2728 -0.1109
  175SAPS   C1119888   5.511   2.745   2.172 -0.5057 -0.0977 -0.1768
  175SAPS  H11A19889   5.580   2.755   2.085  1.0386 -2.0535  0.7566
  175SAPS  H11B19890   5.537   2.647   2.216 -0.2958 -0.9059 -2.0188
  175SAPS     P19891   5.660   2.928   2.286  0.1558 -0.5674 -0.1133
  175SAPS   O1319892   5.765   2.891   2.193 -0.5879 -0.1824  0.1812
  175SAPS   O1419893   5.629   3.076   2.282 -1.0141  0.1298 -0.3726
  175SAPS   O1219894   5.526   2.840   2.270  0.5443  0.4323 -0.4465
  175SAPS   O1119895   5.694   2.876   2.433 -0.1388  1.0845 -0.3350
  175SAPS    C119896   5.761   2.748   2.453  0.1307 -0.9890  0.0660
  175SAPS    HA19897   5.693   2.668   2.418 -1.6880  1.5084 -2.6199
  175SAPS    HB19898   5.852   2.754   2.390  1.3293 -1.7050  1.6629
  175SAPS    C219899   5.801   2.723   2.600  0.0468 -0.7487 -0.1816
  175SAPS    HS19900   5.862   2.630   2.603 -0.9454 -1.4066  0.0799
  175SAPS   O2119901   5.686   2.731   2.684 -0.0094  0.4898 -0.3877
  175SAPS   C2119902   5.682   2.629   2.771  0.6254 -0.0813  0.3188
  175SAPS   O2219903   5.758   2.533   2.777  0.0169  0.0386  0.2683
  175SAPS   C2219904   5.553   2.645   2.861 -0.0410 -0.2344  0.8748
  175SAPS   H2R19905   5.536   2.745   2.907 -1.1678 -0.0271  0.0620
  175SAPS   H2S19906   5.461   2.623   2.803 -0.2480 -1.0616  1.5052
  175SAPS    C319907   5.887   2.834   2.654  1.1996  0.8027  0.4434
  175SAPS    HX19908   5.825   2.925   2.641 -0.0683  0.0149  0.8432
  175SAPS    HY19909   5.983   2.855   2.602  0.6211  0.8515 -0.6436
  175SAPS   O3119910   5.910   2.823   2.794  0.4804 -0.2811  0.1339
  175SAPS   C3119911   6.017   2.746   2.819  0.3714  0.4700 -0.7014
  175SAPS   O3219912   6.091   2.687   2.743 -0.5847  0.3012 -0.0747
  175SAPS   C3219913   6.037   2.740   2.973  0.2038  0.9615  0.6620
  175SAPS   H2X19914   6.145   2.720   2.989  0.0453 -0.6876 -0.1414
  175SAPS   H2Y19915   5.975   2.650   2.995 -2.4711  1.8518 -2.3224
  175SAPS   C2319916   5.558   2.544   2.980 -0.1046 -1.2176  0.3095
  175SAPS   H3R19917   5.593   2.448   2.937 -0.3095 -1.0420 -0.2661
  175SAPS   H3S19918   5.455   2.540   3.019  0.1471 -0.2243  1.1145
  175SAPS   C2419919   5.656   2.586   3.086 -0.7572 -0.6867  0.1628
  175SAPS   H4R19920   5.627   2.689   3.114 -1.0047 -0.1437 -1.9220
  175SAPS   H4S19921   5.754   2.581   3.034 -1.1430 -0.0841 -0.6366
  175SAPS   C2519922   5.659   2.483   3.201 -0.6717  0.7848  1.3158
  175SAPS   H5R19923   5.707   2.388   3.174  0.0582  1.1293  1.3838
  175SAPS   C2619924   5.615   2.493   3.318  0.1504 -0.1775 -0.3774
  175SAPS   H6R19925   5.629   2.416   3.395 -1.3191 -0.5562 -0.4578
  175SAPS   C2719926   5.541   2.613   3.376 -0.4676 -0.0782 -0.3062
  175SAPS   H7R19927   5.555   2.705   3.315  1.2774  0.2906  0.5800
  175SAPS   H7S19928   5.606   2.641   3.462 -0.6635 -2.0565  0.5324
  175SAPS   C2819929   5.401   2.588   3.424 -0.7156 -1.0656 -0.3106
  175SAPS   H8R19930   5.335   2.536   3.354 -1.7834  0.8072 -0.7748
  175SAPS   C2919931   5.352   2.612   3.543 -0.0875  0.1944 -0.1364
  175SAPS   H9R19932   5.249   2.581   3.569 -0.0711  0.6971  0.5820
  175SAPS  C21019933   5.412   2.676   3.662  0.0727 -0.4319 -0.3564
  175SAPS  H10R19934   5.345   2.757   3.698 -1.5101 -1.3803 -1.0820
  175SAPS  H10S19935   5.512   2.718   3.638 -0.5529  0.5797 -1.3012
  175SAPS  C21119936   5.428   2.571   3.773  0.3514 -0.2639 -0.1605
  175SAPS  H11R19937   5.344   2.580   3.843 -0.2136 -1.0508 -0.7187
  175SAPS  C21219938   5.526   2.484   3.799  1.1152  0.2002 -0.5242
  175SAPS  H12R19939   5.503   2.415   3.881  0.2585  1.1521  0.0614
  175SAPS  C21319940   5.642   2.455   3.713 -0.3065 -0.4458 -0.3917
  175SAPS  H13R19941   5.683   2.551   3.674 -0.3802  0.1641  0.9645
  175SAPS  H13S19942   5.601   2.394   3.630 -0.3126 -0.2197 -0.5576
  175SAPS  C21419943   5.760   2.392   3.783 -0.2370 -0.0291  0.3923
  175SAPS  H14R19944   5.741   2.331   3.873 -0.3746 -0.0081  0.3783
  175SAPS  C21519945   5.885   2.379   3.728 -0.1237 -0.1138 -0.2211
  175SAPS  H15R19946   5.965   2.332   3.786 -0.3179  1.0880  1.0782
  175SAPS  C21619947   5.926   2.434   3.596  0.1180 -0.0737  0.5135
  175SAPS  H16R19948   6.030   2.470   3.613 -0.2378  0.5098  1.5346
  175SAPS  H16S19949   5.864   2.518   3.558 -1.5037 -1.6951 -0.6257
  175SAPS  C21719950   5.935   2.327   3.483 -0.2433  0.1093 -0.0918
  175SAPS  H17R19951   5.832   2.297   3.452 -0.7271  1.2408  0.3666
  175SAPS  H17S19952   6.000   2.240   3.509  0.2470  0.8653  1.2842
  175SAPS  C21819953   6.001   2.398   3.367  0.2529 -0.0707  0.7051
  175SAPS  H18R19954   6.094   2.456   3.377 -0.0601  0.4104  0.8463
  175SAPS  H18S19955   5.929   2.474   3.329  1.4925  0.5250 -0.5410
  175SAPS  C21919956   6.008   2.306   3.242  0.0105 -0.2410  0.0211
  175SAPS  H19R19957   5.899   2.288   3.229  0.0595 -1.5530  1.1801
  175SAPS  H19S19958   6.058   2.207   3.251 -0.1737 -0.4097 -0.7327
  175SAPS  C22019959   6.066   2.376   3.121 -0.2348  0.2990 -0.2861
  175SAPS  H20R19960   6.069   2.313   3.030  4.4060  1.5612 -1.2717
  175SAPS  H20S19961   6.174   2.400   3.137  0.9349 -2.7382 -2.6157
  175SAPS  H20T19962   6.018   2.476   3.110  1.7630  1.2603 -0.7062
  175SAPS   C3319963   5.979   2.864   3.053  0.3635  0.3595  0.6090
  175SAPS   H3X19964   5.873   2.875   3.021  0.2183  0.7605  1.2088
  175SAPS   H3Y19965   6.034   2.953   3.016 -0.8918 -0.0562 -2.5312
  175SAPS   C3419966   5.984   2.848   3.205  0.4907 -0.9042  0.3062
  175SAPS   H4X19967   6.086   2.814   3.232  0.0632 -0.8240  2.1469
  175SAPS   H4Y19968   5.912   2.773   3.246 -1.4277  1.4778  1.5852
  175SAPS   C3519969   5.950   2.987   3.271  0.1767 -0.1210 -0.0817
  175SAPS   H5X19970   5.856   3.021   3.223  1.9053  1.4372 -2.5983
  175SAPS   H5Y19971   6.032   3.057   3.242 -0.5694  0.0496 -1.8885
  175SAPS   C3619972   5.941   2.985   3.424  0.0034  0.1644 -0.1001
  175SAPS   H6X19973   5.912   3.082   3.468 -1.7459 -1.7185  3.3151
  175SAPS   H6Y19974   6.046   2.972   3.459  1.0905  2.8740 -2.0571
  175SAPS   C3719975   5.860   2.887   3.498  0.7567  0.1844 -0.0119
  175SAPS   H7X19976   5.892   2.788   3.460  0.8608  1.3720 -3.3258
  175SAPS   H7Y19977   5.752   2.891   3.471  0.2218  0.4372  1.9828
  175SAPS   C3819978   5.860   2.911   3.646 -0.2069 -0.0387 -0.5287
  175SAPS   H8X19979   5.834   3.018   3.661 -1.1534 -0.3829  0.3256
  175SAPS   H8Y19980   5.966   2.908   3.681 -0.4966  3.1793  0.9909
  175SAPS   C3919981   5.760   2.824   3.725 -0.2514  0.2850 -0.2346
  175SAPS   H9X19982   5.803   2.722   3.717  0.7882  0.5944  0.9588
  175SAPS   H9Y19983   5.660   2.829   3.677  0.0808 -3.0028 -1.5426
  175SAPS  C31019984   5.748   2.851   3.878 -0.2938 -0.5472  0.8091
  175SAPS  H10X19985   5.675   2.786   3.931 -0.8739  1.0431  2.0435
  175SAPS  H10Y19986   5.719   2.956   3.898  2.3960  0.5649 -0.5234
  175SAPS  C31119987   5.883   2.838   3.948 -0.6671 -0.5582  0.3198
  175SAPS  H11X19988   5.875   2.855   4.057  3.0461 -0.7475  0.7622
  175SAPS  H11Y19989   5.937   2.931   3.922 -1.0556  0.1678  1.9638
  175SAPS  C31219990   5.960   2.702   3.935  0.2595 -0.3497  0.7045
  175SAPS  H12X19991   5.962   2.696   3.824 -3.0418  1.0448  0.4529
  175SAPS  H12Y19992   5.888   2.622   3.962 -0.0404 -0.3623 -0.1124
  175SAPS  C31319993   6.095   2.685   4.001  0.5647 -0.5592  0.1055
  175SAPS  H13X19994   6.097   2.737   4.099 -0.2067 -2.1481  1.0019
  175SAPS  H13Y19995   6.161   2.745   3.934  0.5185  2.6041  2.6266
  175SAPS  C31419996   6.140   2.536   3.999  0.3963 -0.9892 -0.2612
  175SAPS  H14X19997   6.251   2.532   3.995  0.5456 -0.1933  1.8477
  175SAPS  H14Y19998   6.097   2.489   3.908  0.4157 -0.6233 -0.4616
  175SAPS  C31519999   6.107   2.456   4.128  0.2228  0.0740 -0.3348
  175SAPS  H15X20000   6.113   2.529   4.211 -2.0500 -0.3794  0.3135
  175SAPS  H15Y20001   6.166   2.364   4.144 -1.1711 -0.6379  0.9609
  175SAPS  C31620002   5.960   2.413   4.124 -0.3882  0.3169 -0.1525
  175SAPS  H16X20003   5.939   2.339   4.043 -1.2152 -1.0428  1.2401
  175SAPS  H16Y20004   5.899   2.504   4.110 -0.9001  0.1092  0.6216
  175SAPS  C31720005   5.919   2.330   4.250  0.1902 -0.9208 -0.2295
  175SAPS  H17X20006   5.994   2.252   4.272  0.5826 -0.5487 -0.2217
  175SAPS  H17Y20007   5.837   2.265   4.214 -0.8762 -0.6144  1.5193
  175SAPS  C31820008   5.874   2.415   4.370  0.1859 -0.6910 -0.2160
  175SAPS  H18X20009   5.827   2.359   4.454  0.7649  0.1538  0.7003
  175SAPS  H18Y20010   5.785   2.477   4.347 -0.6530 -1.1329  1.6332
  175SAPS  H18Z20011   5.959   2.469   4.416 -0.5918 -0.3962  0.9300
  176SAPS     N20012   5.468   6.430   2.296  0.3539  0.4418 -0.6284
  176SAPS   HN120013   5.526   6.491   2.357  0.3884 -0.9450  0.8018
  176SAPS   HN220014   5.438   6.481   2.211 -0.0924  1.4304  0.1009
  176SAPS   HN320015   5.374   6.407   2.335  0.6259  1.1406  0.4827
  176SAPS   C1220016   5.549   6.309   2.290  0.5961 -0.8426  1.0889
  176SAPS  H12A20017   5.524   6.256   2.381 -3.3070 -0.3389  0.4880
  176SAPS   C1320018   5.519   6.219   2.164 -0.0855  0.3171  1.1682
  176SAPS  O13A20019   5.439   6.256   2.072 -0.1471  0.1208 -0.5115
  176SAPS  O13B20020   5.584   6.112   2.143 -0.1397 -0.2269 -0.4938
  176SAPS   C1120021   5.699   6.340   2.298  0.1465 -1.0200  0.0553
  176SAPS  H11A20022   5.732   6.398   2.209  0.1280 -0.3927  0.4509
  176SAPS  H11B20023   5.764   6.251   2.312  1.6307  0.0301  0.1463
  176SAPS     P20024   5.820   6.542   2.409  0.7729 -0.1927  0.4242
  176SAPS   O1320025   5.930   6.526   2.312  0.1850  0.2344  0.4945
  176SAPS   O1420026   5.746   6.668   2.389 -0.7177 -0.3460  0.5589
  176SAPS   O1220027   5.719   6.421   2.415 -0.4674  0.0628 -0.4637
  176SAPS   O1120028   5.875   6.531   2.553 -0.2482 -0.3326  0.7813
  176SAPS    C120029   5.917   6.409   2.623 -0.0088 -0.7008  0.2867
  176SAPS    HA20030   5.870   6.321   2.575 -0.7711 -0.8190  1.2164
  176SAPS    HB20031   6.028   6.408   2.627  0.1451  1.8922 -0.9623
  176SAPS    C220032   5.855   6.406   2.768 -0.6779  0.6662  0.2656
  176SAPS    HS20033   5.864   6.505   2.819 -1.3559 -0.1420  2.0085
  176SAPS   O2120034   5.909   6.298   2.852  0.3592  0.0301 -0.2932
  176SAPS   C2120035   6.038   6.326   2.899  0.4418 -0.3289 -0.7847
  176SAPS   O2220036   6.089   6.436   2.875 -0.2279 -0.2534  0.2904
  176SAPS   C2220037   6.089   6.219   2.994 -0.9395 -0.3527 -0.7458
  176SAPS   H2R20038   5.997   6.172   3.033  0.0821 -0.1086  2.1789
  176SAPS   H2S20039   6.132   6.136   2.934  0.8544 -1.4011  1.8423
  176SAPS    C320040   5.702   6.379   2.751 -1.1643  0.2898 -0.0850
  176SAPS    HX20041   5.692   6.276   2.713  1.1013  0.4739 -1.3746
  176SAPS    HY20042   5.666   6.448   2.671  2.6725  1.6768 -0.8382
  176SAPS   O3120043   5.632   6.401   2.876  0.1253 -0.3011  0.7499
  176SAPS   C3120044   5.599   6.525   2.898  0.1068 -0.0015  0.0413
  176SAPS   O3220045   5.624   6.619   2.826 -0.2675 -0.2877  0.1128
  176SAPS   C3220046   5.547   6.524   3.042  0.2868 -0.1160  0.1343
  176SAPS   H2X20047   5.520   6.418   3.061  1.3416 -0.7742 -1.7569
  176SAPS   H2Y20048   5.461   6.593   3.052 -0.2555 -0.8473  0.6092
  176SAPS   C2320049   6.185   6.260   3.101 -0.4596  0.6126 -0.4129
  176SAPS   H3R20050   6.265   6.321   3.055 -0.3345 -0.3674 -1.5354
  176SAPS   H3S20051   6.234   6.164   3.128  0.6201  1.5447  1.0951
  176SAPS   C2420052   6.134   6.336   3.222 -0.0461  0.3343  0.2311
  176SAPS   H4R20053   6.098   6.436   3.190 -0.0627  0.2739  0.0583
  176SAPS   H4S20054   6.212   6.366   3.296 -0.2556  0.6945  0.3063
  176SAPS   C2520055   6.024   6.259   3.297 -0.6045 -0.1588  0.1208
  176SAPS   H5R20056   5.943   6.221   3.232 -1.6917 -0.4178  1.5766
  176SAPS   C2620057   6.027   6.216   3.426 -0.0011  0.2220  0.0214
  176SAPS   H6R20058   5.952   6.142   3.459  0.2401  0.1591  0.4380
  176SAPS   C2720059   6.135   6.260   3.524 -0.0066  0.7069 -0.0873
  176SAPS   H7R20060   6.189   6.352   3.495 -0.0243  0.3553 -1.2896
  176SAPS   H7S20061   6.216   6.185   3.533  0.1982  1.0030  0.5749
  176SAPS   C2820062   6.076   6.274   3.664  0.6429 -0.0716 -0.7083
  176SAPS   H8R20063   5.970   6.304   3.669  1.0071  1.3578 -1.1612
  176SAPS   C2920064   6.143   6.268   3.775  0.1434  0.1413 -0.6093
  176SAPS   H9R20065   6.092   6.282   3.871  1.3699  0.1317  0.0660
  176SAPS  C21020066   6.283   6.212   3.793  0.4268  0.1048 -0.0716
  176SAPS  H10R20067   6.321   6.263   3.884 -0.9816  2.5580 -0.7547
  176SAPS  H10S20068   6.345   6.257   3.712 -1.3634  2.6608 -0.1660
  176SAPS  C21120069   6.275   6.058   3.818 -0.2426 -0.2186 -0.5627
  176SAPS  H11R20070   6.293   6.000   3.726 -0.7974 -0.4011 -0.5611
  176SAPS  C21220071   6.252   5.986   3.929 -1.2845  0.1889 -0.2199
  176SAPS  H12R20072   6.256   5.876   3.929  1.2075  0.1908  1.2535
  176SAPS  C21320073   6.223   6.058   4.060 -0.2848 -0.5543  0.3410
  176SAPS  H13R20074   6.129   6.010   4.096 -1.3067 -0.6024 -2.1853
  176SAPS  H13S20075   6.206   6.167   4.047 -2.8982 -1.1340 -2.2158
  176SAPS  C21420076   6.333   6.033   4.164 -0.1375  0.0441  0.3647
  176SAPS  H14R20077   6.432   6.011   4.123 -0.3486  0.5030 -0.4252
  176SAPS  C21520078   6.325   6.050   4.295 -0.1004  0.1602 -0.3101
  176SAPS  H15R20079   6.416   6.035   4.355  0.4949 -1.4859 -1.5729
  176SAPS  C21620080   6.203   6.111   4.365 -0.1215  0.1821 -0.4410
  176SAPS  H16R20081   6.155   6.184   4.296 -0.9668  0.0922  0.0395
  176SAPS  H16S20082   6.223   6.178   4.451 -1.1100 -0.3845  0.2564
  176SAPS  C21720083   6.117   5.997   4.405  0.6825  0.4365 -0.6875
  176SAPS  H17R20084   6.172   5.925   4.468 -0.9299 -0.3877 -0.1457
  176SAPS  H17S20085   6.078   5.940   4.318 -0.2321  0.3475 -0.2321
  176SAPS  C21820086   6.002   6.025   4.503  0.2057  0.0312  0.5501
  176SAPS  H18R20087   6.036   6.117   4.553  1.8356 -0.2068 -0.0602
  176SAPS  H18S20088   5.992   5.941   4.575 -1.1460 -1.2970 -1.0759
  176SAPS  C21920089   5.872   6.052   4.430  0.4357  0.2396 -0.4539
  176SAPS  H19R20090   5.819   5.955   4.415 -0.2837  0.0799  2.5820
  176SAPS  H19S20091   5.894   6.080   4.325 -0.8992 -0.1841 -0.8637
  176SAPS  C22020092   5.799   6.146   4.520  0.3698  0.1068 -0.1150
  176SAPS  H20R20093   5.873   6.227   4.533  3.3554 -2.1623 -1.6323
  176SAPS  H20S20094   5.789   6.097   4.619 -0.2112 -0.7796 -0.5900
  176SAPS  H20T20095   5.705   6.177   4.469  0.3491  0.0791 -0.0939
  176SAPS   C3320096   5.656   6.566   3.147  0.3237 -0.1656 -0.5813
  176SAPS   H3X20097   5.726   6.648   3.118  1.9033 -1.0420  0.6002
  176SAPS   H3Y20098   5.714   6.471   3.149 -2.2125 -1.8076 -0.1827
  176SAPS   C3420099   5.587   6.597   3.277 -0.4596 -0.0958 -0.2986
  176SAPS   H4X20100   5.492   6.540   3.291 -1.0306  0.8722 -0.1230
  176SAPS   H4Y20101   5.562   6.705   3.272 -3.0888 -0.6639 -3.7403
  176SAPS   C3520102   5.669   6.544   3.407 -0.8661  0.5196 -0.1587
  176SAPS   H5X20103   5.741   6.464   3.377  4.0774  5.0471 -1.9707
  176SAPS   H5Y20104   5.590   6.509   3.477 -0.5497  0.2918  0.0888
  176SAPS   C3620105   5.752   6.642   3.482  0.2939  0.1288 -0.3010
  176SAPS   H6X20106   5.698   6.735   3.511  1.1327  0.9040 -1.1570
  176SAPS   H6Y20107   5.820   6.682   3.404  1.3221 -2.7025 -0.9880
  176SAPS   C3720108   5.838   6.595   3.602  0.1569  0.3125 -0.2885
  176SAPS   H7X20109   5.899   6.686   3.619 -1.3586  1.5431 -1.1448
  176SAPS   H7Y20110   5.899   6.503   3.590  0.5375  0.4574  0.4776
  176SAPS   C3820111   5.761   6.597   3.736  0.1395  0.7637 -0.3037
  176SAPS   H8X20112   5.657   6.559   3.729  0.7301 -1.5620  1.8219
  176SAPS   H8Y20113   5.733   6.701   3.761 -1.4281  0.3551 -0.2769
  176SAPS   C3920114   5.842   6.538   3.851 -0.0657 -0.2150  0.0900
  176SAPS   H9X20115   5.934   6.597   3.870  1.5534 -1.8331 -2.2179
  176SAPS   H9Y20116   5.880   6.436   3.827 -0.1885 -0.7391  1.9384
  176SAPS  C31020117   5.760   6.532   3.981 -0.5967  0.6104 -0.0237
  176SAPS  H10X20118   5.662   6.488   3.952  0.2924  0.4560 -3.1429
  176SAPS  H10Y20119   5.739   6.634   4.020 -0.9488  0.8192 -0.7496
  176SAPS  C31120120   5.845   6.447   4.078 -0.0334  0.6017  0.5643
  176SAPS  H11X20121   5.889   6.353   4.037  2.0085  1.7566 -0.0709
  176SAPS  H11Y20122   5.767   6.416   4.150 -1.8101  1.8654 -0.7259
  176SAPS  C31220123   5.955   6.520   4.155  0.1269  0.0421  0.1457
  176SAPS  H12X20124   5.920   6.622   4.180 -2.4558 -0.3164 -1.5455
  176SAPS  H12Y20125   6.041   6.529   4.085 -1.8071 -3.3557 -3.0500
  176SAPS  C31320126   6.023   6.451   4.278  0.4122  0.0334 -0.1952
  176SAPS  H13X20127   6.083   6.360   4.259  1.4775  0.7110 -0.1650
  176SAPS  H13Y20128   5.937   6.410   4.336 -2.1493  4.8667 -0.0527
  176SAPS  C31420129   6.115   6.541   4.356  0.3733 -0.1214  0.0495
  176SAPS  H14X20130   6.052   6.623   4.397 -2.2641 -1.2965 -1.3810
  176SAPS  H14Y20131   6.193   6.576   4.286 -0.2805  0.1300 -0.5699
  176SAPS  C31520132   6.191   6.475   4.467  0.3713  0.3193  0.4192
  176SAPS  H15X20133   6.248   6.389   4.426 -2.1085 -1.8719  1.3125
  176SAPS  H15Y20134   6.120   6.447   4.548  0.1212  4.2531  1.7759
  176SAPS  C31620135   6.289   6.581   4.523 -0.3165  0.7147 -0.0043
  176SAPS  H16X20136   6.237   6.680   4.527  0.0635  0.8819  2.4252
  176SAPS  H16Y20137   6.368   6.585   4.446  0.9161  0.4344  1.2115
  176SAPS  C31720138   6.354   6.550   4.657 -0.4103  0.2540  0.5877
  176SAPS  H17X20139   6.441   6.618   4.669 -0.8021  1.0525 -0.8769
  176SAPS  H17Y20140   6.393   6.446   4.650 -2.7038 -0.7282  1.5241
  176SAPS  C31820141   6.255   6.548   4.774 -0.6567  0.0159  0.0018
  176SAPS  H18X20142   6.225   6.654   4.790  2.2361  0.7964  0.8514
  176SAPS  H18Y20143   6.305   6.524   4.870  1.1835  1.1483 -0.6211
  176SAPS  H18Z20144   6.162   6.491   4.752  0.1542 -0.9940 -0.8586
  177SAPS     N20145   1.305   2.459   2.096 -0.1106 -0.3121 -0.3816
  177SAPS   HN120146   1.362   2.387   2.145  0.2634 -0.1232 -0.5379
  177SAPS   HN220147   1.260   2.410   2.016 -0.8218 -1.6520  0.7848
  177SAPS   HN320148   1.368   2.536   2.064  0.1542  0.5797  2.0964
  177SAPS   C1220149   1.190   2.508   2.177  0.3032 -0.5087 -0.5506
  177SAPS  H12A20150   1.232   2.581   2.245  3.3485 -1.9603 -0.7072
  177SAPS   C1320151   1.090   2.583   2.089 -0.4617 -0.2161  0.5805
  177SAPS  O13A20152   1.100   2.575   1.962  0.1432 -0.7460 -0.3702
  177SAPS  O13B20153   0.986   2.627   2.144 -0.1432  0.1476  0.1039
  177SAPS   C1120154   1.132   2.391   2.261 -0.4086  0.5834  0.4305
  177SAPS  H11A20155   1.088   2.313   2.195  0.8457 -1.0526  1.4696
  177SAPS  H11B20156   1.040   2.422   2.314 -1.7627 -3.9527  1.0949
  177SAPS     P20157   1.247   2.400   2.504 -0.3149  0.2277 -0.0050
  177SAPS   O1320158   1.349   2.319   2.570  0.2955 -0.2414  0.3954
  177SAPS   O1420159   1.284   2.544   2.487 -0.1894  0.2381  0.7576
  177SAPS   O1220160   1.219   2.333   2.360  0.0060  0.3243 -0.3082
  177SAPS   O1120161   1.109   2.399   2.573  0.5962  0.8329  0.2535
  177SAPS    C120162   1.046   2.278   2.612 -0.2263 -1.0210  0.0632
  177SAPS    HA20163   0.982   2.265   2.522  0.5880  3.7745 -1.4777
  177SAPS    HB20164   1.112   2.191   2.635  0.6150 -0.3249  0.3384
  177SAPS    C220165   0.948   2.305   2.730 -0.5186  0.0033  0.6903
  177SAPS    HS20166   0.874   2.381   2.697  0.1313 -0.0386 -0.9749
  177SAPS   O2120167   1.012   2.358   2.846 -0.7200 -0.0604 -0.0464
  177SAPS   C2120168   1.122   2.306   2.907  0.3415 -0.1821 -0.2624
  177SAPS   O2220169   1.192   2.213   2.868 -0.1788  1.0068 -0.6718
  177SAPS   C2220170   1.140   2.377   3.039 -0.0963 -0.0139  0.6557
  177SAPS   H2R20171   1.106   2.478   3.006  0.4665 -0.5354 -1.6647
  177SAPS   H2S20172   1.063   2.339   3.110 -0.8747 -0.0418 -0.1908
  177SAPS    C320173   0.852   2.191   2.782  0.1434 -0.3530 -0.3840
  177SAPS    HX20174   0.815   2.142   2.689 -1.5739 -0.6177  0.3985
  177SAPS    HY20175   0.766   2.238   2.835  2.6061  2.9130  1.0535
  177SAPS   O3120176   0.914   2.090   2.867  0.2808  0.6762 -0.0071
  177SAPS   C3120177   0.980   1.995   2.805  0.7011 -0.4483 -0.0941
  177SAPS   O3220178   0.978   1.972   2.686  0.0490  0.7760  0.4440
  177SAPS   C3220179   1.068   1.931   2.913 -0.1542 -0.5478 -0.1725
  177SAPS   H2X20180   1.061   1.987   3.008  1.1687 -1.8278  0.7191
  177SAPS   H2Y20181   1.174   1.938   2.882  0.0542  1.4441  0.8716
  177SAPS   C2320182   1.284   2.362   3.094  0.1460  0.1393  0.3595
  177SAPS   H3R20183   1.341   2.442   3.042  0.2968  1.0816  1.9058
  177SAPS   H3S20184   1.331   2.265   3.064 -0.6426  0.0171 -0.5394
  177SAPS   C2420185   1.292   2.383   3.244 -0.4192  0.2157 -0.1659
  177SAPS   H4R20186   1.253   2.481   3.277  1.5032  1.2702 -0.8687
  177SAPS   H4S20187   1.400   2.384   3.270  0.1094  2.0837 -2.1632
  177SAPS   C2520188   1.231   2.264   3.316  0.2871 -0.5854 -0.1910
  177SAPS   H5R20189   1.139   2.222   3.274  1.0913 -1.8354 -0.7617
  177SAPS   C2620190   1.299   2.197   3.415 -0.1022 -0.5774 -0.6222
  177SAPS   H6R20191   1.252   2.106   3.456  1.9581 -1.9326 -1.1313
  177SAPS   C2720192   1.422   2.243   3.481 -0.5969 -0.0723  0.0615
  177SAPS   H7R20193   1.455   2.345   3.452 -2.3031 -0.0166 -1.9481
  177SAPS   H7S20194   1.502   2.181   3.436  0.2536  1.1030 -0.1002
  177SAPS   C2820195   1.405   2.221   3.627 -0.6164  0.1990  0.3047
  177SAPS   H8R20196   1.355   2.125   3.650  0.6788 -0.5247  0.2470
  177SAPS   C2920197   1.471   2.281   3.731  0.5290 -1.0017  0.2278
  177SAPS   H9R20198   1.456   2.251   3.836  2.4321 -0.5579  0.6702
  177SAPS  C21020199   1.559   2.400   3.718  0.0174 -0.2779 -0.3171
  177SAPS  H10R20200   1.491   2.486   3.704 -1.0380 -1.2200 -1.1262
  177SAPS  H10S20201   1.625   2.377   3.631 -0.0441 -0.8940 -0.2097
  177SAPS  C21120202   1.639   2.425   3.845 -0.1331  0.1078 -0.1913
  177SAPS  H11R20203   1.585   2.443   3.940  1.4319  0.3106  0.6979
  177SAPS  C21220204   1.775   2.411   3.849  0.8800 -0.1991 -0.0458
  177SAPS  H12R20205   1.824   2.455   3.937 -1.9478 -0.2567  1.6791
  177SAPS  C21320206   1.855   2.380   3.724  0.1079 -0.2909  0.7972
  177SAPS  H13R20207   1.824   2.286   3.673  0.4639 -0.6937  1.3045
  177SAPS  H13S20208   1.955   2.358   3.765  0.4589 -0.3277 -0.0609
  177SAPS  C21420209   1.871   2.499   3.630 -0.2407  0.2106  0.3742
  177SAPS  H14R20210   1.893   2.595   3.680 -1.5315  0.8117 -0.1717
  177SAPS  C21520211   1.846   2.501   3.495 -0.0539  0.2849  0.5719
  177SAPS  H15R20212   1.860   2.599   3.447 -1.5277  0.4150  0.3493
  177SAPS  C21620213   1.815   2.389   3.397 -0.9254 -0.0803 -0.0248
  177SAPS  H16R20214   1.786   2.300   3.459  2.9118  0.2105  2.5128
  177SAPS  H16S20215   1.914   2.378   3.350 -1.3533 -0.2571 -0.9065
  177SAPS  C21720216   1.718   2.416   3.277  0.6123 -0.5664  0.1900
  177SAPS  H17R20217   1.747   2.504   3.216  1.1688 -1.5659 -1.0552
  177SAPS  H17S20218   1.630   2.453   3.333  1.6684  2.7223 -0.1215
  177SAPS  C21820219   1.686   2.296   3.190  0.1101  0.1559  0.2867
  177SAPS  H18R20220   1.579   2.293   3.162  0.4637 -1.1412 -1.0219
  177SAPS  H18S20221   1.706   2.205   3.250 -0.8772 -0.5089 -0.3849
  177SAPS  C21920222   1.769   2.284   3.059  0.4953 -0.1394 -0.1892
  177SAPS  H19R20223   1.872   2.308   3.092  0.9346 -1.0092 -0.8711
  177SAPS  H19S20224   1.738   2.355   2.979 -1.1105  1.0876  1.4524
  177SAPS  C22020225   1.759   2.134   3.008  0.2948  1.2098  0.2987
  177SAPS  H20R20226   1.667   2.122   2.947  0.4348 -0.5518  0.3785
  177SAPS  H20S20227   1.752   2.062   3.093  2.2785  3.7542  2.7893
  177SAPS  H20T20228   1.842   2.097   2.945  0.7071 -1.4506  2.2218
  177SAPS   C3320229   1.028   1.783   2.939 -0.5929 -0.0067  0.7109
  177SAPS   H3X20230   1.074   1.717   2.862 -2.3723  0.4345 -0.7940
  177SAPS   H3Y20231   0.918   1.774   2.932 -0.4962 -0.3142 -0.7654
  177SAPS   C3420232   1.060   1.745   3.076 -0.0168  0.5010 -0.5693
  177SAPS   H4X20233   1.043   1.827   3.149  0.1724  0.2189 -0.2034
  177SAPS   H4Y20234   1.167   1.714   3.082 -0.5124 -1.0874  0.9470
  177SAPS   C3520235   0.983   1.623   3.125 -0.0865 -0.0092  0.0353
  177SAPS   H5X20236   0.985   1.542   3.049 -0.3482  1.7293 -1.9278
  177SAPS   H5Y20237   0.878   1.657   3.141  0.3546  0.6372  1.6564
  177SAPS   C3620238   1.043   1.569   3.255  0.7920  0.7055 -0.7548
  177SAPS   H6X20239   1.153   1.587   3.252  1.0797 -0.9407 -1.1593
  177SAPS   H6Y20240   1.013   1.463   3.270  3.8909 -0.3415 -1.1327
  177SAPS   C3720241   0.984   1.647   3.376 -0.3236 -0.4487 -0.1119
  177SAPS   H7X20242   0.875   1.662   3.358 -0.7130 -1.2406  1.4562
  177SAPS   H7Y20243   1.026   1.750   3.376  2.2395 -1.4188 -0.5790
  177SAPS   C3820244   0.983   1.580   3.510 -0.0144 -0.0469  0.5770
  177SAPS   H8X20245   1.087   1.563   3.544 -0.0641  0.3624  0.9397
  177SAPS   H8Y20246   0.924   1.486   3.510 -0.6506  0.3428  1.0009
  177SAPS   C3920247   0.919   1.681   3.610 -0.2851 -0.0354 -0.4764
  177SAPS   H9X20248   0.808   1.676   3.606 -0.3348  1.3975 -3.3157
  177SAPS   H9Y20249   0.943   1.787   3.585  1.0727 -0.4788 -1.1399
  177SAPS  C31020250   0.970   1.648   3.748 -0.2983 -0.1323  0.7391
  177SAPS  H10X20251   1.079   1.671   3.750 -0.6128  1.8774 -1.2742
  177SAPS  H10Y20252   0.967   1.537   3.753 -1.8767 -0.4072 -2.9449
  177SAPS  C31120253   0.899   1.717   3.860  0.4580  0.3058 -0.3809
  177SAPS  H11X20254   0.791   1.725   3.836  0.9440  2.4181 -2.1866
  177SAPS  H11Y20255   0.929   1.820   3.891 -1.7374  0.9103 -0.0760
  177SAPS  C31220256   0.921   1.628   3.981  0.3702 -0.1658 -0.4712
  177SAPS  H12X20257   1.031   1.634   3.990  0.5316 -0.3034 -2.1809
  177SAPS  H12Y20258   0.897   1.524   3.951 -0.8699  0.0104 -0.1718
  177SAPS  C31320259   0.827   1.665   4.103  0.2297 -0.6690  0.1221
  177SAPS  H13X20260   0.727   1.689   4.062 -0.0664 -1.3095  0.4519
  177SAPS  H13Y20261   0.859   1.764   4.143  2.3704 -1.0131 -0.5702
  177SAPS  C31420262   0.802   1.565   4.215 -0.9388  0.6165  0.4640
  177SAPS  H14X20263   0.900   1.525   4.249  0.3640  1.9863 -1.5009
  177SAPS  H14Y20264   0.744   1.480   4.171  0.2719  0.4584 -0.9078
  177SAPS  C31520265   0.718   1.625   4.325  0.5614  0.0847 -0.1374
  177SAPS  H15X20266   0.619   1.650   4.282  0.6982  1.2236  0.1767
  177SAPS  H15Y20267   0.776   1.712   4.363  0.6767 -0.1477  0.2307
  177SAPS  C31620268   0.687   1.539   4.450 -0.4101  0.1251  0.0256
  177SAPS  H16X20269   0.602   1.578   4.511 -0.1631  2.6653 -1.1391
  177SAPS  H16Y20270   0.778   1.525   4.511  0.6102 -0.2738 -1.5423
  177SAPS  C31720271   0.645   1.398   4.426  0.5162  0.0638 -0.2083
  177SAPS  H17X20272   0.729   1.340   4.384 -2.2275 -2.5662 -2.5351
  177SAPS  H17Y20273   0.566   1.394   4.347  0.1642  1.1821  0.0621
  177SAPS  C31820274   0.585   1.329   4.551 -0.1425  1.2356  0.3916
  177SAPS  H18X20275   0.534   1.234   4.525  2.1246  0.2792 -0.8430
  177SAPS  H18Y20276   0.500   1.388   4.593 -2.1756 -1.3230  0.1120
  177SAPS  H18Z20277   0.663   1.321   4.630 -0.1943 -0.3822  0.3038
  178SAPS     N20278   0.440   5.818   2.343  0.0314  0.3036  0.1098
  178SAPS   HN120279   0.417   5.727   2.388 -0.7986  1.0997  1.3680
  178SAPS   HN220280   0.544   5.818   2.341  0.1476 -1.5834  1.9822
  178SAPS   HN320281   0.396   5.889   2.404 -0.3797 -0.4151  0.6733
  178SAPS   C1220282   0.380   5.822   2.203  0.3306 -1.0775 -0.9132
  178SAPS  H12A20283   0.419   5.916   2.167 -1.9756  0.5695  0.5984
  178SAPS   C1320284   0.417   5.703   2.118 -0.4788 -0.1746 -0.4156
  178SAPS  O13A20285   0.503   5.617   2.154  0.3545  0.3552  0.1978
  178SAPS  O13B20286   0.355   5.687   2.007 -0.1062 -0.0470 -0.3908
  178SAPS   C1120287   0.226   5.832   2.215 -0.7202  0.4016 -0.0240
  178SAPS  H11A20288   0.190   5.728   2.231  0.3903 -0.1892 -1.1366
  178SAPS  H11B20289   0.176   5.868   2.122 -2.0160  1.4901  1.0547
  178SAPS     P20290   0.050   5.979   2.335  0.0977  0.2533 -0.3022
  178SAPS   O1320291   0.046   6.084   2.236  0.2685 -0.8801 -0.7401
  178SAPS   O1420292  -0.050   5.867   2.326  0.1644  0.3046  0.0230
  178SAPS   O1220293   0.190   5.915   2.331 -0.1677  0.0781 -0.1490
  178SAPS   O1120294   0.053   6.030   2.486 -0.1232 -0.1720 -0.2065
  178SAPS    C120295   0.089   5.943   2.592  0.0352  0.2364  0.5941
  178SAPS    HA20296   0.002   5.875   2.603 -1.4237  1.8837 -0.2793
  178SAPS    HB20297   0.180   5.885   2.567 -1.2740 -0.8268 -2.0317
  178SAPS    C220298   0.116   6.003   2.730  0.5526  0.0709 -1.0210
  178SAPS    HS20299   0.162   5.937   2.806 -0.4378  0.7220  0.1855
  178SAPS   O2120300  -0.010   6.040   2.794  0.0533 -0.1014 -0.3109
  178SAPS   C2120301  -0.083   5.939   2.844  0.1372 -0.3709  0.3418
  178SAPS   O2220302  -0.043   5.824   2.838  0.9917 -0.1061 -0.4153
  178SAPS   C2220303  -0.195   5.994   2.935  0.1749 -0.8443  0.3967
  178SAPS   H2R20304  -0.153   6.013   3.036  1.4295  1.2508 -0.4655
  178SAPS   H2S20305  -0.235   6.087   2.890 -2.4243 -0.6010  2.9042
  178SAPS    C320306   0.207   6.131   2.723  0.1111  0.2150 -0.1334
  178SAPS    HX20307   0.144   6.222   2.723  2.1845  1.7133 -0.4219
  178SAPS    HY20308   0.272   6.136   2.633  0.8341 -0.9395  0.2998
  178SAPS   O3120309   0.294   6.127   2.845  0.4980  0.2303  0.5458
  178SAPS   C3120310   0.372   6.228   2.858  0.0058 -0.3098  0.0968
  178SAPS   O3220311   0.379   6.320   2.779  0.0901  0.6451  0.2788
  178SAPS   C3220312   0.449   6.211   2.985  0.6783  0.3948  0.2544
  178SAPS   H2X20313   0.558   6.201   2.966  0.6691 -1.5192  1.0123
  178SAPS   H2Y20314   0.420   6.124   3.048 -3.1133  0.0162 -1.7100
  178SAPS   C2320315  -0.311   5.891   2.952 -0.2798 -0.5627  0.5106
  178SAPS   H3R20316  -0.265   5.808   3.010  0.8971  0.1180  0.5847
  178SAPS   H3S20317  -0.345   5.841   2.859  1.2990 -0.2433 -0.2750
  178SAPS   C2420318  -0.431   5.959   3.018  0.3519  1.1979  0.6669
  178SAPS   H4R20319  -0.475   6.020   2.937  2.4185  2.2275  0.2345
  178SAPS   H4S20320  -0.408   6.034   3.098  1.8650  0.6695  0.7531
  178SAPS   C2520321  -0.534   5.848   3.051  0.0726 -0.0924  0.1844
  178SAPS   H5R20322  -0.559   5.779   2.969  0.5491 -0.0376 -0.0126
  178SAPS   C2620323  -0.581   5.823   3.172 -0.0923  0.2150  0.3511
  178SAPS   H6R20324  -0.651   5.738   3.177  2.5176 -2.0301  0.8474
  178SAPS   C2720325  -0.554   5.900   3.301  0.2320  0.4616  0.6473
  178SAPS   H7R20326  -0.504   5.995   3.276  4.3647 -1.4909  0.7610
  178SAPS   H7S20327  -0.469   5.854   3.355  1.4072 -1.4188 -2.5098
  178SAPS   C2820328  -0.670   5.921   3.392 -0.2308  0.1591 -0.6860
  178SAPS   H8R20329  -0.742   5.996   3.357 -0.7259 -1.0979 -2.5054
  178SAPS   C2920330  -0.699   5.856   3.504  0.1069  0.2182  0.6245
  178SAPS   H9R20331  -0.788   5.888   3.560  0.5690  0.4790  1.2222
  178SAPS  C21020332  -0.595   5.752   3.555 -0.0076 -0.1088  0.0602
  178SAPS  H10R20333  -0.505   5.799   3.601 -0.1461 -0.3963  0.6302
  178SAPS  H10S20334  -0.566   5.678   3.477  0.4056 -0.5297  0.6060
  178SAPS  C21120335  -0.664   5.677   3.668 -0.4402 -0.4807  0.6248
  178SAPS  H11R20336  -0.651   5.724   3.767  2.2195 -0.0329  0.1296
  178SAPS  C21220337  -0.747   5.573   3.650 -0.1051  0.3121 -0.3012
  178SAPS  H12R20338  -0.807   5.540   3.736 -0.1892  0.8814 -0.1344
  178SAPS  C21320339  -0.784   5.520   3.512 -0.3142  0.0540  0.1391
  178SAPS  H13R20340  -0.696   5.464   3.473 -0.1419 -0.7110  1.5726
  178SAPS  H13S20341  -0.795   5.603   3.439  0.9099 -0.2268 -0.4104
  178SAPS  C21420342  -0.901   5.416   3.502 -1.1244  0.5509  0.0149
  178SAPS  H14R20343  -0.873   5.310   3.501 -0.6455  0.6573  0.9633
  178SAPS  C21520344  -1.033   5.439   3.504 -0.1571 -0.1607  0.2849
  178SAPS  H15R20345  -1.098   5.351   3.515  0.3406 -1.0674 -2.9503
  178SAPS  C21620346  -1.099   5.578   3.523 -0.0296 -0.3864  0.0274
  178SAPS  H16R20347  -1.167   5.603   3.439  0.6583 -0.7663 -0.6541
  178SAPS  H16S20348  -1.022   5.657   3.509 -2.5800  2.3050  0.3148
  178SAPS  C21720349  -1.185   5.594   3.649  0.6278  0.0411  0.9339
  178SAPS  H17R20350  -1.238   5.498   3.666  0.6252  0.1204  1.3936
  178SAPS  H17S20351  -1.259   5.675   3.629  0.9326 -0.1227 -1.0361
  178SAPS  C21820352  -1.116   5.631   3.777 -0.1412 -0.3696 -0.0190
  178SAPS  H18R20353  -1.052   5.543   3.799  0.0089 -0.2068  0.1968
  178SAPS  H18S20354  -1.187   5.649   3.860  0.5038  1.3784  0.1838
  178SAPS  C21920355  -1.040   5.767   3.763  0.0355 -0.7187  0.0040
  178SAPS  H19R20356  -1.114   5.845   3.735 -1.3389 -1.7319  0.7216
  178SAPS  H19S20357  -0.969   5.746   3.680  0.2501  0.0271 -0.0105
  178SAPS  C22020358  -0.970   5.814   3.890 -0.0248 -0.0152 -0.4204
  178SAPS  H20R20359  -0.892   5.741   3.923 -0.8526  0.3563  2.7101
  178SAPS  H20S20360  -1.042   5.820   3.974  1.4280  0.5725  0.8354
  178SAPS  H20T20361  -0.928   5.917   3.884  1.8238 -0.5902  1.4206
  178SAPS   C3320362   0.431   6.350   3.061 -0.3633  0.5365  0.2720
  178SAPS   H3X20363   0.321   6.357   3.063 -0.4961 -1.0692  1.8519
  178SAPS   H3Y20364   0.487   6.434   3.015  0.2790  1.1552  2.0796
  178SAPS   C3420365   0.468   6.336   3.208  0.1128  0.0610 -0.2053
  178SAPS   H4X20366   0.462   6.435   3.258 -1.6569  1.3257 -2.6673
  178SAPS   H4Y20367   0.574   6.302   3.212  0.3794  0.3585 -2.8139
  178SAPS   C3520368   0.373   6.238   3.284  0.1676 -0.2593 -0.7383
  178SAPS   H5X20369   0.366   6.136   3.241  2.1433 -1.4029  1.4619
  178SAPS   H5Y20370   0.280   6.298   3.295  1.9045  2.3252  0.8855
  178SAPS   C3620371   0.437   6.229   3.425  0.2861 -0.8225  0.3995
  178SAPS   H6X20372   0.459   6.335   3.452 -2.5559  0.0563 -0.4393
  178SAPS   H6Y20373   0.539   6.186   3.413 -0.6489 -2.8136 -0.8173
  178SAPS   C3720374   0.353   6.160   3.528 -0.4027  0.0766 -0.8237
  178SAPS   H7X20375   0.370   6.050   3.525 -1.7384 -0.2165  0.9562
  178SAPS   H7Y20376   0.245   6.184   3.516 -0.1458  2.1806  0.4984
  178SAPS   C3820377   0.398   6.202   3.669  0.1896 -1.4569  1.0989
  178SAPS   H8X20378   0.371   6.305   3.699 -0.4280 -1.3926  0.3303
  178SAPS   H8Y20379   0.508   6.208   3.682  0.0584  3.3130  1.7804
  178SAPS   C3920380   0.330   6.121   3.780 -0.2208  0.2719 -0.3187
  178SAPS   H9X20381   0.354   6.012   3.782 -0.9564  0.1124  0.5144
  178SAPS   H9Y20382   0.220   6.125   3.764 -0.0952  0.7468 -1.1235
  178SAPS  C31020383   0.370   6.178   3.921  0.2759  0.1864 -0.3499
  178SAPS  H10X20384   0.362   6.289   3.917  0.7024  0.2110 -4.0721
  178SAPS  H10Y20385   0.476   6.151   3.937 -0.7375 -2.5080  3.2212
  178SAPS  C31120386   0.294   6.111   4.043 -0.8099 -0.5758  0.0771
  178SAPS  H11X20387   0.339   6.011   4.056  2.3064  0.7267  0.2087
  178SAPS  H11Y20388   0.186   6.102   4.020 -0.8526  0.6314 -0.2547
  178SAPS  C31220389   0.308   6.188   4.177 -1.1149  0.3146 -0.5081
  178SAPS  H12X20390   0.280   6.294   4.155  1.2201  1.1854  0.4556
  178SAPS  H12Y20391   0.415   6.186   4.206 -1.9432  0.2569  2.9290
  178SAPS  C31320392   0.220   6.142   4.291  0.0557  0.7112 -0.3207
  178SAPS  H13X20393   0.221   6.034   4.315 -4.3113  0.1993 -1.5632
  178SAPS  H13Y20394   0.116   6.154   4.254 -0.6084 -3.5465 -0.2701
  178SAPS  C31420395   0.241   6.220   4.420 -0.0064 -0.2401 -0.1708
  178SAPS  H14X20396   0.224   6.329   4.402  1.0897 -0.1416 -0.7225
  178SAPS  H14Y20397   0.342   6.214   4.467  0.0961 -1.6348 -0.5314
  178SAPS  C31520398   0.133   6.195   4.529 -0.3519  0.5490  0.4304
  178SAPS  H15X20399   0.156   6.095   4.572 -0.6491  0.6037  0.7191
  178SAPS  H15Y20400   0.041   6.177   4.470  0.0557  0.5052 -0.2089
  178SAPS  C31620401   0.113   6.311   4.627 -0.2623 -0.3702 -0.8659
  178SAPS  H16X20402   0.099   6.406   4.571  1.4903  0.6985  0.4085
  178SAPS  H16Y20403   0.207   6.326   4.684  1.0158  2.3790 -3.4005
  178SAPS  C31720404  -0.001   6.282   4.727  0.4991 -0.0424 -0.2313
  178SAPS  H17X20405   0.037   6.190   4.776  0.8486 -0.9085 -2.0387
  178SAPS  H17Y20406  -0.097   6.259   4.676 -0.1580 -0.1600  1.0054
  178SAPS  C31820407  -0.023   6.394   4.829  0.2841 -0.5430 -0.2327
  178SAPS  H18X20408  -0.066   6.479   4.771  2.5042  1.2218  0.5394
  178SAPS  H18Y20409   0.079   6.417   4.867  0.9694  0.3892 -2.4433
  178SAPS  H18Z20410  -0.087   6.361   4.913 -0.8740  0.9825 -0.4839
  179SAPS     N20411   0.478   1.523   2.205  0.2804 -0.3637  0.2619
  179SAPS   HN120412   0.439   1.461   2.279  1.5994 -2.5165 -0.7669
  179SAPS   HN220413   0.551   1.585   2.243 -0.3930  1.4599 -1.2580
  179SAPS   HN320414   0.404   1.585   2.166  0.8651  1.1790  1.5307
  179SAPS   C1220415   0.530   1.460   2.089 -0.5757  0.1242 -0.7186
  179SAPS  H12A20416   0.465   1.380   2.055  1.7228 -2.6568  0.9481
  179SAPS   C1320417   0.555   1.554   1.966  0.2804  1.0553 -0.4820
  179SAPS  O13A20418   0.493   1.664   1.958 -0.9152 -0.1468  0.4397
  179SAPS  O13B20419   0.580   1.496   1.862 -0.7133 -0.2267  0.4743
  179SAPS   C1120420   0.668   1.397   2.126  0.1234  0.1742 -0.1085
  179SAPS  H11A20421   0.746   1.475   2.140 -1.8402  1.9393  1.6532
  179SAPS  H11B20422   0.695   1.332   2.040  0.5421 -0.4852  0.5138
  179SAPS     P20423   0.780   1.223   2.304 -0.0652 -0.2904  0.2296
  179SAPS   O1320424   0.825   1.119   2.210 -0.4007  0.0573  0.7023
  179SAPS   O1420425   0.890   1.321   2.340 -0.2717  0.3113 -0.2152
  179SAPS   O1220426   0.663   1.312   2.244 -0.0717  0.0111  0.0741
  179SAPS   O1120427   0.721   1.158   2.434  0.4624 -0.4476 -0.5779
  179SAPS    C120428   0.645   1.236   2.528 -0.2535 -1.3695 -0.1495
  179SAPS    HA20429   0.636   1.341   2.493  3.2036 -0.7977  0.3022
  179SAPS    HB20430   0.542   1.196   2.534  0.6861 -3.8037  1.4213
  179SAPS    C220431   0.707   1.240   2.666 -0.2699 -0.2666  0.0112
  179SAPS    HS20432   0.807   1.287   2.665  0.5400 -1.9198  0.4679
  179SAPS   O2120433   0.714   1.104   2.721 -0.1184  0.2374 -0.9194
  179SAPS   C2120434   0.826   1.041   2.695  0.0442  0.4951 -0.1614
  179SAPS   O2220435   0.929   1.093   2.647  0.2048 -0.5858  0.1724
  179SAPS   C2220436   0.828   0.890   2.744 -0.7120  0.3270 -0.5049
  179SAPS   H2R20437   0.724   0.852   2.743 -0.2043 -1.4466  2.1599
  179SAPS   H2S20438   0.896   0.819   2.691 -0.7376 -2.5618  2.9379
  179SAPS    C320439   0.620   1.331   2.764 -0.5718 -0.4837  0.1473
  179SAPS    HX20440   0.522   1.284   2.787  0.7196 -2.2875  2.2941
  179SAPS    HY20441   0.603   1.430   2.716 -0.3273  0.2526  1.5495
  179SAPS   O3120442   0.694   1.357   2.882  0.1353  0.3812 -0.1865
  179SAPS   C3120443   0.687   1.266   2.985  0.5440  0.7027 -0.2218
  179SAPS   O3220444   0.607   1.177   2.995  0.8792 -0.0935 -0.3002
  179SAPS   C3220445   0.793   1.304   3.087 -0.3681 -0.7701  0.4660
  179SAPS   H2X20446   0.771   1.399   3.141  2.1722  0.1693 -0.0151
  179SAPS   H2Y20447   0.883   1.311   3.023  0.2691 -1.8669  1.2129
  179SAPS   C2320448   0.873   0.883   2.891 -0.0363  0.2098 -0.3734
  179SAPS   H3R20449   0.917   0.982   2.916  2.1247 -0.9387  0.6754
  179SAPS   H3S20450   0.958   0.812   2.900  2.0573  2.4682 -1.2126
  179SAPS   C2420451   0.754   0.850   2.982  0.1735 -0.3248 -0.4777
  179SAPS   H4R20452   0.662   0.910   2.966 -0.0071  0.7878  3.6315
  179SAPS   H4S20453   0.778   0.873   3.088 -1.2731 -0.7394 -0.0304
  179SAPS   C2520454   0.704   0.705   2.980 -1.0450 -0.3439  0.0772
  179SAPS   H5R20455   0.736   0.648   2.891  1.8436  2.4783 -0.8779
  179SAPS   C2620456   0.636   0.645   3.075  0.3690 -0.1683 -0.1603
  179SAPS   H6R20457   0.605   0.542   3.051 -1.0095  0.0678  0.5082
  179SAPS   C2720458   0.594   0.710   3.198  0.2274 -0.1360  0.4867
  179SAPS   H7R20459   0.577   0.817   3.173  0.7101 -0.1854 -0.0699
  179SAPS   H7S20460   0.687   0.706   3.258  0.0420  1.9674  0.9955
  179SAPS   C2820461   0.473   0.655   3.258  0.3989  0.0593  0.8787
  179SAPS   H8R20462   0.387   0.678   3.194  2.1972  2.1710 -0.9346
  179SAPS   C2920463   0.455   0.583   3.375  0.0131 -0.1814 -0.1644
  179SAPS   H9R20464   0.353   0.560   3.409  0.1783 -0.9975 -0.1967
  179SAPS  C21020465   0.565   0.552   3.470  0.3346  0.1972 -0.5230
  179SAPS  H10R20466   0.656   0.515   3.417 -0.1670  0.4282 -1.5586
  179SAPS  H10S20467   0.536   0.461   3.526  2.3507 -0.8152 -1.0311
  179SAPS  C21120468   0.590   0.674   3.557 -0.2077  0.5881  0.3088
  179SAPS  H11R20469   0.586   0.761   3.491 -1.3756  0.1717 -0.2010
  179SAPS  C21220470   0.599   0.669   3.691  0.6983  0.2566  0.3367
  179SAPS  H12R20471   0.616   0.768   3.735 -0.0610 -0.3553  2.0893
  179SAPS  C21320472   0.610   0.554   3.787  0.1682 -0.4265  0.7907
  179SAPS  H13R20473   0.664   0.591   3.876  1.9412 -1.3946  0.1641
  179SAPS  H13S20474   0.681   0.478   3.748 -0.3542 -1.1682  1.2410
  179SAPS  C21420475   0.481   0.483   3.819  0.5649  0.4986 -0.1046
  179SAPS  H14R20476   0.430   0.440   3.731  1.2276 -0.5284  0.0036
  179SAPS  C21520477   0.418   0.477   3.942 -0.1457  0.4881  0.6511
  179SAPS  H15R20478   0.322   0.423   3.949  0.8102 -1.1029  2.2817
  179SAPS  C21620479   0.450   0.528   4.080  0.5647 -0.6147  0.4305
  179SAPS  H16R20480   0.541   0.592   4.086 -0.7800  1.4736 -0.5236
  179SAPS  H16S20481   0.469   0.442   4.147 -0.4948 -0.4410  0.9730
  179SAPS  C21720482   0.326   0.607   4.128 -0.3099 -0.1395 -0.2639
  179SAPS  H17R20483   0.316   0.688   4.053 -1.9715  0.1004  0.1857
  179SAPS  H17S20484   0.344   0.651   4.228 -0.5132 -0.5004 -0.0653
  179SAPS  C21820485   0.211   0.509   4.151 -0.1245  0.0443 -1.1917
  179SAPS  H18R20486   0.243   0.415   4.202  0.3943  1.1889  0.7294
  179SAPS  H18S20487   0.157   0.482   4.058  0.7882  0.6999 -1.9238
  179SAPS  C21920488   0.099   0.561   4.238  0.6720  0.0235 -0.9194
  179SAPS  H19R20489   0.048   0.646   4.189 -0.4906  0.8652  1.5485
  179SAPS  H19S20490   0.140   0.578   4.340 -0.8234 -0.0476 -0.2747
  179SAPS  C22020491  -0.017   0.464   4.266 -0.3917  0.4047  0.1348
  179SAPS  H20R20492  -0.107   0.512   4.311  0.3835 -0.1763  2.4725
  179SAPS  H20S20493   0.015   0.369   4.314 -1.2747 -0.4029 -0.8296
  179SAPS  H20T20494  -0.049   0.419   4.169  0.4635 -0.4706  0.2412
  179SAPS   C3320495   0.831   1.197   3.192  0.5355  0.2628  0.3481
  179SAPS   H3X20496   0.930   1.218   3.240  0.4607  1.3229  0.0649
  179SAPS   H3Y20497   0.834   1.095   3.149 -1.3832 -0.6869  2.3273
  179SAPS   C3420498   0.720   1.179   3.294  0.2425  0.5170 -0.5366
  179SAPS   H4X20499   0.628   1.133   3.253 -1.1258  1.2727  1.5555
  179SAPS   H4Y20500   0.691   1.280   3.328 -0.3114 -0.1081  0.9441
  179SAPS   C3520501   0.768   1.124   3.436  0.4283 -0.3668  0.0481
  179SAPS   H5X20502   0.854   1.054   3.429  1.4870  0.8993 -0.0396
  179SAPS   H5Y20503   0.672   1.078   3.466 -0.9249  2.8120  1.0610
  179SAPS   C3620504   0.808   1.232   3.536  0.1215  0.2771 -0.6724
  179SAPS   H6X20505   0.728   1.307   3.554 -0.2766  0.1958 -2.0295
  179SAPS   H6Y20506   0.892   1.282   3.483  0.4211  0.6358  0.1287
  179SAPS   C3720507   0.858   1.171   3.665  0.8940  0.3604  0.1346
  179SAPS   H7X20508   0.893   1.242   3.742 -2.4059  0.9463  1.2798
  179SAPS   H7Y20509   0.941   1.099   3.649 -0.1103 -0.9897  0.7768
  179SAPS   C3820510   0.755   1.084   3.751 -0.1315  0.0167  1.0774
  179SAPS   H8X20511   0.747   0.981   3.710 -0.3366  1.0672 -1.7268
  179SAPS   H8Y20512   0.661   1.141   3.734  1.7181  2.7766 -0.8335
  179SAPS   C3920513   0.790   1.062   3.904  0.1793 -0.0186  0.7328
  179SAPS   H9X20514   0.898   1.037   3.907  0.6502  1.8217  0.1253
  179SAPS   H9Y20515   0.735   0.968   3.925 -2.0627  1.1224  0.2663
  179SAPS  C31020516   0.760   1.176   4.003 -0.5726 -0.0927 -0.3346
  179SAPS  H10X20517   0.653   1.207   4.005 -0.5190  0.0703  0.0281
  179SAPS  H10Y20518   0.807   1.269   3.966  1.1041 -0.7748 -0.0124
  179SAPS  C31120519   0.807   1.140   4.143 -0.2553  0.4039  0.5501
  179SAPS  H11X20520   0.804   1.226   4.213  0.1688  1.8406 -1.1020
  179SAPS  H11Y20521   0.915   1.114   4.130 -0.7351 -0.4941 -2.4129
  179SAPS  C31220522   0.740   1.018   4.214  0.0006  0.0889  0.5617
  179SAPS  H12X20523   0.774   0.925   4.164  0.5124  0.4981  0.1302
  179SAPS  H12Y20524   0.630   1.028   4.203  0.0024  1.3457  1.4269
  179SAPS  C31320525   0.775   1.014   4.363 -0.9717 -0.3316  0.1710
  179SAPS  H13X20526   0.783   1.119   4.398  2.0312 -0.1945 -0.6901
  179SAPS  H13Y20527   0.876   0.969   4.376  0.3472  2.3269 -0.1813
  179SAPS  C31420528   0.677   0.937   4.449  0.2187 -0.2034  0.2781
  179SAPS  H14X20529   0.587   0.997   4.473 -0.7794 -1.2812 -0.6821
  179SAPS  H14Y20530   0.729   0.925   4.547  0.6002  2.2953  0.4523
  179SAPS  C31520531   0.635   0.801   4.391  0.0422  1.1643 -0.2518
  179SAPS  H15X20532   0.726   0.740   4.372 -1.1283 -0.1207 -1.9802
  179SAPS  H15Y20533   0.581   0.815   4.295 -0.8205 -1.1540 -0.1693
  179SAPS  C31620534   0.534   0.730   4.488  0.9221  0.1956  1.3078
  179SAPS  H16X20535   0.490   0.646   4.431  3.0971 -0.3242  0.3117
  179SAPS  H16Y20536   0.447   0.798   4.506  0.2728  0.1331 -1.1690
  179SAPS  C31720537   0.603   0.670   4.601 -0.0431 -0.3407 -0.6161
  179SAPS  H17X20538   0.536   0.634   4.682  0.2904  0.8801  0.2184
  179SAPS  H17Y20539   0.676   0.734   4.654 -2.1076  0.7032  1.1263
  179SAPS  C31820540   0.677   0.537   4.560  0.2659  0.3383 -0.2641
  179SAPS  H18X20541   0.616   0.449   4.531  1.8675 -0.2246 -2.1895
  179SAPS  H18Y20542   0.733   0.504   4.650 -0.4086  1.1920  0.4894
  179SAPS  H18Z20543   0.757   0.555   4.484 -1.0890 -0.5114 -1.9436
  180SAPS     N20544   0.716   5.554   2.342  0.8073 -0.0746  0.3917
  180SAPS   HN120545   0.621   5.543   2.300 -0.1790 -0.4632  2.5435
  180SAPS   HN220546   0.745   5.457   2.368 -2.9589 -1.4470  0.1896
  180SAPS   HN320547   0.697   5.605   2.431  1.2836  1.9570 -0.6207
  180SAPS   C1220548   0.809   5.626   2.264  0.0385  0.9436  0.5194
  180SAPS  H12A20549   0.821   5.573   2.171  1.0514  0.6686  0.7935
  180SAPS   C1320550   0.776   5.772   2.244 -0.6684 -0.0812  0.1038
  180SAPS  O13A20551   0.702   5.835   2.318 -0.1809  0.0414 -0.4416
  180SAPS  O13B20552   0.829   5.833   2.150  0.5714  0.0750  0.1297
  180SAPS   C1120553   0.954   5.609   2.338 -0.0613 -0.0881  0.6405
  180SAPS  H11A20554   0.939   5.633   2.446 -0.4679 -0.3281  0.6393
  180SAPS  H11B20555   1.019   5.687   2.293 -1.1327  1.2561  1.3624
  180SAPS     P20556   0.969   5.339   2.398  0.1829 -0.0951 -0.3953
  180SAPS   O1320557   0.823   5.327   2.407 -0.0410  0.3862 -0.1708
  180SAPS   O1420558   1.040   5.225   2.331 -0.1134 -0.4385  0.3334
  180SAPS   O1220559   1.007   5.478   2.322 -0.3244  0.4866  0.4278
  180SAPS   O1120560   1.038   5.360   2.540 -0.0188  0.1451 -0.1508
  180SAPS    C120561   1.096   5.245   2.608  0.1699 -0.4586 -0.2069
  180SAPS    HA20562   1.163   5.181   2.546 -1.8327 -2.3087 -0.6054
  180SAPS    HB20563   1.157   5.277   2.695 -0.9475  2.1452 -0.3101
  180SAPS    C220564   0.980   5.154   2.657  0.5509 -0.1497 -1.0791
  180SAPS    HS20565   0.918   5.123   2.570 -0.0319 -0.6052 -0.5116
  180SAPS   O2120566   0.892   5.230   2.742  0.0481  0.1106  0.1345
  180SAPS   C2120567   0.773   5.190   2.771 -0.8980 -0.0939 -0.0912
  180SAPS   O2220568   0.712   5.102   2.715  0.0460 -0.1832  0.3888
  180SAPS   C2220569   0.724   5.278   2.880  0.6943 -0.0377 -1.1676
  180SAPS   H2R20570   0.720   5.219   2.974  0.0804 -2.6648 -2.7404
  180SAPS   H2S20571   0.791   5.367   2.888  1.7753 -0.9287  0.2459
  180SAPS    C320572   1.029   5.022   2.737  0.3109  0.1305 -0.0442
  180SAPS    HX20573   1.102   5.056   2.813  2.5049 -4.5633  0.3605
  180SAPS    HY20574   1.075   4.964   2.653 -3.4568 -0.3527 -1.9689
  180SAPS   O3120575   0.922   4.943   2.801 -0.1299  0.2960 -0.7240
  180SAPS   C3120576   0.922   4.812   2.787 -0.2123 -0.3153  0.4799
  180SAPS   O3220577   0.990   4.750   2.712 -0.4013  0.5358 -0.6255
  180SAPS   C3220578   0.813   4.765   2.881  0.1268 -0.7288  0.1289
  180SAPS   H2X20579   0.836   4.662   2.914  1.5737 -1.1091 -1.8988
  180SAPS   H2Y20580   0.722   4.754   2.818 -0.1892  1.0166  0.2256
  180SAPS   C2320581   0.581   5.336   2.853  0.2432 -0.2343  0.3932
  180SAPS   H3R20582   0.568   5.360   2.745 -0.6131 -0.9191  0.3272
  180SAPS   H3S20583   0.589   5.432   2.907  2.2445  0.7738 -1.5276
  180SAPS   C2420584   0.463   5.235   2.881 -0.2497  0.3704  0.3756
  180SAPS   H4R20585   0.464   5.154   2.805  0.6519  0.0814  0.6828
  180SAPS   H4S20586   0.371   5.283   2.843  0.2029 -1.2279 -3.0825
  180SAPS   C2520587   0.461   5.168   3.012 -0.2487 -0.0593  0.0533
  180SAPS   H5R20588   0.508   5.070   3.024  2.8269  1.5212  2.1679
  180SAPS   C2620589   0.412   5.228   3.123  0.4911  0.8233 -0.4727
  180SAPS   H6R20590   0.420   5.167   3.215  0.5353  1.3886 -0.0922
  180SAPS   C2720591   0.351   5.365   3.127  0.2865  0.0885  0.1352
  180SAPS   H7R20592   0.358   5.433   3.039  0.8548 -0.3149 -0.1355
  180SAPS   H7S20593   0.411   5.422   3.201 -0.7268 -0.3814  1.3516
  180SAPS   C2820594   0.212   5.361   3.183  0.5441  0.4081 -0.1848
  180SAPS   H8R20595   0.122   5.369   3.121  0.4955  4.0287  0.1258
  180SAPS   C2920596   0.181   5.358   3.313 -0.0439 -0.3169  0.3000
  180SAPS   H9R20597   0.074   5.343   3.335 -0.3495  0.1501 -0.7838
  180SAPS  C21020598   0.275   5.360   3.438 -0.2338  0.1543  0.2741
  180SAPS  H10R20599   0.223   5.428   3.509  1.4323  1.6985  0.0736
  180SAPS  H10S20600   0.371   5.411   3.418 -1.1417  2.6877  1.9243
  180SAPS  C21120601   0.298   5.225   3.499 -0.4739 -0.1665  0.2467
  180SAPS  H11R20602   0.300   5.146   3.423 -1.2473  0.4714 -0.4554
  180SAPS  C21220603   0.336   5.206   3.626  0.1212 -0.0608 -0.0478
  180SAPS  H12R20604   0.337   5.108   3.675 -0.3008  0.4241  0.9773
  180SAPS  C21320605   0.356   5.321   3.719 -0.9231 -0.6284  0.4765
  180SAPS  H13R20606   0.430   5.396   3.683  1.0526 -2.8034 -0.2861
  180SAPS  H13S20607   0.405   5.276   3.808 -0.0123  3.6058  2.3362
  180SAPS  C21420608   0.238   5.391   3.776 -0.5109 -0.4351  0.3438
  180SAPS  H14R20609   0.201   5.476   3.717 -0.4909  2.2861  3.9403
  180SAPS  C21520610   0.161   5.363   3.883 -0.5498  0.6720 -0.1311
  180SAPS  H15R20611   0.071   5.423   3.902  0.2367  1.8063  0.0985
  180SAPS  C21620612   0.199   5.247   3.976  0.2906  0.6630  0.0314
  180SAPS  H16R20613   0.289   5.200   3.932 -0.1789 -0.0664 -0.1664
  180SAPS  H16S20614   0.124   5.166   3.963  2.7335 -1.8271  0.3560
  180SAPS  C21720615   0.232   5.282   4.117  0.1587 -0.3729 -0.2142
  180SAPS  H17R20616   0.307   5.364   4.118 -1.0213  0.8115 -1.9398
  180SAPS  H17S20617   0.275   5.194   4.169 -0.7203  1.1687  3.4576
  180SAPS  C21820618   0.105   5.328   4.202  0.1165  0.3831  0.1526
  180SAPS  H18R20619   0.026   5.252   4.185 -0.9938  1.6494 -0.5779
  180SAPS  H18S20620   0.061   5.427   4.177 -1.1485 -0.0932  0.4282
  180SAPS  C21920621   0.145   5.336   4.348 -0.5887  0.7766 -0.4487
  180SAPS  H19R20622   0.230   5.409   4.353  0.9000 -0.7942 -1.5831
  180SAPS  H19S20623   0.179   5.236   4.382 -0.2203  1.8254  2.5480
  180SAPS  C22020624   0.037   5.388   4.441  1.0530 -0.3005  0.7280
  180SAPS  H20R20625  -0.054   5.324   4.450  2.9928 -3.3518  0.0554
  180SAPS  H20S20626   0.072   5.418   4.542  0.1835  1.6472  0.4949
  180SAPS  H20T20627   0.006   5.484   4.394  0.9832 -0.5826  0.1945
  180SAPS   C3320628   0.776   4.854   3.011  0.1496 -0.0817  0.0420
  180SAPS   H3X20629   0.752   4.958   2.980  4.0110  1.1454  0.6530
  180SAPS   H3Y20630   0.861   4.869   3.081 -0.0903  1.0407  0.1211
  180SAPS   C3420631   0.654   4.796   3.078 -0.1128  0.5796 -0.5660
  180SAPS   H4X20632   0.680   4.689   3.089  1.0066  1.0197  1.6384
  180SAPS   H4Y20633   0.563   4.802   3.015 -1.6802  1.9446  1.6665
  180SAPS   C3520634   0.622   4.852   3.215 -0.2266 -0.5634 -0.6266
  180SAPS   H5X20635   0.531   4.806   3.258  0.4134  0.3941  1.9840
  180SAPS   H5Y20636   0.594   4.959   3.214 -2.0770 -1.0222 -1.1388
  180SAPS   C3620637   0.743   4.855   3.315  0.1055 -0.3940  0.4513
  180SAPS   H6X20638   0.707   4.913   3.403 -0.1250  1.1096 -0.5983
  180SAPS   H6Y20639   0.837   4.897   3.275  0.8564 -0.5835  1.9355
  180SAPS   C3720640   0.777   4.720   3.360 -0.3817 -0.1229  0.0369
  180SAPS   H7X20641   0.847   4.668   3.290  1.9699 -0.1903  2.2777
  180SAPS   H7Y20642   0.686   4.657   3.358  0.0671 -0.8363  1.1208
  180SAPS   C3820643   0.837   4.715   3.498 -0.2842 -0.5367  0.3902
  180SAPS   H8X20644   0.772   4.767   3.572  0.9295  0.9384  0.4645
  180SAPS   H8Y20645   0.937   4.762   3.505  0.4878 -2.1079  0.2054
  180SAPS   C3920646   0.842   4.569   3.539  0.3630  0.3588 -0.2112
  180SAPS   H9X20647   0.920   4.510   3.485  0.8127 -0.1430  0.9444
  180SAPS   H9Y20648   0.744   4.522   3.518  1.2161 -1.4710 -0.2848
  180SAPS  C31020649   0.897   4.561   3.678  0.0755  0.8237 -0.2102
  180SAPS  H10X20650   0.991   4.617   3.693 -0.3821  1.0162  2.3316
  180SAPS  H10Y20651   0.923   4.455   3.699 -2.7563  0.0812 -0.0474
  180SAPS  C31120652   0.798   4.621   3.781  0.2595 -0.4544 -0.5536
  180SAPS  H11X20653   0.698   4.573   3.775  0.2454 -0.5000 -0.0522
  180SAPS  H11Y20654   0.791   4.732   3.774  0.0437 -0.4261 -0.0050
  180SAPS  C31220655   0.841   4.584   3.921 -0.4463 -0.2920  0.0252
  180SAPS  H12X20656   0.950   4.602   3.932  0.0571 -1.8317 -1.7934
  180SAPS  H12Y20657   0.825   4.474   3.933  0.3525 -0.8941 -3.3824
  180SAPS  C31320658   0.764   4.659   4.026 -0.0844  0.6727 -0.6749
  180SAPS  H13X20659   0.656   4.661   4.003 -0.4530  2.3431  1.0376
  180SAPS  H13Y20660   0.798   4.765   4.031  0.0816  0.6443 -1.1208
  180SAPS  C31420661   0.781   4.601   4.165  0.2407  0.5675 -0.0829
  180SAPS  H14X20662   0.744   4.682   4.230 -0.1902  0.2721  0.0441
  180SAPS  H14Y20663   0.883   4.568   4.192 -0.8461 -1.0114  2.4677
  180SAPS  C31520664   0.696   4.472   4.187  0.1487 -0.2128  0.2394
  180SAPS  H15X20665   0.727   4.393   4.115 -1.1455 -1.2630  0.7898
  180SAPS  H15Y20666   0.587   4.487   4.172 -0.2450 -1.2782  1.7526
  180SAPS  C31620667   0.702   4.405   4.327 -0.5130  0.2590 -0.5615
  180SAPS  H16X20668   0.809   4.398   4.357 -1.1977  1.4494  2.6005
  180SAPS  H16Y20669   0.651   4.307   4.336  0.2153  0.0391  2.0762
  180SAPS  C31720670   0.637   4.486   4.432 -0.5587  0.0975  0.0317
  180SAPS  H17X20671   0.685   4.586   4.432  1.1425 -0.5565  3.4720
  180SAPS  H17Y20672   0.662   4.428   4.523 -1.6560  0.1773  0.4042
  180SAPS  C31820673   0.487   4.494   4.422 -0.0124  0.3696  0.6809
  180SAPS  H18X20674   0.439   4.394   4.434 -3.3163  1.3623 -2.3729
  180SAPS  H18Y20675   0.447   4.547   4.333 -0.2080  0.4530  0.8181
  180SAPS  H18Z20676   0.458   4.546   4.516 -0.4443 -0.8617  1.2547
  181POPC     N20677   6.358   4.896   6.848  0.5845  0.1868 -0.6208
  181POPC   C1220678   6.497   4.942   6.898  0.1446 -0.2299  0.2990
  181POPC  H12A20679   6.556   4.855   6.924  3.2621  1.7165  0.1974
  181POPC  H12B20680   6.489   4.995   6.992  1.4925  0.8494 -0.1636
  181POPC   C1320681   6.291   4.831   6.964  0.4851  0.4658 -0.2884
  181POPC  H13A20682   6.344   4.740   6.986 -1.1640 -0.6370 -0.6180
  181POPC  H13B20683   6.291   4.892   7.053  1.8320  0.2020 -0.0979
  181POPC  H13C20684   6.186   4.814   6.943  0.8240 -1.6685 -0.4778
  181POPC   C1420685   6.273   5.005   6.800  0.1730 -0.7929  0.1739
  181POPC  H14A20686   6.312   5.046   6.708 -2.1299 -0.1960 -0.5872
  181POPC  H14B20687   6.170   4.977   6.787 -0.6240  0.7735  2.6043
  181POPC  H14C20688   6.261   5.085   6.871  1.4103 -0.7430  0.3636
  181POPC   C1520689   6.378   4.793   6.736  0.0308 -0.1480 -0.5466
  181POPC  H15A20690   6.451   4.830   6.665  2.3658 -0.5785  1.5185
  181POPC  H15B20691   6.281   4.775   6.691 -0.3903 -0.5641  0.5027
  181POPC  H15C20692   6.421   4.704   6.778 -1.7118 -0.7087  0.1519
  181POPC   C1120693   6.590   5.018   6.802  0.4059 -0.1231  0.7693
  181POPC  H11A20694   6.596   4.957   6.710 -0.6577  0.8210  0.0515
  181POPC  H11B20695   6.689   5.036   6.849  1.0786  1.4766 -1.1686
  181POPC     P20696   6.560   5.273   6.847  0.2463  0.2481  0.9239
  181POPC   O1320697   6.668   5.265   6.942  0.2318 -0.4943  0.1154
  181POPC   O1420698   6.433   5.318   6.906 -0.3120 -0.1192  0.4448
  181POPC   O1220699   6.534   5.141   6.763  0.2337 -0.7642  0.4487
  181POPC   O1120700   6.610   5.368   6.731 -0.2692  0.1059  0.2931
  181POPC    C120701   6.752   5.387   6.710  0.1786  0.3229 -0.5764
  181POPC    HA20702   6.812   5.295   6.727 -1.4609 -0.3665  2.1692
  181POPC    HB20703   6.798   5.462   6.777 -1.4946  0.3476  0.6173
  181POPC    C220704   6.783   5.436   6.569  0.5808  0.3920  0.6137
  181POPC    HS20705   6.761   5.544   6.557  0.0992  0.6500  3.3482
  181POPC   O2120706   6.713   5.355   6.473  0.3591  0.4880 -0.1976
  181POPC   C2120707   6.593   5.403   6.427  0.1990  0.5023  0.5181
  181POPC   O2220708   6.537   5.501   6.465  0.0905  0.0590 -0.0190
  181POPC   C2220709   6.546   5.308   6.310 -0.3542  0.1348 -0.2425
  181POPC   H2R20710   6.439   5.336   6.296  0.1981  2.7632  0.2276
  181POPC   H2S20711   6.566   5.201   6.328 -0.7401  0.0406 -0.3567
  181POPC    C320712   6.936   5.427   6.538  0.3781  1.4333 -0.6482
  181POPC    HX20713   6.960   5.322   6.565 -1.9651  1.0034  0.0338
  181POPC    HY20714   6.998   5.489   6.606  0.9735 -1.8623  2.1067
  181POPC   O3120715   6.974   5.449   6.402  0.4199  0.0981  0.0733
  181POPC   C3120716   6.989   5.577   6.370 -0.6547  0.4846  0.0566
  181POPC   O3220717   6.968   5.676   6.443  0.2979 -0.2644  0.9712
  181POPC   C3220718   7.056   5.597   6.230  0.1846  0.6472  0.1313
  181POPC   H2X20719   7.166   5.592   6.250  0.0390 -3.4878  0.7621
  181POPC   H2Y20720   7.039   5.702   6.200 -0.5125  0.1687 -1.2162
  181POPC   C2320721   6.632   5.336   6.182  0.0626  0.1404 -0.0396
  181POPC   H3R20722   6.741   5.332   6.201  0.1183  0.4110 -0.3096
  181POPC   H3S20723   6.602   5.440   6.158 -3.0842 -0.5442  0.4024
  181POPC   C2420724   6.592   5.242   6.066  0.4999  0.0642  0.5031
  181POPC   H4R20725   6.484   5.254   6.042  1.2684  0.2483 -3.7235
  181POPC   H4S20726   6.603   5.136   6.097 -1.2738  0.9749  5.0757
  181POPC   C2520727   6.677   5.280   5.947  0.5379 -0.0081  0.1875
  181POPC   H5R20728   6.785   5.276   5.974  0.9253 -0.1505 -1.3136
  181POPC   H5S20729   6.672   5.391   5.939  0.9272  0.1433  1.6857
  181POPC   C2620730   6.649   5.206   5.814  0.3216  0.3182  0.0659
  181POPC   H6R20731   6.540   5.212   5.794  0.4662  1.5204 -0.4553
  181POPC   H6S20732   6.682   5.102   5.837  2.1943  1.3425  2.4801
  181POPC   C2720733   6.737   5.247   5.700 -0.0750  0.0150  0.1633
  181POPC   H7R20734   6.732   5.166   5.624 -0.8804  1.4017 -1.3290
  181POPC   H7S20735   6.839   5.268   5.739  0.3131  2.2642 -1.8620
  181POPC   C2820736   6.679   5.375   5.632  0.3746  0.0290 -0.0327
  181POPC   H8R20737   6.749   5.409   5.553  0.1510  3.6288  1.1439
  181POPC   H8S20738   6.690   5.462   5.700 -1.3164  1.7892 -1.8896
  181POPC   C2920739   6.539   5.354   5.580 -0.1274 -0.1949 -0.0502
  181POPC   H9120740   6.466   5.399   5.649 -0.2894  0.8640 -0.8869
  181POPC  C21020741   6.500   5.288   5.464 -0.2559 -0.2904  0.5650
  181POPC  H10120742   6.394   5.289   5.433 -0.1036 -0.2163  0.0267
  181POPC  C21120743   6.599   5.234   5.364  0.3150  0.0415  0.4705
  181POPC  H11R20744   6.564   5.132   5.337 -0.3792  0.7745 -1.6336
  181POPC  H11S20745   6.701   5.214   5.403  0.1838 -0.9271  0.3567
  181POPC  C21220746   6.605   5.307   5.230  0.5703  0.2974 -0.0262
  181POPC  H12R20747   6.630   5.414   5.243 -0.3513  0.5587 -0.2923
  181POPC  H12S20748   6.497   5.309   5.204  0.1468  1.1388  1.6564
  181POPC  C21320749   6.683   5.243   5.113 -0.1221  0.3008  0.2209
  181POPC  H13R20750   6.652   5.137   5.099  0.5295  0.2238 -0.7365
  181POPC  H13S20751   6.791   5.239   5.138 -0.0031  2.4359  0.2114
  181POPC  C21420752   6.666   5.320   4.982 -0.4659 -0.0247  0.5986
  181POPC  H14R20753   6.738   5.404   4.973  0.5696 -0.8814  0.6883
  181POPC  H14S20754   6.567   5.367   4.995 -0.4684 -0.2337  1.3965
  181POPC  C21520755   6.676   5.225   4.865  0.1368 -0.6480  0.3567
  181POPC  H15R20756   6.584   5.163   4.868 -0.8784  0.8415  1.1825
  181POPC  H15S20757   6.761   5.161   4.898 -1.0445 -2.3137  0.2968
  181POPC  C21620758   6.702   5.281   4.725 -0.3606 -0.8681  0.4354
  181POPC  H16R20759   6.722   5.198   4.653 -2.2548 -0.4370 -0.6546
  181POPC  H16S20760   6.793   5.345   4.722 -0.6604 -0.4570  0.1852
  181POPC  C21720761   6.581   5.360   4.677 -0.4383 -0.0127  0.7905
  181POPC  H17R20762   6.553   5.437   4.752 -6.4545  0.2009 -1.1016
  181POPC  H17S20763   6.494   5.291   4.687 -0.3758  0.0416  1.7532
  181POPC  C21820764   6.594   5.423   4.532  0.0022 -0.1309 -0.6360
  181POPC  H18R20765   6.586   5.355   4.445  1.8293  0.2468 -1.1439
  181POPC  H18S20766   6.692   5.475   4.523  0.3930 -0.7664 -0.1711
  181POPC  H18T20767   6.516   5.499   4.510 -2.4917 -2.2953  0.1400
  181POPC   C3320768   7.008   5.490   6.136  0.0728 -0.3574  0.1939
  181POPC   H3X20769   6.900   5.495   6.111  0.4472  0.2839 -1.3839
  181POPC   H3Y20770   7.023   5.389   6.180  1.4714  0.1309  0.8758
  181POPC   C3420771   7.082   5.516   6.005  0.2152 -0.5397 -0.1410
  181POPC   H4X20772   7.186   5.487   6.030 -0.5914 -1.6620  2.2305
  181POPC   H4Y20773   7.090   5.623   5.976 -0.4442 -0.5827 -0.4951
  181POPC   C3520774   7.036   5.424   5.895 -0.0719  0.4851  0.7904
  181POPC   H5X20775   6.929   5.442   5.871 -0.1529 -0.3266  0.5126
  181POPC   H5Y20776   7.052   5.320   5.928 -3.4724 -0.7329 -0.8598
  181POPC   C3620777   7.131   5.438   5.777 -0.1845  0.0275 -0.7464
  181POPC   H6X20778   7.233   5.421   5.817 -0.8437  2.7008  2.6068
  181POPC   H6Y20779   7.122   5.540   5.735  0.5611  0.3075 -0.2434
  181POPC   C3720780   7.109   5.329   5.663  1.0454  0.5858  0.1156
  181POPC   H7X20781   7.000   5.338   5.642  1.2085  0.0542 -1.0369
  181POPC   H7Y20782   7.138   5.225   5.690 -0.5696  0.3579  1.0948
  181POPC   C3820783   7.186   5.363   5.530 -0.1484  0.2952  0.6110
  181POPC   H8X20784   7.294   5.374   5.552 -0.0158 -1.1304  0.7983
  181POPC   H8Y20785   7.147   5.455   5.481 -2.3491  0.1690  1.9911
  181POPC   C3920786   7.160   5.253   5.420  0.9764 -0.3097 -0.2199
  181POPC   H9X20787   7.051   5.240   5.410  0.9936 -1.1177  0.5335
  181POPC   H9Y20788   7.200   5.160   5.466 -1.6002 -0.9912  0.7806
  181POPC  C31020789   7.213   5.295   5.280  0.0780  0.2026  0.2301
  181POPC  H10X20790   7.207   5.204   5.217 -0.8347  1.0787 -1.0151
  181POPC  H10Y20791   7.311   5.346   5.294 -0.5510  1.5278 -0.0093
  181POPC  C31120792   7.120   5.390   5.207  0.2499 -0.6121  0.9151
  181POPC  H11X20793   7.102   5.484   5.262 -1.0432 -0.2813 -0.0409
  181POPC  H11Y20794   7.018   5.349   5.193  0.8470 -1.5505 -1.0432
  181POPC  C31220795   7.190   5.439   5.082  0.1871  0.6797 -0.1582
  181POPC  H12X20796   7.214   5.344   5.028 -2.0642 -1.6091  2.5602
  181POPC  H12Y20797   7.280   5.496   5.113 -0.0979 -0.2680  2.7114
  181POPC  C31320798   7.097   5.525   5.006  0.1923 -0.8153  0.6836
  181POPC  H13X20799   7.056   5.605   5.070  1.9256  1.0571 -0.4132
  181POPC  H13Y20800   7.002   5.473   4.982 -1.1850  0.7093  2.5477
  181POPC  C31420801   7.165   5.595   4.885  0.0208  0.2249  0.4208
  181POPC  H14X20802   7.209   5.532   4.804 -0.2527  1.8834 -1.0744
  181POPC  H14Y20803   7.246   5.652   4.933 -0.5669  2.3869 -1.0022
  181POPC  C31520804   7.075   5.700   4.812 -0.0725  0.5749  0.1457
  181POPC  H15X20805   7.019   5.763   4.884  0.2679 -0.3376  1.2418
  181POPC  H15Y20806   6.998   5.649   4.751 -0.9291  3.7316 -1.6419
  181POPC  C31620807   7.158   5.781   4.719 -0.0989 -0.1680  0.2800
  181POPC  H16X20808   7.091   5.854   4.669  0.0752  0.0363  0.3452
  181POPC  H16Y20809   7.192   5.705   4.645  0.3891 -1.1169  1.4539
  181POPC  H16Z20810   7.246   5.833   4.762 -0.1733  0.1203  0.0834
  182POPC     N20811   2.428   2.597   6.950 -0.5429 -0.6396  0.2851
  182POPC   C1220812   2.495   2.553   6.816 -0.6530 -0.0972 -0.2692
  182POPC  H12A20813   2.580   2.491   6.838 -0.1385  0.6649 -0.0954
  182POPC  H12B20814   2.546   2.637   6.772  1.5496 -1.2892 -0.1422
  182POPC   C1320815   2.535   2.668   7.031  0.0649 -0.4117  0.7553
  182POPC  H13A20816   2.613   2.595   7.049 -0.9239 -1.8468 -0.5173
  182POPC  H13B20817   2.566   2.760   6.983 -0.6777  0.3913  1.7775
  182POPC  H13C20818   2.491   2.706   7.121 -4.2584 -2.1627 -0.3916
  182POPC   C1420819   2.312   2.693   6.928 -0.7975  0.4238  0.9316
  182POPC  H14A20820   2.347   2.787   6.887 -1.5482 -0.3365 -1.6321
  182POPC  H14B20821   2.244   2.658   6.852 -0.2851 -1.1778  1.1902
  182POPC  H14C20822   2.257   2.718   7.018 -2.3581  1.8369 -0.3299
  182POPC   C1520823   2.374   2.478   7.024  0.2582  0.4492 -0.6989
  182POPC  H15A20824   2.438   2.391   7.036 -1.4050 -0.8654 -0.9348
  182POPC  H15B20825   2.290   2.442   6.967  1.4302  0.4320 -2.4824
  182POPC  H15C20826   2.334   2.509   7.120 -0.9963 -2.6884 -0.0667
  182POPC   C1120827   2.401   2.494   6.704 -0.4282 -0.2981  0.6172
  182POPC  H11A20828   2.346   2.408   6.746 -2.4596  0.7559  0.2658
  182POPC  H11B20829   2.479   2.461   6.633 -1.0541  0.5933 -0.5460
  182POPC     P20830   2.348   2.663   6.519  0.0151  0.2755 -0.5163
  182POPC   O1320831   2.445   2.767   6.541 -0.4307  0.0897 -0.0744
  182POPC   O1420832   2.217   2.702   6.456  0.0452 -0.1002  0.3270
  182POPC   O1220833   2.312   2.591   6.653 -0.1583 -0.1935  0.2968
  182POPC   O1120834   2.412   2.556   6.432  0.1380  0.5292 -0.0547
  182POPC    C120835   2.346   2.507   6.316 -0.2241  0.2329 -0.5953
  182POPC    HA20836   2.237   2.507   6.336  0.1261  1.1860  1.6245
  182POPC    HB20837   2.371   2.399   6.306 -1.3617 -0.1694  0.6816
  182POPC    C220838   2.353   2.589   6.185 -0.6993 -0.1962  0.3411
  182POPC    HS20839   2.336   2.698   6.201 -1.2416  0.1616 -2.1881
  182POPC   O2120840   2.273   2.530   6.084  0.7682 -0.2311  0.4225
  182POPC   C2120841   2.173   2.601   6.040 -0.1046  0.4153 -0.6993
  182POPC   O2220842   2.143   2.716   6.080  0.5645  0.9105  0.4199
  182POPC   C2220843   2.096   2.510   5.946  0.2572  0.3094 -0.4368
  182POPC   H2R20844   2.030   2.448   6.011 -0.3512  1.0547 -0.3188
  182POPC   H2S20845   2.168   2.445   5.893 -2.6155 -1.3001 -2.6695
  182POPC    C320846   2.496   2.589   6.128  0.6267  0.5047  0.3553
  182POPC    HX20847   2.545   2.490   6.121 -0.6647 -0.1558  0.3172
  182POPC    HY20848   2.557   2.648   6.200 -0.0160  1.2211  0.3319
  182POPC   O3120849   2.487   2.662   6.002 -0.1673 -0.3325 -0.1858
  182POPC   C3120850   2.594   2.656   5.928 -0.5999 -0.0171  0.5779
  182POPC   O3220851   2.697   2.602   5.970  0.7999 -0.2564  0.7514
  182POPC   C3220852   2.575   2.726   5.791 -0.1989 -0.8461  0.7965
  182POPC   H2X20853   2.609   2.828   5.816  0.4446 -0.9595  0.4101
  182POPC   H2Y20854   2.466   2.724   5.769 -0.4721  1.6266  1.6948
  182POPC   C2320855   2.007   2.589   5.853 -0.2058 -0.6127 -0.1205
  182POPC   H3R20856   1.970   2.675   5.913  1.3540  1.0217 -1.3891
  182POPC   H3S20857   1.928   2.524   5.810  0.1285  0.2777 -2.1808
  182POPC   C2420858   2.079   2.652   5.732  0.2097  0.4373  0.3930
  182POPC   H4R20859   2.171   2.699   5.773 -0.5968  0.3947  2.3524
  182POPC   H4S20860   2.005   2.722   5.688 -0.5831 -0.6684 -0.0816
  182POPC   C2520861   2.109   2.556   5.622 -0.1185 -0.1867  0.0359
  182POPC   H5R20862   2.033   2.476   5.625  0.5136 -0.9566 -2.3019
  182POPC   H5S20863   2.210   2.512   5.639  0.1806  0.9761  1.4875
  182POPC   C2620864   2.096   2.629   5.484  0.1643  0.3977 -0.5788
  182POPC   H6R20865   1.989   2.655   5.471 -0.3574 -0.4331  1.6265
  182POPC   H6S20866   2.121   2.559   5.400  1.6090  1.9624 -1.5234
  182POPC   C2720867   2.187   2.753   5.470  0.1462  0.1324  0.4625
  182POPC   H7R20868   2.288   2.711   5.487  0.3220  0.9304  1.4476
  182POPC   H7S20869   2.159   2.833   5.542 -3.1417 -0.5850  0.1463
  182POPC   C2820870   2.194   2.810   5.323  0.5471  0.4060 -0.2603
  182POPC   H8R20871   2.219   2.734   5.245 -0.5370 -1.3250  0.9935
  182POPC   H8S20872   2.279   2.881   5.323  0.0047  1.0564  0.0204
  182POPC   C2920873   2.062   2.881   5.293 -0.3310  0.2305 -0.2437
  182POPC   H9120874   1.980   2.879   5.366  0.3417  0.0351  0.5232
  182POPC  C21020875   2.027   2.915   5.167 -0.1506  0.4609  0.0649
  182POPC  H10120876   1.928   2.958   5.146 -2.2787 -3.6083  0.6223
  182POPC  C21120877   2.115   2.894   5.043 -0.0485  0.2074  0.2010
  182POPC  H11R20878   2.081   2.800   4.994 -0.8265  0.1969  0.7467
  182POPC  H11S20879   2.221   2.886   5.076 -0.6773  1.7287  2.8661
  182POPC  C21220880   2.104   3.016   4.949  0.1354  0.0439  0.3774
  182POPC  H12R20881   2.131   3.110   5.002 -0.7694  0.5188  0.0126
  182POPC  H12S20882   1.995   3.023   4.927  0.3159  0.4765 -0.3999
  182POPC  C21320883   2.185   3.007   4.824 -0.8218  0.4257  0.6565
  182POPC  H13R20884   2.177   2.907   4.777 -1.9203 -0.3601  2.4329
  182POPC  H13S20885   2.291   3.014   4.856 -0.4153  0.6145 -0.6686
  182POPC  C21420886   2.130   3.108   4.720  0.6295 -0.8698 -0.1818
  182POPC  H14R20887   2.143   3.211   4.761 -0.1247 -0.4700 -0.9110
  182POPC  H14S20888   2.020   3.096   4.707 -0.1442  3.0560  1.2198
  182POPC  C21520889   2.193   3.109   4.584  0.2977 -0.2637  0.4673
  182POPC  H15R20890   2.303   3.095   4.593  0.3259 -0.6045 -0.3446
  182POPC  H15S20891   2.178   3.202   4.525 -0.9760  0.8946  2.4949
  182POPC  C21620892   2.130   3.004   4.497 -0.4882  0.5544  0.1708
  182POPC  H16R20893   2.021   3.018   4.481 -0.3909  1.7682  0.4828
  182POPC  H16S20894   2.135   2.900   4.537 -0.0514 -0.7237 -2.8874
  182POPC  C21720895   2.189   3.002   4.357 -0.3251  0.0785 -0.6768
  182POPC  H17R20896   2.174   2.907   4.302 -1.8768 -0.3505  0.4075
  182POPC  H17S20897   2.297   3.019   4.374 -0.6972  0.4089  1.6928
  182POPC  C21820898   2.135   3.110   4.262 -0.1787 -0.0157  0.0670
  182POPC  H18R20899   2.029   3.113   4.229  0.1177  3.5736 -0.9979
  182POPC  H18S20900   2.199   3.119   4.171 -0.6861  1.0598 -0.2010
  182POPC  H18T20901   2.150   3.212   4.301 -0.8731 -0.1575  0.7204
  182POPC   C3320902   2.664   2.692   5.674  0.3726  0.2547 -0.4675
  182POPC   H3X20903   2.680   2.582   5.667  1.9131  0.3682  0.6416
  182POPC   H3Y20904   2.765   2.736   5.692 -0.2591  1.1716  0.9681
  182POPC   C3420905   2.613   2.746   5.545  0.1175 -0.8124 -0.2291
  182POPC   H4X20906   2.611   2.857   5.553 -1.1882 -0.6368 -2.2228
  182POPC   H4Y20907   2.504   2.731   5.533  0.2835 -1.0920 -1.6532
  182POPC   C3520908   2.710   2.715   5.426  0.2109  0.1320 -0.3796
  182POPC   H5X20909   2.703   2.607   5.400  2.5510 -0.4220  1.0195
  182POPC   H5Y20910   2.812   2.732   5.466 -0.4196 -0.0124  1.3826
  182POPC   C3620911   2.683   2.802   5.302  0.0756 -0.3563 -1.4545
  182POPC   H6X20912   2.730   2.902   5.316 -2.4961  0.7778 -0.2797
  182POPC   H6Y20913   2.577   2.832   5.286  0.4968  0.9151 -1.9970
  182POPC   C3720914   2.739   2.746   5.175 -1.0697 -0.1401 -0.1733
  182POPC   H7X20915   2.700   2.644   5.160  1.8087 -1.3668 -0.0243
  182POPC   H7Y20916   2.848   2.733   5.195 -0.7530 -0.3054 -1.9209
  182POPC   C3820917   2.725   2.831   5.055 -0.1100 -0.9059  0.7930
  182POPC   H8X20918   2.760   2.935   5.072  0.6771 -1.1312  0.6099
  182POPC   H8Y20919   2.614   2.838   5.048 -0.3404 -1.2185  3.3076
  182POPC   C3920920   2.784   2.770   4.926 -0.1301  0.8838  0.4105
  182POPC   H9X20921   2.730   2.679   4.893 -0.0488  0.1870  2.1196
  182POPC   H9Y20922   2.888   2.738   4.946 -0.9089 -1.6957  0.6700
  182POPC  C31020923   2.803   2.861   4.805  0.1088 -0.6460  0.0388
  182POPC  H10X20924   2.840   2.800   4.720  1.7800  0.0901  0.1863
  182POPC  H10Y20925   2.875   2.942   4.830 -0.1187 -0.4210 -0.0320
  182POPC  C31120926   2.687   2.930   4.746 -0.3618 -0.6249  0.3085
  182POPC  H11X20927   2.647   2.989   4.832  2.9022  1.2447  0.7111
  182POPC  H11Y20928   2.604   2.859   4.724 -0.1595 -1.5869  2.3599
  182POPC  C31220929   2.727   3.005   4.617 -0.6296  0.4061  0.0753
  182POPC  H12X20930   2.745   2.916   4.553 -0.1124  0.1035  0.6291
  182POPC  H12Y20931   2.828   3.051   4.629  0.0162 -1.1912  1.1642
  182POPC  C31320932   2.612   3.090   4.552  0.1585 -0.5798  0.9197
  182POPC  H13X20933   2.566   3.147   4.636 -0.6223 -0.0995  0.1750
  182POPC  H13Y20934   2.536   3.023   4.506  0.7748  0.3010 -1.5143
  182POPC  C31420935   2.667   3.187   4.452 -0.0963 -0.3231  0.0536
  182POPC  H14X20936   2.717   3.131   4.370  2.0676  1.1821  0.2551
  182POPC  H14Y20937   2.739   3.260   4.495 -4.0184  3.8631  0.2650
  182POPC  C31520938   2.549   3.266   4.386  0.2051 -0.0574 -0.0567
  182POPC  H15X20939   2.506   3.330   4.466  0.5616  1.3149 -0.9331
  182POPC  H15Y20940   2.469   3.207   4.335  1.1616 -0.9305 -0.5889
  182POPC  C31620941   2.594   3.358   4.273  0.3321  0.1504 -0.5493
  182POPC  H16X20942   2.685   3.414   4.306 -0.3644  0.5875  0.6897
  182POPC  H16Y20943   2.513   3.427   4.243 -0.2375 -0.5901 -0.7644
  182POPC  H16Z20944   2.623   3.292   4.188 -0.2251 -0.5718 -0.1886
  183POPC     N20945   6.657   0.965   6.743  0.1541  0.0468  0.1193
  183POPC   C1220946   6.572   0.868   6.676  0.2297  0.4384  0.3770
  183POPC  H12A20947   6.513   0.927   6.608  1.2792 -0.0661 -1.0141
  183POPC  H12B20948   6.511   0.815   6.749 -2.2663 -0.2054 -2.0111
  183POPC   C1320949   6.736   1.043   6.651 -0.0581 -0.2797 -0.2160
  183POPC  H13A20950   6.791   1.105   6.720 -1.3050 -0.7509  1.2550
  183POPC  H13B20951   6.812   0.991   6.596  0.5185  0.0505  0.2596
  183POPC  H13C20952   6.675   1.104   6.585  0.4406  1.8978  1.2138
  183POPC   C1420953   6.568   1.078   6.804 -0.8953  0.5617  0.0164
  183POPC  H14A20954   6.502   1.117   6.728 -3.4421  1.6038  2.5411
  183POPC  H14B20955   6.503   1.041   6.882 -0.2628 -1.0203 -0.1876
  183POPC  H14C20956   6.630   1.155   6.849 -2.5479  1.0887  1.5352
  183POPC   C1520957   6.750   0.900   6.843  0.0473 -0.4377  0.4591
  183POPC  H15A20958   6.690   0.834   6.904  0.0658 -2.7850 -1.8948
  183POPC  H15B20959   6.803   0.961   6.915 -0.2581  0.4453 -0.0442
  183POPC  H15C20960   6.817   0.839   6.785  1.0833 -1.2303  2.4098
  183POPC   C1120961   6.639   0.759   6.597  1.0744  0.1523  0.5223
  183POPC  H11A20962   6.696   0.802   6.511 -0.7674 -0.9955 -1.3777
  183POPC  H11B20963   6.562   0.697   6.548  0.0871  1.6772  0.0685
  183POPC     P20964   6.864   0.618   6.623  0.2052 -0.0515  0.0487
  183POPC   O1320965   6.922   0.533   6.728 -0.2754  0.7347  0.5431
  183POPC   O1420966   6.944   0.735   6.575 -0.1647  0.3099  0.0337
  183POPC   O1220967   6.724   0.677   6.677 -0.8553 -0.0307  0.1099
  183POPC   O1120968   6.819   0.528   6.505 -0.0409 -0.9622 -0.2010
  183POPC    C120969   6.799   0.555   6.361 -0.2705  0.2166  0.0441
  183POPC    HA20970   6.781   0.664   6.351 -1.8411  0.0123  0.3680
  183POPC    HB20971   6.701   0.514   6.330  0.3458  0.2212 -2.0296
  183POPC    C220972   6.914   0.510   6.271  0.3012 -1.1020 -0.5876
  183POPC    HS20973   6.999   0.571   6.307  0.9233 -2.0804 -0.3621
  183POPC   O2120974   6.867   0.551   6.146  0.1280  0.4259 -0.2454
  183POPC   C2120975   6.948   0.616   6.075 -0.3181 -0.1419  0.3570
  183POPC   O2220976   7.039   0.680   6.117  0.2053  0.1034 -0.0175
  183POPC   C2220977   6.905   0.597   5.927 -0.8366  0.6768  0.3787
  183POPC   H2R20978   6.828   0.669   5.893 -0.5587  1.3504  1.1091
  183POPC   H2S20979   6.865   0.494   5.920  0.7650  0.0063  0.7025
  183POPC    C320980   6.951   0.364   6.285  0.2174  0.0462  0.4155
  183POPC    HX20981   6.862   0.306   6.254  0.5385 -1.0462  1.4467
  183POPC    HY20982   6.974   0.344   6.392 -2.1636  2.0263  1.3933
  183POPC   O3120983   7.069   0.332   6.192 -0.1470  0.6842 -0.2360
  183POPC   C3120984   7.189   0.338   6.245  0.2643  0.3078 -0.4205
  183POPC   O3220985   7.213   0.369   6.362  0.0069  0.2348  0.1251
  183POPC   C3220986   7.286   0.287   6.133 -0.5851  0.1588 -0.0460
  183POPC   H2X20987   7.386   0.310   6.174 -1.2809  3.3754  0.0572
  183POPC   H2Y20988   7.276   0.333   6.033  0.0445  1.8006  0.6110
  183POPC   C2320989   7.023   0.619   5.824  0.8053 -0.0986  0.4252
  183POPC   H3R20990   7.092   0.532   5.821 -0.7447 -1.3625  0.0467
  183POPC   H3S20991   7.088   0.702   5.860  0.7958  0.6485 -1.1693
  183POPC   C2420992   6.975   0.639   5.682  0.0889 -0.3241  0.2083
  183POPC   H4R20993   6.913   0.730   5.671 -0.7269 -0.7914  0.8151
  183POPC   H4S20994   6.923   0.553   5.636 -0.6005 -0.3873  1.0734
  183POPC   C2520995   7.097   0.665   5.593  0.3451  0.1577 -0.0850
  183POPC   H5R20996   7.166   0.581   5.613 -0.1157 -0.6417 -1.7279
  183POPC   H5S20997   7.139   0.766   5.617 -1.5672  0.4787  2.3836
  183POPC   C2620998   7.061   0.668   5.440 -0.5650 -0.3384 -0.1344
  183POPC   H6R20999   6.982   0.745   5.429 -1.9575 -1.2506  2.5385
  183POPC   H6S21000   7.031   0.562   5.423  1.4969 -0.9743  0.0018
  183POPC   C2721001   7.181   0.708   5.361 -0.2958 -0.0137 -0.0193
  183POPC   H7R21002   7.266   0.637   5.350 -0.0782  0.4570 -1.7046
  183POPC   H7S21003   7.234   0.792   5.411  1.8964 -2.8058  2.6889
  183POPC   C2821004   7.149   0.744   5.218  0.0827  0.5326  0.1257
  183POPC   H8R21005   7.239   0.776   5.161 -0.1347  0.1053 -0.4788
  183POPC   H8S21006   7.071   0.821   5.202 -1.0333 -0.7589 -0.8789
  183POPC   C2921007   7.105   0.623   5.149  0.0385  0.0346  0.1896
  183POPC   H9121008   7.184   0.547   5.146  0.5452  0.5814 -1.0617
  183POPC  C21021009   6.984   0.584   5.103  0.2771  0.3801  0.1596
  183POPC  H10121010   6.977   0.484   5.058 -3.6673  0.3536  0.5144
  183POPC  C21121011   6.868   0.674   5.104 -0.0829  1.0218  0.2166
  183POPC  H11R21012   6.893   0.775   5.143 -0.0165  1.2161 -0.3137
  183POPC  H11S21013   6.790   0.626   5.167  0.5454 -2.7204 -1.5830
  183POPC  C21221014   6.814   0.689   4.962  0.1474 -0.3986  0.1822
  183POPC  H12R21015   6.728   0.759   4.959  0.8296  0.4488 -0.2408
  183POPC  H12S21016   6.783   0.586   4.936  1.8206 -0.9140  0.0778
  183POPC  C21321017   6.909   0.740   4.848  0.2238  0.3395 -0.3184
  183POPC  H13R21018   6.969   0.650   4.824 -0.1557  0.6803 -2.8231
  183POPC  H13S21019   6.970   0.826   4.883  1.2620  0.3019 -1.9662
  183POPC  C21421020   6.831   0.768   4.717  0.6344 -0.3324  0.8569
  183POPC  H14R21021   6.765   0.681   4.696  1.0460 -0.9171  1.9221
  183POPC  H14S21022   6.905   0.776   4.635 -1.8812  0.9996 -1.4939
  183POPC  C21521023   6.746   0.893   4.711  0.2302  0.2119  0.0145
  183POPC  H15R21024   6.811   0.983   4.709  0.9687 -0.3293 -1.1962
  183POPC  H15S21025   6.682   0.902   4.801  1.1128  0.3110  0.6527
  183POPC  C21621026   6.655   0.903   4.583  0.0252 -0.1535  0.7459
  183POPC  H16R21027   6.585   0.819   4.565 -0.4144 -0.0172  1.7359
  183POPC  H16S21028   6.735   0.906   4.505 -1.2779 -1.2652 -0.7040
  183POPC  C21721029   6.580   1.036   4.585 -0.6657  0.0380 -0.4938
  183POPC  H17R21030   6.525   1.034   4.681  1.3158  0.0587  0.6933
  183POPC  H17S21031   6.517   1.030   4.494 -0.2168 -1.0784 -0.7465
  183POPC  C21821032   6.660   1.158   4.577  0.3761 -0.4959 -0.0993
  183POPC  H18R21033   6.736   1.154   4.496 -0.5486  0.2274 -1.0307
  183POPC  H18S21034   6.700   1.175   4.679 -0.6518 -1.0537  0.4075
  183POPC  H18T21035   6.593   1.244   4.555  0.6172 -0.8679 -2.5753
  183POPC   C3321036   7.278   0.136   6.095  0.0516 -0.1256 -0.0845
  183POPC   H3X21037   7.249   0.073   6.182  1.4608  1.2067  1.4203
  183POPC   H3Y21038   7.377   0.104   6.057  0.1900  0.6840 -0.4207
  183POPC   C3421039   7.190   0.110   5.970  0.1327 -0.0951 -0.1174
  183POPC   H4X21040   7.091   0.159   5.981 -0.0128  0.0606 -1.8672
  183POPC   H4Y21041   7.179  -0.001   5.966  1.6019 -0.2627 -0.0867
  183POPC   C3521042   7.242   0.157   5.836 -0.2959  0.0855  0.0291
  183POPC   H5X21043   7.348   0.125   5.827  0.3570  1.0548  3.0764
  183POPC   H5Y21044   7.246   0.267   5.852  0.5067  0.1816 -0.7405
  183POPC   C3621045   7.147   0.147   5.720 -0.4250  0.1666  0.1686
  183POPC   H6X21046   7.058   0.205   5.753  0.8126  0.9620  2.3338
  183POPC   H6Y21047   7.123   0.040   5.703 -2.4987  0.3210  1.8087
  183POPC   C3721048   7.190   0.207   5.584 -0.4730 -0.3241 -0.2695
  183POPC   H7X21049   7.282   0.147   5.566  0.0779  0.4655 -0.1306
  183POPC   H7Y21050   7.220   0.313   5.603 -0.4410 -0.4666  0.4944
  183POPC   C3821051   7.087   0.206   5.480 -0.4334  0.2897  0.5528
  183POPC   H8X21052   7.005   0.274   5.511 -1.5910 -0.5031 -0.6577
  183POPC   H8Y21053   7.045   0.107   5.451 -2.5444  1.4027 -0.4897
  183POPC   C3921054   7.136   0.259   5.341 -0.7244  0.2023  0.7514
  183POPC   H9X21055   7.235   0.212   5.323 -0.4651  1.1723 -0.5372
  183POPC   H9Y21056   7.148   0.369   5.353  1.2176  0.2640 -1.1820
  183POPC  C31021057   7.034   0.242   5.221 -0.6491  0.1045  0.3609
  183POPC  H10X21058   7.093   0.282   5.136 -0.0956  0.2988  0.8317
  183POPC  H10Y21059   6.945   0.307   5.229 -0.7896 -0.2249  1.6723
  183POPC  C31121060   6.993   0.096   5.190 -0.1771  0.3743  0.2881
  183POPC  H11X21061   6.911   0.056   5.253  0.1946 -2.7523 -1.0217
  183POPC  H11Y21062   7.081   0.029   5.207 -1.7791 -1.4773  1.8194
  183POPC  C31221063   6.942   0.072   5.051  0.4122  0.1476 -0.1583
  183POPC  H12X21064   6.947   0.161   4.985 -0.9400 -0.2303 -0.8260
  183POPC  H12Y21065   6.834   0.050   5.064 -0.0674  1.1384 -2.0539
  183POPC  C31321066   7.011  -0.040   4.967  0.2577 -0.5398  0.0590
  183POPC  H13X21067   6.956  -0.032   4.871 -0.3539 -1.0154  0.3636
  183POPC  H13Y21068   6.981  -0.140   5.004 -2.7284  0.7860  1.5247
  183POPC  C31421069   7.160  -0.018   4.948  1.0354  0.2493 -0.5037
  183POPC  H14X21070   7.206  -0.017   5.049 -0.5253  0.9431  0.2398
  183POPC  H14Y21071   7.177   0.083   4.904 -0.8469  1.2813  0.9583
  183POPC  C31521072   7.223  -0.136   4.872  0.7430  0.2668 -0.5638
  183POPC  H15X21073   7.159  -0.141   4.782 -3.0659 -0.3011  1.9573
  183POPC  H15Y21074   7.214  -0.221   4.943 -1.0321 -0.9567 -2.1684
  183POPC  C31621075   7.369  -0.123   4.837 -0.4926  0.9710  0.1418
  183POPC  H16X21076   7.397  -0.212   4.778 -0.6236 -0.0948  1.6201
  183POPC  H16Y21077   7.440  -0.115   4.923  1.4059  1.4889 -1.4161
  183POPC  H16Z21078   7.388  -0.036   4.771 -0.5051  0.4970 -0.4890
  184POPC     N21079   6.851   1.746   6.444  0.5067 -0.2701 -0.2785
  184POPC   C1221080   6.920   1.797   6.576  0.3695  0.3687  0.4119
  184POPC  H12A21081   6.944   1.902   6.566  2.7360 -0.2153 -0.8222
  184POPC  H12B21082   7.003   1.729   6.586 -1.6734 -2.2922  0.3286
  184POPC   C1321083   6.958   1.720   6.341  0.4012  0.1557  0.9285
  184POPC  H13A21084   7.026   1.642   6.370  0.7455 -0.1812 -0.7074
  184POPC  H13B21085   6.918   1.694   6.245  1.8368  0.2177  0.2838
  184POPC  H13C21086   7.013   1.808   6.310  0.5517  0.0125  0.7879
  184POPC   C1421087   6.775   1.621   6.474 -0.5256 -0.3169  0.0253
  184POPC  H14A21088   6.844   1.541   6.500  1.3335  1.2638  0.2005
  184POPC  H14B21089   6.699   1.638   6.548  0.0769 -1.2034  0.8819
  184POPC  H14C21090   6.712   1.595   6.391  1.4918 -1.6107 -1.2068
  184POPC   C1521091   6.754   1.852   6.402 -0.3696  0.4697 -0.3046
  184POPC  H15A21092   6.719   1.835   6.302  0.2073 -4.5845  0.0793
  184POPC  H15B21093   6.806   1.946   6.411 -1.5368  1.2017 -0.9544
  184POPC  H15C21094   6.666   1.852   6.465  0.3174  1.3796  0.6872
  184POPC   C1121095   6.834   1.784   6.705  0.0666 -0.0457  0.3247
  184POPC  H11A21096   6.901   1.806   6.791  1.1948 -0.3537 -0.4455
  184POPC  H11B21097   6.806   1.678   6.722 -1.0867  0.5061  2.1658
  184POPC     P21098   6.726   2.020   6.741 -0.4033 -0.2722  0.0531
  184POPC   O1321099   6.809   2.022   6.865 -0.0971  0.3918  0.3563
  184POPC   O1421100   6.586   2.059   6.747 -0.4307  0.1444 -0.7107
  184POPC   O1221101   6.721   1.864   6.694 -0.0486 -0.2516  0.1756
  184POPC   O1121102   6.812   2.078   6.622 -0.3787 -0.3757  0.1769
  184POPC    C121103   6.843   2.217   6.611  0.1788  0.5532 -0.5184
  184POPC    HA21104   6.920   2.249   6.685  0.6288  2.3863 -1.7181
  184POPC    HB21105   6.750   2.278   6.616  0.7019  1.2912  1.3047
  184POPC    C221106   6.883   2.244   6.466  0.3799 -0.5441 -0.1376
  184POPC    HS21107   6.882   2.355   6.463  0.4058 -0.5214  0.5308
  184POPC   O2121108   6.786   2.184   6.382  0.5031 -0.4728  0.5241
  184POPC   C2121109   6.680   2.260   6.351 -0.6851 -0.1496  0.0037
  184POPC   O2221110   6.662   2.374   6.389 -0.5280 -0.3316  0.2428
  184POPC   C2221111   6.574   2.172   6.275 -0.1515  0.3166 -0.3742
  184POPC   H2R21112   6.523   2.118   6.358 -0.1601  0.2164 -0.4447
  184POPC   H2S21113   6.626   2.101   6.208 -1.0110  1.6778 -2.5785
  184POPC    C321114   7.021   2.192   6.429  0.4209  0.0620  0.0688
  184POPC    HX21115   7.025   2.081   6.423  0.6857  0.0683  0.1252
  184POPC    HY21116   7.089   2.205   6.516  1.8375 -0.3868 -0.9362
  184POPC   O3121117   7.076   2.250   6.311 -0.3834 -0.1183  0.0269
  184POPC   C3121118   7.176   2.190   6.244  0.4807 -0.7375 -0.0981
  184POPC   O3221119   7.227   2.083   6.268  0.0715 -0.4017  0.0124
  184POPC   C3221120   7.209   2.279   6.128  0.1579  0.1476  0.9059
  184POPC   H2X21121   7.211   2.385   6.162 -0.8677  0.0630  1.2788
  184POPC   H2Y21122   7.122   2.273   6.059  0.7810 -0.4509  0.1466
  184POPC   C2321123   6.481   2.265   6.193  0.7455 -0.1179 -0.5108
  184POPC   H3R21124   6.424   2.340   6.251  1.2369 -1.7661  2.2813
  184POPC   H3S21125   6.397   2.203   6.156 -0.4010 -0.1722  1.9699
  184POPC   C2421126   6.557   2.327   6.074 -0.1650  0.5539  0.2079
  184POPC   H4R21127   6.615   2.246   6.025 -0.2822  0.4039  0.3135
  184POPC   H4S21128   6.630   2.407   6.100  0.9998 -0.2805 -0.3834
  184POPC   C2521129   6.469   2.403   5.971 -0.3150  0.5409  0.7832
  184POPC   H5R21130   6.421   2.492   6.017  3.3889  1.5468  3.1161
  184POPC   H5S21131   6.391   2.330   5.938  0.5174  0.0945 -0.2427
  184POPC   C2621132   6.560   2.450   5.851 -0.4794  0.2516 -0.0178
  184POPC   H6R21133   6.634   2.369   5.833 -0.6824  0.2505 -0.8750
  184POPC   H6S21134   6.621   2.536   5.886  3.0388 -1.4493 -1.5221
  184POPC   C2721135   6.486   2.495   5.723 -0.2399 -0.0908  0.7802
  184POPC   H7R21136   6.448   2.598   5.734  3.1914  1.5479 -1.0872
  184POPC   H7S21137   6.414   2.413   5.700  1.0588 -0.5523 -2.1450
  184POPC   C2821138   6.583   2.492   5.608  0.4321  0.1775  0.3052
  184POPC   H8R21139   6.516   2.542   5.534  2.0837  1.0968 -0.6449
  184POPC   H8S21140   6.611   2.392   5.569  0.2017  0.2159  0.0350
  184POPC   C2921141   6.712   2.567   5.618 -0.2053  0.1540  0.3304
  184POPC   H9121142   6.762   2.578   5.715 -1.3162  1.1686  0.8109
  184POPC  C21021143   6.761   2.645   5.520  0.3696  1.1038 -0.1407
  184POPC  H10121144   6.860   2.692   5.532  0.1187  1.8127 -0.7539
  184POPC  C21121145   6.698   2.652   5.377 -0.6057 -0.0316 -0.7447
  184POPC  H11R21146   6.706   2.755   5.337  0.8664  0.4859  0.7644
  184POPC  H11S21147   6.590   2.629   5.385 -0.1336 -2.3099 -0.0571
  184POPC  C21221148   6.774   2.573   5.271  0.0755 -0.1024 -0.6799
  184POPC  H12R21149   6.771   2.462   5.284  1.6436  0.0514  1.4011
  184POPC  H12S21150   6.881   2.602   5.283  0.1653 -0.2541 -1.1086
  184POPC  C21321151   6.730   2.617   5.137 -0.1327  0.2094  0.1473
  184POPC  H13R21152   6.722   2.726   5.112 -1.0832  0.0190 -0.4429
  184POPC  H13S21153   6.627   2.579   5.120 -0.6888  2.2029 -1.3294
  184POPC  C21421154   6.809   2.559   5.021  0.3050  0.1554 -0.1115
  184POPC  H14R21155   6.851   2.458   5.035 -0.2819  0.1945  2.2847
  184POPC  H14S21156   6.898   2.624   5.003 -0.9609  2.3441  1.1429
  184POPC  C21521157   6.733   2.550   4.889  0.4911  0.2710  0.7116
  184POPC  H15R21158   6.650   2.476   4.894  1.7383 -1.1246  2.2674
  184POPC  H15S21159   6.812   2.511   4.822 -0.4244  1.5750 -1.1973
  184POPC  C21621160   6.671   2.680   4.828 -0.1423  0.2859  0.1290
  184POPC  H16R21161   6.749   2.759   4.820  1.0803 -0.7834  1.1248
  184POPC  H16S21162   6.585   2.716   4.888 -1.4146 -1.3521 -0.6364
  184POPC  C21721163   6.620   2.646   4.686  0.0629  0.0164 -0.2815
  184POPC  H17R21164   6.541   2.569   4.694 -0.5566  0.6018 -0.6806
  184POPC  H17S21165   6.702   2.589   4.637  0.0673 -0.3493  0.1509
  184POPC  C21821166   6.578   2.765   4.600  0.0463  0.0486 -0.0170
  184POPC  H18R21167   6.673   2.818   4.575  0.8104 -0.4981  1.5903
  184POPC  H18S21168   6.507   2.826   4.661  0.1229 -0.7300  0.8684
  184POPC  H18T21169   6.521   2.739   4.509 -1.3683 -0.4608  0.9873
  184POPC   C3321170   7.329   2.226   6.042  0.7047  0.5815  0.7448
  184POPC   H3X21171   7.317   2.121   6.008  0.3737  0.0250  2.5097
  184POPC   H3Y21172   7.421   2.233   6.103  1.3379  0.3640 -0.1520
  184POPC   C3421173   7.348   2.309   5.915 -0.2579  0.1755 -0.3677
  184POPC   H4X21174   7.377   2.412   5.944  2.5260 -0.8340  0.7738
  184POPC   H4Y21175   7.250   2.302   5.862 -2.7506 -0.1812  3.8093
  184POPC   C3521176   7.465   2.258   5.836 -0.0457 -0.7472  0.6373
  184POPC   H5X21177   7.432   2.156   5.810  0.9131 -1.5650  2.4453
  184POPC   H5Y21178   7.558   2.243   5.894  0.3207 -0.3326  0.1647
  184POPC   C3621179   7.498   2.335   5.704 -0.2031  0.3300 -0.4274
  184POPC   H6X21180   7.487   2.444   5.724 -0.4667  0.2645 -0.1980
  184POPC   H6Y21181   7.434   2.312   5.616 -1.1549  1.2610 -0.0124
  184POPC   C3721182   7.640   2.311   5.665 -0.2584 -0.0422 -0.3400
  184POPC   H7X21183   7.704   2.355   5.744 -1.3859  1.6882 -0.3266
  184POPC   H7Y21184   7.662   2.355   5.566 -1.0157 -1.0623 -0.9877
  184POPC   C3821185   7.679   2.161   5.639 -0.0615  0.4284 -0.2070
  184POPC   H8X21186   7.596   2.114   5.582  1.8712  0.9224 -3.7199
  184POPC   H8Y21187   7.671   2.114   5.739 -3.9694  1.0736 -0.0535
  184POPC   C3921188   7.813   2.127   5.580 -0.4942 -0.0500 -0.4134
  184POPC   H9X21189   7.890   2.187   5.633 -1.2203  1.1723 -0.7150
  184POPC   H9Y21190   7.815   2.156   5.473 -1.1558  0.9524 -0.1701
  184POPC  C31021191   7.845   1.973   5.578  0.6417 -0.3246 -0.0020
  184POPC  H10X21192   7.755   1.925   5.533  0.5343 -0.6340  0.5364
  184POPC  H10Y21193   7.851   1.924   5.678 -0.4380  1.6440  1.0965
  184POPC  C31121194   7.957   1.940   5.486  0.2277  0.5459 -0.9725
  184POPC  H11X21195   8.051   1.981   5.530 -0.2201  0.7909 -0.2263
  184POPC  H11Y21196   7.943   1.984   5.385  0.2395  2.0800 -0.3403
  184POPC  C31221197   7.982   1.783   5.464 -0.0442 -0.2898  0.1831
  184POPC  H12X21198   8.045   1.739   5.544  0.2477 -0.8873 -0.3731
  184POPC  H12Y21199   8.056   1.772   5.383  1.0305  1.6371  0.8344
  184POPC  C31321200   7.854   1.715   5.430 -0.3363  0.5819  0.4893
  184POPC  H13X21201   7.805   1.768   5.345  0.1968  1.0574  0.4706
  184POPC  H13Y21202   7.779   1.704   5.510 -1.7397  0.4508 -0.8034
  184POPC  C31421203   7.887   1.575   5.376 -0.9504 -0.1612  0.1572
  184POPC  H14X21204   7.996   1.558   5.366 -0.8353  0.0699  0.9616
  184POPC  H14Y21205   7.848   1.551   5.274  3.5488 -0.9797 -1.6118
  184POPC  C31521206   7.866   1.469   5.479  0.2858  0.5390 -0.2553
  184POPC  H15X21207   7.755   1.458   5.485  0.2333 -0.1581 -1.8797
  184POPC  H15Y21208   7.912   1.501   5.575  1.6465 -0.1207 -0.6750
  184POPC  C31621209   7.919   1.336   5.417  0.6603 -0.3211 -0.0304
  184POPC  H16X21210   7.850   1.320   5.332 -0.2308  1.5627  0.2960
  184POPC  H16Y21211   7.899   1.257   5.493 -0.1978  0.2752  0.3663
  184POPC  H16Z21212   8.027   1.354   5.398  0.4806  2.0703  0.9492
  185POPC     N21213   5.813   3.619   2.206  0.3444 -0.6665  0.2811
  185POPC   C1221214   5.818   3.675   2.348 -0.0012 -0.4784 -0.9282
  185POPC  H12A21215   5.889   3.757   2.355  0.0403 -0.4320 -1.7456
  185POPC  H12B21216   5.862   3.603   2.415  2.6196  1.2655 -0.6168
  185POPC   C1321217   5.800   3.716   2.093 -0.1424  0.5091  1.3026
  185POPC  H13A21218   5.707   3.769   2.107 -1.9517 -2.0388 -0.2697
  185POPC  H13B21219   5.888   3.779   2.087  0.6016 -0.6032 -0.0050
  185POPC  H13C21220   5.799   3.666   1.997 -0.3545  0.6196  1.2466
  185POPC   C1421221   5.943   3.553   2.177  0.0254  0.4932 -0.0728
  185POPC  H14A21222   6.021   3.616   2.217  0.4580  0.0048 -0.1198
  185POPC  H14B21223   5.961   3.460   2.229 -0.2255 -0.0560 -0.9476
  185POPC  H14C21224   5.961   3.536   2.072 -3.7606 -2.4562 -0.4642
  185POPC   C1521225   5.712   3.518   2.183  0.5262  0.3740 -1.0433
  185POPC  H15A21226   5.616   3.556   2.215 -0.5608 -1.8800 -1.4701
  185POPC  H15B21227   5.730   3.435   2.250  2.2735  1.1982 -0.4378
  185POPC  H15C21228   5.715   3.490   2.078 -1.0140 -0.6082 -0.8584
  185POPC   C1121229   5.686   3.741   2.389  0.0169  0.7168  0.2915
  185POPC  H11A21230   5.707   3.766   2.496  2.2034  0.0792  0.0530
  185POPC  H11B21231   5.605   3.666   2.381 -0.8447  1.8299 -3.4997
  185POPC     P21232   5.530   3.933   2.337 -0.1985  0.3239 -0.0939
  185POPC   O1321233   5.426   3.919   2.231 -0.2302 -0.1007 -0.4876
  185POPC   O1421234   5.589   4.062   2.375  0.2855  0.1576 -0.2131
  185POPC   O1221235   5.656   3.843   2.296 -0.1350  0.4904 -0.0451
  185POPC   O1121236   5.480   3.863   2.468  0.0706 -0.1204  0.3951
  185POPC    C121237   5.352   3.888   2.525 -0.5239  0.2381 -0.7664
  185POPC    HA21238   5.302   3.975   2.477 -2.4044 -0.5837 -0.3805
  185POPC    HB21239   5.360   3.910   2.634 -2.0290 -0.9692 -0.3795
  185POPC    C221240   5.258   3.768   2.513  0.3946 -0.2156 -0.3964
  185POPC    HS21241   5.252   3.769   2.402  3.0596  3.6274 -0.7304
  185POPC   O2121242   5.132   3.787   2.572  0.2320 -0.0255 -0.2762
  185POPC   C2121243   5.033   3.705   2.539 -0.5135 -0.0486 -0.2750
  185POPC   O2221244   5.036   3.625   2.452 -0.3130  0.1506  0.4703
  185POPC   C2221245   4.911   3.738   2.622 -0.5855 -0.3121 -1.2920
  185POPC   H2R21246   4.917   3.838   2.671 -3.3217 -1.1227  0.9132
  185POPC   H2S21247   4.917   3.675   2.713  1.4082 -0.3947 -1.4448
  185POPC    C321248   5.327   3.643   2.576  0.2890  0.6468  0.8751
  185POPC    HX21249   5.423   3.636   2.520  1.1671  0.3266  2.3578
  185POPC    HY21250   5.269   3.552   2.554 -0.9526  1.7990 -0.8837
  185POPC   O3121251   5.357   3.656   2.713  0.0588  0.4130 -0.3257
  185POPC   C3121252   5.279   3.606   2.806 -0.2474  0.1107  0.3112
  185POPC   O3221253   5.166   3.555   2.797  0.2973  0.4250 -0.1766
  185POPC   C3221254   5.357   3.602   2.945  0.3313  0.3868  0.9572
  185POPC   H2X21255   5.392   3.703   2.976 -0.7511  0.7631  0.9957
  185POPC   H2Y21256   5.444   3.535   2.930  0.3634  0.5407  0.4244
  185POPC   C2321257   4.780   3.734   2.546  0.3588 -0.4365 -0.6511
  185POPC   H3R21258   4.774   3.637   2.492 -0.3677 -1.7742  1.7225
  185POPC   H3S21259   4.778   3.809   2.463  0.8452  2.0104  1.4309
  185POPC   C2421260   4.665   3.740   2.645  0.1600 -0.5887 -0.1387
  185POPC   H4R21261   4.694   3.673   2.728  3.1396 -0.2880 -0.8147
  185POPC   H4S21262   4.571   3.698   2.602  0.1442 -0.1258 -0.5619
  185POPC   C2521263   4.625   3.883   2.687  0.1326  0.0949 -0.1276
  185POPC   H5R21264   4.603   3.929   2.588  0.7922  0.0421 -0.2981
  185POPC   H5S21265   4.713   3.936   2.728  0.9541 -1.4388  0.1604
  185POPC   C2621266   4.511   3.904   2.790 -0.3006  0.0389 -0.4851
  185POPC   H6R21267   4.513   4.010   2.826  0.9016  0.3541 -1.4132
  185POPC   H6S21268   4.534   3.847   2.883 -0.5711  0.5207 -0.1166
  185POPC   C2721269   4.371   3.872   2.752  0.4411  0.5032  0.7544
  185POPC   H7R21270   4.364   3.761   2.760  0.0127  0.2714 -1.9062
  185POPC   H7S21271   4.357   3.896   2.644  1.7786  0.4692  0.5638
  185POPC   C2821272   4.260   3.934   2.840  0.5428  0.3309 -0.0311
  185POPC   H8R21273   4.271   4.042   2.861  1.3822  0.3291 -0.4412
  185POPC   H8S21274   4.281   3.894   2.942  0.0974  0.4210  0.0979
  185POPC   C2921275   4.122   3.901   2.785  0.1321  0.3961  0.3353
  185POPC   H9121276   4.117   3.802   2.738  2.3690  0.8786 -1.0886
  185POPC  C21021277   4.022   3.990   2.791 -0.1486 -0.1726  0.4317
  185POPC  H10121278   3.922   3.961   2.753  0.3582 -0.5189 -0.6804
  185POPC  C21121279   4.027   4.133   2.840  0.2704  0.0607 -0.4687
  185POPC  H11R21280   3.956   4.194   2.781 -1.4149 -1.2610  0.1170
  185POPC  H11S21281   4.124   4.180   2.815  0.6007  0.9221  2.0823
  185POPC  C21221282   3.987   4.156   2.985  0.2165 -0.3137  0.4302
  185POPC  H12R21283   3.876   4.158   2.988  0.1603  2.6228 -0.0451
  185POPC  H12S21284   4.022   4.258   3.016  0.2855 -0.5424  1.1205
  185POPC  C21321285   4.049   4.058   3.082 -0.0273  0.2536  0.5983
  185POPC  H13R21286   4.160   4.063   3.086 -0.0973  1.4443  1.7992
  185POPC  H13S21287   4.007   3.963   3.042  2.5940 -0.7812  0.0910
  185POPC  C21421288   4.004   4.076   3.234  0.2932 -0.0352 -0.3539
  185POPC  H14R21289   4.062   3.996   3.285 -0.9625  0.9756  2.9080
  185POPC  H14S21290   3.897   4.051   3.253  0.0562  1.2434  0.0287
  185POPC  C21521291   4.038   4.201   3.292 -1.2373 -0.9172 -0.2074
  185POPC  H15R21292   3.974   4.282   3.252  1.1857  0.7007 -1.0750
  185POPC  H15S21293   4.141   4.236   3.267 -1.8303  1.6572  0.6688
  185POPC  C21621294   4.036   4.193   3.443 -0.1894 -0.1624  0.0777
  185POPC  H16R21295   4.058   4.291   3.490  0.0126 -0.3717  0.4267
  185POPC  H16S21296   4.115   4.128   3.486  1.1464  1.3769  0.0312
  185POPC  C21721297   3.896   4.166   3.506  0.2126 -0.0176 -0.0899
  185POPC  H17R21298   3.863   4.063   3.481  0.1775 -0.1215  0.3754
  185POPC  H17S21299   3.819   4.240   3.478  3.0181  3.0621 -0.3157
  185POPC  C21821300   3.918   4.171   3.656 -0.0346  0.6039 -0.4639
  185POPC  H18R21301   3.926   4.276   3.690 -0.7644  0.7669 -0.7821
  185POPC  H18S21302   4.011   4.117   3.686  0.1568  1.2613  0.1437
  185POPC  H18T21303   3.835   4.128   3.716  1.1977 -1.0035  0.1713
  185POPC   C3321304   5.259   3.538   3.045 -0.4444 -0.3371  0.2540
  185POPC   H3X21305   5.236   3.441   2.997 -1.5156  1.0969 -2.3187
  185POPC   H3Y21306   5.167   3.593   3.076 -1.5798 -2.1274  0.2642
  185POPC   C3421307   5.335   3.504   3.176 -0.4344  0.0855  0.0550
  185POPC   H4X21308   5.369   3.597   3.226  2.9071 -0.4497 -0.9474
  185POPC   H4Y21309   5.432   3.452   3.160 -0.5017  0.4333 -1.5543
  185POPC   C3521310   5.250   3.411   3.270 -0.0001 -0.3518 -0.1706
  185POPC   H5X21311   5.227   3.324   3.204 -2.0604  0.6801 -0.9175
  185POPC   H5Y21312   5.166   3.482   3.287  1.4251  1.6935 -1.1978
  185POPC   C3621313   5.306   3.378   3.412 -0.8516  0.1963  0.0270
  185POPC   H6X21314   5.401   3.320   3.405 -1.7121 -1.8052  2.7588
  185POPC   H6Y21315   5.239   3.311   3.470 -1.9599 -0.4491 -1.9208
  185POPC   C3721316   5.333   3.496   3.502 -0.2281  0.6017  0.2153
  185POPC   H7X21317   5.236   3.543   3.530 -2.2711 -0.4495 -4.1945
  185POPC   H7Y21318   5.386   3.565   3.433 -1.5263  0.6591 -0.7513
  185POPC   C3821319   5.418   3.463   3.629  0.1316 -0.1421  0.1096
  185POPC   H8X21320   5.515   3.425   3.589 -0.6238 -2.3895  0.2719
  185POPC   H8Y21321   5.374   3.383   3.692 -0.2686 -1.3608 -1.6410
  185POPC   C3921322   5.448   3.586   3.711  1.0862 -0.4874  0.0586
  185POPC   H9X21323   5.363   3.635   3.762 -1.5102 -0.8118 -3.6045
  185POPC   H9Y21324   5.501   3.658   3.645  0.6696 -0.0574  0.1906
  185POPC  C31021325   5.567   3.570   3.817  0.4270  0.0434 -0.6843
  185POPC  H10X21326   5.656   3.524   3.768  1.5072 -0.0991  1.2885
  185POPC  H10Y21327   5.536   3.502   3.900 -0.7419  1.0350 -0.2814
  185POPC  C31121328   5.615   3.701   3.888  0.2133  0.8311 -0.2020
  185POPC  H11X21329   5.640   3.776   3.810 -1.2075  1.0495 -0.4743
  185POPC  H11Y21330   5.705   3.687   3.951  0.2383  1.7539 -0.0144
  185POPC  C31221331   5.507   3.756   3.987  0.9018 -0.2470 -0.0350
  185POPC  H12X21332   5.510   3.688   4.074  1.5415  0.4006  0.4552
  185POPC  H12Y21333   5.406   3.754   3.940  1.2940 -0.7295 -0.8896
  185POPC  C31321334   5.545   3.899   4.035  0.5230 -0.2925 -0.4107
  185POPC  H13X21335   5.560   3.951   3.938  2.0802 -1.0400 -0.5996
  185POPC  H13Y21336   5.645   3.890   4.083 -0.2147 -2.1501  0.8865
  185POPC  C31421337   5.441   3.958   4.132 -0.5572 -0.3351 -0.2170
  185POPC  H14X21338   5.432   3.884   4.215 -0.4489  0.5801  0.6416
  185POPC  H14Y21339   5.351   3.971   4.069 -0.1532  1.9282 -0.4165
  185POPC  C31521340   5.485   4.099   4.175 -0.2454 -0.9275  0.2097
  185POPC  H15X21341   5.499   4.162   4.084 -0.8341 -0.6566  0.3058
  185POPC  H15Y21342   5.573   4.091   4.243  0.0170  0.0303 -0.0063
  185POPC  C31621343   5.374   4.174   4.254  0.9199 -0.2360 -0.9897
  185POPC  H16X21344   5.285   4.201   4.193 -0.7376 -0.8686  1.0233
  185POPC  H16Y21345   5.427   4.269   4.274 -1.3386  1.4069 -2.3220
  185POPC  H16Z21346   5.333   4.119   4.341  0.5583  0.3293 -0.7929
  186POPC     N21347   6.225   5.062   2.322  0.5636 -0.0628  0.2549
  186POPC   C1221348   6.332   5.021   2.223  0.3720 -0.4497  0.2888
  186POPC  H12A21349   6.411   5.093   2.236  1.2848 -1.2720 -0.5973
  186POPC  H12B21350   6.287   5.019   2.124 -1.1497 -0.5989  0.9440
  186POPC   C1321351   6.190   5.205   2.316 -1.2640 -0.4053 -0.4304
  186POPC  H13A21352   6.186   5.255   2.221  0.4276  0.4577 -0.0866
  186POPC  H13B21353   6.104   5.230   2.377  0.3923  1.0185  1.4628
  186POPC  H13C21354   6.273   5.260   2.359  0.5043  0.3896 -4.4450
  186POPC   C1421355   6.100   4.993   2.276  0.7632 -0.2107  0.1433
  186POPC  H14A21356   6.107   4.886   2.292 -0.0115 -0.1173  1.1426
  186POPC  H14B21357   6.017   5.022   2.338 -0.3947  0.8627 -1.8035
  186POPC  H14C21358   6.062   5.005   2.175  0.1824 -0.2140  0.3560
  186POPC   C1521359   6.261   5.025   2.460 -0.0974  0.6302  0.1402
  186POPC  H15A21360   6.173   5.031   2.523  1.1781  0.9076  1.9932
  186POPC  H15B21361   6.342   5.080   2.507 -1.0697  1.8417  0.4705
  186POPC  H15C21362   6.300   4.924   2.459  0.7909  0.9450 -2.1266
  186POPC   C1121363   6.410   4.888   2.241  0.0213  0.5437  0.1565
  186POPC  H11A21364   6.469   4.880   2.147 -0.2733 -2.6837  0.1617
  186POPC  H11B21365   6.338   4.805   2.238  1.2348 -0.5030 -1.3692
  186POPC     P21366   6.634   4.951   2.350  0.2446 -0.3072 -0.1117
  186POPC   O1321367   6.633   5.056   2.455 -0.3698  0.2845  0.4730
  186POPC   O1421368   6.674   4.993   2.212 -0.6579  0.3224 -0.5093
  186POPC   O1221369   6.498   4.881   2.357  0.2852  0.0036  0.1805
  186POPC   O1121370   6.726   4.839   2.401  0.1105 -0.0442  0.7158
  186POPC    C121371   6.674   4.715   2.451 -0.2331 -0.2511 -0.0616
  186POPC    HA21372   6.754   4.640   2.438 -1.0984 -1.2379  0.1838
  186POPC    HB21373   6.589   4.676   2.392 -1.6453  3.1381 -0.5405
  186POPC    C221374   6.631   4.734   2.606 -0.1287 -0.4541 -0.4041
  186POPC    HS21375   6.592   4.839   2.609  0.3688 -0.1661 -2.5386
  186POPC   O2121376   6.744   4.718   2.701 -0.4093  0.4699  0.5172
  186POPC   C2121377   6.739   4.800   2.812 -0.5543  0.0737  0.9156
  186POPC   O2221378   6.652   4.885   2.833  0.0463  0.2419 -0.0899
  186POPC   C2221379   6.856   4.762   2.904 -0.5942 -0.0271 -0.3437
  186POPC   H2R21380   6.955   4.776   2.857  0.5493 -0.8730  1.6810
  186POPC   H2S21381   6.834   4.657   2.931 -0.3348 -0.7738 -2.8189
  186POPC    C321382   6.516   4.642   2.636 -0.1316 -0.5613  0.7203
  186POPC    HX21383   6.553   4.542   2.604 -0.9113 -0.8637  0.7657
  186POPC    HY21384   6.432   4.663   2.566  0.9716 -0.5628 -0.6535
  186POPC   O3121385   6.473   4.655   2.774 -0.3475  0.3288  0.1509
  186POPC   C3121386   6.519   4.549   2.856  0.2385 -0.7671  0.2996
  186POPC   O3221387   6.611   4.468   2.838  0.0150 -0.4220  0.0051
  186POPC   C3221388   6.432   4.546   2.986 -0.5618 -0.7568  0.7460
  186POPC   H2X21389   6.363   4.462   2.963 -1.0599 -0.8925  2.5736
  186POPC   H2Y21390   6.360   4.630   2.980  0.5339  0.1418 -0.2821
  186POPC   C2321391   6.852   4.840   3.043 -0.2281  0.0218 -0.1624
  186POPC   H3R21392   6.930   4.794   3.107  0.6730  1.8145  0.0919
  186POPC   H3S21393   6.756   4.817   3.093 -1.3820 -0.3172 -2.3920
  186POPC   C2421394   6.860   4.991   3.034 -0.5291 -0.2634  0.5733
  186POPC   H4R21395   6.763   5.037   3.006 -0.6097 -1.5272 -1.3975
  186POPC   H4S21396   6.928   5.011   2.949  1.0034 -0.4821  1.7121
  186POPC   C2521397   6.908   5.049   3.169 -0.3714  0.2225 -0.1240
  186POPC   H5R21398   6.896   5.157   3.188 -1.6079 -0.0029  0.4864
  186POPC   H5S21399   7.016   5.029   3.181 -0.5514 -1.5174 -0.9606
  186POPC   C2621400   6.836   4.991   3.287 -0.0266  0.2757 -0.6491
  186POPC   H6R21401   6.845   4.880   3.279 -0.7066  0.2549 -1.2423
  186POPC   H6S21402   6.726   5.000   3.276 -0.1355 -0.9886 -0.8494
  186POPC   C2721403   6.880   5.037   3.427  0.8983  0.1605 -0.1254
  186POPC   H7R21404   6.881   5.148   3.425  3.4214  0.1621 -0.9181
  186POPC   H7S21405   6.986   5.012   3.450  0.5894 -0.8240  0.3099
  186POPC   C2821406   6.777   4.997   3.538 -0.3044  0.1398 -0.3599
  186POPC   H8R21407   6.679   5.044   3.515 -0.4318 -0.5065 -1.1681
  186POPC   H8S21408   6.805   5.048   3.633 -1.3070  2.0095 -0.9972
  186POPC   C2921409   6.763   4.848   3.537 -0.0727 -0.0426  0.7674
  186POPC   H9121410   6.686   4.818   3.464 -1.2115  2.2801  0.9195
  186POPC  C21021411   6.813   4.758   3.624  0.1369  0.0024  0.5284
  186POPC  H10121412   6.776   4.655   3.620 -1.7857  0.6738 -2.1503
  186POPC  C21121413   6.899   4.800   3.746 -0.0888 -0.4832  0.1365
  186POPC  H11R21414   6.935   4.905   3.739 -0.1116 -0.3770  1.5252
  186POPC  H11S21415   6.990   4.737   3.743 -0.3223 -0.8153  0.0393
  186POPC  C21221416   6.828   4.772   3.882 -0.0585 -0.5731  0.1771
  186POPC  H12R21417   6.721   4.800   3.871  0.5703  3.7908  2.7693
  186POPC  H12S21418   6.872   4.840   3.959 -0.8586  1.7208 -1.2913
  186POPC  C21321419   6.836   4.626   3.925  0.0418 -0.1045  0.1368
  186POPC  H13R21420   6.937   4.584   3.906 -0.2958 -0.1211 -1.8216
  186POPC  H13S21421   6.765   4.568   3.862 -0.1503 -0.2593  0.4947
  186POPC  C21421422   6.803   4.592   4.072  0.2167 -0.0987 -0.1915
  186POPC  H14R21423   6.705   4.629   4.111  1.0739  0.4363  1.5661
  186POPC  H14S21424   6.880   4.648   4.128 -1.4069 -0.4964  2.6495
  186POPC  C21521425   6.819   4.444   4.115  0.0700 -0.0699 -0.5580
  186POPC  H15R21426   6.929   4.433   4.126 -0.0847 -0.3028  0.9459
  186POPC  H15S21427   6.781   4.376   4.036  1.2102 -0.7130 -0.5880
  186POPC  C21621428   6.753   4.415   4.257 -0.1711 -0.2664 -0.3339
  186POPC  H16R21429   6.787   4.313   4.287  0.1604  0.0044  0.2240
  186POPC  H16S21430   6.644   4.422   4.240 -0.0974  0.5074 -0.5137
  186POPC  C21721431   6.809   4.502   4.368 -0.2368 -0.1560 -0.0101
  186POPC  H17R21432   6.744   4.486   4.457 -1.7265  1.6391 -0.6969
  186POPC  H17S21433   6.784   4.610   4.355  1.6261  0.4059  0.8172
  186POPC  C21821434   6.953   4.488   4.420  0.5940  0.4839  0.2595
  186POPC  H18R21435   6.953   4.382   4.453 -3.2597  0.2316 -0.1321
  186POPC  H18S21436   7.037   4.500   4.348  1.1100  0.1276  0.7868
  186POPC  H18T21437   6.976   4.546   4.512  2.0170  2.0322 -1.0103
  186POPC   C3321438   6.500   4.565   3.120  0.1940  0.5533 -0.4709
  186POPC   H3X21439   6.580   4.642   3.120  0.6943  0.0362 -1.1127
  186POPC   H3Y21440   6.546   4.467   3.142 -1.6639 -0.1875  0.3222
  186POPC   C3421441   6.402   4.591   3.238  0.6582  0.1238  0.0777
  186POPC   H4X21442   6.335   4.503   3.238  0.9705 -0.1530 -2.2569
  186POPC   H4Y21443   6.354   4.688   3.215 -0.5767 -0.8790 -1.8355
  186POPC   C3521444   6.474   4.586   3.370 -0.0181  0.0188  0.2171
  186POPC   H5X21445   6.554   4.663   3.373 -1.3563  1.4615  0.7147
  186POPC   H5Y21446   6.524   4.489   3.385  0.5526  0.3972  0.8230
  186POPC   C3621447   6.390   4.617   3.493 -0.4529 -0.3726 -0.5948
  186POPC   H6X21448   6.289   4.574   3.509 -1.2640  1.5927 -0.0625
  186POPC   H6Y21449   6.382   4.728   3.499  2.1521 -0.1747  0.3681
  186POPC   C3721450   6.483   4.579   3.610 -0.5000 -0.8997  0.3326
  186POPC   H7X21451   6.549   4.662   3.644 -0.8992 -0.1554 -0.6704
  186POPC   H7Y21452   6.558   4.508   3.571  1.2585  0.5348  0.9447
  186POPC   C3821453   6.404   4.532   3.735 -0.1276  0.3472  0.0911
  186POPC   H8X21454   6.342   4.443   3.715 -0.2776  0.1954  1.1745
  186POPC   H8Y21455   6.337   4.613   3.771 -0.6682  0.6178 -1.4511
  186POPC   C3921456   6.490   4.490   3.847  0.2385 -0.1655 -0.1907
  186POPC   H9X21457   6.558   4.574   3.872  0.7605 -0.4951 -0.4851
  186POPC   H9Y21458   6.554   4.403   3.821 -2.6859 -2.0101 -1.8458
  186POPC  C31021459   6.424   4.455   3.980  0.1713 -0.7083  0.2151
  186POPC  H10X21460   6.338   4.523   3.998 -0.7354 -0.7380 -3.3114
  186POPC  H10Y21461   6.502   4.481   4.055  0.8839  0.2817 -0.8337
  186POPC  C31121462   6.389   4.311   4.004 -0.3959 -0.7234 -0.0680
  186POPC  H11X21463   6.480   4.249   3.986  2.1656  2.1682  1.9077
  186POPC  H11Y21464   6.316   4.285   3.924  0.2980  1.0420 -1.3589
  186POPC  C31221465   6.339   4.280   4.137  0.2713 -0.3613 -0.4324
  186POPC  H12X21466   6.418   4.302   4.212  1.3956 -2.9953 -0.7398
  186POPC  H12Y21467   6.336   4.169   4.142  1.8006 -0.5133 -2.1109
  186POPC  C31321468   6.206   4.336   4.166  0.2348 -0.6560 -0.3718
  186POPC  H13X21469   6.140   4.297   4.086 -0.2896  1.7724 -1.1973
  186POPC  H13Y21470   6.208   4.447   4.163 -0.4151 -0.6307 -0.1752
  186POPC  C31421471   6.152   4.295   4.305  0.2136 -0.2396 -0.5091
  186POPC  H14X21472   6.065   4.356   4.339 -0.0980 -0.8673 -0.1795
  186POPC  H14Y21473   6.235   4.315   4.376 -0.5227 -0.6242  0.4796
  186POPC  C31521474   6.115   4.141   4.316 -0.4978 -0.1429 -0.6297
  186POPC  H15X21475   6.114   4.112   4.423 -0.2708 -0.0418 -0.5985
  186POPC  H15Y21476   6.193   4.081   4.263  0.1784  0.6461 -0.5497
  186POPC  C31621477   5.981   4.118   4.261  0.0802 -0.4148 -0.1951
  186POPC  H16X21478   5.912   4.201   4.288  0.2482 -0.4448  0.3370
  186POPC  H16Y21479   5.926   4.027   4.294 -0.1407  0.2366  1.2575
  186POPC  H16Z21480   5.989   4.117   4.150  1.1266  0.3909 -0.1388
  187POPC     N21481   5.029   1.602   2.009  0.1922 -0.5539  0.0384
  187POPC   C1221482   4.943   1.570   2.131  0.3165  0.9490 -0.4502
  187POPC  H12A21483   4.852   1.523   2.097 -0.7306  2.2677  0.4220
  187POPC  H12B21484   4.913   1.662   2.179 -0.7818  0.4081 -0.0686
  187POPC   C1321485   4.964   1.682   1.907  0.1616 -0.0129 -0.5356
  187POPC  H13A21486   4.940   1.780   1.947  0.2891 -0.3371  0.3483
  187POPC  H13B21487   5.026   1.695   1.820  1.1494 -1.3228 -0.0467
  187POPC  H13C21488   4.876   1.628   1.876 -0.0953  0.0984 -0.0122
  187POPC   C1421489   5.162   1.662   2.046  0.1488  0.4702  0.2593
  187POPC  H14A21490   5.211   1.604   2.122 -0.7500 -1.8553 -0.8512
  187POPC  H14B21491   5.223   1.655   1.957 -1.2657  2.2823 -0.9335
  187POPC  H14C21492   5.144   1.762   2.082  1.0075  0.6943  0.0803
  187POPC   C1521493   5.063   1.471   1.938 -0.4605 -0.2031 -0.3818
  187POPC  H15A21494   5.062   1.394   2.015  0.0990 -0.5378 -0.7028
  187POPC  H15B21495   5.158   1.488   1.890  0.2549  1.2587  1.3934
  187POPC  H15C21496   5.002   1.447   1.852 -1.3656  0.9627 -0.0921
  187POPC   C1121497   5.001   1.471   2.238  0.0242 -0.2504 -0.2502
  187POPC  H11A21498   4.943   1.471   2.332  2.1954 -0.2455  1.1645
  187POPC  H11B21499   5.105   1.493   2.272  0.3473 -2.1689  0.1215
  187POPC     P21500   4.874   1.253   2.173  0.3038  0.1994  0.3043
  187POPC   O1321501   4.898   1.119   2.111 -0.3969 -0.0105  0.5073
  187POPC   O1421502   4.762   1.340   2.115  0.1109 -0.1991 -0.4905
  187POPC   O1221503   5.008   1.337   2.185  0.5460 -0.1839 -0.1904
  187POPC   O1121504   4.839   1.235   2.323  0.1750  0.5950  0.0875
  187POPC    C121505   4.922   1.157   2.406  0.2711 -0.2138  0.2490
  187POPC    HA21506   4.937   1.194   2.510  3.5118  0.3191 -0.3105
  187POPC    HB21507   5.024   1.139   2.365 -0.2707 -3.5243  0.1018
  187POPC    C221508   4.860   1.012   2.431 -0.1949 -0.0906 -0.5067
  187POPC    HS21509   4.820   0.970   2.336 -0.2139  0.7170 -0.8670
  187POPC   O2121510   4.750   1.019   2.520  0.6814 -0.0780 -0.0440
  187POPC   C2121511   4.692   0.905   2.546  0.0969  0.1255  0.1347
  187POPC   O2221512   4.714   0.800   2.487  0.2485  0.5656  0.3127
  187POPC   C2221513   4.582   0.922   2.656  0.0614  0.1547 -0.1930
  187POPC   H2R21514   4.510   0.994   2.613  1.6312  1.5778 -0.5388
  187POPC   H2S21515   4.626   0.964   2.748  0.4087  0.7804 -0.6375
  187POPC    C321516   4.974   0.911   2.476  0.5124 -0.4868 -0.1489
  187POPC    HX21517   5.068   0.946   2.427 -1.7263  2.2673 -2.9421
  187POPC    HY21518   4.937   0.813   2.439 -4.4219  0.9548  0.2583
  187POPC   O3121519   4.990   0.912   2.616  0.6465 -0.0217  0.5277
  187POPC   C3121520   5.057   0.800   2.656 -0.0883  0.4548  0.0234
  187POPC   O3221521   5.106   0.718   2.578  0.0431 -0.0469  0.4097
  187POPC   C3221522   5.079   0.789   2.806  0.0238 -0.7461  0.4019
  187POPC   H2X21523   5.095   0.894   2.838  1.8818  0.0962 -2.7524
  187POPC   H2Y21524   5.177   0.737   2.815  1.4915  2.1286  2.3360
  187POPC   C2321525   4.510   0.783   2.695  0.4156 -0.1690 -0.6137
  187POPC   H3R21526   4.593   0.719   2.731  0.3834  0.2517  0.2415
  187POPC   H3S21527   4.466   0.739   2.603  2.1310 -0.1122 -1.4977
  187POPC   C2421528   4.403   0.790   2.801 -0.0407 -0.9334 -0.1606
  187POPC   H4R21529   4.376   0.688   2.835  0.4912 -0.1527  2.8798
  187POPC   H4S21530   4.326   0.847   2.745  1.0061  0.0283 -0.6628
  187POPC   C2521531   4.436   0.858   2.936 -0.4341  0.2362  0.0193
  187POPC   H5R21532   4.344   0.848   2.998 -1.6830 -2.6957 -2.0624
  187POPC   H5S21533   4.437   0.967   2.917 -1.1203  0.4436  1.0469
  187POPC   C2621534   4.558   0.804   3.009  0.3226  0.0491  0.3271
  187POPC   H6R21535   4.647   0.797   2.943  0.9878 -2.7833  1.3736
  187POPC   H6S21536   4.551   0.695   3.030  2.3910  0.0770  1.4140
  187POPC   C2721537   4.591   0.890   3.133  0.0973 -0.2922  0.1434
  187POPC   H7R21538   4.576   0.996   3.104 -2.1285 -0.6283 -0.0903
  187POPC   H7S21539   4.688   0.878   3.187  0.0203  4.1447  1.6376
  187POPC   C2821540   4.480   0.860   3.234  0.0510  0.2842  0.1922
  187POPC   H8R21541   4.486   0.761   3.284 -1.0076 -0.8512 -1.8168
  187POPC   H8S21542   4.383   0.868   3.182  0.0165 -1.0895  0.0063
  187POPC   C2921543   4.485   0.979   3.322  0.0372  0.5122 -0.1014
  187POPC   H9121544   4.453   1.074   3.276  0.7715  0.0644 -1.6066
  187POPC  C21021545   4.519   0.975   3.456  0.5277 -0.4167 -0.7483
  187POPC  H10121546   4.530   1.068   3.513 -0.3863  0.7100 -2.3528
  187POPC  C21121547   4.553   0.850   3.537 -0.6176  0.3564  0.9754
  187POPC  H11R21548   4.664   0.847   3.536 -0.6045  0.7545  1.0319
  187POPC  H11S21549   4.528   0.755   3.485  3.1513 -0.5857  0.6408
  187POPC  C21221550   4.487   0.855   3.678 -1.0654  0.4167  0.1213
  187POPC  H12R21551   4.504   0.752   3.717 -2.8270  0.0038 -0.1281
  187POPC  H12S21552   4.379   0.864   3.655 -1.3238 -0.5333  0.9003
  187POPC  C21321553   4.546   0.949   3.782 -0.5070 -0.3189  0.8280
  187POPC  H13R21554   4.526   1.056   3.757  0.1064 -0.7613 -1.9382
  187POPC  H13S21555   4.657   0.948   3.777 -0.4700  2.1909 -1.7851
  187POPC  C21421556   4.496   0.936   3.925  0.1714  0.0503 -0.0075
  187POPC  H14R21557   4.519   0.832   3.957  2.1610  0.6294  0.5805
  187POPC  H14S21558   4.386   0.946   3.936  0.0156 -2.3581  1.2125
  187POPC  C21521559   4.557   1.041   4.015  0.5231  0.6080  0.2262
  187POPC  H15R21560   4.534   1.145   3.982  0.0305 -0.3322 -2.6943
  187POPC  H15S21561   4.667   1.029   4.018  0.4754  0.2849  0.8411
  187POPC  C21621562   4.505   1.038   4.162  0.6992  0.7985 -0.4087
  187POPC  H16R21563   4.395   1.047   4.169  0.4179 -2.3964  1.3884
  187POPC  H16S21564   4.548   1.123   4.219 -0.9016  0.5574  1.2695
  187POPC  C21721565   4.541   0.906   4.238 -0.1398  0.2181 -0.5011
  187POPC  H17R21566   4.652   0.910   4.247  0.2520 -2.1525 -3.0056
  187POPC  H17S21567   4.523   0.819   4.172  1.4015  0.2488 -1.0118
  187POPC  C21821568   4.469   0.903   4.376 -0.5505 -0.0908  0.0863
  187POPC  H18R21569   4.511   0.818   4.435  0.3529 -0.6909 -1.3648
  187POPC  H18S21570   4.362   0.888   4.350 -0.4135 -0.1569 -0.4540
  187POPC  H18T21571   4.478   1.000   4.429 -2.2657 -0.4371  1.0797
  187POPC   C3321572   4.961   0.737   2.895 -0.7157  0.3053 -0.4643
  187POPC   H3X21573   4.928   0.633   2.878 -2.6417  0.9709 -1.0582
  187POPC   H3Y21574   4.869   0.798   2.887 -1.5375 -0.3740  2.6517
  187POPC   C3421575   5.004   0.756   3.041 -0.2988  0.1182  0.3601
  187POPC   H4X21576   5.020   0.865   3.060 -0.5196  0.5234 -1.5434
  187POPC   H4Y21577   5.107   0.718   3.058 -0.9848 -1.1232  1.9740
  187POPC   C3521578   4.925   0.692   3.152  0.4080 -0.1210  0.2959
  187POPC   H5X21579   4.929   0.582   3.170 -1.7314 -0.3694 -0.4277
  187POPC   H5Y21580   4.817   0.717   3.152  0.0647 -1.4966  0.9264
  187POPC   C3621581   4.976   0.752   3.288 -0.3352  0.4779 -0.5022
  187POPC   H6X21582   4.931   0.851   3.311  1.7899  1.7534 -1.5190
  187POPC   H6Y21583   5.085   0.769   3.281  0.2184 -1.3382  1.9855
  187POPC   C3721584   4.939   0.658   3.413  0.0287 -0.6123  0.3175
  187POPC   H7X21585   5.001   0.566   3.407  0.6753 -0.1357 -0.8119
  187POPC   H7Y21586   4.834   0.627   3.396  0.4145 -0.9368 -1.7697
  187POPC   C3821587   4.946   0.745   3.539  0.1813  0.1239  1.3080
  187POPC   H8X21588   4.865   0.821   3.534 -2.0880 -2.1853 -0.2691
  187POPC   H8Y21589   5.043   0.799   3.536  0.4891 -0.4255 -1.3052
  187POPC   C3921590   4.921   0.654   3.659 -0.2017  0.3351 -0.1615
  187POPC   H9X21591   4.991   0.568   3.656 -3.2001 -2.2395 -0.3334
  187POPC   H9Y21592   4.820   0.611   3.642  0.0152 -0.8177  1.2343
  187POPC  C31021593   4.933   0.709   3.804 -0.7248  0.0532  0.0492
  187POPC  H10X21594   4.847   0.771   3.838 -0.7643  0.2766 -0.4602
  187POPC  H10Y21595   5.017   0.781   3.809 -0.8346  0.2217 -0.5024
  187POPC  C31121596   4.959   0.598   3.907 -0.1194  0.8090 -0.5047
  187POPC  H11X21597   5.010   0.647   3.993  0.4364 -2.6857  1.3345
  187POPC  H11Y21598   5.037   0.528   3.870 -1.6910  0.2540 -2.9952
  187POPC  C31221599   4.830   0.518   3.949  0.1188  0.4617  0.1611
  187POPC  H12X21600   4.789   0.473   3.856  0.7026  0.4011 -0.0724
  187POPC  H12Y21601   4.759   0.601   3.971  0.7531  1.5841 -1.7661
  187POPC  C31321602   4.833   0.426   4.069  0.1688  0.3383 -0.8702
  187POPC  H13X21603   4.882   0.329   4.042  1.3180  0.9312 -0.9933
  187POPC  H13Y21604   4.728   0.407   4.100  0.9921  0.5964  2.3244
  187POPC  C31421605   4.917   0.484   4.180  0.3267  0.1204  0.5101
  187POPC  H14X21606   4.885   0.589   4.201 -0.6746 -0.2214  0.7685
  187POPC  H14Y21607   5.025   0.488   4.158  0.3057  2.2889  0.5612
  187POPC  C31521608   4.899   0.422   4.317 -0.3334  0.1466 -0.8790
  187POPC  H15X21609   4.955   0.326   4.320  1.5479  1.2372  0.7009
  187POPC  H15Y21610   4.793   0.394   4.335  0.9033 -4.3933  0.6457
  187POPC  C31621611   4.967   0.497   4.436 -0.2126 -0.7902  0.3312
  187POPC  H16X21612   5.066   0.540   4.413 -0.6758  1.1858  1.8736
  187POPC  H16Y21613   4.959   0.435   4.528 -0.2644 -1.2382  0.0290
  187POPC  H16Z21614   4.906   0.586   4.461  2.0010  1.8692 -2.9765
  188POPC     N21615   1.595   1.068   2.680 -0.6324  0.1449 -0.4418
  188POPC   C1221616   1.664   0.997   2.800  0.5662  0.0537 -0.4376
  188POPC  H12A21617   1.603   1.006   2.888  1.3043 -1.3132  0.2393
  188POPC  H12B21618   1.743   1.061   2.835  1.7027 -1.1175 -0.7893
  188POPC   C1321619   1.454   1.030   2.667  0.1948 -0.6986 -0.6220
  188POPC  H13A21620   1.407   1.082   2.585  2.3501  3.4746  0.4716
  188POPC  H13B21621   1.444   0.923   2.660 -0.7270 -1.1943  4.3657
  188POPC  H13C21622   1.399   1.044   2.759  0.9816  1.3910 -0.3951
  188POPC   C1421623   1.592   1.216   2.699 -0.1965  0.4007 -0.2198
  188POPC  H14A21624   1.537   1.238   2.789  0.5149  0.8083  0.1219
  188POPC  H14B21625   1.693   1.254   2.697 -0.5120  1.4486 -3.5596
  188POPC  H14C21626   1.540   1.266   2.618 -0.3983  2.4871  1.1293
  188POPC   C1521627   1.673   1.019   2.559 -0.0036 -0.6016 -0.0857
  188POPC  H15A21628   1.705   0.917   2.573  0.7190 -0.3198  0.3528
  188POPC  H15B21629   1.758   1.083   2.540  1.0317 -1.4993  1.3015
  188POPC  H15C21630   1.608   1.022   2.472 -0.1536  0.5013  0.0547
  188POPC   C1121631   1.707   0.851   2.791  0.4980  0.9208 -0.3075
  188POPC  H11A21632   1.753   0.823   2.889  0.4868 -0.5015 -0.6929
  188POPC  H11B21633   1.786   0.832   2.716  0.1712  1.4738 -0.8024
  188POPC     P21634   1.505   0.711   2.874 -0.1536 -0.1602 -0.0456
  188POPC   O1321635   1.399   0.638   2.803 -0.0104  0.6517 -0.5014
  188POPC   O1421636   1.456   0.824   2.963 -0.4659  0.0209  0.3052
  188POPC   O1221637   1.599   0.762   2.759 -0.2362  0.6906 -0.2318
  188POPC   O1121638   1.603   0.609   2.954  0.0213 -0.6764  0.6382
  188POPC    C121639   1.654   0.485   2.897 -0.3850  0.4293 -0.0586
  188POPC    HA21640   1.752   0.464   2.947  1.1948 -0.0500 -3.1236
  188POPC    HB21641   1.686   0.492   2.791  0.7612 -0.6826  0.1732
  188POPC    C221642   1.564   0.372   2.927  0.0027  0.5928 -0.2280
  188POPC    HS21643   1.467   0.399   2.881 -0.5106 -1.2087 -0.2816
  188POPC   O2121644   1.571   0.357   3.076  0.1702  0.3689  0.7829
  188POPC   C2121645   1.463   0.310   3.131  0.1088 -0.3290 -0.2198
  188POPC   O2221646   1.361   0.274   3.077 -0.2256 -0.4960 -0.1950
  188POPC   C2221647   1.486   0.306   3.282 -0.2729 -0.1126  0.1379
  188POPC   H2R21648   1.440   0.398   3.324  2.2631  0.5769  1.6609
  188POPC   H2S21649   1.594   0.327   3.300 -0.3972 -0.4987  1.4122
  188POPC    C321650   1.608   0.233   2.874 -0.2615 -0.2788  0.2139
  188POPC    HX21651   1.587   0.238   2.765 -3.5201 -3.6002  0.4874
  188POPC    HY21652   1.538   0.156   2.912 -1.2950 -0.6877 -2.2721
  188POPC   O3121653   1.746   0.202   2.897  0.0821 -0.9174 -0.7875
  188POPC   C3121654   1.773   0.141   3.015 -0.5738  0.2793  0.0593
  188POPC   O3221655   1.688   0.099   3.089  0.2076  0.6264  0.3898
  188POPC   C3221656   1.918   0.129   3.041 -0.3970  0.3530 -0.5317
  188POPC   H2X21657   1.966   0.219   2.997  2.4900 -1.7777 -2.0644
  188POPC   H2Y21658   1.958   0.038   2.991  1.9718  1.7222 -1.2835
  188POPC   C2321659   1.450   0.174   3.348  0.3335  0.1598 -0.1355
  188POPC   H3R21660   1.519   0.091   3.322 -0.2667 -0.2571 -0.4074
  188POPC   H3S21661   1.346   0.167   3.309 -0.0049  0.1828  0.7387
  188POPC   C2421662   1.440   0.183   3.500 -0.6448  0.2599 -0.5550
  188POPC   H4R21663   1.345   0.233   3.531 -1.4848 -2.6985  2.1672
  188POPC   H4S21664   1.535   0.235   3.526  0.8171 -0.6681 -3.6010
  188POPC   C2521665   1.429   0.052   3.567 -0.2584  0.9875  0.5728
  188POPC   H5R21666   1.517  -0.006   3.533 -0.4030  1.0354  0.1080
  188POPC   H5S21667   1.340  -0.008   3.538  0.0768  1.1579 -0.9007
  188POPC   C2621668   1.449   0.061   3.721  0.5164  0.7514  0.4314
  188POPC   H6R21669   1.548   0.107   3.739  0.5895  0.7526  0.0291
  188POPC   H6S21670   1.463  -0.036   3.774  0.6631  0.3091 -0.4023
  188POPC   C2721671   1.344   0.148   3.792  0.1749 -0.1488  0.1254
  188POPC   H7R21672   1.242   0.116   3.763  0.0430  0.7343 -0.4226
  188POPC   H7S21673   1.353   0.257   3.774 -1.0609 -0.2172 -1.0156
  188POPC   C2821674   1.364   0.155   3.945  0.0720  0.5445  0.6525
  188POPC   H8R21675   1.270   0.203   3.981  0.7700  2.1217  0.4391
  188POPC   H8S21676   1.445   0.228   3.964  0.6248  0.5031 -1.3318
  188POPC   C2921677   1.371   0.024   4.012  0.1993  0.0002  0.5621
  188POPC   H9121678   1.304  -0.052   3.969 -0.9202  2.6070 -2.8480
  188POPC  C21021679   1.451  -0.005   4.118  0.7204 -0.8643 -0.7349
  188POPC  H10121680   1.458  -0.108   4.156 -1.0142 -0.8489 -0.2660
  188POPC  C21121681   1.548   0.082   4.197 -0.1589  0.4202  0.1359
  188POPC  H11R21682   1.529   0.188   4.170 -1.7165  0.9260  2.8485
  188POPC  H11S21683   1.650   0.053   4.163 -0.8544  1.3446 -3.1752
  188POPC  C21221684   1.543   0.071   4.349 -0.5906  0.0987  0.1912
  188POPC  H12R21685   1.622   0.139   4.386 -0.9706  0.0441  1.1577
  188POPC  H12S21686   1.587  -0.027   4.380 -1.4351  0.3063  2.2003
  188POPC  C21321687   1.410   0.116   4.416 -0.2259  0.1130 -0.0403
  188POPC  H13R21688   1.325   0.053   4.380  0.6750 -0.8451 -0.5247
  188POPC  H13S21689   1.391   0.221   4.384  1.9132  0.1011 -1.5093
  188POPC  C21421690   1.386   0.105   4.565  0.8833  0.3686 -0.1474
  188POPC  H14R21691   1.291   0.154   4.598 -0.3509 -2.3981  0.7003
  188POPC  H14S21692   1.467   0.144   4.630 -0.9887  1.1546  1.8317
  188POPC  C21521693   1.375  -0.047   4.607  0.4486 -0.5217  0.3175
  188POPC  H15R21694   1.473  -0.092   4.581 -0.1056 -0.9799 -1.1100
  188POPC  H15S21695   1.296  -0.096   4.546  0.1605  0.7086 -0.3530
  188POPC  C21621696   1.331  -0.058   4.756 -0.5007  0.2111 -0.1857
  188POPC  H16R21697   1.224  -0.053   4.783 -0.1912 -1.1150  1.4520
  188POPC  H16S21698   1.385   0.022   4.812 -2.1319  0.0882  1.6340
  188POPC  C21721699   1.383  -0.195   4.818 -0.4485 -0.6364 -0.2016
  188POPC  H17R21700   1.491  -0.204   4.794  0.1198  4.2409 -0.4420
  188POPC  H17S21701   1.334  -0.278   4.762 -2.6049  0.4672 -0.0307
  188POPC  C21821702   1.362  -0.219   4.968 -0.2276 -0.3451 -0.8542
  188POPC  H18R21703   1.452  -0.190   5.026 -0.8987 -0.3910  0.2260
  188POPC  H18S21704   1.343  -0.326   4.990 -0.8173  0.1842  1.3929
  188POPC  H18T21705   1.281  -0.155   5.009  0.1872  0.5257 -1.3512
  188POPC   C3321706   1.950   0.132   3.195  0.1820  0.8831 -0.1442
  188POPC   H3X21707   2.058   0.132   3.223  0.3397 -0.3583 -0.6874
  188POPC   H3Y21708   1.892   0.048   3.239 -2.0558  1.7435 -1.3102
  188POPC   C3421709   1.903   0.258   3.272 -0.2431 -0.6088  0.3385
  188POPC   H4X21710   1.792   0.267   3.269 -0.6057 -3.9752 -0.2068
  188POPC   H4Y21711   1.938   0.353   3.227 -0.8141 -0.4505  0.2246
  188POPC   C3521712   1.942   0.259   3.417 -0.0436  0.7595 -0.5379
  188POPC   H5X21713   1.927   0.367   3.437 -1.1362  0.4043  0.6455
  188POPC   H5Y21714   2.051   0.236   3.426 -0.7899 -2.5439  1.5274
  188POPC   C3621715   1.863   0.168   3.515 -0.1487  0.1129  0.5037
  188POPC   H6X21716   1.905   0.066   3.502 -0.3279  0.0136  0.6923
  188POPC   H6Y21717   1.755   0.173   3.489  0.2084 -0.2412 -1.1689
  188POPC   C3721718   1.862   0.207   3.660  0.4654  0.4501  0.5782
  188POPC   H7X21719   1.796   0.147   3.726 -0.1743  1.7900  1.2077
  188POPC   H7Y21720   1.817   0.309   3.666 -2.8237 -0.8640  0.4409
  188POPC   C3821721   2.000   0.206   3.727  0.6650  0.2681 -0.4049
  188POPC   H8X21722   2.039   0.308   3.705  0.3326  0.2672 -1.0063
  188POPC   H8Y21723   2.069   0.129   3.686 -0.3493 -2.2304  2.2094
  188POPC   C3921724   1.987   0.191   3.880 -0.0981 -0.2361  0.2013
  188POPC   H9X21725   1.895   0.241   3.918  0.7828  1.8005 -0.2072
  188POPC   H9Y21726   2.067   0.252   3.928 -1.2472 -0.7712  2.9630
  188POPC  C31021727   2.003   0.054   3.946  0.1297 -0.3330  0.3632
  188POPC  H10X21728   2.101   0.015   3.909 -0.9743 -1.7834 -1.1590
  188POPC  H10Y21729   1.928  -0.020   3.912  0.9931 -0.1410 -2.2104
  188POPC  C31121730   2.009   0.068   4.099  0.3391 -0.1646 -0.2755
  188POPC  H11X21731   1.904   0.089   4.128  0.0262 -2.1429  0.1523
  188POPC  H11Y21732   2.059   0.160   4.137 -0.5827 -0.3286  1.4085
  188POPC  C31221733   2.048  -0.062   4.171  0.7511 -0.3176  0.8447
  188POPC  H12X21734   2.159  -0.064   4.173  0.9139 -2.0141 -2.2826
  188POPC  H12Y21735   2.015  -0.145   4.104 -0.0727  0.5873  0.0870
  188POPC  C31321736   1.977  -0.098   4.301  0.1796  0.2391 -0.4925
  188POPC  H13X21737   1.871  -0.114   4.273 -0.0280  0.6764  0.0449
  188POPC  H13Y21738   1.971  -0.009   4.366 -1.4300 -1.1044  1.3151
  188POPC  C31421739   2.030  -0.215   4.378 -0.0897  0.5784  0.3217
  188POPC  H14X21740   2.139  -0.209   4.401 -0.3321 -1.0534  2.2466
  188POPC  H14Y21741   2.010  -0.304   4.315 -2.6366  1.8472 -0.8025
  188POPC  C31521742   1.957  -0.239   4.514 -0.0549  0.1451 -0.3063
  188POPC  H15X21743   1.850  -0.268   4.511 -0.5797  1.8151  0.8363
  188POPC  H15Y21744   1.963  -0.153   4.583  0.4739  0.4271 -0.6945
  188POPC  C31621745   2.032  -0.348   4.590  0.1537  0.6896  0.4606
  188POPC  H16X21746   2.121  -0.395   4.543 -0.6161 -0.2858 -0.0685
  188POPC  H16Y21747   1.968  -0.423   4.642  1.6458  0.1779  1.6469
  188POPC  H16Z21748   2.088  -0.303   4.675  2.3866 -1.5835  0.3299
  189SAPI   C1221749   5.300   5.353   7.102 -0.2684  0.6003  0.9461
  189SAPI    H221750   5.301   5.242   7.109 -1.3423  0.2808 -2.2252
  189SAPI    O221751   5.166   5.399   7.116 -0.0057 -0.5759 -0.1214
  189SAPI   HO221752   5.104   5.369   7.049  0.4094 -0.9805 -0.3343
  189SAPI   C1321753   5.388   5.410   7.215 -0.0788 -1.0661 -0.3497
  189SAPI    H321754   5.491   5.368   7.209  1.6410  2.0295  3.1107
  189SAPI    O321755   5.344   5.379   7.343 -0.5116 -0.0979  0.4593
  189SAPI   HO321756   5.249   5.366   7.336 -0.5677  0.2942  0.4477
  189SAPI   C1421757   5.411   5.556   7.195 -0.9140  0.3879  0.1015
  189SAPI    H421758   5.313   5.605   7.215 -1.1405 -0.4172  0.9981
  189SAPI    O421759   5.507   5.603   7.286  0.1158 -0.0687 -1.3001
  189SAPI   HO421760   5.473   5.586   7.374 -0.4668  1.5784 -1.1573
  189SAPI   C1521761   5.453   5.596   7.057  0.0429 -0.4063 -0.1456
  189SAPI    H521762   5.557   5.558   7.050  1.7567  3.3011  1.9457
  189SAPI    O521763   5.474   5.734   7.031  0.3363 -0.1051  0.7341
  189SAPI   HO521764   5.414   5.792   7.077 -0.7191 -2.1002  2.0301
  189SAPI   C1621765   5.375   5.535   6.945  0.6758 -0.4660  0.5510
  189SAPI    H621766   5.274   5.580   6.942  1.0561  0.4288  0.8892
  189SAPI    O621767   5.434   5.554   6.809 -0.0469 -0.4345  0.1153
  189SAPI   HO621768   5.382   5.503   6.747 -1.6614  1.4094 -0.1689
  189SAPI   C1121769   5.366   5.387   6.964  0.3088 -0.2836 -0.4744
  189SAPI    H121770   5.471   5.354   6.973  0.6901  1.2672  1.8724
  189SAPI     P21771   5.375   5.224   6.748  0.3281 -0.0147  0.4158
  189SAPI   O1321772   5.269   5.129   6.705  0.6319 -0.3804 -0.3998
  189SAPI   O1421773   5.495   5.153   6.807  0.1016 -0.3082 -0.5527
  189SAPI   O1221774   5.297   5.331   6.852 -0.2440  0.2107  0.2943
  189SAPI   O1121775   5.416   5.313   6.626  0.6246 -0.0566 -0.0469
  189SAPI    C121776   5.331   5.388   6.538  0.2952  0.0415 -0.1863
  189SAPI    HA21777   5.241   5.434   6.585  1.9365  2.6997  0.5475
  189SAPI    HB21778   5.391   5.473   6.500  0.3704  0.8606  1.6979
  189SAPI    C221779   5.287   5.307   6.411  0.7358  0.0043  0.0403
  189SAPI    HS21780   5.252   5.208   6.448 -0.1400 -0.5998 -2.1922
  189SAPI   O2121781   5.401   5.288   6.324 -0.2998 -0.0644 -0.5590
  189SAPI   C2121782   5.425   5.166   6.280  0.0315 -0.1048 -0.3653
  189SAPI   O2221783   5.375   5.063   6.315  0.2673  0.8963  0.4334
  189SAPI   C2221784   5.535   5.180   6.179  0.2708 -1.1554 -0.5290
  189SAPI   H2R21785   5.526   5.280   6.132 -2.9748 -1.8715 -1.6520
  189SAPI   H2S21786   5.635   5.171   6.228  0.7695  1.2164 -0.9922
  189SAPI    C321787   5.169   5.369   6.342 -0.4175  0.2307 -0.6572
  189SAPI    HX21788   5.212   5.465   6.307 -0.5407  0.1372 -1.0752
  189SAPI    HY21789   5.092   5.387   6.420 -0.0099 -1.4673  0.1789
  189SAPI   O3121790   5.123   5.284   6.234  0.0866 -0.1540 -0.4924
  189SAPI   C3121791   5.023   5.201   6.256 -0.1701  0.5294  0.0763
  189SAPI   O3221792   4.978   5.164   6.363 -0.4859 -0.4864  0.3599
  189SAPI   C3221793   4.968   5.146   6.117 -0.7105 -0.4357  0.2833
  189SAPI   H2X21794   4.881   5.081   6.139 -1.8085  0.7246 -0.4998
  189SAPI   H2Y21795   5.052   5.079   6.088 -1.9215 -2.6371  1.6401
  189SAPI   C2321796   5.514   5.088   6.061 -0.2982  0.2860  0.5456
  189SAPI   H3R21797   5.536   4.984   6.095 -0.8193 -0.0120 -0.0107
  189SAPI   H3S21798   5.599   5.108   5.992  0.6099 -2.9967  0.5555
  189SAPI   C2421799   5.379   5.108   5.983  0.0423  0.4580 -0.1178
  189SAPI   H4R21800   5.299   5.070   6.051  2.9007 -0.0473  3.2746
  189SAPI   H4S21801   5.389   5.028   5.907 -1.4847  0.4005 -0.2791
  189SAPI   C2521802   5.343   5.251   5.937  0.3676  0.1549  0.5889
  189SAPI   H5R21803   5.327   5.329   6.014 -1.2828  2.0123 -1.4918
  189SAPI   C2621804   5.319   5.281   5.806  0.5188  0.2211  0.0515
  189SAPI   H6R21805   5.289   5.385   5.786  1.7254  0.5195 -0.3108
  189SAPI   C2721806   5.333   5.188   5.689  0.5298 -0.0886 -0.0445
  189SAPI   H7R21807   5.263   5.103   5.703 -0.3418  0.2666 -1.9370
  189SAPI   H7S21808   5.433   5.140   5.688  0.5593 -0.0367  0.3738
  189SAPI   C2821809   5.290   5.270   5.572 -0.7961  0.0507  0.8074
  189SAPI   H8R21810   5.251   5.372   5.582  1.1618  0.7497  1.9809
  189SAPI   C2921811   5.309   5.226   5.446 -0.2621 -0.4293  0.0319
  189SAPI   H9R21812   5.275   5.292   5.365  2.3446  0.8383 -0.1281
  189SAPI  C21021813   5.361   5.091   5.399  0.6560  0.1335  0.9435
  189SAPI  H10R21814   5.284   5.040   5.337  2.1238 -1.4957  0.3640
  189SAPI  H10S21815   5.370   5.036   5.495  2.3850  0.0553  0.7650
  189SAPI  C21121816   5.498   5.102   5.330  0.0574 -0.1673  0.3082
  189SAPI  H11R21817   5.586   5.129   5.391 -1.6440  2.1266  1.9562
  189SAPI  C21221818   5.507   5.091   5.197  0.1219  0.0311  0.0431
  189SAPI  H12R21819   5.610   5.095   5.160  1.8336 -0.0022  4.2847
  189SAPI  C21321820   5.392   5.062   5.097  0.4221  0.3622  0.0736
  189SAPI  H13R21821   5.426   5.082   4.993  0.6581  2.0807  0.4490
  189SAPI  H13S21822   5.300   5.123   5.111  1.3829  1.6797  0.8465
  189SAPI  C21421823   5.347   4.917   5.093 -0.4035  0.5126  0.2816
  189SAPI  H14R21824   5.413   4.845   5.144 -0.2624 -0.9972 -1.8867
  189SAPI  C21521825   5.248   4.874   5.022  0.9346 -0.4206  0.1203
  189SAPI  H15R21826   5.220   4.767   5.025  0.4351 -0.2892  0.3786
  189SAPI  C21621827   5.155   4.956   4.940 -0.0744  0.3949  0.2150
  189SAPI  H16R21828   5.130   5.050   4.994  1.3286  0.4833  0.7615
  189SAPI  H16S21829   5.056   4.909   4.925  0.2401 -1.0532  2.1743
  189SAPI  C21721830   5.215   4.990   4.801 -0.0286  0.1170 -0.5846
  189SAPI  H17R21831   5.311   5.044   4.818  0.5448 -1.5445  2.0201
  189SAPI  H17S21832   5.146   5.056   4.744  0.1524  1.6290  0.8885
  189SAPI  C21821833   5.246   4.862   4.726 -0.0543  0.2739  0.0197
  189SAPI  H18R21834   5.167   4.784   4.729 -0.2264  0.3949 -1.0344
  189SAPI  H18S21835   5.340   4.822   4.770  0.9670  1.1676 -1.2624
  189SAPI  C21921836   5.282   4.892   4.582  0.2039 -0.1627 -0.0522
  189SAPI  H19R21837   5.365   4.966   4.584 -2.0730  2.5495  0.2760
  189SAPI  H19S21838   5.196   4.945   4.535  2.0282  1.9743 -1.1470
  189SAPI  C22021839   5.316   4.760   4.516  0.0206  0.9952 -0.4348
  189SAPI  H20R21840   5.235   4.686   4.534  0.7515  0.5351  1.1405
  189SAPI  H20S21841   5.411   4.718   4.556 -0.1297 -0.2566 -1.3253
  189SAPI  H20T21842   5.326   4.771   4.406 -0.1110  1.2488 -0.4228
  189SAPI   C3321843   4.940   5.253   6.007 -0.0395  0.3594  0.3939
  189SAPI   H3X21844   5.025   5.324   5.996 -0.3909  0.5320 -1.3376
  189SAPI   H3Y21845   4.847   5.312   6.023  0.0598  0.3524  1.0447
  189SAPI   C3421846   4.931   5.178   5.868 -0.1636 -0.0783 -0.1012
  189SAPI   H4X21847   4.841   5.112   5.866 -0.6924  0.5524  1.6117
  189SAPI   H4Y21848   5.016   5.106   5.868  1.3782  1.6136  1.8618
  189SAPI   C3521849   4.944   5.264   5.746  0.4115 -0.6112  0.1873
  189SAPI   H5X21850   5.032   5.331   5.745 -1.3282  1.7895 -0.3535
  189SAPI   H5Y21851   4.849   5.321   5.745  0.2552 -0.6874  2.6970
  189SAPI   C3621852   4.941   5.184   5.613  0.5198 -0.5428  0.3240
  189SAPI   H6X21853   4.881   5.092   5.632 -0.6870  0.4865  1.7531
  189SAPI   H6Y21854   5.043   5.145   5.593  0.2312 -1.6778  0.9836
  189SAPI   C3721855   4.896   5.259   5.486  0.8139 -0.3056  0.9060
  189SAPI   H7X21856   4.962   5.348   5.476  0.1331  0.1898  0.7754
  189SAPI   H7Y21857   4.790   5.289   5.499  0.2669 -1.9675  0.5086
  189SAPI   C3821858   4.900   5.172   5.358  0.0897 -0.1411  0.1558
  189SAPI   H8X21859   4.847   5.076   5.374  0.3965 -0.2081  0.7804
  189SAPI   H8Y21860   4.999   5.150   5.314 -1.6912  0.3021 -4.6662
  189SAPI   C3921861   4.835   5.258   5.249 -0.3375 -0.6985 -0.6864
  189SAPI   H9X21862   4.876   5.223   5.152  0.7654 -1.4259  0.0262
  189SAPI   H9Y21863   4.847   5.369   5.250 -0.4337 -0.6663  1.5001
  189SAPI  C31021864   4.681   5.227   5.248  0.2723  0.0069 -0.0519
  189SAPI  H10X21865   4.636   5.262   5.343 -0.8883 -0.0580 -0.5618
  189SAPI  H10Y21866   4.682   5.116   5.255 -2.8412 -0.0987 -0.0765
  189SAPI  C31121867   4.613   5.279   5.125  0.3744  0.0708  0.4450
  189SAPI  H11X21868   4.681   5.264   5.038 -0.4309 -3.1452  0.2383
  189SAPI  H11Y21869   4.598   5.389   5.131 -1.4321  0.0556 -2.1306
  189SAPI  C31221870   4.492   5.194   5.086 -0.0672 -0.3463 -0.0708
  189SAPI  H12X21871   4.442   5.171   5.183 -0.2936  2.0498  0.4617
  189SAPI  H12Y21872   4.537   5.105   5.037  1.9337  0.5393  0.0845
  189SAPI  C31321873   4.383   5.263   4.999 -0.9544 -0.2178 -0.1799
  189SAPI  H13X21874   4.393   5.372   5.019 -0.7168 -0.1019 -0.8879
  189SAPI  H13Y21875   4.285   5.220   5.029 -0.0086 -0.5710  2.7210
  189SAPI  C31421876   4.398   5.234   4.850 -0.6681  0.1429 -0.3195
  189SAPI  H14X21877   4.424   5.126   4.852  0.2587  0.3766  1.2588
  189SAPI  H14Y21878   4.490   5.272   4.801 -1.0670  0.0348 -1.1667
  189SAPI  C31521879   4.271   5.262   4.775 -0.3776 -0.4523 -0.0515
  189SAPI  H15X21880   4.242   5.366   4.801  0.7867 -0.5772  1.9257
  189SAPI  H15Y21881   4.186   5.195   4.799  0.2877 -1.7671 -1.1594
  189SAPI  C31621882   4.286   5.254   4.620 -0.0675  0.0007 -0.2729
  189SAPI  H16X21883   4.182   5.253   4.582 -0.1992  1.2182 -0.0063
  189SAPI  H16Y21884   4.324   5.153   4.595  0.1070 -0.6598  2.3614
  189SAPI  C31721885   4.376   5.364   4.549 -0.2461 -1.0990  0.3849
  189SAPI  H17X21886   4.477   5.364   4.594  0.9526 -1.1624 -2.1347
  189SAPI  H17Y21887   4.320   5.457   4.572  0.5932 -0.6473  0.6159
  189SAPI  C31821888   4.377   5.344   4.395  0.1115  0.8740  0.2782
  189SAPI  H18X21889   4.470   5.374   4.342  0.1789  0.0884 -0.0733
  189SAPI  H18Y21890   4.285   5.397   4.363  0.0965  2.0678  2.1616
  189SAPI  H18Z21891   4.360   5.236   4.375 -0.1873  0.5685  2.0420
  190SAPI   C1221892   5.705   1.105   7.137  0.5634 -0.1682 -0.8065
  190SAPI    H221893   5.760   1.009   7.128  1.6033  0.1481  1.6242
  190SAPI    O221894   5.593   1.087   7.223  0.3657 -0.1994 -0.3400
  190SAPI   HO221895   5.528   1.031   7.179 -0.9125  1.2252 -0.3276
  190SAPI   C1321896   5.802   1.207   7.191 -0.5161  0.1875 -0.1124
  190SAPI    H321897   5.897   1.183   7.139 -1.1314  1.7580 -2.0865
  190SAPI    O321898   5.824   1.184   7.335  0.2544  0.4329  0.5651
  190SAPI   HO321899   5.735   1.165   7.366  0.4575 -0.6361  0.5365
  190SAPI   C1421900   5.770   1.350   7.158 -0.2710 -0.2223 -0.1521
  190SAPI    H421901   5.691   1.371   7.233  0.7032 -0.4683  0.9687
  190SAPI    O421902   5.865   1.447   7.208 -0.1951 -0.2324  0.5107
  190SAPI   HO421903   5.951   1.416   7.179 -0.3623 -0.1849 -0.0695
  190SAPI   C1521904   5.696   1.383   7.029  0.0662  0.0360  0.5890
  190SAPI    H521905   5.780   1.390   6.956 -0.3215  0.8640  0.2069
  190SAPI    O521906   5.632   1.516   7.031  0.1933  0.0345  0.6005
  190SAPI   HO521907   5.600   1.542   6.944 -2.4285  0.9136  1.7300
  190SAPI   C1621908   5.607   1.273   6.969 -0.2190  0.2550  0.8294
  190SAPI    H621909   5.507   1.286   7.017 -0.4567 -2.9278  1.3865
  190SAPI    O621910   5.589   1.286   6.826  0.3316 -0.4256 -0.4425
  190SAPI   HO621911   5.594   1.193   6.803 -2.1583 -1.1090  1.3529
  190SAPI   C1121912   5.661   1.129   6.997 -0.6661  0.5417  0.4954
  190SAPI    H121913   5.760   1.122   6.947 -0.0440  1.8547  1.4844
  190SAPI     P21914   5.624   0.879   6.902  0.6875  0.0898 -0.0297
  190SAPI   O1321915   5.541   0.779   6.966 -0.7919 -0.5420  0.1393
  190SAPI   O1421916   5.772   0.871   6.907 -0.2454 -0.4614 -0.9969
  190SAPI   O1221917   5.570   1.031   6.954  0.0056  0.0788 -0.0042
  190SAPI   O1121918   5.577   0.882   6.750 -0.6361  0.2817  0.2489
  190SAPI    C121919   5.667   0.939   6.645  0.6745 -0.4234 -0.1876
  190SAPI    HA21920   5.597   1.004   6.589 -0.0824 -0.1566  1.0334
  190SAPI    HB21921   5.740   1.018   6.674  1.4056 -0.3688 -2.0684
  190SAPI    C221922   5.734   0.834   6.564  0.1523 -0.1680  0.6183
  190SAPI    HS21923   5.844   0.836   6.580  0.6152 -0.3503 -2.0096
  190SAPI   O2121924   5.711   0.859   6.419 -0.3509  0.3524 -0.0034
  190SAPI   C2121925   5.761   0.968   6.368  0.1515 -0.4893  0.3921
  190SAPI   O2221926   5.843   1.042   6.421  0.5966  0.0230 -0.2218
  190SAPI   C2221927   5.709   0.998   6.228  0.0850 -0.4273 -0.4919
  190SAPI   H2R21928   5.675   0.909   6.172 -1.3656 -0.8477  0.9759
  190SAPI   H2S21929   5.617   1.057   6.245 -0.2029 -1.4868  2.0486
  190SAPI    C321930   5.712   0.681   6.596  1.0730 -0.1667  0.3149
  190SAPI    HX21931   5.606   0.663   6.568  1.1979  1.0185 -1.0494
  190SAPI    HY21932   5.732   0.660   6.703  1.2034 -3.4198 -0.2479
  190SAPI   O3121933   5.803   0.602   6.523  0.2193  0.4175 -0.2075
  190SAPI   C3121934   5.749   0.525   6.430 -0.3875  0.6249 -1.1056
  190SAPI   O3221935   5.634   0.520   6.396  0.0569 -0.7486 -0.4129
  190SAPI   C3221936   5.862   0.456   6.360 -0.0385 -0.7116  0.1849
  190SAPI   H2X21937   5.942   0.434   6.434  0.2558 -2.7661 -0.6793
  190SAPI   H2Y21938   5.900   0.528   6.285 -0.1566 -0.2839  0.5285
  190SAPI   C2321939   5.816   1.065   6.139  0.4608  0.0088  1.0079
  190SAPI   H3R21940   5.912   1.012   6.123  1.6518  2.6541 -1.6156
  190SAPI   H3S21941   5.861   1.143   6.203 -0.9908 -0.4431  2.6871
  190SAPI   C2421942   5.767   1.153   6.019  0.0376  0.3609  0.0026
  190SAPI   H4R21943   5.857   1.203   5.975  0.8809 -1.4533 -0.4310
  190SAPI   H4S21944   5.705   1.237   6.057  0.7458  0.8675  0.0602
  190SAPI   C2521945   5.696   1.072   5.912  0.1453  0.1419 -0.2446
  190SAPI   H5R21946   5.621   0.998   5.943 -0.0033  0.2989 -0.2284
  190SAPI   C2621947   5.717   1.086   5.779  0.2517 -0.2688 -0.5450
  190SAPI   H6R21948   5.669   1.022   5.704  2.8000 -1.1626 -1.5412
  190SAPI   C2721949   5.815   1.183   5.716  0.3924 -0.1785  0.5150
  190SAPI   H7R21950   5.812   1.283   5.764  0.0586 -0.3242  0.8064
  190SAPI   H7S21951   5.792   1.196   5.608  3.3734 -1.0457 -0.3202
  190SAPI   C2821952   5.964   1.134   5.719 -0.0158  0.2170 -1.1429
  190SAPI   H8R21953   5.999   1.089   5.813 -1.9352  1.0317  0.0235
  190SAPI   C2921954   6.062   1.162   5.627 -0.7191  0.2427 -0.0544
  190SAPI   H9R21955   6.156   1.107   5.642  0.9991  3.1215  0.2917
  190SAPI  C21021956   6.052   1.239   5.505 -0.3186  0.1442  0.2674
  190SAPI  H10R21957   6.098   1.336   5.533 -1.0668  1.3213 -2.2436
  190SAPI  H10S21958   5.944   1.256   5.485 -0.0607 -1.6443 -3.6223
  190SAPI  C21121959   6.110   1.178   5.376 -0.3909 -0.2442  0.7283
  190SAPI  H11R21960   6.051   1.092   5.340 -0.1641 -0.2920  0.4669
  190SAPI  C21221961   6.221   1.213   5.304 -1.0929  0.4096 -0.2996
  190SAPI  H12R21962   6.234   1.156   5.211  0.7358  1.2299 -0.6003
  190SAPI  C21321963   6.322   1.328   5.321  0.6959  0.3373 -0.1077
  190SAPI  H13R21964   6.429   1.298   5.330  1.0238  1.9798  1.9902
  190SAPI  H13S21965   6.301   1.393   5.408 -0.2561  1.2072 -0.9503
  190SAPI  C21421966   6.333   1.417   5.194  0.6356  0.3773 -1.2474
  190SAPI  H14R21967   6.278   1.511   5.206 -0.4148 -0.3177 -0.4771
  190SAPI  C21521968   6.375   1.383   5.070  0.6350  0.3135  0.4394
  190SAPI  H15R21969   6.376   1.470   5.003 -0.6014  1.4065  1.7646
  190SAPI  C21621970   6.425   1.253   5.023 -0.2005 -0.4474  0.5749
  190SAPI  H16R21971   6.388   1.174   5.092 -1.3342  0.0798  0.5956
  190SAPI  H16S21972   6.536   1.261   5.023 -0.1501 -1.0396  1.1300
  190SAPI  C21721973   6.387   1.208   4.879 -0.0536  0.4249 -1.3666
  190SAPI  H17R21974   6.458   1.132   4.840  2.8384  3.2345 -2.0605
  190SAPI  H17S21975   6.396   1.302   4.819  0.3125  0.9298 -0.5431
  190SAPI  C21821976   6.247   1.145   4.860 -0.4067  0.2289  0.8583
  190SAPI  H18R21977   6.173   1.213   4.906 -1.5386 -0.7506  0.5307
  190SAPI  H18S21978   6.249   1.048   4.915 -0.3601 -0.8465 -0.9612
  190SAPI  C21921979   6.207   1.137   4.709  0.1629 -0.2996 -0.1903
  190SAPI  H19R21980   6.292   1.100   4.648  0.3763  0.3016 -0.2603
  190SAPI  H19S21981   6.196   1.234   4.656  1.2677 -0.1666 -0.1957
  190SAPI  C22021982   6.085   1.045   4.676  0.7789 -1.3887  0.1550
  190SAPI  H20R21983   6.108   0.939   4.703 -1.4417 -2.5333 -1.9904
  190SAPI  H20S21984   6.063   1.046   4.567 -0.9257 -3.3929  0.4035
  190SAPI  H20T21985   6.003   1.086   4.739  3.2534  2.6172  1.1382
  190SAPI   C3321986   5.810   0.324   6.288 -1.7950 -0.2933 -0.0540
  190SAPI   H3X21987   5.716   0.348   6.235 -0.8369 -1.1881 -2.2932
  190SAPI   H3Y21988   5.788   0.250   6.367 -1.0636  1.7750  2.2424
  190SAPI   C3421989   5.906   0.256   6.187 -0.0178 -0.4229 -0.1193
  190SAPI   H4X21990   5.863   0.162   6.146  1.0723 -0.6759 -0.7388
  190SAPI   H4Y21991   5.996   0.235   6.249  0.3703  1.1351 -0.1142
  190SAPI   C3521992   5.954   0.352   6.082 -0.8881 -0.1233  0.3222
  190SAPI   H5X21993   6.009   0.436   6.129 -0.0247  1.1538 -2.7512
  190SAPI   H5Y21994   5.866   0.395   6.030 -0.7685 -0.1901  0.0642
  190SAPI   C3621995   6.040   0.285   5.973  1.1873  0.4038 -0.2070
  190SAPI   H6X21996   5.970   0.209   5.932  1.6848 -0.2055  0.0718
  190SAPI   H6Y21997   6.119   0.216   6.010  0.9705  0.6097  0.6682
  190SAPI   C3721998   6.093   0.359   5.853 -0.3925 -0.2425  0.0799
  190SAPI   H7X21999   6.175   0.423   5.891 -0.9226 -0.0750  0.9672
  190SAPI   H7Y22000   6.020   0.431   5.811  3.7048  3.6668 -1.1545
  190SAPI   C3822001   6.126   0.273   5.733 -0.7451  0.4402 -0.5954
  190SAPI   H8X22002   6.058   0.185   5.735  0.2315 -0.3570  1.5143
  190SAPI   H8Y22003   6.225   0.227   5.752 -1.2476 -0.5296 -0.2386
  190SAPI   C3922004   6.137   0.352   5.610 -0.2403 -0.2077  0.5262
  190SAPI   H9X22005   6.213   0.433   5.617  0.3427 -0.7744  0.8509
  190SAPI   H9Y22006   6.046   0.415   5.605 -0.3232 -0.4006 -1.1980
  190SAPI  C31022007   6.144   0.258   5.488  0.4694  0.3147  1.3033
  190SAPI  H10X22008   6.057   0.190   5.500  0.3195  0.2825  0.1055
  190SAPI  H10Y22009   6.235   0.195   5.488  0.7679  0.7385  0.8881
  190SAPI  C31122010   6.135   0.333   5.356 -0.1384 -0.7234  0.1955
  190SAPI  H11X22011   6.232   0.387   5.345  1.6745 -3.8608 -0.3585
  190SAPI  H11Y22012   6.047   0.401   5.364  0.9233  0.7500 -0.2319
  190SAPI  C31222013   6.106   0.237   5.237 -0.2158 -0.2396 -0.6591
  190SAPI  H12X22014   6.011   0.182   5.249  0.0214 -0.0939  3.8220
  190SAPI  H12Y22015   6.180   0.154   5.227  0.0162  0.0033 -0.9801
  190SAPI  C31322016   6.088   0.320   5.103  0.0550  0.3631 -0.0194
  190SAPI  H13X22017   6.181   0.380   5.095  0.1963 -0.0263 -1.6599
  190SAPI  H13Y22018   6.005   0.394   5.096  0.1284  0.5333  0.7909
  190SAPI  C31422019   6.087   0.224   4.983 -0.2592 -0.3059 -0.1804
  190SAPI  H14X22020   6.124   0.125   5.019 -0.6886 -0.1638  0.6712
  190SAPI  H14Y22021   6.155   0.265   4.905  0.1442  0.7862  0.7225
  190SAPI  C31522022   5.956   0.201   4.906  0.4597 -0.4768  0.1855
  190SAPI  H15X22023   5.918   0.299   4.871 -0.2891 -0.7007  0.3607
  190SAPI  H15Y22024   5.881   0.162   4.978  1.1121  1.0445  1.7857
  190SAPI  C31622025   5.970   0.112   4.785 -0.0271  0.4040 -0.2727
  190SAPI  H16X22026   5.873   0.090   4.736 -0.4822 -0.0386  0.8034
  190SAPI  H16Y22027   6.009   0.018   4.829  1.0175  1.1440  0.4410
  190SAPI  C31722028   6.059   0.156   4.671  0.2477  0.7091 -0.3611
  190SAPI  H17X22029   6.166   0.150   4.698 -0.4718 -3.0686  2.5643
  190SAPI  H17Y22030   6.028   0.257   4.637 -0.0044  1.3424  1.6144
  190SAPI  C31822031   6.049   0.064   4.541  0.0664  0.1041  0.5994
  190SAPI  H18X22032   6.037  -0.038   4.583 -0.4564 -0.4269 -0.8026
  190SAPI  H18Y22033   6.139   0.075   4.477 -1.3208  0.6680 -1.3615
  190SAPI  H18Z22034   5.960   0.105   4.489  0.4585 -0.0398 -0.1917
  191SAPI   C1222035   2.985   5.341   1.923 -0.0335  0.3543 -0.1663
  191SAPI    H222036   2.906   5.346   1.845 -0.5963  3.1912  0.4875
  191SAPI    O222037   3.101   5.298   1.856 -0.2505  0.8993  0.1566
  191SAPI   HO222038   3.082   5.224   1.798  2.3935  0.6651 -0.5111
  191SAPI   C1322039   2.997   5.476   1.987  0.1483  0.9379 -0.6216
  191SAPI    H322040   2.906   5.498   2.046 -0.1842 -0.9399 -0.3702
  191SAPI    O322041   3.022   5.580   1.896  0.0434  0.3172  0.6412
  191SAPI   HO322042   3.091   5.549   1.837  0.0425  0.2659  0.6671
  191SAPI   C1422043   3.112   5.466   2.083 -0.8102 -0.2784 -0.2371
  191SAPI    H422044   3.206   5.462   2.023  0.1586  0.0803  1.2134
  191SAPI    O422045   3.133   5.589   2.152  0.1664  0.0011 -0.1903
  191SAPI   HO422046   3.188   5.643   2.095  1.5742 -1.6906 -0.5321
  191SAPI   C1522047   3.120   5.339   2.170  0.3037 -0.1354 -0.4097
  191SAPI    H522048   3.086   5.367   2.271 -1.6323 -0.2895 -0.9885
  191SAPI    O522049   3.255   5.308   2.196 -0.3917  0.5329  0.2551
  191SAPI   HO522050   3.308   5.385   2.178 -0.4927  0.7255  0.7686
  191SAPI   C1622051   3.042   5.216   2.125 -0.3080 -0.6148 -0.3583
  191SAPI    H622052   3.113   5.138   2.089  0.4485 -1.1561  2.1288
  191SAPI    O622053   2.985   5.148   2.238  0.3281 -0.0169 -0.5240
  191SAPI   HO622054   2.912   5.092   2.212 -0.4588  1.0723 -0.7420
  191SAPI   C1122055   2.939   5.239   2.025 -0.3326 -0.9040 -0.5064
  191SAPI    H122056   2.852   5.284   2.078  0.0704  0.1997 -0.7634
  191SAPI     P22057   2.739   5.071   1.977  0.1302  0.3112 -0.1334
  191SAPI   O1322058   2.724   4.938   1.919 -0.0332  0.3897 -0.3180
  191SAPI   O1422059   2.646   5.178   1.946  0.5852 -0.2825  0.0239
  191SAPI   O1222060   2.894   5.124   1.951  0.0065 -0.1978  0.3614
  191SAPI   O1122061   2.744   5.043   2.131 -0.7325  0.2514 -0.9205
  191SAPI    C122062   2.645   5.123   2.205 -1.1047  0.0145  0.6063
  191SAPI    HA22063   2.682   5.228   2.207 -0.1573 -0.3152  0.9419
  191SAPI    HB22064   2.544   5.126   2.160 -1.6919  1.5222  1.9395
  191SAPI    C222065   2.652   5.076   2.353  0.2465  0.2992  0.1389
  191SAPI    HS22066   2.556   5.106   2.400 -0.5945  0.4613 -1.6262
  191SAPI   O2122067   2.759   5.133   2.431  0.4200 -0.0162  0.1582
  191SAPI   C2122068   2.738   5.256   2.476 -0.2493 -0.3104 -0.1600
  191SAPI   O2222069   2.626   5.307   2.485  0.5353  0.4997 -0.0117
  191SAPI   C2222070   2.863   5.324   2.516  0.0945  0.2631  0.2169
  191SAPI   H2R22071   2.941   5.308   2.437  1.0773  0.7978  1.0554
  191SAPI   H2S22072   2.855   5.433   2.534 -1.3288 -0.1820  2.7140
  191SAPI    C322073   2.651   4.917   2.374 -0.5145 -1.1132 -0.4569
  191SAPI    HX22074   2.733   4.860   2.326 -1.3448 -0.8409 -2.2742
  191SAPI    HY22075   2.562   4.869   2.326 -1.3788  2.5857 -2.9516
  191SAPI   O3122076   2.652   4.891   2.517  0.0279 -0.0129 -0.3869
  191SAPI   C3122077   2.535   4.868   2.583 -0.7443 -0.1467 -0.2290
  191SAPI   O3222078   2.431   4.878   2.529  0.7257 -0.2435 -0.1563
  191SAPI   C3222079   2.559   4.817   2.727 -0.1603  0.0992  0.9721
  191SAPI   H2X22080   2.585   4.710   2.709  0.1508  0.5964 -2.0626
  191SAPI   H2Y22081   2.464   4.825   2.783  0.2777  2.9971  1.4173
  191SAPI   C2322082   2.909   5.252   2.638  0.1219  0.1987 -1.2901
  191SAPI   H3R22083   3.011   5.290   2.660 -0.4774  1.2699 -0.2440
  191SAPI   H3S22084   2.905   5.141   2.639 -0.6392  0.1070  2.7567
  191SAPI   C2422085   2.834   5.303   2.764  0.6120 -0.5590  0.0091
  191SAPI   H4R22086   2.727   5.282   2.740  0.7881  0.0908 -1.4391
  191SAPI   H4S22087   2.842   5.413   2.782 -3.5676 -0.1008  0.1854
  191SAPI   C2522088   2.869   5.223   2.883  0.8944  0.0603 -0.0022
  191SAPI   H5R22089   2.928   5.131   2.873 -1.1419 -1.2735 -0.4714
  191SAPI   C2622090   2.845   5.257   3.012 -0.0973 -0.6746  0.1422
  191SAPI   H6R22091   2.875   5.190   3.095  0.7645  0.5397  0.8418
  191SAPI   C2722092   2.764   5.384   3.055 -0.5285 -0.4465 -0.5219
  191SAPI   H7R22093   2.702   5.423   2.971 -0.3256  1.5881  0.2214
  191SAPI   H7S22094   2.836   5.465   3.078  2.3475 -2.2641 -2.4375
  191SAPI   C2822095   2.674   5.359   3.175 -0.5261 -0.1522  0.6746
  191SAPI   H8R22096   2.568   5.380   3.157 -0.2529  0.0952 -0.6941
  191SAPI   C2922097   2.710   5.343   3.306 -0.5080 -0.4599 -0.0420
  191SAPI   H9R22098   2.634   5.348   3.385  0.9947  1.4270  1.3993
  191SAPI  C21022099   2.850   5.326   3.357  0.2432 -0.9797  0.1926
  191SAPI  H10R22100   2.872   5.417   3.416  0.1197 -1.6199  1.2410
  191SAPI  H10S22101   2.924   5.312   3.275 -0.7356 -0.3309 -0.8292
  191SAPI  C21122102   2.851   5.199   3.444 -0.4823 -0.0320 -0.4324
  191SAPI  H11R22103   2.851   5.103   3.391 -2.2722 -1.8848  2.6452
  191SAPI  C21222104   2.876   5.191   3.575 -0.0603 -0.1157 -0.7242
  191SAPI  H12R22105   2.877   5.093   3.627  0.8930 -0.0282 -0.5588
  191SAPI  C21322106   2.893   5.309   3.669  0.3549  0.3599  0.1926
  191SAPI  H13R22107   2.915   5.407   3.621  0.3094  0.2499 -0.0498
  191SAPI  H13S22108   2.991   5.293   3.720  1.0089 -3.6495 -1.9147
  191SAPI  C21422109   2.777   5.336   3.756  0.2479 -0.2013  0.3747
  191SAPI  H14R22110   2.697   5.392   3.704  0.0333 -0.2765  0.6247
  191SAPI  C21522111   2.761   5.312   3.886  0.4573 -0.1531  0.4225
  191SAPI  H15R22112   2.668   5.341   3.937  1.2703  1.9422  0.8539
  191SAPI  C21622113   2.857   5.236   3.965 -0.1222 -1.0975  0.1849
  191SAPI  H16R22114   2.927   5.176   3.903  0.0482 -1.3136  0.5824
  191SAPI  H16S22115   2.794   5.155   4.009 -1.0835  0.6069  2.0879
  191SAPI  C21722116   2.929   5.323   4.070 -0.4453 -0.6729  1.0189
  191SAPI  H17R22117   2.958   5.423   4.033 -0.5840  0.3181  3.4017
  191SAPI  H17S22118   3.030   5.280   4.090  1.1292  2.2804  0.0860
  191SAPI  C21822119   2.858   5.344   4.198 -0.0875 -0.4459 -0.0809
  191SAPI  H18R22120   2.751   5.366   4.178 -0.1806 -0.6296  0.2042
  191SAPI  H18S22121   2.893   5.436   4.250 -1.2064 -0.4508  0.7170
  191SAPI  C21922122   2.879   5.234   4.297 -0.1966 -0.2162 -0.1617
  191SAPI  H19R22123   2.984   5.218   4.329 -0.7819 -0.0941  1.9826
  191SAPI  H19S22124   2.829   5.147   4.251 -1.3041  0.9283 -1.1919
  191SAPI  C22022125   2.809   5.255   4.427  0.2810  0.3496  0.5314
  191SAPI  H20R22126   2.700   5.273   4.413  0.1802 -0.1620  0.6619
  191SAPI  H20S22127   2.856   5.331   4.493  1.2693  1.0227 -0.8944
  191SAPI  H20T22128   2.814   5.157   4.477  0.4288 -0.0737 -0.2965
  191SAPI   C3322129   2.682   4.878   2.802 -0.0345 -0.7627 -0.2487
  191SAPI   H3X22130   2.662   4.974   2.853  1.0630 -1.4780  1.6033
  191SAPI   H3Y22131   2.769   4.894   2.734  0.3142  0.2761  0.4257
  191SAPI   C3422132   2.725   4.790   2.924  0.7534 -0.7227  0.2698
  191SAPI   H4X22133   2.720   4.686   2.887 -0.2227 -1.1598  1.5412
  191SAPI   H4Y22134   2.643   4.815   2.995  0.0351  2.0108 -1.3651
  191SAPI   C3522135   2.866   4.821   2.968 -0.4440  0.3071 -0.1740
  191SAPI   H5X22136   2.876   4.930   2.988 -0.9659  0.1671  0.9271
  191SAPI   H5Y22137   2.935   4.794   2.886 -1.2620  2.6914 -1.7477
  191SAPI   C3622138   2.904   4.751   3.099  0.1705 -0.0103 -0.8819
  191SAPI   H6X22139   3.013   4.758   3.119 -0.3477  1.4981  1.8753
  191SAPI   H6Y22140   2.879   4.643   3.097 -1.2224  0.1589  2.3257
  191SAPI   C3722141   2.823   4.797   3.225 -0.0497  0.4896  0.4849
  191SAPI   H7X22142   2.717   4.776   3.201  0.0804 -0.7605  0.9455
  191SAPI   H7Y22143   2.838   4.907   3.236 -0.0682  0.4455  0.9885
  191SAPI   C3822144   2.872   4.724   3.351 -0.2137 -0.1032  0.3852
  191SAPI   H8X22145   2.982   4.708   3.353 -0.2097 -0.0021  0.9982
  191SAPI   H8Y22146   2.832   4.621   3.355  0.9834 -0.7852 -2.6698
  191SAPI   C3922147   2.830   4.797   3.476 -0.3808  0.3331  0.0297
  191SAPI   H9X22148   2.731   4.753   3.499  0.9216 -1.8983  1.8125
  191SAPI   H9Y22149   2.833   4.908   3.462  0.1328  0.3647  0.3484
  191SAPI  C31022150   2.922   4.772   3.591  0.2198  0.1424  0.1491
  191SAPI  H10X22151   3.015   4.833   3.596 -0.3778  0.9538  2.5409
  191SAPI  H10Y22152   2.952   4.665   3.592  1.7477  0.5380 -0.7131
  191SAPI  C31122153   2.852   4.788   3.727  0.0314  0.2964 -0.3002
  191SAPI  H11X22154   2.763   4.723   3.743  0.1118 -0.3356 -2.2268
  191SAPI  H11Y22155   2.828   4.896   3.740  1.8890  0.6258  0.7387
  191SAPI  C31222156   2.942   4.754   3.848 -0.2096  0.1920 -0.2560
  191SAPI  H12X22157   3.040   4.804   3.835 -0.5625  1.0988  0.4852
  191SAPI  H12Y22158   2.959   4.644   3.854 -2.0465 -0.0518  2.8925
  191SAPI  C31322159   2.902   4.806   3.983 -0.3247 -0.1537 -0.1769
  191SAPI  H13X22160   2.916   4.916   3.976  3.2464 -0.4177  0.5973
  191SAPI  H13Y22161   2.987   4.779   4.049 -0.1182  1.3934  0.2359
  191SAPI  C31422162   2.767   4.764   4.044  0.3824  0.2099 -0.0874
  191SAPI  H14X22163   2.736   4.657   4.035  0.0474  0.2222  0.8135
  191SAPI  H14Y22164   2.692   4.807   3.975  1.7332  0.5689 -1.3831
  191SAPI  C31522165   2.758   4.812   4.187  0.6749  0.3831  0.3091
  191SAPI  H15X22166   2.799   4.916   4.189 -0.9283  1.0427  2.2382
  191SAPI  H15Y22167   2.826   4.741   4.238 -0.2754 -0.7304  0.0452
  191SAPI  C31622168   2.621   4.818   4.245 -0.2840 -0.8848 -0.2344
  191SAPI  H16X22169   2.593   4.712   4.264  3.5979 -1.8420  1.0268
  191SAPI  H16Y22170   2.556   4.861   4.167  1.3334  3.1095  0.3984
  191SAPI  C31722171   2.605   4.893   4.379  0.1510 -0.1263 -0.2732
  191SAPI  H17X22172   2.608   5.001   4.352  0.7721 -0.3430 -1.1350
  191SAPI  H17Y22173   2.692   4.865   4.443  0.3705 -2.2875 -1.4251
  191SAPI  C31822174   2.481   4.866   4.467  0.1803 -0.5889  0.0895
  191SAPI  H18X22175   2.393   4.915   4.420  0.8691  0.3755 -0.2045
  191SAPI  H18Y22176   2.502   4.920   4.562  0.7948 -0.5559 -0.0645
  191SAPI  H18Z22177   2.471   4.756   4.485 -0.3102 -0.3501  1.4320
  192SAPI   C1222178   4.492   5.797   2.097 -0.3131 -0.1551  0.0445
  192SAPI    H222179   4.469   5.799   2.205  3.8965  2.2970  1.0893
  192SAPI    O222180   4.631   5.752   2.079  0.1913  0.3339  0.3226
  192SAPI   HO222181   4.679   5.832   2.057 -1.4208  1.5407  1.0871
  192SAPI   C1322182   4.397   5.704   2.023  0.0719 -0.4828 -0.0249
  192SAPI    H322183   4.293   5.739   2.036  0.9909  2.2349  0.6865
  192SAPI    O322184   4.396   5.577   2.086 -0.0267  0.1482 -0.2240
  192SAPI   HO322185   4.479   5.536   2.060  0.0960  0.2707 -0.0282
  192SAPI   C1422186   4.421   5.703   1.870  0.1401 -0.2346  0.7945
  192SAPI    H422187   4.517   5.647   1.856  1.3000  1.4724  1.6052
  192SAPI    O422188   4.317   5.632   1.800 -0.1963 -0.2663 -0.2890
  192SAPI   HO422189   4.354   5.594   1.720  0.9869  0.3388 -0.0581
  192SAPI   C1522190   4.449   5.837   1.800  0.1796 -0.1562 -1.0371
  192SAPI    H522191   4.348   5.876   1.776 -0.2171  0.5866  1.5331
  192SAPI    O522192   4.525   5.831   1.686 -0.0110  0.3558 -0.2138
  192SAPI   HO522193   4.476   5.793   1.613  1.2725 -1.3365 -0.2452
  192SAPI   C1622194   4.499   5.951   1.893  0.8327 -0.1521 -0.1198
  192SAPI    H622195   4.608   5.941   1.877  0.9627 -3.0837  2.0030
  192SAPI    O622196   4.477   6.084   1.850  0.2211 -0.2345 -0.0672
  192SAPI   HO622197   4.539   6.136   1.903  0.7860 -0.9651  0.0065
  192SAPI   C1122198   4.471   5.939   2.042 -0.4927  0.3376  0.3315
  192SAPI    H122199   4.363   5.960   2.056 -1.1009 -1.2443 -1.5899
  192SAPI     P22200   4.517   6.081   2.271 -0.0243  0.1823  0.2463
  192SAPI   O1322201   4.374   6.064   2.295  0.0066 -0.1995  0.3345
  192SAPI   O1422202   4.568   6.218   2.285 -0.1492 -0.0015 -0.4650
  192SAPI   O1222203   4.555   6.033   2.116 -0.8487 -0.7691 -0.5955
  192SAPI   O1122204   4.588   5.983   2.363 -0.1670  0.0135  0.7674
  192SAPI    C122205   4.731   5.983   2.374  0.8894  0.4237 -0.7735
  192SAPI    HA22206   4.773   5.932   2.285 -0.5258 -0.0494 -1.2035
  192SAPI    HB22207   4.772   6.086   2.371 -1.0000  1.1859 -2.3630
  192SAPI    C222208   4.772   5.906   2.506  0.1767  0.4757 -0.9796
  192SAPI    HS22209   4.754   5.797   2.489 -0.8829  0.7002 -1.3776
  192SAPI   O2122210   4.696   5.956   2.613  0.3047 -0.3059  0.1671
  192SAPI   C2122211   4.587   5.902   2.650 -0.4391  0.1109 -0.3342
  192SAPI   O2222212   4.543   5.791   2.618 -0.7288  0.1673 -0.0520
  192SAPI   C2222213   4.520   5.982   2.763  0.4368 -0.2388 -0.6743
  192SAPI   H2R22214   4.421   5.937   2.785  0.7202 -0.2927  0.5606
  192SAPI   H2S22215   4.585   5.971   2.852 -1.7325 -1.9391  0.8316
  192SAPI    C322216   4.927   5.917   2.539 -0.5012 -1.1133 -0.2105
  192SAPI    HX22217   4.960   6.023   2.533 -0.4758 -0.9817  1.6527
  192SAPI    HY22218   4.988   5.861   2.466  1.2768  1.2168 -0.6519
  192SAPI   O3122219   4.961   5.882   2.666 -0.9880  0.4781 -0.3704
  192SAPI   C3122220   4.961   5.754   2.692 -0.2967  0.1236 -0.1592
  192SAPI   O3222221   4.953   5.661   2.611  0.0632  0.8429 -0.2365
  192SAPI   C3222222   4.977   5.734   2.840  0.9086 -0.1259  0.3581
  192SAPI   H2X22223   5.055   5.806   2.873  0.4290  0.2678  0.6486
  192SAPI   H2Y22224   5.003   5.626   2.853 -2.0409 -0.9491  0.1497
  192SAPI   C2322225   4.501   6.133   2.736 -0.0079  0.1192 -0.8253
  192SAPI   H3R22226   4.436   6.141   2.646 -0.2375 -0.0055 -0.6709
  192SAPI   H3S22227   4.601   6.175   2.714 -0.4733  1.8056  0.0933
  192SAPI   C2422228   4.441   6.214   2.855  0.1392 -0.0049  0.1886
  192SAPI   H4R22229   4.445   6.321   2.824  0.8066 -0.4631 -1.3733
  192SAPI   H4S22230   4.509   6.200   2.942  2.9644 -0.3559 -1.9719
  192SAPI   C2522231   4.295   6.175   2.873 -0.1478  0.1979  0.3356
  192SAPI   H5R22232   4.241   6.148   2.781  0.9508  1.2289 -0.6483
  192SAPI   C2622233   4.238   6.166   2.993  0.2333  1.1122 -0.3226
  192SAPI   H6R22234   4.134   6.130   2.991  0.3706  0.7343 -0.7795
  192SAPI   C2722235   4.300   6.180   3.135 -0.2671  1.3613  0.3140
  192SAPI   H7R22236   4.214   6.191   3.205 -0.4366 -2.4647  0.9388
  192SAPI   H7S22237   4.355   6.275   3.151 -4.9273  4.2606  0.7968
  192SAPI   C2822238   4.384   6.060   3.166 -0.4649 -0.1858 -0.5360
  192SAPI   H8R22239   4.398   5.993   3.079 -0.8585 -0.1295 -0.6463
  192SAPI   C2922240   4.409   6.007   3.285 -0.3517 -0.4478 -0.3708
  192SAPI   H9R22241   4.460   5.909   3.287  0.1964 -0.2239 -1.9815
  192SAPI  C21022242   4.374   6.066   3.423  0.0470 -0.0036 -0.4294
  192SAPI  H10R22243   4.323   5.985   3.479  0.7300 -1.3972 -1.7457
  192SAPI  H10S22244   4.295   6.144   3.413  0.0145 -0.0561 -0.6052
  192SAPI  C21122245   4.491   6.133   3.490  0.0050 -0.0094  0.1838
  192SAPI  H11R22246   4.521   6.228   3.444 -0.5350 -0.4635 -1.1531
  192SAPI  C21222247   4.555   6.101   3.605  0.6148  0.6796  0.1856
  192SAPI  H12R22248   4.641   6.161   3.639 -0.1478  0.8464  1.9589
  192SAPI  C21322249   4.536   5.973   3.687  0.3731 -0.1528  0.8065
  192SAPI  H13R22250   4.631   5.935   3.731  2.0253  1.9734 -0.7089
  192SAPI  H13S22251   4.501   5.894   3.617  0.4851  1.3745 -1.0830
  192SAPI  C21422252   4.428   6.002   3.786  0.6879 -0.2034 -0.1556
  192SAPI  H14R22253   4.352   6.074   3.754 -2.1197 -2.8613  0.0342
  192SAPI  C21522254   4.412   5.961   3.916 -0.1540 -0.2083  0.7902
  192SAPI  H15R22255   4.330   6.009   3.971 -0.2843  3.0324 -1.9129
  192SAPI  C21622256   4.498   5.859   3.995 -0.3880 -0.5289 -0.4637
  192SAPI  H16R22257   4.583   5.916   4.038 -1.2947  1.6310 -1.4334
  192SAPI  H16S22258   4.526   5.768   3.937 -0.4793 -1.0665  0.3092
  192SAPI  C21722259   4.429   5.813   4.124 -0.0711 -0.7277  0.6486
  192SAPI  H17R22260   4.394   5.895   4.190 -0.7911  0.5052 -1.2117
  192SAPI  H17S22261   4.503   5.757   4.187  0.3216 -1.3959 -0.3791
  192SAPI  C21822262   4.323   5.711   4.094 -0.3676  0.0956 -0.0189
  192SAPI  H18R22263   4.374   5.621   4.052  0.0041  1.0359 -1.6710
  192SAPI  H18S22264   4.255   5.749   4.015  1.5536  0.1355 -1.7322
  192SAPI  C21922265   4.236   5.675   4.209  0.4054  0.2051  0.0912
  192SAPI  H19R22266   4.227   5.776   4.255  1.9927 -0.0781  1.1254
  192SAPI  H19S22267   4.287   5.618   4.290  2.4740  0.2767 -1.0734
  192SAPI  C22022268   4.104   5.615   4.179 -0.0547  1.1705  0.3690
  192SAPI  H20R22269   4.124   5.515   4.136 -0.2668  1.3969 -0.2651
  192SAPI  H20S22270   4.058   5.676   4.098  0.9319  1.5297  0.0608
  192SAPI  H20T22271   4.032   5.600   4.262 -1.0143 -1.5375 -0.8203
  192SAPI   C3322272   4.849   5.781   2.916 -0.7016  0.1087 -0.1918
  192SAPI   H3X22273   4.766   5.712   2.891 -0.8284  0.1414  0.1416
  192SAPI   H3Y22274   4.826   5.885   2.885 -1.3708 -0.3333 -1.2233
  192SAPI   C3422275   4.872   5.771   3.064 -0.3943  0.3741 -1.0805
  192SAPI   H4X22276   4.955   5.840   3.092 -0.3845 -0.4280  1.0925
  192SAPI   H4Y22277   4.900   5.664   3.078 -0.9881  0.5476  2.4680
  192SAPI   C3522278   4.755   5.809   3.149 -0.5215  0.7331 -0.8218
  192SAPI   H5X22279   4.694   5.716   3.152  0.8458 -0.2023 -1.0541
  192SAPI   H5Y22280   4.700   5.894   3.105 -0.8977  1.2880  0.6595
  192SAPI   C3622281   4.783   5.853   3.298  0.2306 -0.7591  0.5223
  192SAPI   H6X22282   4.683   5.872   3.343  0.0869 -2.4531  1.0062
  192SAPI   H6Y22283   4.843   5.946   3.304 -0.6337 -0.1019 -0.7369
  192SAPI   C3722284   4.845   5.744   3.383 -0.1612 -0.6859 -0.4547
  192SAPI   H7X22285   4.947   5.718   3.345  1.3243  3.9652 -0.2706
  192SAPI   H7Y22286   4.774   5.660   3.367 -0.2735 -0.9157  1.0308
  192SAPI   C3822287   4.848   5.799   3.528  0.5587 -0.1918  0.0290
  192SAPI   H8X22288   4.752   5.851   3.550  1.3190 -0.2147  4.4691
  192SAPI   H8Y22289   4.929   5.874   3.524  1.0669 -0.7504 -0.2879
  192SAPI   C3922290   4.883   5.702   3.641 -0.6232  0.7382  0.2189
  192SAPI   H9X22291   4.970   5.638   3.612 -0.6953  1.3527 -1.5060
  192SAPI   H9Y22292   4.793   5.638   3.653 -1.3433  1.8959  1.1961
  192SAPI  C31022293   4.909   5.775   3.766  0.4347  0.3614  0.5204
  192SAPI  H10X22294   4.872   5.880   3.761 -0.6910 -0.0602 -0.4993
  192SAPI  H10Y22295   5.020   5.774   3.772  0.3601 -1.0265  3.8958
  192SAPI  C31122296   4.859   5.691   3.888  0.0128 -0.7292  0.3547
  192SAPI  H11X22297   4.911   5.593   3.898  2.0986  0.2073 -0.7684
  192SAPI  H11Y22298   4.751   5.663   3.881 -0.1643 -0.4722  1.7290
  192SAPI  C31222299   4.876   5.770   4.014  0.3624  0.8190 -0.1291
  192SAPI  H12X22300   4.810   5.860   4.013  0.7107  1.2391  3.3806
  192SAPI  H12Y22301   4.979   5.807   4.034 -0.0591  1.0208  1.8285
  192SAPI  C31322302   4.848   5.689   4.144  0.2658 -0.3282 -0.1421
  192SAPI  H13X22303   4.749   5.644   4.121  0.0359  1.3199 -2.8270
  192SAPI  H13Y22304   4.837   5.762   4.228  2.8062  0.8277 -0.7324
  192SAPI  C31422305   4.956   5.593   4.198 -0.1565 -0.1033 -0.2738
  192SAPI  H14X22306   5.043   5.644   4.246  2.1239 -1.5489 -2.6294
  192SAPI  H14Y22307   5.012   5.540   4.118 -1.2571 -1.4645 -0.1721
  192SAPI  C31522308   4.896   5.497   4.307  0.4035 -0.0349 -0.4328
  192SAPI  H15X22309   4.823   5.426   4.263  0.8324 -0.6330 -0.1965
  192SAPI  H15Y22310   4.845   5.557   4.384 -0.0486 -1.7433  0.6404
  192SAPI  C31622311   5.006   5.402   4.365 -0.3203  0.0568  0.2676
  192SAPI  H16X22312   5.084   5.479   4.387  0.6722  0.1314 -2.8671
  192SAPI  H16Y22313   5.039   5.345   4.275  1.5575 -0.1314  1.0220
  192SAPI  C31722314   4.969   5.313   4.484  0.0220  0.8842 -0.2645
  192SAPI  H17X22315   4.875   5.257   4.467  0.2224  0.5878 -0.3988
  192SAPI  H17Y22316   4.938   5.386   4.562 -0.6867  0.6681 -0.3456
  192SAPI  C31822317   5.078   5.216   4.530  0.1670 -0.3383 -1.1515
  192SAPI  H18X22318   5.056   5.197   4.637 -1.9862  0.3989 -1.4245
  192SAPI  H18Y22319   5.175   5.269   4.527  0.2251 -0.4662 -2.0794
  192SAPI  H18Z22320   5.076   5.119   4.475 -3.5466 -0.9604 -0.1903
  193SOD    SOD22321   0.634   6.587   7.073 -0.1860  0.2629 -0.8514
  194SOD    SOD22322   6.753   0.408   6.892 -0.1520 -0.0968  0.0470
  195SOD    SOD22323   4.010   5.252   0.495 -0.0988 -0.9158  0.5674
  196SOD    SOD22324   3.470   6.619   7.158  0.4535 -0.0319 -0.2329
  197SOD    SOD22325   4.928   3.296   7.683 -0.4682 -0.0222 -0.2949
  198SOD    SOD22326   5.800   1.530   8.170  0.3068  0.4314  0.0391
  199SOD    SOD22327   6.885   5.805   1.769 -0.4347 -0.1038 -0.0787
  200SOD    SOD22328   2.905   0.138   1.489  0.1560 -0.4540  0.1273
  201SOD    SOD22329   6.414   0.628   2.003  0.1994 -0.0618  0.0778
  202SOD    SOD22330   1.121   6.262   6.474 -0.0953  0.2814 -0.1103
  203SOD    SOD22331   0.704   2.322   6.706 -0.1987 -0.0836  0.2438
  204SOD    SOD22332   5.599   5.721   6.836  0.1724 -0.2668 -0.2506
  205SOD    SOD22333   5.507   3.751   0.278 -0.0766  0.2457  0.3955
  206SOD    SOD22334   3.843   5.866   7.009  0.9056  0.3316 -0.0846
  207SOD    SOD22335   3.048   4.502   0.224 -0.1122  0.3074  0.2144
  208SOD    SOD22336   1.032   0.014   0.688  0.2427  0.0595 -0.1192
  209SOD    SOD22337   4.217   2.981   6.608 -0.2304 -0.0577 -0.1738
  210SOD    SOD22338   1.757   3.902   0.702  0.2767 -0.5860  0.0172
  211SOD    SOD22339   0.109   4.975   1.894 -0.1988 -0.4037  0.2674
  212SOD    SOD22340   1.883   2.026   0.401 -0.3599 -0.1257  0.8076
  213SOD    SOD22341   0.999   2.544   0.424  0.2679 -0.1458 -0.8122
  214SOD    SOD22342   6.446   2.494   0.076 -0.1456  0.6341  0.2084
  215SOD    SOD22343   5.030   1.370   6.926  0.2853 -0.1836  0.3476
  216SOD    SOD22344   5.048   0.595   7.453 -0.1276  0.1007 -0.4500
  217SOD    SOD22345   6.515   5.497   2.540  0.2900  0.1914 -0.1596
  218SOD    SOD22346   3.957   4.088   7.675 -0.1442  0.1842  0.0281
  219SOD    SOD22347   4.618   0.450   2.197  0.2475 -0.0957 -0.2875
  220SOD    SOD22348   2.832   4.950   8.408 -0.0414 -0.0115 -0.0794
  221SOD    SOD22349   0.693   1.224   0.915 -0.1810  0.3022 -0.1183
  222SOD    SOD22350   5.616   2.484   1.700 -0.7235  0.3539  0.4041
  223SOD    SOD22351   1.168   2.753   2.528 -0.1339  0.1145 -0.1927
  224SOD    SOD22352   1.488   0.155   0.011 -0.6362 -0.1763  0.1134
  225SOD    SOD22353   3.030   6.465   2.551  0.1577  0.2972  0.1972
  226SOD    SOD22354   6.432   6.625   0.598  0.1584  0.5460  0.0429
  227SOD    SOD22355   6.894   2.952   8.085  0.1931  0.0179  0.1367
  228SOD    SOD22356   4.578   0.028   7.051 -0.5260  0.3331  0.0180
  229SOD    SOD22357   2.757   4.364   1.659  0.1765 -0.0906 -0.1350
  230CLA    CLA22358   1.970   2.998   8.293 -0.7500  0.1536  0.1283
  231CLA    CLA22359   4.176   1.371   0.026  0.4293  0.0094  0.1151
  232CLA    CLA22360   0.101   4.260   1.321 -0.0292 -0.2601  0.3786
  233CLA    CLA22361   4.699   0.136   0.274  0.0797 -0.2093  0.0199
  234CLA    CLA22362   0.458   3.956   8.160 -0.5445 -0.0242 -0.1585
  235CLA    CLA22363   0.107   1.730   1.358 -0.2540  0.1290  0.3595
  236CLA    CLA22364   5.493   4.376   0.147 -0.2844  0.1658 -0.1461
  237CLA    CLA22365   3.744   0.653   1.474  0.2177  0.4362 -0.0108
  238CLA    CLA22366   2.607   5.478   8.085  0.3356  0.0673  0.1096
  239CLA    CLA22367   0.030   5.196   7.987 -0.0656 -0.3992  0.2570
  240CLA    CLA22368   1.233   0.661   0.617  0.0679 -0.4561  0.1606
  241CLA    CLA22369   5.805   1.736   8.626 -0.0666 -0.2631  0.0415
  242CLA    CLA22370   6.043   0.465   7.457  0.0432  0.2664 -0.6347
  243CLA    CLA22371   1.481   4.247   0.287  0.0758  0.1257 -0.0146
  244CLA    CLA22372   3.536   5.009   8.576 -0.0384  0.2077  0.0291
  245CLA    CLA22373   0.071   1.392   7.932  0.1164 -0.2070  0.4516
  246CLA    CLA22374   4.554   2.935   8.394  0.0378 -0.1238 -0.4755
  247TIP3   OH222375   1.778   6.523   7.707 -0.1880 -0.0543 -0.1504
  247TIP3    H122376   1.763   6.448   7.650 -0.0270  0.8422 -1.4057
  247TIP3    H222377   1.722   6.507   7.783 -2.5781  0.0880 -1.8081
  248TIP3   OH222378   4.242   2.953   7.448 -0.2132 -0.4437  0.1799
  248TIP3    H122379   4.228   2.858   7.448 -1.3566 -0.3307 -1.6240
  248TIP3    H222380   4.154   2.989   7.437  0.1207  0.8848  1.5884
  249TIP3   OH222381   1.047   1.928   2.418  0.1283 -0.1470 -0.5949
  249TIP3    H122382   0.952   1.935   2.408 -0.0839 -0.0443  1.2210
  249TIP3    H222383   1.064   1.957   2.507  1.7653 -1.0727 -0.5682
  250TIP3   OH222384   2.182   6.557   2.207  0.0198 -0.0173  0.0798
  250TIP3    H122385   2.212   6.475   2.168 -0.0417 -0.3439  0.7060
  250TIP3    H222386   2.095   6.537   2.240 -0.0443  0.3387  0.1280
  251TIP3   OH222387   3.893   1.596   7.718 -0.7759 -0.2405 -0.1585
  251TIP3    H122388   3.907   1.501   7.711  3.3091  0.1206  0.3017
  251TIP3    H222389   3.834   1.606   7.793 -0.7152 -2.4280  0.2457
  252TIP3   OH222390   6.361   6.399   0.613  0.0466 -0.1685  0.0397
  252TIP3    H122391   6.362   6.411   0.518  2.1406 -0.8036 -0.0821
  252TIP3    H222392   6.360   6.304   0.625 -1.8973 -0.0981  0.7145
  253TIP3   OH222393   3.249   5.979   8.570  0.6040 -0.1795  0.0807
  253TIP3    H122394   3.240   6.072   8.588 -0.9161 -0.5800  1.7042
  253TIP3    H222395   3.259   5.939   8.657  1.0506 -1.5514 -0.5729
  254TIP3   OH222396   2.314   4.107   0.692 -0.3512 -0.0391  0.2853
  254TIP3    H122397   2.325   4.058   0.774  0.8562  0.8978  0.7102
  254TIP3    H222398   2.231   4.075   0.656  0.5524 -2.6952  0.3282
  255TIP3   OH222399   5.805   1.942   1.600  0.4749  0.5152  0.4705
  255TIP3    H122400   5.848   1.919   1.683  2.4730 -0.8208 -0.8281
  255TIP3    H222401   5.860   2.012   1.563  0.2643  0.3349 -0.2020
  256TIP3   OH222402   3.802   5.995   8.167 -0.2164 -0.1844 -0.2161
  256TIP3    H122403   3.891   5.986   8.201  0.3478 -1.2174 -1.8814
  256TIP3    H222404   3.798   6.084   8.132  0.3924 -0.3741 -0.7678
  257TIP3   OH222405   0.069   6.508   1.740  0.1456 -0.5557  0.3217
  257TIP3    H122406  -0.004   6.487   1.798  0.4741 -1.6250  0.3590
  257TIP3    H222407   0.121   6.428   1.736  0.3611 -0.3701 -1.1176
  258TIP3   OH222408   5.309   0.708   2.418  0.1193 -0.7602 -0.0228
  258TIP3    H122409   5.320   0.632   2.361 -0.4451 -0.6436 -0.2940
  258TIP3    H222410   5.227   0.692   2.463  0.5988 -0.8869  0.8246
  259TIP3   OH222411   1.745   5.541   7.789  0.1331 -0.2838  1.0819
  259TIP3    H122412   1.721   5.593   7.711  0.6156 -2.2957 -0.4934
  259TIP3    H222413   1.663   5.528   7.835 -0.1509  1.0263  1.0075
  260TIP3   OH222414   6.835   6.317   1.106 -0.1509  0.5899 -0.0797
  260TIP3    H122415   6.748   6.281   1.093 -1.2194  2.3064  1.7044
  260TIP3    H222416   6.867   6.336   1.018 -1.2634 -0.7264 -0.7962
  261TIP3   OH222417   4.325   1.806   0.465  0.2699 -0.0232 -0.3319
  261TIP3    H122418   4.276   1.778   0.387 -1.0340 -0.0826  0.4873
  261TIP3    H222419   4.407   1.840   0.430 -0.2924 -0.0394 -1.7392
  262TIP3   OH222420   4.792   6.847   0.481  0.1944  0.2876 -0.5812
  262TIP3    H122421   4.761   6.903   0.410 -1.6648  1.3770  0.9867
  262TIP3    H222422   4.742   6.875   0.558  0.4383 -2.3804  0.6784
  263TIP3   OH222423   6.673   5.584   6.984 -0.2534  0.0240  0.1534
  263TIP3    H122424   6.591   5.633   6.984 -0.4117 -0.2271 -0.7557
  263TIP3    H222425   6.649   5.495   6.960  0.4267  0.2426 -1.5170
  264TIP3   OH222426   2.533   1.381   2.127  0.6529 -0.0534  0.0271
  264TIP3    H122427   2.491   1.466   2.131  1.9055  0.5573  3.6034
  264TIP3    H222428   2.618   1.398   2.087  0.7480  0.2992  0.3786
  265TIP3   OH222429   1.371   1.614   0.136 -0.4487 -0.3974 -0.4754
  265TIP3    H122430   1.304   1.552   0.109 -2.9017  1.8868 -0.0481
  265TIP3    H222431   1.401   1.655   0.055 -0.0347 -0.9523 -0.6069
  266TIP3   OH222432   3.058   4.362   8.476 -0.9242 -0.1837  0.1180
  266TIP3    H122433   3.142   4.366   8.429  0.2860 -1.7409  1.9654
  266TIP3    H222434   3.064   4.430   8.542 -0.4075 -1.2978  1.2551
  267TIP3   OH222435   2.523   5.510   0.271 -0.8130 -0.8345  0.4523
  267TIP3    H122436   2.524   5.438   0.335  0.0395 -0.9784  0.2949
  267TIP3    H222437   2.582   5.480   0.201 -0.1325  0.1777  0.5712
  268TIP3   OH222438   3.402   3.142   0.386 -0.3529 -0.3708 -0.0563
  268TIP3    H122439   3.444   3.065   0.425  0.6456  0.8616  1.4075
  268TIP3    H222440   3.455   3.162   0.309  1.2451  0.6088  1.2464
  269TIP3   OH222441   1.147   1.457   6.599  0.3801  0.1172  0.5665
  269TIP3    H122442   1.196   1.388   6.643 -0.3345 -0.0439  1.1336
  269TIP3    H222443   1.169   1.448   6.506 -2.4007 -3.1871  0.0469
  270TIP3   OH222444   0.975   3.645   0.435  0.1420  0.0897  0.1033
  270TIP3    H122445   0.902   3.686   0.387  1.3312 -0.0359 -1.9389
  270TIP3    H222446   1.053   3.672   0.387  1.0543 -4.7995 -1.7338
  271TIP3   OH222447   3.833   1.488   8.437 -0.5587 -0.3899 -0.2027
  271TIP3    H122448   3.769   1.450   8.377  0.1552 -0.8558 -0.6785
  271TIP3    H222449   3.903   1.423   8.442  0.1468  0.3611 -0.1421
  272TIP3   OH222450   5.487   0.288   8.491  0.1514  0.0619 -0.2286
  272TIP3    H122451   5.531   0.212   8.530 -1.0458 -0.9083 -0.6850
  272TIP3    H222452   5.394   0.269   8.501 -0.1921  1.8752  0.3641
  273TIP3   OH222453   5.816   0.383   0.071  0.2544  0.4261 -0.1513
  273TIP3    H122454   5.797   0.476   0.056  1.2401  0.4958 -1.0297
  273TIP3    H222455   5.886   0.384   0.137 -0.0533  0.2896  0.1788
  274TIP3   OH222456   0.746   2.191   7.457 -0.0732 -0.4829 -0.2087
  274TIP3    H122457   0.725   2.185   7.364  1.6997 -0.3616 -0.6604
  274TIP3    H222458   0.665   2.220   7.499 -1.0721 -1.1627 -1.6191
  275TIP3   OH222459   3.395   6.545   6.946  0.4423  0.1883 -0.2366
  275TIP3    H122460   3.383   6.625   6.895  1.4613  1.2966  1.1936
  275TIP3    H222461   3.449   6.489   6.890 -0.6384  0.2725 -1.4304
  276TIP3   OH222462   6.548   6.822   8.259 -0.6820  0.1439  0.0608
  276TIP3    H122463   6.596   6.904   8.248  1.3899 -0.8511  1.0452
  276TIP3    H222464   6.616   6.754   8.255 -2.4007 -1.6077 -1.4000
  277TIP3   OH222465   4.980   6.695   7.325  0.4166 -0.1200 -0.0484
  277TIP3    H122466   4.924   6.654   7.390 -0.9809 -0.1016 -1.1959
  277TIP3    H222467   4.964   6.789   7.335  0.5994 -0.0861 -0.0706
  278TIP3   OH222468   2.061   3.410   7.412  0.2378 -0.2626  0.2612
  278TIP3    H122469   2.099   3.325   7.388 -1.8957 -1.3041  0.2724
  278TIP3    H222470   2.037   3.450   7.328  0.6760  0.0448  0.2835
  279TIP3   OH222471   4.956   6.825   0.205 -0.6404 -0.8629 -0.0742
  279TIP3    H122472   4.898   6.900   0.190 -1.0650 -1.4243 -1.4309
  279TIP3    H222473   4.898   6.757   0.240 -0.4742 -0.9082  0.1136
  280TIP3   OH222474   3.160   1.682   8.290  0.1295  0.4895 -0.6815
  280TIP3    H122475   3.095   1.684   8.219 -1.6385 -0.7383  0.7991
  280TIP3    H222476   3.155   1.592   8.324  1.0144  1.0136  0.9149
  281TIP3   OH222477   1.440   3.615   0.881 -0.0958  0.5491  0.0276
  281TIP3    H122478   1.414   3.588   0.969 -1.7729 -0.0792 -0.6202
  281TIP3    H222479   1.466   3.534   0.838  0.0152  0.7515 -0.2881
  282TIP3   OH222480   4.348   0.239   1.933 -0.1996  0.7665 -0.7373
  282TIP3    H122481   4.345   0.240   1.837 -0.2024  0.1962 -0.7477
  282TIP3    H222482   4.365   0.148   1.955 -1.4794  0.6482 -0.1554
  283TIP3   OH222483   6.549   0.975   0.083  0.1168 -0.4745 -0.0579
  283TIP3    H122484   6.544   0.926   0.165  0.5842  1.1243  0.9793
  283TIP3    H222485   6.469   1.027   0.081  0.4660  0.0637 -0.2287
  284TIP3   OH222486   0.011   2.833   7.648 -0.2191  0.1465  0.0996
  284TIP3    H122487  -0.023   2.922   7.641  0.3211  0.2634 -1.6965
  284TIP3    H222488   0.098   2.838   7.607  0.1556 -1.0303  0.7197
  285TIP3   OH222489   4.122   5.811   8.647 -0.0595  0.2473 -0.4933
  285TIP3    H122490   4.157   5.789   8.561 -0.6136 -2.5602 -0.0891
  285TIP3    H222491   4.190   5.865   8.687 -0.1977  2.4527 -2.9611
  286TIP3   OH222492   3.632   1.204   0.298  0.7986 -0.2571 -0.2992
  286TIP3    H122493   3.698   1.266   0.327  0.3480 -0.8268  2.1511
  286TIP3    H222494   3.549   1.242   0.325  0.3720 -0.9840 -0.5602
  287TIP3   OH222495   4.238   4.619   8.342  1.1829 -0.1745  0.1399
  287TIP3    H122496   4.323   4.576   8.341  0.1611 -2.3595 -0.5700
  287TIP3    H222497   4.189   4.573   8.411  0.5035  0.9168  0.4207
  288TIP3   OH222498   2.787   5.879   0.308  0.0790  0.4310 -0.2125
  288TIP3    H122499   2.706   5.929   0.305 -0.0001  0.2895 -0.6262
  288TIP3    H222500   2.854   5.943   0.331  0.1252  0.9392 -1.6288
  289TIP3   OH222501   6.350   5.668   1.054  0.1931  0.0069 -0.4694
  289TIP3    H122502   6.388   5.624   0.978  0.7246 -0.0553 -0.1725
  289TIP3    H222503   6.257   5.646   1.050  0.4742 -1.3162 -0.2225
  290TIP3   OH222504   1.627   0.133   1.473  0.0595 -0.0379  0.1161
  290TIP3    H122505   1.539   0.120   1.439  0.9186 -0.8232 -2.0076
  290TIP3    H222506   1.644   0.227   1.460 -0.6044  0.2036  0.9487
  291TIP3   OH222507   1.531   3.252   7.275  0.5293 -0.2132 -0.0624
  291TIP3    H122508   1.513   3.211   7.359  0.2024 -0.9376 -0.4706
  291TIP3    H222509   1.620   3.285   7.282  0.4651 -0.1768  0.5957
  292TIP3   OH222510   0.564   5.514   8.261  0.0620 -0.0362  0.4404
  292TIP3    H122511   0.624   5.472   8.199  0.2954 -0.2930  0.8379
  292TIP3    H222512   0.491   5.453   8.268  0.5510 -0.5485  1.2687
  293TIP3   OH222513   6.160   0.102   8.136 -0.0520  0.1552  0.4109
  293TIP3    H122514   6.171   0.076   8.044  0.0125 -0.7332  0.6548
  293TIP3    H222515   6.081   0.056   8.164 -0.1251  0.4997  0.7769
  294TIP3   OH222516   2.128   2.864   6.771 -0.7289  0.6288  0.6633
  294TIP3    H122517   2.189   2.935   6.785  0.2796 -0.4176  1.7674
  294TIP3    H222518   2.148   2.832   6.683  0.5735  0.0806  1.1370
  295TIP3   OH222519   6.469   0.036   7.936  0.1151  0.3410 -0.3107
  295TIP3    H122520   6.441  -0.054   7.924 -1.3302  0.6060  0.7496
  295TIP3    H222521   6.520   0.034   8.017  0.7491  0.3561 -0.7024
  296TIP3   OH222522   0.089   1.935   2.439  0.0577 -0.2797  0.5247
  296TIP3    H122523   0.013   1.905   2.388  1.6636 -0.5196 -1.9076
  296TIP3    H222524   0.141   1.856   2.453  0.6955  0.1489  0.6377
  297TIP3   OH222525   3.484   0.277   0.756 -0.0977 -0.1510  0.1473
  297TIP3    H122526   3.414   0.221   0.726 -0.7288  0.3883  0.5873
  297TIP3    H222527   3.459   0.302   0.845 -0.4991  1.8627 -0.4837
  298TIP3   OH222528   0.495   5.534   7.943 -0.1048  0.7086 -0.2748
  298TIP3    H122529   0.513   5.460   8.001  1.3342  1.9376  0.9304
  298TIP3    H222530   0.574   5.544   7.890 -0.1597  1.5427 -0.2240
  299TIP3   OH222531   0.848   3.443   1.165 -0.3346 -0.5470  0.0418
  299TIP3    H122532   0.921   3.444   1.227 -0.5740 -1.2320  0.3469
  299TIP3    H222533   0.877   3.500   1.094  2.0210 -3.3963 -1.5311
  300TIP3   OH222534   5.535   0.953   0.991 -0.1009 -0.0655  0.3686
  300TIP3    H122535   5.536   0.911   0.905  0.6746 -0.2765  0.4671
  300TIP3    H222536   5.570   1.041   0.976  0.2373 -0.1739  0.4904
  301TIP3   OH222537   3.992   2.865   6.663 -0.1999 -0.4094  0.3371
  301TIP3    H122538   3.904   2.862   6.701 -0.9732 -0.6887 -1.3862
  301TIP3    H222539   4.014   2.774   6.645 -0.1286 -0.2325 -0.4871
  302TIP3   OH222540   5.954   5.209   1.386  0.8080 -0.1404  0.6863
  302TIP3    H122541   5.867   5.196   1.423  0.6071 -0.7509 -0.0016
  302TIP3    H222542   5.950   5.296   1.345 -0.4021 -1.2986 -1.8594
  303TIP3   OH222543   1.386   0.009   6.462 -0.7722 -0.4323  0.5337
  303TIP3    H122544   1.474   0.003   6.425 -0.6374 -1.3098  0.9593
  303TIP3    H222545   1.343   0.077   6.411 -0.5676 -1.5495 -1.1846
  304TIP3   OH222546   3.050   2.317   2.053  0.3069 -0.2935 -0.1620
  304TIP3    H122547   3.132   2.338   2.098  0.3062 -0.7962  0.0879
  304TIP3    H222548   3.078   2.275   1.972  0.3224  1.2646 -1.0018
  305TIP3   OH222549   0.905   3.355   6.384  0.0828 -0.2491 -0.0234
  305TIP3    H122550   0.903   3.363   6.479  0.0943  1.8937 -0.1535
  305TIP3    H222551   0.998   3.364   6.361 -0.0681  0.6581 -0.3079
  306TIP3   OH222552   6.788   2.272   1.582  0.1831  0.4810 -0.2786
  306TIP3    H122553   6.808   2.365   1.592  2.4775 -0.1385  1.7053
  306TIP3    H222554   6.868   2.233   1.547 -0.5299 -0.8535 -0.5204
  307TIP3   OH222555   0.545   2.838   2.154 -0.2216  0.0971  0.1278
  307TIP3    H122556   0.461   2.827   2.110 -1.2364 -1.7552  2.3257
  307TIP3    H222557   0.538   2.923   2.198 -0.6558  0.2713 -0.2686
  308TIP3   OH222558   1.232   4.826   1.776  0.5120  0.1451 -0.0497
  308TIP3    H122559   1.188   4.828   1.861  0.1567 -0.8568 -0.1939
  308TIP3    H222560   1.272   4.739   1.772  0.3374  0.0996 -0.9989
  309TIP3   OH222561   4.378   1.160   1.526 -0.4717 -0.3671 -0.5524
  309TIP3    H122562   4.462   1.171   1.481  0.9005 -4.4395  0.5676
  309TIP3    H222563   4.382   1.224   1.597  1.2560  0.1839 -1.0655
  310TIP3   OH222564   6.002   5.056   6.649 -0.0125 -0.2741 -0.6542
  310TIP3    H122565   5.989   4.978   6.704  2.8050  0.4369  1.2130
  310TIP3    H222566   5.913   5.085   6.628 -1.1986 -2.0071  1.5115
  311TIP3   OH222567   4.407   4.052   7.977  0.6092  0.1088  0.0253
  311TIP3    H122568   4.480   4.107   8.003  2.6860 -1.3331 -2.3124
  311TIP3    H222569   4.410   4.051   7.881  0.4421 -3.6429 -0.0803
  312TIP3   OH222570   4.013   4.469   1.864  0.0015 -0.5066  0.3287
  312TIP3    H122571   3.942   4.436   1.919  0.3087 -0.3651  0.8178
  312TIP3    H222572   4.021   4.561   1.889 -0.3018 -0.2647 -0.4352
  313TIP3   OH222573   4.733   2.107   1.473  0.2210 -0.0632 -0.5346
  313TIP3    H122574   4.676   2.151   1.536 -0.3240  0.6981 -1.5377
  313TIP3    H222575   4.794   2.056   1.527  0.0350  0.8968  0.6085
  314TIP3   OH222576   2.245   1.817   0.472  0.2302  0.6659 -0.4389
  314TIP3    H122577   2.181   1.888   0.461 -0.3098  0.6661  2.0572
  314TIP3    H222578   2.326   1.863   0.493  0.3710  0.5800 -0.7872
  315TIP3   OH222579   3.776   6.470   0.871  0.4932  0.1846 -0.9242
  315TIP3    H122580   3.767   6.502   0.781  0.7800 -0.1382 -1.0680
  315TIP3    H222581   3.741   6.381   0.869 -1.5692  0.9154 -0.2280
  316TIP3   OH222582   2.384   3.782   2.434 -0.0703 -0.4194 -0.1055
  316TIP3    H122583   2.353   3.868   2.406 -1.0251 -0.2484  1.3920
  316TIP3    H222584   2.324   3.720   2.392 -0.6610 -0.2402  0.4693
  317TIP3   OH222585   4.911   3.552   8.088 -0.5099  0.6020  0.5066
  317TIP3    H122586   4.880   3.588   8.171  0.5780  0.3547  1.0376
  317TIP3    H222587   4.979   3.490   8.112 -0.7117 -0.0561 -0.5348
  318TIP3   OH222588   2.270   3.019   7.890  0.2164 -0.2216 -0.9640
  318TIP3    H122589   2.296   3.056   7.806  1.2071  1.0842 -0.1149
  318TIP3    H222590   2.299   3.083   7.955 -0.5403 -1.1899  0.3835
  319TIP3   OH222591   4.455   6.089   7.283 -0.3154  0.0097  0.0377
  319TIP3    H122592   4.436   6.089   7.189 -0.3712 -0.2687  0.0472
  319TIP3    H222593   4.488   6.001   7.301 -1.8321 -0.4906  0.5774
  320TIP3   OH222594   0.907   4.012   6.227  0.0553  0.5552 -0.1704
  320TIP3    H122595   0.952   3.994   6.145 -0.8586 -0.8680 -0.3819
  320TIP3    H222596   0.824   3.966   6.220 -1.0581  2.3141  0.6158
  321TIP3   OH222597   0.386   1.601   8.229 -0.2316 -0.1087 -0.0174
  321TIP3    H122598   0.475   1.627   8.253 -0.1312  0.2322 -0.7135
  321TIP3    H222599   0.383   1.615   8.134 -0.4739 -1.7335 -0.2795
  322TIP3   OH222600   5.791   6.679   0.211  0.3849  0.1478  0.1139
  322TIP3    H122601   5.736   6.726   0.147 -0.5935 -1.8959 -0.6453
  322TIP3    H222602   5.828   6.606   0.161  1.7129 -0.0083  1.2770
  323TIP3   OH222603   0.070   1.569   7.439 -0.4880  0.2293 -0.0717
  323TIP3    H122604   0.067   1.502   7.507 -0.5815 -0.3012 -0.5902
  323TIP3    H222605   0.079   1.520   7.357  1.1773  0.9173 -0.3306
  324TIP3   OH222606   1.313   2.074   2.681 -0.8194 -0.5601  0.0355
  324TIP3    H122607   1.277   2.115   2.760 -4.1322 -1.6724 -0.7352
  324TIP3    H222608   1.331   2.148   2.622 -1.6282  0.1057  0.6004
  325TIP3   OH222609   6.377   6.016   1.265  0.2316 -0.1135  0.6179
  325TIP3    H122610   6.355   5.997   1.356  0.3728  1.3481  0.9693
  325TIP3    H222611   6.471   6.033   1.265  0.0281  1.0644  0.4136
  326TIP3   OH222612   2.188   1.988   8.220  0.1997 -0.3082  0.5828
  326TIP3    H122613   2.176   1.922   8.152 -2.0819 -0.7229  1.3273
  326TIP3    H222614   2.241   1.944   8.287 -1.1773 -1.3836  1.0089
  327TIP3   OH222615   2.835   2.907   0.691 -0.1117  0.1555 -0.4203
  327TIP3    H122616   2.839   2.813   0.705  1.4022  0.3769  0.9253
  327TIP3    H222617   2.745   2.924   0.665 -0.5370 -1.5920 -0.1889
  328TIP3   OH222618   4.149   0.144   7.589 -0.3473 -0.3985  0.4792
  328TIP3    H122619   4.077   0.207   7.585 -0.9385 -1.0560  0.5251
  328TIP3    H222620   4.115   0.065   7.546 -0.1677 -1.2041  1.7549
  329TIP3   OH222621   5.211   1.261   7.861  0.1231  0.3029  0.0125
  329TIP3    H122622   5.240   1.352   7.859 -0.3236  0.4301 -1.5817
  329TIP3    H222623   5.270   1.216   7.801  0.8817 -0.6597  1.4170
  330TIP3   OH222624   1.275   6.283   8.486  0.1237  0.4409 -0.0955
  330TIP3    H122625   1.361   6.293   8.447  0.1467  1.8799  0.2622
  330TIP3    H222626   1.257   6.367   8.527 -1.5984  0.2893 -0.4474
  331TIP3   OH222627   0.118   2.484   0.695 -0.1186  0.5059  0.2113
  331TIP3    H122628   0.079   2.474   0.608  0.0465  1.3799  0.0250
  331TIP3    H222629   0.150   2.396   0.717 -1.4560 -0.0576  0.0263
  332TIP3   OH222630   3.219   4.883   0.398  0.4222 -0.1048 -0.1053
  332TIP3    H122631   3.304   4.877   0.442  1.1559  2.2521 -1.0605
  332TIP3    H222632   3.238   4.867   0.306 -0.6496 -2.1339 -0.0404
  333TIP3   OH222633   1.124   2.869   1.885 -0.0601 -0.6211  0.1578
  333TIP3    H122634   1.122   2.774   1.896 -0.0062 -0.5795  0.5609
  333TIP3    H222635   1.106   2.883   1.792 -0.4437 -1.0095  0.1666
  334TIP3   OH222636   0.624   1.534   7.304 -0.3405 -0.1191 -0.1732
  334TIP3    H122637   0.543   1.500   7.342 -0.2810 -0.0236  0.0376
  334TIP3    H222638   0.643   1.614   7.354  0.3716 -0.6225  0.3784
  335TIP3   OH222639   5.896   6.108   8.238 -0.2825  0.0186 -0.3380
  335TIP3    H122640   5.902   6.017   8.266 -0.6168 -0.2112 -0.9943
  335TIP3    H222641   5.802   6.126   8.236 -0.1917  0.6594  0.6642
  336TIP3   OH222642   6.047   1.937   1.347  0.1306  0.5815  0.5334
  336TIP3    H122643   6.031   2.021   1.389 -1.0615 -0.1948  1.7390
  336TIP3    H222644   6.089   1.884   1.416  2.5315  0.6966 -0.7412
  337TIP3   OH222645   0.325   4.935   8.219  0.0395 -0.1869 -0.0499
  337TIP3    H122646   0.320   4.839   8.226  4.2647 -0.7455 -1.7415
  337TIP3    H222647   0.332   4.965   8.309 -0.0439 -1.5668  0.4512
  338TIP3   OH222648   1.360   0.331   6.570 -0.1408 -0.1192  0.3422
  338TIP3    H122649   1.422   0.394   6.607  0.7363 -1.4799  1.2998
  338TIP3    H222650   1.344   0.362   6.481  1.9369  0.2854  0.0612
  339TIP3   OH222651   6.571   1.705   1.018 -0.2957  0.3205  0.1562
  339TIP3    H122652   6.637   1.730   1.083 -0.2919  2.2760 -0.5346
  339TIP3    H222653   6.595   1.616   0.992  2.5751  1.2529 -0.6694
  340TIP3   OH222654   6.628   4.323   7.309 -0.1678 -0.3707 -0.5319
  340TIP3    H122655   6.593   4.263   7.375  0.9602  0.3935  0.8272
  340TIP3    H222656   6.721   4.303   7.305  0.0202  0.5108 -0.8886
  341TIP3   OH222657   4.216   3.127   6.799  0.0665  0.1288  0.1046
  341TIP3    H122658   4.159   3.079   6.859 -1.0192 -0.0532 -1.0222
  341TIP3    H222659   4.258   3.193   6.853  0.2646 -0.9878  1.3410
  342TIP3   OH222660   4.343   1.452   8.435  0.3815 -0.5627  0.3399
  342TIP3    H122661   4.280   1.443   8.507 -2.1515  3.1139 -1.0684
  342TIP3    H222662   4.410   1.511   8.469 -0.6287  0.8919 -0.0845
  343TIP3   OH222663   1.661   5.467   8.257  0.0670 -0.1091 -0.0753
  343TIP3    H122664   1.656   5.461   8.353 -1.3813 -1.0021 -0.1877
  343TIP3    H222665   1.706   5.388   8.230 -1.1332 -0.7656 -0.2274
  344TIP3   OH222666   2.301   6.274   6.844  0.2525  0.3641 -0.7883
  344TIP3    H122667   2.348   6.339   6.790 -1.5910  1.3618 -1.2736
  344TIP3    H222668   2.230   6.243   6.788  0.3487 -1.1681 -0.1057
  345TIP3   OH222669   6.682   0.531   0.276  0.3021 -0.1581  0.4562
  345TIP3    H122670   6.599   0.484   0.278 -0.0737  0.4869  2.3372
  345TIP3    H222671   6.679   0.589   0.352  0.9253  2.6279 -1.4795
  346TIP3   OH222672   2.903   1.686   0.548 -0.4734  0.7099 -0.3348
  346TIP3    H122673   2.981   1.730   0.581 -0.3669 -0.5839  1.2773
  346TIP3    H222674   2.931   1.644   0.467  1.2891 -1.7625  1.3973
  347TIP3   OH222675   5.573   0.143   0.934  0.4001  0.0661 -0.5531
  347TIP3    H122676   5.542   0.172   1.020 -0.0262 -1.2800 -0.2335
  347TIP3    H222677   5.568   0.048   0.938  2.6957 -0.1372 -1.2041
  348TIP3   OH222678   3.833   0.363   1.098 -0.0786  0.5834 -0.3896
  348TIP3    H122679   3.908   0.359   1.039 -0.1063  0.0564 -0.3938
  348TIP3    H222680   3.841   0.448   1.142 -0.1792  1.0782 -1.3094
  349TIP3   OH222681   4.493   4.807   7.097 -0.7247 -0.3027  0.8001
  349TIP3    H122682   4.573   4.778   7.051 -1.9029 -0.0876 -1.5255
  349TIP3    H222683   4.489   4.901   7.081 -0.4309  0.0631  2.6529
  350TIP3   OH222684   6.759   4.799   2.056  0.3882  0.0512 -0.6454
  350TIP3    H122685   6.853   4.805   2.070  0.5119  2.1413 -2.0467
  350TIP3    H222686   6.722   4.870   2.109 -0.6541 -1.7640  1.2589
  351TIP3   OH222687   4.612   4.239   6.498  0.1936  0.5201 -0.4698
  351TIP3    H122688   4.676   4.209   6.562  0.9866  0.5315 -1.2573
  351TIP3    H222689   4.529   4.242   6.547  0.9287  1.2864  0.7727
  352TIP3   OH222690   4.255   3.342   0.814 -0.4749  0.4491  0.1703
  352TIP3    H122691   4.200   3.264   0.819 -1.4504  1.1364  0.4835
  352TIP3    H222692   4.314   3.326   0.741 -1.3480 -0.1549 -0.4096
  353TIP3   OH222693   4.027   2.543   2.030 -0.6424 -0.0806 -0.4249
  353TIP3    H122694   3.950   2.573   2.079 -0.5810 -0.3563 -0.1560
  353TIP3    H222695   4.050   2.617   1.974 -0.6527  0.2733  0.0317
  354TIP3   OH222696   6.362   1.899   7.415  0.3922  0.8458 -0.6660
  354TIP3    H122697   6.269   1.879   7.410  0.3478  1.1423 -1.0888
  354TIP3    H222698   6.369   1.989   7.382  0.8804  0.6724 -1.0483
  355TIP3   OH222699   1.102   5.264   6.710  0.1375 -0.5591 -0.4452
  355TIP3    H122700   1.016   5.227   6.690 -0.6920  1.2479 -0.4153
  355TIP3    H222701   1.129   5.220   6.791 -0.5986 -1.3853 -0.6344
  356TIP3   OH222702   5.587   3.791   1.462  0.2957 -0.0417 -0.5132
  356TIP3    H122703   5.535   3.711   1.466 -0.8780  0.7484  1.4551
  356TIP3    H222704   5.652   3.780   1.532 -1.4384  1.6624  1.5244
  357TIP3   OH222705   0.134   1.516   2.220 -0.0081 -0.1832 -0.1549
  357TIP3    H122706   0.150   1.589   2.161 -0.3258 -0.1819 -0.2455
  357TIP3    H222707   0.104   1.556   2.301  1.5067 -0.1268  0.4003
  358TIP3   OH222708   0.908   5.508   0.026  0.1021 -0.0364 -0.1935
  358TIP3    H122709   0.930   5.562   0.102  1.8518 -0.1295 -0.5937
  358TIP3    H222710   0.812   5.514   0.020 -0.2848 -1.1151  2.8094
  359TIP3   OH222711   1.378   0.513   7.148  0.4280 -0.0446 -0.1867
  359TIP3    H122712   1.419   0.456   7.082  1.0540 -1.2779  1.1981
  359TIP3    H222713   1.452   0.558   7.189  0.1759 -0.3142  0.5774
  360TIP3   OH222714   0.984   6.793   7.905  0.2217  0.1863  0.1262
  360TIP3    H122715   1.070   6.766   7.936  0.2180  0.4466  0.3677
  360TIP3    H222716   0.988   6.889   7.902 -0.0353  0.1969  0.0724
  361TIP3   OH222717   1.048   4.978   7.584  0.8410  0.2012  0.1047
  361TIP3    H122718   0.962   5.013   7.606  0.3080 -1.0617  0.1476
  361TIP3    H222719   1.101   4.992   7.662  0.1150 -0.6824  0.7786
  362TIP3   OH222720   0.744   4.184   7.346 -0.4375 -0.4003  0.3945
  362TIP3    H122721   0.795   4.105   7.366  0.3746 -0.7582 -2.6192
  362TIP3    H222722   0.664   4.174   7.397  0.0764 -2.6750  0.8882
  363TIP3   OH222723   2.572   0.101   1.409 -0.7080 -0.1060 -0.5939
  363TIP3    H122724   2.574   0.194   1.429 -0.0991 -0.4226  1.0156
  363TIP3    H222725   2.653   0.085   1.361 -0.7268  0.1452 -0.7138
  364TIP3   OH222726   1.981   1.402   0.922  0.0978 -0.5473 -0.3171
  364TIP3    H122727   1.961   1.355   1.003 -1.7345  0.1868 -0.2778
  364TIP3    H222728   2.012   1.334   0.862  0.6840 -1.2369  0.7305
  365TIP3   OH222729   1.073   4.874   0.558 -0.1409  0.4493  0.0862
  365TIP3    H122730   1.146   4.917   0.513  1.3790 -1.4863  0.5791
  365TIP3    H222731   1.042   4.810   0.495 -0.4508  0.2617  0.4327
  366TIP3   OH222732   4.991   2.791   6.987 -0.6275  0.0159  0.3064
  366TIP3    H122733   4.898   2.783   6.971 -0.5060 -0.6696 -0.0729
  366TIP3    H222734   5.029   2.709   6.956 -0.0643 -0.2887  1.6770
  367TIP3   OH222735   5.399   1.587   0.584 -0.2933  0.1620 -0.0752
  367TIP3    H122736   5.375   1.665   0.634  1.5781  0.2566  0.7783
  367TIP3    H222737   5.399   1.517   0.649 -1.9335 -0.5794 -0.8323
  368TIP3   OH222738   1.285   1.121   7.005  0.2281 -0.5343  0.8664
  368TIP3    H122739   1.225   1.068   7.057  0.4329 -1.0276  0.6125
  368TIP3    H222740   1.300   1.199   7.057 -1.7893  0.2962  0.2963
  369TIP3   OH222741   3.608   5.114   7.911  0.6361 -0.2422 -0.0760
  369TIP3    H122742   3.556   5.095   7.989  0.9909 -2.5739 -0.3321
  369TIP3    H222743   3.583   5.047   7.848  3.7049 -1.3290 -0.3042
  370TIP3   OH222744   0.913   2.194   1.886  0.4852  0.2363  0.4929
  370TIP3    H122745   0.845   2.127   1.879  1.3070 -0.6969  1.1446
  370TIP3    H222746   0.981   2.154   1.941  1.0550  1.5580  0.8068
  371TIP3   OH222747   5.723   3.577   1.740 -0.2408  0.2758  0.1009
  371TIP3    H122748   5.629   3.581   1.757 -0.5518 -0.7806 -1.1679
  371TIP3    H222749   5.752   3.668   1.741 -1.2739  0.6137  0.5051
  372TIP3   OH222750   2.230   0.620   1.873  0.1741 -0.0752  0.0499
  372TIP3    H122751   2.280   0.613   1.955  1.6858  0.1173 -0.8019
  372TIP3    H222752   2.274   0.691   1.825  0.7334 -1.6411 -1.8533
  373TIP3   OH222753   0.160   3.308   7.403  0.2111 -0.2070  0.0662
  373TIP3    H122754   0.146   3.215   7.388  1.7962 -0.2639 -1.3109
  373TIP3    H222755   0.131   3.350   7.323 -1.1848  0.5917  0.9527
  374TIP3   OH222756   3.665   1.280   2.625 -0.2071  0.2867  0.0746
  374TIP3    H122757   3.732   1.344   2.647 -0.9843  0.5832  1.8079
  374TIP3    H222758   3.706   1.222   2.561  1.0910  1.4797 -0.2197
  375TIP3   OH222759   0.554   4.173   8.343 -0.1519 -0.0553 -0.3700
  375TIP3    H122760   0.516   4.092   8.307 -2.0643  0.4840  0.3137
  375TIP3    H222761   0.621   4.143   8.405 -0.1417 -1.0881 -0.8652
  376TIP3   OH222762   5.543   5.902   7.376  0.6986 -0.2994 -0.3572
  376TIP3    H122763   5.498   5.986   7.374  0.0154 -0.6556 -0.2742
  376TIP3    H222764   5.476   5.838   7.352  0.5115 -1.0929  1.9534
  377TIP3   OH222765   2.251   3.041   1.700  0.2205 -0.1351  0.0303
  377TIP3    H122766   2.323   3.090   1.661  0.0594  0.7969  0.8631
  377TIP3    H222767   2.285   2.953   1.711  0.5415 -0.2209 -1.4415
  378TIP3   OH222768   3.249   5.031   0.022  0.2786  0.2560  0.3724
  378TIP3    H122769   3.335   5.006  -0.010 -0.5108 -2.0121 -0.1445
  378TIP3    H222770   3.253   5.015   0.117  0.2343 -0.4827  0.2524
  379TIP3   OH222771   4.906   2.698   6.258 -0.0754 -0.1507 -0.2400
  379TIP3    H122772   4.955   2.654   6.328  1.9463  3.1159  0.6474
  379TIP3    H222773   4.947   2.667   6.177  1.2560  0.0295  0.3348
  380TIP3   OH222774   6.617   3.415   7.604 -0.1405  0.4445  0.4115
  380TIP3    H122775   6.660   3.442   7.685 -0.3060  0.9350  0.3375
  380TIP3    H222776   6.579   3.329   7.624  1.6029 -0.4058  0.2240
  381TIP3   OH222777   1.065   3.547   7.845 -0.2675  0.3990  0.7546
  381TIP3    H122778   1.003   3.493   7.894  0.8850 -1.3964  0.3141
  381TIP3    H222779   1.082   3.497   7.765  0.2412  1.8034 -0.0513
  382TIP3   OH222780   3.361   6.692   0.721 -0.0395  0.3656  0.1719
  382TIP3    H122781   3.400   6.768   0.680 -1.6108  0.9976 -0.2126
  382TIP3    H222782   3.341   6.721   0.810  0.3961  0.0241  0.3870
  383TIP3   OH222783   3.585   0.118   7.329  0.0709  0.3394 -0.2921
  383TIP3    H122784   3.557   0.155   7.245 -0.0564  2.2269  0.5193
  383TIP3    H222785   3.591   0.194   7.387  2.0601 -0.6569  0.8957
  384TIP3   OH222786   0.402   0.552   8.106  0.2241 -0.1441 -0.1771
  384TIP3    H122787   0.326   0.522   8.057 -0.6571  1.3690  0.2035
  384TIP3    H222788   0.392   0.647   8.110  3.0254  0.3332 -1.5977
  385TIP3   OH222789   6.906   2.253   7.497 -0.4730  0.5901  0.2360
  385TIP3    H122790   6.815   2.226   7.514 -0.5886  0.6451 -0.2886
  385TIP3    H222791   6.897   2.339   7.456 -0.1336  1.2275  1.4290
  386TIP3   OH222792   1.427   2.939   1.124 -0.4412 -0.6528  0.1279
  386TIP3    H122793   1.517   2.968   1.141 -1.6115  2.9082  1.0131
  386TIP3    H222794   1.426   2.917   1.031  1.2473 -0.5017  0.0373
  387TIP3   OH222795   3.134   3.289   2.381 -0.2688 -0.2047  0.1944
  387TIP3    H122796   3.135   3.204   2.424  0.4005  0.2132  1.0546
  387TIP3    H222797   3.061   3.285   2.319 -0.2366 -1.3923  0.2206
  388TIP3   OH222798   0.174   0.537   7.925  0.0400 -0.2133  0.1612
  388TIP3    H122799   0.174   0.467   7.991 -0.5486  1.3536  1.9429
  388TIP3    H222800   0.081   0.554   7.909  0.1741 -1.1179 -1.7474
  389TIP3   OH222801   3.621   3.724   8.306 -0.4989  0.1010  0.1354
  389TIP3    H122802   3.628   3.790   8.237  1.3259  0.5798  0.7217
  389TIP3    H222803   3.667   3.648   8.270  1.2187  0.6338  1.0830
  390TIP3   OH222804   4.598   6.820   1.919 -0.4762 -0.0503 -0.2028
  390TIP3    H122805   4.613   6.800   1.826 -0.0611  0.6360 -0.2887
  390TIP3    H222806   4.669   6.880   1.942  0.3011 -1.3560  0.9474
  391TIP3   OH222807   5.610   0.339   6.684  0.0226 -0.2936  0.3350
  391TIP3    H122808   5.582   0.249   6.694  1.2092 -1.0891 -2.4980
  391TIP3    H222809   5.538   0.382   6.637  0.8782 -0.7817 -1.5359
  392TIP3   OH222810   0.475   6.021   0.994  0.3527  1.1539  0.2351
  392TIP3    H122811   0.559   6.067   1.006  1.5771 -0.1704 -2.3303
  392TIP3    H222812   0.420   6.083   0.947  0.1485  1.7368  1.2117
  393TIP3   OH222813   2.082   5.351   0.798 -0.0783 -0.7745 -0.1491
  393TIP3    H122814   2.073   5.262   0.832 -2.5023  0.2321  2.1718
  393TIP3    H222815   2.098   5.405   0.875 -1.1480  1.0860 -1.1522
  394TIP3   OH222816   2.491   4.516   1.385  0.0840  0.3542 -0.0556
  394TIP3    H122817   2.468   4.608   1.399  0.1204  0.2900  0.4431
  394TIP3    H222818   2.586   4.513   1.400  0.3191  0.4822 -1.3885
  395TIP3   OH222819   6.273   3.640   2.316 -0.2687 -0.4026 -0.1775
  395TIP3    H122820   6.304   3.631   2.226  0.0417  1.8678 -0.3454
  395TIP3    H222821   6.209   3.711   2.313 -0.7587 -0.7401  1.2886
  396TIP3   OH222822   0.382   0.825   8.067 -0.9935 -0.3018 -0.2751
  396TIP3    H122823   0.351   0.904   8.111  1.7857  1.4499 -1.1661
  396TIP3    H222824   0.349   0.833   7.977 -1.8399 -0.8695 -0.0177
  397TIP3   OH222825   0.516   3.956   1.525  0.0667  0.2981 -0.0692
  397TIP3    H122826   0.532   3.870   1.485 -2.9444 -2.0432  3.1267
  397TIP3    H222827   0.447   3.995   1.472  0.2070 -0.1037 -0.5490
  398TIP3   OH222828   2.830   1.016   0.218 -0.0994  0.0425 -0.0356
  398TIP3    H122829   2.829   1.108   0.243  2.0913 -0.0316  0.5468
  398TIP3    H222830   2.809   1.016   0.124  0.4921  1.2049 -0.1851
  399TIP3   OH222831   0.860   1.761   6.854  0.3009  0.0990 -0.0527
  399TIP3    H122832   0.932   1.792   6.908 -1.9898  1.0023  2.7491
  399TIP3    H222833   0.869   1.665   6.855  2.6053  0.2203 -1.6414
  400TIP3   OH222834   4.365   3.846   1.356  0.8363  0.2270  0.4151
  400TIP3    H122835   4.312   3.894   1.419  1.0217  0.2075  0.5871
  400TIP3    H222836   4.319   3.763   1.344  1.0385  0.0459  0.8698
  401TIP3   OH222837   1.709   3.887   7.180 -0.0988  0.3474 -0.0636
  401TIP3    H122838   1.785   3.840   7.143 -0.2674  0.2946 -0.3445
  401TIP3    H222839   1.722   3.978   7.153 -0.4397  0.2364 -0.6160
  402TIP3   OH222840   3.772   1.463   0.351  0.9418 -0.1545 -0.3243
  402TIP3    H122841   3.830   1.511   0.410 -0.6741  0.8101  0.5416
  402TIP3    H222842   3.706   1.424   0.409  0.4594 -0.8490 -1.3174
  403TIP3   OH222843   6.670   5.580   7.709 -0.1666 -0.1231  0.1698
  403TIP3    H122844   6.632   5.518   7.772  0.4148 -0.8560 -0.1838
  403TIP3    H222845   6.723   5.639   7.763  1.9106 -1.9169  0.2497
  404TIP3   OH222846   2.336   4.411   1.187 -0.1077  0.6059 -0.0829
  404TIP3    H122847   2.390   4.344   1.146  0.1785  1.8531 -1.8938
  404TIP3    H222848   2.386   4.440   1.263 -0.4514 -1.4814  1.0050
  405TIP3   OH222849   1.077   1.144   1.547 -0.5701  0.0621 -0.1773
  405TIP3    H122850   1.114   1.098   1.622 -1.0120  1.1779  0.7633
  405TIP3    H222851   1.136   1.218   1.533 -0.1950 -0.4293 -1.2899
  406TIP3   OH222852   5.766   6.431   7.640  0.4107  0.1101 -0.1691
  406TIP3    H122853   5.679   6.402   7.613 -1.2202  2.4415  2.1079
  406TIP3    H222854   5.799   6.361   7.696 -1.2492  0.3727  1.2024
  407TIP3   OH222855   5.018   1.945   7.689  0.2875  0.6887 -0.1397
  407TIP3    H122856   5.099   1.962   7.641  0.3623  0.5754 -0.0528
  407TIP3    H222857   4.949   1.980   7.633  0.2274 -0.8851 -1.0857
  408TIP3   OH222858   6.250   5.113   1.203  0.3551  0.2359 -0.0014
  408TIP3    H122859   6.288   5.200   1.189  0.6193  0.5922  2.5013
  408TIP3    H222860   6.293   5.057   1.139  0.6313  1.8032 -1.2510
  409TIP3   OH222861   6.041   2.146   8.024 -1.0028  0.4759 -0.1855
  409TIP3    H122862   6.108   2.082   8.000 -1.0827  0.4621 -0.3817
  409TIP3    H222863   5.959   2.097   8.022 -0.9087  0.2325  1.1145
  410TIP3   OH222864   4.897   6.477   8.078 -0.6647  0.2706  0.0464
  410TIP3    H122865   4.837   6.417   8.035 -1.4514  0.7901  0.3940
  410TIP3    H222866   4.959   6.420   8.125 -0.1678 -0.2830 -1.2376
  411TIP3   OH222867   1.203   4.467   2.325 -0.3721  0.0584 -0.0762
  411TIP3    H122868   1.180   4.560   2.329 -0.2050  0.2057 -1.7441
  411TIP3    H222869   1.157   4.427   2.399  0.1852  1.5874  1.1455
  412TIP3   OH222870   0.368   2.449   1.776  0.5320 -0.4869 -0.4817
  412TIP3    H122871   0.436   2.513   1.796 -1.8559  2.4363 -1.0257
  412TIP3    H222872   0.393   2.413   1.691  1.3861  0.5588 -0.6968
  413TIP3   OH222873   3.995   6.870   0.725 -0.2552  0.9560  0.1364
  413TIP3    H122874   4.028   6.848   0.637 -1.1827  0.6549 -0.1526
  413TIP3    H222875   3.935   6.943   0.710  0.0105  1.2772  0.6097
  414TIP3   OH222876   4.859   1.410   7.510 -0.3476  0.1053  0.0062
  414TIP3    H122877   4.805   1.470   7.458  0.2955 -0.2523 -1.1012
  414TIP3    H222878   4.862   1.450   7.597 -1.8733  0.4506 -0.0706
  415TIP3   OH222879   4.480   5.770   1.089  0.0549  0.1571  0.3668
  415TIP3    H122880   4.570   5.762   1.058 -0.6327  0.4092 -1.8559
  415TIP3    H222881   4.442   5.840   1.036 -2.2703 -1.9289 -0.9264
  416TIP3   OH222882   4.208   6.498   1.151 -0.4120  0.3731  0.2330
  416TIP3    H122883   4.259   6.567   1.193  0.7689 -0.8753  0.9259
  416TIP3    H222884   4.117   6.520   1.170  0.0554  0.2639  2.8462
  417TIP3   OH222885   3.939   3.111   7.289  0.1314 -0.1347  0.2157
  417TIP3    H122886   3.871   3.151   7.234  0.0619  0.0369  0.4267
  417TIP3    H222887   3.898   3.031   7.322 -0.7129  0.9739  1.9879
  418TIP3   OH222888   6.773   5.484   8.300 -0.5760 -0.0798 -0.5388
  418TIP3    H122889   6.790   5.578   8.308  0.8613 -0.4877  2.0941
  418TIP3    H222890   6.728   5.460   8.381 -1.0836 -1.6582 -1.2438
  419TIP3   OH222891   5.022   3.638   0.570 -0.0793  0.0445  0.1167
  419TIP3    H122892   5.049   3.546   0.571 -0.5417 -0.0887  0.5787
  419TIP3    H222893   4.976   3.651   0.653  3.6042  1.8187  2.1097
  420TIP3   OH222894   2.730   0.252   7.403  0.0288 -0.1661 -0.5728
  420TIP3    H122895   2.658   0.312   7.384 -1.5766 -1.9218 -0.2592
  420TIP3    H222896   2.799   0.278   7.341 -0.7531  1.7134 -0.7132
  421TIP3   OH222897   6.405   5.565   8.428  0.4979  0.2336  0.0544
  421TIP3    H122898   6.399   5.533   8.518  1.9042 -1.1467 -0.3038
  421TIP3    H222899   6.440   5.654   8.436 -0.8619  0.7205  0.9220
  422TIP3   OH222900   3.626   0.130   1.204  0.3238  0.2532 -0.0437
  422TIP3    H122901   3.530   0.124   1.210  0.4778 -1.4439  2.9416
  422TIP3    H222902   3.650   0.199   1.266  1.0849 -1.8574  2.2147
  423TIP3   OH222903   5.885   0.667   0.781  0.3086 -0.0950  0.1024
  423TIP3    H122904   5.881   0.755   0.818 -1.2084  0.1705 -0.6176
  423TIP3    H222905   5.910   0.611   0.855 -0.4654  0.7188  1.0057
  424TIP3   OH222906   1.505   6.330   8.330  0.0820 -0.3586 -0.3226
  424TIP3    H122907   1.562   6.390   8.282 -2.8157  1.6450 -1.5577
  424TIP3    H222908   1.483   6.263   8.265 -0.2297 -0.2285 -0.3507
  425TIP3   OH222909   4.969   4.262   0.854  0.3113 -0.2772 -0.0401
  425TIP3    H122910   4.932   4.261   0.942  1.4221 -1.3389  0.4453
  425TIP3    H222911   5.062   4.242   0.867  0.6719  0.4347 -1.3756
  426TIP3   OH222912   2.384   5.694   0.002  1.1189  0.5710 -0.4149
  426TIP3    H122913   2.372   5.599  -0.006 -0.1008  0.7037 -0.2149
  426TIP3    H222914   2.472   5.704   0.039  1.4846 -0.4587 -0.9659
  427TIP3   OH222915   6.747   0.743   8.111  0.5192  0.9517  0.1127
  427TIP3    H122916   6.692   0.751   8.033  0.7665  1.7588  0.0186
  427TIP3    H222917   6.703   0.676   8.164  0.4927  0.1954 -0.8331
  428TIP3   OH222918   3.515   0.702   7.815  0.2498  0.3445  0.2770
  428TIP3    H122919   3.487   0.782   7.861 -1.6358 -0.7699  1.1748
  428TIP3    H222920   3.434   0.665   7.781  1.2083 -0.7498 -0.8759
  429TIP3   OH222921   5.663   6.383   0.601 -0.1087  0.4682  0.1326
  429TIP3    H122922   5.605   6.340   0.664 -0.6547 -0.6204 -1.0472
  429TIP3    H222923   5.617   6.463   0.576  0.2209  1.0266  1.2579
  430TIP3   OH222924   3.361   0.024   7.472  0.3467  0.4324  0.0147
  430TIP3    H122925   3.371  -0.061   7.513  1.0621  0.0561 -0.9018
  430TIP3    H222926   3.445   0.040   7.428  0.1053  1.4550 -0.1110
  431TIP3   OH222927   6.190   4.379   0.818 -0.0570 -0.3900 -0.0841
  431TIP3    H122928   6.156   4.308   0.764  0.5999 -0.3946 -0.5020
  431TIP3    H222929   6.116   4.405   0.873 -1.0131  0.2260 -1.5942
  432TIP3   OH222930   3.113   1.120   1.605  0.1483  0.1187  0.1504
  432TIP3    H122931   3.132   1.162   1.689 -0.0369  1.1404 -0.3013
  432TIP3    H222932   3.157   1.174   1.540 -2.3029  1.2458 -0.7214
  433TIP3   OH222933   2.244   5.686   8.071  0.0518 -0.2266 -0.0568
  433TIP3    H122934   2.310   5.653   8.132 -0.2413 -3.9053 -1.4986
  433TIP3    H222935   2.162   5.684   8.120  0.1595 -1.0334  0.1012
  434TIP3   OH222936   3.082   5.426   1.491 -0.4020  0.4343 -0.1259
  434TIP3    H122937   3.149   5.472   1.542  0.3964  2.7919 -3.0505
  434TIP3    H222938   3.123   5.342   1.470 -0.2619 -0.0681  1.9117
  435TIP3   OH222939   6.055   1.092   8.493 -0.2023 -0.3780 -0.4685
  435TIP3    H122940   6.034   1.002   8.468 -1.3663 -0.9666  2.2600
  435TIP3    H222941   6.100   1.083   8.577  0.3719  1.5607 -0.5410
  436TIP3   OH222942   2.079   1.819   7.766  0.1222  0.2958 -0.3507
  436TIP3    H122943   2.077   1.790   7.675 -1.6799 -0.3831 -0.1522
  436TIP3    H222944   2.017   1.892   7.769  0.3515  0.4684  0.2777
  437TIP3   OH222945   3.696   0.987   7.826 -0.0922 -0.9161  1.3113
  437TIP3    H122946   3.724   0.901   7.794  1.0129 -0.2675  0.4654
  437TIP3    H222947   3.642   0.968   7.903 -1.7156 -2.4645 -0.1118
  438TIP3   OH222948   4.575   3.600   0.986 -0.0426  0.4347 -0.1538
  438TIP3    H122949   4.656   3.638   1.021 -0.0722  1.4958 -1.1750
  438TIP3    H222950   4.506   3.656   1.021 -0.0698  1.5305 -1.8758
  439TIP3   OH222951   6.818   0.386   0.640 -0.2427  0.1807  0.1409
  439TIP3    H122952   6.834   0.361   0.731  1.3848 -0.2392 -0.2419
  439TIP3    H222953   6.724   0.372   0.628 -0.3676 -0.3712  1.5632
  440TIP3   OH222954   0.715   1.731   1.194 -0.0920  0.5583 -0.0353
  440TIP3    H122955   0.805   1.711   1.169  0.8187 -0.3912  3.4381
  440TIP3    H222956   0.721   1.812   1.245 -1.2737  0.6966 -0.0709
  441TIP3   OH222957   3.118   2.302   0.997  0.1590 -0.0665 -0.0127
  441TIP3    H122958   3.140   2.297   1.090  2.7843 -0.9214 -0.6088
  441TIP3    H222959   3.091   2.393   0.983  0.8207  0.3675  1.3606
  442TIP3   OH222960   5.118   5.282   1.700  0.3355 -0.1949  0.1021
  442TIP3    H122961   5.049   5.249   1.642 -0.0771  0.8786 -0.0422
  442TIP3    H222962   5.071   5.329   1.769  0.8330 -1.2965  1.2280
  443TIP3   OH222963   4.199   2.278   6.833 -0.0422  0.3605 -0.1548
  443TIP3    H122964   4.187   2.348   6.769 -1.3022  0.5370  0.2429
  443TIP3    H222965   4.287   2.291   6.868 -0.9506  3.0493  1.4098
  444TIP3   OH222966   5.031   4.244   8.377 -0.2018  0.0009 -0.6269
  444TIP3    H122967   5.069   4.264   8.462  0.3159 -0.7593 -0.6716
  444TIP3    H222968   4.936   4.252   8.391 -0.0885  0.5614 -0.1623
  445TIP3   OH222969   6.887   0.535   0.961  0.1393  0.1578 -0.0262
  445TIP3    H122970   6.893   0.585   1.043 -0.5903 -0.3856  0.3686
  445TIP3    H222971   6.901   0.600   0.892  1.4056  0.5123  0.5399
  446TIP3   OH222972   3.341   4.565   6.897 -0.0039 -0.5181 -0.4921
  446TIP3    H122973   3.290   4.628   6.846 -1.2444  0.1473  1.4658
  446TIP3    H222974   3.412   4.538   6.838 -1.2686  0.2952 -2.4828
  447TIP3   OH222975   1.694   5.632   0.780  0.1690  0.6646 -0.1423
  447TIP3    H122976   1.780   5.597   0.801  0.1088  0.5617 -0.0630
  447TIP3    H222977   1.710   5.721   0.749  0.3061  0.6343 -0.1576
  448TIP3   OH222978   5.827   1.737   7.147 -0.0479 -0.0974  0.5230
  448TIP3    H122979   5.789   1.764   7.230 -1.1635  0.9862 -0.3081
  448TIP3    H222980   5.768   1.669   7.114  0.7469 -0.9939  0.8887
  449TIP3   OH222981   3.001   2.260   7.403 -0.1460  0.0710 -0.3439
  449TIP3    H122982   2.963   2.175   7.385 -1.7133  1.0228 -1.7559
  449TIP3    H222983   2.927   2.321   7.403  0.8859  1.4090  0.9134
  450TIP3   OH222984   5.518   0.031   1.520  0.0096 -0.0803  0.2395
  450TIP3    H122985   5.491  -0.015   1.441 -0.1186  0.6324 -0.1397
  450TIP3    H222986   5.447   0.092   1.538  1.4070  2.0617 -0.9700
  451TIP3   OH222987   6.444   2.516   7.439  0.4074 -0.0396  0.1423
  451TIP3    H122988   6.373   2.453   7.447  0.9410 -0.6439  0.1341
  451TIP3    H222989   6.515   2.480   7.492  0.3736  1.0516  0.9824
  452TIP3   OH222990   0.282   3.408   6.385 -0.1046  0.0092  0.1202
  452TIP3    H122991   0.375   3.428   6.371 -0.2605  0.9036  0.3223
  452TIP3    H222992   0.280   3.313   6.399  0.6869 -0.1345 -0.6300
  453TIP3   OH222993   5.917   1.585   0.955 -0.1064 -0.3475  0.0156
  453TIP3    H122994   5.922   1.647   1.027 -1.1887  0.6174 -0.7065
  453TIP3    H222995   5.965   1.627   0.883 -1.9578  0.3248 -0.8976
  454TIP3   OH222996   6.873   4.061   8.250 -0.0068 -0.5618  0.1734
  454TIP3    H122997   6.952   4.113   8.235  0.7763 -1.8886 -0.4806
  454TIP3    H222998   6.903   3.986   8.300 -1.1976 -0.2102  1.4626
  455TIP3   OH222999   2.227   5.928   7.164  0.4779  0.0242  0.2555
  455TIP3    H123000   2.232   5.892   7.075 -1.2032  1.5669 -0.5270
  455TIP3    H223001   2.258   6.019   7.154 -1.7836  0.9133  0.7471
  456TIP3   OH223002   5.266   2.620   7.989 -0.0724  0.1336 -0.4227
  456TIP3    H123003   5.199   2.671   8.034 -1.1609 -1.4529 -0.1645
  456TIP3    H223004   5.293   2.554   8.053 -0.4399 -1.1182 -1.5234
  457TIP3   OH223005   5.214   6.478   0.689  0.3374  0.3879 -0.1426
  457TIP3    H123006   5.143   6.534   0.659  0.8159  0.4058 -1.3126
  457TIP3    H223007   5.286   6.538   0.708  0.4486  0.2669 -0.1781
  458TIP3   OH223008   2.131   0.330   7.011  0.1646  0.3704 -0.0123
  458TIP3    H123009   2.172   0.374   6.936 -1.1367  1.1832 -0.2867
  458TIP3    H223010   2.094   0.250   6.974 -0.1144  0.5634 -0.1521
  459TIP3   OH223011   6.882   5.909   0.427 -0.2460  0.0079  0.1382
  459TIP3    H123012   6.934   5.873   0.498 -0.4763 -0.5392  0.0343
  459TIP3    H223013   6.799   5.863   0.432 -1.0274  1.4105  0.7856
  460TIP3   OH223014   0.198   4.739   1.243 -0.0976 -0.0985  0.0272
  460TIP3    H123015   0.258   4.673   1.206  0.1247 -0.4934  1.0672
  460TIP3    H223016   0.111   4.703   1.228  0.0404 -0.9462  1.1216
  461TIP3   OH223017   1.628   5.619   1.059  0.0232  0.0168  0.7089
  461TIP3    H123018   1.666   5.654   0.978 -0.6484 -2.1820 -0.6501
  461TIP3    H223019   1.566   5.552   1.030  0.9718 -2.0799  3.0489
  462TIP3   OH223020   6.536   2.886   6.876 -0.0260 -0.2289 -0.0288
  462TIP3    H123021   6.447   2.857   6.857  0.4124 -1.0399 -0.9283
  462TIP3    H223022   6.582   2.878   6.792  1.0532 -0.4500  0.5717
  463TIP3   OH223023   6.253   0.539   7.907  0.3498 -0.1693  0.2803
  463TIP3    H123024   6.201   0.520   7.985 -0.4652  0.3302 -0.1308
  463TIP3    H223025   6.226   0.473   7.844 -0.2671  0.4703 -0.1437
  464TIP3   OH223026   5.103   3.374   0.554  0.5079  0.0721  0.2184
  464TIP3    H123027   5.089   3.289   0.597 -2.8302  1.7255  2.8829
  464TIP3    H223028   5.085   3.357   0.462 -0.4128 -2.0588  0.7174
  465TIP3   OH223029   5.240   2.625   0.054 -0.5056 -0.0557  0.4438
  465TIP3    H123030   5.195   2.660  -0.023  0.6362  1.3105  0.3663
  465TIP3    H223031   5.210   2.534   0.059  0.9355 -0.8615 -2.8149
  466TIP3   OH223032   5.574   0.774   7.720 -0.4721 -0.3021 -0.4134
  466TIP3    H123033   5.644   0.821   7.767  0.5147 -0.8596 -1.2810
  466TIP3    H223034   5.584   0.802   7.629 -3.2061  1.8020 -0.1956
  467TIP3   OH223035   1.047   4.115   1.835  0.9455  0.8965  0.2929
  467TIP3    H123036   0.987   4.183   1.803 -1.8968 -1.2848  0.5799
  467TIP3    H223037   1.097   4.089   1.759 -1.1735  0.2456 -0.9671
  468TIP3   OH223038   2.744   1.853   8.270 -0.2047 -0.6943 -0.0331
  468TIP3    H123039   2.692   1.867   8.349 -1.5554 -0.5269 -0.9050
  468TIP3    H223040   2.679   1.857   8.199  1.1153  0.3278 -1.2369
  469TIP3   OH223041   5.057   4.043   1.877 -0.1277 -0.5638  0.0652
  469TIP3    H123042   5.143   4.084   1.878  0.1221 -1.0599  1.6586
  469TIP3    H223043   5.047   4.006   1.965 -2.2813  0.1363  0.1690
  470TIP3   OH223044   3.105   5.001   6.979 -0.0354  0.2717  0.2631
  470TIP3    H123045   3.146   5.024   6.896 -0.1836 -0.0191  0.1096
  470TIP3    H223046   3.011   5.001   6.961 -0.0183 -1.2242  0.0530
  471TIP3   OH223047   0.671   6.359   7.144 -0.3356 -0.3966 -0.2469
  471TIP3    H123048   0.725   6.288   7.110  0.2050  0.5570 -1.4461
  471TIP3    H223049   0.656   6.337   7.236 -1.2027 -2.6618 -0.8803
  472TIP3   OH223050   4.574   0.616   8.466 -0.0375 -0.0920  0.5286
  472TIP3    H123051   4.505   0.637   8.529 -0.0745  1.0788  0.1280
  472TIP3    H223052   4.558   0.525   8.442 -0.7269 -0.1940  1.3262
  473TIP3   OH223053   3.218   0.846   7.216  0.0653  0.0782 -0.0584
  473TIP3    H123054   3.150   0.783   7.189  0.3049 -0.6856  1.0763
  473TIP3    H223055   3.191   0.874   7.303  0.6643  0.5574 -0.0276
  474TIP3   OH223056   0.053   4.907   8.088  0.2168 -0.0566  0.5389
  474TIP3    H123057   0.050   4.996   8.054 -0.4097 -0.1490  0.3396
  474TIP3    H223058   0.140   4.899   8.127  0.4968  0.4419  0.0245
  475TIP3   OH223059   1.068   2.279   7.296  0.4435 -0.3674 -0.5242
  475TIP3    H123060   1.125   2.208   7.326 -2.6284 -1.2944  4.0279
  475TIP3    H223061   1.028   2.245   7.215  0.7653 -2.8984  0.2949
  476TIP3   OH223062   4.035   3.712   0.235 -0.3059  0.0894 -0.6700
  476TIP3    H123063   4.087   3.696   0.314  0.7150 -0.1499 -1.3719
  476TIP3    H223064   4.038   3.807   0.223  1.5512 -0.0412 -1.7040
  477TIP3   OH223065   3.080   4.489   1.103 -0.3824 -0.3626 -0.0938
  477TIP3    H123066   3.091   4.541   1.024  1.2737  0.0450  0.3559
  477TIP3    H223067   3.062   4.553   1.172  2.5918 -0.1671  0.6401
  478TIP3   OH223068   2.385   6.594   8.197  0.0740  0.0999 -0.5431
  478TIP3    H123069   2.408   6.505   8.171  3.8039  0.6254  0.3502
  478TIP3    H223070   2.393   6.595   8.292  3.9326  2.0682 -0.6818
  479TIP3   OH223071   2.152   4.042   7.902  0.0917  0.1372  0.0902
  479TIP3    H123072   2.122   3.953   7.886  1.5729 -0.0485 -2.0439
  479TIP3    H223073   2.137   4.056   7.996  1.1185 -2.8407  0.7922
  480TIP3   OH223074   5.455   5.621   0.552  0.8327  0.4410  0.0521
  480TIP3    H123075   5.405   5.689   0.597  0.1970  0.3861 -0.5405
  480TIP3    H223076   5.400   5.597   0.478  1.9091  0.6151 -0.8284
  481TIP3   OH223077   0.644   3.163   7.986  0.4388 -0.5505 -0.2681
  481TIP3    H123078   0.629   3.210   8.068  1.4687  0.8956 -0.8758
  481TIP3    H223079   0.669   3.075   8.014  1.0231 -0.0127  0.9856
  482TIP3   OH223080   0.764   2.842   7.795  0.2335 -0.0231 -0.1809
  482TIP3    H123081   0.678   2.812   7.766  0.4087 -1.9493  1.1019
  482TIP3    H223082   0.824   2.817   7.725 -0.0680  0.2620 -0.5446
  483TIP3   OH223083   0.923   0.393   1.518  0.2630 -0.4971  0.3113
  483TIP3    H123084   1.015   0.372   1.534 -0.1727 -0.8651  2.7619
  483TIP3    H223085   0.920   0.488   1.514  0.6211 -0.4447  1.1821
  484TIP3   OH223086   5.623   3.648   8.220  0.2881  0.0728 -0.0022
  484TIP3    H123087   5.657   3.591   8.151 -1.9663 -0.9597 -0.3479
  484TIP3    H223088   5.565   3.592   8.271 -0.3524  1.5558  0.9604
  485TIP3   OH223089   4.492   2.936   7.869  0.3624  0.9107 -0.4273
  485TIP3    H123090   4.412   2.962   7.915  0.2535  0.8311 -0.5695
  485TIP3    H223091   4.495   2.994   7.793  1.6361  2.4654  0.7537
  486TIP3   OH223092   1.060   2.957   2.620 -0.9348 -0.2007  0.3481
  486TIP3    H123093   1.052   2.988   2.710  0.8297 -0.1794  0.5317
  486TIP3    H223094   1.102   3.029   2.573 -1.5531 -0.3315 -0.4421
  487TIP3   OH223095   3.182   3.579   7.129 -0.2670 -0.3007  0.0352
  487TIP3    H123096   3.106   3.536   7.171  0.0722 -0.1011  0.8829
  487TIP3    H223097   3.183   3.543   7.041 -2.4596  1.0659 -0.6368
  488TIP3   OH223098   2.480   6.386   1.958 -0.5931  0.0239 -0.0936
  488TIP3    H123099   2.398   6.380   2.007  0.0477 -1.7651  0.8474
  488TIP3    H223100   2.523   6.302   1.973  3.2108  2.1778  2.6100
  489TIP3   OH223101   6.163   1.316   2.107  0.6149 -0.0143  0.3591
  489TIP3    H123102   6.080   1.329   2.152  1.4224 -0.7938  2.1854
  489TIP3    H223103   6.162   1.224   2.080  0.4971  0.2217 -0.4465
  490TIP3   OH223104   0.319   5.530   0.065  0.6612 -0.6795  0.0457
  490TIP3    H123105   0.325   5.624   0.049  0.2421 -0.5555  0.5938
  490TIP3    H223106   0.370   5.491  -0.006 -1.2347 -0.1652 -1.6938
  491TIP3   OH223107   6.897   5.802   0.043  0.0234 -0.5543  0.2782
  491TIP3    H123108   6.957   5.793  -0.031 -1.0191  0.6865 -0.7645
  491TIP3    H223109   6.908   5.892   0.073 -1.0734 -0.4034  0.2832
  492TIP3   OH223110   3.835   3.860   7.995 -0.6395 -0.5649 -0.1964
  492TIP3    H123111   3.888   3.870   7.916 -0.5980 -0.3933 -0.1478
  492TIP3    H223112   3.813   3.767   7.998 -1.2443 -0.4454 -0.7896
  493TIP3   OH223113   3.511   3.835   7.431  0.2544 -0.7377 -0.2838
  493TIP3    H123114   3.591   3.870   7.392  0.7580  0.4916  1.7050
  493TIP3    H223115   3.507   3.875   7.518 -1.5598 -2.2115  0.3822
  494TIP3   OH223116   0.372   1.480   1.704  0.3384 -0.1407 -0.0355
  494TIP3    H123117   0.306   1.518   1.763  1.2059  0.3338  0.6633
  494TIP3    H223118   0.455   1.494   1.750  0.7296 -3.0057  0.3343
  495TIP3   OH223119   0.682   1.540   8.119  0.0522 -0.7221 -0.0425
  495TIP3    H123120   0.683   1.584   8.034 -1.7078 -0.1603  0.2057
  495TIP3    H223121   0.701   1.448   8.098 -1.5689 -0.8213 -1.2078
  496TIP3   OH223122   6.696   2.125   0.368 -0.0091 -0.3695 -0.5688
  496TIP3    H123123   6.791   2.137   0.364 -0.1332  1.3946  0.6510
  496TIP3    H223124   6.684   2.038   0.407  1.0779 -1.0290 -1.6481
  497TIP3   OH223125   3.080   1.248   7.952  0.6409 -0.1682 -0.4348
  497TIP3    H123126   3.028   1.256   8.032  0.3182  0.8959 -0.7339
  497TIP3    H223127   3.169   1.232   7.982  0.1966 -1.8908  0.0907
  498TIP3   OH223128   2.217   0.151   0.497 -0.3472 -0.1556 -0.7994
  498TIP3    H123129   2.222   0.129   0.590 -0.0710  3.1452  0.0870
  498TIP3    H223130   2.124   0.167   0.481 -0.2809  0.1761 -0.8547
  499TIP3   OH223131   5.614   3.414   7.660  0.5607  0.1739 -0.3845
  499TIP3    H123132   5.595   3.489   7.717  0.0539 -0.4545  0.2815
  499TIP3    H223133   5.678   3.363   7.709  0.2564 -0.2788 -0.4583
  500TIP3   OH223134   3.353   1.826   7.481 -0.2937 -0.2363  0.7545
  500TIP3    H123135   3.296   1.893   7.441  1.3336  2.1966  2.2566
  500TIP3    H223136   3.298   1.787   7.549 -0.1675  2.4801  2.5822
  501TIP3   OH223137   4.332   6.231   0.421  0.0794  0.0356 -0.2597
  501TIP3    H123138   4.285   6.313   0.408 -1.2150 -0.5727  0.3523
  501TIP3    H223139   4.420   6.247   0.386 -0.4989  1.2979 -1.1885
  502TIP3   OH223140   0.064   2.180   7.144 -0.2438 -0.2066  0.0270
  502TIP3    H123141   0.087   2.178   7.236  1.1394  2.1399 -0.1716
  502TIP3    H223142   0.130   2.127   7.101 -0.7503 -1.1066  0.3405
  503TIP3   OH223143   5.240   4.581   1.606 -0.1993  0.2091  0.2018
  503TIP3    H123144   5.319   4.604   1.556  0.5648 -1.5881  0.4849
  503TIP3    H223145   5.274   4.550   1.690 -1.3493  1.1278  1.0293
  504TIP3   OH223146   5.695   4.463   2.055  0.5830 -0.3628  0.3808
  504TIP3    H123147   5.652   4.506   1.981  1.0735 -0.7167 -0.1242
  504TIP3    H223148   5.624   4.443   2.116  0.4073  1.7015  0.9354
  505TIP3   OH223149   0.965   4.702   2.288 -0.3295 -0.6495  0.0378
  505TIP3    H123150   0.961   4.647   2.366  1.5715 -1.4518 -0.3743
  505TIP3    H223151   1.012   4.781   2.316 -0.5573 -0.4837 -0.0468
  506TIP3   OH223152   3.228   4.722   8.507  0.3525 -0.0799  0.5414
  506TIP3    H123153   3.302   4.777   8.534  0.1350  0.7269 -0.4345
  506TIP3    H223154   3.262   4.674   8.431  0.0043 -0.0052  0.3365
  507TIP3   OH223155   1.297   5.850   8.445  0.4470  0.2793  0.1270
  507TIP3    H123156   1.259   5.838   8.358 -1.3442  0.2498  0.8637
  507TIP3    H223157   1.392   5.850   8.430  0.2373 -1.1918 -1.6303
  508TIP3   OH223158   5.427   2.362   7.749  0.2985 -0.2888  0.3466
  508TIP3    H123159   5.407   2.295   7.814  0.6083  0.2238  0.9872
  508TIP3    H223160   5.398   2.444   7.789  0.7912  0.0758 -0.0273
  509TIP3   OH223161   2.723   1.095   1.867  0.3370 -0.2227  0.6171
  509TIP3    H123162   2.811   1.129   1.884 -0.2396  1.8865 -0.2363
  509TIP3    H223163   2.676   1.106   1.950  0.6701 -0.6932  0.8720
  510TIP3   OH223164   2.356   2.871   0.269  0.0822 -0.1743  0.4494
  510TIP3    H123165   2.432   2.928   0.258 -0.7424  1.1581  1.4160
  510TIP3    H223166   2.386   2.801   0.326  1.0169 -0.5510 -0.4830
  511TIP3   OH223167   3.814   3.183   6.292 -0.2818 -0.0183 -0.3254
  511TIP3    H123168   3.784   3.097   6.263  1.3910 -1.2017  1.2373
  511TIP3    H223169   3.907   3.184   6.274 -0.0900  1.0850  0.5633
  512TIP3   OH223170   5.104   0.469   6.404 -0.1757 -0.5079 -0.5023
  512TIP3    H123171   5.082   0.460   6.311 -0.8027 -2.3738 -0.2320
  512TIP3    H223172   5.019   0.482   6.447  0.0923  0.1505 -0.1641
  513TIP3   OH223173   0.421   1.327   1.495  0.3135 -0.1331 -0.2377
  513TIP3    H123174   0.486   1.263   1.526 -0.5351 -1.4132 -0.9894
  513TIP3    H223175   0.412   1.389   1.566  1.2205 -0.8189  0.5033
  514TIP3   OH223176   1.510   2.239   6.343 -0.3922 -0.0677  0.5435
  514TIP3    H123177   1.535   2.321   6.301 -0.3662 -0.2590  0.1725
  514TIP3    H223178   1.570   2.174   6.305 -0.0308 -0.1637  1.2609
  515TIP3   OH223179   4.967   3.739   1.392 -0.1398  0.0850 -0.0153
  515TIP3    H123180   4.987   3.656   1.348 -1.4903 -0.3769  0.1600
  515TIP3    H223181   4.901   3.715   1.458  0.2368  1.1289  0.7623
  516TIP3   OH223182   0.967   2.083   1.038  0.1579 -0.1692 -0.3589
  516TIP3    H123183   0.967   2.123   0.951  1.2926 -0.3709 -0.4630
  516TIP3    H223184   0.913   2.142   1.091  2.7381  2.2623 -0.1935
  517TIP3   OH223185   4.708   2.080   6.976  0.0896 -0.4635 -0.3224
  517TIP3    H123186   4.781   2.084   6.914 -0.2340  0.1407 -0.6775
  517TIP3    H223187   4.744   2.116   7.057  0.3555 -0.7390 -0.3146
  518TIP3   OH223188   6.255   0.033   8.443  0.0783 -0.0543 -0.0374
  518TIP3    H123189   6.276   0.016   8.351  2.0307  1.7611  0.0054
  518TIP3    H223190   6.281  -0.048   8.488 -1.1802 -1.0854 -1.0553
  519TIP3   OH223191   0.136   0.468   1.422  0.3232 -0.2715 -0.8705
  519TIP3    H123192   0.175   0.540   1.472 -0.0591 -1.3406  1.0775
  519TIP3    H223193   0.051   0.502   1.394 -0.8071 -0.5821  1.8907
  520TIP3   OH223194   6.417   6.887   1.156 -0.4445  0.7087 -0.5119
  520TIP3    H123195   6.446   6.796   1.147 -2.4220 -0.0290  0.0996
  520TIP3    H223196   6.456   6.916   1.239 -0.9748 -0.0635  0.0178
  521TIP3   OH223197   6.518   6.038   8.565  0.2189 -0.4491 -0.1041
  521TIP3    H123198   6.467   6.010   8.490 -0.1955 -1.0889  0.4114
  521TIP3    H223199   6.499   6.132   8.573 -1.0574 -0.7185  0.2138
  522TIP3   OH223200   2.080   2.078   0.513 -0.2790 -0.3005 -0.2785
  522TIP3    H123201   2.110   2.077   0.604  0.1770 -1.3346 -0.4305
  522TIP3    H223202   2.137   2.141   0.469  0.7222 -1.1500 -0.2335
  523TIP3   OH223203   5.079   6.170   1.841 -0.2941 -0.5862 -0.6493
  523TIP3    H123204   5.076   6.074   1.846  0.2907 -0.5654  0.6249
  523TIP3    H223205   5.127   6.196   1.919 -1.5670  0.8216 -0.2789
  524TIP3   OH223206   5.296   0.135   2.055  0.5096 -0.2165  0.1004
  524TIP3    H123207   5.205   0.140   2.085 -0.7029 -1.2310 -2.9484
  524TIP3    H223208   5.317   0.042   2.057  0.5499 -0.2759 -1.4352
  525TIP3   OH223209   2.871   6.522   0.851 -0.1841  0.2677  0.2083
  525TIP3    H123210   2.796   6.463   0.861 -0.2887  0.1203 -1.1878
  525TIP3    H223211   2.929   6.478   0.790 -0.7933  2.0280 -1.7914
  526TIP3   OH223212   0.658   2.180   0.117  0.6495  0.2093  0.3048
  526TIP3    H123213   0.708   2.100   0.133 -2.2691 -1.7474  0.4933
  526TIP3    H223214   0.680   2.205   0.027  0.6754 -1.5823 -0.2213
  527TIP3   OH223215   0.255   2.714   8.258 -0.2748  0.2620 -0.4754
  527TIP3    H123216   0.173   2.695   8.213 -0.2923 -1.3028  0.1489
  527TIP3    H223217   0.314   2.644   8.231  0.3769  0.5020  0.2704
  528TIP3   OH223218   6.660   2.204   7.600 -0.5307  0.4625 -0.1957
  528TIP3    H123219   6.641   2.277   7.659  2.6550  1.7105 -0.5340
  528TIP3    H223220   6.657   2.126   7.656  0.6186  1.4143  1.2510
  529TIP3   OH223221   2.860   1.739   7.583  0.3363 -0.2016 -0.1317
  529TIP3    H123222   2.781   1.695   7.613  0.5082  0.1432  0.8577
  529TIP3    H223223   2.828   1.805   7.521 -0.1691  0.0339  0.3691
  530TIP3   OH223224   5.552   0.443   8.283 -0.2566  0.4903  0.3537
  530TIP3    H123225   5.516   0.379   8.221 -0.6322  1.5864 -0.5806
  530TIP3    H223226   5.537   0.403   8.369  0.7966 -1.3260 -0.2388
  531TIP3   OH223227   2.141   1.102   0.883  0.2430  0.5506 -0.3570
  531TIP3    H123228   2.107   1.152   0.809  1.2694  1.0426 -0.5029
  531TIP3    H223229   2.230   1.134   0.896 -0.9524  3.1827  3.3753
  532TIP3   OH223230   6.826   3.193   8.101  0.0191 -0.0998  0.3367
  532TIP3    H123231   6.851   3.283   8.078  0.7358 -0.9475 -2.7183
  532TIP3    H223232   6.735   3.186   8.072  0.2970 -0.6357 -0.4286
  533TIP3   OH223233   0.951   4.681   1.430 -0.5602 -0.0972 -0.5585
  533TIP3    H123234   0.977   4.608   1.374 -1.1312 -0.4974 -0.3176
  533TIP3    H223235   0.962   4.647   1.519  1.2561  0.8481 -0.3853
  534TIP3   OH223236   4.816   2.520   1.256 -0.3874 -0.5398  0.1460
  534TIP3    H123237   4.801   2.508   1.350 -0.3863  2.4765  0.6279
  534TIP3    H223238   4.855   2.607   1.249  1.7299 -1.5777 -2.5004
  535TIP3   OH223239   4.224   6.233   7.335  0.2728 -0.0283  0.7618
  535TIP3    H123240   4.218   6.233   7.240 -1.2747 -1.8896  0.7968
  535TIP3    H223241   4.305   6.186   7.354  0.0793 -0.5313  0.3640
  536TIP3   OH223242   4.082   4.918   1.347  0.3448 -0.0851  0.5518
  536TIP3    H123243   4.167   4.961   1.353 -0.0314  0.7640 -0.0002
  536TIP3    H223244   4.045   4.948   1.264 -0.2863 -0.8306  0.5493
  537TIP3   OH223245   2.793   0.593   0.776  0.1279  0.2443 -0.0036
  537TIP3    H123246   2.841   0.528   0.725  0.9070  0.0096  0.9962
  537TIP3    H223247   2.856   0.662   0.794 -0.0539  0.2042  0.8430
  538TIP3   OH223248   2.059   1.525   0.387 -0.2742  0.5885  0.4645
  538TIP3    H123249   2.024   1.444   0.348  1.8091  0.2364 -0.8486
  538TIP3    H223250   2.042   1.515   0.480  0.8661 -1.9525  0.5024
  539TIP3   OH223251   2.027   4.244   7.278  0.0042  0.4270 -0.0225
  539TIP3    H123252   2.072   4.196   7.208  1.6993  0.0921  1.2245
  539TIP3    H223253   2.086   4.315   7.301 -1.6243  2.0181 -0.5254
  540TIP3   OH223254   4.728   2.297   1.135  0.3555  0.4759  0.4025
  540TIP3    H123255   4.778   2.360   1.187  1.2350  1.1078 -1.1262
  540TIP3    H223256   4.719   2.340   1.050 -1.6229 -0.2248  0.2166
  541TIP3   OH223257   6.724   5.489   1.100 -0.1678  0.2258  0.3900
  541TIP3    H123258   6.682   5.573   1.117  1.6700  2.0801 -3.0591
  541TIP3    H223259   6.808   5.494   1.146 -0.3957 -0.1073  0.8512
  542TIP3   OH223260   3.685   2.165   0.757  0.2418 -0.2598 -0.2156
  542TIP3    H123261   3.746   2.240   0.755  0.0047 -0.0440 -2.6578
  542TIP3    H223262   3.721   2.107   0.824  2.6867  0.2663 -0.9447
  543TIP3   OH223263   0.985   1.495   6.818  0.6235  0.2393 -0.4430
  543TIP3    H123264   0.899   1.464   6.792  1.6062 -2.5306 -0.6413
  543TIP3    H223265   1.036   1.499   6.737  1.3447 -0.5045 -0.0468
  544TIP3   OH223266   3.457   4.503   0.976 -0.1781 -0.3162 -0.4109
  544TIP3    H123267   3.436   4.451   1.053 -1.3701  0.9349  0.1387
  544TIP3    H223268   3.553   4.508   0.976 -0.0192 -2.3609 -0.4296
  545TIP3   OH223269   4.161   1.327   1.819  0.6012 -0.7584 -0.3022
  545TIP3    H123270   4.236   1.363   1.771  0.2049  1.2269  0.4827
  545TIP3    H223271   4.200   1.283   1.894  1.2449 -4.0388 -2.3412
  546TIP3   OH223272   0.635   5.539   0.087 -0.0103  0.6373 -0.7813
  546TIP3    H123273   0.580   5.555   0.164  1.4288  1.1158  0.1936
  546TIP3    H223274   0.582   5.483   0.031 -1.8648  1.8193 -0.3284
  547TIP3   OH223275   4.384   0.414   0.466  0.4088 -0.0846 -0.3291
  547TIP3    H123276   4.447   0.367   0.411 -0.1491 -1.7159  0.3487
  547TIP3    H223277   4.324   0.346   0.497  0.3466  0.8560  1.7987
  548TIP3   OH223278   4.641   5.370   7.513  0.4725 -0.0623 -0.1598
  548TIP3    H123279   4.573   5.384   7.578 -0.1213 -0.5771 -0.6660
  548TIP3    H223280   4.705   5.313   7.556  0.1326 -0.3184  0.0076
  549TIP3   OH223281   1.430   6.795   2.156  0.4952 -0.5075  0.2692
  549TIP3    H123282   1.391   6.809   2.242 -0.7687 -3.1385  0.2253
  549TIP3    H223283   1.469   6.708   2.162  0.5792 -0.6531 -1.7632
  550TIP3   OH223284   4.670   0.441   0.355  0.3516 -0.3839  0.0446
  550TIP3    H123285   4.691   0.349   0.336 -0.2428 -0.6544  0.6407
  550TIP3    H223286   4.670   0.446   0.451 -1.0896 -0.1298  0.0577
  551TIP3   OH223287   0.358   0.348   7.816  0.0706 -0.4435 -0.4760
  551TIP3    H123288   0.291   0.310   7.872 -1.0734 -0.9473 -2.1274
  551TIP3    H223289   0.312   0.415   7.766  1.7701  2.4805  1.5162
  552TIP3   OH223290   4.130   0.975   7.002  0.1351  0.3950 -0.3315
  552TIP3    H123291   4.074   1.051   6.983 -0.0147  0.6481  1.0110
  552TIP3    H223292   4.215   0.999   6.967 -0.0525  0.9580 -0.4136
  553TIP3   OH223293   3.182   0.136   0.707  0.6203  0.0656 -0.1851
  553TIP3    H123294   3.094   0.102   0.693 -0.4197  1.4691  2.1845
  553TIP3    H223295   3.189   0.146   0.802  1.8503  3.6800 -0.5051
  554TIP3   OH223296   5.021   5.963   2.192  0.3618  0.3607  0.1045
  554TIP3    H123297   5.061   6.009   2.266  0.7482 -0.1885  0.2469
  554TIP3    H223298   4.956   6.024   2.157  0.2149  0.6491  0.8646
  555TIP3   OH223299   6.334   0.183   0.151  0.2138 -0.2416  0.4257
  555TIP3    H123300   6.345   0.178   0.246  0.4163 -1.6008  0.3509
  555TIP3    H223301   6.410   0.138   0.115  0.5155  0.8970 -0.4141
  556TIP3   OH223302   4.216   3.991   1.068 -0.1058 -0.0386  0.0658
  556TIP3    H123303   4.186   3.995   1.159  1.5349  0.8151  0.6074
  556TIP3    H223304   4.136   3.993   1.016 -1.0240  0.8596  1.4628
  557TIP3   OH223305   3.962   4.652   1.137 -0.7105  0.4404 -0.1168
  557TIP3    H123306   3.967   4.627   1.229  0.3261  0.8779 -0.0407
  557TIP3    H223307   4.051   4.680   1.114 -1.0773  0.8863 -1.0925
  558TIP3   OH223308   0.406   4.814   0.802 -0.1915  0.0576 -0.1152
  558TIP3    H123309   0.444   4.896   0.835  2.5691 -1.0804 -0.2238
  558TIP3    H223310   0.392   4.761   0.880  0.5418 -0.3513 -0.2593
  559TIP3   OH223311   2.494   6.452   8.604 -0.1936  0.1337 -0.3077
  559TIP3    H123312   2.479   6.527   8.546 -2.2787  0.3535  0.4345
  559TIP3    H223313   2.414   6.399   8.595  0.6520 -1.2805  0.2453
  560TIP3   OH223314   2.435   0.713   0.455 -0.2446  0.0927  0.2201
  560TIP3    H123315   2.464   0.686   0.543  0.6014  0.2710  0.0048
  560TIP3    H223316   2.500   0.776   0.427  0.2737 -0.9801 -1.0933
  561TIP3   OH223317   6.666   6.584   0.585  0.4452  0.0246  0.0395
  561TIP3    H123318   6.744   6.568   0.637 -0.2609  0.2547  1.2072
  561TIP3    H223319   6.698   6.592   0.495  1.3657 -3.2288 -0.0228
  562TIP3   OH223320   4.132   1.535   2.562 -0.7010  0.2256  0.4218
  562TIP3    H123321   4.222   1.558   2.541 -0.3184  0.2800  1.9898
  562TIP3    H223322   4.079   1.605   2.524 -0.1422 -0.0678 -0.9385
  563TIP3   OH223323   5.223   1.687   0.098  0.3344 -0.7068 -0.9704
  563TIP3    H123324   5.241   1.670   0.191  0.0764  0.0581 -0.7678
  563TIP3    H223325   5.222   1.783   0.092  1.0492 -0.7389 -1.9023
  564TIP3   OH223326   6.769   1.046   1.781 -0.0271 -0.2230 -0.8786
  564TIP3    H123327   6.707   0.986   1.741 -1.1422  1.0291 -1.0801
  564TIP3    H223328   6.732   1.067   1.866  1.0263 -0.8269 -0.2401
  565TIP3   OH223329   0.644   5.986   7.887 -0.7116  0.1445  0.1275
  565TIP3    H123330   0.612   5.929   7.957  1.1099 -1.9006 -0.5670
  565TIP3    H223331   0.731   6.014   7.917 -1.1682  1.7860  0.0012
  566TIP3   OH223332   0.042   3.029   2.572 -1.0762 -0.0229  0.0495
  566TIP3    H123333   0.054   3.043   2.478  0.5597  0.5623  0.3317
  566TIP3    H223334   0.095   3.096   2.614  0.7755 -2.1799  1.4016
  567TIP3   OH223335   6.399   4.175   7.767 -0.2356  0.3403 -0.9616
  567TIP3    H123336   6.387   4.128   7.685  0.3030  1.0092 -1.4328
  567TIP3    H223337   6.452   4.117   7.821  0.1914  0.2786 -1.4363
  568TIP3   OH223338   5.279   6.389   1.812  0.2338 -0.4616  0.3212
  568TIP3    H123339   5.230   6.308   1.797  0.8651 -0.8763  0.4465
  568TIP3    H223340   5.340   6.394   1.738  0.1246 -0.0415  0.2582
  569TIP3   OH223341   0.734   0.670   7.134 -0.4124 -0.6720 -0.0878
  569TIP3    H123342   0.769   0.759   7.132 -0.7671 -0.5449 -0.8567
  569TIP3    H223343   0.810   0.615   7.156 -0.1290 -0.2175  0.0792
  570TIP3   OH223344   5.061   1.689   8.340  0.2488  0.4922 -0.2350
  570TIP3    H123345   5.111   1.753   8.392  0.5725  0.2154 -0.1997
  570TIP3    H223346   5.042   1.618   8.402 -0.5613  0.7862 -0.1358
  571TIP3   OH223347   3.107   5.649   8.615 -0.1571 -0.1557 -0.4240
  571TIP3    H123348   3.153   5.731   8.597  0.0543 -0.1428  0.1548
  571TIP3    H223349   3.076   5.659   8.706  1.3261 -1.3930  0.2519
  572TIP3   OH223350   5.028   6.343   8.533 -0.0833 -0.5360  0.3797
  572TIP3    H123351   5.082   6.323   8.610  1.2163 -0.3645 -0.4680
  572TIP3    H223352   4.948   6.380   8.570  1.3977  1.6643  1.6470
  573TIP3   OH223353   6.585   2.502   6.637  0.0970 -0.6390  0.0118
  573TIP3    H123354   6.625   2.465   6.558  0.2223 -2.5809  0.9217
  573TIP3    H223355   6.607   2.440   6.707 -1.8563 -0.1469  1.1597
  574TIP3   OH223356   3.375   2.379   1.569  0.4507  0.1694 -0.1518
  574TIP3    H123357   3.428   2.355   1.645  1.2756  2.9933  0.2870
  574TIP3    H223358   3.288   2.397   1.605  0.0675 -1.1842 -0.3520
  575TIP3   OH223359   5.052   3.148   7.510  0.3774  0.5223 -0.6707
  575TIP3    H123360   5.116   3.160   7.439 -0.3671 -1.7521 -1.8236
  575TIP3    H223361   5.043   3.053   7.519  0.1174  0.7268  2.2533
  576TIP3   OH223362   5.792   5.773   6.958 -0.0264  0.0960  0.2574
  576TIP3    H123363   5.859   5.797   6.893 -0.4746  2.6865  0.6671
  576TIP3    H223364   5.841   5.764   7.040  0.0681  0.2603  0.2207
  577TIP3   OH223365   1.737   2.515   8.583  0.1161  0.3672  0.0521
  577TIP3    H123366   1.812   2.501   8.525  0.5928  1.9989  0.2374
  577TIP3    H223367   1.664   2.535   8.524  0.1714  0.2330 -0.0628
  578TIP3   OH223368   1.806   3.481   0.227 -0.2972  0.3181  0.5108
  578TIP3    H123369   1.843   3.476   0.139 -1.0276  1.1802  0.1422
  578TIP3    H223370   1.786   3.391   0.250  0.9033 -0.0351  0.2372
  579TIP3   OH223371   1.254   5.513   0.767  0.4439  0.3950  0.0950
  579TIP3    H123372   1.220   5.441   0.714  0.9730  0.7490 -0.7311
  579TIP3    H223373   1.324   5.473   0.819 -1.0628 -0.3025  1.6877
  580TIP3   OH223374   0.509   1.098   1.305  0.1757 -0.3407 -0.2921
  580TIP3    H123375   0.441   1.050   1.353  0.6259 -0.4243  0.2749
  580TIP3    H223376   0.496   1.189   1.330 -0.5612 -0.1704 -1.2249
  581TIP3   OH223377   1.711   2.888   6.934  0.0545 -0.3963  0.7641
  581TIP3    H123378   1.674   2.940   6.863 -0.2069 -0.8238  0.5840
  581TIP3    H223379   1.714   2.798   6.899  1.2165 -0.3833  0.7875
  582TIP3   OH223380   3.628   5.507   1.512  0.1075  0.3864 -0.6765
  582TIP3    H123381   3.698   5.569   1.496  0.3415  0.3353  0.0983
  582TIP3    H223382   3.602   5.523   1.603 -0.8633  0.3877 -0.9446
  583TIP3   OH223383   3.424   4.211   0.847  0.3269 -0.6097 -0.4246
  583TIP3    H123384   3.367   4.282   0.877 -1.0498 -1.3061 -1.3076
  583TIP3    H223385   3.502   4.255   0.815 -0.2388  0.4663 -0.3777
  584TIP3   OH223386   4.629   5.671   8.547  0.4485 -0.4088  0.2512
  584TIP3    H123387   4.615   5.608   8.476 -0.3813  1.1262 -1.0286
  584TIP3    H223388   4.565   5.646   8.614  0.4854 -1.2114  0.0020
  585TIP3   OH223389   3.323   6.142   1.671 -0.8027 -0.4692 -0.2700
  585TIP3    H123390   3.295   6.051   1.670  0.6292 -0.9391 -2.1810
  585TIP3    H223391   3.257   6.188   1.619  0.3897 -1.0922 -2.4169
  586TIP3   OH223392   0.583   6.287   1.565 -0.3637 -0.1343  0.3042
  586TIP3    H123393   0.566   6.209   1.618  0.1337 -0.4530  0.0060
  586TIP3    H223394   0.663   6.324   1.602 -0.1421 -0.2293 -0.0780
  587TIP3   OH223395   1.870   2.891   0.542 -0.4192  0.3917  0.8497
  587TIP3    H123396   1.831   2.809   0.511 -0.0625 -0.0026  1.4178
  587TIP3    H223397   1.946   2.904   0.486 -1.6908  1.5085 -0.6994
  588TIP3   OH223398   2.513   0.981   8.379 -0.0909  0.4106  0.5277
  588TIP3    H123399   2.530   1.065   8.421  0.7687  1.7520 -2.2335
  588TIP3    H223400   2.586   0.969   8.319 -1.3504 -1.1805 -0.7888
  589TIP3   OH223401   6.846   3.623   0.358  0.0303 -0.0851  0.2609
  589TIP3    H123402   6.938   3.609   0.334 -0.3518 -1.0123 -0.7238
  589TIP3    H223403   6.813   3.683   0.291  0.0330  0.6179  0.8841
  590TIP3   OH223404   2.499   5.016   1.029 -0.1055 -0.3460 -0.0004
  590TIP3    H123405   2.569   5.079   1.049 -0.6694 -0.0308  1.0218
  590TIP3    H223406   2.468   5.041   0.942  1.0227 -0.4699 -0.4576
  591TIP3   OH223407   1.808   0.505   8.168  0.1615  0.1843 -0.8584
  591TIP3    H123408   1.817   0.420   8.124  2.5433 -0.0833 -0.0176
  591TIP3    H223409   1.731   0.545   8.128 -0.6402 -2.0844 -1.7573
  592TIP3   OH223410   2.026   4.952   2.425 -0.3181  0.0137 -0.3233
  592TIP3    H123411   1.975   5.025   2.460  1.4439  0.5429  1.3452
  592TIP3    H223412   2.075   4.919   2.501  0.3756 -1.6774 -1.4490
  593TIP3   OH223413   3.026   2.700   1.957  0.3506  0.6466  0.0820
  593TIP3    H123414   2.969   2.623   1.946 -0.3304  1.2543 -0.7705
  593TIP3    H223415   3.114   2.663   1.970  0.5861 -0.3370 -3.2504
  594TIP3   OH223416   2.890   5.004   0.185 -0.0092  0.2125  0.0081
  594TIP3    H123417   2.848   4.962   0.110  0.5760 -1.2032  0.4351
  594TIP3    H223418   2.901   5.095   0.158 -2.9211  0.5676 -0.2642
  595TIP3   OH223419   0.467   1.602   6.970 -0.1649 -0.4206  0.3823
  595TIP3    H123420   0.425   1.555   6.898 -1.3675 -1.3024  1.6116
  595TIP3    H223421   0.453   1.695   6.949 -2.0639 -0.6715  0.3373
  596TIP3   OH223422   0.418   1.683   7.660  0.0154 -0.6370  0.4190
  596TIP3    H123423   0.427   1.778   7.655 -0.8905 -0.5556  0.0790
  596TIP3    H223424   0.376   1.658   7.577 -2.4158 -0.9668  1.6457
  597TIP3   OH223425   0.881   6.817   1.276  0.4857 -0.2433  0.2757
  597TIP3    H123426   0.877   6.781   1.364  0.0623 -0.1937  0.2812
  597TIP3    H223427   0.795   6.858   1.263  1.3984  1.9672  0.7635
  598TIP3   OH223428   0.706   0.948   0.293  0.3478  0.3532  0.1719
  598TIP3    H123429   0.742   0.867   0.255  1.3346  0.4587  0.8488
  598TIP3    H223430   0.688   1.004   0.217 -1.1561 -0.7972 -0.3664
  599TIP3   OH223431   2.641   5.457   0.829  0.4712 -0.2275 -0.5268
  599TIP3    H123432   2.603   5.406   0.757  2.5009  1.2276 -2.8012
  599TIP3    H223433   2.616   5.548   0.810  1.2337  0.2085  0.4649
  600TIP3   OH223434   2.316   4.601   7.349  0.7428 -0.3288 -0.1359
  600TIP3    H123435   2.384   4.652   7.393  2.9382 -2.4308 -0.8268
  600TIP3    H223436   2.301   4.527   7.408 -1.0164  0.1072  0.0063
  601TIP3   OH223437   3.034   5.604   7.809  0.0775  0.1182 -0.4054
  601TIP3    H123438   2.950   5.625   7.849 -0.1726  1.3789 -1.5144
  601TIP3    H223439   3.013   5.580   7.719  0.9405  1.0757 -0.8838
  602TIP3   OH223440   4.695   6.771   6.919  0.3843  0.1030 -0.7025
  602TIP3    H123441   4.766   6.741   6.976  0.6629  0.8955 -0.6175
  602TIP3    H223442   4.662   6.691   6.879  1.0161 -0.3325 -0.3871
  603TIP3   OH223443   5.909   2.053   6.747 -0.2897  0.0138  0.2420
  603TIP3    H123444   5.980   2.028   6.688 -0.4630  0.4141 -0.1402
  603TIP3    H223445   5.897   1.976   6.803 -0.4470 -0.5639 -0.5594
  604TIP3   OH223446   6.166   6.836   1.218  0.1988 -0.8684  0.5511
  604TIP3    H123447   6.257   6.850   1.193  0.1529 -0.6218  0.5214
  604TIP3    H223448   6.160   6.873   1.306  0.6281 -2.6699  1.3913
  605TIP3   OH223449   4.463   6.592   6.845  0.0389  0.5759 -0.1719
  605TIP3    H123450   4.531   6.527   6.860 -0.8384 -0.0126  1.5089
  605TIP3    H223451   4.383   6.540   6.832 -0.1286  1.2361 -2.2912
  606TIP3   OH223452   4.640   0.850   8.594  0.5296 -0.0470 -0.2428
  606TIP3    H123453   4.568   0.884   8.647  1.3051 -1.1114  1.6251
  606TIP3    H223454   4.617   0.758   8.579 -0.0019  0.4000 -2.4194
  607TIP3   OH223455   5.595   4.175   0.563  0.1309  0.3554  0.5183
  607TIP3    H123456   5.526   4.120   0.598  0.0273 -0.4973 -0.9317
  607TIP3    H223457   5.658   4.184   0.635  1.4279 -3.7922  0.1309
  608TIP3   OH223458   1.285   4.219   2.001  0.1764  0.7598  0.0284
  608TIP3    H123459   1.315   4.129   1.998 -1.5471  0.1150  0.4983
  608TIP3    H223460   1.266   4.242   1.910 -0.4930  0.2190  0.0229
  609TIP3   OH223461   1.563   6.151   0.240 -0.3720 -0.1248 -0.0416
  609TIP3    H123462   1.520   6.214   0.182 -2.2098  0.5099  1.8882
  609TIP3    H223463   1.651   6.186   0.251 -0.9504  1.4338 -0.0305
  610TIP3   OH223464   4.712   6.007   1.580 -0.0937 -0.2043  0.7809
  610TIP3    H123465   4.708   5.956   1.499  0.0462 -0.1224  0.7219
  610TIP3    H223466   4.658   5.957   1.642 -1.2538  0.3853  0.2856
  611TIP3   OH223467   3.829   5.649   8.089  0.4310 -0.1358  0.5225
  611TIP3    H123468   3.782   5.716   8.138  0.2871  2.5454 -2.9166
  611TIP3    H223469   3.760   5.597   8.046  0.5719 -0.5879  0.8378
  612TIP3   OH223470   6.756   6.691   1.650  0.1134 -0.7417  0.0146
  612TIP3    H123471   6.713   6.683   1.565 -2.6956 -0.8303  1.3602
  612TIP3    H223472   6.818   6.618   1.652  0.1896 -0.7847 -1.8837
  613TIP3   OH223473   2.677   3.602   0.948  0.0424  0.5662  0.1439
  613TIP3    H123474   2.613   3.671   0.960 -0.7466 -0.1449  0.1200
  613TIP3    H223475   2.627   3.528   0.912  0.9923  0.2176 -0.5155
  614TIP3   OH223476   1.365   6.382   1.886  0.5027 -0.0469 -0.1976
  614TIP3    H123477   1.322   6.354   1.967  2.6883 -0.1943  0.9840
  614TIP3    H223478   1.373   6.477   1.894 -1.5685  0.3060 -1.4893
  615TIP3   OH223479   5.523   5.834   1.748  0.1233  0.4941 -0.7606
  615TIP3    H123480   5.471   5.788   1.682  0.7475 -0.5928 -0.5046
  615TIP3    H223481   5.458   5.878   1.802 -0.4834  0.0046 -1.0770
  616TIP3   OH223482   3.754   2.808   8.643 -0.0428 -0.3987 -0.0430
  616TIP3    H123483   3.695   2.819   8.718  0.5833 -1.4318  0.6375
  616TIP3    H223484   3.714   2.859   8.573 -1.1114 -0.1160  0.7442
  617TIP3   OH223485   3.644   3.620   1.040 -0.4247 -0.1387  0.1889
  617TIP3    H123486   3.637   3.578   1.125  1.5859  1.1072  1.0405
  617TIP3    H223487   3.654   3.713   1.060 -0.3500  0.2357 -1.4436
  618TIP3   OH223488   6.179   2.218   0.363  0.4089 -0.0285 -0.1264
  618TIP3    H123489   6.201   2.229   0.455 -1.1967 -1.3260  0.4742
  618TIP3    H223490   6.093   2.259   0.353  1.1347  1.3030 -1.4055
  619TIP3   OH223491   5.536   4.485   7.453  0.0593 -0.2388 -0.8034
  619TIP3    H123492   5.494   4.571   7.451  0.1958 -0.1658 -0.5883
  619TIP3    H223493   5.585   4.481   7.370 -1.1350 -0.7232 -1.5117
  620TIP3   OH223494   0.942   1.748   7.702  0.3244 -0.0681  0.0289
  620TIP3    H123495   0.868   1.804   7.727 -0.0318  0.5087 -2.1210
  620TIP3    H223496   0.901   1.672   7.661  0.8995 -0.4258  0.1110
  621TIP3   OH223497   4.624   4.998   0.008  0.5717 -0.1239 -0.0231
  621TIP3    H123498   4.600   5.059   0.078 -1.5262 -2.0384  1.0910
  621TIP3    H223499   4.717   4.981   0.021  0.3796  0.0771  1.9631
  622TIP3   OH223500   4.026   5.039   0.149  0.1683  0.3611  0.1667
  622TIP3    H123501   3.988   5.094   0.081  1.8571 -0.5599 -1.6556
  622TIP3    H223502   4.111   5.079   0.167  0.6891 -0.6629  0.0602
  623TIP3   OH223503   1.505   2.740   0.770  0.0678 -0.1634  0.4817
  623TIP3    H123504   1.458   2.819   0.796 -3.8026 -1.1739 -2.5155
  623TIP3    H223505   1.586   2.772   0.729 -0.2032  2.0073  1.5137
  624TIP3   OH223506   5.915   3.145   1.697 -0.2295 -0.1543 -0.7328
  624TIP3    H123507   5.889   3.233   1.667 -0.0414  0.2496  0.2573
  624TIP3    H223508   5.962   3.161   1.778  0.0696 -1.1646 -0.7039
  625TIP3   OH223509   4.657   4.451   6.308 -0.1445 -0.2299  0.2102
  625TIP3    H123510   4.677   4.409   6.225  1.0471  0.1976  0.2621
  625TIP3    H223511   4.597   4.391   6.352 -1.2357 -0.2005 -1.1753
  626TIP3   OH223512   6.692   5.762   1.417 -0.0271  0.3036 -0.1888
  626TIP3    H123513   6.623   5.732   1.357  0.3180 -1.2207  0.1525
  626TIP3    H223514   6.721   5.683   1.462  2.9307  0.6412 -1.3124
  627TIP3   OH223515   6.792   5.986   0.880  0.1224  0.2655  0.2944
  627TIP3    H123516   6.714   6.037   0.857 -0.8624 -0.9286  0.9147
  627TIP3    H223517   6.798   5.919   0.812 -0.2900 -0.5903  1.0852
  628TIP3   OH223518   4.337   6.501   7.256 -0.3419  0.6741 -0.4076
  628TIP3    H123519   4.381   6.434   7.309  0.4555  0.5915 -1.1364
  628TIP3    H223520   4.311   6.568   7.319 -0.1939  0.1763  0.1965
  629TIP3   OH223521   2.104   3.461   0.581 -0.0270 -0.1527  0.1667
  629TIP3    H123522   2.088   3.396   0.513 -1.5519  0.8921 -0.5087
  629TIP3    H223523   2.112   3.409   0.662 -0.2682 -1.2400 -0.4862
  630TIP3   OH223524   3.479   3.350   2.530  0.1647 -0.2374  0.2190
  630TIP3    H123525   3.491   3.273   2.476  0.1863 -0.5883  0.7136
  630TIP3    H223526   3.430   3.412   2.475  1.2836 -0.0860 -0.6478
  631TIP3   OH223527   0.538   0.457   0.969 -0.3641 -0.3400  0.0356
  631TIP3    H123528   0.480   0.488   0.899 -0.4250  2.1414  1.1110
  631TIP3    H223529   0.524   0.362   0.971 -1.2670 -0.3384 -2.4678
  632TIP3   OH223530   1.711   6.802   7.226  0.4199  0.0752 -0.7978
  632TIP3    H123531   1.648   6.806   7.154  0.8956  2.0897 -1.1674
  632TIP3    H223532   1.660   6.821   7.304  0.0742 -1.1490 -0.7188
  633TIP3   OH223533   6.429   6.622   0.827  0.4150 -0.0950 -0.0169
  633TIP3    H123534   6.370   6.684   0.870  1.9396  0.6106  1.1753
  633TIP3    H223535   6.509   6.624   0.881  1.5181 -1.0214 -1.5372
  634TIP3   OH223536   2.665   1.316   6.850 -0.2138 -0.3694  0.1160
  634TIP3    H123537   2.625   1.259   6.916  1.1008 -0.5837  0.7535
  634TIP3    H223538   2.745   1.349   6.892 -0.0612  0.5761 -0.8778
  635TIP3   OH223539   1.576   1.955   2.696  0.0517  0.5711  0.3543
  635TIP3    H123540   1.506   2.020   2.683 -0.3602  0.3182  1.2129
  635TIP3    H223541   1.647   1.985   2.640 -0.4811  1.2426  0.0166
  636TIP3   OH223542   4.552   4.228   0.555  0.3440  0.0292 -0.2625
  636TIP3    H123543   4.630   4.261   0.599 -0.4176  0.7095  0.6425
  636TIP3    H223544   4.568   4.134   0.544  1.3162  0.1736 -0.1890
  637TIP3   OH223545   3.494   2.647   0.707 -0.0204  0.0908  0.0693
  637TIP3    H123546   3.499   2.607   0.793  0.4676  1.1713  0.5552
  637TIP3    H223547   3.558   2.599   0.654  0.1731 -0.1207  0.4916
  638TIP3   OH223548   3.346   3.932   8.004  0.2551  0.0354  0.2564
  638TIP3    H123549   3.304   3.949   7.920  1.8149  1.7913 -0.2344
  638TIP3    H223550   3.419   3.874   7.983  0.2112 -0.1295  0.5429
  639TIP3   OH223551   5.678   1.558   7.975 -0.6687 -0.4372  0.4847
  639TIP3    H123552   5.715   1.635   7.931  1.4354 -0.8859  1.3131
  639TIP3    H223553   5.631   1.512   7.905  1.6490 -0.5721 -1.1277
  640TIP3   OH223554   6.822   3.396   6.698  0.1361  0.3831 -0.3549
  640TIP3    H123555   6.880   3.329   6.736 -1.6385 -0.6614  0.6415
  640TIP3    H223556   6.801   3.454   6.772  0.7095  1.3915 -0.9518
  641TIP3   OH223557   3.512   3.045   1.775  0.3665 -0.4357  0.0489
  641TIP3    H123558   3.533   3.004   1.859 -0.4043 -0.5104  0.2143
  641TIP3    H223559   3.537   2.980   1.709 -1.0298 -1.2749  0.3185
  642TIP3   OH223560   3.810   5.724   1.433  0.3972  0.3216  0.4219
  642TIP3    H123561   3.756   5.766   1.366  0.1438  1.0462  1.0670
  642TIP3    H223562   3.892   5.705   1.388  0.1344  0.5551 -0.1710
  643TIP3   OH223563   4.409   0.133   7.181 -0.0217  0.5845 -0.0991
  643TIP3    H123564   4.333   0.077   7.167  0.3030  0.4105 -1.2420
  643TIP3    H223565   4.374   0.221   7.186 -0.5775  0.3003  2.0323
  644TIP3   OH223566   4.714   0.144   8.532  0.2685 -0.2951 -0.2997
  644TIP3    H123567   4.769   0.089   8.588  0.3864  2.4229  2.5210
  644TIP3    H223568   4.767   0.222   8.514 -1.2726  0.6956 -0.7746
  645TIP3   OH223569   1.984   2.525   2.726 -0.1481 -0.1597  0.0720
  645TIP3    H123570   1.976   2.469   2.649 -1.5765 -1.1026  0.8611
  645TIP3    H223571   1.894   2.539   2.755  0.2244  1.9203  0.3717
  646TIP3   OH223572   3.685   5.855   1.216  0.5636 -0.0115 -0.5103
  646TIP3    H123573   3.595   5.888   1.209  0.8358  0.7677 -0.4869
  646TIP3    H223574   3.737   5.933   1.234  0.9032 -0.8148  2.5008
  647TIP3   OH223575   2.242   1.574   7.852  0.1156  0.3117  0.1208
  647TIP3    H123576   2.337   1.568   7.863  0.2819  2.2477 -0.0412
  647TIP3    H223577   2.230   1.592   7.759 -0.4788 -0.6140  0.0023
  648TIP3   OH223578   4.319   4.493   8.592  0.4370 -0.6279 -0.1886
  648TIP3    H123579   4.403   4.505   8.548  0.3916  2.7472  0.3715
  648TIP3    H223580   4.337   4.514   8.684 -1.2392  1.8677 -0.3268
  649TIP3   OH223581   5.812   3.312   0.696  0.7628 -0.1762 -0.6206
  649TIP3    H123582   5.780   3.296   0.607  1.7295  0.0653 -1.0246
  649TIP3    H223583   5.736   3.297   0.752  0.9384 -3.8916 -1.1277
  650TIP3   OH223584   3.792   4.896   7.643  0.1976  0.1568  0.3359
  650TIP3    H123585   3.863   4.923   7.701  1.6471 -2.2920 -0.1357
  650TIP3    H223586   3.801   4.952   7.567  2.4658 -0.8367 -0.2194
  651TIP3   OH223587   3.246   2.311   7.509  0.5798 -0.1811  0.5341
  651TIP3    H123588   3.275   2.226   7.542  0.4759 -0.0185  1.0453
  651TIP3    H223589   3.154   2.299   7.488  0.1046  0.2646  2.2235
  652TIP3   OH223590   2.892   0.493   1.224 -0.3726 -0.1798 -0.3303
  652TIP3    H123591   2.801   0.504   1.196 -1.1365 -2.9265  0.7768
  652TIP3    H223592   2.908   0.566   1.284 -1.9456  0.1740 -0.3072
  653TIP3   OH223593   5.168   3.018   7.888  0.2541 -0.2442  0.2037
  653TIP3    H123594   5.217   3.096   7.861  1.1850 -1.0229 -0.4613
  653TIP3    H223595   5.079   3.032   7.856  0.5809  0.2447 -0.5099
  654TIP3   OH223596   0.903   4.828   7.831  0.0574  0.1649  0.3455
  654TIP3    H123597   0.857   4.878   7.764  0.0789 -0.6015 -0.2478
  654TIP3    H223598   0.833   4.786   7.882  0.0384  0.7936  0.8587
  655TIP3   OH223599   0.640   6.332   2.548  0.0082  0.4778  0.4903
  655TIP3    H123600   0.631   6.239   2.528  1.4293  0.3695  0.2640
  655TIP3    H223601   0.684   6.334   2.632  0.4128  0.9388  0.2706
  656TIP3   OH223602   5.896   0.878   0.952  0.3487  0.2388  0.3153
  656TIP3    H123603   5.827   0.938   0.980  0.5613  0.4796  0.3221
  656TIP3    H223604   5.961   0.882   1.023 -0.7655 -1.8643  1.5688
  657TIP3   OH223605   1.133   0.203   2.234  0.2072  0.6551 -0.3489
  657TIP3    H123606   1.132   0.131   2.297  1.0197 -0.8586 -1.9606
  657TIP3    H223607   1.125   0.282   2.287  1.2264 -0.5173  1.6687
  658TIP3   OH223608   0.025   6.531   0.698 -0.0912  0.5200  0.4353
  658TIP3    H123609   0.057   6.518   0.609  1.1303  0.1020  0.9080
  658TIP3    H223610   0.014   6.443   0.733 -0.6069  0.6804  0.6916
  659TIP3   OH223611   3.814   5.293   8.252  0.7846 -0.4334  0.7512
  659TIP3    H123612   3.857   5.259   8.173  2.0042  1.3778  0.5612
  659TIP3    H223613   3.764   5.219   8.286  0.2428 -1.2795 -1.6938
  660TIP3   OH223614   5.523   2.651   6.776  0.0809  0.2729  0.1239
  660TIP3    H123615   5.443   2.639   6.828  0.4971  0.7986  0.9083
  660TIP3    H223616   5.594   2.637   6.838  0.5977  0.2323 -0.4726
  661TIP3   OH223617   0.431   3.233   1.699 -0.5486  0.0499  0.6609
  661TIP3    H123618   0.380   3.313   1.683 -2.5349 -0.7589  2.4330
  661TIP3    H223619   0.377   3.163   1.662  0.7827 -0.5839 -0.1463
  662TIP3   OH223620   0.271   4.270   1.057  0.1518  0.1681  0.0955
  662TIP3    H123621   0.213   4.278   1.133 -0.6578  1.7828 -0.6377
  662TIP3    H223622   0.215   4.238   0.987  0.8178 -0.9823  0.0679
  663TIP3   OH223623   6.653   4.203   8.153  0.7848 -0.1774  0.5149
  663TIP3    H123624   6.697   4.125   8.186 -1.5700 -0.7335  2.6595
  663TIP3    H223625   6.634   4.255   8.231 -1.4659  0.4092 -0.3337
  664TIP3   OH223626   6.118   5.551   0.438 -0.2404 -0.1588 -0.4992
  664TIP3    H123627   6.197   5.603   0.424 -1.0098  1.4472  0.7250
  664TIP3    H223628   6.049   5.602   0.394 -0.7659 -0.9918 -0.6565
  665TIP3   OH223629   5.037   5.519   8.114 -1.0608  0.0386 -0.2298
  665TIP3    H123630   4.997   5.572   8.045  0.1562  0.6359 -0.5113
  665TIP3    H223631   4.980   5.532   8.190 -1.5282  0.6795 -0.6758
  666TIP3   OH223632   4.092   1.726   1.937  0.2469  0.0408  0.1489
  666TIP3    H123633   4.025   1.784   1.975  1.5977  1.0832  1.0700
  666TIP3    H223634   4.047   1.642   1.926 -1.1157  0.6021  1.0474
  667TIP3   OH223635   3.258   6.255   8.608  0.7103  0.5743  0.2679
  667TIP3    H123636   3.291   6.345   8.611  0.4170  0.6626  1.6938
  667TIP3    H223637   3.182   6.255   8.667  1.0162 -0.7115  0.7030
  668TIP3   OH223638   3.143   2.908   1.487 -0.1574  0.0000  0.0737
  668TIP3    H123639   3.126   2.895   1.580 -1.0299  1.7811  0.1952
  668TIP3    H223640   3.108   2.828   1.446 -1.1975 -0.1317  1.1343
  669TIP3   OH223641   5.738   6.420   1.020 -0.2168 -0.2650  0.0670
  669TIP3    H123642   5.770   6.440   1.108 -0.1024  0.9573 -0.2373
  669TIP3    H223643   5.643   6.417   1.029 -0.1540 -1.8395  0.5525
  670TIP3   OH223644   5.658   2.972   0.909  0.0052  0.2232  0.2247
  670TIP3    H123645   5.643   2.961   0.815  1.3564 -1.1509  0.1188
  670TIP3    H223646   5.611   2.899   0.950  0.2900  0.1932  0.5063
  671TIP3   OH223647   1.820   2.545   6.700 -0.2883  0.5349 -0.4136
  671TIP3    H123648   1.762   2.480   6.662 -1.1125 -0.2241  1.9223
  671TIP3    H223649   1.908   2.509   6.689 -0.6388 -0.4117 -0.2291
  672TIP3   OH223650   1.736   6.658   1.697 -0.8920 -0.6512 -0.1536
  672TIP3    H123651   1.677   6.583   1.688 -0.4765 -0.9527 -0.4130
  672TIP3    H223652   1.745   6.691   1.607 -0.5989 -0.6628 -0.1293
  673TIP3   OH223653   4.192   2.794   7.109  0.0719 -0.2917 -0.0571
  673TIP3    H123654   4.186   2.889   7.107  2.9763 -0.0185 -2.7907
  673TIP3    H223655   4.249   2.774   7.183 -0.5905  0.0741  0.5539
  674TIP3   OH223656   1.496   0.588   8.167  0.5458 -0.3216  0.2821
  674TIP3    H123657   1.404   0.603   8.188  1.0030 -0.5343  2.6761
  674TIP3    H223658   1.500   0.497   8.139 -0.2127  0.1968 -1.6840
  675TIP3   OH223659   1.151   2.624   0.585  0.1440  0.6669  0.4037
  675TIP3    H123660   1.182   2.590   0.669 -0.4915  0.9510  0.7569
  675TIP3    H223661   1.219   2.687   0.558  2.1954 -1.9222 -1.0459
  676TIP3   OH223662   4.776   0.702   1.807  0.4365 -0.4062 -0.1297
  676TIP3    H123663   4.735   0.769   1.752 -1.9322  1.0842  3.1327
  676TIP3    H223664   4.862   0.737   1.827 -0.5578  1.5272  1.0560
  677TIP3   OH223665   0.046   6.390   6.718  0.3506 -0.5662 -0.3953
  677TIP3    H123666  -0.031   6.371   6.771  0.8128  0.9357  0.8997
  677TIP3    H223667   0.056   6.314   6.660 -0.6904 -1.8651  1.0631
  678TIP3   OH223668   1.256   4.283   8.624 -0.3775 -0.1425  0.6378
  678TIP3    H123669   1.216   4.361   8.663 -1.1031  0.7336 -1.7165
  678TIP3    H223670   1.184   4.220   8.618 -0.4923  0.0598 -0.1202
  679TIP3   OH223671   1.485   4.226   1.540  0.5689  0.5031 -0.4873
  679TIP3    H123672   1.548   4.188   1.479  0.8743  1.5674 -0.8591
  679TIP3    H223673   1.409   4.248   1.485  0.9556  1.7248 -0.5546
  680TIP3   OH223674   4.507   1.513   0.345  0.8284  0.8824 -0.5983
  680TIP3    H123675   4.476   1.529   0.256  1.2743 -1.8103 -1.3429
  680TIP3    H223676   4.598   1.543   0.344  0.7662  1.0685 -0.9708
  681TIP3   OH223677   4.671   2.520   7.764 -0.3045  0.2282  0.0278
  681TIP3    H123678   4.760   2.514   7.731  0.1564  2.1575  0.7556
  681TIP3    H223679   4.661   2.447   7.824  0.8381  0.0721  0.0352
  682TIP3   OH223680   2.378   5.287   2.294 -0.1933 -0.3959 -0.3116
  682TIP3    H123681   2.362   5.198   2.326 -1.7658 -0.3798 -0.9527
  682TIP3    H223682   2.349   5.343   2.365 -0.4956 -0.3982 -0.4285
  683TIP3   OH223683   1.763   1.077   0.825 -0.0506  0.2384  0.4381
  683TIP3    H123684   1.811   1.038   0.898 -1.7466 -1.1501  0.8755
  683TIP3    H223685   1.675   1.039   0.831 -0.7650  1.5113 -1.2369
  684TIP3   OH223686   6.690   1.509   8.194  0.9011  0.3751 -0.4176
  684TIP3    H123687   6.773   1.547   8.165  1.4401  0.2571  0.9027
  684TIP3    H223688   6.670   1.444   8.127  1.0260  1.5235 -1.6117
  685TIP3   OH223689   4.397   1.137   7.455  0.6026 -1.1400 -0.7815
  685TIP3    H123690   4.331   1.203   7.433  0.6240 -0.8298  0.0627
  685TIP3    H223691   4.351   1.053   7.450 -0.5463 -0.7896  2.1452
  686TIP3   OH223692   5.097   4.750   6.821 -0.1527 -0.0925 -0.4219
  686TIP3    H123693   5.126   4.659   6.818  0.1742  0.0235 -2.1924
  686TIP3    H223694   5.067   4.763   6.911 -2.6880 -2.7120 -0.7358
  687TIP3   OH223695   0.775   5.045   1.541  0.8121  1.0546  0.0858
  687TIP3    H123696   0.811   5.131   1.519  1.6013  0.2038 -2.2746
  687TIP3    H223697   0.830   5.013   1.612  3.4197  0.7392 -1.9374
  688TIP3   OH223698   4.390   3.778   1.074 -0.0501  0.5794 -0.4654
  688TIP3    H123699   4.320   3.840   1.055  1.9110  2.9694 -0.3177
  688TIP3    H223700   4.406   3.788   1.168  1.7238  1.5305 -0.8226
  689TIP3   OH223701   2.187   2.025   1.372 -0.2347  0.2096  0.6320
  689TIP3    H123702   2.198   2.072   1.289 -1.9096  1.2195  0.9237
  689TIP3    H223703   2.270   2.036   1.417  1.1525 -1.3904 -1.3659
  690TIP3   OH223704   0.378   6.097   8.105 -0.5097  0.0307  0.2508
  690TIP3    H123705   0.460   6.117   8.149 -0.4354 -0.1953  0.2166
  690TIP3    H223706   0.390   6.130   8.015 -1.1906  1.8010  0.7668
  691TIP3   OH223707   3.083   5.794   7.429  0.8556 -0.0945 -0.0546
  691TIP3    H123708   3.046   5.720   7.478  0.9744 -0.7400 -0.9243
  691TIP3    H223709   3.078   5.868   7.491 -0.0096 -0.6334  0.5482
  692TIP3   OH223710   3.999   5.511   6.543  0.8646 -0.4627 -0.3891
  692TIP3    H123711   3.996   5.485   6.450  1.5002  1.0029 -0.8381
  692TIP3    H223712   3.961   5.436   6.589 -0.4993 -0.7817 -1.9201
  693TIP3   OH223713   4.012   2.610   7.248  0.0798  0.1485  0.2379
  693TIP3    H123714   4.035   2.525   7.211  0.4217  0.1334  0.4857
  693TIP3    H223715   4.057   2.673   7.194 -0.2257  0.1763  0.0148
  694TIP3   OH223716   6.135   6.258   1.032 -0.2182  0.8864  0.0584
  694TIP3    H123717   6.135   6.223   0.943  2.6542 -1.3615  0.8006
  694TIP3    H223718   6.048   6.236   1.066 -0.5185 -0.3805 -1.4237
  695TIP3   OH223719   1.325   2.496   8.641 -0.0448  0.8150  0.0768
  695TIP3    H123720   1.350   2.438   8.713  1.6086  1.6056  0.1898
  695TIP3    H223721   1.405   2.544   8.620 -0.8984  1.7315 -1.2482
  696TIP3   OH223722   5.417   0.078   7.422 -0.3051 -0.1489  0.3655
  696TIP3    H123723   5.457   0.128   7.351 -0.4850  0.7031  0.8448
  696TIP3    H223724   5.347   0.028   7.380  0.0586 -0.2057 -0.1728
  697TIP3   OH223725   3.312   6.485   7.282 -0.3958 -0.2421  0.6043
  697TIP3    H123726   3.239   6.479   7.344 -1.6288  1.7743 -0.5766
  697TIP3    H223727   3.357   6.401   7.291 -1.1166 -0.4315  3.4792
  698TIP3   OH223728   2.880   3.583   2.277  0.0207 -0.1699 -0.4979
  698TIP3    H123729   2.904   3.513   2.337  0.6369  0.1984 -0.3002
  698TIP3    H223730   2.797   3.616   2.310 -0.2313 -0.7437 -0.5409
  699TIP3   OH223731   1.980   4.500   7.367 -0.0076 -0.1324  0.2236
  699TIP3    H123732   1.937   4.426   7.412  1.3571 -2.3618 -1.8586
  699TIP3    H223733   2.049   4.527   7.426 -0.6563 -0.3735  1.1220
  700TIP3   OH223734   3.415   2.508   0.331 -0.1724 -0.0406 -0.0866
  700TIP3    H123735   3.469   2.499   0.410 -0.9177 -3.1833  0.1759
  700TIP3    H223736   3.478   2.506   0.259  0.3467  0.4507  0.3440
  701TIP3   OH223737   5.101   3.406   2.326 -0.5648  0.1839 -0.0642
  701TIP3    H123738   5.015   3.371   2.305 -0.9559  0.7472  0.5647
  701TIP3    H223739   5.084   3.488   2.373  0.2716 -0.2737  1.1089
  702TIP3   OH223740   0.267   4.244   0.278 -0.4884 -0.1681  0.4557
  702TIP3    H123741   0.203   4.270   0.343 -1.5110 -0.4784 -0.4012
  702TIP3    H223742   0.327   4.319   0.272 -0.8051  0.1527  1.2235
  703TIP3   OH223743   4.687   3.019   0.935  0.3125  0.1756  0.3467
  703TIP3    H123744   4.686   3.034   0.840  2.9458 -0.6736  0.0990
  703TIP3    H223745   4.650   3.099   0.972  1.5593  1.6139 -1.3426
  704TIP3   OH223746   0.903   3.649   7.617 -0.0142  0.2237  0.0869
  704TIP3    H123747   0.946   3.687   7.693 -0.5870  1.7439 -0.3070
  704TIP3    H223748   0.935   3.701   7.543  1.2523 -1.7964 -0.8857
  705TIP3   OH223749   1.866   1.868   6.626 -0.5632 -0.1881 -0.0251
  705TIP3    H123750   1.820   1.949   6.646 -0.5544  0.2029 -1.4623
  705TIP3    H223751   1.930   1.859   6.697 -0.3975  1.1916  0.0306
  706TIP3   OH223752   2.793   4.171   1.531 -0.5483  0.5215 -0.0574
  706TIP3    H123753   2.871   4.138   1.488 -1.1833  0.1193 -0.9432
  706TIP3    H223754   2.738   4.093   1.544  0.3559  0.2804  3.1832
  707TIP3   OH223755   0.839   5.815   8.594 -0.0000  0.6900 -0.5419
  707TIP3    H123756   0.803   5.845   8.678  0.1645  3.3746 -1.3570
  707TIP3    H223757   0.933   5.808   8.609  0.0473  1.3149 -0.5272
  708TIP3   OH223758   5.194   5.699   0.321 -0.1429 -0.1720 -0.0540
  708TIP3    H123759   5.151   5.744   0.249 -0.5185 -0.8864 -0.2879
  708TIP3    H223760   5.281   5.676   0.287  0.4130  1.1929  0.3885
  709TIP3   OH223761   6.305   0.548   1.803  0.2667  0.8795 -0.8107
  709TIP3    H123762   6.267   0.479   1.750  1.0050 -0.0369 -0.1832
  709TIP3    H223763   6.319   0.621   1.742 -1.0931  0.7178 -1.3454
  710TIP3   OH223764   4.362   2.665   0.300  0.3085 -0.1681 -0.0617
  710TIP3    H123765   4.392   2.752   0.274  1.6433 -0.1799  1.3002
  710TIP3    H223766   4.283   2.681   0.352  1.2425  0.3870  1.2631
  711TIP3   OH223767   4.304   2.368   1.194 -0.4339  0.3392  0.1392
  711TIP3    H123768   4.339   2.457   1.193 -0.0932  0.2449 -1.9602
  711TIP3    H223769   4.215   2.376   1.228 -1.4760  1.9831 -2.6459
  712TIP3   OH223770   1.325   6.249   1.056 -0.4346  0.3879 -0.2070
  712TIP3    H123771   1.394   6.196   1.015 -2.2493 -1.3228 -1.2170
  712TIP3    H223772   1.296   6.197   1.131 -0.6523  1.1075  0.2217
  713TIP3   OH223773   2.198   3.731   0.776  0.4324  0.0232 -0.0058
  713TIP3    H123774   2.217   3.649   0.730  1.9748 -0.1549  0.8645
  713TIP3    H223775   2.200   3.707   0.869  0.8125  1.0229  0.2562
  714TIP3   OH223776   0.061   5.820   1.554  0.5405 -0.0877 -0.9838
  714TIP3    H123777   0.062   5.888   1.486 -0.0578 -0.2038 -1.1171
  714TIP3    H223778   0.106   5.745   1.513  0.2461 -0.1330 -1.2337
  715TIP3   OH223779   6.166   6.159   2.472 -0.1655  0.4163 -0.1238
  715TIP3    H123780   6.124   6.237   2.435  1.8139  0.9842 -1.3389
  715TIP3    H223781   6.260   6.180   2.471  0.1940 -0.3934  3.3189
  716TIP3   OH223782   4.405   5.843   7.734 -0.1849 -0.0478  0.7530
  716TIP3    H123783   4.377   5.906   7.668 -0.0120  0.0248  0.7501
  716TIP3    H223784   4.325   5.823   7.783 -0.8603 -1.8925 -0.9440
  717TIP3   OH223785   4.381   6.303   1.215  0.2106  0.0739 -0.9559
  717TIP3    H123786   4.345   6.391   1.201  0.0573  0.2063  0.1716
  717TIP3    H223787   4.328   6.266   1.286  1.1538 -0.4027 -0.4843
  718TIP3   OH223788   2.241   0.577   2.286  0.0953 -0.3498  0.0578
  718TIP3    H123789   2.293   0.507   2.246 -1.6602 -1.8577  0.3170
  718TIP3    H223790   2.216   0.542   2.371 -1.0311  0.4964  0.0871
  719TIP3   OH223791   4.216   2.999   2.803 -0.6833  0.1254 -0.4034
  719TIP3    H123792   4.300   2.999   2.758 -0.8191  1.5265 -0.6911
  719TIP3    H223793   4.220   2.922   2.860  1.0690  0.5461  0.1124
  720TIP3   OH223794   4.332   2.666   6.326 -0.1077  0.1741  0.1106
  720TIP3    H123795   4.244   2.686   6.356  0.0505  1.9439 -0.5040
  720TIP3    H223796   4.354   2.737   6.266  0.7094 -1.6591 -1.9098
  721TIP3   OH223797   5.920   3.497   6.766 -0.7503  0.1342 -0.4835
  721TIP3    H123798   5.853   3.558   6.732 -0.0820  0.3885 -1.3792
  721TIP3    H223799   5.914   3.506   6.861 -0.4950  1.8155 -0.5979
  722TIP3   OH223800   6.191   5.790   8.234 -0.6223 -0.4474 -0.8532
  722TIP3    H123801   6.205   5.701   8.202  0.9388 -0.4060 -0.3628
  722TIP3    H223802   6.154   5.779   8.322  1.3207 -0.6782 -0.0206
  723TIP3   OH223803   6.293   0.346   2.555 -0.1248 -0.0776 -0.0169
  723TIP3    H123804   6.303   0.322   2.647 -1.1986 -2.7249 -0.5082
  723TIP3    H223805   6.202   0.377   2.549 -0.4302 -0.9987 -0.3555
  724TIP3   OH223806   1.536   1.033   8.286  0.0605  0.0466  0.0023
  724TIP3    H123807   1.577   1.020   8.200  0.9862 -0.4729  0.5137
  724TIP3    H223808   1.600   1.085   8.335 -0.2402 -0.0976  0.5533
  725TIP3   OH223809   4.496   4.542   8.316  0.3213 -0.3797  0.5380
  725TIP3    H123810   4.587   4.535   8.344 -0.2563 -1.7861  2.2289
  725TIP3    H223811   4.492   4.492   8.234  0.6773 -2.2030  1.5776
  726TIP3   OH223812   1.359   2.639   8.247  0.2766 -0.6664  0.4347
  726TIP3    H123813   1.320   2.714   8.201 -1.3291  0.5908  3.5843
  726TIP3    H223814   1.288   2.576   8.254  0.2726 -0.5284  1.7765
  727TIP3   OH223815   5.174   1.173   1.364 -0.1777  0.0291 -0.2115
  727TIP3    H123816   5.091   1.215   1.389  0.6860  0.5981  1.8443
  727TIP3    H223817   5.154   1.080   1.361 -1.1875  0.2438 -1.0809
  728TIP3   OH223818   1.925   3.162   8.039  0.4058  0.6227  0.4971
  728TIP3    H123819   1.950   3.102   8.109 -0.6740 -0.6953 -0.2005
  728TIP3    H223820   1.835   3.187   8.060  0.1277  0.3403 -0.3185
  729TIP3   OH223821   1.885   4.831   8.426 -0.0056  0.3934  0.2352
  729TIP3    H123822   1.980   4.847   8.429  0.2613 -1.0497  0.4998
  729TIP3    H223823   1.868   4.781   8.506 -1.5577  3.2705  1.8249
  730TIP3   OH223824   0.244   1.113   1.919 -0.5733 -0.5542 -0.4981
  730TIP3    H123825   0.207   1.025   1.916 -0.1281 -0.7848  0.2515
  730TIP3    H223826   0.180   1.165   1.968 -0.1234 -0.8507  0.4302
  731TIP3   OH223827   3.073   1.309   1.270  0.1652  0.1063 -0.0641
  731TIP3    H123828   3.103   1.253   1.198  1.4481 -0.5538  0.9285
  731TIP3    H223829   3.139   1.379   1.274  1.4319 -1.0928  1.8428
  732TIP3   OH223830   6.128   6.359   2.311 -0.1171 -0.2484  0.0022
  732TIP3    H123831   6.045   6.406   2.307  0.3447  0.6131  0.3130
  732TIP3    H223832   6.186   6.418   2.359 -0.0633 -1.9342  2.1831
  733TIP3   OH223833   1.482   4.696   6.288 -0.8612  0.2366 -0.4298
  733TIP3    H123834   1.413   4.631   6.275  0.1151 -0.6326 -1.5331
  733TIP3    H223835   1.549   4.651   6.338 -1.4224  1.3450  1.4048
  734TIP3   OH223836   5.003   0.838   0.305  0.0164 -0.3812 -0.0539
  734TIP3    H123837   5.008   0.745   0.287  0.5597 -0.5045  0.6787
  734TIP3    H223838   4.914   0.863   0.279 -1.1531 -1.6911  2.3449
  735TIP3   OH223839   0.361   4.974   7.519  0.3396  0.2125 -0.2030
  735TIP3    H123840   0.297   4.985   7.590  2.3873  1.2546  1.5889
  735TIP3    H223841   0.340   5.045   7.458 -0.6081  0.1470  0.0182
  736TIP3   OH223842   4.871   2.864   1.791  0.1408 -0.6304  0.3395
  736TIP3    H123843   4.806   2.899   1.730  1.7906  0.5507 -0.8377
  736TIP3    H223844   4.823   2.798   1.842 -1.8840 -0.0120 -0.6368
  737TIP3   OH223845   6.403   2.015   6.541  0.1150 -0.3143  0.3213
  737TIP3    H123846   6.451   2.083   6.588 -1.0265  0.3072  0.6320
  737TIP3    H223847   6.439   1.933   6.574 -1.4242  0.0493  3.2714
  738TIP3   OH223848   0.904   2.458   6.711 -0.2386 -0.3739  0.3413
  738TIP3    H123849   0.989   2.427   6.742  0.4604  0.5913 -0.5546
  738TIP3    H223850   0.915   2.553   6.703 -1.2045 -0.3105 -0.3769
  739TIP3   OH223851   4.289   1.213   2.030  0.0631 -0.0828 -0.2328
  739TIP3    H123852   4.360   1.255   2.078  0.0377 -1.0438  0.6759
  739TIP3    H223853   4.313   1.121   2.026 -1.0993 -0.4195  0.0464
  740TIP3   OH223854   1.846   4.743   7.440  0.0650 -0.1181 -0.1125
  740TIP3    H123855   1.764   4.715   7.482 -1.2466  1.3130 -1.5529
  740TIP3    H223856   1.890   4.661   7.418 -2.1908 -1.0567 -1.5115
  741TIP3   OH223857   1.032   6.104   0.654  0.0476 -0.5815  0.1670
  741TIP3    H123858   1.095   6.089   0.583  0.8062  0.7641  0.5191
  741TIP3    H223859   1.033   6.022   0.704  1.0572 -0.8122 -0.1977
  742TIP3   OH223860   0.805   0.811   6.374  0.0774  0.0863 -0.1261
  742TIP3    H123861   0.893   0.849   6.369 -0.4830  1.2826 -1.6219
  742TIP3    H223862   0.748   0.884   6.397 -0.5848 -0.6054  0.4765
  743TIP3   OH223863   2.667   2.091   0.319 -0.1727 -0.1878 -0.2652
  743TIP3    H123864   2.692   2.170   0.366 -0.4546  0.7849 -1.6832
  743TIP3    H223865   2.750   2.053   0.289 -0.0404 -0.4250  0.3909
  744TIP3   OH223866   2.241   0.634   1.167  0.1911 -0.2132  0.1537
  744TIP3    H123867   2.189   0.592   1.099  0.0102 -1.9575  1.3164
  744TIP3    H223868   2.188   0.710   1.193 -0.5792 -0.5489 -0.3894
  745TIP3   OH223869   4.075   6.380   8.159 -0.0136 -0.3142 -0.1700
  745TIP3    H123870   4.013   6.409   8.227 -0.9271  0.4774 -1.3012
  745TIP3    H223871   4.120   6.460   8.133  0.0526 -0.5437 -0.7620
  746TIP3   OH223872   6.223   4.175   7.972  0.1617 -0.5137  0.0930
  746TIP3    H123873   6.278   4.170   8.050  2.1138  1.8686 -1.0065
  746TIP3    H223874   6.284   4.168   7.899 -1.5255 -1.8589 -1.2930
  747TIP3   OH223875   5.917   1.053   0.617 -0.9567 -0.5583  0.0607
  747TIP3    H123876   5.913   1.147   0.597 -0.7559 -0.6977 -0.6544
  747TIP3    H223877   5.954   1.013   0.538 -0.8245 -1.2145  0.4476
  748TIP3   OH223878   4.518   3.464   7.734  0.2406  0.8269  0.2299
  748TIP3    H123879   4.502   3.497   7.823  0.6268  0.5665  0.3950
  748TIP3    H223880   4.452   3.395   7.723  0.1420  0.9106  0.2846
  749TIP3   OH223881   3.849   2.049   0.926 -0.4006 -0.1959 -0.0248
  749TIP3    H123882   3.883   1.960   0.917  0.1669 -0.0717  0.7767
  749TIP3    H223883   3.903   2.088   0.995 -0.0256  1.0572 -0.9870
  750TIP3   OH223884   1.214   4.367   2.654  0.3385 -0.0140  0.0216
  750TIP3    H123885   1.300   4.392   2.620  0.2194 -0.5578 -0.7000
  750TIP3    H223886   1.207   4.274   2.636 -0.6454  0.1461 -0.4868
  751TIP3   OH223887   1.269   2.103   2.128 -0.8250 -0.7121 -0.9693
  751TIP3    H123888   1.296   2.060   2.209 -1.0234 -0.8378 -0.9701
  751TIP3    H223889   1.175   2.086   2.121 -0.7145 -1.1525 -1.4901
  752TIP3   OH223890   2.045   0.265   0.682  0.4443 -0.2587  0.7364
  752TIP3    H123891   2.067   0.352   0.650 -0.2063 -0.0711  0.7820
  752TIP3    H223892   1.979   0.280   0.750 -0.5206 -0.8427 -0.0349
  753TIP3   OH223893   1.104   4.299   1.541 -0.5558  0.0107  0.5629
  753TIP3    H123894   1.148   4.215   1.523 -0.5297  0.3322 -0.9340
  753TIP3    H223895   1.097   4.341   1.456 -0.4438  1.6116  1.3162
  754TIP3   OH223896   2.811   5.958   2.267  0.2892  0.0659  0.0815
  754TIP3    H123897   2.853   5.894   2.325 -1.2328  0.0771  1.2580
  754TIP3    H223898   2.814   6.040   2.316  1.6368  0.7836 -1.1402
  755TIP3   OH223899   4.435   2.440   2.628 -0.4081  0.0271 -0.2505
  755TIP3    H123900   4.518   2.487   2.630 -0.2061 -0.3308  0.8997
  755TIP3    H223901   4.460   2.348   2.639 -1.0345  0.1038  2.4771
  756TIP3   OH223902   1.932   4.822   6.683  0.1702  0.2293  0.1362
  756TIP3    H123903   1.917   4.914   6.703 -0.8493  0.0229  0.3466
  756TIP3    H223904   1.857   4.797   6.629 -1.2000 -1.2562  2.5667
  757TIP3   OH223905   4.235   5.254   0.573  0.3609 -0.1896  0.1763
  757TIP3    H123906   4.315   5.201   0.579 -0.9757 -2.3179  0.2397
  757TIP3    H223907   4.232   5.303   0.655 -0.5098 -3.3657  2.2186
  758TIP3   OH223908   6.573   5.770   8.492  0.7748 -0.1617  0.2959
  758TIP3    H123909   6.590   5.859   8.523  0.9874 -0.3435  0.7141
  758TIP3    H223910   6.648   5.749   8.437 -0.0150  0.4800 -1.0803
  759TIP3   OH223911   4.640   6.539   8.331  0.1220  0.2451  0.2264
  759TIP3    H123912   4.590   6.564   8.409  0.0581  1.4786 -0.1901
  759TIP3    H223913   4.723   6.585   8.340  0.0228  0.5857 -0.5469
  760TIP3   OH223914   6.483   4.689   7.186 -0.2875 -0.5343 -0.2786
  760TIP3    H123915   6.461   4.782   7.189  0.3914 -0.3896  1.6322
  760TIP3    H223916   6.539   4.680   7.109 -0.4161  0.6391 -0.5262
  761TIP3   OH223917   1.694   5.652   7.028 -0.0498 -0.7638  0.2927
  761TIP3    H123918   1.711   5.564   6.996  1.4842  0.2969 -2.1337
  761TIP3    H223919   1.641   5.693   6.959 -0.9509  0.1707  1.4864
  762TIP3   OH223920   5.558   2.292   2.191  0.0067 -0.4473 -0.8595
  762TIP3    H123921   5.533   2.367   2.136  0.8473  1.2722  0.9927
  762TIP3    H223922   5.637   2.257   2.149  1.7297  1.9825  0.1252
  763TIP3   OH223923   2.201   5.229   1.320  0.2642  0.6744  0.3052
  763TIP3    H123924   2.238   5.141   1.323  1.6473  1.2420  1.0521
  763TIP3    H223925   2.231   5.264   1.236 -0.6726  0.2921 -0.2014
  764TIP3   OH223926   3.811   5.691   8.448 -0.2749  0.0256  0.4437
  764TIP3    H123927   3.899   5.652   8.454 -0.0126  0.6692  0.8973
  764TIP3    H223928   3.777   5.659   8.365  0.7849  0.5681 -0.2260
  765TIP3   OH223929   5.063   4.740   1.350 -0.0302 -0.1317 -0.1617
  765TIP3    H123930   5.056   4.675   1.280 -1.7260 -0.4658  0.2776
  765TIP3    H223931   5.043   4.824   1.307 -1.1553 -0.3467 -0.0953
  766TIP3   OH223932   4.436   5.481   0.058  0.2270  0.2772  0.1200
  766TIP3    H123933   4.468   5.534   0.131  2.6574  0.4241 -0.9527
  766TIP3    H223934   4.342   5.474   0.073  0.3426  1.9994  2.1449
  767TIP3   OH223935   4.487   5.154   0.205  0.0188 -0.2569  0.1719
  767TIP3    H123936   4.517   5.220   0.267  1.0183  0.5056 -1.0513
  767TIP3    H223937   4.470   5.077   0.258 -0.4978  0.7679  1.5535
  768TIP3   OH223938   5.728   2.780   0.038 -0.1822  0.3145  0.5639
  768TIP3    H123939   5.634   2.782   0.017 -0.1765  0.1503  0.5251
  768TIP3    H223940   5.766   2.846  -0.021  0.1158 -1.4695 -1.3565
  769TIP3   OH223941   3.425   1.375   0.893 -0.2010  0.1687  0.8495
  769TIP3    H123942   3.439   1.470   0.894  1.0204  0.0413 -0.6550
  769TIP3    H223943   3.397   1.356   0.804 -0.4803 -0.8983  1.1513
  770TIP3   OH223944   1.436   1.696   7.629 -0.0595  0.4516  0.2087
  770TIP3    H123945   1.354   1.740   7.653  0.1915 -0.2634  2.5785
  770TIP3    H223946   1.419   1.603   7.647  0.4156 -0.0958 -1.8749
  771TIP3   OH223947   0.120   2.812   7.231  0.3801  0.1803  0.0642
  771TIP3    H123948   0.049   2.761   7.192 -0.3279  0.8534  0.4307
  771TIP3    H223949   0.175   2.837   7.158  0.2618 -0.3829 -0.2248
  772TIP3   OH223950   2.424   2.919   7.198  0.0582  0.5869  0.2398
  772TIP3    H123951   2.434   2.852   7.265  2.1099  1.5343  0.9519
  772TIP3    H223952   2.329   2.925   7.184 -0.3791 -0.1662  2.5008
  773TIP3   OH223953   0.993   4.196   8.567  0.1088 -0.2914 -0.4373
  773TIP3    H123954   0.957   4.275   8.527 -0.2723 -0.2573 -0.0331
  773TIP3    H223955   1.015   4.139   8.494  1.5650  0.6779 -0.8099
  774TIP3   OH223956   2.573   1.420   8.484 -0.1849  0.0595 -0.0409
  774TIP3    H123957   2.638   1.365   8.439  0.4315 -0.0338  0.9306
  774TIP3    H223958   2.548   1.485   8.419 -1.3531 -1.6668 -1.4337
  775TIP3   OH223959   2.412   6.729   7.453 -0.1542 -0.7078 -0.1947
  775TIP3    H123960   2.503   6.740   7.425 -0.8277 -0.1843 -2.3877
  775TIP3    H223961   2.412   6.648   7.505  1.7689  0.0285  1.0612
  776TIP3   OH223962   6.727   5.072   7.813 -0.0766  0.5611  0.4692
  776TIP3    H123963   6.779   5.112   7.883  1.3722  1.4952 -1.0788
  776TIP3    H223964   6.752   4.979   7.815  0.4349  0.7034  0.7741
  777TIP3   OH223965   1.232   0.897   1.244 -0.4566  0.0265  0.4726
  777TIP3    H123966   1.150   0.896   1.293 -1.0110  0.1596 -0.4302
  777TIP3    H223967   1.236   0.811   1.201  0.3009 -0.3066  1.1878
  778TIP3   OH223968   5.117   1.477   1.490 -0.0891  0.6732 -0.3333
  778TIP3    H123969   5.053   1.518   1.547  0.8028  0.8419  0.5873
  778TIP3    H223970   5.066   1.419   1.433 -1.0961  1.2240 -0.0050
  779TIP3   OH223971   0.856   3.801   1.169 -0.4097 -0.4158 -0.4355
  779TIP3    H123972   0.764   3.827   1.180 -0.8590 -1.8163 -0.6915
  779TIP3    H223973   0.854   3.733   1.102  0.5487 -1.8471  0.9119
  780TIP3   OH223974   5.311   3.559   7.552 -0.2275 -0.4653 -0.2294
  780TIP3    H123975   5.362   3.523   7.625  0.4504 -1.5017 -1.1778
  780TIP3    H223976   5.341   3.649   7.543  0.2420 -0.5664  0.2662
  781TIP3   OH223977   2.958   4.705   0.587  0.2127 -0.3082 -0.1575
  781TIP3    H123978   2.929   4.647   0.517  1.4496  0.3133 -1.2273
  781TIP3    H223979   2.955   4.792   0.549  1.9802 -0.0675  0.1570
  782TIP3   OH223980   5.500   0.559   0.523  0.5299  0.4590  0.2513
  782TIP3    H123981   5.586   0.595   0.502  1.0801 -0.5680  0.7058
  782TIP3    H223982   5.438   0.624   0.488  1.4776  1.2595  0.0152
  783TIP3   OH223983   0.539   2.533   1.011 -0.5700 -0.3193  0.3091
  783TIP3    H123984   0.567   2.623   1.027 -0.3542 -0.5398  1.2230
  783TIP3    H223985   0.456   2.542   0.963 -1.8717  0.4385  2.5440
  784TIP3   OH223986   5.069   4.236   6.310  1.1759 -0.2612  0.3237
  784TIP3    H123987   5.115   4.197   6.235  0.7630  1.7116 -1.0520
  784TIP3    H223988   5.110   4.322   6.321  0.5072 -0.0976  1.7048
  785TIP3   OH223989   2.805   0.662   0.415  0.1736  0.0091 -0.2816
  785TIP3    H123990   2.770   0.749   0.438 -0.9943 -0.7587  1.0443
  785TIP3    H223991   2.897   0.666   0.441  0.3102  1.0762 -0.8906
  786TIP3   OH223992   1.681   1.099   8.571 -0.0524 -0.0155 -0.0877
  786TIP3    H123993   1.653   1.189   8.591  1.4467  0.5868 -0.5262
  786TIP3    H223994   1.750   1.082   8.635  0.0289 -0.6641 -0.3447
  787TIP3   OH223995   1.322   4.681   8.237 -0.7813  0.3925 -0.1204
  787TIP3    H123996   1.284   4.766   8.216 -0.9188  0.3595 -0.0086
  787TIP3    H223997   1.343   4.686   8.331 -0.5050  0.4134 -0.1836
  788TIP3   OH223998   2.447   3.568   7.332  0.0488  0.4286 -0.4223
  788TIP3    H123999   2.455   3.503   7.262  0.1617  1.3289 -1.2663
  788TIP3    H224000   2.508   3.637   7.308  0.9922  0.2219  1.2112
  789TIP3   OH224001   5.965   3.658   8.563  0.3107  0.5519  0.0716
  789TIP3    H124002   5.949   3.673   8.656  3.6760  1.2948  0.6478
  789TIP3    H224003   5.958   3.564   8.552  3.0713  0.0335  1.8969
  790TIP3   OH224004   4.465   0.229   7.957 -0.3280  0.1998  0.6813
  790TIP3    H124005   4.426   0.191   7.878  1.4226 -0.2400 -0.0180
  790TIP3    H224006   4.440   0.321   7.954 -0.6795  0.0911 -0.1257
  791TIP3   OH224007   4.209   5.304   7.020 -0.3909 -0.0643 -0.3836
  791TIP3    H124008   4.295   5.267   7.038 -1.0737 -1.1414  0.8708
  791TIP3    H224009   4.219   5.349   6.936  1.3748 -0.1694 -0.2650
  792TIP3   OH224010   5.631   3.262   1.402  0.2668 -0.0274  0.6688
  792TIP3    H124011   5.694   3.327   1.430  0.9376 -0.7184  0.7833
  792TIP3    H224012   5.684   3.189   1.371 -0.4603 -0.1333 -0.3921
  793TIP3   OH224013   4.036   3.581   6.854 -0.6208  0.3546  0.2970
  793TIP3    H124014   3.982   3.653   6.823 -0.7609 -0.1815 -0.7214
  793TIP3    H224015   4.016   3.509   6.795  0.0495 -0.3097  0.8709
  794TIP3   OH224016   6.008   3.206   1.131 -0.2779 -0.5483  0.1573
  794TIP3    H124017   5.958   3.274   1.085 -0.9169 -0.5666  0.7995
  794TIP3    H224018   5.963   3.125   1.109  0.9673 -0.8947 -1.2700
  795TIP3   OH224019   0.551   3.097   0.070  0.6406  0.1287  0.0082
  795TIP3    H124020   0.517   3.183   0.094  0.7045  0.6156 -1.5540
  795TIP3    H224021   0.644   3.101   0.090  0.4627  0.0732  0.8623
  796TIP3   OH224022   6.465   3.659   7.388  0.5482  0.3238  0.1791
  796TIP3    H124023   6.440   3.630   7.475  1.9635  0.7953  0.7644
  796TIP3    H224024   6.463   3.580   7.334  1.2155 -0.2645  1.0060
  797TIP3   OH224025   1.751   6.348   2.052  0.1695  0.0104  0.6202
  797TIP3    H124026   1.796   6.422   2.093  1.0894 -1.0311  1.5731
  797TIP3    H224027   1.727   6.291   2.125  0.3792 -1.0991 -0.1469
  798TIP3   OH224028   0.827   5.455   1.225  0.1903  0.4610  0.3991
  798TIP3    H124029   0.897   5.438   1.162  0.3580 -0.4671  0.8258
  798TIP3    H224030   0.795   5.542   1.201 -0.7636 -0.4438 -1.9262
  799TIP3   OH224031   4.166   5.558   0.112 -0.6495  0.3246 -0.1261
  799TIP3    H124032   4.156   5.573   0.018  1.9535 -2.1546 -0.9543
  799TIP3    H224033   4.091   5.601   0.152  0.3943  5.3519 -2.8397
  800TIP3   OH224034   4.205   2.031   2.154  0.1471  0.0862  0.9620
  800TIP3    H124035   4.166   2.065   2.073 -0.9989 -0.0219  1.4434
  800TIP3    H224036   4.296   2.013   2.132  0.3561  1.8271  0.2081
  801TIP3   OH224037   0.201   0.830   1.003  0.3077 -0.4283  0.3315
  801TIP3    H124038   0.129   0.845   1.064 -0.9141  1.6045 -1.4507
  801TIP3    H224039   0.197   0.904   0.942  4.3378  0.1522  0.4688
  802TIP3   OH224040   4.914   4.720   1.088  0.2261 -0.0456  0.4376
  802TIP3    H124041   4.964   4.651   1.044 -1.2534 -0.2903 -0.9681
  802TIP3    H224042   4.834   4.675   1.117  0.2209  0.6091  1.4645
  803TIP3   OH224043   4.706   1.477   0.050 -0.5551  0.0325  0.2006
  803TIP3    H124044   4.617   1.506   0.071 -0.7058  0.6411 -1.1964
  803TIP3    H224045   4.759   1.509   0.123 -1.5180 -0.6221  1.2115
  804TIP3   OH224046   5.840   3.821   1.618  0.0194 -0.1479 -0.3719
  804TIP3    H124047   5.841   3.885   1.689 -1.4313 -1.4202  0.8538
  804TIP3    H224048   5.922   3.773   1.628  0.4243  0.5365 -0.3737
  805TIP3   OH224049   3.682   3.397   0.499  0.2695  0.4258  0.1789
  805TIP3    H124050   3.664   3.427   0.410  0.9915 -0.7631 -0.4136
  805TIP3    H224051   3.606   3.343   0.522  1.3382 -1.6939 -0.9288
  806TIP3   OH224052   2.369   3.957   7.543  0.1857 -0.5688 -0.1398
  806TIP3    H124053   2.432   4.020   7.577 -0.9207  1.5032 -1.6950
  806TIP3    H224054   2.343   3.904   7.619  0.3384  1.5708  1.4750
  807TIP3   OH224055   1.039   0.177   0.868  0.1479  0.1537 -0.5042
  807TIP3    H124056   1.006   0.257   0.828  0.3492  0.0417 -0.8986
  807TIP3    H224057   1.089   0.207   0.944 -2.4944  0.2189  1.3125
  808TIP3   OH224058   6.909   4.483   1.513 -0.8280 -0.1516  0.3453
  808TIP3    H124059   6.856   4.559   1.488 -0.1637  0.3156  0.3144
  808TIP3    H224060   6.902   4.423   1.439 -2.0779 -0.5290  0.7364
  809TIP3   OH224061   0.470   3.068   1.153 -0.8900  0.2908 -0.2646
  809TIP3    H124062   0.542   3.070   1.216 -0.5033 -1.6645 -0.6137
  809TIP3    H224063   0.489   3.140   1.093  0.3506  0.2885  0.0941
  810TIP3   OH224064   5.183   4.615   7.687 -0.1738  0.4720 -0.1424
  810TIP3    H124065   5.161   4.594   7.596 -1.0761  1.3300 -0.1403
  810TIP3    H224066   5.147   4.542   7.737 -1.5524  1.0003 -0.3087
  811TIP3   OH224067   6.090   4.326   8.221 -0.2565 -0.1133  0.5311
  811TIP3    H124068   6.075   4.340   8.127 -0.9338 -4.0663 -0.1338
  811TIP3    H224069   6.184   4.310   8.228 -0.0147  1.2861  0.7725
  812TIP3   OH224070   1.759   4.113   0.159 -0.3222 -0.1322  0.1838
  812TIP3    H124071   1.829   4.178   0.151 -0.4067  0.1137  1.2389
  812TIP3    H224072   1.686   4.161   0.197 -1.5075 -0.1046 -1.9748
  813TIP3   OH224073   3.408   5.358   7.774 -0.5994  0.1510  0.0517
  813TIP3    H124074   3.378   5.435   7.724 -1.7954  0.3596  1.0344
  813TIP3    H224075   3.407   5.287   7.710 -2.9251  0.2219 -0.1110
  814TIP3   OH224076   2.837   1.448   1.224  0.1167  0.0171 -0.3238
  814TIP3    H124077   2.902   1.379   1.235 -0.5929 -0.4893  0.8671
  814TIP3    H224078   2.848   1.504   1.301 -1.1499 -0.3464  0.1581
  815TIP3   OH224079   5.140   1.024   0.468  0.2941  0.6645  0.2640
  815TIP3    H124080   5.085   0.961   0.421  2.7279 -0.7340 -0.9089
  815TIP3    H224081   5.148   1.097   0.408 -1.4143  1.5804  1.0664
  816TIP3   OH224082   0.565   3.811   7.652 -0.0859  0.6074  0.4429
  816TIP3    H124083   0.629   3.881   7.635  0.3322  0.1296 -0.0175
  816TIP3    H224084   0.508   3.847   7.719  1.3024  0.6650  1.6460
  817TIP3   OH224085   6.853   4.656   7.475 -0.2760 -0.3202  0.4858
  817TIP3    H124086   6.898   4.632   7.557 -0.5887 -0.4300  0.6259
  817TIP3    H224087   6.773   4.605   7.476 -0.0709 -0.6575 -0.1096
  818TIP3   OH224088   3.330   1.349   0.636  0.0876 -0.5167 -0.2870
  818TIP3    H124089   3.350   1.415   0.570 -0.2919 -1.3241 -1.2369
  818TIP3    H224090   3.240   1.368   0.662 -0.0268 -0.6646 -0.5702
  819TIP3   OH224091   4.874   4.075   0.019 -0.2860  0.3083  0.1841
  819TIP3    H124092   4.905   4.135   0.087  0.6657 -1.6700  1.5919
  819TIP3    H224093   4.843   3.998   0.067 -1.8097 -0.2188 -1.5345
  820TIP3   OH224094   3.607   3.435   0.235  0.5711 -0.1186 -0.1052
  820TIP3    H124095   3.554   3.515   0.231 -0.6558 -0.8123  1.2979
  820TIP3    H224096   3.577   3.383   0.160  0.8329  0.3883 -0.5744
  821TIP3   OH224097   3.044   2.693   0.385 -0.8012 -0.2091  0.1338
  821TIP3    H124098   3.062   2.676   0.293  0.0224  0.7718  0.0986
  821TIP3    H224099   3.060   2.787   0.397  1.9483 -0.7637  1.8575
  822TIP3   OH224100   5.569   6.771   0.067  0.1118 -0.2560  0.3332
  822TIP3    H124101   5.534   6.846   0.018  1.8362  0.6737  0.4618
  822TIP3    H224102   5.562   6.697   0.006  1.3191  0.6773 -0.9984
  823TIP3   OH224103   3.009   2.147   7.683  0.3152  0.0520 -0.8966
  823TIP3    H124104   3.001   2.079   7.750  1.5727  1.0510  0.3304
  823TIP3    H224105   3.103   2.151   7.663  0.4206  1.9976 -0.2663
  824TIP3   OH224106   0.634   2.789   1.072 -0.1304 -0.1814 -0.0929
  824TIP3    H124107   0.676   2.793   0.986 -0.7236 -0.2048 -0.3858
  824TIP3    H224108   0.679   2.856   1.123  0.7577 -0.6898 -0.1750
  825TIP3   OH224109   5.718   5.651   8.349  0.3710  0.2520 -0.0277
  825TIP3    H124110   5.664   5.638   8.427 -1.5494  1.8149 -1.0053
  825TIP3    H224111   5.708   5.570   8.299 -2.0182  0.8730 -0.6840
  826TIP3   OH224112   1.206   1.840   7.714 -0.0530  0.6007 -0.2575
  826TIP3    H124113   1.236   1.930   7.696  0.7394  0.1388 -1.3955
  826TIP3    H224114   1.121   1.851   7.755  1.6914  2.0168  3.4998
  827TIP3   OH224115   4.766   1.937   7.897  0.3922 -0.0515 -0.4940
  827TIP3    H124116   4.807   1.971   7.976 -1.6614  1.4292  0.0194
  827TIP3    H224117   4.814   1.979   7.825  0.4265  0.8735  0.0555
  828TIP3   OH224118   4.765   6.530   1.467  0.3665  0.4281  0.0872
  828TIP3    H124119   4.859   6.533   1.487  0.4421  0.6624 -0.2948
  828TIP3    H224120   4.734   6.452   1.513  0.5459  0.8998  1.0346
  829TIP3   OH224121   4.467   1.100   0.451 -0.3434 -0.0059 -0.5808
  829TIP3    H124122   4.404   1.049   0.400 -0.1635 -0.0836 -0.7295
  829TIP3    H224123   4.541   1.040   0.463 -0.7445 -0.3016  0.5457
  830TIP3   OH224124   0.522   3.896   1.844  0.4752 -0.2709 -0.0112
  830TIP3    H124125   0.530   3.888   1.749  0.7109 -2.5952  0.1558
  830TIP3    H224126   0.453   3.835   1.868 -0.1547  0.8773  1.2565
  831TIP3   OH224127   6.886   0.186   2.207 -0.5394 -0.1060  0.1839
  831TIP3    H124128   6.868   0.279   2.190  1.6059  0.2010 -0.7634
  831TIP3    H224129   6.887   0.146   2.120 -0.5516 -0.8335  0.5177
  832TIP3   OH224130   5.856   3.636   1.250  0.1531  0.7782 -0.5272
  832TIP3    H124131   5.772   3.594   1.266  2.0784 -3.0863  1.0171
  832TIP3    H224132   5.895   3.586   1.178  2.2385  0.3453  0.7934
  833TIP3   OH224133   5.223   4.648   2.150  0.1003 -0.7469 -0.0221
  833TIP3    H124134   5.249   4.615   2.236  0.9566  0.8786  0.3758
  833TIP3    H224135   5.128   4.659   2.156  0.4091  1.6790  1.6136
  834TIP3   OH224136   3.409   1.405   7.301 -0.1960  0.0315  0.0342
  834TIP3    H124137   3.317   1.409   7.277  0.5198 -0.0779 -3.1549
  834TIP3    H224138   3.442   1.326   7.258  1.7131  0.8935 -0.2174
  835TIP3   OH224139   6.734   3.736   8.202  0.6692  0.5631 -0.1261
  835TIP3    H124140   6.701   3.811   8.251  0.3387 -0.8398  1.9156
  835TIP3    H224141   6.818   3.715   8.243 -0.1464 -1.3415  0.6912
  836TIP3   OH224142   2.403   0.726   8.436 -0.1101 -0.2668 -0.8238
  836TIP3    H124143   2.427   0.818   8.422  0.3026  0.0495  1.5511
  836TIP3    H224144   2.477   0.688   8.484 -1.2349 -1.1857  0.2701
  837TIP3   OH224145   6.881   5.537   7.474 -0.2694 -0.2725 -0.6852
  837TIP3    H124146   6.951   5.472   7.485  0.1127  0.2017 -0.2613
  837TIP3    H224147   6.819   5.516   7.544  0.0679  0.0844 -0.2728
  838TIP3   OH224148   0.095   1.298   2.063 -0.0324 -0.1844 -0.5153
  838TIP3    H124149   0.008   1.312   2.026 -0.5895 -1.8246  0.0716
  838TIP3    H224150   0.108   1.371   2.123 -0.4807  0.7165 -1.4791
  839TIP3   OH224151   0.840   3.634   1.649 -0.1566  0.2254 -0.6121
  839TIP3    H124152   0.834   3.540   1.664  0.1764  0.3978  0.7818
  839TIP3    H224153   0.797   3.673   1.725 -0.6382  1.2128 -1.3579
  840TIP3   OH224154   3.885   5.124   0.646 -0.5458 -0.7072 -0.2692
  840TIP3    H124155   3.803   5.102   0.691 -0.8246 -1.3970 -1.1002
  840TIP3    H224156   3.925   5.040   0.624  0.4773 -0.3787  0.2617
  841TIP3   OH224157   4.216   2.118   1.831  0.2550  0.1596 -0.3390
  841TIP3    H124158   4.164   2.198   1.830  1.2789  0.8441 -1.3696
  841TIP3    H224159   4.306   2.147   1.819  0.6577 -1.1374 -0.6330
  842TIP3   OH224160   2.098   0.812   7.527  0.0458  0.9120 -0.0459
  842TIP3    H124161   2.118   0.884   7.467  4.0215  0.4179  0.4222
  842TIP3    H224162   2.092   0.735   7.472 -0.7533  1.0582 -0.1837
  843TIP3   OH224163   3.315   3.493   0.365  0.0969 -0.0352 -0.4977
  843TIP3    H124164   3.273   3.412   0.337 -0.8782 -0.1823  1.2604
  843TIP3    H224165   3.273   3.561   0.313  0.9371 -0.6138 -2.0036
  844TIP3   OH224166   0.621   4.621   7.684 -0.2664 -0.2178  0.2307
  844TIP3    H124167   0.604   4.703   7.637  1.1812  0.3236  0.5982
  844TIP3    H224168   0.628   4.646   7.776 -1.9444 -1.1058  0.6497
  845TIP3   OH224169   1.071   1.458   2.179  0.1526 -0.0834  0.1341
  845TIP3    H124170   1.078   1.553   2.183  0.9057 -0.1579  2.0118
  845TIP3    H224171   0.983   1.439   2.209 -0.5821  0.0399 -1.8091
  846TIP3   OH224172   5.967   2.662   1.818  0.3629  0.0503 -0.1614
  846TIP3    H124173   6.022   2.584   1.804  1.2807  0.1652  2.3874
  846TIP3    H224174   5.913   2.666   1.739  2.0232 -1.7108 -1.5169
  847TIP3   OH224175   4.057   1.820   7.830  0.0469 -0.1338  0.5747
  847TIP3    H124176   4.138   1.780   7.861 -0.5141 -0.8415  1.1784
  847TIP3    H224177   4.018   1.753   7.774  0.6151  0.7909 -0.9870
  848TIP3   OH224178   3.577   2.841   0.180 -0.0197  0.4685 -0.0165
  848TIP3    H124179   3.572   2.851   0.275 -0.3556  1.5075 -0.1248
  848TIP3    H224180   3.491   2.806   0.156  1.0107 -2.6038  0.3183
  849TIP3   OH224181   2.843   0.454   1.896  0.0327  0.1405 -0.2254
  849TIP3    H124182   2.885   0.508   1.963 -0.1288 -0.7282  0.6137
  849TIP3    H224183   2.902   0.458   1.821  0.1415  1.2594 -0.0899
  850TIP3   OH224184   0.486   5.434   8.539 -0.1063 -0.0955  0.0256
  850TIP3    H124185   0.539   5.479   8.474 -2.2662  1.6446 -0.6849
  850TIP3    H224186   0.416   5.392   8.489 -0.3725 -0.8876  1.0171
  851TIP3   OH224187   2.397   0.128   8.278 -0.0218  0.1706  0.0116
  851TIP3    H124188   2.437   0.066   8.338 -0.0781  0.7325  0.6459
  851TIP3    H224189   2.468   0.189   8.255 -0.4382  1.0790  1.0206
  852TIP3   OH224190   4.359   3.035   1.399 -0.1511  0.1992  0.2192
  852TIP3    H124191   4.415   3.066   1.328  0.6761 -0.5504  0.5323
  852TIP3    H224192   4.359   3.107   1.463 -0.0531  0.4444 -0.0535
  853TIP3   OH224193   2.740   4.748   1.719  0.0636 -0.4017  0.0308
  853TIP3    H124194   2.768   4.676   1.775 -0.3230 -0.1173  0.6005
  853TIP3    H224195   2.730   4.822   1.779 -0.7965 -0.2069 -0.3383
  854TIP3   OH224196   0.547   4.267   1.396 -0.0115 -0.4931  0.0662
  854TIP3    H124197   0.489   4.333   1.358 -0.9774 -0.5401  1.3654
  854TIP3    H224198   0.499   4.185   1.385 -1.0998 -0.3044  2.7452
  855TIP3   OH224199   0.673   4.897   1.791 -0.1577  0.3329  0.2152
  855TIP3    H124200   0.647   4.985   1.763  0.0910  0.0565 -0.9558
  855TIP3    H224201   0.643   4.890   1.881  0.2693  1.8033  0.4877
  856TIP3   OH224202   3.611   6.260   0.290 -0.1121  0.4163 -0.8805
  856TIP3    H124203   3.680   6.276   0.355 -0.9848 -0.3111  0.2798
  856TIP3    H224204   3.651   6.198   0.228 -0.3565 -1.8174  1.0406
  857TIP3   OH224205   6.155   5.120   7.939  0.4921  0.3396 -0.4116
  857TIP3    H124206   6.160   5.048   8.002 -1.6848  0.3132 -0.1721
  857TIP3    H224207   6.233   5.111   7.885  1.1306 -1.1514  0.6899
  858TIP3   OH224208   4.456   1.353   0.559 -0.4958  0.6814  0.3576
  858TIP3    H124209   4.483   1.416   0.492  0.3881 -0.6314 -0.5873
  858TIP3    H224210   4.468   1.268   0.517 -2.1842 -0.1136  1.4009
  859TIP3   OH224211   0.497   5.295   7.427 -0.2279  0.0685  0.1000
  859TIP3    H124212   0.488   5.361   7.497 -0.4785 -0.3168  0.4375
  859TIP3    H224213   0.512   5.346   7.348 -0.3098  0.5298  0.3766
  860TIP3   OH224214   6.744   6.244   2.236  0.1509  0.2894  0.0534
  860TIP3    H124215   6.686   6.181   2.279 -1.0061  0.0285 -1.7775
  860TIP3    H224216   6.820   6.192   2.209  0.1633  0.1268  0.3958
  861TIP3   OH224217   0.842   2.156   6.646  0.3258  0.2875 -0.0219
  861TIP3    H124218   0.929   2.172   6.610  0.0915  0.9281 -0.3292
  861TIP3    H224219   0.810   2.080   6.597  0.7013  0.0615  0.0790
  862TIP3   OH224220   0.827   2.477   1.955  0.7001 -0.1018 -0.2801
  862TIP3    H124221   0.891   2.508   2.019 -0.3896 -1.9824  1.8656
  862TIP3    H224222   0.810   2.386   1.980  0.7085 -1.1919 -3.7089
  863TIP3   OH224223   3.654   6.253   7.416  0.4472  0.6895 -0.8758
  863TIP3    H124224   3.615   6.306   7.486  1.3282  1.2710 -0.8186
  863TIP3    H224225   3.579   6.221   7.366 -0.1910  0.4218  0.2203
  864TIP3   OH224226   2.381   4.365   0.172  0.0983  0.4472  0.0373
  864TIP3    H124227   2.408   4.420   0.246 -0.5768  1.6733 -0.5971
  864TIP3    H224228   2.435   4.396   0.098 -0.0137 -0.0113 -0.2381
  865TIP3   OH224229   5.888   6.155   1.940 -0.4383  0.6470 -0.1148
  865TIP3    H124230   5.811   6.108   1.972 -0.8084  0.5102 -1.1506
  865TIP3    H224231   5.961   6.095   1.957 -0.5431  0.7808  0.8840
  866TIP3   OH224232   2.945   5.192   8.060  0.3491  0.3102  0.1204
  866TIP3    H124233   3.012   5.246   8.018 -0.2791 -0.3389 -1.8659
  866TIP3    H224234   2.908   5.248   8.128  1.3515  1.5014 -0.2759
  867TIP3   OH224235   5.178   4.073   6.579 -0.3030 -0.0684  0.7042
  867TIP3    H124236   5.138   4.074   6.665 -2.1987  0.5547 -0.1264
  867TIP3    H224237   5.108   4.099   6.519  0.9509 -0.4472 -1.0303
  868TIP3   OH224238   4.408   4.406   6.110  0.2343  0.4801  0.5303
  868TIP3    H124239   4.403   4.409   6.205  0.5036  1.4228  0.5314
  868TIP3    H224240   4.497   4.375   6.092  0.2355  0.4488  0.5897
  869TIP3   OH224241   0.652   2.515   7.611 -0.2952 -0.3737 -0.1928
  869TIP3    H124242   0.685   2.452   7.675  0.1709 -1.0372 -1.0603
  869TIP3    H224243   0.594   2.464   7.555  0.7179 -0.2581 -1.4104
  870TIP3   OH224244   2.137   6.412   7.179 -0.2548  0.2073 -0.8046
  870TIP3    H124245   2.136   6.500   7.141 -1.4570 -0.3784 -2.2000
  870TIP3    H224246   2.045   6.387   7.185  0.0681 -0.9338 -0.3484
  871TIP3   OH224247   1.194   2.079   8.068  0.4341 -0.3977  0.6046
  871TIP3    H124248   1.233   2.161   8.098 -0.1630 -0.3229  1.2118
  871TIP3    H224249   1.231   2.013   8.126  1.8708 -0.7637 -0.6672
  872TIP3   OH224250   4.489   1.110   7.913 -0.1563 -0.0387 -0.7312
  872TIP3    H124251   4.521   1.100   8.003  0.9208  0.7035 -1.0009
  872TIP3    H224252   4.399   1.140   7.922 -1.6354 -4.1692  0.0756
  873TIP3   OH224253   3.644   1.791   8.192  0.1510 -0.0026  0.8741
  873TIP3    H124254   3.738   1.775   8.196  0.3342  0.1985 -1.4237
  873TIP3    H224255   3.632   1.876   8.236  0.9271 -0.3486  1.7821
  874TIP3   OH224256   5.243   5.658   8.224 -0.0261  0.4839  0.2588
  874TIP3    H124257   5.271   5.584   8.277  0.2513  0.8782  0.6710
  874TIP3    H224258   5.185   5.620   8.158 -0.5233  0.0163  0.9576
  875TIP3   OH224259   5.339   6.774   2.577 -0.9079  0.5159  0.0455
  875TIP3    H124260   5.288   6.851   2.601  1.4403  2.1385  0.1369
  875TIP3    H224261   5.420   6.783   2.626 -0.6820 -2.2230  0.2943
  876TIP3   OH224262   2.898   5.282   0.124  0.5737 -0.0682 -0.3895
  876TIP3    H124263   2.972   5.338   0.150  0.1386  1.2490 -1.8485
  876TIP3    H224264   2.841   5.340   0.074  0.1339 -1.8368 -2.0354
  877TIP3   OH224265   0.398   2.214   1.126 -0.1337 -0.6775 -0.2054
  877TIP3    H124266   0.396   2.295   1.177 -0.0871 -0.9523  0.2382
  877TIP3    H224267   0.315   2.171   1.144 -0.7928 -0.0467 -1.5843
  878TIP3   OH224268   4.266   3.292   8.153  0.2125 -0.5570  0.1348
  878TIP3    H124269   4.322   3.369   8.159  0.7827 -1.0153  0.8740
  878TIP3    H224270   4.321   3.220   8.185  0.0745 -1.4737 -1.5905
  879TIP3   OH224271   2.183   3.973   0.425 -0.4340 -0.2339 -0.3539
  879TIP3    H124272   2.214   3.885   0.405  0.0061  0.2692 -2.0983
  879TIP3    H224273   2.247   4.031   0.383  0.4977  1.0210  2.5361
  880TIP3   OH224274   0.801   6.072   2.389  0.5072  0.5486 -0.1121
  880TIP3    H124275   0.761   5.991   2.358  0.2597  0.9662 -0.9045
  880TIP3    H224276   0.894   6.051   2.398  0.3284 -0.0318  0.4100
  881TIP3   OH224277   3.424   0.725   2.100  0.0879  0.3869 -0.5227
  881TIP3    H124278   3.336   0.687   2.103 -0.9757  2.5498 -1.8972
  881TIP3    H224279   3.462   0.692   2.019  0.8105 -0.9457  0.3104
  882TIP3   OH224280   3.508   4.453   1.558  0.6457  0.4414 -0.0118
  882TIP3    H124281   3.579   4.424   1.616 -0.8411  0.6423  2.0005
  882TIP3    H224282   3.550   4.516   1.499  2.1695  0.3823  0.9512
  883TIP3   OH224283   1.798   2.567   8.220  0.3711  0.1460  0.5864
  883TIP3    H124284   1.828   2.522   8.141 -0.4085  0.5138  0.0598
  883TIP3    H224285   1.764   2.651   8.188 -0.5307  0.0386  1.2298
  884TIP3   OH224286   3.889   6.722   6.341  0.2993  0.1324 -0.2044
  884TIP3    H124287   3.841   6.805   6.338  1.0070  0.5074 -1.4824
  884TIP3    H224288   3.910   6.702   6.250  2.1132 -0.2927  0.2587
  885TIP3   OH224289   3.836   6.823   0.194 -0.4406 -0.1597 -0.2448
  885TIP3    H124290   3.788   6.884   0.139 -1.2212  1.4055  1.9932
  885TIP3    H224291   3.912   6.796   0.142 -0.5624  2.0355 -1.6449
  886TIP3   OH224292   6.068   4.310   6.613  0.1469 -0.1406 -0.0907
  886TIP3    H124293   6.005   4.256   6.661  0.8982 -1.1879 -0.2276
  886TIP3    H224294   6.151   4.261   6.619  1.5660  2.2521  2.0114
  887TIP3   OH224295   1.572   2.611   8.398 -0.5396 -0.4902  0.0388
  887TIP3    H124296   1.491   2.639   8.356 -0.0734  2.0313  0.6735
  887TIP3    H224297   1.638   2.613   8.328 -0.0478  2.3768  0.4812
  888TIP3   OH224298   6.072   6.470   7.575 -0.2313 -0.2641  0.0237
  888TIP3    H124299   5.993   6.524   7.575  0.4322  0.8090  1.9786
  888TIP3    H224300   6.105   6.475   7.486 -0.1987  2.6472  0.0954
  889TIP3   OH224301   0.499   4.239   0.662  0.2777 -0.3221 -0.5446
  889TIP3    H124302   0.514   4.227   0.755 -2.7894  1.9834  0.4390
  889TIP3    H224303   0.461   4.156   0.633 -0.5030 -0.4394  0.7483
  890TIP3   OH224304   0.997   2.887   8.105 -0.4362 -0.4668  0.2081
  890TIP3    H124305   1.008   2.814   8.044 -0.2887 -1.3514  1.2784
  890TIP3    H224306   1.084   2.901   8.141 -0.5246  0.0613  0.2234
  891TIP3   OH224307   3.335   2.984   7.863  0.7388  0.2555 -0.7209
  891TIP3    H124308   3.286   3.050   7.814  2.3834  2.4804  0.4970
  891TIP3    H224309   3.323   2.903   7.812 -1.9040  1.2616 -1.8972
  892TIP3   OH224310   1.620   0.841   0.626 -0.1973  0.3335 -0.3208
  892TIP3    H124311   1.587   0.825   0.714 -0.6261 -0.5596 -0.6346
  892TIP3    H224312   1.708   0.803   0.626 -0.4669 -0.2991 -0.4826
  893TIP3   OH224313   6.056   3.834   7.443 -0.3554  0.5972  0.2905
  893TIP3    H124314   6.068   3.741   7.461  0.5045  0.5258 -0.5376
  893TIP3    H224315   6.023   3.837   7.353  0.8635  1.1238 -0.1570
  894TIP3   OH224316   0.604   6.694   2.202 -0.4661 -0.3377  0.1897
  894TIP3    H124317   0.678   6.635   2.217  0.6543  1.0775  0.3390
  894TIP3    H224318   0.642   6.770   2.158 -2.2519 -0.6770 -2.1845
  895TIP3   OH224319   3.928   4.951   8.378 -0.1587 -0.1430 -0.1021
  895TIP3    H124320   3.974   4.970   8.296 -1.3994 -0.1764 -0.8224
  895TIP3    H224321   3.851   5.007   8.377  0.0245  0.1675  1.2569
  896TIP3   OH224322   0.291   0.550   8.450  0.2022 -0.2277  0.5910
  896TIP3    H124323   0.383   0.578   8.444 -0.0082  0.3005 -0.4919
  896TIP3    H224324   0.248   0.619   8.500  0.0299  0.5683 -0.5950
  897TIP3   OH224325   2.863   5.289   7.039 -0.2747 -0.3567 -0.3656
  897TIP3    H124326   2.883   5.308   6.947  2.5745 -1.0307  0.0099
  897TIP3    H224327   2.842   5.196   7.041 -1.0495 -0.1914 -0.3982
  898TIP3   OH224328   0.372   0.156   2.157 -0.0623 -0.0362  0.6207
  898TIP3    H124329   0.415   0.072   2.177  1.7126  0.9469  1.1728
  898TIP3    H224330   0.338   0.145   2.069  0.6031 -1.1780  0.4843
  899TIP3   OH224331   6.726   5.655   0.805 -0.2016  0.6450 -0.3480
  899TIP3    H124332   6.689   5.642   0.718 -0.0749  2.2036 -0.6567
  899TIP3    H224333   6.802   5.597   0.808 -0.6702 -0.0174 -0.9668
  900TIP3   OH224334   3.391   4.969   1.265 -0.2851  0.4320  0.3667
  900TIP3    H124335   3.464   4.958   1.326  0.4867 -2.8563 -0.8967
  900TIP3    H224336   3.433   4.973   1.179 -1.5329  0.5403 -0.2535
  901TIP3   OH224337   4.864   1.937   0.709  0.2338  0.0876 -0.2972
  901TIP3    H124338   4.824   1.849   0.709  2.1004 -0.8172  0.3297
  901TIP3    H224339   4.912   1.941   0.626  1.6523 -0.2591  0.4689
  902TIP3   OH224340   6.459   0.126   7.513  0.0255  0.2019  0.3980
  902TIP3    H124341   6.364   0.129   7.528  0.0258  1.0780  0.2764
  902TIP3    H224342   6.497   0.156   7.595  0.3517 -3.1995  1.6437
  903TIP3   OH224343   1.999   6.605   1.544 -0.0441 -0.5038  0.1629
  903TIP3    H124344   1.972   6.532   1.488  0.0981 -0.1883 -0.3293
  903TIP3    H224345   1.954   6.681   1.507  1.4085  0.0204 -0.6281
  904TIP3   OH224346   0.763   1.965   7.762 -0.4479  0.5025 -0.3323
  904TIP3    H124347   0.668   1.973   7.760 -0.3103  2.5559 -0.3306
  904TIP3    H224348   0.787   1.991   7.851  0.1906  1.2024 -0.7018
  905TIP3   OH224349   0.989   2.780   7.459 -0.0661  0.1991 -0.2348
  905TIP3    H124350   0.921   2.824   7.408 -1.0523 -0.6721  0.2923
  905TIP3    H224351   0.986   2.689   7.429  1.2474  0.2550 -0.5884
  906TIP3   OH224352   3.323   6.803   7.103  0.4069 -0.3832  0.5550
  906TIP3    H124353   3.323   6.810   7.007  0.8076 -1.4803  0.4672
  906TIP3    H224354   3.331   6.894   7.132  2.8973 -0.1660 -0.5016
  907TIP3   OH224355   6.564   4.872   0.758 -0.7076  0.6006 -0.0023
  907TIP3    H124356   6.547   4.966   0.755 -2.0579  0.3965  0.8743
  907TIP3    H224357   6.567   4.846   0.666 -1.0585  1.3668 -0.2386
  908TIP3   OH224358   3.351   0.128   7.866  0.0298 -0.3338 -0.0304
  908TIP3    H124359   3.444   0.122   7.846 -0.2585 -1.1451 -1.2176
  908TIP3    H224360   3.340   0.215   7.904  1.4803 -0.7094  1.3916
  909TIP3   OH224361   2.285   6.487   1.066 -0.7837 -0.2802 -0.1278
  909TIP3    H124362   2.253   6.421   1.127  0.3245 -1.3993 -0.7031
  909TIP3    H224363   2.257   6.456   0.979 -0.5560  0.2022 -0.3820
  910TIP3   OH224364   2.012   5.896   0.933  0.4646 -0.2731 -0.5461
  910TIP3    H124365   1.970   5.896   1.019 -0.4636 -1.9377 -0.9766
  910TIP3    H224366   2.005   5.987   0.904 -1.2218 -0.1426  0.1748
  911TIP3   OH224367   0.305   6.344   0.513  0.3691 -0.3107 -0.2573
  911TIP3    H124368   0.337   6.428   0.546 -0.5249  0.4945 -1.3569
  911TIP3    H224369   0.363   6.322   0.441 -0.8075  0.5990 -1.5334
  912TIP3   OH224370   4.281   3.903   8.626 -0.0684  0.0035 -0.2142
  912TIP3    H124371   4.288   3.925   8.719  3.1937 -1.4108  0.0209
  912TIP3    H224372   4.255   3.811   8.624 -1.3360  0.3473 -0.7936
  913TIP3   OH224373   4.357   4.921   7.635 -0.1603 -0.5878  0.3058
  913TIP3    H124374   4.314   4.955   7.557  0.1475 -2.2160 -0.6082
  913TIP3    H224375   4.291   4.864   7.676 -0.5990  0.8462  1.6984
  914TIP3   OH224376   1.408   5.514   2.943 -0.2714  0.2079 -0.5433
  914TIP3    H124377   1.341   5.446   2.953 -1.5359  1.3946 -0.5751
  914TIP3    H224378   1.484   5.468   2.907 -1.4851 -0.9700 -1.7416
  915TIP3   OH224379   6.455   6.793   7.312 -0.3861  0.6169 -0.1639
  915TIP3    H124380   6.424   6.864   7.367 -0.5688 -0.7880  1.6443
  915TIP3    H224381   6.411   6.807   7.228  0.3033  3.1152 -0.1699
  916TIP3   OH224382   2.864   4.278   7.209 -0.1765  0.2194 -0.1717
  916TIP3    H124383   2.793   4.220   7.235 -2.4108  2.0378 -1.7455
  916TIP3    H224384   2.911   4.230   7.141  0.1338 -1.0118  0.8867
  917TIP3   OH224385   3.603   3.897   8.551 -0.2581 -0.0120  0.2092
  917TIP3    H124386   3.674   3.868   8.493 -1.0232 -1.1043 -0.2065
  917TIP3    H224387   3.533   3.835   8.536 -0.9838  0.5148  1.2999
  918TIP3   OH224388   5.403   4.371   6.942 -0.0092 -0.2580  0.1446
  918TIP3    H124389   5.389   4.366   6.847 -0.3244  2.7325 -0.0625
  918TIP3    H224390   5.497   4.358   6.953  0.2650  0.7703 -0.7692
  919TIP3   OH224391   0.264   6.791   2.250  0.3116 -0.0042  0.0984
  919TIP3    H124392   0.220   6.746   2.178  0.7455  0.0865 -0.2277
  919TIP3    H224393   0.312   6.721   2.295  2.9147  0.3997 -1.7997
  920TIP3   OH224394   2.599   5.203   7.941  0.3307 -0.4923 -0.4848
  920TIP3    H124395   2.605   5.285   7.990  1.7028 -0.5088 -0.5847
  920TIP3    H224396   2.665   5.210   7.873  1.6523 -2.3190  0.5153
  921TIP3   OH224397   5.890   5.375   7.629 -0.0763 -0.0976  0.6798
  921TIP3    H124398   5.900   5.468   7.649 -0.1828 -0.3439  1.9586
  921TIP3    H224399   5.795   5.362   7.624 -0.1784  0.7192 -3.9948
  922TIP3   OH224400   0.224   4.543   2.097  0.3333 -0.1263  0.6293
  922TIP3    H124401   0.189   4.483   2.163 -0.0582 -1.3520 -0.6583
  922TIP3    H224402   0.252   4.487   2.025  0.7638  1.1812 -0.2681
  923TIP3   OH224403   3.345   5.285   0.050 -0.0769  0.1719  0.5716
  923TIP3    H124404   3.299   5.207   0.021 -2.0523  2.0209 -1.7516
  923TIP3    H224405   3.296   5.315   0.127 -2.0247  1.2795 -0.9859
  924TIP3   OH224406   2.105   6.897   2.712  0.1849 -0.1576  0.1121
  924TIP3    H124407   2.125   6.952   2.637 -0.4502 -0.2178 -0.1103
  924TIP3    H224408   2.159   6.932   2.783 -0.7363  1.2357  0.1707
  925TIP3   OH224409   1.515   3.159   2.080  1.1595  0.0522 -0.0924
  925TIP3    H124410   1.457   3.186   2.151  1.6351  0.8791 -0.0146
  925TIP3    H224411   1.552   3.076   2.109 -1.1826 -1.3670 -0.8140
  926TIP3   OH224412   1.480   2.515   0.612 -0.5375  0.2496 -0.0825
  926TIP3    H124413   1.416   2.456   0.650 -0.9875 -0.4433 -1.8007
  926TIP3    H224414   1.485   2.588   0.674  0.6276 -1.8682  2.5070
  927TIP3   OH224415   3.423   1.458   8.172 -0.3996  0.4144  0.4040
  927TIP3    H124416   3.404   1.486   8.262 -0.5953  1.1620  0.1356
  927TIP3    H224417   3.409   1.536   8.119  3.8033  1.2911  0.1862
  928TIP3   OH224418   3.855   6.850   7.044 -0.2014  0.9537 -0.3450
  928TIP3    H124419   3.919   6.785   7.074 -0.9142  0.2898 -0.2471
  928TIP3    H224420   3.851   6.914   7.116 -0.1623  0.6256 -0.0477
  929TIP3   OH224421   4.604   1.587   2.019  0.3849 -0.2771  0.2831
  929TIP3    H124422   4.613   1.509   2.073  2.8093 -1.1939 -1.2404
  929TIP3    H224423   4.640   1.658   2.072  0.1676 -0.6155  0.8850
  930TIP3   OH224424   1.828   4.621   8.044  0.0334  0.0435  0.1838
  930TIP3    H124425   1.836   4.617   7.949  1.4299  0.0774  0.2717
  930TIP3    H224426   1.845   4.531   8.073  1.6621  0.4098  0.4869
  931TIP3   OH224427   2.631   0.283   0.182 -0.7787 -0.1083 -0.6623
  931TIP3    H124428   2.619   0.279   0.277  2.8564  0.0727 -0.0510
  931TIP3    H224429   2.629   0.376   0.161  1.3621  0.0888 -0.1892
  932TIP3   OH224430   3.019   2.968   0.355  0.4547  0.6085  0.3871
  932TIP3    H124431   3.095   3.015   0.321 -0.3894  1.6467 -0.1598
  932TIP3    H224432   2.982   3.027   0.421 -1.1700  1.2289 -0.9788
  933TIP3   OH224433   3.420   3.374   6.941 -0.0580  0.1225  0.5508
  933TIP3    H124434   3.328   3.387   6.919 -0.5733 -0.2780  2.3030
  933TIP3    H224435   3.459   3.462   6.940 -0.9137  0.5354  1.5825
  934TIP3   OH224436   4.704   2.746   1.053  0.1762 -0.8469 -0.4301
  934TIP3    H124437   4.728   2.673   0.996 -0.6410  0.2139 -2.1883
  934TIP3    H224438   4.702   2.822   0.996  3.6546  1.2044  1.7690
  935TIP3   OH224439   0.253   1.861   7.870  0.5876 -0.5287 -0.0764
  935TIP3    H124440   0.279   1.849   7.779  0.5970 -1.0129 -0.0144
  935TIP3    H224441   0.295   1.943   7.897  1.2946 -0.8214 -0.2530
  936TIP3   OH224442   2.277   3.541   0.405  0.0952  0.3213  0.9099
  936TIP3    H124443   2.245   3.624   0.371  2.3442  1.2195  0.7971
  936TIP3    H224444   2.220   3.522   0.480 -0.2991  2.0944  1.1010
  937TIP3   OH224445   1.979   1.508   7.892 -0.1791  0.0693 -0.2370
  937TIP3    H124446   2.074   1.516   7.895 -0.2972  2.3011 -0.6729
  937TIP3    H224447   1.961   1.472   7.805  0.2744 -1.2505  0.1903
  938TIP3   OH224448   1.519   3.012   6.726 -0.1081 -0.3424 -0.1052
  938TIP3    H124449   1.594   3.035   6.672  0.2229  0.3660  0.6285
  938TIP3    H224450   1.482   3.097   6.752 -0.2812 -0.6719  0.7463
  939TIP3   OH224451   4.243   4.651   0.798 -0.1427 -0.3830 -0.3203
  939TIP3    H124452   4.333   4.681   0.781  1.1467 -1.1480  4.0068
  939TIP3    H224453   4.246   4.557   0.783 -0.0645 -0.4821  0.3006
  940TIP3   OH224454   1.187   6.449   2.164  0.3278 -0.1224 -0.0982
  940TIP3    H124455   1.203   6.538   2.195 -0.5529 -0.1967  0.5849
  940TIP3    H224456   1.134   6.409   2.233 -1.8595 -0.2319 -1.7553
  941TIP3   OH224457   3.016   6.371   2.347  0.0740 -0.0554 -0.5360
  941TIP3    H124458   2.944   6.307   2.343  0.9122 -1.0462 -0.1869
  941TIP3    H224459   3.025   6.402   2.257 -1.4014  0.8004 -0.4206
  942TIP3   OH224460   2.724   4.918   8.646 -0.0240 -0.5041 -0.5845
  942TIP3    H124461   2.647   4.971   8.668 -0.2860 -1.6102  1.3725
  942TIP3    H224462   2.697   4.828   8.664  1.3776 -1.0288 -0.9666
  943TIP3   OH224463   6.288   0.576   0.810 -0.6434  0.1127  0.0157
  943TIP3    H124464   6.274   0.641   0.741  0.9292 -0.7667 -1.1846
  943TIP3    H224465   6.218   0.512   0.796 -1.9235  1.2543  0.9213
  944TIP3   OH224466   6.825   5.529   0.318 -0.8199  0.3658  0.6209
  944TIP3    H124467   6.900   5.469   0.324 -0.6934  0.6272  1.8864
  944TIP3    H224468   6.834   5.570   0.232 -0.2067 -0.5101  0.2502
  945TIP3   OH224469   4.436   2.034   0.980  0.4472 -0.2760  0.4460
  945TIP3    H124470   4.460   2.098   1.047  2.0673  0.0257 -0.3698
  945TIP3    H224471   4.504   2.043   0.913 -1.2495 -0.3715 -1.3812
  946TIP3   OH224472   2.259   2.395   0.816  0.2393 -0.0919 -0.1512
  946TIP3    H124473   2.309   2.314   0.830  1.3658  1.0113  3.3357
  946TIP3    H224474   2.179   2.383   0.867  1.0296  1.3937  1.5412
  947TIP3   OH224475   1.278   1.033   8.261  0.6995 -0.1662 -0.3481
  947TIP3    H124476   1.287   1.128   8.253  2.3228 -0.2986 -0.4382
  947TIP3    H224477   1.365   1.003   8.285  0.3724 -1.6985 -0.9793
  948TIP3   OH224478   1.795   0.134   1.845 -0.0282 -0.0684  0.6700
  948TIP3    H124479   1.876   0.107   1.887  0.6579  0.6613 -0.1331
  948TIP3    H224480   1.737   0.059   1.853  1.6249 -1.6362 -0.9985
  949TIP3   OH224481   5.553   0.271   1.183  0.0495 -0.3804 -0.2808
  949TIP3    H124482   5.557   0.359   1.220 -1.6141 -0.0898 -0.6969
  949TIP3    H224483   5.614   0.219   1.236 -0.1708  0.6457  1.0236
  950TIP3   OH224484   5.134   4.835   1.887  0.0720  0.0391  0.8173
  950TIP3    H124485   5.179   4.910   1.848 -0.7182 -0.1159 -0.4554
  950TIP3    H224486   5.074   4.873   1.950  1.2147  0.3129  1.7817
  951TIP3   OH224487   4.173   1.015   0.640  0.3002  0.2061  0.0471
  951TIP3    H124488   4.259   0.993   0.606  1.0698  2.4034  0.4056
  951TIP3    H224489   4.183   1.011   0.735 -0.2199 -0.2951  0.0853
  952TIP3   OH224490   1.554   0.149   0.937 -0.0340 -0.5247 -0.1661
  952TIP3    H124491   1.531   0.080   0.874 -1.6526 -0.4800  0.3211
  952TIP3    H224492   1.600   0.103   1.007  0.2626 -0.8601 -0.5802
  953TIP3   OH224493   2.615   0.083   0.743 -0.0075  0.0852 -0.0690
  953TIP3    H124494   2.551   0.013   0.730 -1.6519  1.0081  2.3554
  953TIP3    H224495   2.565   0.153   0.785  1.8319  2.3106 -1.3842
  954TIP3   OH224496   0.506   6.541   1.495  0.3657  0.2892 -1.1202
  954TIP3    H124497   0.465   6.552   1.409  0.1864  1.0410 -0.9431
  954TIP3    H224498   0.524   6.447   1.501  0.9098  0.2990 -2.2232
  955TIP3   OH224499   1.203   3.114   1.476  0.8861  0.2455 -0.1006
  955TIP3    H124500   1.277   3.131   1.418  0.9091  0.7895  0.0829
  955TIP3    H224501   1.126   3.121   1.420  0.9474  0.0608 -0.2105
  956TIP3   OH224502   6.468   0.208   2.005  0.0751  0.8061 -0.6496
  956TIP3    H124503   6.503   0.224   1.917  2.3246  1.7789  0.3455
  956TIP3    H224504   6.456   0.295   2.042 -2.0438  0.4431 -0.3663
  957TIP3   OH224505   2.593   0.610   8.585 -0.0665  1.2232  0.1524
  957TIP3    H124506   2.660   0.553   8.546 -1.3374 -1.7724  1.9298
  957TIP3    H224507   2.626   0.628   8.673 -1.3482 -0.0233  0.9364
  958TIP3   OH224508   6.067   4.535   6.998  0.2130 -0.8651 -0.1257
  958TIP3    H124509   5.987   4.574   6.964  0.8109 -0.9192 -1.6752
  958TIP3    H224510   6.038   4.476   7.067 -0.8468  1.0941  1.1865
  959TIP3   OH224511   5.924   3.421   2.559 -0.4098 -0.7022  0.1649
  959TIP3    H124512   6.019   3.431   2.569 -0.2935  1.2375 -2.0961
  959TIP3    H224513   5.888   3.461   2.638  0.6322 -0.0982  0.3622
  960TIP3   OH224514   1.536   0.951   0.907  0.0067  0.0276  0.1615
  960TIP3    H124515   1.518   0.865   0.945 -0.1343 -0.6523 -1.3754
  960TIP3    H224516   1.495   1.013   0.967  1.1815 -0.8779  1.9537
  961TIP3   OH224517   6.277   5.238   8.541 -0.5391 -0.3767  0.2652
  961TIP3    H124518   6.208   5.292   8.502  0.4608 -0.1229 -1.2305
  961TIP3    H224519   6.323   5.298   8.601  0.7489  0.5894 -1.6012
  962TIP3   OH224520   2.944   3.898   2.003  0.1224  0.6632 -0.3333
  962TIP3    H124521   3.001   3.827   2.032 -0.0213  1.2305  1.4693
  962TIP3    H224522   2.969   3.972   2.057 -0.5520  1.6584 -1.3447
  963TIP3   OH224523   1.130   3.291   6.935  0.3013 -0.7709  0.0344
  963TIP3    H124524   1.134   3.288   7.031 -0.0680  3.6991  0.4176
  963TIP3    H224525   1.043   3.255   6.914 -0.9238  0.9679  1.7560
  964TIP3   OH224526   1.924   5.911   7.658 -0.0419  0.3540  0.2282
  964TIP3    H124527   1.943   5.976   7.591  0.7826 -2.8794 -2.9643
  964TIP3    H224528   2.003   5.909   7.712  0.2313  1.4153 -0.1031
  965TIP3   OH224529   3.369   5.457   0.702  0.2153 -0.0126  0.0515
  965TIP3    H124530   3.296   5.496   0.750  1.0260 -0.7071  1.9440
  965TIP3    H224531   3.327   5.402   0.636 -0.9918 -0.1482  0.8914
  966TIP3   OH224532   6.258   4.888   8.061 -0.1409 -0.6852 -0.8873
  966TIP3    H124533   6.182   4.833   8.041 -0.9446 -0.9602  2.3120
  966TIP3    H224534   6.332   4.844   8.019 -0.9088 -3.7330  0.6949
  967TIP3   OH224535   3.926   5.345   7.097  0.0971 -0.7409 -0.2368
  967TIP3    H124536   4.014   5.346   7.059  0.4136 -0.4510  0.4833
  967TIP3    H224537   3.869   5.325   7.024  0.6572  0.1671 -0.9430
  968TIP3   OH224538   2.747   1.633   0.266  0.3114 -0.1519  0.4200
  968TIP3    H124539   2.694   1.622   0.345  0.4261  0.8942  0.6609
  968TIP3    H224540   2.762   1.727   0.260  1.3103 -0.3339 -0.1993
  969TIP3   OH224541   0.812   2.681   1.723  0.3000  0.6007  0.0369
  969TIP3    H124542   0.894   2.654   1.683  0.2739  1.5355 -0.6729
  969TIP3    H224543   0.773   2.600   1.757  2.0369  0.2858  1.3889
  970TIP3   OH224544   4.149   2.884   6.406 -0.5168 -0.0772 -0.0624
  970TIP3    H124545   4.112   2.814   6.459  0.3972 -0.5082  0.0263
  970TIP3    H224546   4.074   2.936   6.377 -1.1369 -0.6966  0.4387
  971TIP3   OH224547   2.743   0.631   8.184 -1.0137  0.2423  0.0642
  971TIP3    H124548   2.666   0.606   8.134 -1.8235 -0.9728  1.8174
  971TIP3    H224549   2.808   0.563   8.163 -1.2740 -0.1348  0.4562
  972TIP3   OH224550   2.882   0.139   6.838 -0.0587 -0.1672 -0.2251
  972TIP3    H124551   2.897   0.069   6.901  0.7566  0.4161  0.2570
  972TIP3    H224552   2.798   0.118   6.798 -0.5723 -0.5949  1.0181
  973TIP3   OH224553   2.632   1.128   2.118 -0.1304 -0.0491 -0.0576
  973TIP3    H124554   2.584   1.211   2.117 -0.5313 -0.2396  1.4619
  973TIP3    H224555   2.717   1.149   2.157 -0.3633 -0.3970  0.6646
  974TIP3   OH224556   2.961   3.114   6.934  0.8466  0.6987 -0.2388
  974TIP3    H124557   2.895   3.067   6.883  0.1606  0.3055  0.9705
  974TIP3    H224558   2.953   3.205   6.905  0.0558  0.5812 -0.4138
  975TIP3   OH224559   6.354   4.923   1.023 -0.0052  0.4385 -0.4713
  975TIP3    H124560   6.338   4.829   1.030  1.7792  0.0511 -1.1786
  975TIP3    H224561   6.445   4.934   1.049 -0.3619  2.0752  0.2054
  976TIP3   OH224562   6.656   0.742   1.002 -0.3001 -0.2293  1.2767
  976TIP3    H124563   6.583   0.684   1.025 -0.8706  0.2048  0.5969
  976TIP3    H224564   6.720   0.685   0.959 -1.6203 -0.1105 -1.0228
  977TIP3   OH224565   0.717   4.832   6.699  0.2762 -0.0115  0.0825
  977TIP3    H124566   0.804   4.829   6.738 -0.2568 -2.1364  1.2363
  977TIP3    H224567   0.721   4.770   6.626  0.0447  0.7843 -0.6257
  978TIP3   OH224568   5.442   1.287   8.261 -0.0744  0.1090 -0.3343
  978TIP3    H124569   5.505   1.224   8.296  0.6664  0.3055 -1.2705
  978TIP3    H224570   5.365   1.278   8.317  1.0208  0.3355  1.2641
  979TIP3   OH224571   3.984   1.634   6.826 -0.2760 -0.0938 -0.5965
  979TIP3    H124572   3.942   1.566   6.878 -0.1575 -0.3376 -0.8205
  979TIP3    H224573   3.912   1.687   6.793 -0.3163  0.5564  0.4869
  980TIP3   OH224574   4.594   2.871   1.923  0.2580 -0.0089  0.2609
  980TIP3    H124575   4.508   2.849   1.959 -0.4034  1.5298 -0.2812
  980TIP3    H224576   4.622   2.793   1.876 -1.6196 -0.0149 -0.9663
  981TIP3   OH224577   0.304   2.260   0.676  0.1329 -0.0020 -0.8745
  981TIP3    H124578   0.298   2.172   0.639  1.8357 -1.5187  2.0269
  981TIP3    H224579   0.259   2.253   0.761 -0.1244  2.0845 -0.7855
  982TIP3   OH224580   3.941   6.289   1.528 -0.6061  0.4957 -0.0189
  982TIP3    H124581   3.936   6.203   1.571 -0.1778  1.3641  1.9058
  982TIP3    H224582   3.915   6.351   1.597  4.2085  2.3723  0.4685
  983TIP3   OH224583   2.550   1.201   1.103  0.4629 -0.2563 -0.4471
  983TIP3    H124584   2.534   1.266   1.171 -0.1841 -0.2241 -0.6257
  983TIP3    H224585   2.569   1.252   1.025 -0.6806 -0.2537 -0.7451
  984TIP3   OH224586   3.607   1.375   0.556 -0.1809  0.0348 -0.2653
  984TIP3    H124587   3.527   1.324   0.562 -0.1223  0.0388  0.6820
  984TIP3    H224588   3.634   1.388   0.647  1.2505 -0.5228 -0.5904
  985TIP3   OH224589   3.088   5.038   1.685 -0.3500  0.4861 -0.0253
  985TIP3    H124590   3.164   5.011   1.634 -0.0110  0.6701  0.3765
  985TIP3    H224591   3.014   5.027   1.625 -0.6943 -3.9801  0.8971
  986TIP3   OH224592   2.210   4.336   7.582  0.4267 -0.2175  0.3425
  986TIP3    H124593   2.140   4.289   7.627 -1.3493  0.8174 -1.2317
  986TIP3    H224594   2.183   4.427   7.583  1.6787  0.1919 -0.4395
  987TIP3   OH224595   2.442   3.942   8.203  0.4351  0.2195  0.4319
  987TIP3    H124596   2.446   3.972   8.112  1.1543  0.7656  0.6312
  987TIP3    H224597   2.372   3.876   8.204 -0.6237  1.2928 -0.1934
  988TIP3   OH224598   4.101   2.238   0.487 -0.1290  0.1166 -0.9450
  988TIP3    H124599   4.177   2.190   0.453  0.6709  0.4024  0.3538
  988TIP3    H224600   4.031   2.173   0.490  0.0105 -0.1218 -2.2879
  989TIP3   OH224601   0.433   1.589   0.664  0.3304  0.1722  0.5344
  989TIP3    H124602   0.514   1.616   0.622 -0.7962  1.1135 -1.2068
  989TIP3    H224603   0.419   1.653   0.734  1.1805 -0.1443  1.0051
  990TIP3   OH224604   6.039   1.696   0.733  0.6765  0.6819 -0.3281
  990TIP3    H124605   6.009   1.779   0.696  0.4324  0.0716 -1.5715
  990TIP3    H224606   6.126   1.684   0.696  0.6628  0.3347 -0.2509
  991TIP3   OH224607   1.101   2.762   1.379 -0.0933  0.2271 -0.7738
  991TIP3    H124608   1.106   2.773   1.285  0.6986  0.3270 -0.7290
  991TIP3    H224609   1.179   2.711   1.402 -1.8414 -2.6316 -0.5531
  992TIP3   OH224610   3.364   1.491   1.679  0.0771 -0.6657 -0.2464
  992TIP3    H124611   3.444   1.529   1.715 -0.6600  0.0174  0.7225
  992TIP3    H224612   3.312   1.567   1.651 -0.0539 -1.1182 -1.2916
  993TIP3   OH224613   3.904   5.875   2.045  0.0110  0.2021  0.1185
  993TIP3    H124614   3.963   5.860   1.971 -0.7916 -0.1957 -0.4595
  993TIP3    H224615   3.905   5.793   2.094 -1.5968 -0.5553 -1.0289
  994TIP3   OH224616   2.976   0.175   1.711  0.4203 -0.4945 -0.9448
  994TIP3    H124617   2.919   0.232   1.762 -0.5248 -2.2596  0.0898
  994TIP3    H224618   3.050   0.158   1.770  0.4694 -0.7014 -1.0668
  995TIP3   OH224619   1.494   1.465   1.575 -0.8468 -0.6149 -0.9603
  995TIP3    H124620   1.426   1.411   1.614 -0.4324 -0.1247  0.4812
  995TIP3    H224621   1.564   1.466   1.639 -0.6971  1.3464 -1.1002
  996TIP3   OH224622   1.153   0.666   1.160  1.2418 -0.0002 -0.5834
  996TIP3    H124623   1.089   0.672   1.089  0.4414  2.2343  0.2424
  996TIP3    H224624   1.220   0.606   1.127  0.3731  0.1547 -2.7903
  997TIP3   OH224625   0.654   3.899   8.399  0.3499  0.2670 -0.1106
  997TIP3    H124626   0.588   3.852   8.450 -0.0215  0.8129 -0.0744
  997TIP3    H224627   0.607   3.931   8.323  0.8427 -0.3107 -0.6687
  998TIP3   OH224628   6.310   2.251   7.431 -0.4595  0.4291 -0.2106
  998TIP3    H124629   6.245   2.232   7.363 -2.0827 -0.9930  1.6226
  998TIP3    H224630   6.382   2.190   7.413 -1.1377 -0.3620 -0.3157
  999TIP3   OH224631   2.668   2.573   6.417  0.1764  0.0931 -0.1626
  999TIP3    H124632   2.575   2.593   6.430  0.3936  1.3151 -0.4562
  999TIP3    H224633   2.670   2.478   6.404 -1.1571  0.1936 -1.2494
 1000TIP3   OH224634   0.173   1.260   8.271  0.1168 -0.0642  0.3380
 1000TIP3    H124635   0.092   1.259   8.220 -0.8014 -1.4848  1.7265
 1000TIP3    H224636   0.151   1.309   8.350 -0.1612 -2.3705  1.7877
 1001TIP3   OH224637   1.327   5.432   0.077 -0.7342 -0.9601 -0.6716
 1001TIP3    H124638   1.401   5.396   0.027 -0.1451  2.0706 -2.2570
 1001TIP3    H224639   1.354   5.522   0.097 -1.0719 -1.7529  5.0137
 1002TIP3   OH224640   5.576   6.120   6.574  0.0751  0.2594  0.0872
 1002TIP3    H124641   5.582   6.201   6.625 -0.7425  0.2588  0.1961
 1002TIP3    H224642   5.662   6.079   6.583  0.1285  0.5490  0.9706
 1003TIP3   OH224643   5.847   4.093   7.304 -0.1888 -0.1366 -0.1158
 1003TIP3    H124644   5.923   4.048   7.267  0.9937  0.4132  1.5328
 1003TIP3    H224645   5.812   4.145   7.232  1.2355 -0.1257 -0.8269
 1004TIP3   OH224646   5.990   2.370   0.259 -0.2703 -0.3917 -0.9247
 1004TIP3    H124647   6.013   2.463   0.266 -1.0634 -0.2814  0.4109
 1004TIP3    H224648   5.896   2.370   0.244  0.1149 -0.9279 -4.0611
 1005TIP3   OH224649   2.280   0.155   2.856  0.1454 -0.0974  0.0861
 1005TIP3    H124650   2.364   0.190   2.825  0.3517 -0.6479  0.0169
 1005TIP3    H224651   2.216   0.218   2.824  0.4938  0.1098 -0.2228
 1006TIP3   OH224652   0.392   1.930   0.037  1.0380 -0.2279 -0.5846
 1006TIP3    H124653   0.378   1.855   0.094  0.1792 -0.5998 -1.2680
 1006TIP3    H224654   0.482   1.919   0.005  1.2420 -0.4470  0.0440
 1007TIP3   OH224655   4.304   4.260   2.376 -0.4529  0.1937  0.7125
 1007TIP3    H124656   4.284   4.341   2.422 -1.4419  1.5009 -1.8607
 1007TIP3    H224657   4.233   4.200   2.401 -0.9962  0.8882  0.8460
 1008TIP3   OH224658   3.965   5.360   1.375  0.4547 -0.2556  0.0626
 1008TIP3    H124659   3.950   5.306   1.453 -0.4085 -0.0317  0.0664
 1008TIP3    H224660   4.055   5.340   1.349  1.3517  0.9331  2.0708
 1009TIP3   OH224661   2.641   0.971   0.790  0.2074  0.0133  0.1640
 1009TIP3    H124662   2.645   1.065   0.806 -0.2960  0.3606 -1.4673
 1009TIP3    H224663   2.720   0.936   0.830  1.1660  1.3566 -0.4547
 1010TIP3   OH224664   2.167   2.646   0.334  0.5751  0.4736 -0.4622
 1010TIP3    H124665   2.154   2.729   0.380 -1.3421 -0.8313  1.5723
 1010TIP3    H224666   2.226   2.597   0.391  0.1128 -0.2855 -0.6264
 1011TIP3   OH224667   4.424   2.568   1.554  0.1689 -0.1416  0.2476
 1011TIP3    H124668   4.506   2.521   1.547  1.0853  1.2817  0.9863
 1011TIP3    H224669   4.357   2.500   1.546  1.3987 -1.3392 -0.2707
 1012TIP3   OH224670   1.556   4.188   2.305 -0.1148  0.2099 -0.2896
 1012TIP3    H124671   1.489   4.120   2.298 -0.6227  0.7302 -0.5846
 1012TIP3    H224672   1.531   4.239   2.382  1.1728 -0.8814  0.9175
 1013TIP3   OH224673   0.519   6.547   7.500  0.0710 -0.4137  0.2874
 1013TIP3    H124674   0.571   6.467   7.495  0.0726 -0.5201  1.6061
 1013TIP3    H224675   0.557   6.605   7.434 -0.0844 -1.5762 -0.8539
 1014TIP3   OH224676   6.887   5.285   0.976  0.2018  0.0976 -0.0707
 1014TIP3    H124677   6.809   5.314   1.025  0.7716 -0.6221  1.3424
 1014TIP3    H224678   6.899   5.194   1.003  2.7175  0.7724  1.4022
 1015TIP3   OH224679   2.398   6.287   0.640  0.5367  0.3529  0.8928
 1015TIP3    H124680   2.460   6.220   0.613 -1.3567 -1.4856  0.8473
 1015TIP3    H224681   2.366   6.325   0.557 -1.2989 -1.5442  0.6393
 1016TIP3   OH224682   4.020   1.291   7.307  0.6534 -0.1719 -0.4317
 1016TIP3    H124683   3.935   1.306   7.265  1.1329  2.4406 -0.5862
 1016TIP3    H224684   4.045   1.203   7.279 -2.4632 -1.4988  0.5130
 1017TIP3   OH224685   5.323   4.559   2.368 -0.0304  0.0500 -0.2698
 1017TIP3    H124686   5.403   4.610   2.379  0.5390 -0.7029 -0.8184
 1017TIP3    H224687   5.295   4.537   2.456  0.7699 -0.2967 -0.1009
 1018TIP3   OH224688   6.603   3.210   1.284  0.1456 -0.0863 -0.6661
 1018TIP3    H124689   6.525   3.263   1.271 -0.7918 -1.3242 -0.3315
 1018TIP3    H224690   6.676   3.272   1.284 -0.7964  1.0432 -1.3809
 1019TIP3   OH224691   4.084   4.770   7.159 -0.1763  0.4235 -0.2374
 1019TIP3    H124692   4.172   4.736   7.179  0.6957  2.8437  0.4094
 1019TIP3    H224693   4.093   4.865   7.167 -2.6603  0.7955 -1.0800
 1020TIP3   OH224694   0.957   3.403   2.118  0.1706 -0.4262  0.6182
 1020TIP3    H124695   0.950   3.439   2.207  1.5736 -2.2576  1.5572
 1020TIP3    H224696   0.875   3.427   2.075 -0.7673  0.0806  2.5770
 1021TIP3   OH224697   4.353   3.516   8.612 -0.5744 -0.3067  0.2704
 1021TIP3    H124698   4.281   3.577   8.596  0.2720  1.3654  2.2609
 1021TIP3    H224699   4.312   3.429   8.609 -2.3001  0.4745 -0.3756
 1022TIP3   OH224700   3.006   5.617   8.169 -0.1890  0.0047  0.1412
 1022TIP3    H124701   3.012   5.582   8.080  1.0673  0.3990  0.0517
 1022TIP3    H224702   3.011   5.712   8.157  1.2115  0.0224  0.6967
 1023TIP3   OH224703   6.274   3.806   1.010  0.1525 -0.5720 -0.3773
 1023TIP3    H124704   6.326   3.751   0.951 -1.0045 -1.4862 -0.5685
 1023TIP3    H224705   6.281   3.764   1.095 -0.6909 -1.0030 -0.5128
 1024TIP3   OH224706   4.642   5.439   1.651 -0.1886 -0.4305 -0.2480
 1024TIP3    H124707   4.555   5.450   1.690 -0.3425 -0.6209 -0.5323
 1024TIP3    H224708   4.631   5.367   1.589  0.4080 -1.1045  0.4095
 1025TIP3   OH224709   6.321   5.211   0.405 -0.0956 -0.1066 -0.0174
 1025TIP3    H124710   6.413   5.202   0.380 -0.5922 -2.6998 -1.3937
 1025TIP3    H224711   6.278   5.246   0.326 -0.5810 -1.1134 -0.2240
 1026TIP3   OH224712   5.261   1.540   7.853  0.0815 -0.1760 -0.1015
 1026TIP3    H124713   5.238   1.632   7.846  0.5600 -0.0427  0.0248
 1026TIP3    H224714   5.327   1.537   7.922  0.4128 -0.5435 -0.4253
 1027TIP3   OH224715   5.500   1.824   1.433  0.2086 -0.1771 -0.5042
 1027TIP3    H124716   5.440   1.762   1.474 -0.1056  0.2953 -0.2456
 1027TIP3    H224717   5.510   1.894   1.498  1.2500 -0.3751 -0.4238
 1028TIP3   OH224718   2.925   6.717   8.329 -0.0592 -0.0558 -0.1071
 1028TIP3    H124719   3.005   6.676   8.362  1.6218  4.0958  1.6722
 1028TIP3    H224720   2.940   6.727   8.235  0.0516 -2.0466 -0.3452
 1029TIP3   OH224721   2.044   5.812   8.191 -0.0311  0.3177  0.4739
 1029TIP3    H124722   2.006   5.812   8.279 -1.6529 -1.0676 -0.1800
 1029TIP3    H224723   1.980   5.860   8.138  0.1846 -0.1935 -0.2554
 1030TIP3   OH224724   3.788   6.686   1.061 -0.0508  0.5013  0.6403
 1030TIP3    H124725   3.786   6.607   1.007  2.6777  0.8504 -0.1216
 1030TIP3    H224726   3.743   6.752   1.008  0.8381  0.3358 -0.3493
 1031TIP3   OH224727   2.539   6.876   7.715 -0.5528  0.2925  0.3360
 1031TIP3    H124728   2.471   6.810   7.727  0.4118 -0.9422 -0.7412
 1031TIP3    H224729   2.547   6.918   7.800 -0.3746 -1.7980  1.4150
 1032TIP3   OH224730   1.904   1.901   1.215  0.1351  0.1443 -0.3633
 1032TIP3    H124731   1.898   1.951   1.296  1.6507  0.1690 -0.2342
 1032TIP3    H224732   1.813   1.891   1.186 -0.5101 -0.5041  1.7142
 1033TIP3   OH224733   4.750   4.660   1.719  0.2472 -0.0462  0.1398
 1033TIP3    H124734   4.699   4.605   1.660  0.1403 -0.1340  0.3120
 1033TIP3    H224735   4.821   4.694   1.665  0.6768 -0.8529  0.1793
 1034TIP3   OH224736   1.451   2.762   1.329  0.0258 -0.1692 -0.7793
 1034TIP3    H124737   1.433   2.837   1.271 -0.0884  0.3381 -0.0950
 1034TIP3    H224738   1.421   2.790   1.415  0.1422 -0.9445 -0.4798
 1035TIP3   OH224739   1.106   6.135   8.651 -0.3157 -0.7300  0.0134
 1035TIP3    H124740   1.165   6.187   8.596 -0.9103  2.2393  1.9614
 1035TIP3    H224741   1.019   6.168   8.630 -0.8640 -1.9096  0.3666
 1036TIP3   OH224742   3.041   6.710   2.526  0.2037  0.6352  0.0333
 1036TIP3    H124743   3.093   6.787   2.544 -1.1753  1.3968  0.9610
 1036TIP3    H224744   2.951   6.743   2.516 -0.5024 -0.8627  0.9655
 1037TIP3   OH224745   0.361   6.636   1.718  0.1052 -0.1521 -0.2681
 1037TIP3    H124746   0.426   6.608   1.653 -1.1482  0.2041 -1.7399
 1037TIP3    H224747   0.361   6.566   1.783  1.3604 -0.5662 -0.6841
 1038TIP3   OH224748   0.420   6.760   6.638  0.5203 -0.1920 -0.1751
 1038TIP3    H124749   0.464   6.842   6.659  0.3208 -0.1429  0.0604
 1038TIP3    H224750   0.327   6.781   6.639  0.3465 -0.7957  1.7003
 1039TIP3   OH224751   0.778   3.398   8.410 -0.2533 -0.2828 -1.0785
 1039TIP3    H124752   0.783   3.304   8.423 -2.3578 -0.5794 -1.9814
 1039TIP3    H224753   0.866   3.424   8.385  1.0437 -1.5459  1.7280
 1040TIP3   OH224754   0.766   3.214   7.429  0.1603 -0.0976 -0.0627
 1040TIP3    H124755   0.815   3.293   7.404  1.4975 -1.1697 -1.0362
 1040TIP3    H224756   0.690   3.247   7.476  1.0182  1.7442  0.1540
 1041TIP3   OH224757   1.295   3.665   8.417  0.0808  0.1453  0.0870
 1041TIP3    H124758   1.281   3.574   8.444  1.4446  0.2016  1.1306
 1041TIP3    H224759   1.237   3.677   8.342 -3.5277 -0.2196  2.5635
 1042TIP3   OH224760   5.099   3.233   1.054 -0.1580 -0.4092  0.3912
 1042TIP3    H124761   5.174   3.193   1.009 -0.2420 -1.6359  1.2666
 1042TIP3    H224762   5.137   3.277   1.130 -0.1225  0.7669 -0.2920
 1043TIP3   OH224763   4.385   4.841   0.131 -0.3166 -0.4648 -0.0534
 1043TIP3    H124764   4.473   4.873   0.110 -0.9776  1.2798 -0.3556
 1043TIP3    H224765   4.394   4.800   0.217  0.9629 -1.1092 -0.4725
 1044TIP3   OH224766   1.483   2.295   2.242 -0.0424 -0.6627  0.4463
 1044TIP3    H124767   1.551   2.335   2.296  0.3517  0.1628 -0.6458
 1044TIP3    H224768   1.418   2.263   2.306  0.2244  0.6273  1.3921
 1045TIP3   OH224769   0.394   0.014   0.609  0.2868 -0.5925 -0.0753
 1045TIP3    H124770   0.306   0.043   0.634  0.2564  0.8597 -1.6590
 1045TIP3    H224771   0.452   0.052   0.675 -0.1313 -0.0659 -0.0044
 1046TIP3   OH224772   6.094   0.345   6.987  0.0482 -0.3264 -0.1644
 1046TIP3    H124773   6.168   0.320   6.931 -1.3349  0.3017 -2.3961
 1046TIP3    H224774   6.038   0.397   6.930 -1.1299  0.9512  2.0537
 1047TIP3   OH224775   5.460   0.490   7.489 -0.4838 -0.1080  0.0667
 1047TIP3    H124776   5.516   0.436   7.544  1.8183 -0.7749 -2.6533
 1047TIP3    H224777   5.473   0.579   7.521 -0.5611 -0.6185  1.6062
 1048TIP3   OH224778   4.490   2.538   6.522  0.2366 -0.4570  0.0433
 1048TIP3    H124779   4.473   2.454   6.479  3.7605 -0.8096 -0.9055
 1048TIP3    H224780   4.478   2.603   6.452 -0.0951 -0.3822  0.1649
 1049TIP3   OH224781   3.168   4.715   6.742  0.1424 -0.3193 -0.2037
 1049TIP3    H124782   3.099   4.705   6.677 -0.4546 -0.2339  0.3985
 1049TIP3    H224783   3.157   4.804   6.776  0.1897 -0.4905  0.2795
 1050TIP3   OH224784   0.090   3.787   6.850 -0.1288  0.7641  0.3677
 1050TIP3    H124785   0.170   3.839   6.841  1.0534 -1.0362 -0.0727
 1050TIP3    H224786   0.051   3.789   6.762 -0.0076  0.7869  0.3133
 1051TIP3   OH224787   0.042   3.336   6.193  0.0742 -0.3086  0.2135
 1051TIP3    H124788   0.125   3.367   6.230 -0.0860  0.4831 -0.0782
 1051TIP3    H224789   0.020   3.260   6.246  0.6711 -0.1528  0.7026
 1052TIP3   OH224790   1.884   5.535   8.104  0.2631 -0.4447 -0.7676
 1052TIP3    H124791   1.799   5.499   8.076  0.2762 -0.5786 -0.6412
 1052TIP3    H224792   1.938   5.535   8.025  0.3334 -0.9125 -0.7241
 1053TIP3   OH224793   0.378   5.191   0.068  0.0360 -0.0161  0.2914
 1053TIP3    H124794   0.460   5.142   0.071  0.6211  0.9698  2.7285
 1053TIP3    H224795   0.334   5.169   0.150 -1.8645 -0.0223 -0.6880
 1054TIP3   OH224796   4.045   2.253   0.237 -0.5113 -0.4075 -0.0548
 1054TIP3    H124797   4.118   2.302   0.198  0.1808 -0.4458  1.1419
 1054TIP3    H224798   4.048   2.276   0.330 -1.5252 -1.0527  0.1542
 1055TIP3   OH224799   4.330   5.301   2.213  0.2298  0.2415 -0.3851
 1055TIP3    H124800   4.310   5.392   2.235 -0.7571 -0.0976  0.2070
 1055TIP3    H224801   4.261   5.250   2.257  2.1647 -1.0060  1.3905
 1056TIP3   OH224802   0.824   3.157   0.983  0.1357 -0.7269 -0.0073
 1056TIP3    H124803   0.909   3.202   0.985  0.3363 -1.0969 -0.0276
 1056TIP3    H224804   0.834   3.093   0.913 -0.8842  0.6359 -1.4760
 1057TIP3   OH224805   2.783   1.601   2.273 -0.7879  0.0884  0.2606
 1057TIP3    H124806   2.696   1.634   2.250 -0.2791  0.1574 -1.7355
 1057TIP3    H224807   2.802   1.643   2.357 -1.5811  2.2638 -0.5530
 1058TIP3   OH224808   0.068   0.999   8.456 -0.0226  0.4138 -0.8161
 1058TIP3    H124809   0.001   0.979   8.392  0.0950 -1.4034 -0.4436
 1058TIP3    H224810   0.036   1.075   8.503 -2.3047 -0.9478 -0.0290
 1059TIP3   OH224811   2.638   0.776   7.200  0.6504 -0.9181  0.3761
 1059TIP3    H124812   2.623   0.797   7.292  0.9681 -1.1829  0.4867
 1059TIP3    H224813   2.699   0.703   7.201 -0.3038 -1.7376 -0.0104
 1060TIP3   OH224814   0.258   5.045   1.088 -0.8670  0.0037 -0.2309
 1060TIP3    H124815   0.309   4.987   1.145  0.5617  0.8962 -0.5331
 1060TIP3    H224816   0.227   4.988   1.018  0.0154 -0.5242 -0.2143
 1061TIP3   OH224817   2.427   3.043   8.467 -0.1595  0.2271 -0.2799
 1061TIP3    H124818   2.500   3.065   8.525 -0.2424  0.0180 -0.0929
 1061TIP3    H224819   2.449   2.957   8.432 -1.4256 -0.9775  1.6537
 1062TIP3   OH224820   2.505   2.281   0.599  0.1062 -0.0855 -0.1262
 1062TIP3    H124821   2.417   2.249   0.620  0.3081  0.0418  0.9588
 1062TIP3    H224822   2.557   2.201   0.586 -0.0250 -0.1633 -0.1746
 1063TIP3   OH224823   1.895   6.616   7.306 -0.3014 -0.0654 -0.3463
 1063TIP3    H124824   1.835   6.689   7.324  0.8461  0.7651  0.2144
 1063TIP3    H224825   1.952   6.649   7.236 -1.4915 -1.4437 -2.0738
 1064TIP3   OH224826   3.415   0.901   1.739 -0.4990 -0.6669  0.2702
 1064TIP3    H124827   3.395   0.976   1.795 -2.2364 -0.0326 -1.0980
 1064TIP3    H224828   3.497   0.926   1.696 -0.3359 -0.1730  0.8414
 1065TIP3   OH224829   2.531   3.820   2.108  0.1210  0.3593  0.5725
 1065TIP3    H124830   2.463   3.826   2.042  1.4589 -1.1644 -1.0242
 1065TIP3    H224831   2.596   3.885   2.081  0.1750  0.4891  1.0077
 1066TIP3   OH224832   4.380   1.100   6.918  0.0493 -0.6719 -0.3996
 1066TIP3    H124833   4.380   1.123   6.825  2.2352 -1.0527 -0.5457
 1066TIP3    H224834   4.372   1.184   6.963  0.0127 -0.3795 -0.9364
 1067TIP3   OH224835   2.379   4.731   0.056 -0.1108 -0.1968 -0.4515
 1067TIP3    H124836   2.317   4.696   0.120 -1.1103  1.9846 -0.1463
 1067TIP3    H224837   2.326   4.746  -0.023  0.7298 -1.2014 -1.2427
 1068TIP3   OH224838   3.696   5.543   7.068  0.4426 -0.5168 -0.6858
 1068TIP3    H124839   3.676   5.634   7.090 -0.1447 -0.3016 -2.0453
 1068TIP3    H224840   3.764   5.548   7.001  1.1158 -1.1237 -0.0693
 1069TIP3   OH224841   6.745   0.306   6.692  0.2125 -0.0839 -0.3384
 1069TIP3    H124842   6.764   0.363   6.618  0.8143  0.2385  0.0569
 1069TIP3    H224843   6.822   0.250   6.700  1.1954  1.3742  1.4125
 1070TIP3   OH224844   1.519   3.219   2.420  0.6654 -1.0921 -0.2628
 1070TIP3    H124845   1.454   3.196   2.354  2.8690 -2.5755 -2.0159
 1070TIP3    H224846   1.558   3.136   2.446  1.6987 -0.2582  0.9917
 1071TIP3   OH224847   1.478   5.631   7.289 -0.3389 -0.0890  0.7783
 1071TIP3    H124848   1.466   5.578   7.210 -1.1826  0.7055  0.3490
 1071TIP3    H224849   1.573   5.636   7.300 -0.2140 -0.4692 -0.0067
 1072TIP3   OH224850   6.317   5.983   1.526  0.3250  0.3251  0.5254
 1072TIP3    H124851   6.402   5.987   1.570  1.2136  4.0714 -1.1122
 1072TIP3    H224852   6.262   6.043   1.576 -0.0694  0.9971 -0.6629
 1073TIP3   OH224853   1.262   5.453   2.201  0.0064  0.5159 -0.0775
 1073TIP3    H124854   1.175   5.490   2.215  0.8113  2.4076  0.2270
 1073TIP3    H224855   1.291   5.493   2.119  0.1882 -0.9439 -0.7504
 1074TIP3   OH224856   1.361   3.243   6.396 -0.0022 -0.0949 -0.0655
 1074TIP3    H124857   1.357   3.156   6.438  1.4822 -0.0923  0.1045
 1074TIP3    H224858   1.440   3.283   6.431  0.3391  0.5948 -1.5844
 1075TIP3   OH224859   3.395   2.045   6.718 -0.2385 -0.0056 -0.0584
 1075TIP3    H124860   3.407   2.085   6.632  1.8471  0.8113  0.5660
 1075TIP3    H224861   3.349   1.963   6.699  1.6855 -0.6983 -2.1748
 1076TIP3   OH224862   1.226   6.676   7.664 -0.3962 -0.9540 -0.0338
 1076TIP3    H124863   1.239   6.640   7.576 -1.1558  0.0284 -0.5713
 1076TIP3    H224864   1.158   6.743   7.652  2.4813  2.3572  0.4322
 1077TIP3   OH224865   2.639   1.417   8.180 -0.1495  0.1297  0.2585
 1077TIP3    H124866   2.623   1.441   8.089 -1.0129 -0.5733  0.2123
 1077TIP3    H224867   2.557   1.439   8.225 -0.0018 -0.2494  0.7173
 1078TIP3   OH224868   0.154   2.111   0.109  0.8657 -0.0734  1.0275
 1078TIP3    H124869   0.240   2.069   0.102  0.4188 -1.0683  1.3683
 1078TIP3    H224870   0.098   2.062   0.048  0.3662  0.1061  1.3375
 1079TIP3   OH224871   1.072   2.853   8.546  0.3195 -0.1157 -0.6488
 1079TIP3    H124872   1.107   2.766   8.526 -1.1252 -1.2646  1.5135
 1079TIP3    H224873   1.128   2.886   8.616 -1.1822 -0.8670  0.9955
 1080TIP3   OH224874   0.873   0.874   8.491  0.3721 -0.2920  0.0139
 1080TIP3    H124875   0.952   0.919   8.522  1.2873 -1.8979  0.1562
 1080TIP3    H224876   0.871   0.892   8.397  1.5314 -1.0852 -0.1898
 1081TIP3   OH224877   2.114   4.096   8.150 -0.0067 -0.1402  0.0637
 1081TIP3    H124878   2.021   4.108   8.171 -0.1835 -1.1835 -0.0883
 1081TIP3    H224879   2.157   4.173   8.188 -0.9122  0.2920  0.2407
 1082TIP3   OH224880   4.191   4.338   8.020 -0.2343  0.2099 -0.1235
 1082TIP3    H124881   4.144   4.314   8.101  0.6137 -0.0890  0.2909
 1082TIP3    H224882   4.137   4.406   7.981 -1.3190 -0.5233  0.0463
 1083TIP3   OH224883   2.075   0.962   8.474 -0.3474  0.4415  0.5315
 1083TIP3    H124884   2.094   1.027   8.541  1.1480 -0.2787  0.8475
 1083TIP3    H224885   2.129   0.989   8.399 -1.6615  0.9890 -0.2475
 1084TIP3   OH224886   6.668   2.324   1.269  0.0088 -0.2374 -0.2218
 1084TIP3    H124887   6.747   2.359   1.310  1.7224 -0.7590 -2.8161
 1084TIP3    H224888   6.649   2.385   1.197 -2.3475  0.1812  0.6675
 1085TIP3   OH224889   5.463   3.450   1.285 -0.4491  0.0919  0.5119
 1085TIP3    H124890   5.368   3.449   1.275 -0.5774  0.6718  1.5306
 1085TIP3    H224891   5.489   3.359   1.271 -0.9104  0.2427 -1.7066
 1086TIP3   OH224892   5.619   1.090   1.791 -0.4120 -0.3122  0.2619
 1086TIP3    H124893   5.629   1.172   1.743 -0.9433  0.9384  2.1811
 1086TIP3    H224894   5.697   1.083   1.845 -0.5024 -0.9412  0.3248
 1087TIP3   OH224895   4.657   1.153   7.506  0.0911  0.1911  0.0218
 1087TIP3    H124896   4.674   1.169   7.599  0.1135 -0.4383  0.1297
 1087TIP3    H224897   4.563   1.162   7.497  0.0125 -0.3730  0.2359
 1088TIP3   OH224898   5.680   0.622   0.086  0.1820 -0.0735  0.2210
 1088TIP3    H124899   5.668   0.717   0.090  1.6588  0.0992  1.6530
 1088TIP3    H224900   5.602   0.586   0.128  0.9827  0.6691  2.4788
 1089TIP3   OH224901   0.534   6.158   2.229  0.1722 -0.0217  0.2560
 1089TIP3    H124902   0.597   6.228   2.216 -1.6928  1.4753 -1.3958
 1089TIP3    H224903   0.573   6.082   2.187  1.4233  0.5233  0.4137
 1090TIP3   OH224904   6.417   3.560   1.541 -0.4049  0.4820  0.4402
 1090TIP3    H124905   6.385   3.624   1.605 -3.4685 -0.2789 -0.2092
 1090TIP3    H224906   6.429   3.610   1.461  2.0635  1.1363  1.1041
 1091TIP3   OH224907   1.183   3.723   0.286 -0.1824 -0.1096 -0.1910
 1091TIP3    H124908   1.121   3.752   0.219  0.8478  3.5992  0.2519
 1091TIP3    H224909   1.250   3.791   0.288 -0.6530  0.6471  5.2934
 1092TIP3   OH224910   4.373   2.319   0.744 -0.5225  0.3167 -0.0784
 1092TIP3    H124911   4.325   2.264   0.806  1.4110  0.0180  1.2434
 1092TIP3    H224912   4.425   2.378   0.799  1.1364  0.1611 -1.3813
 1093TIP3   OH224913   0.088   3.612   6.438  0.2757  0.2194 -0.1395
 1093TIP3    H124914   0.008   3.575   6.400  0.0362  2.4965 -2.1330
 1093TIP3    H224915   0.159   3.561   6.402 -0.1884 -0.8745  0.4560
 1094TIP3   OH224916   5.543   5.670   2.465  0.0474  0.1852 -0.3210
 1094TIP3    H124917   5.474   5.725   2.502  0.1804 -0.3527  0.7873
 1094TIP3    H224918   5.505   5.583   2.460  0.2401  0.1312 -0.9052
 1095TIP3   OH224919   0.333   1.345   0.634 -0.0026 -0.2235 -0.1795
 1095TIP3    H124920   0.251   1.344   0.682  0.6982  1.3707  1.1579
 1095TIP3    H224921   0.378   1.425   0.663  2.4785 -1.5433 -0.0704
 1096TIP3   OH224922   4.394   5.570   0.893 -0.1653  0.0685 -0.3500
 1096TIP3    H124923   4.460   5.640   0.895  0.6218 -0.6705  0.5530
 1096TIP3    H224924   4.344   5.587   0.813  1.8475 -0.0182 -1.7048
 1097TIP3   OH224925   6.529   0.650   2.239 -0.1085  0.2523  0.6019
 1097TIP3    H124926   6.461   0.683   2.299 -0.7028 -1.8686  1.1907
 1097TIP3    H224927   6.593   0.609   2.297  0.0557 -0.5527 -0.1410
 1098TIP3   OH224928   4.691   2.716   8.616  0.1935 -0.3135  0.0057
 1098TIP3    H124929   4.651   2.789   8.568 -0.0248  0.6757  1.5993
 1098TIP3    H224930   4.659   2.637   8.572  0.3422  0.5218 -1.7063
 1099TIP3   OH224931   0.210   4.530   8.494  0.2782  0.1617  0.2586
 1099TIP3    H124932   0.207   4.548   8.588  0.7937  0.7607  0.1643
 1099TIP3    H224933   0.291   4.481   8.481  0.0622 -0.1780  0.1618
 1100TIP3   OH224934   4.906   3.783   7.727  0.4183 -0.3612  0.6900
 1100TIP3    H124935   4.972   3.788   7.795  3.4310 -0.9459 -1.9593
 1100TIP3    H224936   4.865   3.697   7.740  0.4843 -0.1939  2.1044
 1101TIP3   OH224937   4.322   3.866   6.941 -0.0391  0.2077  0.0475
 1101TIP3    H124938   4.365   3.907   7.016  0.8074 -0.3180 -0.1350
 1101TIP3    H224939   4.261   3.932   6.909 -1.8189 -0.2086  2.3216
 1102TIP3   OH224940   0.329   1.135   0.220  0.2605  0.3706 -0.3522
 1102TIP3    H124941   0.335   1.042   0.201 -1.0117  0.4046 -1.0493
 1102TIP3    H224942   0.357   1.143   0.311 -1.2195 -0.9498  0.2798
 1103TIP3   OH224943   6.124   2.272   0.640 -0.5494 -0.1528 -0.2817
 1103TIP3    H124944   6.030   2.255   0.637 -0.2092 -2.9103  1.2643
 1103TIP3    H224945   6.145   2.277   0.733  0.8660  0.2119 -0.6005
 1104TIP3   OH224946   2.657   0.762   2.108 -0.5718  0.0439 -0.1746
 1104TIP3    H124947   2.710   0.776   2.030 -0.7893 -1.1944 -0.5702
 1104TIP3    H224948   2.622   0.848   2.130  1.1176  0.7719 -0.2494
 1105TIP3   OH224949   6.851   0.374   8.202  0.0519  0.3597  0.2558
 1105TIP3    H124950   6.836   0.341   8.113  2.0589 -0.6871  0.2568
 1105TIP3    H224951   6.839   0.469   8.194 -0.5828  0.2009 -0.9495
 1106TIP3   OH224952   0.296   4.713   0.374 -0.3066 -0.2326  0.1047
 1106TIP3    H124953   0.226   4.722   0.438 -1.1362 -2.5757 -0.3687
 1106TIP3    H224954   0.302   4.799   0.333  0.0621  1.2984  3.0381
 1107TIP3   OH224955   4.928   5.096   0.518  0.6695 -0.3023  0.1931
 1107TIP3    H124956   4.898   5.163   0.579  0.8506 -0.2803  0.2572
 1107TIP3    H224957   4.937   5.017   0.572  2.5999  0.1458  0.5880
 1108TIP3   OH224958   3.474   0.139   0.269  0.0341  0.4642  0.4099
 1108TIP3    H124959   3.558   0.109   0.303 -0.5065 -1.1374  0.4363
 1108TIP3    H224960   3.458   0.221   0.314  1.1145  0.2914  1.1515
 1109TIP3   OH224961   4.889   1.078   1.841  0.7629 -0.7282 -0.1747
 1109TIP3    H124962   4.886   1.083   1.937  2.6457 -1.6716 -0.0173
 1109TIP3    H224963   4.973   1.036   1.822  0.6509 -0.1139 -2.2660
 1110TIP3   OH224964   3.275   6.458   7.858  0.2585 -0.5492  0.2942
 1110TIP3    H124965   3.188   6.418   7.852 -0.8307  1.5436  1.1862
 1110TIP3    H224966   3.323   6.400   7.917 -0.5206 -1.6988 -0.1538
 1111TIP3   OH224967   4.473   6.903   7.465 -0.2333 -0.2487  0.6832
 1111TIP3    H124968   4.436   6.816   7.454 -0.6345  0.0219 -0.1554
 1111TIP3    H224969   4.450   6.950   7.385  1.5406  0.0636  0.3176
 1112TIP3   OH224970   3.645   5.597   0.318  0.2788  0.3500 -0.5211
 1112TIP3    H124971   3.585   5.581   0.391  0.0111  2.7493 -0.1328
 1112TIP3    H224972   3.593   5.578   0.240  0.3613 -1.6120 -0.1390
 1113TIP3   OH224973   0.336   2.362   6.672  0.3589 -0.2677 -0.6299
 1113TIP3    H124974   0.425   2.326   6.671  0.2409 -0.5796 -2.0382
 1113TIP3    H224975   0.300   2.335   6.756  1.6823  0.1077  0.0910
 1114TIP3   OH224976   5.460   1.207   1.470  0.2807 -0.7934  0.1441
 1114TIP3    H124977   5.466   1.119   1.435 -1.5000 -0.5570 -0.9183
 1114TIP3    H224978   5.365   1.225   1.473  0.5101  0.3808  2.1240
 1115TIP3   OH224979   4.511   2.178   0.542 -0.0963  0.3531 -0.3148
 1115TIP3    H124980   4.543   2.250   0.487  2.0052 -1.5432 -1.7720
 1115TIP3    H224981   4.450   2.219   0.602  0.7714  3.2953 -1.2726
 1116TIP3   OH224982   5.639   2.889   0.620 -0.3703  0.2229 -0.7028
 1116TIP3    H124983   5.626   2.865   0.528  1.1795  1.6361 -1.3573
 1116TIP3    H224984   5.722   2.848   0.643 -0.2746  0.6698 -0.2486
 1117TIP3   OH224985   0.698   2.736   0.266  0.2877  0.1109  0.4145
 1117TIP3    H124986   0.727   2.778   0.185 -1.2577  1.4906  0.5229
 1117TIP3    H224987   0.764   2.761   0.331  0.4898  0.6416  0.0141
 1118TIP3   OH224988   5.747   5.102   0.824 -0.4058 -0.1576 -0.5540
 1118TIP3    H124989   5.714   5.184   0.787 -1.0099  0.2747  0.8774
 1118TIP3    H224990   5.708   5.034   0.769  0.6174  0.4933 -2.1705
 1119TIP3   OH224991   6.693   2.701   1.492  0.0467  0.3638 -0.5695
 1119TIP3    H124992   6.653   2.784   1.467  0.9234  0.3583 -2.1660
 1119TIP3    H224993   6.772   2.696   1.438  0.6371 -0.9653  0.3636
 1120TIP3   OH224994   0.445   3.104   7.314 -0.5949  0.1954  0.2697
 1120TIP3    H124995   0.525   3.139   7.273 -0.3492  1.3471  1.6360
 1120TIP3    H224996   0.381   3.103   7.243  0.4491 -0.1365 -0.7046
 1121TIP3   OH224997   1.436   6.694   1.061 -0.3054  0.5161  0.0924
 1121TIP3    H124998   1.365   6.660   1.115 -2.0872  2.1545 -1.0840
 1121TIP3    H224999   1.418   6.660   0.974 -0.3377  1.8585 -0.4475
 1122TIP3   OH225000   4.046   6.307   7.748  0.4890  0.4395  0.3575
 1122TIP3    H125001   3.951   6.313   7.755  0.4390 -0.6837  0.7273
 1122TIP3    H225002   4.079   6.370   7.813 -0.0032  0.3840  0.6621
 1123TIP3   OH225003   6.219   0.040   7.382 -0.3757  0.1068 -0.0821
 1123TIP3    H125004   6.183  -0.038   7.339  0.0866  0.1107 -0.4873
 1123TIP3    H225005   6.179   0.113   7.334 -0.5135  0.1161  0.0477
 1124TIP3   OH225006   1.433   1.090   2.302  0.3489 -0.0183  0.5331
 1124TIP3    H125007   1.432   1.180   2.334  2.4338 -0.0435  0.8166
 1124TIP3    H225008   1.447   1.097   2.208  0.7152 -0.0287  0.5834
 1125TIP3   OH225009   0.249   2.343   6.941  0.5375 -0.1813  0.2834
 1125TIP3    H125010   0.319   2.330   7.005  0.2725  0.4885  0.7217
 1125TIP3    H225011   0.244   2.438   6.930 -1.5799 -0.0589  1.7281
 1126TIP3   OH225012   2.910   5.605   2.305 -0.4531 -0.2682 -0.2128
 1126TIP3    H125013   2.923   5.700   2.303  0.3563 -0.3660  0.1135
 1126TIP3    H225014   2.996   5.569   2.286  0.1593 -0.9550  3.2193
 1127TIP3   OH225015   5.776   2.884   6.490  0.2576  0.9114  0.5735
 1127TIP3    H125016   5.816   2.879   6.577 -0.5933 -0.5924  0.9084
 1127TIP3    H225017   5.835   2.834   6.433  0.4236  1.2607  0.4365
 1128TIP3   OH225018   4.877   3.536   0.094  0.1587 -0.2105  0.2534
 1128TIP3    H125019   4.863   3.516   0.187  2.8912  0.9125  0.9960
 1128TIP3    H225020   4.790   3.561   0.062 -1.5456 -3.6912  1.6107
 1129TIP3   OH225021   2.389   0.504   2.564 -0.2593 -0.0410  0.0021
 1129TIP3    H125022   2.358   0.587   2.602 -0.7191 -0.1099 -0.2170
 1129TIP3    H225023   2.311   0.466   2.523  0.5088  0.7068 -2.2924
 1130TIP3   OH225024   0.827   1.317   7.429  0.2169  0.1566  0.0178
 1130TIP3    H125025   0.857   1.228   7.446  0.6810  0.7586  2.8717
 1130TIP3    H225026   0.873   1.344   7.350  0.2944 -1.9890 -0.7364
 1131TIP3   OH225027   3.861   0.744   0.234 -0.4216 -0.3262 -0.2570
 1131TIP3    H125028   3.932   0.806   0.219 -0.5057 -0.4018 -1.0435
 1131TIP3    H225029   3.820   0.774   0.315 -0.9158  1.0916 -0.9944
 1132TIP3   OH225030   5.286   5.607   2.262 -0.0964 -0.1326 -0.5915
 1132TIP3    H125031   5.333   5.535   2.305 -1.0053  0.6901  1.9688
 1132TIP3    H225032   5.348   5.680   2.264  0.0139 -0.2083 -1.1209
 1133TIP3   OH225033   6.306   6.441   8.081 -0.0591 -0.0794  0.1819
 1133TIP3    H125034   6.246   6.392   8.136  0.2951 -1.2003 -0.3951
 1133TIP3    H225035   6.384   6.385   8.074  0.3232  0.5196 -0.5761
 1134TIP3   OH225036   5.873   0.236   1.493 -0.2188  0.5231  0.1912
 1134TIP3    H125037   5.919   0.300   1.439 -0.0349 -0.5375 -0.9502
 1134TIP3    H225038   5.896   0.259   1.583 -1.0942  2.7659 -0.1040
 1135TIP3   OH225039   5.100   0.228   0.901 -0.1412  0.5254 -0.1511
 1135TIP3    H125040   5.090   0.263   0.989 -0.5513  0.7126 -0.2703
 1135TIP3    H225041   5.084   0.303   0.844 -1.0140  0.1470 -0.4096
 1136TIP3   OH225042   5.375   5.784   7.613  0.1872 -0.1190 -0.2229
 1136TIP3    H125043   5.457   5.831   7.603 -0.2902  1.5955  2.6675
 1136TIP3    H225044   5.321   5.813   7.540  1.6542 -0.2119 -1.3773
 1137TIP3   OH225045   4.510   5.092   7.000 -0.0868 -0.0449 -0.5606
 1137TIP3    H125046   4.585   5.143   6.970 -1.3003  2.2153  0.0722
 1137TIP3    H225047   4.444   5.106   6.933 -0.9806  0.5482  0.4311
 1138TIP3   OH225048   4.182   4.820   7.821 -0.2635  0.4327  0.0225
 1138TIP3    H125049   4.226   4.835   7.905  0.9016 -0.9991 -0.2862
 1138TIP3    H225050   4.142   4.904   7.799  0.8973  1.3119  1.1584
 1139TIP3   OH225051   5.062   2.457   0.976  0.3188  0.0843 -0.3640
 1139TIP3    H125052   5.135   2.504   0.935  0.7837 -2.0753 -2.2580
 1139TIP3    H225053   5.094   2.432   1.062  0.8352  1.3845 -0.1656
 1140TIP3   OH225054   3.603   2.647   2.304  0.8492 -0.1234 -0.8925
 1140TIP3    H125055   3.516   2.643   2.264  0.6469 -2.3133 -0.3365
 1140TIP3    H225056   3.628   2.556   2.318  2.6500  0.4886  0.2705
 1141TIP3   OH225057   0.743   6.680   1.680  0.2400 -0.0657  0.2277
 1141TIP3    H125058   0.729   6.761   1.728  1.9074 -0.0136  0.6740
 1141TIP3    H225059   0.667   6.673   1.622 -0.8110  0.8802  1.4438
 1142TIP3   OH225060   2.919   4.933   7.547 -0.3233  0.1733 -0.0828
 1142TIP3    H125061   2.893   4.844   7.569 -2.5353  0.9010  0.4630
 1142TIP3    H225062   2.915   4.937   7.451 -1.6090  0.0392 -0.0543
 1143TIP3   OH225063   2.912   2.967   1.263  0.3519 -0.0946  0.2165
 1143TIP3    H125064   2.939   3.014   1.184  0.3438  0.7531  0.7022
 1143TIP3    H225065   2.968   2.890   1.266  0.2868 -0.1922 -0.6640
 1144TIP3   OH225066   2.108   3.694   6.769 -0.0859  0.2023  0.1217
 1144TIP3    H125067   2.202   3.700   6.751 -0.2914  0.6649 -0.8645
 1144TIP3    H225068   2.087   3.775   6.815  0.0601 -0.0766  0.6933
 1145TIP3   OH225069   1.807   2.398   1.179  0.2455 -0.1773  0.2968
 1145TIP3    H125070   1.722   2.428   1.212 -0.5122 -0.4007 -1.3250
 1145TIP3    H225071   1.871   2.435   1.239 -0.7881  2.6191 -0.1703
 1146TIP3   OH225072   5.492   4.679   2.526  0.1731 -0.1861 -0.2923
 1146TIP3    H125073   5.434   4.708   2.597  0.4464 -0.5291  0.0740
 1146TIP3    H225074   5.580   4.693   2.560  0.3065 -1.0754 -0.2677
 1147TIP3   OH225075   6.395   3.967   7.556  0.0979  0.2686  0.0884
 1147TIP3    H125076   6.420   3.902   7.622 -3.3678 -1.8455 -0.4070
 1147TIP3    H225077   6.452   3.949   7.481  2.3710  1.0465  1.5282
 1148TIP3   OH225078   5.026   2.563   6.456  0.2182 -0.4654  0.0409
 1148TIP3    H125079   4.960   2.569   6.526  2.2958 -2.6506  2.4104
 1148TIP3    H225080   5.102   2.608   6.491  1.2296 -1.3855 -0.9240
 1149TIP3   OH225081   1.129   4.440   1.758 -0.1314 -0.3597  0.0572
 1149TIP3    H125082   1.041   4.447   1.796  0.3759  0.9235  1.1224
 1149TIP3    H225083   1.118   4.387   1.680 -1.2741 -3.2110  1.9676
 1150TIP3   OH225084   2.728   2.906   6.955  0.4967  1.1618  0.6425
 1150TIP3    H125085   2.679   2.888   6.875 -0.2089  0.0975  1.2973
 1150TIP3    H225086   2.692   2.989   6.987  1.2888  1.9817 -0.4989
 1151TIP3   OH225087   5.417   1.602   2.221 -0.1382 -0.1297  0.3651
 1151TIP3    H125088   5.399   1.622   2.313 -1.7285 -1.1656  0.2973
 1151TIP3    H225089   5.371   1.520   2.204  3.2568 -2.0827 -0.3469
 1152TIP3   OH225090   6.090   0.476   0.073  0.4739 -0.1085 -0.2939
 1152TIP3    H125091   6.104   0.426   0.153  1.9359 -0.2169 -0.5798
 1152TIP3    H225092   6.148   0.435   0.009  0.9783  1.3089 -0.8027
 1153TIP3   OH225093   0.715   4.007   7.849  0.4795  0.3727  0.2459
 1153TIP3    H125094   0.682   3.925   7.885  0.3237  1.2326  2.1796
 1153TIP3    H225095   0.811   4.000   7.855  0.4504  0.8370  1.7277
 1154TIP3   OH225096   6.040   2.413   1.461  0.1795  0.5248 -0.3350
 1154TIP3    H125097   6.056   2.448   1.373  0.3423  1.6489  0.1209
 1154TIP3    H225098   6.103   2.460   1.516 -1.4947  1.5671  0.7586
 1155TIP3   OH225099   2.500   2.766   1.264 -0.3502  0.4745 -0.2487
 1155TIP3    H125100   2.413   2.799   1.285 -0.9279 -1.4260  0.5504
 1155TIP3    H225101   2.548   2.843   1.234 -2.0739  1.7018 -0.0155
 1156TIP3   OH225102   3.746   1.542   0.866 -0.0166  0.1329 -0.2572
 1156TIP3    H125103   3.732   1.493   0.948 -2.6781  1.0131 -0.0760
 1156TIP3    H225104   3.828   1.508   0.831  0.7123 -0.9684  2.2861
 1157TIP3   OH225105   1.161   5.595   1.639 -0.4553 -0.0833 -0.3662
 1157TIP3    H125106   1.221   5.522   1.624 -1.6542 -1.0403 -0.5853
 1157TIP3    H225107   1.131   5.620   1.552 -1.4158 -0.5080 -0.1620
 1158TIP3   OH225108   3.546   2.295   1.814  0.1635  0.0205  0.0689
 1158TIP3    H125109   3.551   2.372   1.870  2.2892  1.0455 -1.4141
 1158TIP3    H225110   3.627   2.247   1.832 -0.8828 -1.6312  0.5790
 1159TIP3   OH225111   3.983   4.052   8.541 -0.5145 -0.2920  0.1403
 1159TIP3    H125112   3.933   4.128   8.512 -0.8395 -0.3494  0.5375
 1159TIP3    H225113   4.071   4.086   8.557  0.2448 -0.6287 -2.7718
 1160TIP3   OH225114   4.446   2.857   2.516  0.4531 -0.2221 -0.1537
 1160TIP3    H125115   4.435   2.924   2.584  1.1653 -0.3668  0.1170
 1160TIP3    H225116   4.467   2.907   2.437 -0.8566 -0.0221 -0.3983
 1161TIP3   OH225117   1.083   0.764   7.306  0.1380  0.1432 -0.0604
 1161TIP3    H125118   1.090   0.671   7.331 -0.0988  0.2650  0.4741
 1161TIP3    H225119   1.022   0.801   7.371  1.2179  0.9608  0.5169
 1162TIP3   OH225120   6.494   5.169   7.616  0.3440  0.3366 -0.0436
 1162TIP3    H125121   6.442   5.134   7.689 -0.2945  0.8255 -0.2569
 1162TIP3    H225122   6.501   5.095   7.555  0.5158  0.0534  0.3133
 1163TIP3   OH225123   1.440   1.929   1.285  0.1402  0.3945  0.3039
 1163TIP3    H125124   1.429   1.965   1.373 -1.5267 -1.0492  0.7268
 1163TIP3    H225125   1.396   1.991   1.228  1.9673  1.7974  0.3161
 1164TIP3   OH225126   3.650   6.835   7.878 -0.2889 -0.4863 -0.2806
 1164TIP3    H125127   3.588   6.766   7.903  0.6612 -1.4137 -0.3970
 1164TIP3    H225128   3.662   6.824   7.784 -0.2045 -0.0918 -0.3174
 1165TIP3   OH225129   0.294   6.771   6.925  0.3297 -0.1611  0.0751
 1165TIP3    H125130   0.271   6.806   6.839 -0.8833 -0.6029  0.2029
 1165TIP3    H225131   0.331   6.685   6.905  1.2863  0.2722 -0.0824
 1166TIP3   OH225132   3.197   5.518   6.962  0.1221 -0.2513 -0.3942
 1166TIP3    H125133   3.216   5.431   6.999 -0.3848 -0.2125 -0.0316
 1166TIP3    H225134   3.109   5.539   6.994 -0.1039  0.0287 -1.1825
 1167TIP3   OH225135   6.884   3.068   0.358 -0.0781  0.0041  0.2587
 1167TIP3    H125136   6.931   3.145   0.328 -0.3623  0.5743  1.2279
 1167TIP3    H225137   6.948   3.019   0.410  0.4219 -0.9943 -1.2285
 1168TIP3   OH225138   1.570   5.200   0.060 -0.1013 -0.0150 -0.1520
 1168TIP3    H125139   1.658   5.237   0.064  0.1518 -0.6712  0.5499
 1168TIP3    H225140   1.583   5.110   0.029 -0.2477 -0.9545  2.3362
 1169TIP3   OH225141   1.806   3.386   1.856 -0.3152 -0.1001  0.5556
 1169TIP3    H125142   1.784   3.293   1.856  1.3050 -0.5213 -0.3911
 1169TIP3    H225143   1.722   3.431   1.870 -2.1258 -1.5107 -4.0913
 1170TIP3   OH225144   2.879   2.759   7.834  0.2176  1.2476 -0.0023
 1170TIP3    H125145   2.850   2.850   7.844  0.6685  1.5881 -1.4850
 1170TIP3    H225146   2.816   2.721   7.772  1.8396  1.5053 -1.9087
 1171TIP3   OH225147   1.004   6.595   1.119  0.2821 -0.3367  0.5466
 1171TIP3    H125148   0.968   6.512   1.088 -0.2789  0.4824 -1.0884
 1171TIP3    H225149   0.928   6.644   1.150  0.1783  0.6975 -1.2489
 1172TIP3   OH225150   5.210   3.961   7.478 -0.0903 -0.1138 -0.6087
 1172TIP3    H125151   5.159   3.881   7.472 -0.8696  0.3788 -0.7249
 1172TIP3    H225152   5.233   3.968   7.571 -0.3204 -0.2882 -0.5373
 1173TIP3   OH225153   0.093   2.018   1.805  0.7481  0.2218 -0.6031
 1173TIP3    H125154   0.113   1.943   1.749  1.9827  0.3165 -0.3266
 1173TIP3    H225155   0.137   1.997   1.888  1.1031  1.2408 -0.5238
 1174TIP3   OH225156   4.792   6.086   0.253  0.0961  0.2030 -0.1154
 1174TIP3    H125157   4.727   6.155   0.264 -1.0252 -0.5828 -1.4447
 1174TIP3    H225158   4.808   6.082   0.159  0.2468 -1.2388 -0.0566
 1175TIP3   OH225159   5.670   2.571   6.310 -0.7562  0.0781 -0.9411
 1175TIP3    H125160   5.655   2.507   6.380  0.3179 -1.3248 -1.9448
 1175TIP3    H225161   5.758   2.605   6.328 -1.9732  2.7198  0.6289
 1176TIP3   OH225162   2.328   2.472   8.617  0.2584 -0.0947 -0.2149
 1176TIP3    H125163   2.379   2.495   8.539  0.7008  0.5085  0.2428
 1176TIP3    H225164   2.388   2.420   8.671  0.4242  0.6780  0.3600
 1177TIP3   OH225165   0.407   6.621   8.468 -0.4879 -0.0150  0.0512
 1177TIP3    H125166   0.429   6.705   8.427 -1.3135 -0.1765 -0.7624
 1177TIP3    H225167   0.344   6.581   8.408 -1.5315 -0.3837  1.3576
 1178TIP3   OH225168   2.145   3.620   8.613 -0.4435  0.8511  0.2201
 1178TIP3    H125169   2.150   3.533   8.653 -0.2035  0.9555  0.4229
 1178TIP3    H225170   2.223   3.625   8.557 -0.0337  1.2292  0.8133
 1179TIP3   OH225171   4.502   6.542   0.334  0.3479  0.1097 -0.2128
 1179TIP3    H125172   4.454   6.591   0.268  0.4516 -0.5389 -0.7796
 1179TIP3    H225173   4.467   6.574   0.418 -1.1073 -0.3689 -0.6061
 1180TIP3   OH225174   0.261   1.001   8.251  0.0862 -0.1109  0.6412
 1180TIP3    H125175   0.250   1.095   8.236 -3.0214 -0.4645  0.0576
 1180TIP3    H225176   0.216   0.985   8.334 -0.6342 -1.2719  0.0469
 1181TIP3   OH225177   3.148   5.492   0.851  0.4598  0.3099 -0.1978
 1181TIP3    H125178   3.054   5.504   0.861  0.2199  0.1744 -1.8985
 1181TIP3    H225179   3.186   5.525   0.933 -1.0949 -0.2833  0.7977
 1182TIP3   OH225180   2.089   6.174   6.704 -0.3667  0.2089  0.7161
 1182TIP3    H125181   2.110   6.147   6.614  2.2645  1.9207  0.7125
 1182TIP3    H225182   2.030   6.106   6.736  0.9445 -2.0488 -1.3284
 1183TIP3   OH225183   2.952   3.602   7.962 -0.4878 -0.0061 -0.1276
 1183TIP3    H125184   2.963   3.587   7.868  0.4095  0.6260 -0.1417
 1183TIP3    H225185   3.031   3.563   8.001 -0.7339 -0.0372  0.3375
 1184TIP3   OH225186   5.943   0.754   7.443 -0.1898 -0.4553  0.2037
 1184TIP3    H125187   5.950   0.668   7.483  1.0517  0.0820  1.2021
 1184TIP3    H225188   6.028   0.768   7.401 -0.5098  0.1407 -0.2676
 1185TIP3   OH225189   2.123   0.261   1.533 -0.2364 -0.0744  0.7743
 1185TIP3    H125190   2.150   0.287   1.445  0.5450 -1.2645  0.6356
 1185TIP3    H225191   2.164   0.324   1.591  1.8717 -1.0711  0.4750
 1186TIP3   OH225192   4.937   1.327   1.353 -0.3790 -0.1995 -0.9098
 1186TIP3    H125193   4.905   1.408   1.313  0.9701  0.1746 -1.2815
 1186TIP3    H225194   4.899   1.257   1.300 -1.7845  0.1575 -0.4156
 1187TIP3   OH225195   0.926   2.774   0.432  0.1705 -0.3183 -0.0893
 1187TIP3    H125196   0.965   2.824   0.361 -2.4019  1.0340 -0.6736
 1187TIP3    H225197   0.905   2.839   0.499  0.6157 -1.2657  1.0149
 1188TIP3   OH225198   2.409   5.099   0.778  0.6997  0.2359 -0.5643
 1188TIP3    H125199   2.322   5.097   0.738  0.4247  2.1835 -0.1707
 1188TIP3    H225200   2.462   5.150   0.717  0.8689  1.2838  0.4321
 1189TIP3   OH225201   4.532   2.342   2.001  0.2970 -0.0499 -0.3713
 1189TIP3    H125202   4.536   2.343   1.906  2.3912  0.1439 -0.3363
 1189TIP3    H225203   4.571   2.425   2.028  0.1608 -0.2954  0.6460
 1190TIP3   OH225204   3.612   5.558   7.872  0.0668  0.2554  0.4126
 1190TIP3    H125205   3.551   5.494   7.836  1.1530  0.0414 -1.1706
 1190TIP3    H225206   3.557   5.632   7.898 -0.7492  1.2557 -3.5242
 1191TIP3   OH225207   1.499   2.143   0.555 -0.1906  0.4132 -0.1201
 1191TIP3    H125208   1.479   2.081   0.485  0.3723 -0.9021  0.8460
 1191TIP3    H225209   1.589   2.170   0.539 -0.4281  0.9932 -0.5274
 1192TIP3   OH225210   6.303   0.780   1.693  0.2167  0.3565  0.1203
 1192TIP3    H125211   6.325   0.771   1.600 -2.0239 -0.7082 -0.3829
 1192TIP3    H225212   6.315   0.873   1.712  0.8291  0.5650 -1.1984
 1193TIP3   OH225213   5.952   3.079   0.740 -0.0060  0.5298  0.0118
 1193TIP3    H125214   5.884   3.143   0.762 -1.5267 -0.8842 -0.4330
 1193TIP3    H225215   5.942   3.064   0.646 -1.0932 -1.8886  0.4517
 1194TIP3   OH225216   1.330   5.565   7.534  0.0882  0.0050 -0.0681
 1194TIP3    H125217   1.285   5.487   7.502 -0.1449 -0.4870  1.3932
 1194TIP3    H225218   1.408   5.571   7.479 -0.2810 -0.7984 -0.7171
 1195TIP3   OH225219   2.831   5.416   6.775  0.6728 -0.5600 -0.2558
 1195TIP3    H125220   2.876   5.493   6.741  0.7478  0.3012  1.7111
 1195TIP3    H225221   2.760   5.400   6.712  2.3699 -0.6762 -2.2518
 1196TIP3   OH225222   0.458   3.058   7.823  0.1265  0.3298 -0.6502
 1196TIP3    H125223   0.498   3.112   7.891 -0.2806 -0.7822  0.5408
 1196TIP3    H225224   0.429   2.979   7.870  0.2101 -0.6723 -2.2085
 1197TIP3   OH225225   2.328   5.021   2.363 -0.8299  0.2154  0.1626
 1197TIP3    H125226   2.371   4.979   2.436 -0.8387 -1.5631 -0.7980
 1197TIP3    H225227   2.234   5.007   2.379 -0.8039 -1.0314 -0.6234
 1198TIP3   OH225228   3.420   4.823   0.184 -0.2339  0.6999  0.2897
 1198TIP3    H125229   3.441   4.731   0.166  0.3756  0.7437  0.7419
 1198TIP3    H225230   3.504   4.868   0.181 -0.6470  1.4199 -0.8603
 1199TIP3   OH225231   0.810   2.492   0.546  0.1444 -0.1276  0.4942
 1199TIP3    H125232   0.762   2.419   0.507  1.6335 -1.3369  0.8645
 1199TIP3    H225233   0.742   2.545   0.588 -1.3063  0.2614 -2.1426
 1200TIP3   OH225234   1.643   6.903   0.714  0.1166  0.0848  0.1922
 1200TIP3    H125235   1.671   6.847   0.786 -2.3591 -1.6725 -0.1014
 1200TIP3    H225236   1.715   6.898   0.651  2.0899  1.2318  2.2005
 1201TIP3   OH225237   0.400   0.264   7.263  0.1521 -0.2649  0.4410
 1201TIP3    H125238   0.399   0.360   7.263  0.2213 -0.2646  0.1223
 1201TIP3    H225239   0.334   0.239   7.198  0.0491 -0.4355  0.6091
 1202TIP3   OH225240   3.389   0.336   6.342 -0.5753 -0.5071  0.1647
 1202TIP3    H125241   3.469   0.322   6.291 -1.0970 -0.9100 -0.5558
 1202TIP3    H225242   3.337   0.396   6.288 -0.6010  0.0572  0.8077
 1203TIP3   OH225243   3.356   4.211   8.098  0.0707 -0.0527  0.2000
 1203TIP3    H125244   3.423   4.143   8.093 -0.6881 -0.9474  1.6519
 1203TIP3    H225245   3.274   4.162   8.106 -0.3904  0.9855  2.5280
 1204TIP3   OH225246   5.253   3.397   6.810  0.5376 -0.1662  0.3944
 1204TIP3    H125247   5.346   3.374   6.800  0.0923 -2.0215  0.2747
 1204TIP3    H225248   5.235   3.381   6.903  0.8770  2.4719  0.9947
 1205TIP3   OH225249   0.020   3.377   7.186 -0.5462  0.1800  0.4464
 1205TIP3    H125250  -0.005   3.307   7.126 -1.3282 -1.8674  2.9946
 1205TIP3    H225251  -0.062   3.407   7.224 -0.4955  3.9889 -1.9104
 1206TIP3   OH225252   1.352   2.538   1.106  0.1226 -0.2138 -0.8648
 1206TIP3    H125253   1.334   2.537   1.200 -0.4272  1.1403 -0.9348
 1206TIP3    H225254   1.315   2.457   1.073 -2.6149  0.7696 -0.4056
 1207TIP3   OH225255   1.204   2.130   0.609  0.3145  0.0701  0.0994
 1207TIP3    H125256   1.297   2.151   0.615  0.0583  1.1557  0.5269
 1207TIP3    H225257   1.187   2.077   0.687  0.7083 -0.7213 -0.3392
 1208TIP3   OH225258   4.591   2.757   7.167  0.6822  0.3763 -0.1476
 1208TIP3    H125259   4.536   2.831   7.142 -1.3532 -0.3130  1.9739
 1208TIP3    H225260   4.531   2.683   7.170  2.2535 -0.9483 -0.1182
 1209TIP3   OH225261   6.209   0.509   1.232 -0.8364 -0.1980 -0.1168
 1209TIP3    H125262   6.203   0.426   1.187 -1.6660 -0.3497  0.2462
 1209TIP3    H225263   6.124   0.551   1.218 -0.1029  1.0390 -1.1313
 1210TIP3   OH225264   2.490   3.247   1.134  0.4388 -0.5710  0.4294
 1210TIP3    H125265   2.441   3.329   1.125 -0.8900 -1.4166 -0.3909
 1210TIP3    H225266   2.531   3.253   1.220  0.1172  0.8199  0.5096
 1211TIP3   OH225267   0.317   1.743   6.588  0.3714  0.2824  0.1005
 1211TIP3    H125268   0.396   1.753   6.535  0.2936  0.8991  0.0966
 1211TIP3    H225269   0.289   1.652   6.573  1.5472 -0.2121  0.7475
 1212TIP3   OH225270   5.383   2.570   1.142 -0.9908 -0.0374 -0.0808
 1212TIP3    H125271   5.341   2.490   1.111  0.3878 -0.8343  0.0005
 1212TIP3    H225272   5.337   2.590   1.224 -1.0899 -0.9877  0.1170
 1213TIP3   OH225273   5.198   2.058   7.540  0.1579 -0.2952  0.0035
 1213TIP3    H125274   5.269   2.068   7.602  0.3162  0.1206 -0.2364
 1213TIP3    H225275   5.205   2.135   7.483 -0.6267 -0.1238  0.1273
 1214TIP3   OH225276   0.169   6.905   2.609 -0.4050  0.0362  0.4053
 1214TIP3    H125277   0.190   6.814   2.628 -2.3489 -0.3055  1.1507
 1214TIP3    H225278   0.209   6.954   2.680  0.1767 -0.2702  0.3001
 1215TIP3   OH225279   1.793   3.994   2.692 -0.4878  0.5441 -0.5510
 1215TIP3    H125280   1.820   3.930   2.626 -0.7948 -0.2914  0.1121
 1215TIP3    H225281   1.750   3.942   2.760 -0.1636  1.3738  0.3190
 1216TIP3   OH225282   1.729   0.787   7.523  0.4351  0.7028 -0.0243
 1216TIP3    H125283   1.755   0.717   7.583  0.3920 -0.4913 -1.3472
 1216TIP3    H225284   1.661   0.836   7.570 -0.4209 -0.9003  0.4714
 1217TIP3   OH225285   3.217   3.999   1.505  0.0071  0.4643 -0.0127
 1217TIP3    H125286   3.261   4.084   1.505  0.6722  0.1406  0.5716
 1217TIP3    H225287   3.177   3.993   1.592 -0.0758  0.2011 -0.0682
 1218TIP3   OH225288   3.165   1.859   6.700 -0.2420  0.1752  0.0700
 1218TIP3    H125289   3.184   1.766   6.686 -2.1780 -0.8858  3.3514
 1218TIP3    H225290   3.123   1.887   6.620  0.7932 -1.6330 -1.1857
 1219TIP3   OH225291   6.460   2.858   8.544  0.0607  0.2284  0.1181
 1219TIP3    H125292   6.456   2.776   8.495  1.3428 -0.0566  0.4499
 1219TIP3    H225293   6.374   2.865   8.585 -1.0160  0.4320 -2.0610
 1220TIP3   OH225294   2.918   5.298   1.198 -0.5956 -0.0768 -0.3904
 1220TIP3    H125295   2.885   5.373   1.247 -0.3625 -0.6441  0.6554
 1220TIP3    H225296   2.990   5.264   1.250  1.4128  0.8365 -2.3981
 1221TIP3   OH225297   0.544   2.462   2.136 -0.0656  0.1450  0.1644
 1221TIP3    H125298   0.457   2.460   2.175 -0.9024 -0.0446 -1.5794
 1221TIP3    H225299   0.590   2.533   2.181 -1.7529  1.4696 -0.1098
 1222TIP3   OH225300   5.513   6.775   1.855 -0.0066 -0.1560 -0.0756
 1222TIP3    H125301   5.524   6.728   1.937 -1.7596 -0.1189  0.2163
 1222TIP3    H225302   5.550   6.862   1.872  1.3293 -0.7287  0.0526
 1223TIP3   OH225303   5.815   4.649   7.283 -0.3029  0.3296  0.4028
 1223TIP3    H125304   5.774   4.563   7.268  0.1844  0.4857 -2.2928
 1223TIP3    H225305   5.898   4.628   7.326 -0.4043 -0.5047  0.2210
 1224TIP3   OH225306   5.341   1.612   7.599 -0.0805 -0.4044 -0.2011
 1224TIP3    H125307   5.296   1.669   7.537  0.7894  0.3586 -0.1555
 1224TIP3    H225308   5.271   1.574   7.653 -1.0313 -2.2556 -2.5445
 1225TIP3   OH225309   0.235   3.418   1.927  0.4391  0.5088 -0.0815
 1225TIP3    H125310   0.160   3.375   1.968  1.3128 -0.9409  0.0832
 1225TIP3    H225311   0.307   3.403   1.988  1.2747  0.1732 -1.1182
 1226TIP3   OH225312   0.430   2.346   0.095 -0.1421 -0.1258 -0.0199
 1226TIP3    H125313   0.478   2.263   0.098 -0.5728 -0.3512  1.0959
 1226TIP3    H225314   0.466   2.397   0.168  0.0919  0.6647 -0.6706
 1227TIP3   OH225315   0.471   6.307   8.485  0.1408  0.2809 -0.1404
 1227TIP3    H125316   0.499   6.303   8.576  1.3628  1.2075 -0.4468
 1227TIP3    H225317   0.552   6.323   8.436 -0.3967 -0.8666 -1.4567
 1228TIP3   OH225318   1.523   3.346   0.215 -0.3608  0.4520 -0.8236
 1228TIP3    H125319   1.583   3.408   0.257 -0.5877  0.9384 -1.2239
 1228TIP3    H225320   1.521   3.372   0.123 -0.5957 -0.0398 -0.9630
 1229TIP3   OH225321   1.381   1.311   8.235  0.4234  0.5923 -0.1352
 1229TIP3    H125322   1.446   1.373   8.202  1.1213 -0.1197 -0.1107
 1229TIP3    H225323   1.412   1.289   8.323  0.1608  0.2279 -0.1352
 1230TIP3   OH225324   5.787   5.325   0.390  0.4352  0.1195 -0.0266
 1230TIP3    H125325   5.698   5.290   0.397  0.6668 -0.7061 -1.0162
 1230TIP3    H225326   5.840   5.251   0.359  1.8216  0.0904  2.2082
 1231TIP3   OH225327   4.686   5.290   8.150  0.3145  0.3914 -1.0199
 1231TIP3    H125328   4.615   5.270   8.212  0.1274 -1.8361 -1.8799
 1231TIP3    H225329   4.747   5.218   8.160  0.9384  0.6855 -2.4968
 1232TIP3   OH225330   1.089   2.570   1.697 -0.0490  0.4665  0.1294
 1232TIP3    H125331   1.095   2.566   1.793  0.6131  0.9662  0.1161
 1232TIP3    H225332   1.177   2.593   1.669  0.0287 -0.7752 -0.6782
 1233TIP3   OH225333   6.414   6.829   6.640  0.3946  0.2354 -0.0994
 1233TIP3    H125334   6.444   6.903   6.693 -1.5675  0.2321  1.1352
 1233TIP3    H225335   6.492   6.798   6.594  1.7836  1.4271  1.3699
 1234TIP3   OH225336   2.415   5.662   8.282  0.4674  0.0340 -0.2194
 1234TIP3    H125337   2.482   5.608   8.240  0.3544  1.1120 -1.8578
 1234TIP3    H225338   2.463   5.712   8.349  1.1387  0.1303 -0.7599
 1235TIP3   OH225339   4.148   3.099   1.651  0.0108  0.3388  0.4888
 1235TIP3    H125340   4.146   3.170   1.586  0.2284 -0.6956 -0.7022
 1235TIP3    H225341   4.134   3.143   1.735 -0.7492  1.6777 -0.2920
 1236TIP3   OH225342   2.530   5.488   2.732  0.3071  0.3890  0.2909
 1236TIP3    H125343   2.435   5.482   2.746  0.2739  1.7546  0.7968
 1236TIP3    H225344   2.548   5.427   2.660 -1.0051  0.4003 -0.0653
 1237TIP3   OH225345   3.743   6.802   7.567 -0.1847 -0.5236  0.8417
 1237TIP3    H125346   3.804   6.789   7.495 -0.1884  1.8445  0.3116
 1237TIP3    H225347   3.795   6.847   7.634 -0.7813 -0.5443  1.3285
 1238TIP3   OH225348   1.298   2.940   0.845 -1.0980  0.9523 -0.4021
 1238TIP3    H125349   1.219   2.969   0.892 -1.6254 -1.3085  0.2096
 1238TIP3    H225350   1.264   2.899   0.765 -0.5653  0.0244 -0.1681
 1239TIP3   OH225351   3.039   3.513   1.284 -0.6530 -0.2580 -0.0775
 1239TIP3    H125352   3.069   3.436   1.236  1.9434  0.9605 -0.5566
 1239TIP3    H225353   3.118   3.553   1.319 -1.6718  3.0659 -1.1801
 1240TIP3   OH225354   3.268   1.800   1.042  0.3086  0.4341 -0.1325
 1240TIP3    H125355   3.254   1.874   0.982  3.1346  1.6598  0.5523
 1240TIP3    H225356   3.182   1.783   1.080 -1.2386  0.7337 -3.2035
 1241TIP3   OH225357   4.251   0.312   7.391  0.4908  0.3177 -0.5284
 1241TIP3    H125358   4.172   0.308   7.338  1.0768 -0.3526 -1.3707
 1241TIP3    H225359   4.232   0.256   7.467  0.1483  0.1972 -0.7029
 1242TIP3   OH225360   5.562   2.824   6.240  0.3784  0.6440  0.2906
 1242TIP3    H125361   5.599   2.742   6.272 -0.2770  0.3937  0.4231
 1242TIP3    H225362   5.570   2.819   6.145  2.4700  1.4520  0.3759
 1243TIP3   OH225363   6.474   1.443   1.610 -0.2289 -0.9368  0.5300
 1243TIP3    H125364   6.417   1.482   1.543 -1.2769 -0.8556  1.4462
 1243TIP3    H225365   6.465   1.501   1.686  2.2736 -0.0445  0.2465
 1244TIP3   OH225366   0.722   1.613   0.825  0.0718  0.7976 -0.5595
 1244TIP3    H125367   0.719   1.560   0.746  2.6224  0.1112 -0.2859
 1244TIP3    H225368   0.764   1.557   0.890 -1.2611  1.6175  1.0758
 1245TIP3   OH225369   6.040   2.974   2.295 -0.7534 -0.0264 -0.4554
 1245TIP3    H125370   5.989   3.050   2.321 -0.4602 -0.8542  3.1194
 1245TIP3    H225371   5.976   2.914   2.257 -1.7638  0.4600  0.4087
 1246TIP3   OH225372   1.415   1.632   0.577 -0.0170  0.5805  0.3889
 1246TIP3    H125373   1.327   1.611   0.545  0.5406  0.8379 -1.4178
 1246TIP3    H225374   1.438   1.558   0.633 -0.4255 -0.7461 -1.1219
 1247TIP3   OH225375   0.525   4.913   2.764 -0.1131 -0.6727 -0.1634
 1247TIP3    H125376   0.554   4.844   2.703  2.6502  0.1982  0.0145
 1247TIP3    H225377   0.599   4.974   2.767 -2.5506  2.5232 -0.5402
 1248TIP3   OH225378   3.321   5.776   1.552 -0.1030 -0.6732 -0.5169
 1248TIP3    H125379   3.396   5.815   1.597 -2.3447  2.1605  1.0985
 1248TIP3    H225380   3.308   5.692   1.596  0.5898 -0.0382  0.9998
 1249TIP3   OH225381   3.811   0.091   8.296 -0.1330 -0.3502 -0.0859
 1249TIP3    H125382   3.762   0.076   8.215 -2.0673  0.3397  0.9091
 1249TIP3    H225383   3.746   0.121   8.359  1.7515  1.7641  1.0052
 1250TIP3   OH225384   2.493   6.023   0.034 -0.3647  0.1849 -0.6404
 1250TIP3    H125385   2.537   6.107   0.022 -0.2092  0.6815  2.5488
 1250TIP3    H225386   2.427   6.040   0.101 -1.7188 -1.8021 -1.3811
 1251TIP3   OH225387   3.227   1.208   8.481 -0.2325  0.3517  0.4558
 1251TIP3    H125388   3.177   1.290   8.480  0.9415  1.0976 -1.5383
 1251TIP3    H225389   3.318   1.236   8.478  0.2426 -1.0441  1.2347
 1252TIP3   OH225390   3.201   6.864   8.027  0.0946 -0.3759 -0.0908
 1252TIP3    H125391   3.265   6.912   7.973  0.6261 -1.6336 -0.6040
 1252TIP3    H225392   3.250   6.838   8.105  0.2199 -1.3331 -0.4781
 1253TIP3   OH225393   6.625   6.230   7.984 -0.2430  0.3854 -0.2470
 1253TIP3    H125394   6.603   6.141   7.959  1.2238  0.4711 -2.0405
 1253TIP3    H225395   6.672   6.266   7.909  0.1119  2.3326  0.8221
 1254TIP3   OH225396   1.213   0.536   8.206  0.3275 -0.0738 -0.1104
 1254TIP3    H125397   1.195   0.448   8.239  0.6090  0.2384  0.8987
 1254TIP3    H225398   1.126   0.577   8.198  0.2697 -0.0527  0.5538
 1255TIP3   OH225399   1.302   5.137   8.582  0.0058  0.1367  0.2170
 1255TIP3    H125400   1.394   5.136   8.554  0.1496 -0.1496  0.6910
 1255TIP3    H225401   1.306   5.127   8.677 -0.5849 -1.4598  0.0943
 1256TIP3   OH225402   5.639   0.122   1.763  0.2591  0.0069  0.3683
 1256TIP3    H125403   5.596   0.088   1.684  1.3102  0.6945 -0.5320
 1256TIP3    H225404   5.730   0.094   1.756  0.8828  1.9083  0.1951
 1257TIP3   OH225405   0.104   3.962   0.433 -0.9485 -0.1424 -0.2528
 1257TIP3    H125406   0.020   3.965   0.478 -0.0077  1.1943  1.5772
 1257TIP3    H225407   0.145   4.046   0.454  1.2821 -1.1963 -0.1264
 1258TIP3   OH225408   3.694   5.667   0.968  0.3143 -0.1374 -0.5755
 1258TIP3    H125409   3.698   5.698   1.059 -0.6284 -0.3191 -0.4556
 1258TIP3    H225410   3.776   5.696   0.929  0.2083  1.0236 -0.0010
 1259TIP3   OH225411   6.081   4.552   1.908  0.0169 -0.2664  0.0997
 1259TIP3    H125412   6.050   4.487   1.845 -1.8967 -0.3628  1.0883
 1259TIP3    H225413   6.046   4.524   1.992 -0.9793  2.0835  0.5543
 1260TIP3   OH225414   2.948   2.373   0.181  0.1359  0.0551 -0.3222
 1260TIP3    H125415   3.041   2.354   0.169  0.1022  0.1364 -0.7180
 1260TIP3    H225416   2.942   2.406   0.271  0.4704 -0.0634 -0.2545
 1261TIP3   OH225417   0.379   3.737   7.420  0.1677  0.0533  0.0887
 1261TIP3    H125418   0.384   3.643   7.434  1.6024  0.0899 -0.0630
 1261TIP3    H225419   0.412   3.776   7.501 -0.0650  0.4245  0.0114
 1262TIP3   OH225420   0.766   3.707   6.893 -0.2294 -0.0069  0.2417
 1262TIP3    H125421   0.785   3.619   6.928  3.2453  0.0672 -1.1126
 1262TIP3    H225422   0.786   3.766   6.966 -2.7957 -0.2157  1.2335
 1263TIP3   OH225423   3.186   5.283   0.558  0.4584 -0.7626 -0.6314
 1263TIP3    H125424   3.253   5.248   0.498  1.1668 -0.9114  0.2250
 1263TIP3    H225425   3.148   5.206   0.599  1.0459 -0.6139  0.2236
 1264TIP3   OH225426   2.833   6.100   6.565 -0.2160  0.4307 -0.5142
 1264TIP3    H125427   2.740   6.119   6.578 -0.7298 -1.3759 -1.2449
 1264TIP3    H225428   2.878   6.177   6.601 -1.9311  0.8685  0.8698
 1265TIP3   OH225429   4.882   3.880   1.745  0.3457 -0.6593  0.0846
 1265TIP3    H125430   4.943   3.939   1.788 -2.5256  2.8850 -0.2203
 1265TIP3    H225431   4.858   3.926   1.664 -0.9298 -3.0137 -0.9759
 1266TIP3   OH225432   6.678   2.840   2.079 -0.0359  0.3641  0.2912
 1266TIP3    H125433   6.754   2.828   2.136 -1.8709 -1.5971  2.5582
 1266TIP3    H225434   6.678   2.762   2.023  0.7823  1.4430 -1.2877
 1267TIP3   OH225435   5.524   3.238   8.632  0.1029  0.1431 -0.2770
 1267TIP3    H125436   5.604   3.248   8.684 -0.8802 -0.0252  1.3229
 1267TIP3    H225437   5.545   3.168   8.570  1.0108 -0.3136  0.5191
 1268TIP3   OH225438   6.460   6.517   7.348 -0.6773  0.0273 -0.7865
 1268TIP3    H125439   6.379   6.469   7.363 -0.0434 -0.5141  1.2138
 1268TIP3    H225440   6.435   6.609   7.354 -1.2499 -0.1196 -0.8754
 1269TIP3   OH225441   3.125   6.059   8.314 -0.0917  0.1877  0.3062
 1269TIP3    H125442   3.152   6.013   8.393 -0.4389  0.9096  0.8593
 1269TIP3    H225443   3.075   6.135   8.346 -0.1064  0.5750 -0.5957
 1270TIP3   OH225444   1.259   6.707   7.286 -0.0540 -0.0470  0.2315
 1270TIP3    H125445   1.273   6.616   7.312 -0.0414  0.2487  1.2907
 1270TIP3    H225446   1.307   6.716   7.204 -0.2244 -1.0482  0.0080
 1271TIP3   OH225447   6.710   2.967   0.141  0.0728 -0.0139  0.1357
 1271TIP3    H125448   6.772   2.974   0.214 -1.0692  0.8161  1.0578
 1271TIP3    H225449   6.699   3.057   0.111  0.0662 -0.2811 -0.6866
 1272TIP3   OH225450   1.534   5.140   7.554 -0.8515 -0.1257  0.3620
 1272TIP3    H125451   1.560   5.207   7.491  0.5276 -0.6586  0.3374
 1272TIP3    H225452   1.594   5.152   7.628  0.0771 -1.9562 -0.0572
 1273TIP3   OH225453   4.363   2.889   8.638  0.3158 -0.3501 -0.4114
 1273TIP3    H125454   4.297   2.935   8.585  0.3823  0.3888  0.1380
 1273TIP3    H225455   4.445   2.903   8.591  0.3584  0.2183 -0.1711
 1274TIP3   OH225456   6.827   2.527   1.698 -0.0920 -0.1338 -0.3958
 1274TIP3    H125457   6.804   2.613   1.734  0.7390 -0.4569  0.9825
 1274TIP3    H225458   6.794   2.465   1.764  3.0079 -0.6802  0.7772
 1275TIP3   OH225459   2.794   0.267   2.686 -0.0087  0.3681  0.2923
 1275TIP3    H125460   2.828   0.352   2.712 -0.2020  0.3410  0.6367
 1275TIP3    H225461   2.871   0.209   2.689  0.0028  0.3995  0.6517
 1276TIP3   OH225462   3.402   1.313   2.735  0.4467 -0.1998  0.6459
 1276TIP3    H125463   3.490   1.302   2.699 -0.2871 -1.6248 -0.8251
 1276TIP3    H225464   3.349   1.246   2.692 -1.8050  1.8084  0.0561
 1277TIP3   OH225465   5.581   1.179   0.461 -0.2631 -0.0332 -0.2021
 1277TIP3    H125466   5.605   1.092   0.430  1.6576 -0.6550  2.6572
 1277TIP3    H225467   5.630   1.240   0.406 -1.1557 -0.7365 -1.8292
 1278TIP3   OH225468   0.366   1.584   7.384 -0.2481 -0.3107 -0.1313
 1278TIP3    H125469   0.331   1.499   7.358 -2.4887  0.3587  0.4762
 1278TIP3    H225470   0.327   1.646   7.322  0.5381  0.4026  0.0634
 1279TIP3   OH225471   0.532   4.387   8.162 -0.2997 -0.3547 -0.4114
 1279TIP3    H125472   0.515   4.331   8.086 -3.2821 -0.9916  0.5602
 1279TIP3    H225473   0.548   4.326   8.234 -0.5028  0.1341  0.0580
 1280TIP3   OH225474   4.035   6.888   7.418 -0.2024 -0.2329  0.4863
 1280TIP3    H125475   3.969   6.940   7.371  0.0982 -0.3631 -0.1001
 1280TIP3    H225476   4.018   6.798   7.390  0.0644 -0.2955  0.5263
 1281TIP3   OH225477   1.265   6.357   6.613  0.1389 -0.3350 -0.3558
 1281TIP3    H125478   1.351   6.316   6.618 -0.0334 -0.7154 -0.4748
 1281TIP3    H225479   1.276   6.442   6.657  0.7110 -0.1420 -0.8564
 1282TIP3   OH225480   0.613   5.299   1.289 -0.2456 -0.2644 -0.3866
 1282TIP3    H125481   0.618   5.240   1.213  0.5805  0.7341 -1.1421
 1282TIP3    H225482   0.697   5.343   1.290 -1.0824  1.3969 -0.2568
 1283TIP3   OH225483   1.118   5.848   8.647  0.8721 -0.4763  0.6741
 1283TIP3    H125484   1.181   5.837   8.575 -0.9959 -0.0343 -1.1481
 1283TIP3    H225485   1.128   5.939   8.673  1.7914 -0.7247  1.2371
 1284TIP3   OH225486   5.522   4.253   1.804 -0.0888  0.1576  0.7355
 1284TIP3    H125487   5.580   4.326   1.829  1.6856 -0.9304 -0.0228
 1284TIP3    H225488   5.537   4.242   1.711 -0.5174 -1.0296  0.8027
 1285TIP3   OH225489   1.838   3.697   0.373  0.2736 -0.2551 -0.4528
 1285TIP3    H125490   1.828   3.615   0.325 -0.8797 -0.4071  0.0061
 1285TIP3    H225491   1.760   3.702   0.429  0.4544  1.0175 -0.2698
 1286TIP3   OH225492   0.898   5.307   7.055  0.0099 -0.9627  0.0041
 1286TIP3    H125493   0.892   5.245   6.982  1.5476  0.3290 -1.2995
 1286TIP3    H225494   0.990   5.305   7.081 -0.3562 -0.8143  1.4111
 1287TIP3   OH225495   2.583   0.391   1.781 -0.1872 -0.1674 -0.3572
 1287TIP3    H125496   2.580   0.312   1.728  1.6211 -0.0376 -0.6902
 1287TIP3    H225497   2.673   0.398   1.812 -0.5139  1.2846  0.4161
 1288TIP3   OH225498   5.527   2.534   7.266  0.4589 -0.0820 -0.4912
 1288TIP3    H125499   5.452   2.545   7.207 -0.1642 -1.4621  0.0119
 1288TIP3    H225500   5.592   2.596   7.233 -0.5037  0.3962 -1.5789
 1289TIP3   OH225501   1.195   3.634   0.759  0.0542 -0.8718 -0.3730
 1289TIP3    H125502   1.264   3.660   0.819  0.0677 -0.0590 -0.7321
 1289TIP3    H225503   1.139   3.712   0.751 -0.6359 -1.3651 -0.4523
 1290TIP3   OH225504   4.302   6.680   7.516  0.0605 -0.0864  0.1730
 1290TIP3    H125505   4.253   6.610   7.559  0.0429 -0.5690 -0.5998
 1290TIP3    H225506   4.235   6.742   7.488  0.0522  0.1174  0.6382
 1291TIP3   OH225507   4.265   5.348   1.369 -0.3442 -0.1993  0.1060
 1291TIP3    H125508   4.294   5.304   1.449  0.7000 -0.9574 -0.6631
 1291TIP3    H225509   4.324   5.422   1.359  0.2747 -0.7557 -0.5406
 1292TIP3   OH225510   5.944   3.084   0.419 -0.5287  0.2992 -0.0900
 1292TIP3    H125511   5.989   3.009   0.379 -0.2095  0.4323  0.0162
 1292TIP3    H225512   5.999   3.159   0.396  1.5269  0.0546  3.2835
 1293TIP3   OH225513   6.818   6.014   8.251  0.5281 -0.0243  0.5413
 1293TIP3    H125514   6.867   6.067   8.313  2.0687  0.3201 -0.9244
 1293TIP3    H225515   6.884   5.976   8.193 -0.8243 -0.6316 -0.6750
 1294TIP3   OH225516   3.042   5.090   0.686 -0.1780  0.6643 -0.1343
 1294TIP3    H125517   2.964   5.112   0.738  0.0262 -0.2217  0.5610
 1294TIP3    H225518   3.007   5.054   0.605 -0.5017  2.2262 -0.7276
 1295TIP3   OH225519   4.251   2.019   1.518  0.2110  0.2964 -0.1351
 1295TIP3    H125520   4.186   2.008   1.449  0.7010  1.1213 -0.7515
 1295TIP3    H225521   4.239   1.943   1.575 -1.7488  0.7622  0.1490
 1296TIP3   OH225522   3.828   6.291   0.503 -0.7463 -0.0983 -0.0278
 1296TIP3    H125523   3.786   6.305   0.587  1.9278 -0.5430  1.4869
 1296TIP3    H225524   3.912   6.336   0.509 -0.0687 -0.9264 -2.1101
 1297TIP3   OH225525   4.199   0.971   8.023 -0.2343  0.0003  0.5908
 1297TIP3    H125526   4.175   1.057   8.056  0.9575  0.6189 -0.1091
 1297TIP3    H225527   4.220   0.920   8.101  0.0301  0.6511  0.9474
 1298TIP3   OH225528   0.901   0.440   7.246 -0.0071  0.0838 -0.5413
 1298TIP3    H125529   0.843   0.452   7.321  0.0754 -0.2207 -0.4268
 1298TIP3    H225530   0.848   0.394   7.181  0.3316 -0.8837 -0.1443
 1299TIP3   OH225531   4.461   3.492   8.010  0.0502 -0.2408 -0.0028
 1299TIP3    H125532   4.421   3.406   7.993  3.3777 -2.4713  2.1877
 1299TIP3    H225533   4.468   3.496   8.106 -0.1855  2.6496 -0.0275
 1300TIP3   OH225534   4.476   5.309   7.284 -0.6105  0.2929  0.1182
 1300TIP3    H125535   4.500   5.331   7.374  0.6352 -0.8091  0.0845
 1300TIP3    H225536   4.525   5.371   7.230  0.2062 -0.3163  0.1442
 1301TIP3   OH225537   1.515   5.641   1.537 -0.0994  0.2452 -0.2825
 1301TIP3    H125538   1.589   5.609   1.588  0.3154 -0.8511 -1.5173
 1301TIP3    H225539   1.468   5.562   1.510 -2.2974  0.9448  1.2396
 1302TIP3   OH225540   4.890   5.355   0.648  0.6141  0.4889 -0.3550
 1302TIP3    H125541   4.875   5.387   0.559  1.9769 -0.8045 -1.0859
 1302TIP3    H225542   4.887   5.434   0.702  3.6498  1.9510 -2.0497
 1303TIP3   OH225543   4.655   5.818   1.361  0.4390  0.4949 -0.8523
 1303TIP3    H125544   4.582   5.825   1.299  0.9439  0.3432 -1.4777
 1303TIP3    H225545   4.729   5.859   1.315  0.9377 -0.0482 -0.5425
 1304TIP3   OH225546   6.180   1.651   8.389 -0.1884  0.3669 -0.4673
 1304TIP3    H125547   6.154   1.568   8.428  0.4545  0.7220  0.7654
 1304TIP3    H225548   6.106   1.675   8.333 -1.4696  0.1482  1.0456
 1305TIP3   OH225549   0.450   2.624   0.313 -0.9588  0.0192 -0.6268
 1305TIP3    H125550   0.436   2.564   0.386 -1.0150  0.5044 -0.2340
 1305TIP3    H225551   0.545   2.631   0.305 -0.9106 -1.3175 -1.6773
 1306TIP3   OH225552   1.561   6.180   8.557  0.0152 -0.4552  0.2019
 1306TIP3    H125553   1.556   6.239   8.482  1.4285  0.9660  1.1794
 1306TIP3    H225554   1.536   6.233   8.632 -0.7254 -1.6814  0.8666
 1307TIP3   OH225555   3.010   5.693   0.219 -0.2344 -0.2373  0.1138
 1307TIP3    H125556   3.017   5.602   0.245  1.1685  0.1905  1.3408
 1307TIP3    H225557   2.921   5.719   0.244 -1.1595 -1.6051 -1.5465
 1308TIP3   OH225558   4.554   5.220   1.302 -0.5365 -0.0150  0.2512
 1308TIP3    H125559   4.613   5.154   1.340  0.2452 -0.2395 -1.2675
 1308TIP3    H225560   4.593   5.304   1.328  0.6336 -0.1602 -0.9344
 1309TIP3   OH225561   5.076   0.551   0.040  0.1985  0.3290  0.0916
 1309TIP3    H125562   5.030   0.562   0.124 -1.1607 -2.1305 -0.2062
 1309TIP3    H225563   5.012   0.576  -0.026  0.0358 -0.9414 -0.2646
 1310TIP3   OH225564   2.242   6.859   7.849  0.1491  0.3045  0.6713
 1310TIP3    H125565   2.298   6.864   7.926  0.2880 -0.2630  0.6149
 1310TIP3    H225566   2.167   6.807   7.878  0.7226 -0.8702  0.1274
 1311TIP3   OH225567   2.758   5.733   0.527  0.2565  0.2850  0.1789
 1311TIP3    H125568   2.772   5.788   0.450  0.1105 -0.3451 -0.3091
 1311TIP3    H225569   2.728   5.794   0.595 -2.3263  0.5100 -1.0381
 1312TIP3   OH225570   6.001   5.821   0.358  0.3051  0.5316 -0.3234
 1312TIP3    H125571   5.985   5.877   0.282  0.3910  0.3253 -0.4974
 1312TIP3    H225572   5.920   5.772   0.370  0.5290  0.0468 -0.7269
 1313TIP3   OH225573   1.162   1.618   0.439 -0.6342 -0.2925  0.7524
 1313TIP3    H125574   1.161   1.713   0.440 -1.4219 -0.2956  1.5181
 1313TIP3    H225575   1.141   1.594   0.349 -0.7704  0.2593  0.6381
 1314TIP3   OH225576   3.614   6.723   6.996 -0.7261 -0.1604  0.1796
 1314TIP3    H125577   3.679   6.780   7.037 -1.3749  0.9418 -0.2644
 1314TIP3    H225578   3.571   6.779   6.931 -1.6905 -1.0379  0.0317
 1315TIP3   OH225579   4.288   3.461   0.497  1.2536 -0.4842 -0.0744
 1315TIP3    H125580   4.332   3.444   0.414 -1.1111 -2.4139 -1.0518
 1315TIP3    H225581   4.304   3.383   0.550  2.2142  0.4677  1.1386
 1316TIP3   OH225582   5.262   4.131   0.204  0.1822 -0.0621  1.3722
 1316TIP3    H125583   5.328   4.201   0.197 -0.4434  0.5419  1.4490
 1316TIP3    H225584   5.185   4.175   0.240 -1.1285 -0.1709 -1.1114
 1317TIP3   OH225585   1.432   3.635   8.066  0.0196 -0.1678 -0.0676
 1317TIP3    H125586   1.364   3.694   8.097  1.1634  0.8835  0.5275
 1317TIP3    H225587   1.433   3.648   7.971 -1.3557 -1.0438 -0.2214
 1318TIP3   OH225588   4.906   1.704   0.148  0.1838  0.0432 -0.0569
 1318TIP3    H125589   4.865   1.787   0.124  0.3255  0.6669  1.7374
 1318TIP3    H225590   4.978   1.694   0.085 -1.0186  0.2652 -1.5375
 1319TIP3   OH225591   6.627   4.024   6.423  0.0192 -0.5775 -0.2919
 1319TIP3    H125592   6.558   4.068   6.374  0.0327 -1.5350 -1.2097
 1319TIP3    H225593   6.649   3.947   6.370  0.2033 -1.5273  1.1000
 1320TIP3   OH225594   3.804   0.654   7.524 -0.2061  0.1730 -0.4827
 1320TIP3    H125595   3.710   0.636   7.527 -0.1309 -0.1622  0.1362
 1320TIP3    H225596   3.837   0.604   7.450 -0.3283 -0.6762  0.0218
 1321TIP3   OH225597   2.481   6.907   0.443  0.0623 -0.1010 -0.4008
 1321TIP3    H125598   2.477   6.847   0.517  1.7714 -1.3664 -1.2394
 1321TIP3    H225599   2.399   6.892   0.396 -0.6675  0.1114  0.7595
 1322TIP3   OH225600   3.462   4.118   0.430  0.3332  0.4595  0.3078
 1322TIP3    H125601   3.518   4.120   0.508  1.3047  1.1711 -0.3822
 1322TIP3    H225602   3.410   4.198   0.436 -1.2979 -0.6147  1.3924
 1323TIP3   OH225603   3.811   2.541   8.192 -0.0707  0.7008 -0.3645
 1323TIP3    H125604   3.795   2.448   8.183  0.5568  0.4230  1.1185
 1323TIP3    H225605   3.874   2.562   8.123  0.2395 -0.0826 -0.3181
 1324TIP3   OH225606   1.032   5.666   0.619  0.5135  0.3035 -0.1068
 1324TIP3    H125607   1.000   5.576   0.612 -0.2654  0.1464  3.4752
 1324TIP3    H225608   1.125   5.660   0.598  0.2852 -1.1183 -0.8813
 1325TIP3   OH225609   1.232   1.535   0.871 -0.1550 -0.0921  0.1392
 1325TIP3    H125610   1.163   1.596   0.845 -0.6383  0.1152  1.7650
 1325TIP3    H225611   1.201   1.450   0.842 -1.0977  0.0049  0.8424
 1326TIP3   OH225612   6.172   6.486   0.807 -0.2614  0.3996 -0.5094
 1326TIP3    H125613   6.241   6.427   0.777  0.8521 -1.5404  4.7158
 1326TIP3    H225614   6.219   6.563   0.839 -0.8300  0.4654  0.1910
 1327TIP3   OH225615   1.225   3.930   1.052 -0.2699  0.1084 -0.5222
 1327TIP3    H125616   1.286   3.859   1.073  0.4337  0.4074 -1.4550
 1327TIP3    H225617   1.282   4.006   1.036 -1.0562  1.7812  3.3917
 1328TIP3   OH225618   6.722   2.073   1.145 -0.1657 -0.2271 -0.3222
 1328TIP3    H125619   6.690   2.138   1.209  0.8925  0.5655 -0.5772
 1328TIP3    H225620   6.727   2.121   1.063 -3.1115 -1.6525 -1.4777
 1329TIP3   OH225621   5.832   4.879   8.662 -0.1233 -0.6485  0.1090
 1329TIP3    H125622   5.918   4.920   8.659  0.1754 -1.3046 -1.2353
 1329TIP3    H225623   5.843   4.804   8.720 -0.1765  0.0732  1.0693
 1330TIP3   OH225624   5.503   5.226   0.401 -0.7346  0.3436 -0.0570
 1330TIP3    H125625   5.434   5.290   0.417 -0.5151  0.7683 -0.7701
 1330TIP3    H225626   5.467   5.169   0.333  0.0934  1.3342 -1.3512
 1331TIP3   OH225627   2.585   2.538   0.647  0.1181 -0.6246  0.1966
 1331TIP3    H125628   2.579   2.445   0.666  1.6650 -0.8522 -0.3030
 1331TIP3    H225629   2.584   2.543   0.551  0.3815 -0.1579  0.2169
 1332TIP3   OH225630   0.550   1.474   6.201 -0.2928 -0.4157  0.5086
 1332TIP3    H125631   0.462   1.512   6.190  0.0902  0.1162 -0.8887
 1332TIP3    H225632   0.534   1.380   6.209 -0.9939 -0.3522  0.0006
 1333TIP3   OH225633   2.356   1.536   0.922  0.3040  0.7070  0.5565
 1333TIP3    H125634   2.305   1.542   0.841  0.7030 -1.0376  0.1358
 1333TIP3    H225635   2.290   1.536   0.992 -0.2895 -1.0695  0.0468
 1334TIP3   OH225636   3.558   3.298   6.280 -0.0031 -0.7508 -0.7781
 1334TIP3    H125637   3.629   3.239   6.304 -0.5515 -1.0161  0.2425
 1334TIP3    H225638   3.602   3.380   6.258  0.5588 -0.0104  2.5012
 1335TIP3   OH225639   6.426   1.962   1.073 -0.7449 -0.3332 -0.4822
 1335TIP3    H125640   6.486   1.889   1.086 -1.5021 -1.0435 -0.8595
 1335TIP3    H225641   6.359   1.928   1.014 -0.8957  0.8000 -0.9915
 1336TIP3   OH225642   0.464   5.052   1.401  0.0798 -0.2139  0.1824
 1336TIP3    H125643   0.532   5.099   1.352 -1.0356  0.5005 -0.7512
 1336TIP3    H225644   0.460   5.097   1.486 -0.1188  0.6122 -0.2492
 1337TIP3   OH225645   0.676   1.398   7.080  0.1162 -0.1562  0.0871
 1337TIP3    H125646   0.631   1.464   7.027  1.5033  0.2419 -0.6405
 1337TIP3    H225647   0.661   1.426   7.170  0.3983  0.9799 -0.2024
 1338TIP3   OH225648   4.449   5.828   8.302  0.0697  0.3715  0.7625
 1338TIP3    H125649   4.529   5.809   8.350 -0.0911 -0.0951  0.8455
 1338TIP3    H225650   4.464   5.792   8.215 -0.3392 -0.3890  0.9999
 1339TIP3   OH225651   1.400   2.880   1.601 -0.4210  0.4247  0.0588
 1339TIP3    H125652   1.308   2.908   1.601 -0.7317 -0.4176  2.3636
 1339TIP3    H225653   1.445   2.947   1.653  0.6003  1.5837 -2.1723
 1340TIP3   OH225654   1.425   1.425   6.126 -0.0016  0.8533 -0.1146
 1340TIP3    H125655   1.365   1.439   6.053  0.4642  3.3022 -0.1048
 1340TIP3    H225656   1.504   1.471   6.101  1.7703 -1.8320  0.1317
 1341TIP3   OH225657   3.443   5.070   8.157 -0.4691  0.2631 -0.3680
 1341TIP3    H125658   3.359   5.058   8.112 -1.8034 -0.7102  2.1366
 1341TIP3    H225659   3.423   5.128   8.231  1.0175 -0.0726  0.3482
 1342TIP3   OH225660   5.369   4.355   7.802 -0.0938  0.0230  0.5422
 1342TIP3    H125661   5.341   4.406   7.878  0.8131  1.4210 -0.0351
 1342TIP3    H225662   5.430   4.411   7.755  1.4179 -1.8045  0.1675
 1343TIP3   OH225663   1.685   4.984   1.417 -0.0284  0.0867  0.2720
 1343TIP3    H125664   1.685   5.079   1.421 -0.3830  0.1081 -0.1520
 1343TIP3    H225665   1.635   4.963   1.338 -1.5663 -0.4725  1.3331
 1344TIP3   OH225666   3.424   4.883   7.339  0.8764 -0.0754 -0.9505
 1344TIP3    H125667   3.332   4.895   7.316  0.4841 -0.4782  0.3112
 1344TIP3    H225668   3.464   4.845   7.261 -0.6570 -2.5257 -0.6702
 1345TIP3   OH225669   1.665   3.376   2.581  0.2264  0.0669  0.2504
 1345TIP3    H125670   1.667   3.458   2.531 -1.1373  0.6417  1.0873
 1345TIP3    H225671   1.608   3.319   2.529  0.4382 -0.0464  0.1386
 1346TIP3   OH225672   1.494   4.424   7.150  0.3745 -0.3276  0.2551
 1346TIP3    H125673   1.444   4.499   7.118  2.0926  1.3832  1.3283
 1346TIP3    H225674   1.447   4.348   7.118 -1.4974  1.2028 -0.8357
 1347TIP3   OH225675   6.558   3.768   6.660 -0.4154 -0.2145  0.1955
 1347TIP3    H125676   6.466   3.765   6.633 -0.4602  1.7246 -0.0164
 1347TIP3    H225677   6.554   3.787   6.754 -0.2070 -3.0364  0.8753
 1348TIP3   OH225678   2.658   5.475   7.734 -0.2122  0.0637 -0.1763
 1348TIP3    H125679   2.599   5.517   7.671 -0.5125 -0.3156 -0.1543
 1348TIP3    H225680   2.602   5.454   7.809  0.0802  0.2444  0.0945
 1349TIP3   OH225681   3.924   5.195   1.599 -0.5857  0.1775 -0.1574
 1349TIP3    H125682   3.895   5.113   1.559 -0.6557 -0.6543  1.4828
 1349TIP3    H225683   3.861   5.211   1.669 -0.4301  1.5141 -0.3096
 1350TIP3   OH225684   4.043   0.293   6.854  0.5674 -0.4486 -0.0775
 1350TIP3    H125685   3.993   0.354   6.800 -0.3617 -0.1033  1.1481
 1350TIP3    H225686   4.130   0.334   6.862 -0.2458  1.1514  1.3376
 1351TIP3   OH225687   3.907   4.831   7.968 -0.1732 -0.1926 -0.1093
 1351TIP3    H125688   3.924   4.774   8.043 -0.0761 -1.1117 -0.8062
 1351TIP3    H225689   3.922   4.775   7.892  0.1937  0.8518 -0.8286
 1352TIP3   OH225690   1.240   4.481   8.077 -0.0908  0.3238 -0.0308
 1352TIP3    H125691   1.261   4.497   7.985 -0.6246 -1.1947 -0.4503
 1352TIP3    H225692   1.250   4.566   8.119 -0.8481  1.2825 -1.6853
 1353TIP3   OH225693   3.197   5.888   0.164 -0.0320 -0.0835  0.7416
 1353TIP3    H125694   3.123   5.843   0.204  0.5881 -0.1142  1.8992
 1353TIP3    H225695   3.207   5.968   0.215 -1.3804  1.6651 -1.5465
 1354TIP3   OH225696   0.178   1.039   7.370 -0.3207 -0.5871 -0.2312
 1354TIP3    H125697   0.133   0.956   7.384 -2.2098  0.3672 -0.3691
 1354TIP3    H225698   0.249   1.039   7.436 -1.9654 -1.1301  1.6407
 1355TIP3   OH225699   6.306   4.101   1.660  0.1213  0.5360  0.1649
 1355TIP3    H125700   6.274   4.114   1.571 -0.0773  0.6021  0.2441
 1355TIP3    H225701   6.229   4.070   1.708  0.3146  0.1482  0.2323
 1356TIP3   OH225702   5.393   5.612   1.581 -0.0741  0.5696  0.1032
 1356TIP3    H125703   5.397   5.594   1.487 -1.1865 -0.4733  0.2248
 1356TIP3    H225704   5.303   5.639   1.597 -0.6564 -1.7170  1.2131
 1357TIP3   OH225705   5.177   5.012   0.245 -0.6052 -0.0880 -0.4262
 1357TIP3    H125706   5.133   5.096   0.256 -0.5275  0.1194 -1.5986
 1357TIP3    H225707   5.270   5.032   0.248 -0.5257 -0.5524  2.2437
 1358TIP3   OH225708   4.528   5.440   7.994  0.0866 -0.1225  0.8479
 1358TIP3    H125709   4.575   5.388   8.058  1.7567  0.9710  0.5823
 1358TIP3    H225710   4.463   5.489   8.045 -0.1995 -1.0039  1.3450
 1359TIP3   OH225711   5.280   5.300   2.052 -0.0849  0.3348 -0.0025
 1359TIP3    H125712   5.363   5.299   2.004 -1.0804 -0.1241 -1.8337
 1359TIP3    H225713   5.304   5.283   2.143  1.6415 -2.9241 -0.8979
 1360TIP3   OH225714   1.875   1.933   0.858 -0.1463  0.5312 -0.1367
 1360TIP3    H125715   1.801   1.995   0.862  0.1525  0.8548  0.4449
 1360TIP3    H225716   1.934   1.962   0.927  1.3300  1.2940 -1.6455
 1361TIP3   OH225717   0.120   6.818   8.249  0.3989  0.8421 -0.4724
 1361TIP3    H125718   0.152   6.733   8.219 -1.4045  0.8749 -2.7648
 1361TIP3    H225719   0.027   6.803   8.267  0.4056  1.9863  0.5743
 1362TIP3   OH225720   2.426   0.385   0.633 -0.8208 -0.6920  0.3752
 1362TIP3    H125721   2.436   0.480   0.627  0.2712 -0.8089 -0.0060
 1362TIP3    H225722   2.390   0.370   0.720  0.3763 -0.0057  1.0277
 1363TIP3   OH225723   6.185   4.401   1.257  0.2595  0.3927  0.3085
 1363TIP3    H125724   6.236   4.470   1.301  1.4354 -0.6376  0.6367
 1363TIP3    H225725   6.250   4.356   1.202 -0.2989 -0.9570  0.7299
 1364TIP3   OH225726   6.603   6.679   0.144 -0.1064 -0.3354  0.2266
 1364TIP3    H125727   6.658   6.615   0.187  0.5041  0.0638  0.0507
 1364TIP3    H225728   6.587   6.643   0.057  2.1814  0.7895 -0.7385
 1365TIP3   OH225729   4.924   1.280   7.875  0.1551 -0.1009 -0.2618
 1365TIP3    H125730   5.014   1.257   7.853  0.4168  1.3512 -0.8282
 1365TIP3    H225731   4.920   1.269   7.970  0.6550 -1.0354 -0.3359
 1366TIP3   OH225732   3.826   3.195   6.907  0.0315 -0.1399  0.6853
 1366TIP3    H125733   3.819   3.227   6.817 -0.5566 -0.9915  0.4179
 1366TIP3    H225734   3.781   3.111   6.907  1.1496 -0.7757  1.4756
 1367TIP3   OH225735   2.789   2.723   2.454  0.9753 -0.1788  0.1066
 1367TIP3    H125736   2.757   2.803   2.412 -1.6827 -1.1199  0.1125
 1367TIP3    H225737   2.845   2.683   2.388  1.0194  0.8725 -0.5314
 1368TIP3   OH225738   5.800   4.297   7.512 -0.2596 -0.1500  0.0570
 1368TIP3    H125739   5.768   4.214   7.476 -1.8609  1.0153 -1.3995
 1368TIP3    H225740   5.816   4.352   7.435  0.2974  1.0622  1.0007
 1369TIP3   OH225741   4.522   5.394   0.713  0.6998 -0.0514  0.5859
 1369TIP3    H125742   4.552   5.479   0.681 -1.8975  0.4318 -0.8687
 1369TIP3    H225743   4.455   5.415   0.778  0.3454 -0.9627  0.5309
 1370TIP3   OH225744   5.707   4.500   0.346 -0.0169  0.0389  0.0754
 1370TIP3    H125745   5.665   4.468   0.266 -2.1925  1.6424  0.4645
 1370TIP3    H225746   5.679   4.592   0.352  0.8589  0.2098  2.1701
 1371TIP3   OH225747   2.655   5.112   7.578 -0.5173 -0.2371  0.3324
 1371TIP3    H125748   2.714   5.060   7.524 -2.0806 -0.9632 -0.7668
 1371TIP3    H225749   2.711   5.151   7.645  1.1701 -0.9113 -0.6340
 1372TIP3   OH225750   3.786   4.384   1.274 -0.3783 -0.0821  0.2570
 1372TIP3    H125751   3.877   4.358   1.291 -0.5228  0.8826  2.9791
 1372TIP3    H225752   3.735   4.306   1.294 -0.2695 -0.0144  0.8302
 1373TIP3   OH225753   4.936   3.431   7.033  0.8901 -0.1061 -0.6632
 1373TIP3    H125754   5.010   3.483   7.065  1.2523 -0.6544 -0.5980
 1373TIP3    H225755   4.950   3.344   7.070 -1.5299  0.5273  2.1261
 1374TIP3   OH225756   5.958   4.938   7.615  0.3475 -0.2369  0.0465
 1374TIP3    H125757   5.879   4.933   7.668 -0.1069 -2.0040 -0.7438
 1374TIP3    H225758   5.930   4.915   7.527  1.7431 -0.9833 -0.2344
 1375TIP3   OH225759   2.510   5.311   0.598 -0.2625 -0.0133 -0.0845
 1375TIP3    H125760   2.600   5.326   0.569  0.1235 -2.0686 -0.1527
 1375TIP3    H225761   2.466   5.276   0.520 -1.8652  3.2066 -0.7763
 1376TIP3   OH225762   4.189   6.241   7.060 -0.3085 -0.4861 -0.0303
 1376TIP3    H125763   4.217   6.192   6.983 -1.2553 -0.5427 -0.3569
 1376TIP3    H225764   4.127   6.306   7.025  0.8918  0.9567  0.3814
 1377TIP3   OH225765   1.987   0.546   1.812  0.3572 -0.7225  0.1287
 1377TIP3    H125766   1.945   0.626   1.842 -0.0421 -0.9141  0.0905
 1377TIP3    H225767   2.080   0.563   1.821  0.4883  0.9864 -2.9072
 1378TIP3   OH225768   1.117   2.684   7.973 -0.4509 -0.1292 -0.2790
 1378TIP3    H125769   1.208   2.682   7.943 -0.4243 -0.5731 -0.1745
 1378TIP3    H225770   1.110   2.610   8.033 -0.3926  0.9707  1.1438
 1379TIP3   OH225771   0.390   2.543   8.089 -0.1986  0.0325  0.0688
 1379TIP3    H125772   0.381   2.448   8.096  1.8671 -0.1321  1.7459
 1379TIP3    H225773   0.448   2.557   8.014  0.7998 -0.1901  0.7694
 1380TIP3   OH225774   4.664   2.272   7.947 -0.0301  0.3436  0.7161
 1380TIP3    H125775   4.727   2.230   8.005  0.1147  0.8630  0.9399
 1380TIP3    H225776   4.580   2.261   7.991 -0.2807 -1.2718 -0.0815
 1381TIP3   OH225777   0.642   5.775   1.528  0.1134  0.9753  0.3697
 1381TIP3    H125778   0.570   5.764   1.589  0.4005  0.4392  0.6163
 1381TIP3    H225779   0.619   5.853   1.477 -0.9552  0.4170 -0.0068
 1382TIP3   OH225780   5.658   2.147   7.764  0.2921 -0.0984 -0.5407
 1382TIP3    H125781   5.619   2.215   7.819  2.2973 -0.6931  1.8263
 1382TIP3    H225782   5.746   2.180   7.744  1.0018 -1.5615 -0.0250
 1383TIP3   OH225783   4.835   1.935   0.044 -0.4702 -0.0239  0.4362
 1383TIP3    H125784   4.783   1.976  -0.026 -0.7605  0.3313  0.8561
 1383TIP3    H225785   4.823   1.993   0.119 -0.1471 -0.4002  0.7774
 1384TIP3   OH225786   3.298   5.567   6.468 -0.7231  0.4964  0.0091
 1384TIP3    H125787   3.348   5.619   6.532  1.2890  1.1127 -1.9327
 1384TIP3    H225788   3.251   5.632   6.416  0.7945  0.3866 -1.6069
 1385TIP3   OH225789   3.645   1.313   0.022  0.1735  0.3969 -0.1889
 1385TIP3    H125790   3.627   1.237   0.077 -0.5334 -0.0398 -0.9826
 1385TIP3    H225791   3.737   1.334   0.037 -0.1690  0.7276  1.6676
 1386TIP3   OH225792   4.266   3.402   2.028 -0.6131  0.0216  0.5626
 1386TIP3    H125793   4.276   3.376   1.937  1.5561 -0.5150  0.8937
 1386TIP3    H225794   4.200   3.341   2.063  0.0863 -1.1807 -0.1352
 1387TIP3   OH225795   3.247   4.058   8.562  0.6619  0.2504 -0.1803
 1387TIP3    H125796   3.162   4.100   8.550 -0.3015 -1.4233  0.3971
 1387TIP3    H225797   3.294   4.075   8.481  0.2505  2.1899 -0.0663
 1388TIP3   OH225798   0.804   6.559   0.667  0.2558  0.0301 -0.5342
 1388TIP3    H125799   0.826   6.481   0.719  0.6743 -0.5263 -1.5199
 1388TIP3    H225800   0.760   6.524   0.590 -1.3292  0.9236 -0.0667
 1389TIP3   OH225801   3.394   0.555   2.900  0.4948 -0.4537  0.0034
 1389TIP3    H125802   3.422   0.628   2.954  0.1389 -0.9358  0.8494
 1389TIP3    H225803   3.406   0.586   2.810  3.4786 -0.5010  0.2599
 1390TIP3   OH225804   2.645   3.340   6.498  0.0116  0.0751 -0.0888
 1390TIP3    H125805   2.715   3.278   6.479  0.7767  0.4818  1.2813
 1390TIP3    H225806   2.566   3.286   6.501  0.4354 -0.5804 -0.4551
 1391TIP3   OH225807   4.102   3.998   0.682 -0.2125 -0.5882  0.1715
 1391TIP3    H125808   4.049   4.040   0.749  0.8434  3.1164 -1.1023
 1391TIP3    H225809   4.039   3.968   0.617 -0.9751 -0.5482  0.8706
 1392TIP3   OH225810   0.930   2.293   8.276 -0.4058  0.1014  0.4365
 1392TIP3    H125811   0.849   2.325   8.315  0.5011  2.7654  0.3550
 1392TIP3    H225812   0.960   2.224   8.335 -2.6656 -0.9298  0.4664
 1393TIP3   OH225813   4.729   0.088   7.849 -0.2125  0.0581  0.2656
 1393TIP3    H125814   4.785   0.090   7.927 -1.4083  2.6137  1.1753
 1393TIP3    H225815   4.652   0.140   7.874 -0.3724  1.4785 -2.7948
 1394TIP3   OH225816   2.454   0.725   1.009 -0.2217 -0.4075 -1.0057
 1394TIP3    H125817   2.376   0.689   1.051 -0.5460  1.5797  0.2302
 1394TIP3    H225818   2.429   0.814   0.986  1.6656  0.2501 -0.6438
 1395TIP3   OH225819   2.387   6.836   8.073  0.6143  0.1423  0.1403
 1395TIP3    H125820   2.349   6.887   8.145  1.0375 -0.0732  0.5214
 1395TIP3    H225821   2.406   6.751   8.112 -1.3859 -0.8148 -0.8337
 1396TIP3   OH225822   6.423   0.268   1.610  0.2958 -0.0554  0.2138
 1396TIP3    H125823   6.409   0.249   1.517 -0.1454 -0.3031  0.3252
 1396TIP3    H225824   6.353   0.220   1.654 -0.6466  1.5388  0.5478
 1397TIP3   OH225825   5.774   2.740   1.378  0.2138  0.3076  0.6703
 1397TIP3    H125826   5.763   2.706   1.467  0.9618 -0.4718  0.4842
 1397TIP3    H225827   5.789   2.662   1.325 -0.4497  0.7524 -0.1784
 1398TIP3   OH225828   6.373   2.391   1.771  0.1876 -0.0815  0.6548
 1398TIP3    H125829   6.347   2.300   1.758  0.8737 -0.0615 -1.2413
 1398TIP3    H225830   6.429   2.390   1.849  1.1970 -1.5176 -0.0405
 1399TIP3   OH225831   4.046   5.018   7.710 -0.1936 -0.1918 -0.6255
 1399TIP3    H125832   4.102   5.084   7.671 -1.1051  0.0072 -1.6450
 1399TIP3    H225833   3.981   5.068   7.759  0.2480 -0.4091  0.2050
 1400TIP3   OH225834   4.270   5.092   7.274  0.1010 -0.6583 -0.1317
 1400TIP3    H125835   4.347   5.149   7.265  0.2363 -0.3728  2.1644
 1400TIP3    H225836   4.307   5.004   7.287  0.1601 -0.3347  2.2747
 1401TIP3   OH225837   2.086   4.800   8.651 -0.5541 -0.6297 -0.3042
 1401TIP3    H125838   2.087   4.706   8.633  0.5677 -0.5137 -0.9090
 1401TIP3    H225839   2.098   4.806   8.746 -0.5698 -1.0938 -0.2713
 1402TIP3   OH225840   1.072   0.616   0.282  0.1093 -0.4318  0.0452
 1402TIP3    H125841   1.079   0.566   0.363  1.1936 -0.7606 -0.2337
 1402TIP3    H225842   1.036   0.701   0.309  4.7653  1.3602  1.7679
 1403TIP3   OH225843   5.689   3.882   0.743  0.4444 -0.2707  0.4071
 1403TIP3    H125844   5.753   3.951   0.759  2.7814 -1.6467 -2.2032
 1403TIP3    H225845   5.727   3.804   0.784 -0.1594 -0.8624 -0.1444
 1404TIP3   OH225846   6.075   1.250   7.630 -0.6060 -0.5267 -0.5628
 1404TIP3    H125847   6.084   1.208   7.545  2.4980 -1.5143  0.0934
 1404TIP3    H225848   6.156   1.301   7.640 -1.5324  0.7297  1.2062
 1405TIP3   OH225849   3.394   0.376   8.010 -0.0189 -0.4935  0.6296
 1405TIP3    H125850   3.399   0.448   7.947 -0.0274 -0.9153  0.1344
 1405TIP3    H225851   3.481   0.373   8.050 -0.2778  0.3346  1.2764
 1406TIP3   OH225852   5.885   0.230   1.128  0.3924 -0.0706  0.6021
 1406TIP3    H125853   5.818   0.270   1.072  1.8304  0.7561 -0.5824
 1406TIP3    H225854   5.838   0.162   1.176 -1.1214 -0.0965 -0.8256
 1407TIP3   OH225855   1.167   0.936   8.020 -0.2809  0.1509 -0.2646
 1407TIP3    H125856   1.199   0.873   7.956  0.2604  1.3084 -1.1833
 1407TIP3    H225857   1.234   0.936   8.089 -1.3073 -1.7527  0.8073
 1408TIP3   OH225858   1.145   5.193   1.368 -0.0001  0.6907  0.2069
 1408TIP3    H125859   1.180   5.138   1.438  0.0912 -0.4134 -0.6792
 1408TIP3    H225860   1.112   5.132   1.303 -1.4430  1.6986 -0.0697
 1409TIP3   OH225861   6.822   6.028   1.885  0.3803 -0.0065 -0.6383
 1409TIP3    H125862   6.733   6.025   1.919  1.2322 -2.7060  1.7638
 1409TIP3    H225863   6.852   6.116   1.905 -1.5313  0.7715 -0.9674
 1410TIP3   OH225864   2.719   3.924   1.804 -0.3635 -0.3741 -0.2757
 1410TIP3    H125865   2.799   3.932   1.855 -0.9302 -1.0118  0.7598
 1410TIP3    H225866   2.651   3.964   1.859 -1.1065 -1.6822 -0.1760
 1411TIP3   OH225867   0.066   2.516   6.731 -0.4745 -0.9710  0.1163
 1411TIP3    H125868   0.124   2.586   6.760 -1.7745  0.7486 -1.1931
 1411TIP3    H225869   0.120   2.463   6.672  0.8043 -1.7234  1.8744
 1412TIP3   OH225870   2.203   6.030   0.467  0.3026  0.1317  0.1767
 1412TIP3    H125871   2.150   6.109   0.457  0.6741  0.6304  1.7514
 1412TIP3    H225872   2.165   5.967   0.406 -2.2940  0.3845  1.3943
 1413TIP3   OH225873   0.522   1.393   0.309  1.2021 -1.3500 -0.1193
 1413TIP3    H125874   0.494   1.412   0.219  0.8662 -0.6323  0.1318
 1413TIP3    H225875   0.450   1.425   0.363  1.5538 -1.4829  0.4262
 1414TIP3   OH225876   4.627   0.976   1.805 -0.2864 -0.0701  0.3613
 1414TIP3    H125877   4.599   0.939   1.721  1.4602 -0.3896 -0.1264
 1414TIP3    H225878   4.716   1.006   1.789 -0.0760  0.2594  1.9967
 1415TIP3   OH225879   3.174   0.965   2.113 -0.1190  0.3926  0.5925
 1415TIP3    H125880   3.151   1.057   2.128  0.4225  0.6912 -0.3237
 1415TIP3    H225881   3.257   0.969   2.065 -1.6086 -0.4724 -2.2737
 1416TIP3   OH225882   3.486   1.199   7.147 -0.5522  0.2172 -0.1862
 1416TIP3    H125883   3.566   1.226   7.103  0.8165 -1.4465  1.0954
 1416TIP3    H225884   3.502   1.107   7.172 -1.7852  0.5934  2.4097
 1417TIP3   OH225885   3.410   4.918   0.621 -0.1524 -0.0112  0.7506
 1417TIP3    H125886   3.417   4.984   0.690  1.3380 -0.6599  1.2539
 1417TIP3    H225887   3.490   4.928   0.569 -0.0879 -1.1323  0.5966
 1418TIP3   OH225888   5.771   4.792   2.219 -0.1149 -0.2873 -0.1405
 1418TIP3    H125889   5.758   4.809   2.126  0.6432  0.0673 -0.1845
 1418TIP3    H225890   5.862   4.766   2.227  0.0131  0.3171  0.5831
 1419TIP3   OH225891   1.230   0.726   0.104  0.2526  0.6337 -0.1878
 1419TIP3    H125892   1.173   0.771   0.042 -0.9735  0.4597  0.7673
 1419TIP3    H225893   1.172   0.665   0.150  1.0235  1.0298  1.3946
 1420TIP3   OH225894   3.783   3.623   7.890 -0.2202 -0.7201  0.7848
 1420TIP3    H125895   3.776   3.620   7.795 -2.9658  0.1400  0.8671
 1420TIP3    H225896   3.812   3.535   7.915  1.3332 -0.7219 -0.8492
 1421TIP3   OH225897   5.395   3.700   8.559  0.6035  0.3393 -0.1015
 1421TIP3    H125898   5.321   3.647   8.588  1.0816  0.0887  0.7208
 1421TIP3    H225899   5.366   3.741   8.478 -0.7181  0.8743  0.6314
 1422TIP3   OH225900   5.367   1.735   0.358  0.0527  0.3816  0.3406
 1422TIP3    H125901   5.390   1.695   0.442 -1.1847 -0.0949  0.4694
 1422TIP3    H225902   5.286   1.783   0.376 -2.5327 -2.8889 -1.3458
 1423TIP3   OH225903   5.567   2.573   6.045  0.2745  0.1596 -0.0234
 1423TIP3    H125904   5.606   2.561   6.132 -2.0219  1.0962  1.2382
 1423TIP3    H225905   5.484   2.525   6.050 -0.2936  0.9548 -1.3931
 1424TIP3   OH225906   4.823   1.534   2.681 -0.2954  0.0390  0.8314
 1424TIP3    H125907   4.729   1.523   2.667 -0.3041  1.1889 -0.1645
 1424TIP3    H225908   4.830   1.616   2.731  0.1891  0.1396  0.6033
 1425TIP3   OH225909   1.765   3.361   7.256 -0.4443 -0.8166  0.7843
 1425TIP3    H125910   1.808   3.372   7.171 -0.5413 -0.4500  0.7813
 1425TIP3    H225911   1.835   3.370   7.320 -0.3218 -1.3761  0.7351
 1426TIP3   OH225912   3.645   6.779   0.631 -0.0205 -0.5803  0.1753
 1426TIP3    H125913   3.646   6.825   0.714  1.7190  0.5641 -0.4401
 1426TIP3    H225914   3.615   6.844   0.567 -0.6311 -1.2333 -0.2226
 1427TIP3   OH225915   6.764   1.167   8.582 -0.0675  0.2285  0.1425
 1427TIP3    H125916   6.731   1.180   8.671 -0.0849  0.3038  0.1252
 1427TIP3    H225917   6.685   1.164   8.527  0.0090  1.7148 -0.0737
 1428TIP3   OH225918   4.510   1.872   2.248 -0.3771  0.9718  0.0693
 1428TIP3    H125919   4.507   1.952   2.195 -0.8981  0.9244  0.0217
 1428TIP3    H225920   4.466   1.896   2.330 -0.3319  0.8001  0.1428
 1429TIP3   OH225921   2.643   2.747   2.015  0.0465  0.0961 -0.3824
 1429TIP3    H125922   2.619   2.835   1.987  2.1351  0.4246 -1.3468
 1429TIP3    H225923   2.682   2.759   2.102  2.3747  0.5374 -1.4021
 1430TIP3   OH225924   0.345   0.504   6.578  0.4046 -0.7481 -0.9697
 1430TIP3    H125925   0.380   0.587   6.546  1.2005 -0.6362  0.1475
 1430TIP3    H225926   0.329   0.453   6.499  0.9928  0.0406 -1.6159
 1431TIP3   OH225927   3.759   4.499   8.500  0.1730  0.0565  0.3306
 1431TIP3    H125928   3.818   4.572   8.520 -0.6151  0.9059 -0.3795
 1431TIP3    H225929   3.671   4.536   8.507 -0.3867  1.0167 -5.8441
 1432TIP3   OH225930   6.775   1.303   0.654 -0.5427  0.9919  0.0268
 1432TIP3    H125931   6.741   1.218   0.681  1.1309  0.4899  0.7101
 1432TIP3    H225932   6.697   1.357   0.639 -1.6142  0.0901  2.0308
 1433TIP3   OH225933   0.891   5.643   0.927 -0.0578 -0.3266  0.0955
 1433TIP3    H125934   0.891   5.711   0.994  0.3687  1.4401 -1.6036
 1433TIP3    H225935   0.978   5.605   0.931 -0.3922 -1.0411  1.2515
 1434TIP3   OH225936   3.458   4.344   2.447  0.6119  0.0141  0.0301
 1434TIP3    H125937   3.399   4.271   2.468  0.4106  0.2479  0.2933
 1434TIP3    H225938   3.437   4.411   2.512  1.6044 -0.1327  0.5086
 1435TIP3   OH225939   0.335   6.385   7.363 -0.3563  1.1777  0.1691
 1435TIP3    H125940   0.325   6.318   7.432 -0.6650 -0.6118 -1.5227
 1435TIP3    H225941   0.386   6.454   7.405  0.9785 -0.6152  1.6977
 1436TIP3   OH225942   3.515   3.704   7.951 -0.2824 -0.3514 -0.3884
 1436TIP3    H125943   3.468   3.646   7.891 -1.0355  1.2210 -1.3655
 1436TIP3    H225944   3.605   3.704   7.918 -0.3015 -0.8486 -0.4511
 1437TIP3   OH225945   4.224   3.916   2.128  0.6037  0.4247 -0.2501
 1437TIP3    H125946   4.184   3.977   2.189  1.9228  0.1815  0.8946
 1437TIP3    H225947   4.176   3.834   2.141  1.8304 -0.0533  1.5908
 1438TIP3   OH225948   4.997   4.014   7.973  0.1269 -0.0177 -0.1603
 1438TIP3    H125949   5.058   4.050   8.038  0.0195 -0.5657  0.2614
 1438TIP3    H225950   5.027   3.924   7.961 -1.1902 -0.6258  0.8200
 1439TIP3   OH225951   0.072   5.490   0.788  0.1469  0.0176 -0.1690
 1439TIP3    H125952   0.051   5.424   0.855  1.7977 -2.0422 -1.5493
 1439TIP3    H225953   0.165   5.479   0.772 -0.3395 -0.1663 -3.3674
 1440TIP3   OH225954   3.705   4.621   0.712  0.4334 -0.8187  0.6856
 1440TIP3    H125955   3.731   4.712   0.692 -0.7445 -0.6807 -0.4169
 1440TIP3    H225956   3.669   4.625   0.800  1.8232 -0.5409  1.2639
 1441TIP3   OH225957   4.996   3.951   0.856  0.1772 -0.0435 -0.2475
 1441TIP3    H125958   4.945   4.016   0.904  1.5708 -0.2555  1.6406
 1441TIP3    H225959   4.933   3.884   0.830 -0.9437  1.0782 -0.4908
 1442TIP3   OH225960   2.149   2.521   7.254 -0.1464  0.0232  0.1152
 1442TIP3    H125961   2.069   2.558   7.216  0.0068  0.7990  0.5243
 1442TIP3    H225962   2.140   2.535   7.348  1.2511  1.7804  0.0503
 1443TIP3   OH225963   0.592   1.896   0.996  0.7895 -0.0823  0.5303
 1443TIP3    H125964   0.638   1.830   1.048  0.0080 -0.3722  0.8718
 1443TIP3    H225965   0.602   1.977   1.046  1.1082 -0.0948  0.4908
 1444TIP3   OH225966   3.206   2.158   0.009  0.0881  0.1519  0.0624
 1444TIP3    H125967   3.214   2.228   0.074  2.1340  0.2610 -0.2180
 1444TIP3    H225968   3.209   2.077   0.059 -1.9540  0.2302  0.3621
 1445TIP3   OH225969   0.104   3.195   1.699 -0.1217 -0.4046  0.1703
 1445TIP3    H125970   0.059   3.161   1.776  0.4338 -1.1710  0.1592
 1445TIP3    H225971   0.159   3.123   1.669 -0.4930 -0.1879 -1.0758
 1446TIP3   OH225972   6.323   0.769   0.580  0.2568  0.6890 -0.1427
 1446TIP3    H125973   6.347   0.839   0.640 -0.3307 -0.3439  1.3312
 1446TIP3    H225974   6.228   0.762   0.587  0.2248  0.2598 -0.8710
 1447TIP3   OH225975   3.652   6.033   2.447 -0.1015 -0.2716  0.6181
 1447TIP3    H125976   3.598   5.981   2.506 -1.0153 -0.3167 -0.2505
 1447TIP3    H225977   3.620   6.123   2.458 -0.5523 -0.3402 -0.1052
 1448TIP3   OH225978   4.981   3.863   0.380  0.1279 -0.2313  0.4960
 1448TIP3    H125979   5.011   3.781   0.418  0.7441 -0.3000 -0.1166
 1448TIP3    H225980   4.988   3.927   0.452  0.2303 -0.5837  0.7995
 1449TIP3   OH225981   5.257   4.174   0.671 -0.1871 -0.2717 -0.0556
 1449TIP3    H125982   5.268   4.105   0.605 -0.7139  1.1031 -1.6616
 1449TIP3    H225983   5.322   4.154   0.737 -0.3691 -2.3381 -0.4279
 1450TIP3   OH225984   5.282   3.640   6.201 -0.1159  0.1551 -0.4699
 1450TIP3    H125985   5.266   3.551   6.232  0.4706  0.1963 -0.0271
 1450TIP3    H225986   5.376   3.652   6.213  0.0078  0.4173 -1.6415
 1451TIP3   OH225987   3.275   1.483   7.841 -0.1068  0.5931 -0.2204
 1451TIP3    H125988   3.195   1.435   7.823  1.0499 -1.1287 -1.0653
 1451TIP3    H225989   3.255   1.573   7.816 -2.0848  0.4413  0.6319
 1452TIP3   OH225990   0.347   3.839   1.099  0.4524 -0.1028  0.2956
 1452TIP3    H125991   0.271   3.859   1.046 -0.5957  0.1341  1.8216
 1452TIP3    H225992   0.342   3.744   1.113  0.1480 -0.0186  0.7922
 1453TIP3   OH225993   3.716   4.359   0.793 -0.4767 -0.0627 -0.1395
 1453TIP3    H125994   3.734   4.403   0.876  1.6225 -1.8700  0.4693
 1453TIP3    H225995   3.684   4.428   0.736  2.6408  2.3330  0.7340
 1454TIP3   OH225996   2.954   3.643   1.036  0.3814 -0.4670 -0.4349
 1454TIP3    H125997   2.878   3.618   0.983  0.5227 -0.0566 -0.8388
 1454TIP3    H225998   2.993   3.560   1.063  0.9951 -0.7088 -1.9639
 1455TIP3   OH225999   3.083   4.561   0.005  0.2575  0.4448 -0.0251
 1455TIP3    H126000   3.031   4.641   0.008  0.0041  0.3502 -1.1809
 1455TIP3    H226001   3.169   4.590  -0.024  0.9982  0.6521  2.2527
 1456TIP3   OH226002   1.294   3.269   1.105 -0.2832  0.0441  0.1482
 1456TIP3    H126003   1.272   3.339   1.166 -1.8896 -2.1149  2.2102
 1456TIP3    H226004   1.354   3.213   1.153  0.0370 -0.6743 -1.0305
 1457TIP3   OH226005   3.312   3.800   8.486 -0.0974  0.0786  0.7669
 1457TIP3    H126006   3.289   3.882   8.529  0.5771 -0.6788  2.6965
 1457TIP3    H226007   3.301   3.818   8.393 -0.2093  2.2697  1.1417
 1458TIP3   OH226008   2.073   6.832   0.309  0.0999  0.1210  0.1959
 1458TIP3    H126009   2.020   6.911   0.305 -2.3641 -1.4613 -0.9697
 1458TIP3    H226010   2.098   6.815   0.218 -0.4686 -1.0700  0.2350
 1459TIP3   OH226011   4.914   5.470   2.415  0.1289  0.0485  0.4580
 1459TIP3    H126012   4.842   5.533   2.402 -1.8654 -2.0324  0.7212
 1459TIP3    H226013   4.955   5.497   2.497  0.2722  1.8150 -0.1494
 1460TIP3   OH226014   1.984   6.699   2.410  0.1057  0.3835  0.9464
 1460TIP3    H126015   2.022   6.651   2.483  0.8638 -1.2381 -0.4648
 1460TIP3    H226016   2.058   6.740   2.366 -0.0719 -0.4166 -0.1396
 1461TIP3   OH226017   6.368   0.533   1.471  0.2360  0.8164 -0.8199
 1461TIP3    H126018   6.364   0.624   1.441  0.0223  0.6939 -1.1653
 1461TIP3    H226019   6.320   0.484   1.405 -1.2297  0.6850  0.2915
 1462TIP3   OH226020   3.996   5.721   1.226 -0.1522 -0.7023  0.4209
 1462TIP3    H126021   3.992   5.739   1.132 -1.1148  1.1430  0.7523
 1462TIP3    H226022   4.072   5.769   1.257 -0.1652 -0.8377  0.6688
 1463TIP3   OH226023   0.846   0.213   2.197 -0.4427  0.5472  0.3387
 1463TIP3    H126024   0.941   0.228   2.196 -0.1941 -0.7648  1.6324
 1463TIP3    H226025   0.811   0.280   2.138  1.4622 -0.1737 -1.7627
 1464TIP3   OH226026   0.990   0.384   2.411 -0.2308  0.1222  0.3129
 1464TIP3    H126027   0.960   0.383   2.501  2.0306  1.9459  1.1962
 1464TIP3    H226028   0.927   0.440   2.365  0.5653  2.2973  1.6754
 1465TIP3   OH226029   0.389   0.368   0.505 -0.7366 -0.3617 -0.0006
 1465TIP3    H126030   0.481   0.351   0.484 -0.0724 -2.0194  3.5043
 1465TIP3    H226031   0.340   0.317   0.440  0.6948  1.2253 -2.4725
 1466TIP3   OH226032   5.416   2.666   8.295 -0.0173 -0.0315  0.2695
 1466TIP3    H126033   5.484   2.599   8.294 -0.7660 -0.9606 -3.8518
 1466TIP3    H226034   5.335   2.618   8.310 -0.5139 -0.1499 -2.3314
 1467TIP3   OH226035   3.742   4.093   7.757  0.7326  0.0578  0.0468
 1467TIP3    H126036   3.663   4.096   7.703  1.0415  1.1517 -0.3636
 1467TIP3    H226037   3.716   4.132   7.840  1.7175  4.0206 -1.3132
 1468TIP3   OH226038   0.218   6.395   2.531 -0.5494 -0.0268  0.7042
 1468TIP3    H126039   0.253   6.342   2.459 -2.4829 -1.1405  0.5191
 1468TIP3    H226040   0.268   6.367   2.608  0.1685 -0.2630  0.1641
 1469TIP3   OH226041   4.951   3.078   6.824 -0.5012  0.1356  0.0326
 1469TIP3    H126042   4.971   3.139   6.753 -0.6686 -0.3518 -0.4338
 1469TIP3    H226043   4.987   2.994   6.795  0.1530  0.1103  0.8827
 1470TIP3   OH226044   6.102   0.447   0.522 -0.0404  0.2171 -0.1860
 1470TIP3    H126045   6.164   0.387   0.564 -1.4804 -0.5472  0.9620
 1470TIP3    H226046   6.019   0.400   0.525 -1.5927  2.7731  2.0865
 1471TIP3   OH226047   0.445   6.190   7.540  0.3943 -0.0764  0.0604
 1471TIP3    H126048   0.537   6.203   7.561  0.2194  0.3397  0.5856
 1471TIP3    H226049   0.412   6.132   7.608  0.4708 -0.9435 -0.6247
 1472TIP3   OH226050   4.167   4.362   2.151 -0.0822  0.1810 -0.1663
 1472TIP3    H126051   4.231   4.327   2.214  0.7069  1.1326 -0.4165
 1472TIP3    H226052   4.096   4.298   2.151  1.0148 -1.0760 -0.1143
 1473TIP3   OH226053   0.331   2.462   1.253 -0.5933 -0.4653  0.4428
 1473TIP3    H126054   0.271   2.532   1.280  1.1332  1.0603  0.5013
 1473TIP3    H226055   0.392   2.505   1.193  0.5171 -1.9423  0.4736
 1474TIP3   OH226056   5.475   1.766   7.799  0.4151  0.2979  0.0498
 1474TIP3    H126057   5.464   1.723   7.884 -1.1393  1.2791  0.3672
 1474TIP3    H226058   5.449   1.699   7.736  1.0466 -0.2502  0.3478
 1475TIP3   OH226059   6.306   4.559   7.356 -0.1475  0.2466 -0.4306
 1475TIP3    H126060   6.348   4.532   7.438 -1.8816  0.2206  0.5032
 1475TIP3    H226061   6.375   4.604   7.308  1.5483 -1.7108  0.0226
 1476TIP3   OH226062   3.699   1.729   0.631  0.0887 -0.1573  0.2042
 1476TIP3    H126063   3.754   1.755   0.557 -1.1913 -1.4427 -1.2555
 1476TIP3    H226064   3.754   1.670   0.682  0.9507  0.6619  0.2589
 1477TIP3   OH226065   4.239   2.165   7.709  0.0535  0.2487 -0.1051
 1477TIP3    H126066   4.163   2.184   7.764  2.3465  1.0689  3.0983
 1477TIP3    H226067   4.238   2.070   7.698 -0.8377  0.1383  0.8120
 1478TIP3   OH226068   2.215   4.845   6.700  0.4785 -0.2457 -0.1744
 1478TIP3    H126069   2.121   4.834   6.714  0.2675 -0.6164 -1.7054
 1478TIP3    H226070   2.221   4.916   6.636  1.3312  0.7962  1.0170
 1479TIP3   OH226071   1.051   4.093   6.895  0.6319  0.0856  0.0665
 1479TIP3    H126072   1.076   4.179   6.861  1.1772 -0.1783 -0.2285
 1479TIP3    H226073   0.957   4.087   6.880  0.6636  0.4652 -0.3048
 1480TIP3   OH226074   0.696   4.672   1.157 -0.0745 -0.0573  0.3508
 1480TIP3    H126075   0.684   4.707   1.068 -0.3889 -1.1734 -0.0664
 1480TIP3    H226076   0.651   4.735   1.213  2.3253  2.0972  0.0590
 1481TIP3   OH226077   2.868   2.768   8.637 -0.2742 -0.1590 -0.4145
 1481TIP3    H126078   2.814   2.689   8.633  1.0219 -1.2854  2.0418
 1481TIP3    H226079   2.821   2.827   8.695  0.0026 -0.1837 -0.1642
 1482TIP3   OH226080   2.478   4.216   7.581 -0.1956  0.1444 -0.0255
 1482TIP3    H126081   2.419   4.210   7.656  0.6476  0.4191  0.6845
 1482TIP3    H226082   2.426   4.256   7.512 -0.5437  1.3688  0.9107
 1483TIP3   OH226083   4.539   4.132   2.418  0.0233  0.0261 -0.0895
 1483TIP3    H126084   4.457   4.179   2.406 -0.2480 -0.5213 -0.4233
 1483TIP3    H226085   4.607   4.196   2.395 -0.3287  0.3412 -0.2649
 1484TIP3   OH226086   3.447   5.944   1.159  0.4901 -0.1704 -0.6243
 1484TIP3    H126087   3.377   5.892   1.198  1.0413 -1.4318 -1.2526
 1484TIP3    H226088   3.405   5.992   1.088  0.3446 -1.3081 -1.3256
 1485TIP3   OH226089   6.327   0.198   6.920 -0.2655  0.1130 -0.0167
 1485TIP3    H126090   6.284   0.122   6.882 -0.4753 -0.4396  1.2729
 1485TIP3    H226091   6.420   0.176   6.918 -0.2666  0.1337 -0.3072
 1486TIP3   OH226092   5.968   5.804   1.748 -0.9526 -0.0759  0.0730
 1486TIP3    H126093   5.971   5.851   1.831 -2.5252  0.4279 -0.1267
 1486TIP3    H226094   6.060   5.794   1.722 -0.4588  0.0542  1.6875
 1487TIP3   OH226095   5.645   0.836   8.310  1.4242  0.1537  0.1071
 1487TIP3    H126096   5.714   0.778   8.279  1.0346 -0.4089  0.2696
 1487TIP3    H226097   5.583   0.842   8.238  1.5562  0.5236  0.0219
 1488TIP3   OH226098   0.857   0.129   7.197  0.5191 -0.7801 -0.4592
 1488TIP3    H126099   0.792   0.119   7.266  2.5852 -1.8946  1.4751
 1488TIP3    H226100   0.838   0.214   7.158 -0.8355 -0.1871  1.3628
 1489TIP3   OH226101   1.836   2.017   6.224 -0.3233  0.4585 -0.0004
 1489TIP3    H126102   1.909   1.970   6.262 -1.5800  0.2995  2.4086
 1489TIP3    H226103   1.769   1.950   6.209 -0.3234  0.7298 -1.3810
 1490TIP3   OH226104   1.815   6.275   0.855 -0.0299  0.2388 -0.0922
 1490TIP3    H126105   1.736   6.330   0.861 -0.3451 -0.2590  0.3930
 1490TIP3    H226106   1.792   6.207   0.791  0.0568  0.1773 -0.0577
 1491TIP3   OH226107   4.066   4.073   2.297  0.5027 -0.1799  0.2386
 1491TIP3    H126108   4.002   4.047   2.363 -1.6704  0.6853 -1.4010
 1491TIP3    H226109   4.015   4.117   2.229  2.8802  0.7037 -1.1248
 1492TIP3   OH226110   3.384   4.339   8.329 -0.3554  0.0836 -0.1386
 1492TIP3    H126111   3.357   4.309   8.243 -1.6366 -1.1902  0.6590
 1492TIP3    H226112   3.428   4.263   8.368 -2.5233 -0.4478  1.4510
 1493TIP3   OH226113   6.618   0.511   1.973  0.2646  0.5625 -0.7018
 1493TIP3    H126114   6.693   0.502   2.033 -1.2102  0.9961  1.3040
 1493TIP3    H226115   6.633   0.444   1.906  1.5233 -0.6063  0.6765
 1494TIP3   OH226116   3.939   0.172   7.963  0.6417  0.3126 -0.5469
 1494TIP3    H126117   3.927   0.263   7.934  1.8042  0.3814 -0.8505
 1494TIP3    H226118   4.005   0.177   8.032 -0.9649 -0.0512  1.0803
 1495TIP3   OH226119   4.449   1.079   1.161 -0.3155 -0.2273  0.0218
 1495TIP3    H126120   4.410   1.107   1.244  2.0703 -1.7911  1.8029
 1495TIP3    H226121   4.480   1.159   1.121 -1.7253  0.5869  0.4728
 1496TIP3   OH226122   1.122   2.903   1.609  0.1972  0.4285  0.1225
 1496TIP3    H126123   1.143   2.981   1.557  0.5110  1.3424  1.5532
 1496TIP3    H226124   1.084   2.842   1.546 -0.5534  1.9365 -0.9557
 1497TIP3   OH226125   1.138   2.592   8.489 -0.2401 -0.1379  0.5815
 1497TIP3    H126126   1.204   2.560   8.550 -0.8468 -1.8462  0.4006
 1497TIP3    H226127   1.179   2.583   8.403  0.7409  2.5803  0.6786
 1498TIP3   OH226128   4.829   0.931   7.677 -0.2538  0.7308  0.3048
 1498TIP3    H126129   4.766   0.965   7.614 -1.7693 -0.6615  1.0021
 1498TIP3    H226130   4.825   0.993   7.750 -1.5247  0.1674  0.7362
 1499TIP3   OH226131   4.520   6.541   0.742  0.0258  0.3989  0.3211
 1499TIP3    H126132   4.438   6.529   0.789 -0.4932 -0.2264 -0.7203
 1499TIP3    H226133   4.506   6.619   0.688 -0.2585 -0.2642 -0.5946
 1500TIP3   OH226134   1.473   5.932   8.668 -0.1466  0.0994 -0.0517
 1500TIP3    H126135   1.444   5.910   8.580 -1.3579 -1.2026  0.6414
 1500TIP3    H226136   1.488   6.027   8.665 -2.4125  0.4867 -1.0507
 1501TIP3   OH226137   0.832   1.013   1.753  0.0601 -0.0064  0.1773
 1501TIP3    H126138   0.898   0.997   1.685 -0.0641  0.9019 -0.1725
 1501TIP3    H226139   0.880   1.054   1.825 -0.2115  1.2379 -0.3278
 1502TIP3   OH226140   2.391   6.634   7.749 -0.4951 -0.7121 -1.1415
 1502TIP3    H126141   2.361   6.544   7.765 -1.6898 -0.5041 -2.0434
 1502TIP3    H226142   2.312   6.687   7.757  0.4035  0.4492  0.6120
 1503TIP3   OH226143   3.100   3.363   0.072 -0.3893 -0.2137 -0.2295
 1503TIP3    H126144   3.018   3.401   0.040  0.8898  1.7005 -1.5402
 1503TIP3    H226145   3.137   3.318  -0.004 -1.0344 -2.7540  0.8484
 1504TIP3   OH226146   1.230   3.828   2.610 -0.1421 -0.1381  0.0217
 1504TIP3    H126147   1.171   3.762   2.575 -0.8653 -0.2306  1.3612
 1504TIP3    H226148   1.316   3.786   2.609 -0.0530  0.0242 -1.9959
 1505TIP3   OH226149   1.921   6.587   0.310 -0.3815  0.1277  0.3520
 1505TIP3    H126150   2.015   6.601   0.306 -0.5002  1.5189  1.6246
 1505TIP3    H226151   1.885   6.670   0.342 -2.2004  0.1197 -1.4755
 1506TIP3   OH226152   2.730   5.980   0.634  0.5011 -0.2566  0.1896
 1506TIP3    H126153   2.789   6.024   0.694  0.9525  2.1526 -1.8564
 1506TIP3    H226154   2.663   6.045   0.614 -0.9790 -1.8014 -0.1291
 1507TIP3   OH226155   2.970   6.415   2.070  0.3404 -0.1742 -0.7934
 1507TIP3    H126156   2.991   6.405   1.977 -0.4401 -0.6463 -0.9353
 1507TIP3    H226157   2.879   6.446   2.070  0.1134 -0.8070 -0.1841
 1508TIP3   OH226158   0.174   5.064   7.727  0.1495  1.0435 -0.5812
 1508TIP3    H126159   0.127   5.093   7.805  0.7903 -0.9969  0.6322
 1508TIP3    H226160   0.158   5.133   7.663  0.2218  3.1748  1.5524
 1509TIP3   OH226161   3.774   3.295   7.155 -0.4897  0.3812  0.0743
 1509TIP3    H126162   3.800   3.385   7.173 -2.2782  1.4752 -2.3029
 1509TIP3    H226163   3.809   3.277   7.067 -0.0849 -1.3074  0.5383
 1510TIP3   OH226164   1.335   4.772   0.286  0.0427 -0.4012  0.6845
 1510TIP3    H126165   1.316   4.684   0.253 -0.5868 -0.3043  0.7669
 1510TIP3    H226166   1.283   4.830   0.230  1.0457 -0.0132  0.1378
 1511TIP3   OH226167   2.087   6.054   0.028 -0.1337 -0.2965  0.2940
 1511TIP3    H126168   2.107   5.979  -0.028 -1.5879  0.3859 -1.2168
 1511TIP3    H226169   2.172   6.090   0.051  0.5292 -1.1346 -0.7349
 1512TIP3   OH226170   6.264   3.324   2.322 -0.0838 -0.1796 -0.2231
 1512TIP3    H126171   6.280   3.410   2.359  0.1156 -0.4229  0.2676
 1512TIP3    H226172   6.315   3.264   2.377  0.3835 -0.5283 -1.0113
 1513TIP3   OH226173   0.233   0.787   7.213 -0.8650 -0.3440  0.1428
 1513TIP3    H126174   0.288   0.810   7.288 -1.3749 -0.8837  0.6966
 1513TIP3    H226175   0.221   0.692   7.221 -0.1168 -0.5626 -1.1796
 1514TIP3   OH226176   5.070   5.719   2.129 -0.1471 -0.0425  0.0125
 1514TIP3    H126177   5.070   5.814   2.139 -0.0718 -0.2291  2.0184
 1514TIP3    H226178   5.129   5.687   2.197 -0.3751 -1.5483 -0.4651
 1515TIP3   OH226179   6.111   1.181   7.361  0.5243  0.2782  0.0370
 1515TIP3    H126180   6.019   1.163   7.345  0.4706  0.7850 -0.2322
 1515TIP3    H226181   6.157   1.138   7.288  0.5961 -0.9308  0.7683
 1516TIP3   OH226182   3.181   4.162   0.641  0.4775  0.3310 -0.1916
 1516TIP3    H126183   3.265   4.175   0.685  1.1234  0.0429 -1.2758
 1516TIP3    H226184   3.175   4.234   0.578  1.4792 -1.3479 -2.3636
 1517TIP3   OH226185   6.497   0.763   0.289 -0.4139 -0.3880 -0.0825
 1517TIP3    H126186   6.469   0.714   0.211  0.7680 -2.2022  0.5662
 1517TIP3    H226187   6.436   0.736   0.357 -0.2472 -0.3255  0.0918
 1518TIP3   OH226188   6.234   3.649   7.024  0.5633  0.4887 -0.5355
 1518TIP3    H126189   6.227   3.739   7.055 -1.5889 -0.4491  2.2699
 1518TIP3    H226190   6.301   3.609   7.080 -1.8795 -0.6981  1.8491
 1519TIP3   OH226191   5.524   2.001   1.646  0.2939 -0.0448  0.3572
 1519TIP3    H126192   5.485   1.980   1.731 -1.5670  0.7068 -0.2432
 1519TIP3    H226193   5.618   2.004   1.662  0.1261 -1.7212  1.9735
 1520TIP3   OH226194   3.729   6.041   0.165 -0.4468 -0.9829 -0.0832
 1520TIP3    H126195   3.733   5.947   0.144  1.6696 -0.6579 -1.5009
 1520TIP3    H226196   3.739   6.085   0.080 -0.8733  0.5438  0.6216
 1521TIP3   OH226197   0.243   2.005   1.295 -0.5959  0.1957  0.6595
 1521TIP3    H126198   0.313   1.940   1.299 -1.4199 -0.7133  0.7247
 1521TIP3    H226199   0.166   1.959   1.329 -1.0705  1.3899  1.2447
 1522TIP3   OH226200   4.606   4.429   1.589  0.0985  0.2286 -0.3384
 1522TIP3    H126201   4.577   4.355   1.643 -0.5839  1.1825  0.6178
 1522TIP3    H226202   4.657   4.387   1.519  1.0804 -1.0552  1.0479
 1523TIP3   OH226203   0.893   2.588   0.016 -0.1616 -0.1136  0.5102
 1523TIP3    H126204   0.962   2.588  -0.050  1.8796 -0.2249  2.4928
 1523TIP3    H226205   0.862   2.679   0.019 -0.3756 -0.1349 -0.6439
 1524TIP3   OH226206   4.785   0.929   8.359  0.0618 -0.2365 -0.5697
 1524TIP3    H126207   4.743   0.954   8.441  1.9750  0.2812  0.3125
 1524TIP3    H226208   4.715   0.933   8.294 -1.0311  1.5931  0.6120
 1525TIP3   OH226209   0.038   2.001   0.715 -0.1205  0.0603  0.8088
 1525TIP3    H126210   0.074   2.035   0.797  1.2854  0.8740 -0.0949
 1525TIP3    H226211   0.094   1.927   0.693 -1.7819 -1.5117  1.6034
 1526TIP3   OH226212   3.871   5.150   1.059  0.3999  0.2280 -0.0476
 1526TIP3    H126213   3.865   5.235   1.016 -0.8312 -0.2574 -0.8970
 1526TIP3    H226214   3.965   5.135   1.069  0.6670  1.1519 -0.9966
 1527TIP3   OH226215   3.828   2.133   7.356  0.2036 -0.0816  0.2548
 1527TIP3    H126216   3.808   2.051   7.311 -0.1212  0.7430 -1.1568
 1527TIP3    H226217   3.832   2.199   7.286 -1.3601  1.4433  1.5042
 1528TIP3   OH226218   6.462   1.917   7.867  0.1866 -0.5083  0.0832
 1528TIP3    H126219   6.491   1.857   7.935 -0.6734 -0.9972  0.0422
 1528TIP3    H226220   6.470   1.867   7.785 -2.1715 -1.2601  0.2187
 1529TIP3   OH226221   3.765   6.382   7.782 -0.2104  0.1718 -0.1375
 1529TIP3    H126222   3.701   6.319   7.813 -0.7878  0.4115 -0.8085
 1529TIP3    H226223   3.719   6.432   7.714  0.7437  0.2055 -0.7885
 1530TIP3   OH226224   5.671   5.873   2.294  0.2421 -0.2543  0.0305
 1530TIP3    H126225   5.621   5.793   2.315  0.2671 -0.3207 -0.1569
 1530TIP3    H226226   5.609   5.926   2.243  0.7458 -0.8614 -1.2539
 1531TIP3   OH226227   3.097   0.728   7.669 -0.0628  0.1070 -0.1286
 1531TIP3    H126228   3.030   0.788   7.700  0.5758  0.1414  1.2177
 1531TIP3    H226229   3.142   0.776   7.599 -1.2226  0.1887 -0.8535
 1532TIP3   OH226230   5.361   5.850   0.721  0.5369 -0.3098  0.1002
 1532TIP3    H126231   5.300   5.922   0.705 -1.1800 -1.4528  1.2197
 1532TIP3    H226232   5.428   5.888   0.778 -1.2342  0.0421  2.0560
 1533TIP3   OH226233   3.973   2.897   1.482  0.1686  0.3312  0.2659
 1533TIP3    H126234   4.028   2.955   1.535 -0.0178  2.1152 -1.4150
 1533TIP3    H226235   3.899   2.876   1.540  0.5016  1.3360  1.0868
 1534TIP3   OH226236   5.190   1.804   7.877 -0.1963 -0.6245 -0.1740
 1534TIP3    H126237   5.282   1.831   7.870  0.0086 -0.8718  1.2916
 1534TIP3    H226238   5.146   1.852   7.806  0.6808  1.2251  0.4650
 1535TIP3   OH226239   4.902   2.866   7.771  0.5849  0.3800  0.0748
 1535TIP3    H126240   4.857   2.919   7.705 -0.5803  0.3894  0.8464
 1535TIP3    H226241   4.834   2.807   7.804  1.0073  0.7426  1.6383
 1536TIP3   OH226242   0.533   0.133   7.876  0.5282 -0.4479 -0.3077
 1536TIP3    H126243   0.481   0.213   7.865  0.2293 -0.6880 -0.6954
 1536TIP3    H226244   0.545   0.125   7.970  0.0855 -0.2450 -0.2305
 1537TIP3   OH226245   6.281   3.067   0.960 -0.1542 -0.2743  0.3608
 1537TIP3    H126246   6.189   3.040   0.956 -0.5104  0.6270  1.9503
 1537TIP3    H226247   6.312   3.034   1.044  0.3579  1.2454  0.7954
 1538TIP3   OH226248   4.695   2.015   8.495  0.1127  0.3890 -0.3974
 1538TIP3    H126249   4.710   1.958   8.419 -0.2167 -1.0397  0.5642
 1538TIP3    H226250   4.610   2.056   8.479  0.6998  1.2486 -1.4625
 1539TIP3   OH226251   3.749   4.745   1.653 -0.2078 -0.0517 -0.8580
 1539TIP3    H126252   3.667   4.728   1.700  1.4722 -1.8692  1.6373
 1539TIP3    H226253   3.735   4.705   1.567 -1.3745 -1.8373  0.0977
 1540TIP3   OH226254   4.031   0.690   1.903 -0.1460  0.2226  0.1189
 1540TIP3    H126255   4.054   0.649   1.986  0.5719 -1.3291 -0.8044
 1540TIP3    H226256   4.105   0.671   1.845 -1.0547  0.4246 -1.1605
 1541TIP3   OH226257   3.073   6.615   7.474 -0.2103  0.4743  0.1312
 1541TIP3    H126258   3.053   6.667   7.552  1.2544  2.4670 -0.7365
 1541TIP3    H226259   3.024   6.656   7.404 -1.3138 -1.1543 -0.1026
 1542TIP3   OH226260   4.207   1.070   0.905  0.5772  0.8176 -0.1407
 1542TIP3    H126261   4.277   1.072   0.970  1.6412 -2.1099 -1.0426
 1542TIP3    H226262   4.131   1.034   0.952  1.4640 -1.7094 -0.4815
 1543TIP3   OH226263   3.735   3.586   8.555  0.1382 -0.0978 -0.2372
 1543TIP3    H126264   3.808   3.647   8.541  0.7975 -0.5733  0.9258
 1543TIP3    H226265   3.708   3.560   8.467  0.6249  0.9544 -0.7173
 1544TIP3   OH226266   1.904   4.367   0.180 -0.2454  0.1202  0.0646
 1544TIP3    H126267   1.983   4.363   0.126 -0.6765  0.5295 -0.6106
 1544TIP3    H226268   1.875   4.458   0.174 -1.0949 -0.1559 -0.1934
 1545TIP3   OH226269   1.921   0.050   6.536 -0.5836  0.0313 -0.0681
 1545TIP3    H126270   1.996   0.099   6.569 -1.2778  1.1255 -0.0563
 1545TIP3    H226271   1.952  -0.040   6.530  0.7863  0.4901 -0.2516
 1546TIP3   OH226272   0.625   3.459   2.400  0.0018 -0.6795 -0.1942
 1546TIP3    H126273   0.706   3.499   2.368  0.6344 -1.2910  0.6227
 1546TIP3    H226274   0.556   3.503   2.350  0.7641  0.4953 -0.2527
 1547TIP3   OH226275   2.316   5.172   7.856 -0.1196  0.0761 -0.3111
 1547TIP3    H126276   2.300   5.267   7.858  1.0415  0.3511 -2.1392
 1547TIP3    H226277   2.348   5.152   7.944 -0.0157  1.4481 -0.0053
 1548TIP3   OH226278   6.405   6.651   0.352 -0.0307  0.3668  0.8665
 1548TIP3    H126279   6.451   6.651   0.268 -1.1150  0.3052  0.2593
 1548TIP3    H226280   6.330   6.708   0.338  0.8658  2.0526  2.4262
 1549TIP3   OH226281   1.725   4.010   8.553 -0.6311 -0.2916 -0.8327
 1549TIP3    H126282   1.665   4.077   8.521 -0.0472  0.5949 -0.1335
 1549TIP3    H226283   1.717   4.014   8.649  1.2777  0.6102 -0.6506
 1550TIP3   OH226284   0.630   0.445   8.230  0.0127  0.4733 -0.0115
 1550TIP3    H126285   0.560   0.476   8.172 -1.7471 -0.2156  1.6276
 1550TIP3    H226286   0.623   0.501   8.308  0.1645 -0.6896  0.8600
 1551TIP3   OH226287   3.494   4.044   1.368 -0.4476 -0.2257 -0.5610
 1551TIP3    H126288   3.481   4.091   1.451 -3.2742 -0.1882 -0.9117
 1551TIP3    H226289   3.574   4.081   1.331  0.7072  0.0085  1.9566
 1552TIP3   OH226290   0.089   1.311   0.169 -0.0839 -0.2915  0.1035
 1552TIP3    H126291   0.131   1.227   0.184  0.1897 -0.3491 -0.9672
 1552TIP3    H226292   0.048   1.332   0.253 -1.8167 -2.4047 -0.1197
 1553TIP3   OH226293   1.667   4.109   0.813  0.1404  0.1194 -0.5581
 1553TIP3    H126294   1.614   4.153   0.746 -0.2366 -0.4994 -0.6731
 1553TIP3    H226295   1.728   4.176   0.843 -0.0428  0.5561 -1.1436
 1554TIP3   OH226296   0.387   3.566   0.003  0.2640  0.7407 -0.0309
 1554TIP3    H126297   0.403   3.505   0.074 -0.1753  1.8201  1.0350
 1554TIP3    H226298   0.473   3.578  -0.039  0.7845  1.0017  1.0810
 1555TIP3   OH226299   1.463   0.643   0.431  0.1299 -0.2345  0.7518
 1555TIP3    H126300   1.512   0.703   0.488 -2.5500  0.9355  1.9713
 1555TIP3    H226301   1.376   0.638   0.470 -1.0139 -1.5928 -1.7438
 1556TIP3   OH226302   6.706   6.620   7.722 -0.4577  0.0746 -0.3135
 1556TIP3    H126303   6.711   6.611   7.817 -0.8254  0.1044 -0.2915
 1556TIP3    H226304   6.619   6.656   7.706 -0.7123 -0.7095 -0.7171
 1557TIP3   OH226305   2.527   5.583   1.226  0.1512  0.1161  0.1135
 1557TIP3    H126306   2.600   5.610   1.172 -0.0044  0.4371  0.0601
 1557TIP3    H226307   2.548   5.494   1.254 -0.1328 -0.3513 -1.1177
 1558TIP3   OH226308   3.004   6.827   1.135 -0.0664 -0.0993 -0.0681
 1558TIP3    H126309   3.095   6.812   1.161  0.2756 -0.7356 -1.4867
 1558TIP3    H226310   2.957   6.751   1.168 -0.0780  0.2047  0.6227
 1559TIP3   OH226311   4.052   3.188   8.465  0.0296  0.0802  0.3615
 1559TIP3    H126312   3.987   3.144   8.520 -2.4207 -0.7480 -2.9139
 1559TIP3    H226313   4.118   3.121   8.448 -2.2715 -1.6833 -2.3614
 1560TIP3   OH226314   5.618   5.199   8.403 -0.3971  0.0143 -0.7468
 1560TIP3    H126315   5.712   5.179   8.407  0.0732  2.1112  0.8739
 1560TIP3    H226316   5.588   5.157   8.323  1.6261 -1.8681 -0.6102
 1561TIP3   OH226317   5.900   5.841   8.285  0.9665 -0.1333 -0.2760
 1561TIP3    H126318   5.825   5.792   8.319 -0.4484  3.2276  2.0491
 1561TIP3    H226319   5.971   5.820   8.345  0.6549 -0.1230  0.1024
 1562TIP3   OH226320   1.949   3.787   7.083  0.3548 -0.0147  0.2732
 1562TIP3    H126321   2.034   3.749   7.108  1.8444  3.2175  0.6338
 1562TIP3    H226322   1.969   3.846   7.010 -1.7790  0.1547 -0.2463
 1563TIP3   OH226323   2.125   3.741   0.290  0.0909 -0.4561  0.3047
 1563TIP3    H126324   2.151   3.757   0.199  0.5994 -1.4078  0.2696
 1563TIP3    H226325   2.030   3.752   0.289  0.2166  0.6767 -0.0869
 1564TIP3   OH226326   3.946   5.456   8.438 -0.1672 -0.2192 -0.5362
 1564TIP3    H126327   3.911   5.421   8.357 -0.4876  0.6291 -0.7707
 1564TIP3    H226328   4.031   5.412   8.449 -1.2254 -2.2628  0.0225
 1565TIP3   OH226329   5.968   2.276   0.006  0.1046 -0.0076  0.5816
 1565TIP3    H126330   5.958   2.182   0.024 -3.9982  0.2283  0.6718
 1565TIP3    H226331   5.970   2.317   0.093  0.4780  0.0473  0.5453
 1566TIP3   OH226332   1.631   6.674   1.414  0.7946  0.0814 -0.0602
 1566TIP3    H126333   1.591   6.758   1.390  1.5739  1.0392  1.7909
 1566TIP3    H226334   1.579   6.609   1.367  0.0492  1.5730 -1.4088
 1567TIP3   OH226335   4.867   2.461   7.044 -0.1069 -0.1096 -0.1483
 1567TIP3    H126336   4.801   2.441   6.978 -1.4248  2.2616  0.3355
 1567TIP3    H226337   4.944   2.487   6.994 -0.5061 -0.0688 -0.7572
 1568TIP3   OH226338   6.742   6.370   7.139  0.5794  0.5708  0.2817
 1568TIP3    H126339   6.787   6.299   7.185  0.4602  0.2137 -0.1464
 1568TIP3    H226340   6.732   6.439   7.205  0.0926 -0.0708  0.8887
 1569TIP3   OH226341   5.676   3.441   6.961 -0.0392 -0.1388 -0.0595
 1569TIP3    H126342   5.767   3.414   6.969  0.5996  1.1571 -2.2164
 1569TIP3    H226343   5.647   3.405   6.877 -0.2201  2.6625 -1.3378
 1570TIP3   OH226344   4.492   6.891   0.924  0.4561 -0.1778 -0.0774
 1570TIP3    H126345   4.441   6.945   0.983  0.1461 -0.1998 -0.3206
 1570TIP3    H226346   4.431   6.822   0.896  0.5700 -0.1137 -0.4929
 1571TIP3   OH226347   6.679   3.102   1.033  0.1267  0.7424  0.6534
 1571TIP3    H126348   6.631   3.129   1.111 -0.3347  2.4036 -0.1639
 1571TIP3    H226349   6.752   3.163   1.028  1.0622 -0.3342  0.6097
 1572TIP3   OH226350   3.849   1.753   0.129  0.6308  0.2991  0.0182
 1572TIP3    H126351   3.794   1.737   0.052 -0.2556  3.5451 -0.1647
 1572TIP3    H226352   3.787   1.760   0.202  1.1581  0.5261  0.4498
 1573TIP3   OH226353   6.182   0.073   0.726  0.2140  0.2564 -0.2908
 1573TIP3    H126354   6.104   0.122   0.751 -0.9203 -1.3621 -0.5016
 1573TIP3    H226355   6.241   0.083   0.800  0.0942  2.0219 -0.3876
 1574TIP3   OH226356   4.390   4.437   6.372  0.1855  0.7199 -0.2753
 1574TIP3    H126357   4.300   4.434   6.405  0.5485  1.5336  0.8594
 1574TIP3    H226358   4.393   4.514   6.317  0.0172  0.3110 -0.8608
 1575TIP3   OH226359   5.679   4.169   8.090 -0.2259 -0.6701  0.1812
 1575TIP3    H126360   5.700   4.135   8.177  1.1654  0.9044  0.4946
 1575TIP3    H226361   5.764   4.179   8.047 -0.8665 -0.9846 -1.2023
 1576TIP3   OH226362   2.704   3.601   6.404 -0.3843 -0.2703  0.2506
 1576TIP3    H126363   2.676   3.524   6.455  0.1495 -0.6496 -0.0284
 1576TIP3    H226364   2.625   3.626   6.355 -0.1135 -1.6792 -0.9610
 1577TIP3   OH226365   4.870   0.613   0.237 -0.4068  0.1261 -0.5926
 1577TIP3    H126366   4.777   0.611   0.214 -0.4199  1.3122 -0.7102
 1577TIP3    H226367   4.874   0.571   0.323 -0.6599 -2.3439 -1.7031
 1578TIP3   OH226368   6.166   4.199   1.453 -0.9672  0.0938  0.5164
 1578TIP3    H126369   6.164   4.277   1.398 -3.1373  0.1531  0.5811
 1578TIP3    H226370   6.091   4.147   1.424 -0.0783 -1.5597  1.0608
 1579TIP3   OH226371   0.709   3.434   2.006  0.1947 -0.4884  0.1204
 1579TIP3    H126372   0.716   3.528   1.988  1.2903 -0.7595 -1.0767
 1579TIP3    H226373   0.716   3.393   1.919 -1.0111 -1.6555  0.5434
 1580TIP3   OH226374   3.811   5.499   1.189  0.0117  0.3835  0.5697
 1580TIP3    H126375   3.838   5.457   1.271 -0.4868 -0.0205  0.5336
 1580TIP3    H226376   3.863   5.579   1.185  0.1347  0.3453  1.2198
 1581TIP3   OH226377   2.270   4.286   1.752 -0.1487 -0.0856  0.5984
 1581TIP3    H126378   2.184   4.328   1.751 -1.0830 -1.8765  1.4582
 1581TIP3    H226379   2.320   4.334   1.817  0.0764  1.9599 -0.9878
 1582TIP3   OH226380   0.389   3.726   0.730  0.8117  0.4241 -0.4212
 1582TIP3    H126381   0.305   3.722   0.682  0.5480 -0.6654  0.1100
 1582TIP3    H226382   0.388   3.648   0.786  1.9532  0.6921 -0.0189
 1583TIP3   OH226383   0.352   3.386   7.084  0.4855 -0.3513  0.0579
 1583TIP3    H126384   0.259   3.398   7.100  0.1114 -2.1714 -0.5779
 1583TIP3    H226385   0.361   3.294   7.060  2.3643 -0.0645 -0.5027
 1584TIP3   OH226386   4.967   5.924   7.077 -0.1210 -0.2307 -0.3027
 1584TIP3    H126387   5.043   5.955   7.028 -0.1245 -1.2120 -0.9783
 1584TIP3    H226388   4.973   5.968   7.162 -0.1232  1.5523 -1.1714
 1585TIP3   OH226389   4.168   5.737   2.320  0.2326 -0.2628  0.0138
 1585TIP3    H126390   4.242   5.691   2.360 -1.3574 -0.6587  2.7863
 1585TIP3    H226391   4.176   5.827   2.352 -0.0946 -0.1398 -0.2495
 1586TIP3   OH226392   0.487   0.347   8.506  0.0877  0.2379  0.2983
 1586TIP3    H126393   0.399   0.385   8.499  0.2302  0.4451 -0.4528
 1586TIP3    H226394   0.530   0.401   8.572 -0.5063 -0.1880  1.0540
 1587TIP3   OH226395   3.737   0.462   0.832  0.7193 -0.5097  0.0981
 1587TIP3    H126396   3.735   0.415   0.915 -0.1997 -0.8210 -0.0967
 1587TIP3    H226397   3.695   0.402   0.770 -0.5790  0.5973 -0.1271
 1588TIP3   OH226398   6.728   4.334   0.741  0.2244  0.1601  0.3493
 1588TIP3    H126399   6.714   4.427   0.758  0.6473  0.2116  0.4376
 1588TIP3    H226400   6.642   4.294   0.750 -0.3012  0.7926 -1.3822
 1589TIP3   OH226401   3.683   5.938   8.437  0.2185 -0.4585  0.1676
 1589TIP3    H126402   3.757   5.881   8.458  0.9581  0.2045 -0.5444
 1589TIP3    H226403   3.697   5.962   8.345 -1.6925 -1.4785 -0.4423
 1590TIP3   OH226404   2.276   3.938   0.918 -0.2871 -0.1894 -0.1489
 1590TIP3    H126405   2.216   3.982   0.978  0.5585  2.4251 -1.0439
 1590TIP3    H226406   2.220   3.884   0.862 -1.5632  0.5436  0.3805
 1591TIP3   OH226407   6.116   3.446   1.924 -0.2869  0.4499 -0.2440
 1591TIP3    H126408   6.078   3.380   1.983 -0.2080  0.9332  0.3589
 1591TIP3    H226409   6.176   3.397   1.868  0.3719  0.1276  0.7269
 1592TIP3   OH226410   1.720   1.424   0.645 -0.0425 -0.2379  0.5663
 1592TIP3    H126411   1.655   1.376   0.697  1.2522  0.3752  2.8808
 1592TIP3    H226412   1.753   1.492   0.704  1.1450  0.8635 -1.2638
 1593TIP3   OH226413   5.267   5.878   6.613  0.2305  0.2072 -0.2911
 1593TIP3    H126414   5.188   5.927   6.636  0.4138  0.2059  0.3703
 1593TIP3    H226415   5.336   5.918   6.666  0.3202 -0.9642  0.5209
 1594TIP3   OH226416   5.793   6.185   0.901  0.2317 -0.3498  0.2685
 1594TIP3    H126417   5.762   6.271   0.930  1.0635  0.3650 -0.8926
 1594TIP3    H226418   5.826   6.144   0.981 -0.6616  0.1864  0.9318
 1595TIP3   OH226419   0.385   3.679   1.514 -0.1448  0.2958  0.0420
 1595TIP3    H126420   0.463   3.634   1.482 -0.0607 -0.4051  1.1883
 1595TIP3    H226421   0.345   3.618   1.575 -1.4927  0.7323 -0.3710
 1596TIP3   OH226422   5.896   4.118   1.453  0.0362  0.1162 -0.0371
 1596TIP3    H126423   5.819   4.073   1.419 -1.3768  0.8220  2.0505
 1596TIP3    H226424   5.941   4.053   1.506 -0.1954  0.2394  0.3128
 1597TIP3   OH226425   2.443   1.085   2.758 -0.1480  0.4022  0.4543
 1597TIP3    H126426   2.506   1.024   2.720 -2.7497 -2.1447 -0.0811
 1597TIP3    H226427   2.443   1.064   2.852  0.2799  0.9163  0.5765
 1598TIP3   OH226428   1.984   5.051   1.514 -0.2665 -0.1908  0.1718
 1598TIP3    H126429   2.011   5.077   1.603  1.3629  1.1629 -0.6498
 1598TIP3    H226430   1.889   5.043   1.519 -0.1312 -1.1642  2.2756
 1599TIP3   OH226431   4.889   3.200   1.724 -0.0866 -0.5743 -0.2761
 1599TIP3    H126432   4.813   3.151   1.754 -0.2434  0.0180  0.3065
 1599TIP3    H226433   4.899   3.176   1.632 -0.6917 -1.0123 -0.2276
 1600TIP3   OH226434   5.160   3.121   1.735  0.1886 -0.3661  0.6029
 1600TIP3    H126435   5.065   3.108   1.736  0.0714 -0.0929 -1.7944
 1600TIP3    H226436   5.196   3.033   1.739 -0.1541 -0.4966  1.0069
 1601TIP3   OH226437   2.667   2.243   1.154  0.1921  0.2159 -0.0876
 1601TIP3    H126438   2.648   2.324   1.200 -2.1164 -0.0720 -0.4163
 1601TIP3    H226439   2.596   2.184   1.178  1.1754 -1.3193 -0.7846
 1602TIP3   OH226440   4.514   5.894   6.233  0.3803  0.5915  0.6378
 1602TIP3    H126441   4.470   5.963   6.282 -0.0555  0.0270  1.0556
 1602TIP3    H226442   4.525   5.930   6.145 -0.5511  0.9002  0.6403
 1603TIP3   OH226443   1.077   5.871   0.802 -0.3017  0.1889  0.2774
 1603TIP3    H126444   1.014   5.804   0.830  1.4021 -1.2817  0.8327
 1603TIP3    H226445   1.153   5.821   0.771  0.2970  1.8767 -1.1576
 1604TIP3   OH226446   4.645   2.937   1.247  0.5730  0.2588 -0.1994
 1604TIP3    H126447   4.665   2.894   1.163  1.3246 -1.4286  0.8013
 1604TIP3    H226448   4.661   2.870   1.313 -0.6159  1.3615  1.2779
 1605TIP3   OH226449   4.692   2.712   7.557  0.0932  0.3013  0.1061
 1605TIP3    H126450   4.705   2.627   7.598 -0.2899  0.4501  0.5389
 1605TIP3    H226451   4.731   2.703   7.470 -2.6467 -1.3012 -1.0721
 1606TIP3   OH226452   3.179   4.476   2.449  0.2892 -0.5398  0.1631
 1606TIP3    H126453   3.241   4.469   2.521 -0.3114  0.3017  0.7797
 1606TIP3    H226454   3.142   4.388   2.440  0.8780 -0.8141  0.4147
 1607TIP3   OH226455   4.198   3.725   8.074 -0.1212 -0.3510  0.9192
 1607TIP3    H126456   4.196   3.813   8.035 -1.0132 -1.4354 -1.7643
 1607TIP3    H226457   4.291   3.705   8.085  0.1928  0.0990 -0.6327
 1608TIP3   OH226458   3.565   1.060   1.108 -0.0580  0.3057  0.2762
 1608TIP3    H126459   3.546   1.147   1.143 -2.3350  0.0511 -0.1163
 1608TIP3    H226460   3.484   1.036   1.062  0.0997 -2.4593  1.2853
 1609TIP3   OH226461   3.517   3.296   8.142  0.7235 -0.0875  0.0723
 1609TIP3    H126462   3.608   3.311   8.119  0.6472  1.9063  0.8249
 1609TIP3    H226463   3.511   3.202   8.158  2.5841 -0.2899 -0.2015
 1610TIP3   OH226464   2.780   2.687   7.369 -0.1330  0.5018 -0.1414
 1610TIP3    H126465   2.850   2.725   7.316  1.7055 -0.4906  1.4297
 1610TIP3    H226466   2.788   2.730   7.454 -2.6797  1.6823 -0.3986
 1611TIP3   OH226467   6.141   4.087   7.381 -0.0256 -0.1912  0.2580
 1611TIP3    H126468   6.198   4.091   7.458 -1.5762 -2.2865  1.6250
 1611TIP3    H226469   6.092   4.006   7.392 -2.6976  1.1010 -1.2685
 1612TIP3   OH226470   6.617   6.280   1.996 -0.1303  0.2895 -0.1799
 1612TIP3    H126471   6.645   6.267   2.086  1.5541 -3.0903 -1.0400
 1612TIP3    H226472   6.525   6.303   2.002 -0.1596 -0.2812  2.3764
 1613TIP3   OH226473   5.522   5.959   6.810  0.0728 -0.0638  0.0316
 1613TIP3    H126474   5.605   5.998   6.782 -0.4429  0.2874 -1.0849
 1613TIP3    H226475   5.476   6.029   6.855 -0.1500  0.1397 -0.4982
 1614TIP3   OH226476   5.609   5.488   1.705  0.3490  0.1277 -0.4161
 1614TIP3    H126477   5.668   5.468   1.632 -0.1634 -0.0346 -0.7976
 1614TIP3    H226478   5.529   5.520   1.662 -0.6128 -1.5984 -0.0070
 1615TIP3   OH226479   5.929   3.385   8.526  0.5784 -0.5434  0.1162
 1615TIP3    H126480   5.925   3.352   8.616  0.8911  1.3942  0.8964
 1615TIP3    H226481   5.843   3.365   8.489  0.2804 -0.9694  1.0080
 1616TIP3   OH226482   5.514   6.299   1.372 -0.6615 -0.1639  0.2065
 1616TIP3    H126483   5.608   6.283   1.378 -0.0379  1.8442 -2.4641
 1616TIP3    H226484   5.498   6.369   1.435  0.0696  0.8961 -0.7544
 1617TIP3   OH226485   0.116   5.637   1.029 -0.6582 -0.2931  0.5601
 1617TIP3    H126486   0.089   5.604   0.943 -0.2282  0.0340  0.2945
 1617TIP3    H226487   0.169   5.714   1.010 -1.2099  0.2471  1.1583
 1618TIP3   OH226488   3.791   2.779   1.687 -0.0680 -0.1397 -0.0588
 1618TIP3    H126489   3.777   2.872   1.702  0.8100 -0.2163  1.4295
 1618TIP3    H226490   3.710   2.737   1.717 -0.4981  0.1302 -0.8120
 1619TIP3   OH226491   3.002   1.039   0.677 -0.2995  0.0939  0.1793
 1619TIP3    H126492   3.047   0.970   0.628  1.1675  1.5176 -0.5688
 1619TIP3    H226493   2.952   0.992   0.744  0.1203 -1.7167 -0.7207
 1620TIP3   OH226494   4.689   1.165   7.142 -0.1907  0.4599  0.2965
 1620TIP3    H126495   4.623   1.222   7.180  0.7835  0.9248  1.3514
 1620TIP3    H226496   4.668   1.162   7.048 -1.3283  1.0717  0.5219
 1621TIP3   OH226497   6.749   2.722   6.750 -0.1621  0.7091 -0.6083
 1621TIP3    H126498   6.671   2.668   6.734  0.3258  0.5676 -2.9138
 1621TIP3    H226499   6.818   2.659   6.769 -0.7116  0.8725  2.4023
 1622TIP3   OH226500   1.461   2.290   1.363 -1.0905  0.2019  0.2601
 1622TIP3    H126501   1.507   2.234   1.300  1.9588  2.6371  0.1108
 1622TIP3    H226502   1.442   2.231   1.436  0.6270 -1.4086 -0.4860
 1623TIP3   OH226503   4.583   4.591   7.925 -0.6339 -0.2886  0.2906
 1623TIP3    H126504   4.660   4.565   7.874 -2.5442 -2.1191 -1.8688
 1623TIP3    H226505   4.586   4.686   7.926  1.5450 -0.3031  0.1193
 1624TIP3   OH226506   0.347   2.403   0.462 -0.3643 -0.2653  0.3952
 1624TIP3    H126507   0.431   2.359   0.451 -0.3824 -0.9005  2.3140
 1624TIP3    H226508   0.309   2.363   0.541 -1.6623  1.2417  0.5991
 1625TIP3   OH226509   6.674   4.537   8.580 -0.1208  0.1729 -0.1180
 1625TIP3    H126510   6.665   4.460   8.637 -0.3960 -1.0741 -1.7840
 1625TIP3    H226511   6.768   4.551   8.573 -0.0591 -0.2522 -0.1311
 1626TIP3   OH226512   0.950   0.147   8.537  0.0716  0.6998  0.7884
 1626TIP3    H126513   0.862   0.159   8.503  0.2624 -0.9695 -0.4559
 1626TIP3    H226514   0.995   0.229   8.517 -0.3598  0.4571 -1.3941
 1627TIP3   OH226515   5.850   0.999   1.566 -0.0150 -0.0345  0.4523
 1627TIP3    H126516   5.854   1.060   1.640  0.4781 -0.5914  0.8943
 1627TIP3    H226517   5.800   1.046   1.499 -1.2718  0.1317  1.4579
 1628TIP3   OH226518   4.609   6.642   7.314  0.0427 -0.0505 -0.2940
 1628TIP3    H126519   4.684   6.630   7.372  0.9850  1.3700 -1.1688
 1628TIP3    H226520   4.568   6.556   7.310  0.7030 -0.4856  1.4335
 1629TIP3   OH226521   0.865   6.503   1.381  0.5290  0.5053 -0.1594
 1629TIP3    H126522   0.847   6.501   1.475 -0.5606 -0.4585 -0.3688
 1629TIP3    H226523   0.943   6.449   1.370  0.7515  0.7480  0.2015
 1630TIP3   OH226524   4.652   2.876   6.647  0.4935 -0.3928  0.8557
 1630TIP3    H126525   4.714   2.877   6.574 -0.9245 -1.0684 -0.4148
 1630TIP3    H226526   4.693   2.819   6.712  1.5830 -0.1450  0.4093
 1631TIP3   OH226527   5.038   4.070   6.802 -0.4846 -0.2017 -0.5891
 1631TIP3    H126528   5.047   3.979   6.833 -1.2042 -0.4267 -1.0215
 1631TIP3    H226529   5.073   4.123   6.874  0.5909 -0.8424 -0.6038
 1632TIP3   OH226530   6.681   2.960   1.390  0.7318  0.6415  0.1421
 1632TIP3    H126531   6.684   3.056   1.390  0.9043  0.6598  1.3011
 1632TIP3    H226532   6.657   2.936   1.301  0.9017  1.7587 -0.2164
 1633TIP3   OH226533   6.763   5.785   2.084 -0.4812  0.3497 -0.0771
 1633TIP3    H126534   6.781   5.805   2.176  0.7719 -0.2664 -0.1654
 1633TIP3    H226535   6.808   5.702   2.068 -3.0601 -1.1046 -0.4973
 1634TIP3   OH226536   1.133   2.903   0.255 -0.2929 -0.1489 -0.0729
 1634TIP3    H126537   1.136   2.986   0.303 -0.2691  0.6059 -1.3291
 1634TIP3    H226538   1.190   2.917   0.179 -1.2654 -0.8795 -0.9639
 1635TIP3   OH226539   4.052   3.992   1.292 -0.0737 -0.1840 -0.3053
 1635TIP3    H126540   3.991   3.922   1.265 -0.6184 -0.3378  1.2353
 1635TIP3    H226541   4.068   3.975   1.385  0.7583  1.0480 -0.2074
 1636TIP3   OH226542   1.190   5.226   7.104 -0.1693 -0.1645  0.1501
 1636TIP3    H126543   1.177   5.168   7.179  0.5464 -1.9995 -1.0915
 1636TIP3    H226544   1.225   5.170   7.035  0.6706  1.7754 -1.0967
 1637TIP3   OH226545   2.905   3.156   0.552  0.2946 -0.5543  0.0587
 1637TIP3    H126546   2.879   3.108   0.631  2.4937 -2.3600 -0.2096
 1637TIP3    H226547   2.983   3.205   0.578  0.2292 -0.0765 -0.6380
 1638TIP3   OH226548   2.005   6.658   0.706  0.2187  0.7067 -0.0566
 1638TIP3    H126549   2.095   6.628   0.721 -0.5898 -2.4036 -0.7576
 1638TIP3    H226550   1.967   6.663   0.793  0.2796 -0.8253  0.0785
 1639TIP3   OH226551   6.630   4.437   7.915  0.0545  0.4016 -0.1470
 1639TIP3    H126552   6.667   4.443   7.827 -1.4074  1.5329 -0.7093
 1639TIP3    H226553   6.621   4.343   7.931  1.2356  0.1614 -0.7948
 1640TIP3   OH226554   4.200   5.205   8.203  0.2027 -0.3368  0.0927
 1640TIP3    H126555   4.211   5.118   8.240  1.2342 -0.6809 -0.9732
 1640TIP3    H226556   4.223   5.195   8.111  4.2314  1.7944  0.6447
 1641TIP3   OH226557   5.036   1.346   1.015  0.1428  0.7323  0.1782
 1641TIP3    H126558   5.050   1.343   0.920  1.2806  0.1970  0.3521
 1641TIP3    H226559   5.039   1.440   1.036 -0.2293  0.8605 -0.3294
 1642TIP3   OH226560   6.202   6.420   1.507  0.3697 -0.3542  0.1030
 1642TIP3    H126561   6.245   6.409   1.423  1.0274 -1.3537  0.5445
 1642TIP3    H226562   6.253   6.487   1.552  0.3412 -0.2061 -0.0853
 1643TIP3   OH226563   1.055   4.343   6.800 -0.4131  0.5691  0.0287
 1643TIP3    H126564   1.124   4.317   6.739 -0.4092 -0.3509  0.4075
 1643TIP3    H226565   1.095   4.413   6.853  0.1335  0.2453  0.0520
 1644TIP3   OH226566   0.636   5.109   7.953 -0.0278 -0.3269  0.2368
 1644TIP3    H126567   0.659   5.139   7.865  1.8823 -0.1809  0.7421
 1644TIP3    H226568   0.540   5.100   7.951  0.1087 -2.4484 -2.4949
 1645TIP3   OH226569   2.866   5.731   6.848  0.2989 -0.8868 -0.6464
 1645TIP3    H126570   2.928   5.686   6.906  2.0331 -0.4837 -2.1160
 1645TIP3    H226571   2.900   5.715   6.760 -2.0048 -1.0793 -1.5546
 1646TIP3   OH226572   3.535   2.195   7.618  0.3214  0.4003  0.4887
 1646TIP3    H126573   3.543   2.271   7.676  0.2899 -1.0978  2.6008
 1646TIP3    H226574   3.618   2.148   7.628  0.4337  0.2603 -0.9573
 1647TIP3   OH226575   3.879   6.264   6.603  0.0166 -0.5968  0.4086
 1647TIP3    H126576   3.836   6.304   6.527 -0.4885  0.0998  1.0455
 1647TIP3    H226577   3.807   6.231   6.657  0.2819  0.2053  1.2829
 1648TIP3   OH226578   5.931   5.510   8.004  0.3078  0.0455  0.0327
 1648TIP3    H126579   5.953   5.450   8.075 -0.7162 -0.7241 -0.2756
 1648TIP3    H226580   5.854   5.471   7.963 -0.5493  1.7081 -0.0173
 1649TIP3   OH226581   0.929   5.414   7.560  0.1548  0.7642 -0.2802
 1649TIP3    H126582   0.947   5.486   7.500 -0.4735  0.6449 -0.6174
 1649TIP3    H226583   0.891   5.345   7.505 -1.7444  1.1615  0.4494
 1650TIP3   OH226584   4.676   1.910   8.234 -0.0191 -0.2524 -1.0480
 1650TIP3    H126585   4.685   1.816   8.248 -0.7286 -0.1620  0.1244
 1650TIP3    H226586   4.606   1.919   8.169 -1.6458 -0.4813  0.6108
 1651TIP3   OH226587   1.735   4.451   7.598 -0.2053 -0.3264 -0.7721
 1651TIP3    H126588   1.655   4.501   7.579 -1.5961 -1.9005  0.6353
 1651TIP3    H226589   1.733   4.378   7.535  0.9296  0.3995 -1.6956
 1652TIP3   OH226590   6.599   1.239   7.548  0.0073  0.0787 -0.0206
 1652TIP3    H126591   6.594   1.277   7.635 -0.2208 -0.5033  0.2227
 1652TIP3    H226592   6.688   1.205   7.541  0.2039  0.6220 -0.2297
 1653TIP3   OH226593   3.460   6.504   0.323  0.5190 -0.2606 -0.0479
 1653TIP3    H126594   3.503   6.424   0.293  0.9351 -0.1665  0.2744
 1653TIP3    H226595   3.513   6.575   0.286  0.1723 -0.1356 -0.3044
 1654TIP3   OH226596   4.484   3.782   0.513 -0.5411 -0.1353  0.0711
 1654TIP3    H126597   4.541   3.859   0.515 -1.3811  0.5347 -0.7990
 1654TIP3    H226598   4.510   3.736   0.433 -1.0083  0.0027 -0.1584
 1655TIP3   OH226599   1.316   0.337   1.022 -0.0364 -0.4260 -0.2876
 1655TIP3    H126600   1.339   0.399   0.953  1.7532 -0.4885  0.1987
 1655TIP3    H226601   1.371   0.260   1.004 -0.3992 -0.8918  0.5371
 1656TIP3   OH226602   0.063   1.414   7.222 -0.3014  0.1018 -0.3319
 1656TIP3    H126603   0.111   1.395   7.141 -0.1820  0.5490 -0.3681
 1656TIP3    H226604  -0.015   1.360   7.216  0.1502 -0.5646 -0.3201
 1657TIP3   OH226605   5.705   2.015   1.890  0.4077 -0.4623  0.4364
 1657TIP3    H126606   5.797   1.990   1.881  0.6377  0.8000 -1.2034
 1657TIP3    H226607   5.707   2.099   1.936  0.0803 -0.4543  0.4355
 1658TIP3   OH226608   4.358   4.174   6.650  0.3792  0.6216  0.3776
 1658TIP3    H126609   4.305   4.123   6.710  1.3177 -2.2858 -1.0899
 1658TIP3    H226610   4.322   4.155   6.563  2.3386  0.3596 -0.4369
 1659TIP3   OH226611   6.800   0.028   1.019 -0.1931 -0.2205  0.3831
 1659TIP3    H126612   6.819   0.114   0.982 -0.7160 -0.4437 -0.4310
 1659TIP3    H226613   6.808  -0.032   0.945 -1.2929 -0.6665  0.6118
 1660TIP3   OH226614   1.748   3.784   6.665  0.0446  0.0137  0.1765
 1660TIP3    H126615   1.678   3.849   6.669 -0.1047 -0.2211  2.5321
 1660TIP3    H226616   1.825   3.834   6.639  0.0552  1.3054  2.4794
 1661TIP3   OH226617   1.080   0.849   6.899 -0.6858  0.2062 -0.1398
 1661TIP3    H126618   1.042   0.883   6.980 -1.1550  1.3472 -0.8197
 1661TIP3    H226619   1.105   0.759   6.921 -3.0028 -0.3410  0.5961
 1662TIP3   OH226620   1.411   6.293   2.274  0.1661  0.0749  0.4104
 1662TIP3    H126621   1.343   6.353   2.304  1.4201  1.1534  1.1252
 1662TIP3    H226622   1.364   6.232   2.216 -2.0198 -1.1287  3.2264
 1663TIP3   OH226623   1.542   4.515   8.164 -0.5763  0.0248  0.2742
 1663TIP3    H126624   1.457   4.546   8.195 -0.2850  2.7361 -1.3187
 1663TIP3    H226625   1.569   4.579   8.097  3.3414  0.1072  1.6423
 1664TIP3   OH226626   4.506   0.360   1.346 -0.4344  0.2329 -0.0823
 1664TIP3    H126627   4.525   0.376   1.439 -0.6724  0.3738 -0.0588
 1664TIP3    H226628   4.414   0.334   1.345 -0.5972  0.8117 -0.3470
 1665TIP3   OH226629   2.881   0.962   1.173 -0.2150  0.4409  0.0778
 1665TIP3    H126630   2.917   0.888   1.222 -1.2944 -0.3164 -0.2394
 1665TIP3    H226631   2.874   1.032   1.238 -0.6207 -0.2147  0.7636
 1666TIP3   OH226632   4.906   0.649   8.524 -0.1504 -0.1924  0.0886
 1666TIP3    H126633   4.910   0.710   8.450  0.7956  1.2933  1.3123
 1666TIP3    H226634   4.839   0.684   8.582  0.2270 -0.4468  0.6922
 1667TIP3   OH226635   0.393   1.797   1.431  0.1539  0.3289  0.8606
 1667TIP3    H126636   0.300   1.782   1.410  0.0689  0.7195  0.9581
 1667TIP3    H226637   0.394   1.811   1.525  0.4356 -0.6178  1.0045
 1668TIP3   OH226638   1.464   2.024   7.422  0.1487  0.3684 -0.3156
 1668TIP3    H126639   1.492   2.019   7.513  0.0439  0.5491 -0.2717
 1668TIP3    H226640   1.544   2.015   7.371  0.2468  0.5620 -0.1982
 1669TIP3   OH226641   4.959   6.384   0.245  0.0481 -0.0243 -0.7911
 1669TIP3    H126642   4.896   6.434   0.194 -0.8047 -1.0180 -0.7532
 1669TIP3    H226643   5.024   6.354   0.182 -0.2876 -0.1568 -1.0772
 1670TIP3   OH226644   3.644   3.086   6.509 -0.1235 -0.2814 -0.1911
 1670TIP3    H126645   3.710   3.134   6.459 -0.4254  0.5703  0.2219
 1670TIP3    H226646   3.654   2.995   6.479 -0.0630  0.1432 -1.5503
 1671TIP3   OH226647   6.603   5.133   0.032  0.2299 -0.4111 -0.2670
 1671TIP3    H126648   6.596   5.105  -0.059  2.9045 -2.9524  0.1524
 1671TIP3    H226649   6.662   5.208   0.030  0.2395 -0.4289 -0.6299
 1672TIP3   OH226650   1.598   4.805   7.600  0.3321 -0.1290 -0.3920
 1672TIP3    H126651   1.594   4.719   7.640  2.4237  0.3132  0.9012
 1672TIP3    H226652   1.597   4.866   7.673  0.0682  0.9153 -1.2333
 1673TIP3   OH226653   5.818   5.840   7.441  0.1754 -0.2467  0.0564
 1673TIP3    H126654   5.827   5.752   7.405  0.1744 -0.7952  1.3471
 1673TIP3    H226655   5.724   5.858   7.438  0.2694  0.1198 -1.1106
 1674TIP3   OH226656   0.771   2.175   0.590 -0.6526  0.5915  0.4701
 1674TIP3    H126657   0.704   2.242   0.603 -0.9822  0.6564 -1.3761
 1674TIP3    H226658   0.741   2.101   0.643 -2.6389  0.3344 -0.8990
 1675TIP3   OH226659   1.102   0.640   7.072 -0.7369 -0.2453  0.0333
 1675TIP3    H126660   1.159   0.565   7.090 -0.9057 -0.5189 -0.5426
 1675TIP3    H226661   1.117   0.699   7.146  0.2364 -0.3406 -0.0706
 1676TIP3   OH226662   5.348   3.242   0.873  0.1869  0.4575 -0.1024
 1676TIP3    H126663   5.294   3.177   0.829 -1.1846  0.6533  1.2412
 1676TIP3    H226664   5.341   3.320   0.818  1.0662 -0.1979 -1.2005
 1677TIP3   OH226665   3.529   4.803   6.558 -0.5604  0.3446  0.1083
 1677TIP3    H126666   3.469   4.729   6.549 -0.4856  0.2323  0.4927
 1677TIP3    H226667   3.479   4.878   6.527  0.0483 -0.1566 -2.2309
 1678TIP3   OH226668   3.233   4.725   0.714 -0.2681  0.1887  0.3624
 1678TIP3    H126669   3.289   4.798   0.687  0.9320 -0.5927  0.6585
 1678TIP3    H226670   3.166   4.720   0.645  0.8571  0.2670 -0.7807
 1679TIP3   OH226671   0.775   4.198   0.546 -0.2659 -0.0788 -0.4171
 1679TIP3    H126672   0.687   4.237   0.543 -0.3741 -0.2566  0.3258
 1679TIP3    H226673   0.793   4.174   0.455  0.2801  2.7459 -1.1532
 1680TIP3   OH226674   2.271   5.816   7.682  0.1427 -0.1722  0.0100
 1680TIP3    H126675   2.195   5.830   7.738 -0.5972 -0.0558 -0.9921
 1680TIP3    H226676   2.240   5.757   7.613  1.5386 -1.8948  0.7469
 1681TIP3   OH226677   1.409   4.213   6.839 -0.0035  0.4221  0.0812
 1681TIP3    H126678   1.367   4.292   6.805  1.0115  2.0245  2.3264
 1681TIP3    H226679   1.501   4.223   6.817 -0.0694 -0.9975 -1.0461
 1682TIP3   OH226680   0.476   5.787   0.026  0.4426  0.7931 -0.4348
 1682TIP3    H126681   0.517   5.851  -0.032  2.3691  1.0414  1.0829
 1682TIP3    H226682   0.550   5.736   0.061 -0.7863 -0.3970  0.5514
 1683TIP3   OH226683   0.007   1.735   8.560  0.4254  0.2434 -0.3983
 1683TIP3    H126684  -0.003   1.659   8.617  4.2222 -1.9086 -2.2422
 1683TIP3    H226685  -0.028   1.707   8.476  0.8186  0.9663 -0.8139
 1684TIP3   OH226686   1.928   3.623   6.254 -0.8058 -0.2682 -0.1575
 1684TIP3    H126687   1.968   3.537   6.272  0.2668  0.6824  2.6184
 1684TIP3    H226688   1.843   3.619   6.297  0.2256  0.7766  2.1310
 1685TIP3   OH226689   6.879   5.188   0.244 -0.4469  0.8842  0.5285
 1685TIP3    H126690   6.948   5.254   0.243 -0.5388  0.9740  0.2063
 1685TIP3    H226691   6.923   5.106   0.222 -0.7580  1.2380 -1.5704
 1686TIP3   OH226692   2.626   6.492   2.757  0.1134 -0.1477  0.3602
 1686TIP3    H126693   2.540   6.520   2.725  0.5304  0.3730 -0.3262
 1686TIP3    H226694   2.689   6.535   2.698  0.8534 -0.3222  1.0118
 1687TIP3   OH226695   4.011   2.942   8.576  0.4762 -0.0268 -0.1055
 1687TIP3    H126696   4.007   2.986   8.661 -1.3013 -0.1081 -0.1099
 1687TIP3    H226697   3.945   2.873   8.582  1.0123 -0.6584 -1.2165
 1688TIP3   OH226698   0.994   2.740   2.386 -0.5163  0.6492  0.2054
 1688TIP3    H126699   0.989   2.702   2.299 -1.1751  2.5299 -0.6190
 1688TIP3    H226700   0.911   2.717   2.428  0.0291 -0.7320  0.5780
 1689TIP3   OH226701   0.638   4.989   0.125  0.1297 -0.0183 -0.3705
 1689TIP3    H126702   0.685   5.032   0.197  0.6560 -2.3997  0.8019
 1689TIP3    H226703   0.647   5.050   0.052 -1.3205  3.0321  1.7410
 1690TIP3   OH226704   0.130   4.802   2.067 -0.5505 -1.0337 -0.1237
 1690TIP3    H126705   0.176   4.722   2.041  2.0632 -0.2900  1.8279
 1690TIP3    H226706   0.110   4.790   2.160  2.9636  1.7535  1.1906
 1691TIP3   OH226707   3.964   0.032   1.708 -0.3129 -0.1198 -0.4719
 1691TIP3    H126708   3.906   0.105   1.688  0.3339  0.5007 -0.1300
 1691TIP3    H226709   3.990   0.046   1.800  0.8466 -0.0380 -0.7960
 1692TIP3   OH226710   4.730   1.731   8.481  0.2592 -0.1925 -0.2904
 1692TIP3    H126711   4.805   1.749   8.538  0.4916 -0.0600 -0.6286
 1692TIP3    H226712   4.770   1.711   8.396 -0.0430 -1.1423 -0.2220
 1693TIP3   OH226713   1.892   5.433   0.417 -0.2555 -0.4519  0.0912
 1693TIP3    H126714   1.826   5.364   0.415  0.6538 -1.3366 -1.4440
 1693TIP3    H226715   1.932   5.430   0.330 -0.2113  2.0519 -0.0516
 1694TIP3   OH226716   1.360   3.082   7.923  0.4163  0.2628 -0.6620
 1694TIP3    H126717   1.328   3.166   7.889 -3.5487 -0.7164  0.1063
 1694TIP3    H226718   1.331   3.018   7.858  0.1801 -0.8292  0.4776
 1695TIP3   OH226719   3.311   4.356   0.485 -0.0789 -0.1914 -0.0547
 1695TIP3    H126720   3.294   4.429   0.426 -1.4216  1.2495  1.9854
 1695TIP3    H226721   3.404   4.363   0.506  0.3371 -0.5134 -1.6303
 1696TIP3   OH226722   2.700   4.328   0.329  0.4747  0.3065  0.2489
 1696TIP3    H126723   2.660   4.257   0.279  0.5628  0.3924  0.0541
 1696TIP3    H226724   2.697   4.298   0.420  0.1902  0.2084  0.2070
 1697TIP3   OH226725   5.017   6.612   6.835 -0.7268  0.2668  0.4262
 1697TIP3    H126726   5.040   6.521   6.854 -2.9363 -0.4803 -0.1730
 1697TIP3    H226727   4.975   6.643   6.915 -0.1800  0.7184  0.5482
 1698TIP3   OH226728   2.499   1.050   0.318  0.3940 -0.8673  0.5785
 1698TIP3    H126729   2.546   1.128   0.287  0.0199  0.2729  2.7276
 1698TIP3    H226730   2.420   1.084   0.360  0.0584 -2.4326  1.2872
 1699TIP3   OH226731   3.996   5.541   1.771 -0.2412  0.5199 -0.1250
 1699TIP3    H126732   3.938   5.465   1.764  0.7086 -0.4490  1.6138
 1699TIP3    H226733   4.065   5.512   1.831  1.2572  2.1041 -0.9989
 1700TIP3   OH226734   2.107   5.435   1.063  0.0318 -0.4092 -0.2829
 1700TIP3    H126735   2.106   5.527   1.091 -0.7887 -0.9171  1.5311
 1700TIP3    H226736   2.200   5.411   1.063  0.1768  0.1263  0.3205
 1701TIP3   OH226737   1.828   6.747   0.531 -0.5074  0.0900  0.6177
 1701TIP3    H126738   1.770   6.671   0.537 -1.5952  0.8542  0.0825
 1701TIP3    H226739   1.898   6.728   0.594 -1.3867 -0.8094  1.3696
 1702TIP3   OH226740   0.330   1.469   8.455  0.0438  0.1313 -0.2149
 1702TIP3    H126741   0.242   1.477   8.491 -0.5402 -0.9086 -1.3419
 1702TIP3    H226742   0.331   1.527   8.379 -0.0444 -0.6544 -0.8350
 1703TIP3   OH226743   4.376   0.829   7.543 -0.0822  0.0309 -0.3523
 1703TIP3    H126744   4.378   0.855   7.635  0.7376 -2.2639  0.3488
 1703TIP3    H226745   4.369   0.734   7.545 -2.7945  0.0342 -2.7132
 1704TIP3   OH226746   0.145   5.685   7.764  0.3274  0.3433  0.1465
 1704TIP3    H126747   0.136   5.702   7.670  2.4894  0.2398 -0.1242
 1704TIP3    H226748   0.117   5.594   7.775  1.1178 -0.0047 -0.6026
 1705TIP3   OH226749   4.978   0.026   7.420  0.0938 -0.2576 -0.2124
 1705TIP3    H126750   5.052   0.070   7.461  0.2992 -0.4540 -0.3635
 1705TIP3    H226751   4.901   0.064   7.461  0.3061 -0.8850  0.8032
 1706TIP3   OH226752   0.662   3.547   7.726 -0.3818 -0.7711  0.1014
 1706TIP3    H126753   0.624   3.630   7.696  0.2633 -0.2807  0.5885
 1706TIP3    H226754   0.755   3.567   7.737 -0.4764 -1.1040  1.7606
 1707TIP3   OH226755   2.126   3.340   8.106 -0.0137 -0.0621 -0.1431
 1707TIP3    H126756   2.094   3.380   8.187  0.9552 -0.2425  0.3356
 1707TIP3    H226757   2.059   3.275   8.084  0.3783 -0.9838  1.2637
 1708TIP3   OH226758   2.773   5.849   7.672 -0.0727  0.1655  0.6000
 1708TIP3    H126759   2.782   5.783   7.741  0.6907  1.3114  1.6403
 1708TIP3    H226760   2.835   5.917   7.696  0.2137  0.5964 -1.2544
 1709TIP3   OH226761   3.512   2.412   7.795  0.0913 -0.0266 -0.3774
 1709TIP3    H126762   3.435   2.467   7.780 -0.4720  0.0180  2.2548
 1709TIP3    H226763   3.573   2.467   7.844 -0.1617 -1.4263  1.6191
 1710TIP3   OH226764   4.087   6.162   8.459  0.1274  0.3013 -0.0430
 1710TIP3    H126765   4.163   6.105   8.447 -0.1013 -0.0873  0.3455
 1710TIP3    H226766   4.102   6.235   8.398  1.4745  0.9292  0.9803
 1711TIP3   OH226767   0.497   4.410   0.437  0.0612  0.3403  0.0884
 1711TIP3    H126768   0.475   4.345   0.502  0.7729  0.3816  0.3826
 1711TIP3    H226769   0.516   4.489   0.487 -3.9334  1.8066 -0.3762
 1712TIP3   OH226770   2.944   6.445   8.136 -0.5998 -0.0735  0.3930
 1712TIP3    H126771   2.985   6.531   8.133 -0.3943 -0.1760  0.1919
 1712TIP3    H226772   2.916   6.429   8.046  0.9666 -0.9751  0.0239
 1713TIP3   OH226773   5.329   3.281   8.186  0.3306  0.0072  0.3605
 1713TIP3    H126774   5.419   3.252   8.169  0.4920  0.1480  0.9484
 1713TIP3    H226775   5.303   3.232   8.264  0.4504  1.1061  1.1098
 1714TIP3   OH226776   3.715   6.209   8.551 -0.0404  0.3886 -0.4386
 1714TIP3    H126777   3.802   6.176   8.528 -0.3049  1.2945 -3.0990
 1714TIP3    H226778   3.655   6.140   8.522 -0.2671 -0.7853  2.4846
 1715TIP3   OH226779   0.195   2.550   1.959 -0.5365  0.0159 -0.0042
 1715TIP3    H126780   0.137   2.589   1.894 -1.2974 -0.8594  0.1235
 1715TIP3    H226781   0.265   2.509   1.907 -0.4730  0.3748 -0.2039
 1716TIP3   OH226782   4.025   5.750   7.075 -0.2488  0.0695 -0.3521
 1716TIP3    H126783   4.048   5.681   7.013 -1.2234 -0.0045 -0.6400
 1716TIP3    H226784   4.099   5.754   7.135  0.4973 -0.1793 -1.2370
 1717TIP3   OH226785   4.033   6.740   1.178  0.1138 -0.1015 -0.2207
 1717TIP3    H126786   4.048   6.831   1.153 -1.5961 -0.0428 -1.1527
 1717TIP3    H226787   3.959   6.711   1.125  1.2250 -2.3732 -0.6908
 1718TIP3   OH226788   1.468   6.352   0.070 -1.2631  0.2351  0.0489
 1718TIP3    H126789   1.523   6.423   0.036 -2.0462  0.4102 -0.8688
 1718TIP3    H226790   1.400   6.396   0.120 -1.2073  0.0772  0.2653
 1719TIP3   OH226791   4.601   1.371   1.412 -0.1544  0.8972  0.6525
 1719TIP3    H126792   4.516   1.411   1.394 -1.0166 -0.3262  1.7986
 1719TIP3    H226793   4.654   1.390   1.335 -0.7397  3.5391  0.7999
 1720TIP3   OH226794   6.144   4.114   0.741  0.6152 -0.0095  0.8035
 1720TIP3    H126795   6.230   4.098   0.701  0.4088 -0.2724  0.4625
 1720TIP3    H226796   6.134   4.043   0.804  0.0727 -0.7645 -0.1042
 1721TIP3   OH226797   2.922   6.898   7.076  0.4761 -0.1314 -0.3494
 1721TIP3    H126798   2.999   6.955   7.074 -0.3500  1.1029  0.8674
 1721TIP3    H226799   2.922   6.860   7.164  0.7336 -1.6763 -0.9754
 1722TIP3   OH226800   4.503   5.615   0.524 -0.2396  0.3648  0.3027
 1722TIP3    H126801   4.430   5.651   0.475  0.5157 -0.3854 -1.4552
 1722TIP3    H226802   4.565   5.687   0.532  0.4470  0.0417 -1.5645
 1723TIP3   OH226803   1.610   0.944   7.695  0.5823  0.3905  0.0134
 1723TIP3    H126804   1.603   0.918   7.786 -3.0927  0.4655 -0.0840
 1723TIP3    H226805   1.538   1.005   7.682  1.4122  0.9196 -2.7809
 1724TIP3   OH226806   3.824   0.987   8.554  0.5894  0.2823 -0.3932
 1724TIP3    H126807   3.734   0.973   8.524  0.5728  0.3257 -0.3636
 1724TIP3    H226808   3.864   1.039   8.484  0.6119  0.2035 -0.4399
 1725TIP3   OH226809   1.122   5.338   7.716 -0.3358 -0.2789  0.0743
 1725TIP3    H126810   1.107   5.263   7.773 -0.7331 -0.2793 -0.0298
 1725TIP3    H226811   1.042   5.346   7.664  0.0170 -0.2674 -0.4746
 1726TIP3   OH226812   3.666   4.549   7.076  0.0970  0.0832 -0.1342
 1726TIP3    H126813   3.663   4.468   7.025 -0.0951  0.2910 -0.4599
 1726TIP3    H226814   3.734   4.601   7.033 -0.1675  0.3197 -0.2678
 1727TIP3   OH226815   4.013   1.830   7.232  0.2643  0.3900 -0.2973
 1727TIP3    H126816   3.919   1.844   7.220 -0.0993 -2.2904 -1.2961
 1727TIP3    H226817   4.036   1.883   7.309 -2.0995  0.9177  0.1131
 1728TIP3   OH226818   0.066   3.091   7.605  0.2460 -0.0694  0.4430
 1728TIP3    H126819   0.162   3.089   7.616  0.2112  0.1604  0.8256
 1728TIP3    H226820   0.052   3.083   7.511  0.6678  0.5260  0.3229
 1729TIP3   OH226821   0.080   5.322   8.247 -0.0508 -0.0331  0.6193
 1729TIP3    H126822   0.018   5.395   8.242 -1.5275 -1.2645  0.1644
 1729TIP3    H226823   0.073   5.279   8.162 -0.4302 -1.6369  1.4321
 1730TIP3   OH226824   3.579   3.271   6.719 -0.5950  0.3850 -0.6394
 1730TIP3    H126825   3.501   3.250   6.770 -0.0046  0.8235  0.4764
 1730TIP3    H226826   3.586   3.199   6.655 -2.5637  0.9560 -1.5818
 1731TIP3   OH226827   5.773   4.826   1.212  0.1936  0.1078  0.2273
 1731TIP3    H126828   5.687   4.854   1.182 -0.2253 -2.0035 -0.6981
 1731TIP3    H226829   5.831   4.901   1.195 -1.1103  0.9223 -0.7254
 1732TIP3   OH226830   1.583   2.727   7.904 -0.5286 -0.3309  0.1406
 1732TIP3    H126831   1.598   2.779   7.983 -1.5922  1.6739 -0.8933
 1732TIP3    H226832   1.548   2.644   7.936  1.4321 -0.5775  1.8739
 1733TIP3   OH226833   0.966   1.540   1.265 -1.1275 -0.3734 -0.6123
 1733TIP3    H126834   1.038   1.599   1.287 -1.0417 -0.1414 -1.5037
 1733TIP3    H226835   0.914   1.536   1.345 -1.4440  1.3420 -0.6961
 1734TIP3   OH226836   6.650   6.227   0.161  0.0964 -0.5805  0.1666
 1734TIP3    H126837   6.583   6.264   0.104 -0.6803 -0.5240  1.0807
 1734TIP3    H226838   6.725   6.214   0.104 -0.6667 -0.5936 -0.8790
 1735TIP3   OH226839   4.079   4.325   8.272 -0.3951 -0.1328 -0.0792
 1735TIP3    H126840   4.122   4.261   8.329 -1.1064  0.5206  1.2222
 1735TIP3    H226841   4.050   4.395   8.331  2.4613  2.6646 -1.6937
 1736TIP3   OH226842   2.245   4.976   2.072 -0.6202  0.0259  0.0015
 1736TIP3    H126843   2.244   4.888   2.110  1.0236 -0.5391 -1.1819
 1736TIP3    H226844   2.264   5.033   2.146 -1.7142 -0.5940  0.7900
 1737TIP3   OH226845   1.188   1.329   7.964 -0.0566 -0.1005  0.4202
 1737TIP3    H126846   1.271   1.282   7.952  0.4285  0.6415  0.8148
 1737TIP3    H226847   1.186   1.393   7.893 -0.8858 -0.9301 -0.3294
 1738TIP3   OH226848   4.805   4.259   7.849  0.2808  0.2162  0.9038
 1738TIP3    H126849   4.852   4.179   7.875 -0.7024 -0.6973 -0.0196
 1738TIP3    H226850   4.823   4.267   7.755 -0.6030  0.3992  0.7429
 1739TIP3   OH226851   0.168   6.899   7.185  0.0606 -0.3482 -0.2965
 1739TIP3    H126852   0.205   6.879   7.099 -0.0311  1.3665 -0.7591
 1739TIP3    H226853   0.161   6.994   7.187  0.1505 -0.3477  1.6580
 1740TIP3   OH226854   2.349   4.894   7.987  0.1215 -0.3370  0.8887
 1740TIP3    H126855   2.338   4.799   7.988  1.4155 -0.5981 -1.4856
 1740TIP3    H226856   2.441   4.907   8.009  1.3075 -0.1010 -3.3275
 1741TIP3   OH226857   4.364   1.211   8.313 -0.2553 -0.1586 -0.5984
 1741TIP3    H126858   4.284   1.209   8.260 -1.1198  1.3935  0.5479
 1741TIP3    H226859   4.368   1.301   8.347  1.5797 -0.4171  0.0002
 1742TIP3   OH226860   6.774   6.715   1.948 -0.1750  0.4889 -0.1576
 1742TIP3    H126861   6.790   6.783   1.883 -2.0000  2.5580  1.4145
 1742TIP3    H226862   6.786   6.758   2.032  0.5031 -1.6672  0.9248
 1743TIP3   OH226863   5.189   0.172   7.555  0.4782  0.2420  0.1878
 1743TIP3    H126864   5.206   0.263   7.576  0.8347  0.5317 -1.2302
 1743TIP3    H226865   5.268   0.142   7.510 -0.5420 -0.0406 -1.4926
 1744TIP3   OH226866   3.222   0.952   0.404  0.5588 -0.4638  0.2841
 1744TIP3    H126867   3.313   0.951   0.376  0.6185  1.5902  0.2394
 1744TIP3    H226868   3.177   0.895   0.342  1.9741 -2.6096  1.1176
 1745TIP3   OH226869   1.270   0.230   7.180  0.3179 -0.2389 -0.5244
 1745TIP3    H126870   1.355   0.200   7.211 -0.3799  0.5904  2.5577
 1745TIP3    H226871   1.208   0.164   7.213 -0.3830 -0.0568 -1.4383
 1746TIP3   OH226872   5.431   4.762   7.434  0.4741  0.7917  0.5699
 1746TIP3    H126873   5.452   4.816   7.358  0.3951 -1.2987 -1.0258
 1746TIP3    H226874   5.336   4.768   7.441  0.4025  0.3868  0.0099
 1747TIP3   OH226875   5.628   6.089   8.171  0.1475 -0.9442  0.0153
 1747TIP3    H126876   5.640   6.057   8.082  0.8801  0.2899 -0.3547
 1747TIP3    H226877   5.608   6.011   8.222 -0.1170 -1.6894 -1.1954
 1748TIP3   OH226878   0.477   5.787   7.681 -0.0169  0.0598 -0.1931
 1748TIP3    H126879   0.467   5.732   7.604  0.2746  0.4034 -0.4774
 1748TIP3    H226880   0.509   5.727   7.749  1.6524  0.1176 -0.8666
 1749TIP3   OH226881   2.824   0.824   1.877 -0.0276 -0.4126  0.2738
 1749TIP3    H126882   2.919   0.830   1.869 -0.0166 -1.4743 -0.6863
 1749TIP3    H226883   2.795   0.915   1.883  0.8889  0.0945 -1.8884
 1750TIP3   OH226884   1.243   3.642   2.025  0.0554  0.0710 -0.0303
 1750TIP3    H126885   1.260   3.548   2.032 -0.0198  0.0520 -0.1156
 1750TIP3    H226886   1.203   3.654   1.939  0.0115  0.1732  0.0036
 1751TIP3   OH226887   1.559   2.355   7.327  0.6036  0.0014 -0.8285
 1751TIP3    H126888   1.498   2.294   7.287 -0.8860  0.8443  0.0502
 1751TIP3    H226889   1.646   2.323   7.302 -0.1613 -1.7291 -1.4058
 1752TIP3   OH226890   5.758   4.060   2.611 -0.5262 -0.6753  0.2827
 1752TIP3    H126891   5.698   4.046   2.537 -0.7863 -1.3684  0.6193
 1752TIP3    H226892   5.831   4.001   2.593 -0.0810 -0.0493  0.0278
 1753TIP3   OH226893   2.969   4.065   1.353 -0.6011  0.2315  0.5740
 1753TIP3    H126894   3.047   4.030   1.396 -0.4483  1.6388  1.5058
 1753TIP3    H226895   3.000   4.096   1.268 -0.7269 -1.7427 -0.2359
 1754TIP3   OH226896   6.770   5.106   0.555  0.4379  1.2351  0.5808
 1754TIP3    H126897   6.791   5.056   0.476 -0.0270  0.0092  1.2073
 1754TIP3    H226898   6.825   5.184   0.549  1.4372  0.4936 -0.2562
 1755TIP3   OH226899   0.760   0.611   1.027 -0.7771  0.5380  0.1734
 1755TIP3    H126900   0.691   0.557   0.988 -1.3489  1.2901  0.1379
 1755TIP3    H226901   0.790   0.560   1.103 -1.5583  0.3251  0.3491
 1756TIP3   OH226902   0.313   0.495   1.178  0.3402  0.0811  0.0990
 1756TIP3    H126903   0.235   0.509   1.231  0.4616  0.2310  0.2415
 1756TIP3    H226904   0.359   0.579   1.180  0.3486  0.0882 -0.2427
 1757TIP3   OH226905   6.524   4.292   6.362 -0.2923  0.1924  0.1883
 1757TIP3    H126906   6.488   4.225   6.304 -1.5994 -1.8747  3.1518
 1757TIP3    H226907   6.455   4.359   6.366 -1.2878 -0.8544  1.2026
 1758TIP3   OH226908   3.511   5.514   7.310  0.3410 -0.1993  0.4161
 1758TIP3    H126909   3.591   5.518   7.257  1.0753 -1.0825  1.4117
 1758TIP3    H226910   3.542   5.524   7.400 -0.6191 -0.9806  0.8491
 1759TIP3   OH226911   3.962   1.009   2.620  0.0533  0.1150 -0.0384
 1759TIP3    H126912   3.914   1.034   2.541  0.3736  0.7168 -0.0479
 1759TIP3    H226913   4.038   1.066   2.621  0.4409 -0.3946  0.3170
 1760TIP3   OH226914   1.012   4.952   2.397  0.0005 -0.3565 -0.0237
 1760TIP3    H126915   0.932   4.934   2.447  1.6673 -2.0883  2.2760
 1760TIP3    H226916   1.004   5.043   2.369 -2.2739 -0.1672  1.0535
 1761TIP3   OH226917   4.920   6.212   0.816 -0.4780 -0.3600 -0.1569
 1761TIP3    H126918   4.934   6.251   0.903  0.8843 -0.4338 -0.3267
 1761TIP3    H226919   4.869   6.277   0.769 -1.1347 -0.2662  0.6531
 1762TIP3   OH226920   4.113   0.088   7.091 -0.1919  0.1776  0.7690
 1762TIP3    H126921   4.049   0.144   7.134  0.4936  1.8573 -0.3013
 1762TIP3    H226922   4.121   0.124   7.003  0.8057 -1.1948  0.2636
 1763TIP3   OH226923   2.268   3.842   7.320  0.3001 -0.5851  0.4732
 1763TIP3    H126924   2.254   3.920   7.266  1.3990 -0.2180  0.6944
 1763TIP3    H226925   2.292   3.876   7.406 -3.0673 -1.1120  1.7980
 1764TIP3   OH226926   2.881   0.875   0.899  0.0239 -0.2247  0.1768
 1764TIP3    H126927   2.932   0.796   0.917  2.1566  1.2956  1.2496
 1764TIP3    H226928   2.876   0.919   0.983  1.2299  2.0727 -0.8826
 1765TIP3   OH226929   4.678   5.595   2.282 -0.5138  0.1271 -0.3412
 1765TIP3    H126930   4.662   5.657   2.211 -0.8702 -0.7913 -1.0953
 1765TIP3    H226931   4.591   5.573   2.316 -0.4141 -0.1174 -0.2360
 1766TIP3   OH226932   0.546   0.204   8.136 -0.8245  0.3549 -0.3905
 1766TIP3    H126933   0.460   0.196   8.178 -1.8852  1.9639 -2.1143
 1766TIP3    H226934   0.595   0.263   8.193 -0.5596 -1.0997  0.9620
 1767TIP3   OH226935   4.277   1.974   6.731 -0.1362  0.6185 -0.0199
 1767TIP3    H126936   4.338   2.031   6.777 -0.1549  0.9482 -0.3971
 1767TIP3    H226937   4.214   1.946   6.799  0.6141  0.0021  0.4420
 1768TIP3   OH226938   6.274   2.684   2.540  0.8570  0.3566  0.4182
 1768TIP3    H126939   6.366   2.661   2.531  1.4720  1.3457  3.1099
 1768TIP3    H226940   6.254   2.667   2.632 -1.4022  1.0406  0.1176
 1769TIP3   OH226941   4.621   0.768   0.528  0.2731  0.3845  0.0776
 1769TIP3    H126942   4.668   0.687   0.549  3.1387  1.5909 -1.1468
 1769TIP3    H226943   4.658   0.834   0.586  0.7534  1.5608 -1.4843
 1770TIP3   OH226944   0.100   6.035   1.041 -0.3172 -0.3522 -0.5612
 1770TIP3    H126945   0.062   6.011   1.126 -0.9835 -0.2411 -0.8199
 1770TIP3    H226946   0.025   6.036   0.981  0.0451  0.2028 -1.0135
 1771TIP3   OH226947   5.558   6.464   8.226 -0.1622 -0.1545  0.3311
 1771TIP3    H126948   5.517   6.380   8.245  0.4715 -0.4594  0.3954
 1771TIP3    H226949   5.554   6.473   8.131 -1.7584  0.5476  0.4412
 1772TIP3   OH226950   4.664   3.888   7.813  0.2875 -0.1257  0.1923
 1772TIP3    H126951   4.754   3.856   7.807  0.4844  0.6270 -2.5794
 1772TIP3    H226952   4.635   3.892   7.722 -1.7556  1.8193  0.8464
 1773TIP3   OH226953   2.915   6.353   7.488 -0.1835 -0.8523  0.2226
 1773TIP3    H126954   2.829   6.381   7.457 -1.0991  0.2274  3.3796
 1773TIP3    H226955   2.955   6.432   7.525  0.3793 -2.0845  2.4662
 1774TIP3   OH226956   5.579   1.975   8.558 -0.3232 -0.1224 -0.3627
 1774TIP3    H126957   5.634   1.913   8.605  0.4536  0.5957 -0.2869
 1774TIP3    H226958   5.638   2.049   8.539 -1.6291  1.3762  1.0952
 1775TIP3   OH226959   6.425   1.056   7.468 -0.1681 -0.4626 -0.3881
 1775TIP3    H126960   6.355   1.046   7.533  0.6520 -1.0927  0.4109
 1775TIP3    H226961   6.483   1.122   7.506 -1.1649  1.3386 -1.8206
 1776TIP3   OH226962   6.039   2.576   6.982 -0.4524 -0.0372 -0.8543
 1776TIP3    H126963   6.047   2.665   7.017  0.1180 -0.3078 -0.2714
 1776TIP3    H226964   6.093   2.523   7.040 -1.7746 -0.9792 -0.4324
 1777TIP3   OH226965   2.271   0.393   6.749 -0.0036  0.1225  0.3263
 1777TIP3    H126966   2.349   0.340   6.732 -0.3409 -0.1403 -0.4657
 1777TIP3    H226967   2.304   0.480   6.771  0.5197 -0.0368  0.1677
 1778TIP3   OH226968   6.278   4.486   6.638 -0.8235 -0.1830 -0.2119
 1778TIP3    H126969   6.288   4.491   6.733 -1.4643  1.7698 -0.1940
 1778TIP3    H226970   6.190   4.450   6.624 -0.8641 -0.1435 -0.0532
 1779TIP3   OH226971   2.065   3.700   1.856 -0.4624 -0.4472 -0.0108
 1779TIP3    H126972   2.080   3.738   1.943 -0.8377  1.7898 -0.8690
 1779TIP3    H226973   2.023   3.770   1.806 -0.2230 -1.6694 -2.0243
 1780TIP3   OH226974   0.798   3.911   0.543 -1.0450  0.2744 -0.4832
 1780TIP3    H126975   0.862   3.877   0.605 -0.2412 -0.5168 -1.7114
 1780TIP3    H226976   0.765   3.991   0.584  0.1108  0.2487  0.5522
 1781TIP3   OH226977   2.396   2.768   0.537  0.1947  0.0079 -0.0858
 1781TIP3    H126978   2.389   2.673   0.544  1.2298 -0.0293  0.8439
 1781TIP3    H226979   2.339   2.801   0.607 -0.9701  0.1241 -1.0597
 1782TIP3   OH226980   6.039   4.366   7.915 -0.0060 -0.1340  0.6916
 1782TIP3    H126981   6.114   4.309   7.933 -0.3941 -1.0814 -0.4909
 1782TIP3    H226982   5.963   4.307   7.917 -0.9053  1.0012  2.9824
 1783TIP3   OH226983   6.463   2.777   7.760  0.0148  0.1277 -0.1594
 1783TIP3    H126984   6.384   2.810   7.717  0.3348  2.2021  0.7604
 1783TIP3    H226985   6.532   2.785   7.694  0.6516  3.9299  0.7848
 1784TIP3   OH226986   4.391   3.007   6.440 -0.0736  0.1593  0.4964
 1784TIP3    H126987   4.406   2.913   6.429  1.2889  0.1055  2.3511
 1784TIP3    H226988   4.409   3.045   6.354 -1.7055 -1.3393 -0.5857
 1785TIP3   OH226989   0.045   2.140   0.417 -0.9350 -0.0362 -0.0548
 1785TIP3    H126990   0.035   2.155   0.511  0.5736 -0.9108  0.2696
 1785TIP3    H226991   0.077   2.223   0.382 -2.9125  0.7736 -0.0831
 1786TIP3   OH226992   1.973   4.850   0.421  0.0886 -0.4014  0.3387
 1786TIP3    H126993   1.969   4.860   0.516  0.4975 -0.1230  0.3316
 1786TIP3    H226994   2.066   4.835   0.403 -0.0344 -0.7684  0.0137
 1787TIP3   OH226995   2.889   0.348   7.158 -0.1383  0.1327 -0.0634
 1787TIP3    H126996   2.969   0.296   7.151  0.4442  0.8296  1.0283
 1787TIP3    H226997   2.844   0.334   7.075 -1.1310 -3.8543  0.9840
 1788TIP3   OH226998   4.533   5.115   0.634 -0.0663  0.2641 -0.6282
 1788TIP3    H126999   4.526   5.203   0.670 -1.0604 -0.1316  0.1819
 1788TIP3    H227000   4.593   5.070   0.692 -0.9189 -0.0919 -0.0071
 1789TIP3   OH227001   3.201   0.413   1.848  0.1053  0.1231 -0.3577
 1789TIP3    H127002   3.254   0.334   1.838  0.0180 -0.0307  0.3385
 1789TIP3    H227003   3.263   0.485   1.839  0.7933 -0.0648  2.1365
 1790TIP3   OH227004   3.341   0.839   8.528 -0.1106 -0.5605  0.3401
 1790TIP3    H127005   3.326   0.790   8.609 -0.2930 -0.0820  0.6046
 1790TIP3    H227006   3.257   0.882   8.510  0.4705  0.9070  0.9869
 1791TIP3   OH227007   4.313   3.430   1.120 -1.0827  0.0081  0.7180
 1791TIP3    H127008   4.300   3.477   1.037 -0.1438 -0.7799  0.0958
 1791TIP3    H227009   4.290   3.340   1.099 -0.7231 -0.2154  1.2886
 1792TIP3   OH227010   4.606   0.709   7.822 -0.3516  0.0133  0.2318
 1792TIP3    H127011   4.674   0.767   7.789  0.8246 -0.9450  0.8716
 1792TIP3    H227012   4.524   0.757   7.810  0.3259  0.8114 -1.4395
 1793TIP3   OH227013   1.611   4.941   8.642  0.3892 -0.3387  0.1471
 1793TIP3    H127014   1.702   4.928   8.669  0.3036 -1.1580  0.0620
 1793TIP3    H227015   1.572   4.854   8.646 -0.4901  0.0565  0.5180
 1794TIP3   OH227016   2.660   1.756   0.543 -0.4853 -1.1015  0.0273
 1794TIP3    H127017   2.614   1.712   0.614  0.7822  0.6043  2.0386
 1794TIP3    H227018   2.749   1.720   0.547  0.3748  0.9796  1.2504
 1795TIP3   OH227019   4.133   0.923   1.637 -0.1003  0.3078 -0.3246
 1795TIP3    H127020   4.055   0.922   1.582 -1.9581 -1.5644  2.1036
 1795TIP3    H227021   4.180   0.843   1.613 -2.4949 -2.2181  2.6179
 1796TIP3   OH227022   4.060   1.858   8.448  0.2475 -0.2317 -0.2752
 1796TIP3    H127023   4.044   1.772   8.487  0.3650 -0.3682 -0.5313
 1796TIP3    H227024   4.072   1.916   8.523 -0.0710 -0.3932 -0.0980
 1797TIP3   OH227025   3.892   1.661   8.215  0.1038 -0.1571 -0.2183
 1797TIP3    H127026   3.844   1.603   8.156  0.3519  0.3772 -0.9574
 1797TIP3    H227027   3.892   1.615   8.299 -1.2695 -0.3979 -0.3266
 1798TIP3   OH227028   6.572   1.846   7.556  0.6889 -0.4023 -0.1602
 1798TIP3    H127029   6.573   1.751   7.559 -2.0957 -0.4989  0.2816
 1798TIP3    H227030   6.506   1.868   7.490 -0.1257  1.1701  1.0939
 1799TIP3   OH227031   1.353   4.615   0.890 -0.1892  0.0189 -0.2139
 1799TIP3    H127032   1.295   4.556   0.842  1.8455 -1.5839 -0.8143
 1799TIP3    H227033   1.428   4.628   0.832  2.0529 -1.4534  2.1150
 1800TIP3   OH227034   0.197   1.077   0.839  0.1226 -0.3084  0.1289
 1800TIP3    H127035   0.169   1.159   0.798 -0.9831 -0.8898 -0.3142
 1800TIP3    H227036   0.229   1.024   0.766 -0.2187 -0.6930  0.2578
 1801TIP3   OH227037   3.788   2.315   0.463  0.1472  0.6186  0.3349
 1801TIP3    H127038   3.815   2.235   0.507 -0.4865  0.6785  0.8506
 1801TIP3    H227039   3.736   2.286   0.388  0.1353  0.5383  0.3745
 1802TIP3   OH227040   5.776   0.738   1.538  0.3495  0.2319  0.2468
 1802TIP3    H127041   5.822   0.818   1.561  0.6266  0.0201  0.4380
 1802TIP3    H227042   5.683   0.762   1.538  0.5259  1.2668 -2.4811
 1803TIP3   OH227043   0.502   5.049   0.870  0.2143 -0.6564  0.3282
 1803TIP3    H127044   0.582   5.094   0.845  0.4738 -0.3630  1.6096
 1803TIP3    H227045   0.488   5.074   0.962 -0.6976 -1.6365  0.4761
 1804TIP3   OH227046   2.256   2.212   8.492  0.2821 -0.3035  0.1311
 1804TIP3    H127047   2.274   2.303   8.514  1.5513 -0.1779 -1.2853
 1804TIP3    H227048   2.226   2.215   8.400 -1.1065 -1.1806  0.5188
 1805TIP3   OH227049   5.326   0.027   6.907 -0.3668 -0.2238  0.0735
 1805TIP3    H127050   5.388   0.090   6.945  0.5848  0.2894 -2.1530
 1805TIP3    H227051   5.333  -0.050   6.964  1.5367  0.2173  0.5161
 1806TIP3   OH227052   2.939   6.299   1.155 -0.2200  0.0735 -0.3845
 1806TIP3    H127053   2.971   6.234   1.217 -1.2740  1.3055  1.5299
 1806TIP3    H227054   3.004   6.298   1.084 -0.4709 -3.3895 -0.7284
 1807TIP3   OH227055   4.119   5.074   1.110 -0.4461 -0.4081 -0.9085
 1807TIP3    H127056   4.136   4.985   1.082  2.4440 -0.3200  0.2833
 1807TIP3    H227057   4.202   5.120   1.097 -1.4581  1.7579 -0.2043
 1808TIP3   OH227058   2.644   4.474   8.511  0.1661 -0.2683  0.6407
 1808TIP3    H127059   2.707   4.441   8.447  0.8478 -1.3893  1.8466
 1808TIP3    H227060   2.610   4.396   8.555 -2.9575  0.2036 -0.6963
 1809TIP3   OH227061   2.084   0.661   1.569 -0.2690 -0.3676  0.2301
 1809TIP3    H127062   2.178   0.654   1.582 -0.0656 -1.3976 -1.5185
 1809TIP3    H227063   2.046   0.619   1.646  0.6831 -0.0296  0.9058
 1810TIP3   OH227064   6.815   2.626   7.129  0.1151 -0.3811 -0.3976
 1810TIP3    H127065   6.842   2.560   7.065  2.1636 -2.7156  2.5956
 1810TIP3    H227066   6.719   2.626   7.124  0.1727 -1.2967 -2.5839
 1811TIP3   OH227067   3.184   6.846   1.664  0.0614 -0.4622 -0.5098
 1811TIP3    H127068   3.109   6.825   1.721  0.5579 -1.1098 -0.0822
 1811TIP3    H227069   3.154   6.822   1.576 -0.2482 -0.7036 -0.3449
 1812TIP3   OH227070   1.481   6.080   8.184 -0.0793 -0.5434  0.2277
 1812TIP3    H127071   1.477   6.024   8.262  1.4697 -1.3446 -0.2283
 1812TIP3    H227072   1.423   6.037   8.121  0.6090 -1.3129  0.0985
 1813TIP3   OH227073   1.156   0.505   7.345  0.3220  0.0775  0.3290
 1813TIP3    H127074   1.231   0.473   7.296 -0.6733 -0.5350 -0.8617
 1813TIP3    H227075   1.080   0.465   7.302 -0.7112  0.9610  1.2504
 1814TIP3   OH227076   2.703   4.120   7.366  0.3530 -0.1977 -0.1093
 1814TIP3    H127077   2.685   4.027   7.357 -2.2146 -0.0350  2.0397
 1814TIP3    H227078   2.622   4.157   7.402  1.5748  2.7283 -0.0363
 1815TIP3   OH227079   6.893   4.941   7.503  0.0098 -0.1106 -0.4912
 1815TIP3    H127080   6.917   4.970   7.591  1.5437 -0.0158 -0.9116
 1815TIP3    H227081   6.947   4.864   7.487  0.7526  0.6536 -1.8339
 1816TIP3   OH227082   2.633   2.597   2.643 -0.4384 -0.4045 -0.2065
 1816TIP3    H127083   2.566   2.665   2.634  0.9888  1.9520  3.9663
 1816TIP3    H227084   2.712   2.637   2.606  0.2170 -0.0167  1.5116
 1817TIP3   OH227085   5.154   5.892   8.298 -0.2411  0.1340 -0.8456
 1817TIP3    H127086   5.201   5.809   8.289 -0.7867 -0.3638  0.6040
 1817TIP3    H227087   5.213   5.948   8.348 -1.7914 -1.1590  2.8091
 1818TIP3   OH227088   4.772   0.729   1.409  0.1562  0.4712  0.0636
 1818TIP3    H127089   4.812   0.768   1.487 -1.2494  0.4578  0.8129
 1818TIP3    H227090   4.825   0.763   1.336  0.9498  1.1924  0.9498
 1819TIP3   OH227091   6.877   2.907   6.926 -0.3143 -0.0618 -0.3040
 1819TIP3    H127092   6.853   2.837   6.865  2.2178 -0.2243 -1.2494
 1819TIP3    H227093   6.970   2.891   6.945 -0.6075  0.9332  2.3708
 1820TIP3   OH227094   6.822   3.590   6.924 -0.6615  0.2143 -0.0736
 1820TIP3    H127095   6.880   3.653   6.881 -0.0632 -0.6683 -0.5765
 1820TIP3    H227096   6.805   3.629   7.010  0.8340  0.4003  0.1675
 1821TIP3   OH227097   0.891   5.342   2.031  0.4095 -0.4417 -0.0226
 1821TIP3    H127098   0.817   5.305   2.079  0.6960  1.0982  1.6882
 1821TIP3    H227099   0.851   5.392   1.960 -0.3417  1.3375  1.5540
 1822TIP3   OH227100   3.271   2.810   8.446 -0.1871 -0.3876 -0.2764
 1822TIP3    H127101   3.318   2.727   8.456 -1.0933 -0.8480  0.3193
 1822TIP3    H227102   3.306   2.848   8.366  2.1093 -0.0972  0.7684
 1823TIP3   OH227103   2.176   4.169   2.630  0.2184 -0.9156 -0.6079
 1823TIP3    H127104   2.104   4.108   2.647 -1.1164  1.2351  2.4609
 1823TIP3    H227105   2.254   4.123   2.663 -0.8568 -0.8738  2.3279
 1824TIP3   OH227106   2.491   4.140   2.275 -0.1012  0.0989  0.3688
 1824TIP3    H127107   2.508   4.233   2.265  2.2060 -0.2245  0.6086
 1824TIP3    H227108   2.510   4.121   2.367  0.6666 -0.7997  0.0458
 1825TIP3   OH227109   5.799   0.597   8.015 -0.1799  0.0490  0.5303
 1825TIP3    H127110   5.876   0.576   7.963 -0.8326  0.0900 -0.4950
 1825TIP3    H227111   5.738   0.525   7.998 -1.7976  1.7843 -1.7097
 1826TIP3   OH227112   0.555   2.709   1.453  0.2280 -0.0638 -0.2384
 1826TIP3    H127113   0.593   2.756   1.526  1.8527 -0.4416 -0.8109
 1826TIP3    H227114   0.630   2.678   1.401 -0.8224  1.8528 -3.1709
 1827TIP3   OH227115   0.248   2.782   7.497  0.1600  0.8018 -0.5353
 1827TIP3    H127116   0.207   2.778   7.410  1.9613  0.9083 -1.4284
 1827TIP3    H227117   0.287   2.869   7.501 -0.0807  0.8751  0.4892
 1828TIP3   OH227118   3.231   2.038   0.867 -0.3159 -0.5247  0.1351
 1828TIP3    H127119   3.158   2.050   0.928 -0.3996 -0.2212 -0.0191
 1828TIP3    H227120   3.282   2.119   0.875 -0.8958 -0.0256 -0.9404
 1829TIP3   OH227121   0.728   1.236   6.783 -0.7662 -0.3537  0.1973
 1829TIP3    H127122   0.809   1.190   6.806 -1.6095 -1.7648  0.5206
 1829TIP3    H227123   0.731   1.316   6.835  1.6123  0.9517 -1.7520
 1830TIP3   OH227124   0.300   6.208   0.942  0.9156  0.5628 -0.9364
 1830TIP3    H127125   0.241   6.155   0.995  2.6903 -0.6675 -0.0629
 1830TIP3    H227126   0.260   6.211   0.856 -0.5349  0.0047 -0.3044
 1831TIP3   OH227127   0.712   5.517   7.793 -0.4365 -0.1825 -0.3221
 1831TIP3    H127128   0.779   5.584   7.808  0.8075 -1.6085  0.8859
 1831TIP3    H227129   0.755   5.453   7.736 -0.4107 -1.5443  1.1510
 1832TIP3   OH227130   2.206   1.587   1.631 -0.2213  0.3516  0.1936
 1832TIP3    H127131   2.143   1.627   1.571  0.5373  1.5269  0.1404
 1832TIP3    H227132   2.191   1.632   1.715 -0.8928 -0.8840  0.7669
 1833TIP3   OH227133   5.536   1.462   7.744 -0.0926  0.1726  0.0258
 1833TIP3    H127134   5.549   1.368   7.742  0.5492  0.2360  0.8652
 1833TIP3    H227135   5.469   1.479   7.677 -2.0283 -1.1639  1.5012
 1834TIP3   OH227136   1.652   1.898   8.324  0.6116  0.3287  0.1249
 1834TIP3    H127137   1.626   1.846   8.248  3.2705 -0.6877 -0.1965
 1834TIP3    H227138   1.682   1.981   8.287 -0.1093  0.6864  0.3087
 1835TIP3   OH227139   1.978   1.902   7.499  0.3146 -0.3115  0.2465
 1835TIP3    H127140   1.892   1.861   7.509 -0.3541 -0.1030 -3.3113
 1835TIP3    H227141   1.974   1.980   7.554 -1.6502 -0.4778  0.4200
 1836TIP3   OH227142   0.252   0.740   1.514 -0.6222  0.3247 -0.2552
 1836TIP3    H127143   0.190   0.760   1.585 -1.7284  1.1868 -1.4232
 1836TIP3    H227144   0.263   0.823   1.468  2.9137  0.7143  0.9612
 1837TIP3   OH227145   1.313   2.976   6.534  0.3226 -0.6155  0.2259
 1837TIP3    H127146   1.388   2.943   6.584 -0.7853  0.3913  2.7084
 1837TIP3    H227147   1.260   2.897   6.516  1.6812 -1.2663 -1.1659
 1838TIP3   OH227148   0.932   3.497   7.131  0.6487  0.0529 -0.3575
 1838TIP3    H127149   0.966   3.425   7.185 -3.5178 -0.2689  2.2473
 1838TIP3    H227150   0.905   3.455   7.050 -1.4574 -1.4391  1.0161
 1839TIP3   OH227151   1.184   0.703   6.478  0.3764  0.0032  0.4032
 1839TIP3    H127152   1.177   0.659   6.562 -0.0909  1.7814  1.3492
 1839TIP3    H227153   1.133   0.784   6.489 -2.1360 -0.9654 -2.4838
 1840TIP3   OH227154   1.731   5.792   1.903  0.4105 -0.2891  0.5219
 1840TIP3    H127155   1.731   5.876   1.949  1.8747 -0.2883  0.5677
 1840TIP3    H227156   1.780   5.809   1.822 -0.7116 -0.7019 -0.2647
 1841TIP3   OH227157   3.801   0.736   1.787 -0.3982 -0.6627  0.1869
 1841TIP3    H127158   3.889   0.720   1.821  0.0223 -0.3271 -0.7220
 1841TIP3    H227159   3.806   0.711   1.695 -1.5637 -1.6893  0.3803
 1842TIP3   OH227160   4.293   2.332   1.487  0.2878  0.0876 -0.4075
 1842TIP3    H127161   4.256   2.284   1.561  1.5470  1.5347  1.2277
 1842TIP3    H227162   4.277   2.275   1.412 -3.9245 -0.0371  0.3272
 1843TIP3   OH227163   3.530   1.340   1.134 -0.2853 -0.5042  0.3160
 1843TIP3    H127164   3.616   1.381   1.129 -0.7590  0.4511 -0.3466
 1843TIP3    H227165   3.487   1.365   1.052 -1.4514 -0.3560  0.9536
 1844TIP3   OH227166   5.756   5.781   1.079  0.2877 -0.1468 -0.4023
 1844TIP3    H127167   5.833   5.761   1.132  0.2022 -2.0138 -0.9265
 1844TIP3    H227168   5.774   5.741   0.994 -1.4521 -1.0567 -0.3888
 1845TIP3   OH227169   3.298   3.074   0.775 -0.7397 -0.1889  0.0483
 1845TIP3    H127170   3.368   3.029   0.824 -1.8012 -1.5219  0.4116
 1845TIP3    H227171   3.255   3.003   0.726 -3.6247  0.0555  2.0040
 1846TIP3   OH227172   5.456   1.243   0.990  0.1364 -0.1461  0.7786
 1846TIP3    H127173   5.519   1.263   1.059  0.2647  3.1672 -0.1000
 1846TIP3    H227174   5.372   1.234   1.036  0.7227 -1.4977  1.6440
 1847TIP3   OH227175   1.370   3.869   8.575  0.1629 -0.6235  0.1146
 1847TIP3    H127176   1.432   3.930   8.537 -0.2704 -0.1252  0.1999
 1847TIP3    H227177   1.348   3.809   8.504  0.9891 -1.0165  0.1709
 1848TIP3   OH227178   1.104   5.552   8.509  0.3528  0.3077  0.0002
 1848TIP3    H127179   1.133   5.641   8.528 -0.0745  0.5392 -0.4174
 1848TIP3    H227180   1.034   5.535   8.572  0.3878  0.2945  0.0353
 1849TIP3   OH227181   3.029   0.115   8.410 -0.0520 -0.2073  0.1813
 1849TIP3    H127182   2.972   0.073   8.475  0.4568 -1.2814 -0.0415
 1849TIP3    H227183   2.971   0.135   8.337 -0.4653  0.2440  0.6251
 1850TIP3   OH227184   1.028   6.386   1.780 -0.3545  0.6199 -1.0694
 1850TIP3    H127185   1.123   6.378   1.788 -0.3620  0.9204 -0.6217
 1850TIP3    H227186   0.993   6.310   1.826 -0.3237  0.1441 -1.8159
 1851TIP3   OH227187   1.532   1.963   7.679  0.5267 -0.1399  0.4447
 1851TIP3    H127188   1.480   2.019   7.737 -1.6126 -1.5999  0.0635
 1851TIP3    H227189   1.506   1.874   7.703  1.6333 -0.8629 -0.9214
 1852TIP3   OH227190   6.502   4.797   0.493  0.3237  0.0842 -0.5258
 1852TIP3    H127191   6.430   4.756   0.444  0.1508 -0.6039  0.2843
 1852TIP3    H227192   6.542   4.857   0.430 -0.6437  0.1048 -1.1437
 1853TIP3   OH227193   0.665   6.039   7.256  0.0102  0.3608 -0.1803
 1853TIP3    H127194   0.699   5.998   7.177  1.7437 -0.5111  0.9657
 1853TIP3    H227195   0.738   6.040   7.317 -0.8897  2.2628  0.9771
 1854TIP3   OH227196   6.192   6.604   8.459 -0.4287  0.3349  0.5382
 1854TIP3    H127197   6.250   6.634   8.389 -0.7471 -0.8672 -0.2768
 1854TIP3    H227198   6.104   6.617   8.423 -0.6711  1.6115  1.5362
 1855TIP3   OH227199   2.807   0.336   1.509  0.3311 -0.2600 -0.5886
 1855TIP3    H127200   2.859   0.376   1.579 -1.4439 -0.6584  1.0483
 1855TIP3    H227201   2.752   0.407   1.476  0.1034 -0.4135 -0.5410
 1856TIP3   OH227202   3.295   1.474   1.214 -0.4697  0.4017 -0.1886
 1856TIP3    H127203   3.383   1.437   1.220 -1.0656 -0.9784  0.4750
 1856TIP3    H227204   3.305   1.548   1.154  1.1698  0.4007  0.0199
 1857TIP3   OH227205   0.188   0.509   0.201  0.8969 -0.0995  0.6160
 1857TIP3    H127206   0.118   0.572   0.182  0.0698 -1.1884 -0.0459
 1857TIP3    H227207   0.263   0.564   0.228 -0.1895  1.0867  1.3548
 1858TIP3   OH227208   0.915   3.365   1.724 -0.1545 -0.4547  0.2658
 1858TIP3    H127209   0.996   3.388   1.679 -0.4709  1.1247  0.4650
 1858TIP3    H227210   0.904   3.271   1.707  1.8492 -0.7759  0.4612
 1859TIP3   OH227211   6.868   6.381   8.358 -0.0984  0.3537  0.0903
 1859TIP3    H127212   6.860   6.289   8.336  0.9493  0.0814  0.7453
 1859TIP3    H227213   6.953   6.407   8.322 -0.9630  1.4399 -1.2836
 1860TIP3   OH227214   3.614   5.213   1.523  0.6203  0.2650  0.0963
 1860TIP3    H127215   3.632   5.307   1.530  1.0919  0.1881 -0.0448
 1860TIP3    H227216   3.639   5.191   1.434  0.6208 -0.0194  0.1671
 1861TIP3   OH227217   1.321   0.950   7.352  0.3157 -0.3917  0.1683
 1861TIP3    H127218   1.309   1.043   7.370 -2.0225 -0.8492  1.2497
 1861TIP3    H227219   1.270   0.933   7.274  0.9694 -0.7419 -0.1968
 1862TIP3   OH227220   4.328   6.880   2.013  1.1185 -1.0988 -0.7886
 1862TIP3    H127221   4.311   6.834   2.095  1.5720 -0.3950 -0.2845
 1862TIP3    H227222   4.416   6.854   1.988  0.0142 -3.4952 -2.5563
 1863TIP3   OH227223   2.091   2.493   1.534  0.5288  0.3077 -0.0991
 1863TIP3    H127224   2.015   2.541   1.499 -0.4238 -0.9452  0.1723
 1863TIP3    H227225   2.067   2.401   1.525  1.6704 -0.0977  0.8008
 1864TIP3   OH227226   3.018   5.910   7.178 -0.0111 -0.4196  0.5635
 1864TIP3    H127227   2.999   6.002   7.196  0.2761 -0.5913  1.8143
 1864TIP3    H227228   3.047   5.874   7.262  1.9826 -1.1409 -0.3841
 1865TIP3   OH227229   4.932   4.819   7.374  0.3130  0.3731  0.6492
 1865TIP3    H127230   4.944   4.914   7.381  2.7177  0.1325  0.5255
 1865TIP3    H227231   4.871   4.798   7.445 -2.0719  2.2339 -0.7117
 1866TIP3   OH227232   2.820   4.005   0.432 -0.0796 -0.1432  0.4803
 1866TIP3    H127233   2.893   4.035   0.486  1.5297 -1.8427 -0.6019
 1866TIP3    H227234   2.791   3.924   0.475 -0.8606  0.1323  0.4854
 1867TIP3   OH227235   3.549   4.754   7.566  0.1735 -0.0137 -0.2096
 1867TIP3    H127236   3.496   4.791   7.496  1.3537 -0.0333 -1.1299
 1867TIP3    H227237   3.627   4.809   7.569  0.0506  0.1383  1.2659
 1868TIP3   OH227238   5.908   2.479   7.491 -0.4624  0.3358 -0.2914
 1868TIP3    H127239   5.968   2.407   7.511 -0.1105  0.3461 -1.2520
 1868TIP3    H227240   5.906   2.531   7.571  0.2898 -0.0418 -0.0170
 1869TIP3   OH227241   3.236   0.543   7.450  0.0785  0.2369  0.7052
 1869TIP3    H127242   3.143   0.564   7.456 -0.4770 -1.9212  0.5544
 1869TIP3    H227243   3.238   0.452   7.421  2.2777  0.6377 -0.6331
 1870TIP3   OH227244   6.377   2.720   1.383 -0.4693  0.3877  0.1728
 1870TIP3    H127245   6.419   2.650   1.433  1.0810  0.5211 -0.8821
 1870TIP3    H227246   6.335   2.775   1.450  1.1162  0.2821  1.3208
 1871TIP3   OH227247   3.095   1.432   8.468 -0.0267  0.0827 -0.2095
 1871TIP3    H127248   3.024   1.449   8.407 -0.6216 -0.4964  0.3043
 1871TIP3    H227249   3.066   1.469   8.551  0.6700  0.6443 -0.2019
 1872TIP3   OH227250   2.781   2.443   1.587  0.3764  0.1984 -0.4367
 1872TIP3    H127251   2.694   2.404   1.578  0.0653  1.0715 -1.3840
 1872TIP3    H227252   2.767   2.520   1.641  0.5855  0.2622 -0.4732
 1873TIP3   OH227253   6.324   1.362   0.447  0.5515 -0.0884  0.5200
 1873TIP3    H127254   6.263   1.295   0.415  0.6010 -0.4834  1.2535
 1873TIP3    H227255   6.289   1.444   0.411 -1.3908 -0.0756  2.2843
 1874TIP3   OH227256   0.522   0.064   7.588  0.3349 -0.2205 -0.5435
 1874TIP3    H127257   0.430   0.079   7.563 -0.4063  1.0501  2.5297
 1874TIP3    H227258   0.522   0.068   7.683  3.3201 -2.1880 -0.3439
 1875TIP3   OH227259   4.160   4.266   0.182 -0.6679  0.3739  0.1636
 1875TIP3    H127260   4.165   4.241   0.090  1.3892 -0.3991  0.4348
 1875TIP3    H227261   4.242   4.314   0.198 -0.3153 -0.7223  1.9143
 1876TIP3   OH227262   2.573   3.042   7.963  0.0196  0.2060  0.3386
 1876TIP3    H127263   2.572   2.966   8.021  3.7784  0.6682  1.3278
 1876TIP3    H227264   2.499   3.096   7.991 -2.2922 -2.6057  0.1088
 1877TIP3   OH227265   3.104   3.053   7.348 -0.1595 -0.1091 -0.7954
 1877TIP3    H127266   3.161   3.109   7.400 -2.0704 -0.1847  1.5921
 1877TIP3    H227267   3.160   2.980   7.321  0.8423 -0.3656  1.7235
 1878TIP3   OH227268   1.610   1.954   0.054 -0.5377  0.6897  0.0901
 1878TIP3    H127269   1.625   2.041   0.017  0.8826  1.8509  3.0174
 1878TIP3    H227270   1.671   1.898   0.007 -0.0854  1.7004 -0.5731
 1879TIP3   OH227271   3.914   6.227   7.297  0.7822  0.4349 -0.8005
 1879TIP3    H127272   3.827   6.234   7.335  1.8032  0.4839  1.7542
 1879TIP3    H227273   3.935   6.316   7.270  1.2426  1.1766  1.6899
 1880TIP3   OH227274   2.208   2.026   7.439 -0.0226 -0.0685 -0.1202
 1880TIP3    H127275   2.219   2.031   7.344  3.5587 -2.2949 -0.0323
 1880TIP3    H227276   2.125   1.980   7.451 -1.0857  1.1901 -2.0847
 1881TIP3   OH227277   4.458   0.446   2.405  0.5358  0.1259 -0.5292
 1881TIP3    H127278   4.442   0.390   2.481  0.7668  0.7717 -0.0029
 1881TIP3    H227279   4.387   0.510   2.407 -0.1020 -0.5224 -1.5006
 1882TIP3   OH227280   2.101   2.839   8.036  0.2739  0.0690  0.6765
 1882TIP3    H127281   2.162   2.913   8.037 -0.8491  1.1045 -1.1526
 1882TIP3    H227282   2.015   2.880   8.045 -0.2410 -1.3238  2.7250
 1883TIP3   OH227283   3.891   0.221   0.016 -1.1285 -0.1358  0.4575
 1883TIP3    H127284   3.888   0.312  -0.013  1.3496 -0.3774 -0.8494
 1883TIP3    H227285   3.946   0.223   0.095  2.9593 -0.8336 -2.0421
 1884TIP3   OH227286   1.743   1.093   1.651  0.0465  0.3300  0.1316
 1884TIP3    H127287   1.704   1.047   1.725  0.3060  0.6413  0.4621
 1884TIP3    H227288   1.740   1.185   1.675  1.3193  0.3335  0.3337
 1885TIP3   OH227289   2.683   0.662   6.674  0.5156  0.1068 -0.1228
 1885TIP3    H127290   2.687   0.686   6.767  1.2858 -1.1248  0.1976
 1885TIP3    H227291   2.765   0.614   6.659  1.2228  1.7300 -1.8824
 1886TIP3   OH227292   4.662   1.649   2.312 -0.3675  0.1842 -0.0285
 1886TIP3    H127293   4.619   1.730   2.285  0.1704  1.4146  2.4612
 1886TIP3    H227294   4.688   1.665   2.403 -2.8749 -3.8096  1.7097
 1887TIP3   OH227295   1.036   3.067   7.425  0.2787  0.0068 -0.2555
 1887TIP3    H127296   1.043   2.979   7.461  0.8265  0.0073 -0.3639
 1887TIP3    H227297   0.941   3.082   7.420  0.1829 -0.4473  0.0647
 1888TIP3   OH227298   1.509   0.814   0.206  0.3217  0.0962  0.5437
 1888TIP3    H127299   1.483   0.769   0.286 -0.5824 -0.8678 -0.2709
 1888TIP3    H227300   1.438   0.798   0.145  1.1385  0.5517 -0.5587
 1889TIP3   OH227301   4.755   4.451   0.953  0.0824  0.1262 -0.0243
 1889TIP3    H127302   4.752   4.383   0.887  1.9774 -0.0987  0.0728
 1889TIP3    H227303   4.692   4.423   1.019 -0.8085 -0.3557 -1.0608
 1890TIP3   OH227304   5.860   5.063   2.088  0.1120 -0.3718  0.4830
 1890TIP3    H127305   5.886   5.134   2.029 -0.9635 -0.4227 -0.0638
 1890TIP3    H227306   5.866   4.984   2.035  0.8783 -0.6541  0.9679
 1891TIP3   OH227307   1.601   1.330   6.919  0.5481  0.0897 -0.6411
 1891TIP3    H127308   1.629   1.256   6.866 -1.2174 -2.1657  1.3625
 1891TIP3    H227309   1.665   1.335   6.989  0.2703  0.0037 -0.3796
 1892TIP3   OH227310   1.233   0.042   8.179  0.0847  0.1212  0.2334
 1892TIP3    H127311   1.160   0.081   8.131  0.6094  1.2901  0.3351
 1892TIP3    H227312   1.304   0.038   8.114  0.1566 -0.2955  0.3376
 1893TIP3   OH227313   4.244   5.239   0.871  0.0338  0.0062 -0.0778
 1893TIP3    H127314   4.178   5.307   0.883  0.9343  1.1969 -1.5959
 1893TIP3    H227315   4.304   5.249   0.944  0.6554  1.4538 -0.7649
 1894TIP3   OH227316   5.735   4.695   1.498  0.1914 -0.1361  0.0673
 1894TIP3    H127317   5.796   4.720   1.428 -1.9449 -2.2078 -2.7877
 1894TIP3    H227318   5.653   4.739   1.475 -0.7717 -1.4508  0.8464
 1895TIP3   OH227319   1.647   5.089   0.729  0.3853  0.4654 -0.0409
 1895TIP3    H127320   1.650   5.118   0.821 -0.0924  0.6119 -0.0671
 1895TIP3    H227321   1.557   5.108   0.701 -0.1040 -1.4450  0.0718
 1896TIP3   OH227322   0.569   6.797   6.977 -0.7668  0.1966  0.5770
 1896TIP3    H127323   0.478   6.823   6.990 -0.2562  2.0515  0.8587
 1896TIP3    H227324   0.614   6.879   6.953  0.7921 -0.6974  0.2839
 1897TIP3   OH227325   5.762   0.037   7.197  0.2827 -0.0276 -0.4498
 1897TIP3    H127326   5.710  -0.026   7.147 -0.0284  0.8563 -1.2523
 1897TIP3    H227327   5.776   0.110   7.138 -0.6888  1.3663  0.9337
 1898TIP3   OH227328   0.295   1.013   7.041 -0.2281  0.1800  0.1064
 1898TIP3    H127329   0.253   0.956   7.106  0.2270  1.6977  1.8086
 1898TIP3    H227330   0.384   1.025   7.073 -0.4613  2.2536  0.1038
 1899TIP3   OH227331   2.844   4.887   0.933 -0.5951  0.1307 -0.4253
 1899TIP3    H127332   2.904   4.904   1.005  0.0734  1.2678 -1.2152
 1899TIP3    H227333   2.768   4.846   0.973  0.0127  0.1985  0.8268
 1900TIP3   OH227334   6.148   6.162   1.664  0.1809 -0.0489 -0.3240
 1900TIP3    H127335   6.172   6.240   1.613 -0.5889 -0.1830 -0.8966
 1900TIP3    H227336   6.053   6.157   1.658  0.1336 -0.4389  0.5972
 1901TIP3   OH227337   2.686   3.568   8.426 -0.1692  0.1204  0.0768
 1901TIP3    H127338   2.617   3.528   8.374  0.5536 -0.8902 -0.1175
 1901TIP3    H227339   2.697   3.655   8.388  0.4881 -0.6630 -1.6090
 1902TIP3   OH227340   2.224   0.866   1.742 -0.7082 -0.1374 -0.2105
 1902TIP3    H127341   2.156   0.931   1.724 -1.2241 -0.1805  1.4262
 1902TIP3    H227342   2.282   0.869   1.665 -1.2349  1.5748 -0.5688
 1903TIP3   OH227343   4.081   0.103   8.520  0.5409  0.5906 -0.0738
 1903TIP3    H127344   4.127   0.147   8.448  1.2594  0.5249  0.3385
 1903TIP3    H227345   4.027   0.172   8.559  1.2136  0.9812  0.1990
 1904TIP3   OH227346   1.904   2.436   8.004  0.0617  0.2590  0.9336
 1904TIP3    H127347   1.894   2.358   7.949  2.2007  0.4590  0.1659
 1904TIP3    H227348   1.896   2.510   7.944  1.8255  0.4963  0.9347
 1905TIP3   OH227349   3.351   2.779   7.704  0.3258 -0.0491 -0.0574
 1905TIP3    H127350   3.322   2.690   7.722  0.3436  0.0315  0.3831
 1905TIP3    H227351   3.393   2.773   7.617  0.6152 -0.5352  0.1090
 1906TIP3   OH227352   4.810   6.397   7.155  0.3215  0.1779 -0.2834
 1906TIP3    H127353   4.828   6.388   7.248  4.3141 -0.4808 -0.9420
 1906TIP3    H227354   4.779   6.310   7.128 -2.7217  0.8670  0.6098
 1907TIP3   OH227355   2.380   6.870   0.735 -0.4681  0.3097 -0.3803
 1907TIP3    H127356   2.317   6.834   0.673 -0.6340  0.2730 -0.1896
 1907TIP3    H227357   2.328   6.927   0.792 -0.5984 -0.9105  0.7495
 1908TIP3   OH227358   6.566   6.223   1.187 -0.0928 -0.1796 -0.3970
 1908TIP3    H127359   6.611   6.164   1.248 -1.1582 -0.9263 -0.3002
 1908TIP3    H227360   6.556   6.305   1.235  0.4804 -0.2495 -0.1493
 1909TIP3   OH227361   4.741   4.016   7.214  0.0561 -0.5596 -0.4585
 1909TIP3    H127362   4.749   4.080   7.143  0.3523 -0.8169 -0.6572
 1909TIP3    H227363   4.824   3.968   7.213  1.0206  0.9363  1.5233
 1910TIP3   OH227364   5.956   4.417   0.957  0.4664  0.3803  0.3135
 1910TIP3    H127365   5.941   4.379   1.043 -1.6287 -1.4845 -0.7506
 1910TIP3    H227366   5.959   4.512   0.972  0.4726  0.0800  2.4501
 1911TIP3   OH227367   3.231   3.195   7.713 -0.3377  0.2233  0.0554
 1911TIP3    H127368   3.284   3.272   7.731 -0.1693  0.4728 -1.4260
 1911TIP3    H227369   3.252   3.171   7.623 -0.5492 -1.4352  0.4100
 1912TIP3   OH227370   2.122   1.648   0.064  0.2174 -0.0081  0.0048
 1912TIP3    H127371   2.078   1.724   0.026  0.0869  0.6743  1.4661
 1912TIP3    H227372   2.197   1.684   0.111 -0.1070 -0.7250  1.1027
 1913TIP3   OH227373   6.312   1.669   0.090 -0.3719 -0.3694  0.5719
 1913TIP3    H127374   6.370   1.637   0.021 -0.3842 -0.6968  0.7119
 1913TIP3    H227375   6.224   1.653   0.057 -0.4610  1.9987 -0.5540
 1914TIP3   OH227376   3.312   0.517   7.713  0.6000  0.1810 -0.2619
 1914TIP3    H127377   3.316   0.421   7.712 -2.2851 -0.0537  0.8801
 1914TIP3    H227378   3.282   0.541   7.626  0.0170 -0.0970 -0.1459
 1915TIP3   OH227379   3.074   4.143   8.104  0.4986 -0.2435  0.3030
 1915TIP3    H127380   3.020   4.125   8.181 -0.2193 -1.0010 -0.3608
 1915TIP3    H227381   3.045   4.079   8.039 -0.7901  2.0673 -1.5368
 1916TIP3   OH227382   6.872   1.530   0.066  0.6367  0.3798  0.4743
 1916TIP3    H127383   6.920   1.458   0.107  0.6455 -1.5189 -2.5233
 1916TIP3    H227384   6.780   1.510   0.083  0.5962 -0.8967 -1.0465
 1917TIP3   OH227385   1.241   5.726   8.216 -0.2534 -0.6795 -0.2379
 1917TIP3    H127386   1.240   5.634   8.190  3.8179 -0.8594 -0.4260
 1917TIP3    H227387   1.259   5.773   8.135 -1.6021  0.2797 -0.0151
 1918TIP3   OH227388   1.178   6.166   0.244 -0.1034  0.1860  0.1979
 1918TIP3    H127389   1.179   6.148   0.150  1.3024 -0.7815  0.3588
 1918TIP3    H227390   1.110   6.109   0.278 -0.9889  0.9296 -0.2851
 1919TIP3   OH227391   1.664   6.262   7.654 -0.4575  0.2887 -0.3254
 1919TIP3    H127392   1.672   6.174   7.690 -1.6195 -0.0062 -0.7360
 1919TIP3    H227393   1.569   6.278   7.649 -0.2802  2.0287  0.8590
 1920TIP3   OH227394   6.699   0.881   8.362  0.3927  0.1028  0.6108
 1920TIP3    H127395   6.720   0.826   8.286 -0.4179  0.5931  0.0142
 1920TIP3    H227396   6.659   0.820   8.425 -0.6428  0.0020 -0.1055
 1921TIP3   OH227397   0.662   6.168   1.174  0.0386 -0.0358  0.0605
 1921TIP3    H127398   0.748   6.203   1.149 -0.0285  0.1063  0.0311
 1921TIP3    H227399   0.618   6.242   1.216  0.5887 -0.5560  1.6585
 1922TIP3   OH227400   3.733   2.550   7.608  0.5799 -0.2389  0.6217
 1922TIP3    H127401   3.817   2.510   7.582  0.1815 -0.4386 -0.4108
 1922TIP3    H227402   3.740   2.560   7.702  2.0357  0.3494  0.4805
 1923TIP3   OH227403   6.350   5.343   1.095  0.1979 -0.4688 -0.2348
 1923TIP3    H127404   6.423   5.403   1.078  1.3092 -1.5542  0.5028
 1923TIP3    H227405   6.344   5.291   1.015 -0.9648  0.7739 -0.9942
 1924TIP3   OH227406   3.969   6.379   1.263 -0.0652 -0.2123  0.3560
 1924TIP3    H127407   4.038   6.324   1.226 -0.0415 -1.0261  1.5314
 1924TIP3    H227408   3.953   6.341   1.350 -1.0667  0.7722  0.6217
 1925TIP3   OH227409   4.470   0.440   1.625  0.4336 -0.0538 -0.3352
 1925TIP3    H127410   4.492   0.484   1.707  0.4070  0.4467 -0.5947
 1925TIP3    H227411   4.387   0.396   1.644 -0.7955  1.9307 -0.7327
 1926TIP3   OH227412   3.065   4.403   7.963  0.1829  0.4023  0.0715
 1926TIP3    H127413   3.080   4.313   7.993  0.0541  0.1733 -0.5327
 1926TIP3    H227414   3.013   4.393   7.883 -0.6644  1.0560  0.5189
 1927TIP3   OH227415   3.419   3.288   0.911 -0.2488  0.0006 -0.0074
 1927TIP3    H127416   3.356   3.223   0.880  0.3266 -0.0448 -1.1516
 1927TIP3    H227417   3.443   3.337   0.832  1.9799 -0.7174  0.1556
 1928TIP3   OH227418   5.799   3.478   1.501  0.0638 -0.1113 -0.3409
 1928TIP3    H127419   5.785   3.520   1.586 -0.4986 -1.0185  0.0297
 1928TIP3    H227420   5.867   3.532   1.459  1.3470 -0.4175  1.2249
 1929TIP3   OH227421   1.097   1.943   6.930  0.0916 -0.0659 -0.3783
 1929TIP3    H127422   1.178   1.905   6.963 -0.9022 -3.3160 -1.2817
 1929TIP3    H227423   1.115   1.960   6.837 -0.0184 -0.1395 -0.4142
 1930TIP3   OH227424   3.491   3.018   1.466 -0.4861  0.4273  0.1763
 1930TIP3    H127425   3.423   3.045   1.403  0.6389  2.5198 -0.2491
 1930TIP3    H227426   3.497   3.092   1.527  0.0989 -0.5538  1.3434
 1931TIP3   OH227427   1.108   4.471   0.095  0.3969 -0.0064  0.3420
 1931TIP3    H127428   1.105   4.555   0.048 -2.9514 -1.0863 -1.7204
 1931TIP3    H227429   1.047   4.481   0.168 -0.9365 -0.9287 -0.5999
 1932TIP3   OH227430   5.146   2.817   0.317 -0.2388  0.7995 -0.9163
 1932TIP3    H127431   5.231   2.787   0.287 -0.8493  0.2495 -2.1837
 1932TIP3    H227432   5.108   2.861   0.241 -0.7390  1.8226 -0.1082
 1933TIP3   OH227433   4.454   1.326   1.009  0.6270 -0.0511  0.2445
 1933TIP3    H127434   4.473   1.275   0.930  1.3085  1.1835 -0.4346
 1933TIP3    H227435   4.489   1.414   0.989  0.4684  0.3876  1.7736
 1934TIP3   OH227436   5.362   3.240   7.692  0.1931  0.5655  0.2080
 1934TIP3    H127437   5.452   3.272   7.696  1.0190 -1.4186 -0.9326
 1934TIP3    H227438   5.370   3.145   7.702 -1.8940  0.4219  1.1004
 1935TIP3   OH227439   1.927   3.748   0.631  0.5575  0.1592  0.6973
 1935TIP3    H127440   2.008   3.743   0.681  1.1161  1.4936 -0.0117
 1935TIP3    H227441   1.948   3.708   0.547  0.6840  1.0513  0.2920
 1936TIP3   OH227442   3.340   6.827   0.171  0.3601  0.5772  0.3620
 1936TIP3    H127443   3.392   6.798   0.096  2.0626 -2.9485  2.6499
 1936TIP3    H227444   3.403   6.876   0.225  0.1411  0.0578  1.0995
 1937TIP3   OH227445   5.635   4.724   8.494  0.6699 -0.6529  0.0194
 1937TIP3    H127446   5.654   4.630   8.493 -0.6344 -0.9649  1.5068
 1937TIP3    H227447   5.683   4.758   8.569  1.5068 -0.0085 -0.7779
 1938TIP3   OH227448   1.640   4.080   2.043 -0.5763 -0.7254  0.2434
 1938TIP3    H127449   1.615   4.155   2.097  0.6520  0.0225 -0.1580
 1938TIP3    H227450   1.614   4.004   2.093 -1.4324 -0.0244  0.8848
 1939TIP3   OH227451   3.846   6.259   8.058  0.7682  0.0382 -0.1394
 1939TIP3    H127452   3.843   6.332   7.995  0.1078  1.7466  1.7291
 1939TIP3    H227453   3.935   6.260   8.092  1.5417 -1.7721 -1.9264
 1940TIP3   OH227454   2.396   0.875   7.504  0.3340  0.5763 -0.2555
 1940TIP3    H127455   2.359   0.806   7.559 -0.2612  1.2193  0.1658
 1940TIP3    H227456   2.330   0.890   7.437  0.6691  0.4176 -0.6256
 1941TIP3   OH227457   0.507   6.250   0.336 -0.4720  0.5709  0.1579
 1941TIP3    H127458   0.434   6.226   0.279 -0.9383  0.1201  0.9211
 1941TIP3    H227459   0.559   6.312   0.285 -0.4752 -0.3787 -1.0186
 1942TIP3   OH227460   5.439   1.693   8.071 -0.1611  0.6419 -0.6499
 1942TIP3    H127461   5.480   1.612   8.102 -2.1316 -0.8395 -1.7604
 1942TIP3    H227462   5.424   1.743   8.151 -1.5533 -1.3765  0.4396
 1943TIP3   OH227463   4.424   3.710   1.647 -0.3317  0.8228  0.2451
 1943TIP3    H127464   4.457   3.799   1.635  2.4305  0.2274  2.4806
 1943TIP3    H227465   4.428   3.694   1.741  0.9048 -2.2076 -0.1826
 1944TIP3   OH227466   5.443   2.076   6.717  0.3974  0.2935  0.0403
 1944TIP3    H127467   5.522   2.099   6.668  0.2836  1.1310  0.2220
 1944TIP3    H227468   5.422   1.987   6.690  1.3293  0.1074 -0.1082
 1945TIP3   OH227469   4.622   5.630   0.206 -0.0045  0.2608  0.3524
 1945TIP3    H127470   4.681   5.594   0.140  0.4282  0.1978  0.7657
 1945TIP3    H227471   4.678   5.647   0.282 -0.3432  1.1221  0.4152
 1946TIP3   OH227472   3.314   5.774   7.273  0.2711  0.2008  0.1084
 1946TIP3    H127473   3.241   5.760   7.334 -0.0885 -0.2375 -0.4171
 1946TIP3    H227474   3.363   5.692   7.274 -0.2281 -0.1228 -0.8375
 1947TIP3   OH227475   1.223   4.149   2.336 -0.6674  0.0023  0.8148
 1947TIP3    H127476   1.233   4.244   2.330  0.2970 -0.1357  0.1598
 1947TIP3    H227477   1.220   4.132   2.431 -0.0840  0.6060  0.9489
 1948TIP3   OH227478   5.967   1.491   8.024  0.1296  0.2710  0.8834
 1948TIP3    H127479   5.957   1.432   7.950  1.1546 -0.1217  1.0413
 1948TIP3    H227480   6.030   1.557   7.993  0.8089 -0.0729  1.4911
 1949TIP3   OH227481   0.360   6.022   7.728  0.5928  0.1534 -0.1647
 1949TIP3    H127482   0.388   5.931   7.715  2.2174 -0.1868  4.0688
 1949TIP3    H227483   0.292   6.017   7.795  0.4576  2.0258 -0.0968
 1950TIP3   OH227484   1.100   6.549   0.595  0.1014 -0.0222 -0.5532
 1950TIP3    H127485   1.032   6.501   0.550 -0.3273 -0.2282  0.2869
 1950TIP3    H227486   1.105   6.509   0.682  0.6069  0.6239 -0.2677
 1951TIP3   OH227487   0.705   5.217   2.179 -0.1774  0.2413  0.1653
 1951TIP3    H127488   0.728   5.244   2.268  0.9985  0.7687 -0.2852
 1951TIP3    H227489   0.733   5.126   2.174  1.9444  0.8817 -0.3847
 1952TIP3   OH227490   5.248   5.316   1.247 -0.0640 -0.6052  0.6242
 1952TIP3    H127491   5.315   5.383   1.237 -0.9178  0.2197  0.2483
 1952TIP3    H227492   5.187   5.332   1.175 -0.9388 -1.0114  1.2500
 1953TIP3   OH227493   1.472   5.226   1.265  0.3647 -0.3883 -0.2444
 1953TIP3    H127494   1.434   5.139   1.267 -1.9649  0.5644 -0.5363
 1953TIP3    H227495   1.486   5.245   1.172  1.9517 -0.8571 -0.1272
 1954TIP3   OH227496   4.173   2.842   1.324 -0.2589  0.5582 -0.1755
 1954TIP3    H127497   4.107   2.829   1.392  0.3710 -0.1660  0.3182
 1954TIP3    H227498   4.214   2.926   1.345 -0.8341  0.8772 -0.3250
 1955TIP3   OH227499   2.552   4.174   8.003 -0.2930 -0.3151 -0.2154
 1955TIP3    H127500   2.498   4.217   7.937 -2.0526 -1.7099  0.2490
 1955TIP3    H227501   2.560   4.238   8.074 -1.1406  0.0128 -0.4038
 1956TIP3   OH227502   1.682   5.268   0.374 -0.9184  0.4807 -0.0641
 1956TIP3    H127503   1.648   5.330   0.310 -1.5020  1.1718  0.8935
 1956TIP3    H227504   1.627   5.191   0.366 -0.2328  0.0929 -1.2141
 1957TIP3   OH227505   2.188   2.280   0.372  0.6981 -0.1259 -0.1536
 1957TIP3    H127506   2.247   2.228   0.317  0.5770  0.8803 -1.2664
 1957TIP3    H227507   2.131   2.326   0.310  2.0286  2.8173  0.6312
 1958TIP3   OH227508   2.522   2.345   0.101 -0.0665 -0.3317 -0.0422
 1958TIP3    H127509   2.498   2.252   0.096  0.3556 -0.4168 -0.6458
 1958TIP3    H227510   2.614   2.347   0.077  0.4524  0.0367  1.8171
 1959TIP3   OH227511   4.256   2.065   0.325  0.1208  0.3570 -0.7504
 1959TIP3    H127512   4.237   1.972   0.342  1.3490 -0.0909 -1.6428
 1959TIP3    H227513   4.181   2.095   0.273 -0.9222  0.2504  0.6258
 1960TIP3   OH227514   1.130   1.652   8.056 -0.1951 -0.0504  0.1331
 1960TIP3    H127515   1.116   1.636   7.963  0.1006 -3.0984  0.4990
 1960TIP3    H227516   1.062   1.714   8.081 -0.1731  0.9655 -2.1069
 1961TIP3   OH227517   2.470   3.319   7.201  0.7920 -0.2447  0.4288
 1961TIP3    H127518   2.492   3.253   7.135  2.3864  0.0420  0.6430
 1961TIP3    H227519   2.517   3.290   7.280  0.3127  0.3613  0.9469
 1962TIP3   OH227520   0.989   4.169   8.223 -0.1437 -0.2796  0.1125
 1962TIP3    H127521   1.057   4.130   8.169 -0.6896 -0.4606 -0.4480
 1962TIP3    H227522   0.920   4.103   8.227 -0.7542  0.3245 -0.2316
 1963TIP3   OH227523   6.267   4.344   0.495 -0.1809  0.2413 -0.5641
 1963TIP3    H127524   6.212   4.418   0.520 -0.7885 -0.6761  0.9534
 1963TIP3    H227525   6.355   4.379   0.491 -0.5632  1.2230 -0.7268
 1964TIP3   OH227526   0.173   2.380   0.067 -0.5388  0.1733  0.0247
 1964TIP3    H127527   0.152   2.291   0.095 -0.6140  0.1522 -0.0945
 1964TIP3    H227528   0.269   2.382   0.063 -0.5502 -0.0532 -0.4447
 1965TIP3   OH227529   0.847   6.889   6.976  0.2643 -0.1013  0.7628
 1965TIP3    H127530   0.782   6.934   6.921  0.4376 -0.3793  0.3212
 1965TIP3    H227531   0.852   6.942   7.055 -0.5435 -0.1068  0.8281
 1966TIP3   OH227532   0.795   2.302   2.337 -0.7243  0.0301  0.1687
 1966TIP3    H127533   0.758   2.298   2.249 -1.3820  1.6269  0.3257
 1966TIP3    H227534   0.801   2.211   2.366  1.3531 -0.7018 -2.2468
 1967TIP3   OH227535   2.081   4.501   1.676  0.1405  0.2830  0.2606
 1967TIP3    H127536   2.014   4.561   1.644 -2.0366 -2.5065 -0.9509
 1967TIP3    H227537   2.163   4.549   1.670 -1.1379  2.3889 -2.6505
 1968TIP3   OH227538   1.265   6.341   1.610  0.1083 -0.2284 -0.0128
 1968TIP3    H127539   1.265   6.428   1.571 -1.0625  0.1778  0.8211
 1968TIP3    H227540   1.330   6.347   1.680 -0.9514  0.4522  0.9600
 1969TIP3   OH227541   5.865   1.496   0.147  0.1188  0.3651  0.0446
 1969TIP3    H127542   5.833   1.541   0.068 -0.4708 -1.3375 -0.7493
 1969TIP3    H227543   5.940   1.547   0.175  1.0741  0.4014 -2.3259
 1970TIP3   OH227544   6.440   4.951   7.272 -0.2946 -0.2515  0.1757
 1970TIP3    H127545   6.505   4.938   7.341 -0.0855 -0.9045 -0.1399
 1970TIP3    H227546   6.401   5.036   7.292 -0.2543 -0.4421  1.1114
 1971TIP3   OH227547   0.512   0.722   1.437 -0.2938  0.1807  0.1111
 1971TIP3    H127548   0.433   0.719   1.490  0.1161 -1.9106  0.6983
 1971TIP3    H227549   0.480   0.733   1.347 -1.5689 -3.5165 -0.0633
 1972TIP3   OH227550   0.084   2.183   0.895 -0.0673 -0.5418 -0.2826
 1972TIP3    H127551   0.095   2.198   0.989 -2.1709  0.4133 -0.1156
 1972TIP3    H227552  -0.010   2.194   0.881  0.2016 -0.7205 -2.5009
 1973TIP3   OH227553   2.348   1.894   7.808 -0.3765 -0.3767 -0.0554
 1973TIP3    H127554   2.305   1.976   7.784 -1.9656 -1.1865 -0.1461
 1973TIP3    H227555   2.281   1.846   7.857  0.1074 -2.0835 -0.9959
 1974TIP3   OH227556   4.483   1.900   1.795  0.0213 -0.1138  1.0056
 1974TIP3    H127557   4.559   1.842   1.793  0.3407  0.2260 -1.8243
 1974TIP3    H227558   4.415   1.850   1.749 -0.4682  0.7885  0.7356
 1975TIP3   OH227559   0.159   5.055   7.223  0.0690  0.2898 -0.0444
 1975TIP3    H127560   0.130   5.146   7.238 -3.2741 -0.6481  0.0422
 1975TIP3    H227561   0.089   5.017   7.169  1.9321 -1.9604 -1.0271
 1976TIP3   OH227562   3.599   1.968   7.902 -0.1771  0.2499 -0.0408
 1976TIP3    H127563   3.691   1.995   7.905  0.0119 -0.4280  0.5609
 1976TIP3    H227564   3.590   1.923   7.818  0.5142 -1.2471  0.6355
 1977TIP3   OH227565   2.203   5.270   0.523  0.0521 -0.0890 -0.4739
 1977TIP3    H127566   2.172   5.181   0.542  1.3774 -0.5221 -0.2691
 1977TIP3    H227567   2.176   5.321   0.600 -0.7180 -0.2959 -0.5930
 1978TIP3   OH227568   4.078   4.764   2.154  0.0649 -0.2334  0.0097
 1978TIP3    H127569   3.993   4.720   2.161  0.2410 -1.2344 -2.7915
 1978TIP3    H227570   4.082   4.793   2.062  2.2580  0.8395  0.3844
 1979TIP3   OH227571   0.553   0.149   1.648  0.5084 -0.3113  0.3991
 1979TIP3    H127572   0.467   0.167   1.610  0.8585 -0.0881 -0.3003
 1979TIP3    H227573   0.549   0.056   1.672  0.8105 -0.8914 -1.6425
 1980TIP3   OH227574   4.170   0.599   0.823  0.1422 -0.0120  0.1556
 1980TIP3    H127575   4.152   0.669   0.760  0.1239 -2.0002 -2.1807
 1980TIP3    H227576   4.265   0.585   0.816 -0.1419 -1.6060 -1.0382
 1981TIP3   OH227577   3.484   2.915   0.887  0.2929 -0.2676 -0.7362
 1981TIP3    H127578   3.563   2.922   0.833  2.4148 -2.3159  1.8267
 1981TIP3    H227579   3.495   2.833   0.935 -3.0925 -0.2500  0.3048
 1982TIP3   OH227580   5.475   4.390   2.185  0.4798 -0.2257  0.0382
 1982TIP3    H127581   5.438   4.303   2.170  2.4605 -1.2852  0.9549
 1982TIP3    H227582   5.411   4.434   2.242  1.1260 -2.4742  2.6919
 1983TIP3   OH227583   2.647   2.926   0.072  0.5440  0.2712 -0.2417
 1983TIP3    H127584   2.628   3.016   0.096 -0.4821 -0.3549  1.4963
 1983TIP3    H227585   2.685   2.888   0.151 -0.5194 -1.2181 -0.4026
 1984TIP3   OH227586   4.041   0.749   2.618  0.1683 -0.3468 -0.0641
 1984TIP3    H127587   4.009   0.829   2.576  3.5188  2.1154  1.5546
 1984TIP3    H227588   3.995   0.746   2.702 -0.1371 -0.2727 -0.2269
 1985TIP3   OH227589   6.586   4.301   0.002 -0.5264  0.4418 -1.0450
 1985TIP3    H127590   6.579   4.260   0.088 -1.2410 -0.9944 -1.7561
 1985TIP3    H227591   6.632   4.237  -0.052  1.7549  2.1323 -1.2850
 1986TIP3   OH227592   1.992   3.228   7.775  0.7028  0.3454 -0.4301
 1986TIP3    H127593   1.950   3.199   7.857 -0.3002  0.2401 -0.9663
 1986TIP3    H227594   2.084   3.240   7.799  0.5744 -0.4132  0.5319
 1987TIP3   OH227595   0.503   4.775   1.307  0.3886  0.1703 -0.2339
 1987TIP3    H127596   0.516   4.862   1.344  2.6900  0.6781 -2.0293
 1987TIP3    H227597   0.487   4.719   1.384  1.7352  1.6902  1.2301
 1988TIP3   OH227598   1.809   1.672   1.388 -0.0809 -0.7997  0.2593
 1988TIP3    H127599   1.758   1.685   1.308  1.2360 -1.1893 -0.6757
 1988TIP3    H227600   1.772   1.592   1.427 -0.6662 -0.6600  0.0091
 1989TIP3   OH227601   5.298   5.903   7.182  0.0261 -0.6306  0.1348
 1989TIP3    H127602   5.266   5.861   7.262 -0.5454 -0.2844  0.0932
 1989TIP3    H227603   5.337   5.985   7.213  0.5332 -0.8704  0.1424
 1990TIP3   OH227604   5.691   1.244   8.054 -0.3030  0.7787 -0.4522
 1990TIP3    H127605   5.721   1.190   8.127 -2.0209 -1.5087 -1.3308
 1990TIP3    H227606   5.764   1.242   7.992  0.1885  0.6365  0.1152
 1991TIP3   OH227607   1.756   1.159   0.515 -0.1325 -0.0980  0.6913
 1991TIP3    H127608   1.663   1.150   0.536 -0.6784  0.5062 -1.1864
 1991TIP3    H227609   1.775   1.251   0.533 -1.3604  1.2546 -3.5581
 1992TIP3   OH227610   1.525   3.855   6.986  0.0265 -0.2112  0.4313
 1992TIP3    H127611   1.553   3.879   7.075  2.9225 -1.6867  0.0025
 1992TIP3    H227612   1.466   3.781   6.999 -2.5786  1.8389  1.2422
 1993TIP3   OH227613   5.085   4.539   7.136 -0.3433 -0.1152 -0.4199
 1993TIP3    H127614   5.030   4.616   7.119 -0.8798 -0.2808  0.4739
 1993TIP3    H227615   5.095   4.497   7.050  0.3755  1.2035 -1.0155
 1994TIP3   OH227616   5.649   2.780   7.170 -0.6489  0.4659 -0.2615
 1994TIP3    H127617   5.703   2.851   7.204 -1.0852 -0.1854  1.9260
 1994TIP3    H227618   5.559   2.812   7.176 -0.7353  0.3637 -0.9026
 1995TIP3   OH227619   3.059   1.686   7.818  0.0251  0.0702 -0.2493
 1995TIP3    H127620   3.134   1.743   7.834  0.1158  0.1443 -0.9034
 1995TIP3    H227621   3.010   1.730   7.748 -0.8484  0.2279  0.4390
 1996TIP3   OH227622   0.424   2.999   0.293 -0.4586 -0.2657  0.0059
 1996TIP3    H127623   0.452   3.013   0.203 -0.6010  4.4784  0.4645
 1996TIP3    H227624   0.505   2.997   0.343 -0.4689 -0.6267  0.0116
 1997TIP3   OH227625   6.820   4.878   0.097  0.2863  0.1138  0.3722
 1997TIP3    H127626   6.782   4.920   0.020  0.4038  2.2149  1.3812
 1997TIP3    H227627   6.756   4.894   0.167  0.9763 -0.2028  1.0981
 1998TIP3   OH227628   2.553   5.630   7.518  0.1777 -0.1168  0.1017
 1998TIP3    H127629   2.502   5.625   7.437  0.9279 -1.7687 -0.3127
 1998TIP3    H227630   2.561   5.724   7.536 -2.3507  0.2155 -0.2060
 1999TIP3   OH227631   3.974   3.576   1.332 -0.7011 -0.0237  0.1005
 1999TIP3    H127632   3.922   3.501   1.362 -0.9741  0.8590  1.9909
 1999TIP3    H227633   3.942   3.650   1.384 -0.2998  1.3919 -1.5616
 2000TIP3   OH227634   4.538   1.950   0.344 -0.1935 -0.0459  0.1182
 2000TIP3    H127635   4.533   2.016   0.413 -2.0969  0.4892 -0.4710
 2000TIP3    H227636   4.523   1.999   0.263 -1.4750 -1.1579 -0.3459
 2001TIP3   OH227637   0.816   1.879   1.553 -0.3407 -0.1147 -0.7029
 2001TIP3    H127638   0.902   1.912   1.577 -0.0314 -0.1929 -1.6747
 2001TIP3    H227639   0.762   1.957   1.542 -0.8337 -0.0909  1.3590
 2002TIP3   OH227640   5.639   1.296   2.102 -0.1802 -0.6695  0.4994
 2002TIP3    H127641   5.695   1.369   2.074 -1.1224 -0.4921 -1.0638
 2002TIP3    H227642   5.701   1.227   2.128  0.7387  0.1699  0.6068
 2003TIP3   OH227643   5.336   5.884   0.094 -0.3936 -0.1775  0.4985
 2003TIP3    H127644   5.258   5.939   0.081  0.0200  0.4672  0.7036
 2003TIP3    H227645   5.309   5.797   0.065 -0.5877  0.4433 -1.2758
 2004TIP3   OH227646   2.723   6.661   7.837  0.3338  0.2761 -0.5754
 2004TIP3    H127647   2.640   6.696   7.804 -0.1299  0.8549  1.0948
 2004TIP3    H227648   2.774   6.739   7.860 -0.4843 -0.0038  2.6427
 2005TIP3   OH227649   2.922   3.090   1.777 -0.5131 -0.7653 -0.5038
 2005TIP3    H127650   2.884   3.112   1.862 -0.1003 -0.8151 -0.3034
 2005TIP3    H227651   2.967   3.170   1.749 -1.2924 -0.4939 -1.0427
 2006TIP3   OH227652   1.248   3.244   1.711 -0.3775 -0.0053 -0.4542
 2006TIP3    H127653   1.254   3.182   1.639 -3.7189 -1.9929  0.7397
 2006TIP3    H227654   1.158   3.235   1.742 -0.0293  3.1382  1.9103
 2007TIP3   OH227655   2.489   1.927   1.464  0.4612  0.7969 -0.0438
 2007TIP3    H127656   2.471   1.970   1.380 -1.7927  0.0470 -0.0163
 2007TIP3    H227657   2.434   1.974   1.527  0.4778 -0.0095  0.5916
 2008TIP3   OH227658   4.452   4.464   0.640 -0.1896 -0.2283 -0.2840
 2008TIP3    H127659   4.427   4.439   0.729 -1.4580 -1.0095 -0.8274
 2008TIP3    H227660   4.465   4.381   0.595  1.1155  0.1611 -0.6738
 2009TIP3   OH227661   1.045   0.765   1.827  0.4367  0.1502 -0.1658
 2009TIP3    H127662   1.082   0.678   1.814 -0.6242 -0.4141  0.4418
 2009TIP3    H227663   1.030   0.770   1.922  2.2153  1.7239  0.0722
 2010TIP3   OH227664   0.205   5.420   1.699  0.1345 -0.7865 -0.0358
 2010TIP3    H127665   0.219   5.504   1.655 -2.8424  1.1712  2.3089
 2010TIP3    H227666   0.271   5.418   1.769  0.1494 -0.3252 -0.0357
 2011TIP3   OH227667   3.542   0.552   8.585 -0.0371  0.3210 -0.2638
 2011TIP3    H127668   3.584   0.585   8.665 -0.6854  1.5363 -0.4050
 2011TIP3    H227669   3.452   0.534   8.611 -0.3423  1.0458 -0.7920
 2012TIP3   OH227670   5.292   3.470   0.717 -0.2238  0.0872  0.1810
 2012TIP3    H127671   5.360   3.488   0.652  0.5895 -0.0025  1.0003
 2012TIP3    H227672   5.220   3.433   0.666  0.5845 -0.4298 -0.6088
 2013TIP3   OH227673   6.196   4.612   7.966 -0.1761  0.2400  0.0832
 2013TIP3    H127674   6.131   4.543   7.960 -0.5664  0.6220 -0.0914
 2013TIP3    H227675   6.246   4.591   8.046 -1.0865  0.4411  0.7192
 2014TIP3   OH227676   3.479   1.631   0.897 -0.2361  0.3992  0.4381
 2014TIP3    H127677   3.457   1.724   0.889 -0.1415  0.2456 -3.4088
 2014TIP3    H227678   3.569   1.624   0.864  0.6697 -0.8360  2.8909
 2015TIP3   OH227679   2.086   3.337   1.445  0.6245 -0.2529 -0.0013
 2015TIP3    H127680   1.994   3.313   1.453  0.5991 -0.3705 -0.6469
 2015TIP3    H227681   2.112   3.359   1.535  0.1989 -1.0320  0.3286
 2016TIP3   OH227682   6.538   0.422   7.932 -0.4248 -0.2460 -0.7238
 2016TIP3    H127683   6.497   0.493   7.883  1.0908  0.2948 -1.2658
 2016TIP3    H227684   6.467   0.385   7.985 -1.2342  1.7540 -0.3249
 2017TIP3   OH227685   1.277   0.350   0.510 -0.2962 -0.0125  0.8902
 2017TIP3    H127686   1.305   0.310   0.593 -1.8198 -1.5707  0.7122
 2017TIP3    H227687   1.260   0.441   0.532 -0.5131 -0.3630  2.2598
 2018TIP3   OH227688   4.153   4.063   7.561  0.4148  0.3131  0.3468
 2018TIP3    H127689   4.182   4.110   7.639 -0.8542  1.3294  0.2440
 2018TIP3    H227690   4.233   4.043   7.513  1.2091 -0.2251  1.8338
 2019TIP3   OH227691   5.553   1.543   7.393  0.5090  0.7329 -0.4865
 2019TIP3    H127692   5.622   1.610   7.385  0.1044  0.9988 -2.1286
 2019TIP3    H227693   5.489   1.582   7.453  1.8964  0.3518  1.3126
 2020TIP3   OH227694   5.902   6.525   0.801 -0.3512 -0.0766 -0.5524
 2020TIP3    H127695   5.837   6.460   0.824 -0.4737  0.3611  0.3637
 2020TIP3    H227696   5.985   6.477   0.795  0.0707  0.0466  2.7300
 2021TIP3   OH227697   0.628   1.855   8.568  0.0940  0.0027 -0.0612
 2021TIP3    H127698   0.692   1.910   8.522 -0.9167  1.8929  0.7142
 2021TIP3    H227699   0.584   1.807   8.498 -1.6161  3.0250 -1.2691
 2022TIP3   OH227700   4.921   0.219   8.036 -0.2646  0.0655  0.2305
 2022TIP3    H127701   4.920   0.301   8.085  1.1341 -0.0953  0.5751
 2022TIP3    H227702   4.993   0.169   8.074 -2.0749 -2.0222  1.0876
 2023TIP3   OH227703   2.711   6.527   0.419  0.1845  0.2591  0.2464
 2023TIP3    H127704   2.795   6.498   0.384 -0.1033 -0.4850  0.1380
 2023TIP3    H227705   2.656   6.539   0.341 -0.4798 -1.4660  0.3888
 2024TIP3   OH227706   2.176   3.177   0.544 -0.1450 -0.1685 -0.0626
 2024TIP3    H127707   2.139   3.133   0.620  0.7120 -0.0357  0.4429
 2024TIP3    H227708   2.271   3.173   0.558 -0.0315  1.7264 -0.0439
 2025TIP3   OH227709   6.737   0.906   2.154 -0.2984 -0.2091  0.4637
 2025TIP3    H127710   6.832   0.897   2.157 -0.3618 -0.7764  0.9568
 2025TIP3    H227711   6.722   0.983   2.099  0.4368 -0.2265  0.2254
 2026TIP3   OH227712   0.618   2.610   7.896  0.1853  0.4505 -0.0674
 2026TIP3    H127713   0.614   2.587   7.804  0.0358 -0.3976  0.1483
 2026TIP3    H227714   0.697   2.663   7.905  1.6576 -1.6562 -0.1936
 2027TIP3   OH227715   4.910   0.487   8.128  0.2919 -0.2367 -0.0245
 2027TIP3    H127716   4.828   0.525   8.160  0.7617  0.8228 -0.0386
 2027TIP3    H227717   4.965   0.481   8.206  0.3973 -0.4351 -0.1150
 2028TIP3   OH227718   3.433   6.160   2.709  0.5567  0.2091  0.2341
 2028TIP3    H127719   3.470   6.216   2.642  0.9223  0.6618  0.8004
 2028TIP3    H227720   3.452   6.071   2.680 -2.5910  0.1382 -2.2056
 2029TIP3   OH227721   6.784   6.269   6.893 -0.7413  0.3918  0.0911
 2029TIP3    H127722   6.769   6.291   6.985 -0.0699 -1.7447  0.7827
 2029TIP3    H227723   6.710   6.306   6.846  0.4647  4.3411  0.9654
 2030TIP3   OH227724   4.551   2.615   6.771 -0.7845 -0.0688  0.1829
 2030TIP3    H127725   4.539   2.597   6.678 -1.6471 -0.6051  0.3831
 2030TIP3    H227726   4.467   2.590   6.811 -1.1535  2.0213  0.8332
 2031TIP3   OH227727   0.780   2.470   7.134 -0.6220 -0.2629  0.6093
 2031TIP3    H127728   0.765   2.452   7.227 -1.4862 -0.8811  0.3638
 2031TIP3    H227729   0.876   2.471   7.125 -0.3992  2.6801  2.0294
 2032TIP3   OH227730   2.666   1.263   0.254 -0.1289 -0.4625 -0.0692
 2032TIP3    H127731   2.624   1.329   0.199  0.6145 -0.1388 -0.2546
 2032TIP3    H227732   2.710   1.312   0.322  0.4169 -0.7631 -0.1976
 2033TIP3   OH227733   5.321   1.416   8.569  0.4151  0.4401 -0.0647
 2033TIP3    H127734   5.291   1.500   8.604  0.7056  0.6677 -0.3625
 2033TIP3    H227735   5.416   1.417   8.582  0.2557 -0.5640  1.5122
 2034TIP3   OH227736   6.350   1.078   1.172  0.1942  0.0322  0.0643
 2034TIP3    H127737   6.437   1.042   1.158  0.4105 -0.6682  2.6375
 2034TIP3    H227738   6.359   1.172   1.155  1.7845  0.1644  1.4010
 2035TIP3   OH227739   1.753   4.917   2.203  0.7572 -0.1756  0.1672
 2035TIP3    H127740   1.760   4.855   2.275 -2.0109  0.7663  1.3838
 2035TIP3    H227741   1.669   4.897   2.161  1.1017  0.9639 -1.1833
 2036TIP3   OH227742   1.510   6.449   1.282 -0.5150 -0.0786 -0.3801
 2036TIP3    H127743   1.423   6.443   1.242 -1.0323 -1.0207  0.8444
 2036TIP3    H227744   1.514   6.376   1.342 -0.5231  2.3027  2.7541
 2037TIP3   OH227745   3.015   0.785   0.227 -0.6311 -0.7618  0.5627
 2037TIP3    H127746   2.971   0.732   0.161 -0.8546  0.3790 -0.2308
 2037TIP3    H227747   2.953   0.856   0.245  0.4963  0.3745  0.0839
 2038TIP3   OH227748   1.705   2.348   6.560  0.7187  0.2431  0.1807
 2038TIP3    H127749   1.647   2.416   6.525 -0.4947 -1.5515 -1.4982
 2038TIP3    H227750   1.786   2.358   6.510  0.0716 -0.3596 -1.0228
 2039TIP3   OH227751   3.723   4.393   1.745 -0.2284 -0.3989 -0.3726
 2039TIP3    H127752   3.796   4.441   1.707 -1.8781  3.1423  0.5281
 2039TIP3    H227753   3.753   4.371   1.834 -0.0501  0.6009 -0.1730
 2040TIP3   OH227754   1.179   6.602   1.500 -0.4141 -1.0416 -0.4395
 2040TIP3    H127755   1.258   6.648   1.527  1.0620 -2.4448 -2.1464
 2040TIP3    H227756   1.109   6.644   1.550  1.1567  1.3133 -0.0500
 2041TIP3   OH227757   4.716   3.944   1.960 -0.3553  0.7078 -0.4452
 2041TIP3    H127758   4.778   3.936   2.033  1.0305  0.5041 -1.6024
 2041TIP3    H227759   4.764   3.911   1.884 -1.7082  1.0602 -1.4903
 2042TIP3   OH227760   1.424   1.859   0.383 -0.4198  0.2236 -0.0434
 2042TIP3    H127761   1.357   1.819   0.328  1.3856 -3.3377 -0.0089
 2042TIP3    H227762   1.430   1.801   0.459  1.2881  1.5601  0.9240
 2043TIP3   OH227763   6.408   6.612   6.819 -0.1328 -0.1491  0.1427
 2043TIP3    H127764   6.321   6.593   6.854  0.8974 -2.6196  1.6532
 2043TIP3    H227765   6.397   6.693   6.770 -3.2372 -0.2925  0.3861
 2044TIP3   OH227766   5.439   3.830   7.507 -0.1162  0.3428 -0.1497
 2044TIP3    H127767   5.364   3.888   7.492 -0.8368 -0.3569  0.6058
 2044TIP3    H227768   5.514   3.878   7.474 -0.6605  1.8219  0.6581
 2045TIP3   OH227769   0.376   1.431   0.067  0.0383  0.2607 -0.2646
 2045TIP3    H127770   0.317   1.364   0.101  0.7222  1.0667  2.8418
 2045TIP3    H227771   0.414   1.392  -0.011 -0.6285 -2.4260  0.6524
 2046TIP3   OH227772   5.965   0.685   8.650 -0.5396  1.2868  0.3643
 2046TIP3    H127773   5.874   0.672   8.676 -0.9392  0.8521 -1.1402
 2046TIP3    H227774   6.012   0.610   8.687 -0.9578  1.0339  0.3843
 2047TIP3   OH227775   5.286   0.135   1.211 -0.0142 -0.0371 -0.5258
 2047TIP3    H127776   5.377   0.156   1.188 -0.1567  1.7612  0.3650
 2047TIP3    H227777   5.278   0.041   1.194  2.5826 -0.6657  1.1268
 2048TIP3   OH227778   1.691   5.943   0.941 -0.7358 -0.2403  0.3462
 2048TIP3    H127779   1.609   5.970   0.901  1.0308  2.1842 -1.9391
 2048TIP3    H227780   1.759   5.967   0.878  1.7373 -3.0725  1.6429
 2049TIP3   OH227781   1.674   3.406   0.699 -0.1952 -0.3355 -0.7031
 2049TIP3    H127782   1.642   3.334   0.752  1.2150 -1.1291 -0.8831
 2049TIP3    H227783   1.745   3.444   0.751  0.4887 -0.4451 -1.5314
 2050TIP3   OH227784   3.568   4.125   7.543  0.3023  0.1917 -0.0231
 2050TIP3    H127785   3.490   4.171   7.572 -0.6536 -0.9773 -0.6477
 2050TIP3    H227786   3.574   4.145   7.449  1.7781  1.6809  0.3327
 2051TIP3   OH227787   5.448   2.033   1.020  0.5425 -0.6619 -0.5434
 2051TIP3    H127788   5.515   2.013   1.084 -0.7082  0.7267  1.2980
 2051TIP3    H227789   5.365   2.014   1.065 -0.3713  0.1398 -1.8152
 2052TIP3   OH227790   1.008   1.990   2.047  0.3489  0.4081  0.0165
 2052TIP3    H127791   0.940   1.965   2.109  1.0623 -1.6045  0.0873
 2052TIP3    H227792   1.012   1.915   1.986  3.7317 -0.4776  1.1281
 2053TIP3   OH227793   6.370   4.571   2.072 -0.2354 -0.0923  0.2801
 2053TIP3    H127794   6.288   4.538   2.110 -0.5788 -0.2554 -0.5732
 2053TIP3    H227795   6.344   4.606   1.986  0.7043 -0.7590 -0.2947
 2054TIP3   OH227796   0.355   6.359   7.849  0.5346 -0.0455  0.1996
 2054TIP3    H127797   0.450   6.353   7.851  0.4912 -0.7663  2.1818
 2054TIP3    H227798   0.337   6.435   7.794  2.2776  0.5107  0.3361
 2055TIP3   OH227799   0.040   0.270   7.544 -0.8313  0.6853 -0.1038
 2055TIP3    H127800  -0.018   0.234   7.612 -0.8962  0.4138 -0.2999
 2055TIP3    H227801   0.001   0.240   7.462  0.6075 -1.0908 -0.1997
 2056TIP3   OH227802   5.355   4.781   7.818 -0.5734  0.2350 -0.1129
 2056TIP3    H127803   5.422   4.724   7.857 -0.0853  1.7643  1.4029
 2056TIP3    H227804   5.288   4.720   7.786  0.6797 -1.2540 -0.0326
 2057TIP3   OH227805   0.006   3.978   7.977 -0.1138  0.2806  0.0236
 2057TIP3    H127806   0.074   4.035   7.940 -0.9284  0.4786 -1.2128
 2057TIP3    H227807   0.002   4.003   8.070  0.3901  1.3668 -0.2306
 2058TIP3   OH227808   2.491   3.864   1.632  0.4560  0.1024  0.0621
 2058TIP3    H127809   2.442   3.852   1.714  1.7609  0.8893  0.9893
 2058TIP3    H227810   2.575   3.901   1.659  1.2006 -0.2889 -1.5830
 2059TIP3   OH227811   6.028   6.615   1.147 -0.1841  0.6593  0.5336
 2059TIP3    H127812   6.063   6.623   1.058  1.4636  0.1693  1.0994
 2059TIP3    H227813   6.073   6.683   1.197 -0.2576  0.2071  1.2261
 2060TIP3   OH227814   6.388   5.583   0.779  0.0193  0.1716  0.0704
 2060TIP3    H127815   6.464   5.536   0.813  0.0178  1.1644  1.5229
 2060TIP3    H227816   6.354   5.526   0.710  3.1321  0.5177 -1.9355
 2061TIP3   OH227817   6.073   2.896   0.894  0.1968 -0.9738 -0.0060
 2061TIP3    H127818   6.053   2.968   0.834  2.3785  0.4015  0.7868
 2061TIP3    H227819   6.015   2.909   0.968  0.9820  0.4034  0.4060
 2062TIP3   OH227820   6.451   2.315   8.072  0.3786 -0.1749  0.2596
 2062TIP3    H127821   6.539   2.318   8.033  0.8700 -1.9836  1.1411
 2062TIP3    H227822   6.395   2.279   8.004  0.4556  0.2569 -0.0394
 2063TIP3   OH227823   3.624   4.760   1.161  0.4160  0.4844  0.1996
 2063TIP3    H127824   3.706   4.794   1.127  1.0663  0.5525  1.7591
 2063TIP3    H227825   3.558   4.790   1.098  1.1356  3.3556  0.6660
 2064TIP3   OH227826   0.053   3.920   7.091 -0.3394 -0.4001 -0.1040
 2064TIP3    H127827   0.077   3.851   7.152 -2.6766 -0.9730  0.2660
 2064TIP3    H227828   0.065   3.880   7.004 -0.5428 -0.8633  0.0784
 2065TIP3   OH227829   6.495   2.076   1.346 -0.3343  0.4007  0.3002
 2065TIP3    H127830   6.521   2.168   1.340 -0.9123  0.5511 -0.0335
 2065TIP3    H227831   6.466   2.054   1.258 -3.0663  0.7974  0.9885
 2066TIP3   OH227832   2.579   1.165   7.059 -0.1032 -0.0979  0.2871
 2066TIP3    H127833   2.569   1.070   7.052  0.2089 -0.2096  1.2687
 2066TIP3    H227834   2.490   1.199   7.050 -0.2501 -0.5036  0.1852
 2067TIP3   OH227835   2.668   6.229   0.582  0.3590  0.2704 -0.1835
 2067TIP3    H127836   2.749   6.251   0.629  0.3681  0.3950 -0.2576
 2067TIP3    H227837   2.654   6.302   0.523 -0.6521  1.0108  0.9218
 2068TIP3   OH227838   6.686   5.042   7.339 -0.5065  0.2686 -0.4365
 2068TIP3    H127839   6.743   5.027   7.415  0.1960 -0.2872 -1.0554
 2068TIP3    H227840   6.703   4.967   7.282  0.4573  1.6468 -2.0268
 2069TIP3   OH227841   6.861   1.471   1.268 -0.5502  0.4803 -0.1884
 2069TIP3    H127842   6.887   1.476   1.175  1.2846  0.9507  0.3013
 2069TIP3    H227843   6.889   1.555   1.304  1.4349 -0.7692  1.4005
 2070TIP3   OH227844   1.261   0.563   1.924 -0.8095  0.5876 -0.2129
 2070TIP3    H127845   1.272   0.576   1.830 -0.9478 -1.5636 -0.5652
 2070TIP3    H227846   1.343   0.523   1.953 -0.8662  1.0026  0.5569
 2071TIP3   OH227847   1.900   6.587   1.081  0.0314 -0.0404 -0.2371
 2071TIP3    H127848   1.840   6.550   1.146  0.1623  0.0653 -0.0559
 2071TIP3    H227849   1.978   6.532   1.086 -1.1277 -2.0879 -2.5724
 2072TIP3   OH227850   1.670   1.660   0.516  0.0904  0.1877  0.5228
 2072TIP3    H127851   1.576   1.674   0.533 -0.2515  0.6738 -1.4450
 2072TIP3    H227852   1.683   1.566   0.531 -0.9810 -0.1066 -0.2333
 2073TIP3   OH227853   4.364   0.712   0.049  0.2082 -0.8491 -0.4622
 2073TIP3    H127854   4.396   0.799   0.073 -0.4819 -0.6306 -0.2908
 2073TIP3    H227855   4.325   0.677   0.129  0.4701 -1.3157 -0.5335
 2074TIP3   OH227856   3.209   4.115   7.152 -0.4098  0.3983 -0.2338
 2074TIP3    H127857   3.135   4.083   7.100 -1.7393  1.0037  1.1883
 2074TIP3    H227858   3.239   4.192   7.104 -0.1427 -0.3240 -1.2656
 2075TIP3   OH227859   3.628   0.208   8.463  0.5299  0.4328  0.1333
 2075TIP3    H127860   3.535   0.189   8.474  1.0635 -2.2789  0.7084
 2075TIP3    H227861   3.632   0.303   8.452 -2.2055  0.7392  1.0032
 2076TIP3   OH227862   3.829   2.129   1.344 -0.0430  0.0730 -0.1273
 2076TIP3    H127863   3.769   2.200   1.322  1.0879  0.3273 -2.7987
 2076TIP3    H227864   3.783   2.049   1.317 -0.1370  0.0358  0.1354
 2077TIP3   OH227865   3.330   0.579   0.437  0.6165 -0.3805 -0.4324
 2077TIP3    H127866   3.292   0.495   0.413 -1.8513  0.8741 -1.3258
 2077TIP3    H227867   3.402   0.592   0.376  1.4239 -2.0645  0.1100
 2078TIP3   OH227868   2.435   1.255   0.004 -0.9733  0.2934  0.1444
 2078TIP3    H127869   2.466   1.309  -0.068 -1.0817  0.5798  0.3124
 2078TIP3    H227870   2.463   1.301   0.083 -1.2775  0.2326  0.2894
 2079TIP3   OH227871   0.426   2.829   7.996  0.0374  0.0272  0.1380
 2079TIP3    H127872   0.457   2.832   8.086 -3.4699 -3.0896  1.7048
 2079TIP3    H227873   0.477   2.760   7.955  1.0110  0.8341 -0.0496
 2080TIP3   OH227874   4.395   4.902   2.015 -0.6974 -0.0508  0.1499
 2080TIP3    H127875   4.392   4.892   2.110 -4.8483 -2.2373 -0.0148
 2080TIP3    H227876   4.460   4.838   1.986  1.5808  1.5197  1.4136
 2081TIP3   OH227877   5.463   3.113   1.608  0.6900  0.7165  0.5406
 2081TIP3    H127878   5.387   3.143   1.558  1.3995 -0.4259 -1.2991
 2081TIP3    H227879   5.539   3.148   1.561  1.5503 -3.3567 -1.5313
 2082TIP3   OH227880   2.886   1.248   8.606  0.4432 -0.2773  0.1818
 2082TIP3    H127881   2.877   1.344   8.606  3.9903  0.1966  0.3305
 2082TIP3    H227882   2.904   1.226   8.515 -1.6839 -1.0540 -0.0953
 2083TIP3   OH227883   6.625   4.889   0.277  0.1784 -0.0843  0.1827
 2083TIP3    H127884   6.569   4.858   0.206 -0.9645  0.8452  0.6430
 2083TIP3    H227885   6.607   4.983   0.283  0.5832 -0.0648  1.4046
 2084TIP3   OH227886   5.507   0.659   1.861  0.0317 -0.2310  1.0022
 2084TIP3    H127887   5.513   0.573   1.820 -0.5668 -0.0969  0.6251
 2084TIP3    H227888   5.553   0.649   1.945 -0.2840 -0.9879  1.0912
 2085TIP3   OH227889   4.574   3.486   1.553 -0.0975  0.0411 -0.2121
 2085TIP3    H127890   4.528   3.570   1.549  2.6239  1.6155 -0.5865
 2085TIP3    H227891   4.528   3.431   1.489 -0.4582  2.0362 -1.7548
 2086TIP3   OH227892   2.569   3.300   0.671  0.0977  0.6562  0.7717
 2086TIP3    H127893   2.651   3.308   0.719  0.4749  0.5823  0.1487
 2086TIP3    H227894   2.573   3.370   0.605 -0.5900  1.0155  1.0917
 2087TIP3   OH227895   5.341   6.850   8.580  0.0237  0.0047 -0.4282
 2087TIP3    H127896   5.335   6.773   8.524 -0.8456  0.8639 -1.5545
 2087TIP3    H227897   5.320   6.818   8.667 -3.6983 -0.5037 -1.3575
 2088TIP3   OH227898   2.206   2.108   0.763  0.0566 -0.9236  0.4321
 2088TIP3    H127899   2.161   2.110   0.847 -0.1358 -3.0604  0.4399
 2088TIP3    H227900   2.261   2.029   0.767 -1.1607 -2.0257 -1.9862
 2089TIP3   OH227901   3.011   2.758   8.094 -0.0068 -0.2518  0.2585
 2089TIP3    H127902   3.081   2.693   8.081 -0.8675 -1.1597  0.0437
 2089TIP3    H227903   2.945   2.735   8.028 -1.7069 -1.0910  2.1407
 2090TIP3   OH227904   2.745   2.167   7.642 -0.7957 -0.1590  0.0281
 2090TIP3    H127905   2.840   2.162   7.637 -0.8804 -4.6935 -1.6650
 2090TIP3    H227906   2.726   2.187   7.734  1.7237  1.3763  0.2841
 2091TIP3   OH227907   4.645   1.166   6.857  0.3670 -0.1400 -0.2855
 2091TIP3    H127908   4.564   1.202   6.821 -1.2069  0.9168  3.7650
 2091TIP3    H227909   4.713   1.228   6.829 -0.6733  0.5091 -1.4559
 2092TIP3   OH227910   4.287   0.566   7.491  0.4095  0.2764  0.2628
 2092TIP3    H127911   4.247   0.554   7.577  0.8113  0.8854  0.5423
 2092TIP3    H227912   4.291   0.478   7.453 -1.5671  0.2464  0.0424
 2093TIP3   OH227913   6.699   5.398   8.582  0.4997 -0.2776  0.4794
 2093TIP3    H127914   6.793   5.412   8.597  0.7785  0.9967 -1.9008
 2093TIP3    H227915   6.659   5.481   8.609  0.1892 -0.4591  0.5693
 2094TIP3   OH227916   3.133   6.460   0.208  0.1913 -0.7383  0.0720
 2094TIP3    H127917   3.223   6.483   0.235 -0.0062 -0.2703  0.3611
 2094TIP3    H227918   3.099   6.541   0.169 -0.2609 -0.7638  0.3966
 2095TIP3   OH227919   0.137   1.110   1.099  0.4803 -0.0478 -0.7070
 2095TIP3    H127920   0.203   1.166   1.140  0.8534 -1.4852  0.7443
 2095TIP3    H227921   0.161   1.109   1.006  0.7366  1.7702 -0.6990
 2096TIP3   OH227922   1.393   4.783   6.738  0.0343 -0.0294  0.2156
 2096TIP3    H127923   1.316   4.797   6.792  0.9248  0.9480  1.2648
 2096TIP3    H227924   1.462   4.835   6.779  1.1311 -0.4673 -0.9914
 2097TIP3   OH227925   5.328   1.074   7.101  0.1645  0.0770 -0.0520
 2097TIP3    H127926   5.378   1.043   7.026  0.0657  0.5634 -0.3187
 2097TIP3    H227927   5.249   1.020   7.100  0.2444 -0.0396 -0.1921
 2098TIP3   OH227928   0.762   4.916   2.188  0.1580 -0.0159  0.5746
 2098TIP3    H127929   0.851   4.884   2.174 -0.1752 -0.4260 -0.8169
 2098TIP3    H227930   0.754   4.925   2.282  0.8015 -2.6315  0.9660
 2099TIP3   OH227931   6.474   4.113   8.443 -0.1097 -0.4525  0.4591
 2099TIP3    H127932   6.558   4.093   8.483 -0.7789  0.5191  2.4890
 2099TIP3    H227933   6.450   4.032   8.396  1.3376 -1.1833  0.9183
 2100TIP3   OH227934   2.530   5.572   7.250 -0.6331 -0.3315 -0.0089
 2100TIP3    H127935   2.537   5.602   7.160  2.6212 -0.4798  0.0434
 2100TIP3    H227936   2.571   5.485   7.249 -0.9596 -0.5343  1.5072
 2101TIP3   OH227937   1.355   4.806   8.492 -0.1109 -0.0148 -0.3552
 2101TIP3    H127938   1.259   4.810   8.490 -0.3097 -0.2874  3.2423
 2101TIP3    H227939   1.383   4.897   8.500 -0.3119 -0.0895  1.7044
 2102TIP3   OH227940   0.036   5.109   2.078  0.3640  0.7190 -0.8970
 2102TIP3    H127941   0.019   5.203   2.074  0.0183  0.7342  0.2983
 2102TIP3    H227942  -0.015   5.080   2.154  2.9609  0.1293  0.7302
 2103TIP3   OH227943   5.860   6.045   7.627 -0.8614 -0.1405 -0.4801
 2103TIP3    H127944   5.862   5.960   7.583  1.1708  0.1305 -0.9972
 2103TIP3    H227945   5.773   6.049   7.666  0.1660 -4.3292  3.1728
 2104TIP3   OH227946   5.862   1.539   8.399  0.9431 -0.6230  0.1783
 2104TIP3    H127947   5.855   1.603   8.470  0.6859  1.0790 -1.3294
 2104TIP3    H227948   5.829   1.457   8.438  0.2867  0.3742  1.8403
 2105TIP3   OH227949   1.324   1.991   2.360 -0.2987  0.5914 -0.2526
 2105TIP3    H127950   1.383   1.975   2.433  0.7542  1.7179 -0.8131
 2105TIP3    H227951   1.237   1.968   2.393  0.3464 -0.3032  0.8594
 2106TIP3   OH227952   6.592   0.524   8.174  0.0807  0.3476  0.0643
 2106TIP3    H127953   6.572   0.502   8.084  0.0970  0.5219  0.0165
 2106TIP3    H227954   6.527   0.590   8.197  0.1835  0.4289  0.1247
 2107TIP3   OH227955   1.650   0.232   0.151 -0.2140  0.5509 -0.4824
 2107TIP3    H127956   1.740   0.258   0.130  0.4691 -1.8431 -0.9006
 2107TIP3    H227957   1.625   0.287   0.224  2.3165  0.0692  0.8551
 2108TIP3   OH227958   5.457   4.287   8.519  0.4863  0.2007  0.2472
 2108TIP3    H127959   5.481   4.292   8.611 -1.0704 -1.4715  0.8034
 2108TIP3    H227960   5.362   4.274   8.519  0.6512 -1.5181 -1.5033
 2109TIP3   OH227961   1.736   0.517   7.860 -0.9172 -0.2539  0.3798
 2109TIP3    H127962   1.812   0.523   7.801 -0.7431  2.8687  0.7336
 2109TIP3    H227963   1.748   0.435   7.907  0.4771 -1.4296 -1.8516
 2110TIP3   OH227964   5.084   6.179   7.893  0.0146 -0.3004 -0.3223
 2110TIP3    H127965   5.000   6.218   7.918  0.6532  0.8197  0.1638
 2110TIP3    H227966   5.136   6.253   7.862  0.6428 -1.0637 -1.1273
 2111TIP3   OH227967   2.212   3.131   1.298  0.2033 -0.3746 -0.7287
 2111TIP3    H127968   2.176   3.215   1.324 -0.3530 -0.4768 -1.1592
 2111TIP3    H227969   2.147   3.067   1.329  0.5601 -0.6385 -0.5151
 2112TIP3   OH227970   2.466   3.183   1.547 -0.0665  0.1644  1.0446
 2112TIP3    H127971   2.520   3.131   1.488  0.2275  0.8705  0.6734
 2112TIP3    H227972   2.437   3.257   1.493  0.8479  1.2374  1.9767
 2113TIP3   OH227973   2.248   5.423   7.643 -0.0391  0.4903 -0.1212
 2113TIP3    H127974   2.307   5.461   7.708 -0.3145 -0.3752  0.6603
 2113TIP3    H227975   2.186   5.492   7.622  0.0502  0.7746  0.5506
 2114TIP3   OH227976   0.503   2.158   7.841  0.8160  0.1893  0.2886
 2114TIP3    H127977   0.508   2.137   7.935 -1.9575  0.3916  0.5556
 2114TIP3    H227978   0.456   2.241   7.837  1.6419  0.6212 -1.2758
 2115TIP3   OH227979   2.613   0.549   2.437  0.6560 -0.0598 -0.5826
 2115TIP3    H127980   2.537   0.524   2.490 -1.0807  1.5967 -2.1118
 2115TIP3    H227981   2.656   0.617   2.489  1.9234 -1.9021  0.8816
 2116TIP3   OH227982   2.834   2.625   0.739  0.2149 -0.0634  0.1234
 2116TIP3    H127983   2.756   2.608   0.687 -0.2057  2.8047 -0.3657
 2116TIP3    H227984   2.804   2.622   0.830 -0.1249 -0.4300 -0.0010
 2117TIP3   OH227985   0.271   2.800   2.063 -0.0296  0.0454  0.0914
 2117TIP3    H127986   0.249   2.721   2.013 -0.3471  1.0691 -1.4432
 2117TIP3    H227987   0.247   2.872   2.005  1.6368  1.2628  0.8603
 2118TIP3   OH227988   1.949   6.387   8.441 -0.0548 -0.1226  0.4640
 2118TIP3    H127989   1.931   6.304   8.486 -0.8104 -0.5443 -0.5836
 2118TIP3    H227990   1.890   6.387   8.366  0.6786  0.8987 -0.1340
 2119TIP3   OH227991   4.868   4.848   0.653  0.5480 -0.2978 -0.5990
 2119TIP3    H127992   4.791   4.878   0.702  0.1786  1.3898 -2.0940
 2119TIP3    H227993   4.854   4.754   0.642 -0.3848 -0.3430  0.6997
 2120TIP3   OH227994   5.693   3.391   8.026  0.0631  0.5898  0.1413
 2120TIP3    H127995   5.785   3.364   8.033 -0.0344  0.4479  1.0945
 2120TIP3    H227996   5.656   3.334   7.960  0.2322 -0.6012  1.0499
 2121TIP3   OH227997   1.248   0.931   7.633 -0.3578  0.1196  0.9098
 2121TIP3    H127998   1.302   1.008   7.651 -0.9873  0.4869  1.2739
 2121TIP3    H227999   1.254   0.920   7.538 -0.6840  0.9358  0.7823
 2122TIP3   OH228000   4.716   1.031   0.639  0.4125 -0.0734  0.0151
 2122TIP3    H128001   4.776   1.054   0.710  0.6957 -0.8189  0.0263
 2122TIP3    H228002   4.704   1.113   0.591  0.9711  0.2232  0.3655
 2123TIP3   OH228003   1.282   5.414   0.367  0.1812 -0.3333  0.1084
 2123TIP3    H128004   1.375   5.398   0.380  0.4694  1.5225  0.6314
 2123TIP3    H228005   1.268   5.402   0.273  1.6265  2.2518 -0.5185
 2124TIP3   OH228006   3.751   5.836   0.515  0.0379  0.0943 -0.1296
 2124TIP3    H128007   3.686   5.905   0.502 -0.8233 -0.5741  0.5044
 2124TIP3    H228008   3.704   5.755   0.492  0.8422 -0.3445 -0.2626
 2125TIP3   OH228009   5.597   5.252   7.688  0.5256 -0.0293  0.0356
 2125TIP3    H128010   5.557   5.335   7.661  2.7077  0.1536 -3.1500
 2125TIP3    H228011   5.567   5.189   7.623  0.8893 -1.2032  0.9706
 2126TIP3   OH228012   4.930   1.176   6.999 -0.2198  0.1093 -0.2581
 2126TIP3    H128013   4.957   1.094   6.959 -1.1861  0.2429 -1.2194
 2126TIP3    H228014   4.874   1.150   7.072 -0.5853 -0.0940 -0.6069
 2127TIP3   OH228015   5.251   3.935   0.934 -0.3943  0.0382 -0.2372
 2127TIP3    H128016   5.157   3.951   0.928 -0.9070 -1.2994  2.5950
 2127TIP3    H228017   5.260   3.840   0.919  0.4655  0.0969 -0.1442
 2128TIP3   OH228018   1.629   6.873   1.137  0.2053 -0.0448  0.1250
 2128TIP3    H128019   1.556   6.832   1.089 -1.7545  0.6616  2.3189
 2128TIP3    H228020   1.666   6.802   1.190 -0.9565  0.2180  1.3371
 2129TIP3   OH228021   4.878   2.782   1.374  0.0271  0.3481  0.1033
 2129TIP3    H128022   4.962   2.764   1.416 -0.1050 -0.3912  0.0600
 2129TIP3    H228023   4.899   2.793   1.281 -0.0826 -1.2126 -0.1340
 2130TIP3   OH228024   5.450   6.117   1.855 -0.6032  0.2235  0.2139
 2130TIP3    H128025   5.422   6.174   1.927  1.0568  2.2753 -0.6552
 2130TIP3    H228026   5.546   6.122   1.857 -0.1817 -4.3767  1.4159
 2131TIP3   OH228027   5.979   5.044   1.164 -0.2462 -0.5267  0.1044
 2131TIP3    H128028   6.071   5.071   1.158 -0.0412 -0.6048  2.1215
 2131TIP3    H228029   5.943   5.096   1.235 -1.7200 -0.6929 -0.4810
 2132TIP3   OH228030   3.261   2.530   7.699 -0.4013  0.0354 -0.1285
 2132TIP3    H128031   3.288   2.452   7.651  2.0459  1.1040 -0.6472
 2132TIP3    H228032   3.178   2.556   7.659 -1.0356 -1.9993 -0.2378
 2133TIP3   OH228033   5.513   0.730   0.796  0.1500 -0.0334  0.4046
 2133TIP3    H128034   5.545   0.666   0.733  1.4229  0.1737  0.8050
 2133TIP3    H228035   5.478   0.677   0.868  0.0434 -0.2720  0.1796
 2134TIP3   OH228036   1.918   6.316   6.942  0.3956 -0.1467  0.4288
 2134TIP3    H128037   1.877   6.230   6.952 -1.3518  0.6180  0.2402
 2134TIP3    H228038   2.011   6.298   6.935  0.3364 -1.8435  2.8987
 2135TIP3   OH228039   1.282   3.933   7.856  0.2955  0.1157  0.0619
 2135TIP3    H128040   1.317   3.962   7.772  0.1650  1.6589  0.5043
 2135TIP3    H228041   1.287   3.837   7.852  1.3686  0.1847 -1.2325
 2136TIP3   OH228042   5.540   3.109   6.837  1.0897  0.0839  0.6408
 2136TIP3    H128043   5.560   3.048   6.766 -0.0257 -0.4075  0.7169
 2136TIP3    H228044   5.484   3.058   6.896  0.7796  0.9536  1.1093
 2137TIP3   OH228045   1.198   3.787   7.046  0.2983  0.2137  0.1933
 2137TIP3    H128046   1.115   3.793   7.093  1.0280 -0.6578  1.6822
 2137TIP3    H228047   1.200   3.696   7.014  1.2923 -0.2236  1.4284
 2138TIP3   OH228048   1.727   2.157   0.903  0.8157 -0.2104  0.5769
 2138TIP3    H128049   1.667   2.226   0.872  0.6249 -0.0996  1.1781
 2138TIP3    H228050   1.713   2.154   0.998  2.0619  0.0977  0.7867
 2139TIP3   OH228051   5.791   2.731   8.096  0.0477 -0.3482 -0.4041
 2139TIP3    H128052   5.711   2.693   8.061  1.1146 -0.2778 -3.1714
 2139TIP3    H228053   5.850   2.657   8.109 -0.3092 -0.3693  1.3485
 2140TIP3   OH228054   2.876   2.619   8.292 -0.0976  0.0450  0.3998
 2140TIP3    H128055   2.893   2.675   8.217 -1.9682 -1.3732 -1.1898
 2140TIP3    H228056   2.961   2.579   8.311  0.7854  1.7626  0.2116
 2141TIP3   OH228057   2.163   0.075   0.839  0.2355 -0.0283  0.8072
 2141TIP3    H128058   2.134   0.149   0.785 -0.8067 -0.8719  0.1676
 2141TIP3    H228059   2.082   0.041   0.878 -0.0374 -3.2354 -2.0168
 2142TIP3   OH228060   2.328   4.899   8.480 -0.4690  0.4137  0.4126
 2142TIP3    H128061   2.374   4.827   8.438 -0.4665  1.7378 -2.0129
 2142TIP3    H228062   2.238   4.868   8.490  0.4693 -1.7130  4.0409
 2143TIP3   OH228063   4.831   6.127   8.662  0.2065  0.5408 -0.1380
 2143TIP3    H128064   4.844   6.072   8.585  2.0092  0.6893  0.0091
 2143TIP3    H228065   4.786   6.204   8.629 -0.0411  0.1113 -0.8310
 2144TIP3   OH228066   2.980   5.677   0.681 -0.2152  0.2007 -0.2588
 2144TIP3    H128067   2.907   5.699   0.623 -1.9371  0.8081  2.0099
 2144TIP3    H228068   2.939   5.643   0.760  1.8873  1.7705  1.6502
 2145TIP3   OH228069   3.786   0.809   6.911 -0.4752 -0.3261  0.3476
 2145TIP3    H128070   3.803   0.889   6.961 -1.8272  0.2535 -0.0451
 2145TIP3    H228071   3.826   0.825   6.826  1.1302 -0.9831  0.9485
 2146TIP3   OH228072   2.562   0.483   7.087 -0.3098  0.1408 -0.6273
 2146TIP3    H128073   2.504   0.543   7.039  2.4463  2.6761 -1.0832
 2146TIP3    H228074   2.609   0.435   7.019 -0.4943 -0.5223 -0.3005
 2147TIP3   OH228075   4.081   5.833   1.823  0.4245  0.4429 -0.2314
 2147TIP3    H128076   3.998   5.831   1.774 -1.1316 -0.7940  2.2792
 2147TIP3    H228077   4.126   5.753   1.796  0.8711  1.1241 -1.6142
 2148TIP3   OH228078   4.331   4.825   7.312  0.1506  0.4751 -0.0474
 2148TIP3    H128079   4.385   4.789   7.382  0.7906 -0.3827 -0.9626
 2148TIP3    H228080   4.382   4.811   7.232 -0.7448  1.0611 -0.7403
 2149TIP3   OH228081   2.389   0.908   7.096 -0.2225 -0.7558  0.0818
 2149TIP3    H128082   2.442   0.852   7.153  0.0976 -0.8807 -0.3317
 2149TIP3    H228083   2.308   0.923   7.144  0.4279 -0.0673  0.9895
 2150TIP3   OH228084   0.768   4.089   0.039 -0.2200 -0.2831 -0.0080
 2150TIP3    H128085   0.678   4.099   0.008 -0.1580 -0.2777 -0.1884
 2150TIP3    H228086   0.819   4.147  -0.017 -0.0089 -0.7885 -0.3533
 2151TIP3   OH228087   3.914   6.283   2.291  0.0834  0.2067  0.2098
 2151TIP3    H128088   3.910   6.344   2.217 -0.5131 -0.1951 -0.0945
 2151TIP3    H228089   3.825   6.282   2.326  0.5758  1.1083  1.5225
 2152TIP3   OH228090   0.787   1.540   7.591  0.1359  0.5740  0.1749
 2152TIP3    H128091   0.710   1.589   7.564  0.2571 -0.2014 -1.7373
 2152TIP3    H228092   0.797   1.472   7.524  1.2560 -0.6664  1.5215
 2153TIP3   OH228093   6.092   2.847   6.969  0.2599 -0.5700 -0.0289
 2153TIP3    H128094   6.049   2.858   6.884  1.2251 -0.3974 -0.5201
 2153TIP3    H228095   6.178   2.809   6.947  1.3738  1.4090  0.6530
 2154TIP3   OH228096   6.437   3.324   0.787  0.4851  0.2456 -0.0751
 2154TIP3    H128097   6.396   3.307   0.702 -1.1222  0.6231  0.5851
 2154TIP3    H228098   6.420   3.244   0.837 -2.7068  1.6607  1.3803
 2155TIP3   OH228099   6.893   1.661   8.074 -0.4335  0.1470 -0.6468
 2155TIP3    H128100   6.965   1.678   8.134 -0.6111 -0.0070 -0.3838
 2155TIP3    H228101   6.921   1.585   8.024 -0.8891 -0.6552  0.2684
 2156TIP3   OH228102   2.147   0.175   6.634  0.2958  0.5803  0.0226
 2156TIP3    H128103   2.226   0.151   6.585  1.6937  0.0743  2.3663
 2156TIP3    H228104   2.158   0.268   6.654 -0.7062  1.0127 -1.3170
 2157TIP3   OH228105   0.324   1.407   2.445  0.1716 -0.3375 -0.0151
 2157TIP3    H128106   0.399   1.458   2.476 -0.1610 -0.8339  1.7242
 2157TIP3    H228107   0.332   1.323   2.490  0.2976 -1.5994 -2.2512
 2158TIP3   OH228108   3.778   3.910   6.146 -0.3539 -0.2040 -0.0491
 2158TIP3    H128109   3.787   4.002   6.172 -1.4865  0.7484 -2.7428
 2158TIP3    H228110   3.854   3.867   6.185  0.1123  1.7959  1.4346
 2159TIP3   OH228111   1.194   0.281   1.953 -0.4630 -0.3064 -0.0723
 2159TIP3    H128112   1.190   0.289   2.048  0.9879  0.7054 -0.0608
 2159TIP3    H228113   1.231   0.365   1.923  0.8137 -1.2677 -1.3567
 2160TIP3   OH228114   5.673   5.329   7.940 -0.9597 -0.4580  0.0224
 2160TIP3    H128115   5.672   5.264   8.010 -1.7511  0.3866  0.8268
 2160TIP3    H228116   5.662   5.278   7.860  1.5595 -1.6165  0.3210
 2161TIP3   OH228117   4.349   5.598   7.498  0.0650 -0.0604  0.1905
 2161TIP3    H128118   4.302   5.538   7.556  0.1773  0.3029  0.6676
 2161TIP3    H228119   4.428   5.621   7.547 -1.0869  2.3523  1.0989
 2162TIP3   OH228120   5.076   2.614   7.312 -0.3603 -0.0230 -0.4022
 2162TIP3    H128121   4.984   2.639   7.328 -0.0372  0.8056  0.2509
 2162TIP3    H228122   5.117   2.619   7.399  0.2149 -0.8019 -0.6190
 2163TIP3   OH228123   3.630   3.814   1.470  0.3792 -0.4238  0.3356
 2163TIP3    H128124   3.609   3.857   1.553  0.3814  0.2251  0.0058
 2163TIP3    H228125   3.585   3.866   1.404  0.9647 -0.5120 -0.1426
 2164TIP3   OH228126   4.353   1.760   2.646  0.3650  0.1792 -0.4879
 2164TIP3    H128127   4.301   1.817   2.703  2.1802  0.7055  0.7252
 2164TIP3    H228128   4.411   1.819   2.598 -1.3451 -0.2124 -3.2624
 2165TIP3   OH228129   1.586   5.884   0.652  0.1601 -0.7072  0.3164
 2165TIP3    H128130   1.619   5.821   0.588 -2.1192 -3.2227  1.4107
 2165TIP3    H228131   1.617   5.968   0.621 -0.7981 -1.7447 -4.1192
 2166TIP3   OH228132   4.109   1.638   1.027  0.4548 -0.1614  0.3024
 2166TIP3    H128133   4.074   1.632   1.116  0.7599  0.6510  0.4925
 2166TIP3    H228134   4.149   1.553   1.011  1.5618  0.1135  1.4516
 2167TIP3   OH228135   2.138   4.416   7.962  0.3516 -0.3297  0.4417
 2167TIP3    H128136   2.072   4.453   7.904  1.7271  1.6792  0.0804
 2167TIP3    H228137   2.093   4.407   8.046 -1.0381 -1.2671 -0.3566
 2168TIP3   OH228138   3.779   2.646   1.010  0.0510 -1.0563  0.2412
 2168TIP3    H128139   3.829   2.657   1.091 -0.2863  3.9939  0.0421
 2168TIP3    H228140   3.688   2.655   1.037 -0.0522  0.8867 -0.6451
 2169TIP3   OH228141   6.366   4.962   8.565  0.2095 -0.1321 -0.2127
 2169TIP3    H128142   6.372   4.949   8.470 -2.0917 -0.8950 -0.3291
 2169TIP3    H228143   6.338   5.053   8.575 -0.8782 -0.4383 -0.3630
 2170TIP3   OH228144   4.661   3.501   7.014  0.2194 -0.1703  0.0952
 2170TIP3    H128145   4.670   3.586   6.971  0.9031  1.3639  3.0378
 2170TIP3    H228146   4.748   3.462   7.008  0.1060 -0.3402 -0.5652
 2171TIP3   OH228147   0.247   2.826   1.766 -0.6932 -0.0107  0.3886
 2171TIP3    H128148   0.237   2.753   1.705 -0.4603 -2.7021  3.3204
 2171TIP3    H228149   0.158   2.844   1.796 -0.7255  0.8840 -0.1754
 2172TIP3   OH228150   5.665   0.805   1.189  0.1507 -0.0326  0.3928
 2172TIP3    H128151   5.654   0.883   1.243 -0.0264  0.1948  0.0356
 2172TIP3    H228152   5.656   0.837   1.099  2.2817 -0.0716  0.1252
 2173TIP3   OH228153   5.078   4.444   6.841 -0.2946 -0.4809  0.4671
 2173TIP3    H128154   5.063   4.349   6.840 -1.6800 -0.2834  0.4871
 2173TIP3    H228155   5.032   4.476   6.764  1.7120  0.0061 -0.6015
 2174TIP3   OH228156   4.997   5.510   1.817  0.4687  0.5806 -0.0537
 2174TIP3    H128157   5.082   5.536   1.782  0.0733  1.9840 -0.0395
 2174TIP3    H228158   4.935   5.529   1.746  0.3384 -2.3587 -0.8785
 2175TIP3   OH228159   4.724   1.518   1.226  0.3939  0.2344  0.1583
 2175TIP3    H128160   4.680   1.540   1.144 -0.0678  0.1768  0.3937
 2175TIP3    H228161   4.747   1.602   1.265  2.6548  0.2950 -1.1146
 2176TIP3   OH228162   0.139   6.312   8.026  0.0265  0.2200  0.2476
 2176TIP3    H128163   0.083   6.236   8.011  0.3003  0.0723 -0.0457
 2176TIP3    H228164   0.203   6.309   7.954 -1.3753  2.0408 -1.2027
 2177TIP3   OH228165   1.393   1.085   0.192 -0.2605  0.1148 -0.0368
 2177TIP3    H128166   1.468   1.037   0.155 -0.1995 -0.9354  1.3681
 2177TIP3    H228167   1.351   1.023   0.251 -0.8105  1.4639  1.0557
 2178TIP3   OH228168   6.041   5.667   6.825 -0.3130 -0.3776  0.4974
 2178TIP3    H128169   6.079   5.721   6.757 -0.8440  0.2446  0.6895
 2178TIP3    H228170   6.066   5.710   6.907 -1.1449 -0.1432  0.6349
 2179TIP3   OH228171   3.035   5.874   6.504  0.3972 -0.3368 -0.0960
 2179TIP3    H128172   2.946   5.896   6.477  0.1709 -1.2857 -0.1429
 2179TIP3    H228173   3.083   5.861   6.422  0.4728 -0.2323 -0.0681
 2180TIP3   OH228174   1.901   2.884   6.529 -0.2540  0.0640  0.1153
 2180TIP3    H128175   1.940   2.842   6.605  0.2821  0.5947  0.1392
 2180TIP3    H228176   1.842   2.951   6.565 -1.2186 -0.7348  0.0806
 2181TIP3   OH228177   1.774   3.453   8.494  0.2131 -0.0035 -0.2343
 2181TIP3    H128178   1.858   3.416   8.465  0.8667 -0.8929  2.4771
 2181TIP3    H228179   1.789   3.547   8.498  1.4368 -0.2204  1.0852
 2182TIP3   OH228180   5.668   6.818   6.790 -0.5417  0.5344 -0.3097
 2182TIP3    H128181   5.607   6.890   6.776 -0.5889  0.3235 -1.2144
 2182TIP3    H228182   5.725   6.818   6.713 -1.6327 -1.4569 -1.1911
 2183TIP3   OH228183   3.411   1.989   0.213  0.5511  0.0837  0.4967
 2183TIP3    H128184   3.357   1.914   0.235  0.7534  0.0457  0.8791
 2183TIP3    H228185   3.393   2.053   0.282  0.3114  0.4200  0.1223
 2184TIP3   OH228186   1.401   5.182   8.023 -0.2113 -0.4793 -0.1555
 2184TIP3    H128187   1.384   5.218   7.936  0.0079 -1.2361 -0.5142
 2184TIP3    H228188   1.493   5.201   8.040 -0.2595 -0.3125 -0.0738
 2185TIP3   OH228189   1.038   6.797   0.907 -0.2443  0.0818 -0.4095
 2185TIP3    H128190   1.038   6.719   0.963  1.6519  0.2091 -0.1740
 2185TIP3    H228191   1.056   6.869   0.967  0.9018  0.3309 -1.0377
 2186TIP3   OH228192   6.498   5.655   1.964 -0.1998 -0.2312  0.2839
 2186TIP3    H128193   6.471   5.709   2.038  0.1388  0.1359  0.1417
 2186TIP3    H228194   6.490   5.565   1.995 -3.1466 -0.2462 -0.2567
 2187TIP3   OH228195   2.782   3.592   7.448 -0.0514 -0.4520 -0.4629
 2187TIP3    H128196   2.780   3.681   7.482  0.9061 -0.5459 -0.1508
 2187TIP3    H228197   2.717   3.545   7.500  2.3356 -0.9478  2.3187
 2188TIP3   OH228198   3.394   1.727   8.104 -0.2214 -0.3246  0.3993
 2188TIP3    H128199   3.325   1.753   8.164 -0.5128  0.7865 -0.3792
 2188TIP3    H228200   3.473   1.724   8.158 -0.4883  0.5899  0.8626
 2189TIP3   OH228201   0.981   2.027   7.555  0.1986  0.5012 -0.1168
 2189TIP3    H128202   0.940   2.019   7.641  0.1387 -1.0346 -0.2619
 2189TIP3    H228203   0.920   2.079   7.504 -0.6148 -0.0502  0.2704
 2190TIP3   OH228204   4.991   3.316   0.320 -0.2627 -0.1455  0.1092
 2190TIP3    H128205   4.929   3.389   0.321 -0.3134 -0.1746 -0.4703
 2190TIP3    H228206   4.951   3.252   0.261  0.0155 -0.4375  0.2349
 2191TIP3   OH228207   6.025   3.871   0.161 -0.0873 -0.7639 -0.0847
 2191TIP3    H128208   5.983   3.875   0.247  3.7270  1.4030  1.9442
 2191TIP3    H228209   5.994   3.950   0.116  0.5658  0.0049  0.7755
 2192TIP3   OH228210   4.086   5.077   6.832  0.4213  0.4107 -0.1157
 2192TIP3    H128211   4.049   5.159   6.801 -0.1277  0.6026  0.9814
 2192TIP3    H228212   4.181   5.092   6.833  0.2566  1.7411  1.8624
 2193TIP3   OH228213   1.990   6.078   1.633  0.1112  0.0965  0.0678
 2193TIP3    H128214   2.055   6.021   1.673 -0.3497 -1.2028 -0.9699
 2193TIP3    H228215   1.918   6.081   1.695  0.1079 -0.5203  0.0977
 2194TIP3   OH228216   5.374   4.694   0.197 -0.0297 -0.8759  0.1389
 2194TIP3    H128217   5.418   4.615   0.165  0.2210 -0.0586 -1.7130
 2194TIP3    H228218   5.409   4.708   0.285  2.0851 -1.2640 -0.5773
 2195TIP3   OH228219   0.070   2.418   8.215 -0.4953  1.0110  0.6807
 2195TIP3    H128220   0.098   2.440   8.304  1.4299 -0.8887  0.6421
 2195TIP3    H228221   0.051   2.324   8.218  0.6739  0.6546 -1.0930
 2196TIP3   OH228222   6.745   3.550   6.270 -0.2377  0.2632  0.1165
 2196TIP3    H128223   6.717   3.490   6.340  0.4674  1.2671  1.2971
 2196TIP3    H228224   6.810   3.500   6.220  1.3890  0.4503  1.9300
 2197TIP3   OH228225   0.226   0.904   6.758 -0.1806  0.0897 -0.3843
 2197TIP3    H128226   0.159   0.864   6.703  0.6823  0.2130 -1.5574
 2197TIP3    H228227   0.298   0.923   6.698  0.6000  0.6687  0.7077
 2198TIP3   OH228228   2.580   0.164   7.923 -0.4992  0.6058  0.1748
 2198TIP3    H128229   2.567   0.222   7.848  0.1662  0.0683 -0.3644
 2198TIP3    H228230   2.582   0.223   7.999 -1.5370  1.1174 -0.1774
 2199TIP3   OH228231   6.351   1.331   8.529 -0.5872 -0.7468 -0.2555
 2199TIP3    H128232   6.414   1.389   8.486 -1.0404  0.2381  0.3612
 2199TIP3    H228233   6.358   1.248   8.481 -0.4264  0.0254 -1.6449
 2200TIP3   OH228234   6.859   3.782   6.618 -0.5417 -0.2604  0.0057
 2200TIP3    H128235   6.900   3.713   6.567 -0.4832 -0.4016  0.2394
 2200TIP3    H228236   6.768   3.784   6.586 -0.3129  0.1634 -0.6205
 2201TIP3   OH228237   6.179   3.953   7.039 -0.5061 -0.2351  0.3752
 2201TIP3    H128238   6.218   4.040   7.034 -0.4495 -0.2796 -3.3879
 2201TIP3    H228239   6.207   3.910   6.958 -1.5498 -3.3318  1.5038
 2202TIP3   OH228240   3.233   3.152   1.407 -0.0194  0.1042 -0.5699
 2202TIP3    H128241   3.196   3.154   1.318 -0.5809 -0.5507 -0.3625
 2202TIP3    H228242   3.203   3.068   1.443  0.2752  0.3293  0.2142
 2203TIP3   OH228243   2.279   1.189   1.376 -0.3802  0.3138  0.0906
 2203TIP3    H128244   2.210   1.123   1.385  0.0621 -0.1093  0.3832
 2203TIP3    H228245   2.268   1.222   1.286  0.5317 -1.4585 -0.7120
 2204TIP3   OH228246   5.845   3.407   1.017 -0.8783  0.1770  0.1643
 2204TIP3    H128247   5.760   3.375   0.990 -0.2513 -0.8919 -0.5986
 2204TIP3    H228248   5.893   3.422   0.935  0.2944 -1.0110  0.5996
 2205TIP3   OH228249   2.610   6.286   8.268  0.5871 -0.0440  0.3170
 2205TIP3    H128250   2.661   6.309   8.345 -0.0444  1.1074  0.4170
 2205TIP3    H228251   2.616   6.364   8.212  0.3465 -0.5455 -0.4183
 2206TIP3   OH228252   1.075   0.331   0.036 -0.2388 -0.0175 -0.3333
 2206TIP3    H128253   1.126   0.259  -0.002 -1.9811 -1.1667 -0.5742
 2206TIP3    H228254   1.071   0.312   0.130 -0.4433 -0.0656 -0.3518
 2207TIP3   OH228255   4.061   2.545   1.133  0.3459 -0.0994 -0.0408
 2207TIP3    H128256   4.012   2.466   1.109  2.2282 -0.9460 -1.3876
 2207TIP3    H228257   4.046   2.555   1.227 -0.7291 -1.4849 -0.0329
 2208TIP3   OH228258   1.895   0.060   1.485  0.1914 -0.3400  0.0766
 2208TIP3    H128259   1.802   0.073   1.505  0.1389 -2.4440  1.4913
 2208TIP3    H228260   1.940   0.130   1.533 -0.4024 -1.8475  3.0350
 2209TIP3   OH228261   6.100   3.449   1.246 -0.3605  0.1880  0.2192
 2209TIP3    H128262   6.110   3.438   1.341 -1.1574 -0.6363  0.2151
 2209TIP3    H228263   6.040   3.380   1.220 -0.2168  0.4665 -0.8836
 2210TIP3   OH228264   0.903   2.489   7.421 -0.3667 -0.1433 -0.0236
 2210TIP3    H128265   0.848   2.499   7.499 -0.9504  1.6950 -0.6228
 2210TIP3    H228266   0.928   2.397   7.421 -2.8680 -0.8995  0.6800
 2211TIP3   OH228267   4.036   3.634   8.317  0.0614 -0.0745  0.2978
 2211TIP3    H128268   4.083   3.552   8.305  1.1222  0.6258 -0.4992
 2211TIP3    H228269   4.067   3.690   8.246 -0.2081  1.2095  1.1614
 2212TIP3   OH228270   5.791   4.855   1.934  0.6129 -0.5434 -0.2426
 2212TIP3    H128271   5.755   4.899   1.858  3.0820  0.6847 -0.8132
 2212TIP3    H228272   5.849   4.787   1.898  2.0768  0.2687  0.4624
 2213TIP3   OH228273   5.098   1.396   6.713  0.0118 -0.2692 -0.2160
 2213TIP3    H128274   5.181   1.392   6.667  0.6434  0.4480  0.8080
 2213TIP3    H228275   5.037   1.436   6.651  0.9089  0.9462 -0.3430
 2214TIP3   OH228276   2.648   0.848   7.473 -0.2043  0.2475  0.5560
 2214TIP3    H128277   2.557   0.865   7.496  0.1320  0.9277  1.4191
 2214TIP3    H228278   2.699   0.886   7.544  0.7600 -0.1764  0.1151
 2215TIP3   OH228279   0.492   2.902   1.899  0.1804 -0.7284 -0.0517
 2215TIP3    H128280   0.404   2.886   1.864 -0.0335 -0.4983  0.3705
 2215TIP3    H228281   0.519   2.817   1.935  0.4241 -0.9821 -0.8027
 2216TIP3   OH228282   6.073   2.820   1.244 -0.4142 -0.3121 -0.4878
 2216TIP3    H128283   6.005   2.773   1.197  1.0127 -2.2868 -0.6877
 2216TIP3    H228284   6.059   2.796   1.336 -0.4752 -0.0622 -0.4308
 2217TIP3   OH228285   5.667   6.672   8.327  0.4411 -0.0971 -0.4414
 2217TIP3    H128286   5.622   6.752   8.298  0.1336 -0.0798  0.0783
 2217TIP3    H228287   5.613   6.601   8.294  0.3339 -0.0840 -0.2894
 2218TIP3   OH228288   2.348   1.867   0.825  0.1190  0.1128 -0.5136
 2218TIP3    H128289   2.326   1.781   0.788  0.6930  0.6185 -2.1471
 2218TIP3    H228290   2.381   1.848   0.912 -1.1047 -1.1870 -0.2931
 2219TIP3   OH228291   2.821   4.722   8.360  0.1794  0.3863 -0.4284
 2219TIP3    H128292   2.736   4.677   8.358  0.1287  0.4189  0.6251
 2219TIP3    H228293   2.859   4.705   8.274  0.5823 -2.5490  0.2064
 2220TIP3   OH228294   4.629   2.674   0.405 -0.6454 -0.2091  0.1925
 2220TIP3    H128295   4.546   2.655   0.361 -0.6757  1.0037 -0.3190
 2220TIP3    H228296   4.618   2.762   0.440 -0.5049 -1.0209  2.4234
 2221TIP3   OH228297   2.893   1.965   0.229 -0.1938  0.4025 -0.4009
 2221TIP3    H128298   2.941   1.931   0.154 -0.5214  0.0439 -0.4534
 2221TIP3    H228299   2.961   1.986   0.294 -0.0086 -0.9337 -0.1324
 2222TIP3   OH228300   3.001   1.148   7.492 -0.1716 -0.4732 -0.7814
 2222TIP3    H128301   2.934   1.198   7.538  0.4850 -1.2224  1.0728
 2222TIP3    H228302   2.956   1.068   7.463 -0.3167 -0.5521 -0.3529
 2223TIP3   OH228303   4.628   2.469   7.402  0.0172  0.0083 -0.0311
 2223TIP3    H128304   4.688   2.419   7.347  3.3453  0.1731  3.1128
 2223TIP3    H228305   4.663   2.559   7.401 -0.0268  0.0919  1.9408
 2224TIP3   OH228306   5.929   0.076   1.786  0.4049 -0.4207 -0.2759
 2224TIP3    H128307   5.979   0.045   1.861 -2.8385 -1.7044  1.5535
 2224TIP3    H228308   5.908  -0.004   1.736 -2.5717 -0.5226  0.9297
 2225TIP3   OH228309   2.896   0.766   8.499  0.1670  0.0380 -0.2787
 2225TIP3    H128310   2.941   0.850   8.490  1.0523 -0.5604 -2.0792
 2225TIP3    H228311   2.812   0.779   8.455  0.4904 -0.1258 -0.9599
 2226TIP3   OH228312   4.929   3.194   7.883 -0.2181  0.1096 -0.5217
 2226TIP3    H128313   4.879   3.127   7.928  2.2054 -0.7184  1.1377
 2226TIP3    H228314   4.971   3.245   7.953  2.2473 -0.0843 -1.7387
 2227TIP3   OH228315   1.596   6.482   7.922 -0.0599  0.1869  0.1432
 2227TIP3    H128316   1.602   6.386   7.924  1.3226  0.1945 -1.5516
 2227TIP3    H228317   1.559   6.505   8.007  2.1644 -1.6895  1.7436
 2228TIP3   OH228318   4.481   1.941   8.008  0.3888  0.0423  0.2311
 2228TIP3    H128319   4.419   1.871   7.989  0.1168 -0.5090  2.8141
 2228TIP3    H228320   4.557   1.921   7.953  0.1497 -2.0556  0.5637
 2229TIP3   OH228321   0.840   6.695   0.200 -0.0559  0.3076  0.0056
 2229TIP3    H128322   0.832   6.716   0.107 -0.3185  0.7978  0.1346
 2229TIP3    H228323   0.844   6.781   0.243 -0.1244  0.0831  0.4617
 2230TIP3   OH228324   1.468   6.797   8.351  0.1984  0.0133 -0.4043
 2230TIP3    H128325   1.427   6.868   8.400  0.9045 -0.8433  1.5326
 2230TIP3    H228326   1.534   6.839   8.296  0.0218  0.9280  0.0743
 2231TIP3   OH228327   3.449   2.585   8.378  0.5233  0.3691 -0.0948
 2231TIP3    H128328   3.406   2.575   8.293 -1.2606  0.7082  0.7189
 2231TIP3    H228329   3.540   2.607   8.357  0.4901 -0.9888 -1.8961
 2232TIP3   OH228330   3.654   6.423   1.231 -0.2411  0.2495  0.0570
 2232TIP3    H128331   3.637   6.330   1.240  0.6429  0.0657 -0.0316
 2232TIP3    H228332   3.750   6.430   1.235 -0.3059  1.1707  0.2716
 2233TIP3   OH228333   1.236   2.128   7.599  0.4877 -0.1406 -0.3727
 2233TIP3    H128334   1.154   2.100   7.558  1.8076 -3.7659 -0.8339
 2233TIP3    H228335   1.302   2.117   7.530  1.8618 -0.5184  0.9531
 2234TIP3   OH228336   4.798   6.242   7.935  0.4969  0.1155  0.1656
 2234TIP3    H128337   4.726   6.273   7.881  1.1723 -0.1339 -0.9207
 2234TIP3    H228338   4.771   6.155   7.965  0.1849  0.1858  0.0861
 2235TIP3   OH228339   2.375   3.844   1.884  0.3633  0.5083 -0.4168
 2235TIP3    H128340   2.324   3.767   1.907  0.1070  0.7714 -0.0929
 2235TIP3    H228341   2.310   3.908   1.855  0.7084 -0.0355 -2.6091
 2236TIP3   OH228342   2.986   1.302   0.616 -0.3804  0.4458  0.5075
 2236TIP3    H128343   2.999   1.346   0.700 -0.7027  1.0523  0.2511
 2236TIP3    H228344   2.977   1.209   0.638 -0.1147  0.5567  1.1066
 2237TIP3   OH228345   5.519   4.904   6.470 -0.1151 -0.1004 -0.5156
 2237TIP3    H128346   5.476   4.905   6.555  2.6171 -2.8103  1.1112
 2237TIP3    H228347   5.455   4.942   6.410 -2.5221  1.0829  2.5338
 2238TIP3   OH228348   4.640   1.772   0.803 -0.1796  0.0670 -0.2709
 2238TIP3    H128349   4.589   1.853   0.796 -1.7655 -0.8075  0.6064
 2238TIP3    H228350   4.580   1.703   0.773  0.1557 -1.1281  1.6522
 2239TIP3   OH228351   6.159   6.711   8.020 -0.3085 -0.2805 -0.0780
 2239TIP3    H128352   6.142   6.700   8.114 -1.0273 -0.6664 -0.2404
 2239TIP3    H228353   6.146   6.624   7.983  0.9937 -0.3495 -0.3995
 2240TIP3   OH228354   1.678   0.426   1.435  0.4501  0.4313  0.1190
 2240TIP3    H128355   1.705   0.416   1.526  0.2638  0.8264  0.2223
 2240TIP3    H228356   1.742   0.486   1.397  0.6223  0.1373 -0.0530
 2241TIP3   OH228357   5.156   4.722   0.702 -0.2555  0.0797  0.6898
 2241TIP3    H128358   5.134   4.787   0.635  0.0703 -2.0575 -1.6708
 2241TIP3    H228359   5.242   4.748   0.735 -0.4722  1.2414  0.3601
 2242TIP3   OH228360   6.136   5.012   1.453  0.0802 -0.1685 -0.0805
 2242TIP3    H128361   6.165   4.989   1.364  0.4267 -1.7156  0.4036
 2242TIP3    H228362   6.082   5.090   1.440 -0.2213 -0.5928 -1.7129
 2243TIP3   OH228363   1.863   0.802   8.386 -0.1237 -0.0505 -0.1599
 2243TIP3    H128364   1.927   0.731   8.393  0.9179  0.8673  0.0527
 2243TIP3    H228365   1.909   0.879   8.421 -1.2983  0.6801 -0.1601
 2244TIP3   OH228366   0.727   3.208   7.137  0.4696 -0.0572  0.1324
 2244TIP3    H128367   0.794   3.207   7.069 -0.2303 -2.1812 -0.6001
 2244TIP3    H228368   0.774   3.186   7.218  0.9614  0.3705 -0.0348
 2245TIP3   OH228369   4.397   0.179   1.083 -0.8128 -0.4456 -0.9476
 2245TIP3    H128370   4.472   0.233   1.062 -0.7188 -0.4033 -0.5160
 2245TIP3    H228371   4.352   0.227   1.153  1.1329 -2.4764  1.9395
 2246TIP3   OH228372   4.576   3.645   0.292 -0.0952  0.1455 -0.0119
 2246TIP3    H128373   4.487   3.613   0.280 -0.0541  0.2959 -0.8274
 2246TIP3    H228374   4.605   3.668   0.203  0.5894  0.5286  0.2992
 2247TIP3   OH228375   1.489   3.315   0.921  0.4011 -0.3244 -0.0846
 2247TIP3    H128376   1.430   3.268   0.863  0.4691 -1.5763  0.8345
 2247TIP3    H228377   1.437   3.331   1.001  0.8164 -0.0629  0.1381
 2248TIP3   OH228378   4.296   4.973   0.826 -0.1989 -0.0142 -0.1875
 2248TIP3    H128379   4.290   5.066   0.802  2.1123 -0.1099 -1.4537
 2248TIP3    H228380   4.338   4.974   0.913  0.3767  0.1456 -0.4578
 2249TIP3   OH228381   5.515   0.316   7.272 -0.4184  0.1002  0.2942
 2249TIP3    H128382   5.496   0.349   7.359 -1.2613  0.5816 -0.0616
 2249TIP3    H228383   5.598   0.357   7.248 -0.2159  0.0176  0.8365
 2250TIP3   OH228384   4.915   5.905   7.631  0.1436 -0.0277 -0.6273
 2250TIP3    H128385   4.879   5.966   7.566 -1.1413 -0.5654 -0.4362
 2250TIP3    H228386   4.841   5.883   7.687  1.3316  0.7880  1.3486
 2251TIP3   OH228387   0.595   3.605   8.474  0.4165  0.2732 -0.7258
 2251TIP3    H128388   0.550   3.614   8.390 -1.6150  0.6130  0.3494
 2251TIP3    H228389   0.648   3.526   8.464 -0.9635 -0.5587 -1.8390
 2252TIP3   OH228390   2.992   5.021   7.808  0.0390  0.1007  0.2237
 2252TIP3    H128391   2.954   5.095   7.856 -0.9881 -0.8641  0.9555
 2252TIP3    H228392   2.949   5.024   7.722 -1.1551 -0.5107  0.7730
 2253TIP3   OH228393   4.973   1.714   6.305 -0.4519 -0.1610  0.0065
 2253TIP3    H128394   4.902   1.754   6.354  1.3586  1.2178  1.6734
 2253TIP3    H228395   5.048   1.771   6.321  2.2469 -3.8484  2.1827
 2254TIP3   OH228396   3.677   4.973   0.512 -0.1913  0.5017 -0.5953
 2254TIP3    H128397   3.737   4.910   0.550 -1.0196 -0.0427 -0.1458
 2254TIP3    H228398   3.702   4.978   0.419 -0.0220 -0.3799 -0.6064
 2255TIP3   OH228399   2.965   0.492   7.521 -0.4676  0.4186 -0.0884
 2255TIP3    H128400   2.997   0.545   7.594 -3.9227  0.1397  1.8741
 2255TIP3    H228401   2.938   0.410   7.561 -2.0184  0.0454 -1.7604
 2256TIP3   OH228402   1.076   4.596   2.527  0.0798  0.3573 -0.8685
 2256TIP3    H128403   1.043   4.658   2.592  0.1675  0.4203 -0.8843
 2256TIP3    H228404   1.116   4.525   2.578  2.0450  1.4054 -0.8416
 2257TIP3   OH228405   3.389   5.364   6.809 -0.2708 -0.0158 -0.3955
 2257TIP3    H128406   3.321   5.419   6.847  0.3640  0.8607 -0.4840
 2257TIP3    H228407   3.434   5.422   6.747 -1.5926 -1.5063 -2.9074
 2258TIP3   OH228408   5.165   4.645   7.373 -0.6529 -0.2635 -0.1104
 2258TIP3    H128409   5.149   4.587   7.299 -0.0050 -0.2346 -0.2782
 2258TIP3    H228410   5.081   4.688   7.389 -0.4427  0.8099 -1.7521
 2259TIP3   OH228411   1.443   5.115   2.068 -0.1490 -0.2665 -0.0602
 2259TIP3    H128412   1.403   5.160   1.993  1.9453  1.9856  0.0689
 2259TIP3    H228413   1.386   5.136   2.142 -0.2231  0.6070 -0.3599
 2260TIP3   OH228414   6.723   0.933   0.803  0.0598  0.3255 -0.4360
 2260TIP3    H128415   6.688   0.863   0.857  0.0356  0.4062 -0.3461
 2260TIP3    H228416   6.646   0.980   0.772  0.0771  0.3256 -0.4770
 2261TIP3   OH228417   3.519   3.563   7.487  0.6600  0.1185  0.0284
 2261TIP3    H128418   3.501   3.650   7.454  1.4877 -0.2463 -1.4763
 2261TIP3    H228419   3.433   3.522   7.497  0.3420  0.6174 -0.6455
 2262TIP3   OH228420   0.024   5.182   6.943 -0.4159  0.1376  0.2090
 2262TIP3    H128421  -0.066   5.213   6.945 -0.1940  0.7866  0.3698
 2262TIP3    H228422   0.022   5.098   6.989 -0.6500  0.9073  1.6453
 2263TIP3   OH228423   4.933   0.278   7.740 -0.1075  0.3210 -0.0644
 2263TIP3    H128424   4.948   0.238   7.825  0.8345 -2.7833 -1.5270
 2263TIP3    H228425   4.841   0.261   7.721  0.0894 -0.5211 -0.3259
 2264TIP3   OH228426   0.286   0.154   8.270  0.3370 -0.6816  0.3126
 2264TIP3    H128427   0.254   0.225   8.325  0.2683  0.5739 -1.3095
 2264TIP3    H228428   0.217   0.088   8.275 -1.4483  0.9663 -1.1815
 2265TIP3   OH228429   2.990   6.433   1.490 -0.2814 -0.5266  0.4197
 2265TIP3    H128430   2.911   6.482   1.466  0.8856  1.2545  0.0606
 2265TIP3    H228431   3.061   6.497   1.484  1.3170 -2.2596  0.0131
 2266TIP3   OH228432   2.140   1.606   6.880  0.0659  0.2808  0.6564
 2266TIP3    H128433   2.178   1.561   6.804  1.6418 -0.9112  2.0978
 2266TIP3    H228434   2.211   1.660   6.915 -0.3538  0.0973  1.8243
 2267TIP3   OH228435   0.003   3.727   1.798  0.4223  0.0253  0.2385
 2267TIP3    H128436   0.074   3.751   1.738 -0.8829  1.9114 -0.6604
 2267TIP3    H228437   0.025   3.771   1.880  1.1408 -0.8265  0.5188
 2268TIP3   OH228438   4.480   0.129   0.484 -0.5544  0.2607  0.2364
 2268TIP3    H128439   4.543   0.110   0.554 -0.7132  0.4881  0.4390
 2268TIP3    H228440   4.524   0.099   0.404  0.5005  1.8959  0.1551
 2269TIP3   OH228441   4.530   3.686   2.156  0.5238  0.3007  0.4939
 2269TIP3    H128442   4.467   3.735   2.104 -1.0899 -0.8030  1.3474
 2269TIP3    H228443   4.559   3.748   2.224 -2.4393 -0.1667  2.3447
 2270TIP3   OH228444   3.919   3.868   1.798 -0.0045  0.2059 -0.1523
 2270TIP3    H128445   3.987   3.919   1.841  0.1766  0.0680 -0.2747
 2270TIP3    H228446   3.846   3.869   1.860  0.7518 -1.2204  0.8408
 2271TIP3   OH228447   1.485   2.653   2.016  0.1326  0.2337  0.3340
 2271TIP3    H128448   1.540   2.683   1.943  1.0207 -1.8456  0.0650
 2271TIP3    H228449   1.465   2.733   2.065 -0.3432  1.6816 -2.0513
 2272TIP3   OH228450   1.677   3.678   7.897  0.5095 -0.7556  0.4188
 2272TIP3    H128451   1.650   3.587   7.884  0.6177 -0.5457 -1.5756
 2272TIP3    H228452   1.723   3.677   7.981 -0.3336 -2.3366  0.9128
 2273TIP3   OH228453   6.681   5.646   0.067 -0.0981 -0.0166  0.1182
 2273TIP3    H128454   6.609   5.690   0.022 -0.6481 -1.4229 -0.4279
 2273TIP3    H228455   6.758   5.699   0.048 -0.6143  0.2997 -1.1291
 2274TIP3   OH228456   5.766   0.846   7.911  0.3517  0.0922  0.9467
 2274TIP3    H128457   5.684   0.880   7.946 -0.5729 -1.0090 -0.1062
 2274TIP3    H228458   5.772   0.756   7.944  0.7128 -0.1215  0.3196
 2275TIP3   OH228459   0.248   2.053   8.073 -0.1032 -0.0880  0.0294
 2275TIP3    H128460   0.159   2.087   8.081 -0.4001 -0.7643 -0.2815
 2275TIP3    H228461   0.297   2.096   8.143 -0.3416  1.3234 -0.6408
 2276TIP3   OH228462   6.422   0.574   1.037 -0.0219 -0.3169  0.0422
 2276TIP3    H128463   6.351   0.591   1.100 -1.7848 -2.5093 -1.2070
 2276TIP3    H228464   6.383   0.594   0.952  1.3940 -0.1179 -0.5796
 2277TIP3   OH228465   0.999   1.043   0.240 -0.4011 -0.1680 -0.0490
 2277TIP3    H128466   0.978   0.982   0.310 -0.1863 -0.9734 -0.6719
 2277TIP3    H228467   0.915   1.082   0.216 -0.5929 -0.4667  0.1344
 2278TIP3   OH228468   2.021   1.066   1.674  0.2932  0.2909 -0.0486
 2278TIP3    H128469   2.044   1.157   1.653  1.1518 -0.1882 -1.3357
 2278TIP3    H228470   1.934   1.054   1.635  0.7607  0.1823 -1.0907
 2279TIP3   OH228471   3.809   4.645   2.136  0.0197 -0.3866 -0.2183
 2279TIP3    H128472   3.822   4.554   2.164 -1.3844 -1.4016 -2.5592
 2279TIP3    H228473   3.715   4.652   2.119  0.2093  1.2768 -0.7917
 2280TIP3   OH228474   1.531   0.722   2.509  0.9135  0.0971 -0.3575
 2280TIP3    H128475   1.521   0.743   2.602  0.1383 -1.5458 -0.0404
 2280TIP3    H228476   1.624   0.702   2.499  0.6976 -1.5010  0.4967
 2281TIP3   OH228477   2.138   6.218   7.716  0.2599  0.8554  0.5403
 2281TIP3    H128478   2.086   6.240   7.639  2.0644 -2.3440 -1.8207
 2281TIP3    H228479   2.227   6.208   7.683  0.9891 -1.3657  2.8466
 2282TIP3   OH228480   3.950   1.205   1.241 -0.0920 -0.0366 -0.0284
 2282TIP3    H128481   3.900   1.286   1.244  0.7213  0.5627 -1.4646
 2282TIP3    H228482   4.025   1.220   1.298 -0.6796 -0.3311  0.8387
 2283TIP3   OH228483   6.829   0.563   7.836  0.0504 -0.1574  0.2803
 2283TIP3    H128484   6.748   0.603   7.868  0.0616  0.3718 -0.3381
 2283TIP3    H228485   6.829   0.579   7.742  1.7078  1.4009  0.4846
 2284TIP3   OH228486   6.609   6.501   8.001 -0.1165 -0.3938 -0.0599
 2284TIP3    H128487   6.628   6.534   8.089  3.7049 -1.1100 -0.4170
 2284TIP3    H228488   6.598   6.406   8.013  0.5248 -0.5089 -0.3125
 2285TIP3   OH228489   2.578   4.008   7.774 -0.0094  0.8141  0.1792
 2285TIP3    H128490   2.506   4.010   7.837  0.0853 -0.0123  0.3247
 2285TIP3    H228491   2.629   4.087   7.793  1.5406 -0.7037  2.9517
 2286TIP3   OH228492   2.978   0.580   2.517 -0.0871  0.0177 -0.1023
 2286TIP3    H128493   2.953   0.595   2.425  0.3104 -0.5332 -0.3044
 2286TIP3    H228494   3.070   0.554   2.513  0.1521  0.7302  0.5256
 2287TIP3   OH228495   2.153   6.817   0.021 -0.0052  0.0845  0.5329
 2287TIP3    H128496   2.071   6.857  -0.005 -0.8578 -1.4141  0.7933
 2287TIP3    H228497   2.157   6.735  -0.029  2.0045  0.7599 -0.5061
 2288TIP3   OH228498   4.744   4.171   6.211  0.0220 -0.1667  0.0489
 2288TIP3    H128499   4.693   4.178   6.292  1.0511 -0.5646  0.7489
 2288TIP3    H228500   4.831   4.145   6.239  0.3679 -0.4545 -1.2080
 2289TIP3   OH228501   4.950   0.696   7.654 -0.5671 -0.0266  0.5820
 2289TIP3    H128502   4.901   0.771   7.689 -0.7877 -0.4628  1.2097
 2289TIP3    H228503   4.969   0.641   7.730 -0.6572 -0.7586  0.0848
 2290TIP3   OH228504   5.177   4.259   7.591  0.0221 -0.3677  0.1093
 2290TIP3    H128505   5.186   4.166   7.613  0.1773 -0.1361  1.0419
 2290TIP3    H228506   5.194   4.305   7.673  1.3968  0.5557 -0.6608
 2291TIP3   OH228507   5.274   2.392   2.308  0.4345 -0.1529 -0.0010
 2291TIP3    H128508   5.320   2.424   2.231 -0.2734  0.7328 -0.0743
 2291TIP3    H228509   5.234   2.310   2.280  2.4804 -1.3268  0.2627
 2292TIP3   OH228510   6.668   0.193   1.452  0.0890  0.3404  1.0750
 2292TIP3    H128511   6.679   0.248   1.375  0.8809  0.0779  0.9854
 2292TIP3    H228512   6.615   0.245   1.512  0.0381  0.8164  0.6194
 2293TIP3   OH228513   3.821   3.337   8.637 -0.1258  0.1085  0.1636
 2293TIP3    H128514   3.889   3.348   8.703 -0.2400  1.1644  0.1227
 2293TIP3    H228515   3.805   3.425   8.603 -1.1302 -0.1931 -0.2089
 2294TIP3   OH228516   6.810   4.917   1.797 -0.0789  0.1736 -0.0888
 2294TIP3    H128517   6.765   4.895   1.878  0.3586 -1.8302 -0.3332
 2294TIP3    H228518   6.740   4.944   1.737 -0.8130 -1.3142  0.0449
 2295TIP3   OH228519   1.786   5.485   1.993  0.4699  0.0420 -0.5529
 2295TIP3    H128520   1.764   5.392   2.005 -1.2598  0.5686  0.7718
 2295TIP3    H228521   1.794   5.520   2.082  0.0343  1.3961 -1.0210
 2296TIP3   OH228522   6.808   3.626   8.551 -0.6180  0.4614  0.1932
 2296TIP3    H128523   6.864   3.639   8.474  0.0690 -0.4454  0.5212
 2296TIP3    H228524   6.868   3.594   8.618 -1.8245 -2.4638  0.0170
 2297TIP3   OH228525   1.157   1.551   7.763 -0.4129  0.0945  0.1983
 2297TIP3    H128526   1.069   1.513   7.765  0.1244 -1.3151 -1.0475
 2297TIP3    H228527   1.149   1.627   7.706 -0.4879 -1.0747 -1.4258
 2298TIP3   OH228528   1.618   1.842   8.047 -0.1333 -0.2081 -0.0146
 2298TIP3    H128529   1.650   1.810   7.962  0.6671 -0.8042  0.4968
 2298TIP3    H228530   1.551   1.779   8.073 -1.1156  0.5373 -0.6607
 2299TIP3   OH228531   2.010   2.122   2.036  0.3417  0.1906  0.2625
 2299TIP3    H128532   1.926   2.119   1.992  0.2219 -0.6173  0.5356
 2299TIP3    H228533   2.011   2.045   2.093  0.7641  0.8320  1.1665
 2300TIP3   OH228534   3.667   6.070   2.184 -0.3884  0.0371 -0.0144
 2300TIP3    H128535   3.610   6.000   2.152  1.6663 -1.9329  0.3561
 2300TIP3    H228536   3.668   6.058   2.279  1.2968 -0.5934 -0.0744
 2301TIP3   OH228537   1.175   2.558   7.258  0.4444  0.2347 -0.5178
 2301TIP3    H128538   1.254   2.548   7.311 -0.5171  0.8010  1.0701
 2301TIP3    H228539   1.113   2.494   7.293 -0.5213  1.2502 -0.3222
 2302TIP3   OH228540   4.897   0.289   0.088 -0.3536 -0.4727 -0.0430
 2302TIP3    H128541   4.847   0.225   0.138  0.4828  0.0740  1.5507
 2302TIP3    H228542   4.988   0.274   0.114 -0.1752  1.5852  0.6794
 2303TIP3   OH228543   4.367   1.301   7.123 -0.2073 -0.3175  0.5432
 2303TIP3    H128544   4.328   1.315   7.209  0.7916  0.1145  0.9406
 2303TIP3    H228545   4.328   1.370   7.068  0.8947  0.9176  1.2497
 2304TIP3   OH228546   1.130   1.015   2.497  0.3385  0.1116  0.1160
 2304TIP3    H128547   1.058   1.049   2.550 -0.1302 -0.8346  0.1197
 2304TIP3    H228548   1.164   0.941   2.548 -1.4399 -2.1437 -1.7352
 2305TIP3   OH228549   2.145   0.944   1.388 -0.0167  0.1749 -0.3348
 2305TIP3    H128550   2.103   0.903   1.312 -3.9414  0.5867  1.3709
 2305TIP3    H228551   2.123   0.887   1.461 -1.7368  2.8380  1.3899
 2306TIP3   OH228552   3.254   2.611   8.138 -0.0492  0.0633 -0.0702
 2306TIP3    H128553   3.180   2.582   8.190 -0.3871  0.5127 -0.2980
 2306TIP3    H228554   3.299   2.530   8.113  0.4521 -0.1303  1.3857
 2307TIP3   OH228555   6.352   3.068   8.263 -0.4369  0.5014 -0.2119
 2307TIP3    H128556   6.391   3.077   8.350  0.8649 -0.6079 -0.6377
 2307TIP3    H228557   6.340   3.158   8.233  1.2735  0.9193  0.2047
 2308TIP3   OH228558   6.822   4.437   7.701 -0.3029 -0.2694  0.2583
 2308TIP3    H128559   6.856   4.471   7.783  2.9111  2.0820 -1.7989
 2308TIP3    H228560   6.878   4.362   7.681 -1.1281 -0.8897  0.2221
 2309TIP3   OH228561   0.837   3.439   6.880 -0.1975  0.5210 -0.3330
 2309TIP3    H128562   0.920   3.424   6.833  0.3955 -1.8677  1.2811
 2309TIP3    H228563   0.780   3.369   6.849 -0.5784  0.3404  0.7387
 2310TIP3   OH228564   1.117   3.156   6.611 -0.2410  0.2546  0.3880
 2310TIP3    H128565   1.106   3.084   6.673  1.7351  1.2808  2.0505
 2310TIP3    H228566   1.182   3.123   6.548  0.3854  0.4174  0.9337
 2311TIP3   OH228567   4.688   6.811   0.077  0.1017 -0.3257  0.6083
 2311TIP3    H128568   4.734   6.828  -0.006 -2.4976 -0.6762 -1.0121
 2311TIP3    H228569   4.696   6.893   0.126  0.2408  0.5011 -0.7495
 2312TIP3   OH228570   1.604   4.576   7.363  0.0691 -0.5946  1.2630
 2312TIP3    H128571   1.584   4.651   7.307 -1.8755  1.3835  4.2750
 2312TIP3    H228572   1.576   4.500   7.312 -2.5739  1.1232 -0.1340
 2313TIP3   OH228573   2.453   2.783   8.619 -0.2836  0.1131  0.7339
 2313TIP3    H128574   2.487   2.693   8.619 -0.7593 -0.0700  1.3818
 2313TIP3    H228575   2.506   2.828   8.684 -0.9276 -0.0441  1.3779
 2314TIP3   OH228576   4.029   0.976   1.118  0.1276  0.4050  0.2199
 2314TIP3    H128577   3.945   0.930   1.116 -0.2143  1.0217 -0.2437
 2314TIP3    H228578   4.006   1.065   1.146  0.7099  0.4145  0.6717
 2315TIP3   OH228579   2.555   1.474   0.134  0.2017 -0.2243 -0.1088
 2315TIP3    H128580   2.623   1.522   0.086 -0.7340  0.4902 -0.7489
 2315TIP3    H228581   2.524   1.536   0.200  1.4011 -1.1640  1.4076
 2316TIP3   OH228582   5.899   6.081   8.562 -0.2284  0.4135  0.2073
 2316TIP3    H128583   5.919   6.076   8.468  1.0988 -1.4797  0.5409
 2316TIP3    H228584   5.971   6.132   8.599  0.4455 -0.6829  0.4626
 2317TIP3   OH228585   4.720   2.770   6.915 -0.3627 -0.5429 -0.3323
 2317TIP3    H128586   4.666   2.705   6.870 -0.8249  0.0596 -0.6551
 2317TIP3    H228587   4.691   2.766   7.006  0.9819 -2.1860  0.0720
 2318TIP3   OH228588   5.432   2.854   1.546 -0.5351  0.2994  0.1784
 2318TIP3    H128589   5.439   2.941   1.585  1.2646  0.1602  0.2432
 2318TIP3    H228590   5.474   2.863   1.460  0.9168 -0.8002  0.7331
 2319TIP3   OH228591   5.234   2.681   7.504 -0.1318  0.1087  0.1687
 2319TIP3    H128592   5.303   2.624   7.472  0.0061  0.3118  0.0982
 2319TIP3    H228593   5.264   2.711   7.590  1.7667  3.2809 -1.3916
 2320TIP3   OH228594   1.932   1.507   8.463  0.3302 -0.5452  0.0814
 2320TIP3    H128595   1.924   1.595   8.426 -0.0556 -1.3077 -1.7747
 2320TIP3    H228596   1.845   1.488   8.499 -0.0408 -0.7232 -0.8811
 2321TIP3   OH228597   3.542   3.896   0.287 -0.2757  0.1631  0.1090
 2321TIP3    H128598   3.534   3.990   0.304  0.0431  0.4694 -1.2988
 2321TIP3    H228599   3.515   3.854   0.369 -0.0612  1.4833  0.8797
 2322TIP3   OH228600   0.794   0.380   2.637 -0.2992 -0.2013  0.1964
 2322TIP3    H128601   0.843   0.440   2.693 -0.5999  1.0770 -0.8527
 2322TIP3    H228602   0.717   0.431   2.608 -1.3070 -1.5581  0.3723
 2323TIP3   OH228603   2.371   3.567   7.592 -0.2294 -0.5354  0.1782
 2323TIP3    H128604   2.276   3.580   7.583  0.1239  1.0725 -2.1655
 2323TIP3    H228605   2.402   3.559   7.502  1.8664 -1.1348  0.9199
 2324TIP3   OH228606   1.890   2.586   7.181 -0.2238 -0.1336 -0.5050
 2324TIP3    H128607   1.903   2.660   7.122  3.0719 -1.4834 -1.6690
 2324TIP3    H228608   1.909   2.509   7.129  0.6816 -1.5243  1.7198
 2325TIP3   OH228609   6.013   4.103   8.355 -0.4347  0.2011 -0.3012
 2325TIP3    H128610   6.034   4.176   8.296 -0.3707  1.2173  0.9367
 2325TIP3    H228611   6.048   4.130   8.439 -1.2460 -0.8687  0.3995
 2326TIP3   OH228612   5.788   6.236   7.912 -0.0366 -0.1650  0.3128
 2326TIP3    H128613   5.877   6.233   7.946  0.0669  2.0446  0.3958
 2326TIP3    H228614   5.762   6.144   7.905  1.9160 -0.8399  1.0985
 2327TIP3   OH228615   3.049   6.404   1.792  0.1724  0.2489 -0.2570
 2327TIP3    H128616   3.139   6.425   1.764  0.3808  0.0725  0.2767
 2327TIP3    H228617   2.996   6.425   1.715  0.6801  0.2628 -0.6168
 2328TIP3   OH228618   2.007   2.539   0.763 -0.4915  0.0162 -0.1997
 2328TIP3    H128619   1.982   2.526   0.672 -1.0426 -0.8304  0.0572
 2328TIP3    H228620   2.004   2.451   0.801 -1.2222  0.4719  0.8595
 2329TIP3   OH228621   3.123   3.604   8.262  0.3185 -0.2901  0.0251
 2329TIP3    H128622   3.129   3.694   8.231 -0.4482  0.1306  1.0396
 2329TIP3    H228623   3.210   3.568   8.248  0.4776  0.4177 -0.9274
 2330TIP3   OH228624   4.734   3.223   0.179 -0.0566  0.0342  0.5512
 2330TIP3    H128625   4.644   3.214   0.210  0.0401  2.0138  1.5499
 2330TIP3    H228626   4.726   3.222   0.084 -1.3622  1.7220  0.5904
 2331TIP3   OH228627   4.962   2.889   6.590 -0.6559 -0.2664  0.4412
 2331TIP3    H128628   4.947   2.825   6.521 -1.2925  0.0644  0.2691
 2331TIP3    H228629   5.056   2.883   6.608 -0.0427  1.0488 -1.8853
 2332TIP3   OH228630   1.610   5.438   8.523  0.8598 -0.0188  0.0050
 2332TIP3    H128631   1.526   5.422   8.481 -0.0719  1.2041  1.2745
 2332TIP3    H228632   1.627   5.360   8.575 -0.8832  0.7274  1.8433
 2333TIP3   OH228633   2.293   3.270   7.759 -0.4607 -0.1231  0.4996
 2333TIP3    H128634   2.274   3.323   7.682  0.0760 -0.4617  0.1256
 2333TIP3    H228635   2.328   3.331   7.823  0.8450 -0.1278 -0.1851
 2334TIP3   OH228636   1.042   1.506   1.892 -0.5022  0.1128 -0.2490
 2334TIP3    H128637   0.962   1.470   1.854 -1.4547  0.8165  1.0289
 2334TIP3    H228638   1.048   1.465   1.978 -0.1432  0.9705  0.1405
 2335TIP3   OH228639   3.047   1.801   1.211  0.1662  0.1474 -0.3923
 2335TIP3    H128640   2.973   1.862   1.210 -0.9020 -1.1146 -1.0194
 2335TIP3    H228641   3.017   1.727   1.263  0.6434 -0.7812 -1.4051
 2336TIP3   OH228642   4.731   4.855   6.725 -0.2527 -0.6993 -0.1218
 2336TIP3    H128643   4.742   4.948   6.747 -2.9007 -0.3149 -0.0151
 2336TIP3    H228644   4.819   4.824   6.704  0.6851  1.8755 -0.3282
 2337TIP3   OH228645   2.206   5.015   2.651 -0.7884 -0.0221  0.4356
 2337TIP3    H128646   2.214   4.935   2.703 -0.6911 -0.8045 -0.7647
 2337TIP3    H228647   2.145   5.070   2.701 -1.7962 -1.3266  0.6803
 2338TIP3   OH228648   4.015   3.448   0.160 -0.1575  0.1505 -0.0941
 2338TIP3    H128649   4.005   3.540   0.182  0.0840 -0.3609  2.3902
 2338TIP3    H228650   3.962   3.401   0.225  0.5101 -1.5059 -0.6776
 2339TIP3   OH228651   2.731   6.023   8.457  0.4326 -0.0205 -0.2473
 2339TIP3    H128652   2.735   6.054   8.367 -2.2573  0.1953 -0.3474
 2339TIP3    H228653   2.692   5.936   8.451  0.4391 -0.0999  0.7039
 2340TIP3   OH228654   2.483   3.669   1.405  0.2546 -0.1367  0.4064
 2340TIP3    H128655   2.418   3.664   1.476 -0.5219  0.8530 -0.2102
 2340TIP3    H228656   2.492   3.762   1.388  0.6696 -0.3528 -0.5948
 2341TIP3   OH228657   2.351   0.695   6.871  0.4483  0.3929  0.1745
 2341TIP3    H128658   2.363   0.676   6.778  2.7920 -0.9019  0.6632
 2341TIP3    H228659   2.422   0.754   6.894 -1.4068  2.5349  0.7347
 2342TIP3   OH228660   6.301   2.120   1.776  0.0741  0.1376 -0.1420
 2342TIP3    H128661   6.247   2.048   1.809 -1.4000  0.5188 -1.5930
 2342TIP3    H228662   6.381   2.078   1.745  1.1858 -0.3269  2.9708
 2343TIP3   OH228663   2.799   2.422   7.355 -0.0068 -0.4120  0.4413
 2343TIP3    H128664   2.816   2.516   7.350  2.7195 -0.8052  0.7890
 2343TIP3    H228665   2.717   2.415   7.404 -0.5999  1.7872 -0.1401
 2344TIP3   OH228666   4.596   0.673   2.294  0.3585 -0.0490  0.2361
 2344TIP3    H128667   4.617   0.751   2.242  2.2782 -0.5223  0.2342
 2344TIP3    H228668   4.617   0.697   2.384 -0.8484  0.0249  0.5224
 2345TIP3   OH228669   5.256   5.665   8.592  0.3629  0.6517  0.0631
 2345TIP3    H128670   5.187   5.722   8.559  0.2436  0.4118 -0.1077
 2345TIP3    H228671   5.213   5.612   8.660 -0.0640 -0.6643 -1.1799
 2346TIP3   OH228672   1.884   4.596   0.770  0.1763 -0.4374 -0.0378
 2346TIP3    H128673   1.822   4.669   0.768  0.3647 -0.1364  2.3335
 2346TIP3    H228674   1.896   4.572   0.678 -1.0441  1.5262 -0.7700
 2347TIP3   OH228675   0.518   1.286   8.522  0.1849 -0.3383 -0.3451
 2347TIP3    H128676   0.435   1.327   8.498  0.8217  1.4547  0.3684
 2347TIP3    H228677   0.565   1.278   8.440 -0.7242 -1.5185 -0.7812
 2348TIP3   OH228678   5.719   0.705   0.530 -0.1501  0.1932  0.4969
 2348TIP3    H128679   5.784   0.685   0.463 -1.5526  1.9828 -1.5620
 2348TIP3    H228680   5.770   0.726   0.608  1.7220  0.6965 -0.7862
 2349TIP3   OH228681   5.212   3.314   1.295 -1.0675 -0.3985 -0.0131
 2349TIP3    H128682   5.154   3.371   1.346  1.1401  1.6362  0.3955
 2349TIP3    H228683   5.223   3.236   1.350 -0.4096  0.8458  1.7214
 2350TIP3   OH228684   2.426   2.397   1.127  0.4599  0.1745  0.1565
 2350TIP3    H128685   2.504   2.402   1.182  0.5364  0.0335  0.0647
 2350TIP3    H228686   2.428   2.477   1.075 -0.0458  0.6949  0.9180
 2351TIP3   OH228687   6.389   4.895   8.305  0.1891  0.2018 -0.1472
 2351TIP3    H128688   6.459   4.830   8.311  1.5845  1.7038  0.6569
 2351TIP3    H228689   6.389   4.922   8.214  0.6867  0.1976 -0.1544
 2352TIP3   OH228690   6.301   1.642   7.946 -0.6140  0.0573  0.9486
 2352TIP3    H128691   6.386   1.663   7.983 -0.2560 -2.4129  1.6373
 2352TIP3    H228692   6.319   1.622   7.854 -0.1355 -1.9889  1.4398
 2353TIP3   OH228693   6.126   4.536   0.223  0.1694 -0.0144 -0.1351
 2353TIP3    H128694   6.095   4.492   0.302 -1.5270 -0.0859 -0.7820
 2353TIP3    H228695   6.110   4.473   0.152  0.7769  0.3957 -0.6488
 2354TIP3   OH228696   3.634   2.868   7.154 -0.5358  0.0017  0.5510
 2354TIP3    H128697   3.570   2.798   7.139 -0.7407  0.2791  0.1060
 2354TIP3    H228698   3.638   2.915   7.071  1.8326 -1.2702 -0.1448
 2355TIP3   OH228699   0.962   3.974   0.985 -0.2944  0.2869 -0.0328
 2355TIP3    H128700   1.052   3.947   1.005 -0.2145  1.3848  1.2603
 2355TIP3    H228701   0.909   3.934   1.054 -0.6525  0.4371 -0.2200
 2356TIP3   OH228702   0.557   4.421   0.182  0.9488  0.3783  0.2097
 2356TIP3    H128703   0.613   4.353   0.145 -1.8658 -1.4466 -1.0370
 2356TIP3    H228704   0.551   4.401   0.275 -0.6374 -1.8728 -0.2840
 2357TIP3   OH228705   5.427   0.002   7.985 -0.6035 -0.0442  0.2009
 2357TIP3    H128706   5.359   0.021   7.920  0.3720  1.4546 -0.4189
 2357TIP3    H228707   5.450  -0.090   7.969 -0.4325  0.2681 -1.5366
 2358TIP3   OH228708   1.348   4.208   1.267  0.0710 -0.0476 -0.0121
 2358TIP3    H128709   1.282   4.277   1.269  0.3972  0.2643  0.2037
 2358TIP3    H228710   1.338   4.167   1.182 -0.1305  0.2683 -0.1428
 2359TIP3   OH228711   1.836   6.072   8.288 -0.5016 -0.3099 -0.1061
 2359TIP3    H128712   1.928   6.082   8.265  0.1818  0.1015  2.4413
 2359TIP3    H228713   1.837   6.055   8.383 -3.1138  1.3466  0.3193
 2360TIP3   OH228714   4.083   3.614   7.833 -0.1476 -0.9679 -0.2973
 2360TIP3    H128715   4.084   3.649   7.922  2.6493  0.9544 -0.9510
 2360TIP3    H228716   4.076   3.519   7.844  0.2919 -0.7843  1.9542
 2361TIP3   OH228717   3.547   4.481   6.734  0.1220 -0.5332 -0.2721
 2361TIP3    H128718   3.511   4.516   6.653  1.7738 -1.5350 -1.5143
 2361TIP3    H228719   3.506   4.395   6.744 -1.4017  0.2950  0.9524
 2362TIP3   OH228720   0.841   1.384   1.792 -0.0202  0.2676  0.1970
 2362TIP3    H128721   0.768   1.446   1.800 -2.0434 -1.9415  0.1821
 2362TIP3    H228722   0.799   1.302   1.767  2.8056 -0.5375 -2.4098
 2363TIP3   OH228723   0.786   4.110   6.584  0.8179  0.2572 -0.2638
 2363TIP3    H128724   0.868   4.061   6.570  0.5763 -0.4207  0.6193
 2363TIP3    H228725   0.736   4.095   6.504  0.8416 -0.7892 -0.1081
 2364TIP3   OH228726   2.872   0.953   7.346  0.4616 -0.4723 -0.3487
 2364TIP3    H128727   2.809   0.900   7.395  0.4676 -0.5356 -0.4084
 2364TIP3    H228728   2.897   0.897   7.272 -0.9954  0.3568 -1.5182
 2365TIP3   OH228729   6.685   5.487   7.990 -0.9050  0.3754  0.9079
 2365TIP3    H128730   6.607   5.433   8.003 -0.9421  0.2522  0.2271
 2365TIP3    H228731   6.758   5.424   7.989 -1.0513  0.1696 -1.0014
 2366TIP3   OH228732   5.188   4.548   0.376 -0.2343  0.2979  0.2352
 2366TIP3    H128733   5.158   4.634   0.406 -1.0726 -0.6000  2.1253
 2366TIP3    H228734   5.278   4.542   0.406 -0.2683  0.3994  0.3561
 2367TIP3   OH228735   1.876   0.932   8.066  0.0729 -0.2172  0.3332
 2367TIP3    H128736   1.798   0.902   8.112  0.2621 -2.8620 -0.8686
 2367TIP3    H228737   1.944   0.868   8.090  1.3056  0.8247 -0.2617
 2368TIP3   OH228738   4.446   2.386   2.278 -0.0321  0.4219  0.7669
 2368TIP3    H128739   4.442   2.400   2.184  0.8252 -0.1196  0.6370
 2368TIP3    H228740   4.503   2.310   2.289  2.2275  2.1492  1.8338
 2369TIP3   OH228741   4.487   1.118   2.327 -0.5968  0.6985 -0.1656
 2369TIP3    H128742   4.479   1.170   2.407  1.7211  1.9059 -0.6254
 2369TIP3    H228743   4.507   1.182   2.258  1.1782 -0.6375 -0.9797
 2370TIP3   OH228744   1.400   2.314   0.796  0.2486  0.0653 -0.2487
 2370TIP3    H128745   1.443   2.258   0.732 -1.5252  0.4555 -1.8599
 2370TIP3    H228746   1.340   2.255   0.843 -1.3702  0.4525 -1.7168
 2371TIP3   OH228747   2.981   4.422   7.691  0.2807  0.1210  0.4429
 2371TIP3    H128748   3.055   4.483   7.682  1.1508 -0.9864 -0.2491
 2371TIP3    H228749   2.953   4.405   7.601 -0.1663 -0.2494  0.6499
 2372TIP3   OH228750   5.843   0.283   7.594 -0.0531  0.7618  0.4175
 2372TIP3    H128751   5.833   0.202   7.545  0.0092  1.4546 -0.7762
 2372TIP3    H228752   5.913   0.330   7.549  2.0155  0.2397  2.8257
 2373TIP3   OH228753   0.235   4.814   1.768  0.5439  0.4276  0.4084
 2373TIP3    H128754   0.270   4.730   1.797 -2.8364 -1.4703 -0.5259
 2373TIP3    H228755   0.274   4.828   1.682 -0.8577 -1.6771 -0.6572
 2374TIP3   OH228756   3.282   3.865   6.265  0.4410 -0.1721  0.0402
 2374TIP3    H128757   3.337   3.893   6.192  0.2223 -2.3296 -1.0118
 2374TIP3    H228758   3.301   3.772   6.275 -1.3332 -0.4549  1.1748
 2375TIP3   OH228759   6.775   4.727   8.104 -0.0119 -0.3201 -0.4144
 2375TIP3    H128760   6.843   4.794   8.102  0.3746 -0.6440  1.0025
 2375TIP3    H228761   6.738   4.733   8.192 -2.0322  0.0314 -1.2294
 2376TIP3   OH228762   0.865   0.510   8.668  0.5381 -0.0118  0.0102
 2376TIP3    H128763   0.939   0.555   8.627  0.1718  2.3902  1.7694
 2376TIP3    H228764   0.901   0.428   8.700  2.6413  1.3512  1.3235
 2377TIP3   OH228765   4.491   3.223   8.476 -0.4940 -0.2784  0.4882
 2377TIP3    H128766   4.426   3.225   8.547 -1.5171 -1.0663 -0.4058
 2377TIP3    H228767   4.495   3.132   8.449  1.2712 -0.3130  0.7487
 2378TIP3   OH228768   0.623   6.820   2.667  0.3037 -0.1608  0.0368
 2378TIP3    H128769   0.614   6.841   2.574  1.4960 -0.9511 -0.2870
 2378TIP3    H228770   0.564   6.747   2.681 -1.3103  1.1505  0.3765
 2379TIP3   OH228771   4.108   2.885   2.127 -0.3991 -0.2397  0.1540
 2379TIP3    H128772   4.124   2.965   2.177  1.0352 -1.4847  1.8620
 2379TIP3    H228773   4.027   2.901   2.079 -1.6669  1.2151  2.6170
 2380TIP3   OH228774   4.272   6.147   7.810 -0.2150  0.4034 -0.0841
 2380TIP3    H128775   4.222   6.227   7.791  1.5135  1.5960  0.1606
 2380TIP3    H228776   4.319   6.166   7.891 -0.6831 -1.3401  0.6500
 2381TIP3   OH228777   1.263   6.072   1.597  0.1731  0.0926  0.2611
 2381TIP3    H128778   1.255   6.057   1.692  1.0177 -0.7665  0.2071
 2381TIP3    H228779   1.285   6.165   1.590 -1.1520  0.4841  0.8249
 2382TIP3   OH228780   1.043   0.182   8.033  0.2372 -0.5916  0.4994
 2382TIP3    H128781   1.034   0.272   8.064 -1.7132 -0.3357 -0.6304
 2382TIP3    H228782   1.069   0.191   7.942  1.7374 -1.2350  0.8479
 2383TIP3   OH228783   6.766   4.184   7.862 -0.2865 -0.1989  0.3006
 2383TIP3    H128784   6.779   4.176   7.767 -1.8403 -0.0266  0.0402
 2383TIP3    H228785   6.829   4.123   7.900  2.0506  1.4381 -0.6957
 2384TIP3   OH228786   6.552   5.101   2.698  0.3729  0.1615  0.0782
 2384TIP3    H128787   6.572   5.024   2.753 -0.6342 -0.4462 -0.3909
 2384TIP3    H228788   6.571   5.072   2.609 -1.0008  0.1086 -0.2092
 2385TIP3   OH228789   1.898   1.594   1.805 -0.8159 -0.5299 -0.8071
 2385TIP3    H128790   1.924   1.684   1.785 -1.0748 -0.8048 -2.5909
 2385TIP3    H228791   1.869   1.597   1.896 -0.6281  1.1361 -0.7657
 2386TIP3   OH228792   2.579   6.043   0.866 -0.2626  0.0764  0.1864
 2386TIP3    H128793   2.593   6.115   0.805  1.8177  0.1805  0.7261
 2386TIP3    H228794   2.506   6.073   0.921  0.6750  1.8929  0.5165
 2387TIP3   OH228795   1.669   6.011   7.786 -0.0872 -0.2581  0.2263
 2387TIP3    H128796   1.641   5.927   7.822 -0.7051 -0.0603  0.2231
 2387TIP3    H228797   1.765   6.007   7.786 -0.1125 -1.0461  0.0213
 2388TIP3   OH228798   6.053   2.949   8.220  0.1310 -0.2471  0.4169
 2388TIP3    H128799   6.144   2.929   8.196 -0.6757  0.2365 -3.8140
 2388TIP3    H228800   6.055   3.041   8.247  0.7423  0.3716 -1.5240
 2389TIP3   OH228801   0.008   2.000   8.567 -0.0910 -0.2330  0.0019
 2389TIP3    H128802  -0.077   2.031   8.599  0.6269 -0.0426  1.8597
 2389TIP3    H228803   0.002   1.905   8.569 -0.4587 -0.2228 -0.4671
 2390TIP3   OH228804   2.253   4.298   8.274  0.3722 -0.1191 -0.0767
 2390TIP3    H128805   2.343   4.311   8.246 -0.0210 -1.3330 -2.1693
 2390TIP3    H228806   2.222   4.386   8.296  1.8320  0.4161 -0.0336
 2391TIP3   OH228807   0.286   4.865   1.467 -0.1198 -0.2176 -0.0001
 2391TIP3    H128808   0.330   4.949   1.458  0.2455 -0.4431 -0.3462
 2391TIP3    H228809   0.276   4.833   1.377 -0.4690 -0.4327  0.1128
 2392TIP3   OH228810   1.405   4.912   0.881  0.0682  0.2459  0.1247
 2392TIP3    H128811   1.485   4.902   0.933  0.0678 -0.4673 -0.0001
 2392TIP3    H228812   1.366   4.825   0.880 -1.1862  0.7703  0.9162
 2393TIP3   OH228813   1.547   5.702   8.211 -0.5401 -0.1062  0.6444
 2393TIP3    H128814   1.461   5.670   8.237  0.0935 -1.0072  1.6834
 2393TIP3    H228815   1.605   5.627   8.221  0.4840  0.6466  0.5151
 2394TIP3   OH228816   3.944   4.095   0.888 -0.3069  0.2648  0.1211
 2394TIP3    H128817   3.867   4.121   0.837  0.5945 -1.1436 -2.1081
 2394TIP3    H228818   3.911   4.086   0.978 -2.0870  2.3313 -0.2257
 2395TIP3   OH228819   2.232   2.015   7.176  0.3676  0.2757 -0.1533
 2395TIP3    H128820   2.159   2.059   7.130 -0.0564 -0.2075  0.0479
 2395TIP3    H228821   2.218   1.922   7.158  0.6108  0.1394  0.3656
 2396TIP3   OH228822   4.983   0.979   0.816 -0.4218 -0.3841 -0.0179
 2396TIP3    H128823   4.919   1.019   0.875  0.5170  0.6904  0.3097
 2396TIP3    H228824   5.067   1.013   0.846  0.1553 -0.5208 -1.4201
 2397TIP3   OH228825   1.312   1.348   2.086  0.2995 -0.0331  0.3401
 2397TIP3    H128826   1.298   1.259   2.052 -0.2574 -0.0174  0.5174
 2397TIP3    H228827   1.230   1.369   2.131  0.4412  0.5634  0.3188
 2398TIP3   OH228828   4.115   4.177   1.699  0.1668 -0.0035 -0.4871
 2398TIP3    H128829   4.091   4.146   1.787  0.0082 -0.4867 -0.6960
 2398TIP3    H228830   4.180   4.245   1.715  1.3719 -1.2115 -0.0526
 2399TIP3   OH228831   6.054   5.742   1.183  0.3619  0.4489  0.6390
 2399TIP3    H128832   6.064   5.743   1.279 -0.2027  1.2887  0.6964
 2399TIP3    H228833   6.080   5.830   1.156 -1.1815  0.7820  0.2026
 2400TIP3   OH228834   5.607   4.906   0.396 -0.1684  0.1486 -0.2050
 2400TIP3    H128835   5.610   4.997   0.367  3.2905  0.4913  0.8560
 2400TIP3    H228836   5.687   4.867   0.361 -2.3734 -3.0950 -2.1792
 2401TIP3   OH228837   6.601   5.223   2.092  0.2662 -0.3186 -0.2756
 2401TIP3    H128838   6.637   5.146   2.136 -0.2096  0.2487  1.1718
 2401TIP3    H228839   6.678   5.274   2.065  0.5701 -0.7057 -0.1428
 2402TIP3   OH228840   4.896   4.897   6.354  0.3756  0.2062  0.0892
 2402TIP3    H128841   4.969   4.960   6.353  0.3344  0.2854 -1.9296
 2402TIP3    H228842   4.926   4.824   6.301 -0.6784 -0.1733 -0.0156
 2403TIP3   OH228843   0.008   2.397   1.337 -0.2309 -0.1271 -0.3468
 2403TIP3    H128844   0.049   2.332   1.281 -1.6243 -0.3681 -1.1463
 2403TIP3    H228845   0.057   2.478   1.321  1.5396 -0.9364  0.6857
 2404TIP3   OH228846   2.671   3.645   7.168  0.5396 -0.4817 -0.5618
 2404TIP3    H128847   2.741   3.637   7.233  2.3401 -0.3180 -2.3962
 2404TIP3    H228848   2.665   3.557   7.129 -0.6032 -0.6088 -0.1296
 2405TIP3   OH228849   0.982   5.930   7.641  0.4586  0.2891 -0.3050
 2405TIP3    H128850   1.068   5.962   7.668  0.2272  1.0879 -0.4999
 2405TIP3    H228851   0.994   5.835   7.633  1.1802  0.3290  0.1805
 2406TIP3   OH228852   6.700   3.420   7.343 -0.0774  0.0713 -0.0695
 2406TIP3    H128853   6.656   3.342   7.308  1.8170 -1.0908  0.0176
 2406TIP3    H228854   6.669   3.427   7.433 -0.7724 -0.1737 -0.2819
 2407TIP3   OH228855   4.108   4.793   0.049  0.4454  0.1336 -0.0407
 2407TIP3    H128856   4.087   4.880   0.083  1.1957  0.1004  0.5233
 2407TIP3    H228857   4.202   4.784   0.061  0.6620 -0.1073 -1.6338
 2408TIP3   OH228858   3.974   6.127   0.973  0.4141  0.4588 -0.2844
 2408TIP3    H128859   3.973   6.091   1.061 -0.2103 -2.7617 -1.4799
 2408TIP3    H228860   4.067   6.130   0.950  0.4768 -1.2489 -0.3935
 2409TIP3   OH228861   3.574   6.412   1.712  0.5230  0.2245  0.0990
 2409TIP3    H128862   3.583   6.477   1.642 -0.9796  0.7112  0.3338
 2409TIP3    H228863   3.663   6.402   1.746  0.7942  2.1987  0.0914
 2410TIP3   OH228864   4.964   4.016   0.612 -0.0860 -0.3923  0.1682
 2410TIP3    H128865   4.996   4.103   0.591 -1.0366  0.0504  0.5206
 2410TIP3    H228866   5.002   3.996   0.698  0.4906 -0.5253 -0.1086
 2411TIP3   OH228867   5.600   5.066   1.129 -0.0889  0.5103 -0.0512
 2411TIP3    H128868   5.667   5.125   1.095  1.8149 -0.2282  2.1486
 2411TIP3    H228869   5.522   5.086   1.078  1.7150  1.5953 -2.5670
 2412TIP3   OH228870   1.052   0.630   8.522  0.5895 -0.4786 -0.4683
 2412TIP3    H128871   1.119   0.698   8.509 -0.7327  1.5777  2.3983
 2412TIP3    H228872   0.979   0.659   8.468 -0.0459  0.5871  0.9031
 2413TIP3   OH228873   0.521   4.194   7.964 -0.8524  0.3198  0.2907
 2413TIP3    H128874   0.574   4.166   7.889 -1.5403 -1.3694  0.3862
 2413TIP3    H228875   0.528   4.122   8.026 -3.4070 -0.0704  0.2162
 2414TIP3   OH228876   4.227   2.663   0.917 -0.5302 -0.2581 -0.1146
 2414TIP3    H128877   4.191   2.635   1.001  0.2608 -1.4928 -0.1654
 2414TIP3    H228878   4.307   2.611   0.906 -1.1681 -0.9085 -2.1109
 2415TIP3   OH228879   6.641   1.457   0.918  0.4254  0.6990  0.1592
 2415TIP3    H128880   6.734   1.444   0.936  0.4426 -0.6554 -0.7819
 2415TIP3    H228881   6.629   1.425   0.829 -1.2453 -0.6941  0.8215
 2416TIP3   OH228882   2.084   6.012   7.401  0.0998  0.3775  0.3720
 2416TIP3    H128883   2.129   6.096   7.397 -0.8173  0.9001  0.8513
 2416TIP3    H228884   2.124   5.961   7.330  0.2626  1.4096 -0.3004
 2417TIP3   OH228885   5.976   3.926   0.450  0.5858 -0.0360 -0.4992
 2417TIP3    H128886   5.999   3.893   0.537 -1.7214 -0.9294 -0.1536
 2417TIP3    H228887   6.013   4.014   0.447  0.9577 -0.0996  1.2794
 2418TIP3   OH228888   4.427   0.113   8.224  0.0927 -0.2240 -0.0398
 2418TIP3    H128889   4.451   0.163   8.146  1.6659  0.6348  0.9451
 2418TIP3    H228890   4.499   0.051   8.236 -0.1617 -0.3878  0.6849
 2419TIP3   OH228891   0.489   0.415   2.136  0.2651  0.7223 -0.4356
 2419TIP3    H128892   0.445   0.330   2.143  0.5683  0.6077  0.1598
 2419TIP3    H228893   0.458   0.464   2.212  0.3929  1.0020 -0.5632
 2420TIP3   OH228894   0.976   2.712   7.087  0.5355  0.3566 -0.0427
 2420TIP3    H128895   1.001   2.643   7.149  0.9105  1.5217  1.1459
 2420TIP3    H228896   1.053   2.722   7.030  0.1314 -0.8254 -0.8340
 2421TIP3   OH228897   1.943   4.076   0.639 -0.1572  0.1916  0.4779
 2421TIP3    H128898   1.997   4.126   0.700 -0.0942  0.0251  0.5590
 2421TIP3    H228899   1.957   4.117   0.554 -0.5763  0.6953  0.6489
 2422TIP3   OH228900   6.164   3.512   8.090  0.4948  0.1900  0.2777
 2422TIP3    H128901   6.128   3.576   8.152  0.3438  0.3327  0.0430
 2422TIP3    H228902   6.117   3.528   8.008  1.6387  0.9263 -0.2680
 2423TIP3   OH228903   3.873   3.368   6.596 -0.1593 -0.3492  0.2664
 2423TIP3    H128904   3.960   3.366   6.637 -0.0963 -0.2141  0.1431
 2423TIP3    H228905   3.891   3.363   6.502 -0.2790 -0.2048  0.2355
 2424TIP3   OH228906   2.274   6.569   1.604 -0.6692  0.0007  0.1264
 2424TIP3    H128907   2.311   6.653   1.630  0.0889 -0.5731  0.9419
 2424TIP3    H228908   2.182   6.589   1.585  0.4155  2.0456 -4.6536
 2425TIP3   OH228909   5.492   5.387   0.036 -1.0128  0.2336  0.4273
 2425TIP3    H128910   5.463   5.313  -0.016  0.3642 -0.0581  0.0599
 2425TIP3    H228911   5.586   5.375   0.047 -0.7170  2.0213  0.1985
 2426TIP3   OH228912   1.204   3.147   7.693 -0.4106 -0.0469  0.1736
 2426TIP3    H128913   1.149   3.069   7.705  1.1593 -1.6277 -1.9183
 2426TIP3    H228914   1.160   3.197   7.625  0.4943 -1.2039 -1.3447
 2427TIP3   OH228915   6.319   3.222   0.194  0.0762  0.3628 -0.2709
 2427TIP3    H128916   6.374   3.279   0.140  0.5240  2.1563  1.9153
 2427TIP3    H228917   6.378   3.154   0.226  0.4485  0.8353  0.0573
 2428TIP3   OH228918   2.023   3.289   0.321 -0.1147  0.2153  0.2824
 2428TIP3    H128919   1.940   3.266   0.361  0.0977  1.3682  1.4644
 2428TIP3    H228920   2.063   3.206   0.298 -1.4109 -0.3655  0.0636
 2429TIP3   OH228921   0.710   0.869   7.636  0.0380  0.1996  0.1483
 2429TIP3    H128922   0.751   0.815   7.703  0.2848 -0.8296 -0.8097
 2429TIP3    H228923   0.633   0.907   7.679  0.4346 -0.0898  1.1274
 2430TIP3   OH228924   5.527   1.711   1.990  0.1809  0.4716  0.5145
 2430TIP3    H128925   5.599   1.769   2.011  0.1066  0.4768  0.7624
 2430TIP3    H228926   5.495   1.681   2.075 -0.1376  0.5062  0.4095
 2431TIP3   OH228927   4.656   6.692   1.686  0.1115 -0.2071  0.3022
 2431TIP3    H128928   4.685   6.660   1.600  2.8500  2.9134 -0.1503
 2431TIP3    H228929   4.666   6.618   1.745  1.4604 -1.4994 -1.4653
 2432TIP3   OH228930   6.412   4.575   0.219 -0.5677 -0.3986 -0.2141
 2432TIP3    H128931   6.442   4.653   0.174  2.9563 -2.8077 -2.5515
 2432TIP3    H228932   6.323   4.561   0.185 -0.3866  1.3232 -1.5502
 2433TIP3   OH228933   0.761   6.541   6.872  0.1756 -0.1191  0.4440
 2433TIP3    H128934   0.837   6.491   6.843 -0.6282 -0.6299 -0.8799
 2433TIP3    H228935   0.697   6.530   6.802 -0.7227  1.2121  1.0161
 2434TIP3   OH228936   2.786   2.987   8.385  0.2708 -0.3079  0.2272
 2434TIP3    H128937   2.871   2.976   8.342  0.9627  0.2084  1.3989
 2434TIP3    H228938   2.777   2.910   8.441  1.1753  0.7998  1.9997
 2435TIP3   OH228939   5.286   0.564   1.488 -0.5396  0.1171 -0.0185
 2435TIP3    H128940   5.255   0.478   1.461 -1.2579 -0.3372  2.0749
 2435TIP3    H228941   5.363   0.546   1.543  0.0886  0.9069 -0.6143
 2436TIP3   OH228942   1.524   0.705   7.334 -0.3840 -0.0570  0.2846
 2436TIP3    H128943   1.582   0.756   7.390 -1.4075  0.7124  0.6543
 2436TIP3    H228944   1.441   0.752   7.334 -1.0204 -1.1245 -0.2615
 2437TIP3   OH228945   2.929   3.856   7.551  0.6354  0.0679  0.4823
 2437TIP3    H128946   2.854   3.834   7.605 -0.0859 -0.6216 -0.7571
 2437TIP3    H228947   3.001   3.806   7.588  1.0688  2.3471  3.0123
 2438TIP3   OH228948   4.900   2.718   0.426 -0.4016 -0.2155  0.2315
 2438TIP3    H128949   4.984   2.744   0.387  0.0484  1.0145  1.9209
 2438TIP3    H228950   4.835   2.738   0.358  0.4269  1.1172 -0.2053
 2439TIP3   OH228951   2.729   5.433   0.440  0.0370 -0.1743  0.3025
 2439TIP3    H128952   2.823   5.432   0.459 -0.1530 -0.0607  1.3158
 2439TIP3    H228953   2.707   5.526   0.429 -0.2704 -0.0327  1.8457
 2440TIP3   OH228954   1.287   3.563   0.496  0.6057 -0.4000  0.0566
 2440TIP3    H128955   1.272   3.581   0.588  2.7992  0.1282  0.3575
 2440TIP3    H228956   1.252   3.640   0.451  1.1207  0.1667  0.6026
 2441TIP3   OH228957   3.224   5.576   1.226  0.2523  0.2054 -0.2238
 2441TIP3    H128958   3.148   5.524   1.253  0.8650 -1.1162 -0.9391
 2441TIP3    H228959   3.299   5.528   1.262  1.1034 -1.5040 -3.8524
 2442TIP3   OH228960   2.801   4.347   1.195  0.3214  0.0911  0.3223
 2442TIP3    H128961   2.842   4.339   1.281  0.3690  1.5111  0.4590
 2442TIP3    H228962   2.796   4.442   1.180 -0.5206 -0.1194 -0.8361
 2443TIP3   OH228963   6.087   5.216   0.768 -0.3862 -0.1035  0.8815
 2443TIP3    H128964   6.046   5.140   0.808  1.0346 -2.0015 -1.0322
 2443TIP3    H228965   6.176   5.216   0.802 -0.1494  0.2188  0.2772
 2444TIP3   OH228966   5.633   6.391   1.893  0.0625 -0.6689  0.0033
 2444TIP3    H128967   5.647   6.329   1.965  0.6323 -0.4000  0.1272
 2444TIP3    H228968   5.601   6.471   1.935  0.3063 -0.5419 -0.0523
 2445TIP3   OH228969   6.052   6.062   2.682  0.4664 -0.3343  0.0883
 2445TIP3    H128970   6.086   6.124   2.617  1.6664 -0.7812  0.2628
 2445TIP3    H228971   5.962   6.044   2.654  0.8634 -0.2929 -1.2770
 2446TIP3   OH228972   4.051   0.765   7.585  0.2932  0.0625  0.1032
 2446TIP3    H128973   4.088   0.678   7.599  0.4602 -0.1920 -1.7364
 2446TIP3    H228974   3.962   0.749   7.556  0.5748  0.4644 -1.0157
 2447TIP3   OH228975   5.465   3.544   1.546  0.6318 -0.9501  0.3591
 2447TIP3    H128976   5.437   3.474   1.604  1.6500 -0.3364  1.6457
 2447TIP3    H228977   5.487   3.500   1.464 -0.0812 -1.9402  0.6867
 2448TIP3   OH228978   6.373   5.031   7.814  0.1892 -0.4509  0.5473
 2448TIP3    H128979   6.463   5.011   7.840  0.5192 -0.4683 -0.5610
 2448TIP3    H228980   6.327   4.948   7.821  0.2112 -0.4019  1.3012
 2449TIP3   OH228981   1.922   5.825   0.557  0.1846 -0.3561  0.1349
 2449TIP3    H128982   2.013   5.800   0.574 -0.3379 -2.5744  0.0332
 2449TIP3    H228983   1.912   5.820   0.462  0.3027  1.3261  0.0088
 2450TIP3   OH228984   3.365   0.857   8.272 -0.2038  0.2760 -0.2391
 2450TIP3    H128985   3.358   0.867   8.366 -2.4270  1.6232 -0.4733
 2450TIP3    H228986   3.377   0.763   8.258 -0.9797 -0.0832  1.3363
 2451TIP3   OH228987   3.333   1.875   8.370 -0.7400 -0.0982 -0.1485
 2451TIP3    H128988   3.272   1.802   8.362 -1.1726  0.3049 -0.6703
 2451TIP3    H228989   3.373   1.865   8.456 -1.5498 -0.3623  0.1985
 2452TIP3   OH228990   6.537   4.854   1.762 -0.5650  0.7924  0.0548
 2452TIP3    H128991   6.518   4.925   1.823  0.4523 -0.2332  1.6650
 2452TIP3    H228992   6.460   4.797   1.766 -0.8883  1.1988 -0.3372
 2453TIP3   OH228993   5.726   5.911   2.723  0.3138  0.1100 -0.2856
 2453TIP3    H128994   5.693   5.822   2.733 -0.1995  0.3810  0.4764
 2453TIP3    H228995   5.707   5.954   2.806 -0.2666  1.2016 -0.9560
 2454TIP3   OH228996   2.721   0.830   2.358  0.0519  0.1825  0.3141
 2454TIP3    H128997   2.680   0.755   2.315 -0.1233  0.0007  0.7849
 2454TIP3    H228998   2.789   0.859   2.297  0.9061 -1.0813  0.6325
 2455TIP3   OH228999   2.531   2.103   8.135 -0.2315  0.0861 -0.5743
 2455TIP3    H129000   2.581   2.167   8.186  1.8769 -1.4362 -0.5553
 2455TIP3    H229001   2.553   2.122   8.044 -1.0067  0.4688 -0.6876
 2456TIP3   OH229002   5.305   5.405   8.336  0.5746 -0.3349  0.8312
 2456TIP3    H129003   5.234   5.393   8.399  1.1182 -0.1853  1.4994
 2456TIP3    H229004   5.296   5.333   8.275 -0.8109  0.3102  0.2403
 2457TIP3   OH229005   5.727   2.119   8.245  0.0369  0.6926  0.4160
 2457TIP3    H129006   5.741   2.080   8.158  2.4856  1.8353  0.1981
 2457TIP3    H229007   5.784   2.068   8.303  1.0413  2.0157  0.6588
 2458TIP3   OH229008   4.267   4.203   7.758 -0.1008 -0.0508 -0.1975
 2458TIP3    H129009   4.259   4.260   7.834  0.5687  2.2401 -1.7401
 2458TIP3    H229010   4.360   4.206   7.736 -0.3850 -0.1892 -1.4583
 2459TIP3   OH229011   0.582   6.850   8.291  0.2513 -0.7377 -0.0577
 2459TIP3    H129012   0.602   6.935   8.330 -2.1881 -0.1768  0.1807
 2459TIP3    H229013   0.551   6.871   8.202 -0.8103 -1.2840  0.1596
 2460TIP3   OH229014   1.086   3.160   0.911  0.3768 -0.2947 -0.3377
 2460TIP3    H129015   1.161   3.181   0.967  0.1171  1.0151 -0.4517
 2460TIP3    H229016   1.079   3.235   0.851 -1.4424 -0.0435  0.1222
 2461TIP3   OH229017   1.354   5.468   8.145  0.5159  0.2615  0.3472
 2461TIP3    H129018   1.331   5.380   8.115 -0.1241  0.4717  0.1974
 2461TIP3    H229019   1.362   5.460   8.240 -1.4236  0.4201  0.5712
 2462TIP3   OH229020   1.405   6.703   1.643  0.3629  0.2572 -0.6197
 2462TIP3    H129021   1.418   6.685   1.737  0.7631  1.8604 -0.3411
 2462TIP3    H229022   1.491   6.688   1.604  1.0037  2.4228 -0.2022
 2463TIP3   OH229023   4.200   6.791   7.821  0.4146 -0.0053 -0.6018
 2463TIP3    H129024   4.207   6.809   7.915 -1.7515  0.0554 -0.4159
 2463TIP3    H229025   4.254   6.859   7.781 -0.4294  1.3741  0.5073
 2464TIP3   OH229026   5.961   2.467   8.321  0.3971 -0.0721  0.2216
 2464TIP3    H129027   6.012   2.391   8.348  1.2251  0.6335  0.6995
 2464TIP3    H229028   5.996   2.539   8.373  1.3082  1.1205 -1.9018
 2465TIP3   OH229029   1.793   2.020   6.984 -0.5597 -0.2260  0.0427
 2465TIP3    H129030   1.776   2.105   6.944 -0.6418 -0.2949 -0.0676
 2465TIP3    H229031   1.725   1.963   6.950  0.7289 -0.8706 -1.5461
 2466TIP3   OH229032   3.648   4.062   8.135  0.0064 -0.2958  0.0260
 2466TIP3    H129033   3.688   4.134   8.086  0.1498 -0.1836  0.3072
 2466TIP3    H229034   3.686   3.983   8.097  2.8215 -0.1358  2.2465
 2467TIP3   OH229035   0.982   6.432   6.466 -0.0561 -0.8250  0.4230
 2467TIP3    H129036   0.897   6.393   6.444  0.1214 -1.4104  0.7577
 2467TIP3    H229037   0.964   6.488   6.541 -0.9122  2.1320 -1.7923
 2468TIP3   OH229038   5.652   5.386   2.683  0.1024 -0.5604 -0.1500
 2468TIP3    H129039   5.637   5.344   2.598  1.3716 -1.0631 -0.1467
 2468TIP3    H229040   5.742   5.363   2.705 -0.2872 -0.6276  1.4524
 2469TIP3   OH229041   2.795   5.669   7.929  0.0946 -0.2784  0.2276
 2469TIP3    H129042   2.761   5.592   7.974  1.5784 -0.6649  0.7462
 2469TIP3    H229043   2.776   5.742   7.988 -0.1956 -0.4216  0.3123
 2470TIP3   OH229044   3.900   1.430   2.691 -0.2380  0.0754  0.5519
 2470TIP3    H129045   3.974   1.370   2.698 -0.6377 -0.4542  0.3142
 2470TIP3    H229046   3.940   1.516   2.678  0.3425 -0.4627 -1.7535
 2471TIP3   OH229047   3.733   3.058   0.477  0.1445  0.0461  0.8763
 2471TIP3    H129048   3.737   3.108   0.396 -0.6486  1.2801  1.5845
 2471TIP3    H229049   3.810   3.086   0.526  2.2038 -2.6898 -0.4990
 2472TIP3   OH229050   3.640   5.964   7.932 -0.0252 -0.7620  0.0503
 2472TIP3    H129051   3.665   5.974   8.023  4.2920  1.1090 -1.0740
 2472TIP3    H229052   3.619   6.053   7.903  0.0470 -1.0986 -1.0879
 2473TIP3   OH229053   0.595   1.117   8.063 -0.0137  0.4688 -0.2923
 2473TIP3    H129054   0.551   1.192   8.102  0.7322  1.1488 -0.7267
 2473TIP3    H229055   0.674   1.154   8.022 -0.9358 -0.1182 -2.7594
 2474TIP3   OH229056   6.749   0.032   0.689  0.0652 -0.4935 -0.5233
 2474TIP3    H129057   6.794  -0.047   0.718 -1.1569 -0.7927  0.7006
 2474TIP3    H229058   6.819   0.092   0.665  1.1929 -0.7191  1.8626
 2475TIP3   OH229059   6.029   2.530   2.419  0.0217 -0.4767 -0.2239
 2475TIP3    H129060   6.017   2.450   2.470 -0.6500  0.8938  1.8815
 2475TIP3    H229061   6.087   2.584   2.472  0.8393  0.2799 -1.8357
 2476TIP3   OH229062   1.581   3.844   2.170 -0.2547 -0.3887  0.0820
 2476TIP3    H129063   1.576   3.879   2.259  1.7352  0.9528 -0.2576
 2476TIP3    H229064   1.567   3.750   2.181 -0.3072 -0.2215  1.7856
 2477TIP3   OH229065   4.111   1.720   0.626 -0.4795  0.5832  0.1299
 2477TIP3    H129066   4.143   1.634   0.601 -1.5030  0.4645 -0.8815
 2477TIP3    H229067   4.171   1.782   0.584  0.3832  0.3905  1.0342
 2478TIP3   OH229068   5.227   3.986   7.747  0.4293 -0.0118 -0.1552
 2478TIP3    H129069   5.148   4.004   7.798  0.2229 -1.1959 -0.0221
 2478TIP3    H229070   5.299   4.018   7.802  0.1008  0.2611  0.1209
 2479TIP3   OH229071   5.881   3.304   6.575  0.0585  0.1314 -0.2325
 2479TIP3    H129072   5.905   3.350   6.656  1.0612 -1.6796  0.5765
 2479TIP3    H229073   5.904   3.365   6.505 -1.0853  1.8627  0.8223
 2480TIP3   OH229074   0.741   5.704   1.206 -0.5581  0.4549  0.7605
 2480TIP3    H129075   0.721   5.706   1.299  1.4167 -3.6996  1.4619
 2480TIP3    H229076   0.809   5.771   1.195  3.4320 -2.6585  3.7125
 2481TIP3   OH229077   4.453   0.019   2.339 -0.4505 -0.3580  0.1500
 2481TIP3    H129078   4.388   0.090   2.337 -0.0958 -0.0259 -1.3153
 2481TIP3    H229079   4.405  -0.059   2.312 -0.8322 -0.6904  1.7227
 2482TIP3   OH229080   2.133   4.645   0.876 -0.2650  0.3879 -0.2136
 2482TIP3    H129081   2.179   4.640   0.792 -0.2382  0.8755 -0.2284
 2482TIP3    H229082   2.043   4.618   0.856  0.3718 -2.2865  0.1277
 2483TIP3   OH229083   6.505   6.563   8.569  0.1153  0.4102 -0.3944
 2483TIP3    H129084   6.443   6.634   8.587 -1.6916 -1.0064 -0.7477
 2483TIP3    H229085   6.453   6.496   8.527  1.1565 -2.1933  2.1457
 2484TIP3   OH229086   1.081   1.001   7.161 -0.1233 -0.0618  0.5376
 2484TIP3    H129087   1.072   0.917   7.206  1.1477 -0.7680 -0.4417
 2484TIP3    H229088   0.993   1.037   7.160 -0.7081 -1.4000  0.9619
 2485TIP3   OH229089   5.292   2.513   6.110  0.0152 -0.0812 -0.4615
 2485TIP3    H129090   5.297   2.604   6.140 -1.2788  0.1389 -0.8275
 2485TIP3    H229091   5.202   2.504   6.077  0.2212 -1.4057 -0.7170
 2486TIP3   OH229092   4.467   6.746   7.121 -0.1718 -0.0895 -0.6008
 2486TIP3    H129093   4.467   6.687   7.047  1.7516 -0.1523 -0.5819
 2486TIP3    H229094   4.526   6.706   7.185  0.4486  1.3839 -0.2146
 2487TIP3   OH229095   2.807   4.921   7.275  0.1684  0.4106 -0.3388
 2487TIP3    H129096   2.865   4.975   7.222  0.9790  0.4309  0.5420
 2487TIP3    H229097   2.719   4.946   7.248  0.4814 -1.1034 -3.2395
 2488TIP3   OH229098   4.499   0.230   0.058  0.5907  0.4667 -0.0995
 2488TIP3    H129099   4.562   0.203   0.125  0.5675  0.4587 -0.0808
 2488TIP3    H229100   4.546   0.220  -0.025  0.5159  0.1794 -0.1081
 2489TIP3   OH229101   6.500   0.320   8.430 -0.8457 -0.1686 -0.2140
 2489TIP3    H129102   6.428   0.277   8.384  0.2875 -0.9351 -1.3310
 2489TIP3    H229103   6.549   0.248   8.470  0.9025  0.0472 -1.8495
 2490TIP3   OH229104   2.948   0.138   0.956  0.1625  0.2564  0.7422
 2490TIP3    H129105   2.977   0.050   0.980  1.0456 -0.2056 -1.6900
 2490TIP3    H229106   2.854   0.138   0.973  0.3811 -0.6581  2.1018
 2491TIP3   OH229107   0.553   4.695   6.880 -0.3408  0.4591 -0.6069
 2491TIP3    H129108   0.505   4.756   6.936 -0.8109  1.1676 -1.7372
 2491TIP3    H229109   0.594   4.751   6.814 -0.6708 -0.4329 -1.5970
 2492TIP3   OH229110   0.731   5.165   1.091  0.0075  0.3287  0.1787
 2492TIP3    H129111   0.747   5.234   1.027  1.7561  0.1841  0.4226
 2492TIP3    H229112   0.812   5.115   1.093  0.3497  0.8432  3.1237
 2493TIP3   OH229113   6.712   6.469   0.291 -0.2659 -0.1140 -0.1248
 2493TIP3    H129114   6.663   6.394   0.258 -0.8415 -0.7355  1.9999
 2493TIP3    H229115   6.793   6.431   0.325  0.0865  0.4403 -0.3219
 2494TIP3   OH229116   2.942   3.363   8.315 -0.0166  0.1897 -0.2551
 2494TIP3    H129117   3.012   3.427   8.301 -0.2126  0.5488  0.3908
 2494TIP3    H229118   2.896   3.361   8.231  0.5026  0.2672 -0.5475
 2495TIP3   OH229119   2.207   6.862   2.355 -0.3267 -0.1658  0.1773
 2495TIP3    H129120   2.181   6.885   2.266  1.0772  1.3333  0.0865
 2495TIP3    H229121   2.193   6.943   2.405  0.0682 -0.6152  1.0330
 2496TIP3   OH229122   6.236   2.388   0.066  0.6401 -0.2780 -0.1599
 2496TIP3    H129123   6.153   2.379   0.019  0.9408  0.5929 -0.9078
 2496TIP3    H229124   6.213   2.383   0.158 -0.4733  1.3964 -0.2937
 2497TIP3   OH229125   4.839   0.986   0.043  0.0182  0.3464 -0.1566
 2497TIP3    H129126   4.795   1.021   0.120 -2.0358  0.4745 -1.3086
 2497TIP3    H229127   4.771   0.936  -0.003  1.9727 -2.3388 -0.3335
 2498TIP3   OH229128   2.608   0.256   0.461  0.4588  0.0292  0.2461
 2498TIP3    H129129   2.559   0.179   0.431  0.1066  1.0996 -2.0972
 2498TIP3    H229130   2.550   0.298   0.524 -0.3446 -0.3644 -0.2182
 2499TIP3   OH229131   3.872   2.188   7.625 -0.0447  0.3183  0.0188
 2499TIP3    H129132   3.836   2.192   7.537 -1.6468 -0.4821  0.5782
 2499TIP3    H229133   3.870   2.094   7.647  2.0714  0.2889  0.2442
 2500TIP3   OH229134   5.818   1.626   6.741  0.1259  0.2692 -0.0916
 2500TIP3    H129135   5.892   1.565   6.743 -2.2811 -3.0185  3.1181
 2500TIP3    H229136   5.850   1.705   6.784  2.1724 -0.4472 -0.1886
 2501TIP3   OH229137   4.668   5.463   1.314 -0.9270  0.0501 -0.6816
 2501TIP3    H129138   4.684   5.548   1.356 -0.5528 -0.5836  0.5214
 2501TIP3    H229139   4.743   5.451   1.255  0.4594 -0.5877  1.1083
 2502TIP3   OH229140   3.252   0.720   0.110  0.3555 -0.1925  0.1763
 2502TIP3    H129141   3.177   0.727   0.168 -0.1348  0.9896 -0.5670
 2502TIP3    H229142   3.272   0.626   0.107 -0.1996 -0.3729  1.4713
 2503TIP3   OH229143   1.973   2.665   6.370  0.0218 -0.2341 -0.0783
 2503TIP3    H129144   2.067   2.659   6.388 -0.2482 -0.3363  1.4386
 2503TIP3    H229145   1.953   2.757   6.381 -0.0230 -0.1905 -0.5489
 2504TIP3   OH229146   1.340   4.257   8.208  0.5776  0.5256 -0.1098
 2504TIP3    H129147   1.302   4.334   8.166  3.7037  2.3463  0.1279
 2504TIP3    H229148   1.350   4.282   8.300  0.9135 -0.4780  0.1414
 2505TIP3   OH229149   2.119   6.201   7.984 -0.5571  0.3345  0.2051
 2505TIP3    H129150   2.160   6.128   8.031  0.7367  0.9746  0.1049
 2505TIP3    H229151   2.126   6.176   7.892  1.6750  1.3978  0.0085
 2506TIP3   OH229152   5.537   4.249   0.977  0.2361  0.4454  0.0419
 2506TIP3    H129153   5.627   4.227   0.999  0.8370  0.7201 -1.9307
 2506TIP3    H229154   5.507   4.176   0.923 -0.3883  0.8183 -0.1233
 2507TIP3   OH229155   2.390   4.805   7.121 -0.1432 -0.1824 -0.0114
 2507TIP3    H129156   2.416   4.762   7.039 -2.1428 -1.1316 -0.2032
 2507TIP3    H229157   2.387   4.734   7.185  1.2612  0.5308  0.9144
 2508TIP3   OH229158   6.432   5.918   0.985  0.4690 -0.0382 -0.0915
 2508TIP3    H129159   6.385   5.839   1.013 -1.5869  0.9107 -0.7153
 2508TIP3    H229160   6.424   5.978   1.059 -2.0834  1.2512 -1.3119
 2509TIP3   OH229161   6.451   1.069   6.477  0.0641  0.2135  0.4885
 2509TIP3    H129162   6.527   1.067   6.420  0.3805 -0.5180  0.9119
 2509TIP3    H229163   6.415   1.157   6.467  0.0739  0.0902 -0.8688
 2510TIP3   OH229164   2.186   2.218   1.168  0.5097 -0.1141 -0.5408
 2510TIP3    H129165   2.134   2.290   1.132 -0.1038 -1.2480 -2.0454
 2510TIP3    H229166   2.276   2.251   1.170  0.1447  0.9102 -0.5840
 2511TIP3   OH229167   1.724   1.925   1.453  0.0979 -0.2694 -0.0811
 2511TIP3    H129168   1.639   1.909   1.411  0.6501 -1.9383 -0.6302
 2511TIP3    H229169   1.753   1.839   1.482  0.4222  0.5984  2.4974
 2512TIP3   OH229170   6.454   3.435   0.079 -0.2313 -0.2546 -0.2328
 2512TIP3    H129171   6.388   3.499   0.050  1.5109  0.8269 -2.0722
 2512TIP3    H229172   6.528   3.488   0.107  0.4008 -1.4609  0.4469
 2513TIP3   OH229173   2.603   5.344   6.588  0.5118  0.3384 -0.5943
 2513TIP3    H129174   2.547   5.280   6.544  0.7347  1.1206 -2.0814
 2513TIP3    H229175   2.549   5.422   6.596  1.1904  0.9253 -1.5482
 2514TIP3   OH229176   1.816   5.148   8.389  0.2527 -0.1594 -0.2233
 2514TIP3    H129177   1.863   5.108   8.462  0.8770  1.3820  0.2548
 2514TIP3    H229178   1.852   5.237   8.383 -0.4698  0.0598 -1.7946
 2515TIP3   OH229179   0.586   1.534   6.555  0.2055  0.1190 -0.4785
 2515TIP3    H129180   0.582   1.625   6.526 -0.9447  0.7837  1.5263
 2515TIP3    H229181   0.512   1.491   6.511  0.6436  0.1769 -1.2877
 2516TIP3   OH229182   2.030   5.640   1.905 -0.2020 -0.6192 -0.3260
 2516TIP3    H129183   1.975   5.718   1.905 -0.7589 -1.0042 -0.3511
 2516TIP3    H229184   1.969   5.568   1.922  0.4393 -0.9477  0.7256
 2517TIP3   OH229185   5.539   0.122   2.521 -0.3423  0.0758 -0.1965
 2517TIP3    H129186   5.581   0.037   2.533  0.5110  0.3496 -1.1537
 2517TIP3    H229187   5.575   0.176   2.591  0.4394  0.1360 -0.6408
 2518TIP3   OH229188   4.075   5.964   8.192  0.0735 -0.2295  0.1572
 2518TIP3    H129189   4.146   5.999   8.247  0.1874 -0.5115  0.1926
 2518TIP3    H229190   4.120   5.911   8.126  0.1597  2.0661 -1.7750
 2519TIP3   OH229191   0.352   1.797   0.886 -0.5956 -0.6602  0.4274
 2519TIP3    H129192   0.307   1.751   0.956 -2.8490 -0.2987 -0.6955
 2519TIP3    H229193   0.435   1.826   0.925 -2.2834  0.6357  3.3449
 2520TIP3   OH229194   3.793   1.024   7.095 -0.1066  0.4627 -0.5724
 2520TIP3    H129195   3.802   1.114   7.124  0.0616  0.5865 -1.0010
 2520TIP3    H229196   3.759   0.977   7.171  1.7848  0.4714  0.3402
 2521TIP3   OH229197   6.441   2.181   0.453 -1.0522 -0.4430  0.3079
 2521TIP3    H129198   6.512   2.159   0.393 -1.1173  1.1833 -0.4262
 2521TIP3    H229199   6.388   2.102   0.458 -1.8455 -0.2647 -2.9588
 2522TIP3   OH229200   0.967   1.083   6.790  0.2927  0.0331 -0.4462
 2522TIP3    H129201   1.020   1.123   6.722  0.6435  1.0538  0.3974
 2522TIP3    H229202   0.989   0.990   6.787  1.9606  0.3880 -0.2859
 2523TIP3   OH229203   1.479   6.575   8.194 -0.1576  0.2348  0.3835
 2523TIP3    H129204   1.487   6.648   8.254 -1.7175  0.0536  0.8565
 2523TIP3    H229205   1.422   6.512   8.239  1.5265 -1.5119  0.2041
 2524TIP3   OH229206   5.599   2.488   0.700 -0.8352 -0.2012  0.0365
 2524TIP3    H129207   5.589   2.442   0.783  1.1671  0.8391  0.9281
 2524TIP3    H229208   5.692   2.508   0.694 -1.3085  2.0675 -1.1882
 2525TIP3   OH229209   4.828   5.691   6.968  0.5491 -0.2537  0.1212
 2525TIP3    H129210   4.853   5.773   7.009  1.5754 -0.8729  0.7724
 2525TIP3    H229211   4.822   5.712   6.875  0.6422  0.5890  0.2950
 2526TIP3   OH229212   1.978   2.766   6.974 -0.6019 -0.4366 -0.4359
 2526TIP3    H129213   1.918   2.840   6.984 -0.1812 -0.2999  1.4257
 2526TIP3    H229214   2.042   2.796   6.909 -1.1198  0.3701 -0.5906
 2527TIP3   OH229215   0.034   3.889   8.454 -0.1253  0.8683  0.4324
 2527TIP3    H129216   0.104   3.831   8.423 -1.0231 -0.6240  1.0759
 2527TIP3    H229217   0.048   3.895   8.548 -0.8991  0.4709  0.5841
 2528TIP3   OH229218   0.622   4.182   7.655 -0.3148 -0.2629  0.6336
 2528TIP3    H129219   0.662   4.104   7.693  1.0455 -1.0108 -2.1225
 2528TIP3    H229220   0.691   4.248   7.657  0.5749 -0.9573 -2.2919
 2529TIP3   OH229221   6.624   6.556   1.153  0.2443 -0.1809  0.2825
 2529TIP3    H129222   6.628   6.535   1.060 -0.6311  1.2802 -0.1275
 2529TIP3    H229223   6.701   6.611   1.168 -0.0464  0.2469  0.2234
 2530TIP3   OH229224   5.320   0.863   8.182  0.4748  0.5667  0.1759
 2530TIP3    H129225   5.396   0.808   8.166 -0.7823 -0.5705 -2.5936
 2530TIP3    H229226   5.338   0.945   8.136  0.6454  0.9121  0.8421
 2531TIP3   OH229227   3.677   1.681   8.554  0.8259 -0.7947 -0.0379
 2531TIP3    H129228   3.749   1.624   8.527  1.1345 -0.6424  0.4587
 2531TIP3    H229229   3.709   1.770   8.535  0.6692 -0.7439 -0.0604
 2532TIP3   OH229230   5.654   2.712   1.624  0.0717 -0.1360 -0.0475
 2532TIP3    H129231   5.566   2.744   1.605 -0.4281 -0.9752  0.7988
 2532TIP3    H229232   5.695   2.783   1.673  0.2244  0.6636 -1.2841
 2533TIP3   OH229233   4.291   6.115   1.651  0.3264 -0.2112 -0.5395
 2533TIP3    H129234   4.367   6.089   1.703  0.6494  2.1057  0.2367
 2533TIP3    H229235   4.216   6.107   1.710  0.5860  1.6244  0.1029
 2534TIP3   OH229236   0.204   3.345   8.476  0.3579  0.1045 -0.2522
 2534TIP3    H129237   0.296   3.320   8.482  0.1418 -0.4040  1.9354
 2534TIP3    H229238   0.156   3.265   8.501 -0.5106  1.2168  1.9263
 2535TIP3   OH229239   3.449   4.151   7.295  0.2265 -0.5456 -0.4209
 2535TIP3    H129240   3.426   4.218   7.231 -1.8809  0.7553  1.5191
 2535TIP3    H229241   3.396   4.075   7.271  2.8576 -1.7750 -2.8153
 2536TIP3   OH229242   4.204   1.923   6.459 -0.0562  0.0346  0.2546
 2536TIP3    H129243   4.234   1.941   6.548  0.4343 -1.4606  0.4184
 2536TIP3    H229244   4.234   1.834   6.441 -0.6461  0.1002 -1.2020
 2537TIP3   OH229245   5.061   1.232   0.281 -0.2035 -0.4239 -0.5125
 2537TIP3    H129246   4.970   1.250   0.303 -0.4618 -1.2553 -0.8497
 2537TIP3    H229247   5.056   1.187   0.196  0.5414 -0.1911 -0.6838
 2538TIP3   OH229248   1.987   4.841   1.794  0.3710 -0.2865  0.1468
 2538TIP3    H129249   2.077   4.867   1.773 -0.5706  2.0206 -1.3559
 2538TIP3    H229250   1.958   4.792   1.717 -0.4437  1.2080 -0.5478
 2539TIP3   OH229251   5.032   2.870   2.026 -0.4666  0.3779  0.3155
 2539TIP3    H129252   4.992   2.873   1.940  0.0516  0.2587  0.0681
 2539TIP3    H229253   5.003   2.950   2.070 -0.7259  0.4382  0.0293
 2540TIP3   OH229254   3.839   6.746   2.083  0.0287  0.1466 -0.0427
 2540TIP3    H129255   3.889   6.807   2.139 -0.9208  0.4670  0.4785
 2540TIP3    H229256   3.754   6.789   2.071 -0.8603 -1.3017  0.7802
 2541TIP3   OH229257   0.282   2.013   2.041 -0.0042 -0.4449  0.7988
 2541TIP3    H129258   0.322   2.099   2.026  0.0513 -0.9745 -3.3708
 2541TIP3    H229259   0.259   2.013   2.134  3.8137  2.3603  1.9926
 2542TIP3   OH229260   2.423   4.417   1.951 -0.2166  0.3881  0.2708
 2542TIP3    H129261   2.510   4.378   1.964 -0.3588 -0.2081 -0.5156
 2542TIP3    H229262   2.441   4.508   1.929  0.2668  0.0160 -0.9151
 2543TIP3   OH229263   4.011   1.969   8.156  0.3401 -0.1600  0.1444
 2543TIP3    H129264   4.058   1.954   8.238  0.3237  0.7249  0.3205
 2543TIP3    H229265   4.006   1.882   8.116 -1.1168 -0.9412  1.8557
 2544TIP3   OH229266   0.523   1.954   7.352 -0.3569  0.0606 -0.0521
 2544TIP3    H129267   0.472   1.953   7.271 -0.2620  1.0326 -0.1348
 2544TIP3    H229268   0.597   1.896   7.335  0.3365  1.2080 -1.1142
 2545TIP3   OH229269   2.698   6.848   8.269 -0.0834  0.5215  0.0327
 2545TIP3    H129270   2.645   6.773   8.241  0.0037  0.3038  0.4487
 2545TIP3    H229271   2.783   6.810   8.292  0.7477  1.0206 -1.9528
 2546TIP3   OH229272   4.362   1.951   7.598 -0.8401  0.0693  0.1431
 2546TIP3    H129273   4.445   1.968   7.552 -1.1494 -0.3200 -0.5758
 2546TIP3    H229274   4.381   1.876   7.654 -0.5573  0.3184  0.3839
 2547TIP3   OH229275   2.302   5.306   6.621  0.1393 -0.6066  0.2411
 2547TIP3    H129276   2.276   5.390   6.582  0.9206 -0.3760  0.2009
 2547TIP3    H229277   2.338   5.329   6.706 -1.0233 -1.0538  0.8676
 2548TIP3   OH229278   2.253   2.705   7.820 -0.1312 -0.0358  0.6162
 2548TIP3    H129279   2.231   2.624   7.866  2.6243 -0.0712  2.0917
 2548TIP3    H229280   2.196   2.771   7.859 -1.3917 -0.9701  0.4221
 2549TIP3   OH229281   3.010   1.708   2.178 -0.0107 -0.1834  0.1220
 2549TIP3    H129282   2.944   1.667   2.234 -0.0672  0.8061  0.8080
 2549TIP3    H229283   3.038   1.638   2.119 -2.4952 -0.3495 -0.9721
 2550TIP3   OH229284   5.047   2.410   8.587  0.2261  0.1079  0.8863
 2550TIP3    H129285   5.141   2.426   8.594  0.4160  0.3613 -1.4816
 2550TIP3    H229286   5.006   2.495   8.606  0.6433  0.6598 -0.5705
 2551TIP3   OH229287   1.554   3.437   1.922  0.5296  0.3321  1.1623
 2551TIP3    H129288   1.483   3.403   1.977  0.1422 -0.5726  0.1472
 2551TIP3    H229289   1.509   3.479   1.849  1.0197 -0.5378  0.3435
 2552TIP3   OH229290   6.794   4.613   0.340 -0.1722  0.3114 -1.0874
 2552TIP3    H129291   6.858   4.579   0.278 -1.2800 -1.0903 -1.5038
 2552TIP3    H229292   6.727   4.654   0.286 -1.2439 -1.0853 -0.8579
 2553TIP3   OH229293   6.627   0.060   6.706  0.6712 -0.0549 -0.8266
 2553TIP3    H129294   6.695  -0.005   6.721 -0.0629 -0.7720 -0.5434
 2553TIP3    H229295   6.671   0.144   6.721  0.8025 -0.5625  2.4434
 2554TIP3   OH229296   3.407   4.095   1.794  0.0637 -0.1414  0.1367
 2554TIP3    H129297   3.401   4.012   1.841 -0.5110  0.1933  0.6734
 2554TIP3    H229298   3.500   4.106   1.776  0.1926 -0.6918  0.4453
 2555TIP3   OH229299   4.605   3.067   6.909 -0.0928 -0.6262 -0.5406
 2555TIP3    H129300   4.629   3.070   7.001  0.9949  0.4257 -0.8272
 2555TIP3    H229301   4.679   3.024   6.866  0.1354  0.3006 -1.1067
 2556TIP3   OH229302   6.139   5.005   0.394  0.0989  0.4340 -0.2827
 2556TIP3    H129303   6.193   4.949   0.338  0.5410  2.1628 -1.7066
 2556TIP3    H229304   6.191   5.085   0.403 -0.9901  1.0475  0.7447
 2557TIP3   OH229305   2.248   5.487   0.082 -0.4277  0.2801 -0.0812
 2557TIP3    H129306   2.289   5.415   0.129 -0.7657  1.4817  2.1848
 2557TIP3    H229307   2.209   5.542   0.150 -0.4628  2.4451 -1.7236
 2558TIP3   OH229308   5.923   3.308   0.123  0.4222  0.2736  0.1080
 2558TIP3    H129309   5.958   3.338   0.207 -1.3640  0.0447  0.9721
 2558TIP3    H229310   5.833   3.283   0.142  0.2902 -0.7604 -1.6780
 2559TIP3   OH229311   1.844   5.259   0.058  0.1623 -0.2217  0.9101
 2559TIP3    H129312   1.918   5.227   0.008  0.9883  1.9191  0.6535
 2559TIP3    H229313   1.859   5.226   0.147  1.0393 -0.4003  0.7025
 2560TIP3   OH229314   3.692   3.936   7.263  0.8167  0.3201 -0.6375
 2560TIP3    H129315   3.649   3.975   7.187 -1.7015  0.8356  0.9161
 2560TIP3    H229316   3.750   3.870   7.226 -0.2154  0.6188 -3.0010
 2561TIP3   OH229317   4.393   0.496   1.044 -0.1783 -0.0025  0.1444
 2561TIP3    H129318   4.452   0.546   1.101  1.0398  0.7480 -1.6644
 2561TIP3    H229319   4.307   0.535   1.058  0.6258  2.2500 -0.7258
 2562TIP3   OH229320   6.182   5.274   0.194  0.7058  0.6289 -0.0742
 2562TIP3    H129321   6.134   5.348   0.231 -0.4710  0.5459 -1.3417
 2562TIP3    H229322   6.122   5.237   0.129  2.6180  0.7447 -2.0253
 2563TIP3   OH229323   1.171   4.347   7.086 -0.0090  0.4828  0.1693
 2563TIP3    H129324   1.218   4.269   7.116  0.8413 -0.4909 -3.2484
 2563TIP3    H229325   1.079   4.319   7.080 -0.0537  0.4403  0.9621
 2564TIP3   OH229326   2.430   1.089   2.300 -0.0188 -0.3821  0.0997
 2564TIP3    H129327   2.403   0.997   2.307  1.1460 -0.6455  1.5883
 2564TIP3    H229328   2.496   1.090   2.231 -0.1201 -0.6287 -0.0008
 2565TIP3   OH229329   5.157   3.592   7.084  0.0401  0.3135  0.0188
 2565TIP3    H129330   5.145   3.562   7.174 -1.4101 -1.3694 -0.6784
 2565TIP3    H229331   5.213   3.525   7.044  0.4242  0.8862 -0.4129
 2566TIP3   OH229332   0.115   3.818   0.910  0.0105 -0.2487 -0.0268
 2566TIP3    H129333   0.130   3.909   0.885 -0.5935 -0.6528 -2.0439
 2566TIP3    H229334   0.134   3.768   0.830 -1.1660 -1.7419  0.5820
 2567TIP3   OH229335   6.396   2.205   8.471 -0.9694 -1.0120  0.2853
 2567TIP3    H129336   6.430   2.264   8.538 -1.4207 -1.5237  0.9775
 2567TIP3    H229337   6.433   2.238   8.389 -1.3407  0.3256  0.6393
 2568TIP3   OH229338   5.062   2.705   1.566 -0.2515  0.0107  0.5185
 2568TIP3    H129339   5.093   2.625   1.609  0.0782 -1.3528 -2.0918
 2568TIP3    H229340   5.022   2.756   1.637  0.3601 -2.0164  2.4355
 2569TIP3   OH229341   1.292   5.193   2.284 -0.0209  0.6808  0.2366
 2569TIP3    H129342   1.305   5.279   2.245 -1.4939  0.9860  0.3232
 2569TIP3    H229343   1.200   5.195   2.314 -0.7275 -1.6154 -1.5375
 2570TIP3   OH229344   5.768   2.925   1.775  0.4793  0.7010  0.0271
 2570TIP3    H129345   5.799   2.932   1.865  0.5476 -0.0791  0.0714
 2570TIP3    H229346   5.822   2.988   1.727  0.7670  0.7883  0.4524
 2571TIP3   OH229347   6.886   4.222   7.383  0.5677 -0.1227  0.1874
 2571TIP3    H129348   6.972   4.178   7.383  0.5619 -0.1527 -0.9429
 2571TIP3    H229349   6.844   4.191   7.463  1.1843 -0.9600  0.2012
 2572TIP3   OH229350   2.407   4.989   7.673  0.2633 -0.1639  0.2920
 2572TIP3    H129351   2.492   5.030   7.657  0.4009 -0.6367 -0.2104
 2572TIP3    H229352   2.366   5.044   7.739  0.6931  0.4415  0.0613
 2573TIP3   OH229353   4.643   3.085   7.176  0.3767  0.0297  0.3704
 2573TIP3    H129354   4.549   3.068   7.173  0.6973 -1.9936 -2.6668
 2573TIP3    H229355   4.673   3.043   7.256 -1.2830  0.9587  1.5442
 2574TIP3   OH229356   2.730   1.194   8.376  0.1202 -0.2032 -0.3766
 2574TIP3    H129357   2.773   1.126   8.428 -0.1098 -0.0530  0.0101
 2574TIP3    H229358   2.737   1.163   8.286 -0.1183 -0.8160 -0.1864
 2575TIP3   OH229359   0.544   1.243   7.675  0.0239 -0.0633  0.3240
 2575TIP3    H129360   0.552   1.169   7.735  2.0181 -0.4385 -0.3273
 2575TIP3    H229361   0.575   1.318   7.725 -0.1070 -0.0207  0.3436
 2576TIP3   OH229362   0.746   5.171   0.760 -0.7039 -0.1377 -0.1278
 2576TIP3    H129363   0.803   5.248   0.756 -0.1053 -0.4444  1.5460
 2576TIP3    H229364   0.805   5.098   0.777 -1.4747 -0.6184  0.5848
 2577TIP3   OH229365   0.718   3.796   0.311  0.3062 -0.2917  0.0799
 2577TIP3    H129366   0.745   3.853   0.238 -1.1239 -0.8773 -0.9621
 2577TIP3    H229367   0.738   3.846   0.390 -1.1363  1.8092 -0.7983
 2578TIP3   OH229368   3.795   6.059   7.142  0.2887  0.5205 -0.5390
 2578TIP3    H129369   3.849   6.101   7.209  1.0383 -1.5715  0.2881
 2578TIP3    H229370   3.706   6.061   7.178  0.5883 -0.0529  0.2744
 2579TIP3   OH229371   3.956   3.640   2.723 -0.8486 -0.4535  0.1636
 2579TIP3    H129372   3.989   3.573   2.663  0.5797 -0.5999  1.0606
 2579TIP3    H229373   3.983   3.609   2.810 -0.9632  0.8250  0.6703
 2580TIP3   OH229374   0.781   5.179   0.280  0.3912  0.0117  0.4064
 2580TIP3    H129375   0.754   5.158   0.369  1.4830 -0.2363  0.6979
 2580TIP3    H229376   0.827   5.263   0.288  0.6781 -0.1145  0.1181
 2581TIP3   OH229377   6.084   2.238   2.461 -0.4249 -0.0911 -0.0143
 2581TIP3    H129378   6.017   2.263   2.524  0.0806  0.0114  0.4889
 2581TIP3    H229379   6.058   2.151   2.431 -0.3164 -0.4269  0.8362
 2582TIP3   OH229380   3.953   1.494   1.889  0.3227 -0.7773 -0.0901
 2582TIP3    H129381   3.877   1.436   1.879 -1.7025  1.8637 -1.6778
 2582TIP3    H229382   4.017   1.461   1.825 -0.8327 -1.2147 -1.0679
 2583TIP3   OH229383   2.640   6.336   7.328 -0.2027 -0.1260 -0.2944
 2583TIP3    H129384   2.642   6.424   7.367  2.2484 -0.9313  1.6844
 2583TIP3    H229385   2.702   6.341   7.255 -0.6094 -0.0489 -0.6394
 2584TIP3   OH229386   5.415   1.067   8.624 -0.2716  0.9440  0.1746
 2584TIP3    H129387   5.345   1.010   8.590 -1.1200 -0.4752  3.8311
 2584TIP3    H229388   5.368   1.139   8.666  0.3951  0.4648  1.8370
 2585TIP3   OH229389   5.239   1.949   8.661 -0.5571 -0.0223  0.0679
 2585TIP3    H129390   5.246   1.994   8.745 -0.8550  0.1958 -0.0225
 2585TIP3    H229391   5.179   2.003   8.610 -1.6003 -0.9807  0.2522
 2586TIP3   OH229392   4.541   5.727   8.042  0.6021  0.1595 -0.1863
 2586TIP3    H129393   4.494   5.745   7.961  1.4032 -0.2696 -0.7648
 2586TIP3    H229394   4.595   5.651   8.022 -0.8285 -1.3816  1.4265
 2587TIP3   OH229395   0.898   1.200   0.013 -0.5560 -0.0033  0.4996
 2587TIP3    H129396   0.811   1.167  -0.012 -1.3691  2.5089 -0.3675
 2587TIP3    H229397   0.933   1.237  -0.068  0.9218 -0.0834  1.0783
 2588TIP3   OH229398   4.632   6.375   2.085 -0.3861  0.3775 -0.0006
 2588TIP3    H129399   4.563   6.408   2.143 -2.4062  0.3717 -2.2288
 2588TIP3    H229400   4.649   6.286   2.117 -1.8917  0.1461  0.2672
 2589TIP3   OH229401   1.599   3.777   1.704  0.1254  0.4524  0.0688
 2589TIP3    H129402   1.640   3.776   1.791 -0.9346  1.2074  0.5874
 2589TIP3    H229403   1.662   3.730   1.648  1.3394  0.9229  0.9948
 2590TIP3   OH229404   6.224   6.049   8.114 -0.0859 -0.1455 -0.2347
 2590TIP3    H129405   6.217   5.963   8.155 -0.0500 -0.5646 -1.0778
 2590TIP3    H229406   6.291   6.038   8.046 -1.5699 -0.0467 -1.7885
 2591TIP3   OH229407   5.376   3.464   2.246 -0.1433  0.0055  0.3943
 2591TIP3    H129408   5.288   3.464   2.285 -1.4484  0.0470 -2.3620
 2591TIP3    H229409   5.427   3.408   2.305 -1.7275  0.7074  2.5868
 2592TIP3   OH229410   1.237   3.368   2.065 -0.1790 -0.5437  0.0275
 2592TIP3    H129411   1.141   3.370   2.073 -0.5286 -2.5836 -2.4844
 2592TIP3    H229412   1.266   3.316   2.140 -0.8249  1.3510  1.6795
 2593TIP3   OH229413   6.206   2.866   1.554  0.5680  0.3812 -0.3783
 2593TIP3    H129414   6.181   2.865   1.647 -0.4509 -1.6231 -0.6275
 2593TIP3    H229415   6.148   2.930   1.514 -1.9283 -1.6975 -0.3123
 2594TIP3   OH229416   1.869   1.839   8.098 -0.6392  0.2415 -0.3419
 2594TIP3    H129417   1.780   1.875   8.099 -1.0619 -0.6970 -1.5493
 2594TIP3    H229418   1.865   1.767   8.036  0.6148 -0.7684  0.6957
 2595TIP3   OH229419   4.332   3.833   0.740  0.7214 -0.0434 -0.5468
 2595TIP3    H129420   4.374   3.827   0.654  0.2416 -0.4220 -0.7590
 2595TIP3    H229421   4.246   3.872   0.722  0.3537 -0.7443 -0.3300
 2596TIP3   OH229422   3.641   3.919   0.837  0.2947  0.1610 -0.4498
 2596TIP3    H129423   3.612   3.975   0.765 -2.2409 -1.5232 -0.9063
 2596TIP3    H229424   3.681   3.843   0.794 -1.6835 -1.0934 -0.2366
 2597TIP3   OH229425   2.123   1.177   7.774 -0.1965 -0.2278  0.4201
 2597TIP3    H129426   2.097   1.255   7.725  0.5033 -0.5864 -0.5622
 2597TIP3    H229427   2.041   1.139   7.806 -0.9082 -1.0824 -2.1720
 2598TIP3   OH229428   3.853   2.021   7.890 -0.2736 -0.0490  0.0209
 2598TIP3    H129429   3.875   1.961   7.820  0.7742  0.4078 -0.0671
 2598TIP3    H229430   3.928   2.018   7.949  0.3920  2.0745 -0.6257
 2599TIP3   OH229431   4.612   6.305   0.231 -0.6816  0.5201  0.2677
 2599TIP3    H129432   4.599   6.392   0.268  0.4593  1.2669 -1.0173
 2599TIP3    H229433   4.573   6.310   0.144 -0.7327 -0.3055  0.2351
 2600TIP3   OH229434   2.704   0.773   6.938  0.1006 -0.3030  0.1060
 2600TIP3    H129435   2.672   0.778   7.028  1.1592  0.1636  0.4819
 2600TIP3    H229436   2.795   0.745   6.947 -0.3796 -2.4240 -0.9745
 2601TIP3   OH229437   1.379   5.214   1.786  0.0890  0.6933  0.1614
 2601TIP3    H129438   1.290   5.192   1.758  1.0831  0.4741 -3.3725
 2601TIP3    H229439   1.424   5.129   1.789  0.5403  0.9404  0.4589
 2602TIP3   OH229440   1.090   1.486   0.197 -0.0912  0.0533  0.3039
 2602TIP3    H129441   1.148   1.425   0.151 -1.0199 -1.4954  1.1272
 2602TIP3    H229442   1.013   1.435   0.219 -0.4281  1.2040  2.0287
 2603TIP3   OH229443   5.065   0.062   8.628  0.5428 -0.3315 -0.4879
 2603TIP3    H129444   5.158   0.038   8.618  0.6548 -0.3863  0.6394
 2603TIP3    H229445   5.046   0.048   8.720 -1.2665 -2.6774 -1.1339
 2604TIP3   OH229446   5.751   6.657   0.468  0.5819 -0.9723 -0.0802
 2604TIP3    H129447   5.760   6.648   0.373  0.3785 -4.1806  0.0761
 2604TIP3    H229448   5.839   6.682   0.498  0.4623  0.8523 -1.1194
 2605TIP3   OH229449   4.047   6.548   7.859  0.0724 -0.2575  0.1021
 2605TIP3    H129450   3.967   6.585   7.896 -0.3378 -1.3073  0.2831
 2605TIP3    H229451   4.103   6.625   7.843 -1.5633  0.6563 -1.5628
 2606TIP3   OH229452   1.067   0.167   7.757  0.7115 -0.1578  0.1585
 2606TIP3    H129453   1.079   0.089   7.704 -0.0573 -0.6851  0.7267
 2606TIP3    H229454   1.145   0.220   7.742  0.8669 -0.6683 -0.8572
 2607TIP3   OH229455   0.980   5.029   1.115 -0.3702 -0.0155  0.2446
 2607TIP3    H129456   0.940   4.995   1.194 -1.0739 -1.4621 -0.6895
 2607TIP3    H229457   0.996   4.951   1.061  0.7633  0.8567 -0.7382
 2608TIP3   OH229458   2.954   4.008   7.892  0.0950  0.0101 -0.5046
 2608TIP3    H129459   2.890   4.048   7.832 -0.7336 -1.3981 -0.5990
 2608TIP3    H229460   3.031   3.992   7.838  1.2264  3.1464 -0.0551
 2609TIP3   OH229461   4.070   1.664   8.635 -0.5174 -0.0044  0.9180
 2609TIP3    H129462   4.001   1.674   8.701  0.5491 -2.2199  2.5170
 2609TIP3    H229463   4.101   1.574   8.646 -0.3026 -0.5241 -2.7175
 2610TIP3   OH229464   5.389   4.519   8.337  0.3479  0.2948  0.0301
 2610TIP3    H129465   5.401   4.509   8.432  2.5560  2.4806  0.0769
 2610TIP3    H229466   5.344   4.603   8.328  2.1503  1.2100 -0.8768
 2611TIP3   OH229467   2.356   1.318   7.458  0.1890  0.2057  0.1721
 2611TIP3    H129468   2.376   1.236   7.413  1.0081  1.0298 -1.0235
 2611TIP3    H229469   2.432   1.333   7.515 -0.2740 -0.2011  0.9071
 2612TIP3   OH229470   1.986   0.530   6.803  0.0140 -0.5956 -0.2204
 2612TIP3    H129471   1.907   0.565   6.761  0.6196  0.5353 -0.4509
 2612TIP3    H229472   1.952   0.472   6.872 -1.0155 -0.3859 -0.5252
 2613TIP3   OH229473   0.238   5.380   6.969 -0.6124  0.1544 -0.7204
 2613TIP3    H129474   0.156   5.361   7.015  0.0333  1.9386  1.3500
 2613TIP3    H229475   0.267   5.464   7.005  2.5124 -0.7480 -0.8019
 2614TIP3   OH229476   2.592   6.544   0.179  0.6045  0.4683 -0.0989
 2614TIP3    H129477   2.576   6.491   0.101 -2.3196 -1.0380  1.3543
 2614TIP3    H229478   2.523   6.611   0.177 -0.1294 -0.1776  1.6021
 2615TIP3   OH229479   1.262   4.329   0.754  0.3925 -0.0158  0.0153
 2615TIP3    H129480   1.349   4.299   0.729  1.6157  2.0858  1.4906
 2615TIP3    H229481   1.233   4.384   0.680  0.7526  0.1007 -0.0383
 2616TIP3   OH229482   6.438   5.699   1.317  0.2697  0.2215 -0.1351
 2616TIP3    H129483   6.374   5.768   1.333 -0.0253  0.2149 -1.1813
 2616TIP3    H229484   6.414   5.664   1.231 -0.6168 -2.3102  1.0324
 2617TIP3   OH229485   4.921   4.161   1.135 -0.1197 -0.4994 -0.9339
 2617TIP3    H129486   4.962   4.075   1.127  0.9080  0.0135 -1.3584
 2617TIP3    H229487   4.979   4.210   1.194 -1.6009 -0.6158  0.7087
 2618TIP3   OH229488   6.858   6.186   7.315  0.2278 -0.2422 -0.4543
 2618TIP3    H129489   6.768   6.154   7.316 -0.3221  1.1206 -1.9967
 2618TIP3    H229490   6.893   6.162   7.401 -1.3161 -1.5478 -0.1443
 2619TIP3   OH229491   3.362   5.290   1.622 -0.4498 -0.2175  0.0747
 2619TIP3    H129492   3.417   5.221   1.583  1.5865  1.2134  0.2449
 2619TIP3    H229493   3.287   5.243   1.658  0.8060 -2.3401  0.1011
 2620TIP3   OH229494   3.221   2.028   1.336  0.0436  0.2068 -0.0464
 2620TIP3    H129495   3.185   1.955   1.285  1.1962 -1.2405  1.1107
 2620TIP3    H229496   3.145   2.081   1.358 -1.3610 -2.2327  1.4949
 2621TIP3   OH229497   2.771   3.504   1.301  0.1233  0.2921  0.1452
 2621TIP3    H129498   2.866   3.505   1.289  0.0519 -1.2117 -0.7848
 2621TIP3    H229499   2.741   3.585   1.259  0.9197  0.3921 -0.2564
 2622TIP3   OH229500   5.272   0.142   1.591  0.6775 -0.0486  0.0515
 2622TIP3    H129501   5.286   0.195   1.670 -1.3114  0.3610  0.1777
 2622TIP3    H229502   5.225   0.065   1.621 -0.1902  0.1575 -0.7323
 2623TIP3   OH229503   0.764   2.438   0.881  0.4278  0.3110  0.2544
 2623TIP3    H129504   0.696   2.468   0.942 -0.2242 -0.0477 -0.2893
 2623TIP3    H229505   0.718   2.423   0.799  1.0071 -0.7498  0.1050
 2624TIP3   OH229506   5.854   3.893   5.986  0.0549  0.4898 -0.2011
 2624TIP3    H129507   5.879   3.984   6.002 -0.3357  0.8739 -1.5676
 2624TIP3    H229508   5.800   3.870   6.061 -0.0925  1.4923  0.0242
 2625TIP3   OH229509   1.055   6.345   8.309  0.2868 -0.1759 -0.8763
 2625TIP3    H129510   0.969   6.305   8.316  0.2799 -0.5197 -2.4935
 2625TIP3    H229511   1.108   6.302   8.377 -0.2913 -1.3880 -1.1696
 2626TIP3   OH229512   0.117   3.026   1.951 -0.1602 -0.4505 -0.2172
 2626TIP3    H129513   0.057   2.963   1.992 -0.0808 -1.7207 -1.9221
 2626TIP3    H229514   0.106   3.106   2.001  0.1168 -1.9367  2.4272
 2627TIP3   OH229515   3.306   1.650   7.171 -0.5561  0.8673  0.6007
 2627TIP3    H129516   3.211   1.646   7.166 -0.5005  0.9160 -1.0414
 2627TIP3    H229517   3.330   1.719   7.109  0.5514  0.7870  0.9212
 2628TIP3   OH229518   4.078   2.348   7.220  0.2297 -0.1854 -0.0107
 2628TIP3    H129519   4.134   2.310   7.288  0.6642  1.1473  0.4137
 2628TIP3    H229520   4.049   2.273   7.168  1.3700 -1.0438  0.5413
 2629TIP3   OH229521   4.667   3.962   0.892  0.8337  0.6822  0.3448
 2629TIP3    H129522   4.672   3.867   0.908 -1.4084  0.7460  2.1133
 2629TIP3    H229523   4.574   3.982   0.903  1.2593  3.0980  0.0012
 2630TIP3   OH229524   5.330   0.842   1.138  0.1407 -0.3639 -0.0319
 2630TIP3    H129525   5.406   0.871   1.087  0.6585  0.6364  1.2266
 2630TIP3    H229526   5.368   0.805   1.218 -0.6770 -0.3909  0.3519
 2631TIP3   OH229527   6.787   5.761   8.312  0.2858  0.0742  0.2452
 2631TIP3    H129528   6.777   5.856   8.314  0.7612  0.1182  0.9707
 2631TIP3    H229529   6.837   5.743   8.233 -0.1094  0.3918 -0.0819
 2632TIP3   OH229530   1.270   1.331   1.512 -0.6424  0.3102  0.1112
 2632TIP3    H129531   1.298   1.407   1.461  0.5084  1.9328  2.9130
 2632TIP3    H229532   1.341   1.268   1.501 -0.8743  0.2336 -1.0312
 2633TIP3   OH229533   1.420   1.931   8.469  0.0121  0.0481 -0.1243
 2633TIP3    H129534   1.390   1.911   8.380 -2.5639  1.5259  0.3093
 2633TIP3    H229535   1.501   1.980   8.457 -0.6371  0.7989 -1.7292
 2634TIP3   OH229536   5.876   4.921   7.311 -0.9511  0.2513  0.0218
 2634TIP3    H129537   5.871   4.826   7.309  0.9174  0.0825  1.1615
 2634TIP3    H229538   5.929   4.944   7.234 -0.6974  0.3105  0.2152
 2635TIP3   OH229539   6.875   4.359   8.084  0.1286 -0.0512 -0.1591
 2635TIP3    H129540   6.858   4.413   8.007 -0.3293 -0.7199 -0.5248
 2635TIP3    H229541   6.800   4.300   8.090 -0.9840  1.4515  2.0831
 2636TIP3   OH229542   6.026   0.337   2.130  0.1346 -0.0412  0.6217
 2636TIP3    H129543   6.092   0.291   2.181 -0.1758 -0.3492  0.7523
 2636TIP3    H229544   5.944   0.322   2.177  0.1364  1.2566  1.0542
 2637TIP3   OH229545   1.002   3.981   6.482 -0.3366 -0.0541 -0.7489
 2637TIP3    H129546   0.982   3.972   6.388  0.9928 -0.8321 -0.9833
 2637TIP3    H229547   1.008   3.891   6.514  0.1410  0.1958 -0.1167
 2638TIP3   OH229548   4.797   3.461   7.796 -0.1864 -0.5503  0.4470
 2638TIP3    H129549   4.802   3.471   7.891  1.8172 -0.7365  0.4048
 2638TIP3    H229550   4.707   3.488   7.774 -0.2008  1.0652  2.1970
 2639TIP3   OH229551   2.523   1.356   6.625 -0.0990 -0.2597  0.0832
 2639TIP3    H129552   2.596   1.394   6.576 -0.7529  3.5751  1.6854
 2639TIP3    H229553   2.557   1.343   6.713 -0.3418 -2.0928 -0.0704
 2640TIP3   OH229554   2.946   6.370   0.396  0.0564 -0.3171  0.0973
 2640TIP3    H129555   2.938   6.284   0.354  0.7524 -0.9292  1.1824
 2640TIP3    H229556   3.023   6.409   0.355  0.5128 -0.7563  0.5309
 2641TIP3   OH229557   5.476   5.916   6.430 -0.1017  0.5834 -0.7243
 2641TIP3    H129558   5.391   5.889   6.463  0.4293 -0.3224 -0.0695
 2641TIP3    H229559   5.500   5.992   6.483  0.4928 -0.5194  0.6648
 2642TIP3   OH229560   3.691   2.927   7.627  1.1190 -0.4871  1.0758
 2642TIP3    H129561   3.609   2.892   7.592  0.8501  0.3312  0.8677
 2642TIP3    H229562   3.750   2.932   7.551  0.6575  0.9312  0.7782
 2643TIP3   OH229563   4.971   6.624   7.801  0.0103  0.3561  0.2124
 2643TIP3    H129564   4.983   6.529   7.800 -0.9609  0.2266 -0.3407
 2643TIP3    H229565   5.054   6.658   7.832  0.6620 -0.6355 -0.3975
 2644TIP3   OH229566   4.148   0.538   7.716  0.3130  0.1561 -0.3245
 2644TIP3    H129567   4.103   0.454   7.726 -0.9736  1.0241  2.0938
 2644TIP3    H229568   4.199   0.548   7.796  0.7671  1.5011 -0.7494
 2645TIP3   OH229569   1.430   3.174   7.511 -0.2497 -0.6234  0.0948
 2645TIP3    H129570   1.347   3.153   7.554 -1.0997  0.4612 -0.9306
 2645TIP3    H229571   1.497   3.150   7.575 -1.4174 -0.0850  1.5863
 2646TIP3   OH229572   3.790   6.815   1.446 -0.3472  0.3187  0.5717
 2646TIP3    H129573   3.725   6.881   1.471 -0.6610  0.1626  0.1750
 2646TIP3    H229574   3.833   6.851   1.369  0.0443  0.4193  0.8312
 2647TIP3   OH229575   0.152   0.545   2.332  0.1934 -0.6010  0.0596
 2647TIP3    H129576   0.247   0.542   2.346  0.2655 -1.3459 -0.4981
 2647TIP3    H229577   0.114   0.516   2.415  0.4861 -1.1070  0.0203
 2648TIP3   OH229578   1.829   6.690   8.615 -0.1472  0.4694  0.2162
 2648TIP3    H129579   1.876   6.773   8.623 -0.5901  0.9384 -1.6465
 2648TIP3    H229580   1.800   6.688   8.524 -2.9146 -0.2336  1.0231
 2649TIP3   OH229581   4.224   6.257   0.050  0.5878  0.1458 -0.1638
 2649TIP3    H129582   4.161   6.199   0.007 -0.4999 -0.5893  2.3012
 2649TIP3    H229583   4.292   6.198   0.083 -0.0826  0.3317  1.6127
 2650TIP3   OH229584   1.646   6.472   0.550 -0.2293 -0.4809 -0.1208
 2650TIP3    H129585   1.719   6.416   0.524  0.3441 -0.4368  1.2887
 2650TIP3    H229586   1.585   6.469   0.476  1.2420 -0.4187 -1.3758
 2651TIP3   OH229587   4.403   5.361   1.740  0.2296 -0.0966  0.1820
 2651TIP3    H129588   4.329   5.377   1.798 -0.4981  1.0454 -1.0069
 2651TIP3    H229589   4.372   5.296   1.678  1.6069 -2.7386  2.0703
 2652TIP3   OH229590   6.910   1.155   8.093  0.0591  0.3731 -0.6416
 2652TIP3    H129591   6.959   1.087   8.047 -2.8153 -0.4527 -2.7792
 2652TIP3    H229592   6.904   1.227   8.031 -0.3656  0.9487  0.0510
 2653TIP3   OH229593   1.294   3.225   0.029  0.2435  0.1184  0.1523
 2653TIP3    H129594   1.380   3.259   0.002 -0.3383  2.5869  1.0907
 2653TIP3    H229595   1.274   3.273   0.109 -2.3727  0.2274 -0.4868
 2654TIP3   OH229596   4.256   2.457   6.643  0.2377  0.0397 -0.5127
 2654TIP3    H129597   4.259   2.392   6.573  1.5986  0.5010 -0.9059
 2654TIP3    H229598   4.328   2.517   6.624 -0.4638  1.1861  0.3178
 2655TIP3   OH229599   5.202   0.031   7.816 -0.1129  0.4205  0.1126
 2655TIP3    H129600   5.169   0.064   7.732 -0.7769 -1.4955 -0.4413
 2655TIP3    H229601   5.127   0.036   7.874 -0.2652 -0.2322 -0.0215
 2656TIP3   OH229602   4.113   5.191   2.356 -0.1222 -0.0897 -0.0750
 2656TIP3    H129603   4.176   5.118   2.361  0.6622  0.5488 -0.3732
 2656TIP3    H229604   4.028   5.148   2.355  0.2379 -0.9362  1.6159
 2657TIP3   OH229605   2.887   4.335   0.639 -0.2704  0.0110  0.1059
 2657TIP3    H129606   2.952   4.388   0.685  0.3379  0.1693 -0.9186
 2657TIP3    H229607   2.858   4.271   0.705  0.8176  0.0271  0.6242
 2658TIP3   OH229608   5.834   4.789   0.301  0.0924  0.4741 -0.2049
 2658TIP3    H129609   5.919   4.832   0.299  0.4521 -0.0701  1.4700
 2658TIP3    H229610   5.845   4.711   0.247  1.1773 -0.4196  1.2360
 2659TIP3   OH229611   2.817   2.468   2.076  0.1036  0.3783 -0.1025
 2659TIP3    H129612   2.896   2.415   2.068 -0.3477 -0.7849  2.3956
 2659TIP3    H229613   2.753   2.424   2.020  0.5688  0.0273 -0.3717
 2660TIP3   OH229614   6.826   6.226   2.561  0.1399 -0.4767  0.1671
 2660TIP3    H129615   6.873   6.143   2.552  2.1333  0.2253  2.7614
 2660TIP3    H229616   6.760   6.210   2.628  0.3287 -0.0901  0.4548
 2661TIP3   OH229617   5.852   5.955   2.487  0.3756  0.1132 -0.3430
 2661TIP3    H129618   5.815   5.938   2.573  1.8963  1.7145  0.6797
 2661TIP3    H229619   5.778   5.945   2.427 -1.2183  0.9728  1.3714
 2662TIP3   OH229620   1.088   4.641   7.766 -0.2328 -0.6830 -0.3305
 2662TIP3    H129621   1.177   4.673   7.778 -0.8883  1.8955 -1.5784
 2662TIP3    H229622   1.032   4.717   7.780 -2.0459 -1.5403 -2.2217
 2663TIP3   OH229623   3.139   6.541   8.433  0.2433  0.0001 -0.1613
 2663TIP3    H129624   3.181   6.538   8.519  0.1754 -0.0623 -0.1306
 2663TIP3    H229625   3.099   6.455   8.423 -1.6330  0.7343  0.6768
 2664TIP3   OH229626   3.447   3.206   0.135  0.3513 -0.0623  1.0775
 2664TIP3    H129627   3.434   3.259   0.056  3.0073 -0.5087  0.2373
 2664TIP3    H229628   3.372   3.146   0.136 -0.4198  0.8152 -0.3813
 2665TIP3   OH229629   2.604   0.356   7.704 -0.3296 -0.0678 -0.6755
 2665TIP3    H129630   2.690   0.315   7.693 -0.0443  0.7688 -1.7509
 2665TIP3    H229631   2.569   0.361   7.615 -0.9671  0.6954 -0.3868
 2666TIP3   OH229632   5.335   5.558   7.904  0.0730  0.3869 -0.2940
 2666TIP3    H129633   5.329   5.496   7.977 -0.8492  0.1681 -0.5392
 2666TIP3    H229634   5.310   5.506   7.827 -2.3274  1.4138 -0.2904
 2667TIP3   OH229635   1.323   3.640   7.782 -0.4520  0.5818  0.1834
 2667TIP3    H129636   1.233   3.631   7.812 -0.2359  0.1645  0.7168
 2667TIP3    H229637   1.332   3.575   7.713 -1.0453  1.7596 -1.0564
 2668TIP3   OH229638   5.612   6.423   7.946  0.4742 -0.2969  0.1334
 2668TIP3    H129639   5.668   6.351   7.917  0.8250 -0.6477  1.6235
 2668TIP3    H229640   5.668   6.501   7.942  1.2977 -0.7337  2.1591
 2669TIP3   OH229641   2.470   2.006   1.203 -0.1082  0.6772  0.4237
 2669TIP3    H129642   2.543   1.977   1.148  1.0407  0.2715  2.0657
 2669TIP3    H229643   2.399   1.946   1.182  0.5984 -0.0459  0.0322
 2670TIP3   OH229644   3.672   3.705   0.654  0.0547 -0.2980 -0.0834
 2670TIP3    H129645   3.729   3.731   0.582 -1.1742 -1.0804 -1.4016
 2670TIP3    H229646   3.718   3.632   0.696  2.1194  1.9413  1.7893
 2671TIP3   OH229647   1.541   0.315   8.047  0.5266 -0.6669 -0.2579
 2671TIP3    H129648   1.537   0.220   8.058 -0.0142 -0.4476  1.6464
 2671TIP3    H229649   1.513   0.329   7.956 -0.5105 -2.2386 -0.2166
 2672TIP3   OH229650   5.255   3.606   0.434 -0.0024 -0.0726  0.2121
 2672TIP3    H129651   5.224   3.585   0.346  0.4346  1.6140 -0.3902
 2672TIP3    H229652   5.175   3.612   0.486 -0.2705 -1.0500 -0.0787
 2673TIP3   OH229653   0.527   0.756   0.715 -0.2246 -0.8787  0.4973
 2673TIP3    H129654   0.476   0.711   0.648  0.6360 -0.7666 -0.2572
 2673TIP3    H229655   0.570   0.828   0.669 -1.0259  0.3346  1.5404
 2674TIP3   OH229656   0.127   4.408   6.744 -0.3781  0.2894 -0.0667
 2674TIP3    H129657   0.061   4.449   6.800 -0.0107 -1.5491  1.8511
 2674TIP3    H229658   0.111   4.314   6.753  1.7841 -0.1667 -0.4294
 2675TIP3   OH229659   2.306   0.228   0.271  0.0382  0.6044  0.5617
 2675TIP3    H129660   2.297   0.205   0.364 -1.7307 -1.2285  0.0010
 2675TIP3    H229661   2.280   0.320   0.267  2.1172  1.3407  2.1253
 2676TIP3   OH229662   5.941   5.121   1.799 -0.1739 -0.1683 -0.0093
 2676TIP3    H129663   5.848   5.103   1.783 -0.3341 -0.5755  1.2342
 2676TIP3    H229664   5.948   5.217   1.797 -0.9159 -0.0676  1.2689
 2677TIP3   OH229665   1.405   1.165   7.987  0.3570  0.0949 -0.4171
 2677TIP3    H129666   1.497   1.143   8.001 -0.1685 -1.3981  0.9854
 2677TIP3    H229667   1.378   1.208   8.069 -0.3772 -0.1642 -0.5172
 2678TIP3   OH229668   3.682   6.482   8.561 -0.0939 -0.5630  0.2936
 2678TIP3    H129669   3.729   6.402   8.583  0.7153  0.1546  1.2203
 2678TIP3    H229670   3.639   6.462   8.478  0.7980 -1.6670  0.0778
 2679TIP3   OH229671   6.490   6.179   7.170  0.3136  0.4788 -0.2244
 2679TIP3    H129672   6.451   6.094   7.148 -0.9205 -0.3076  4.1068
 2679TIP3    H229673   6.420   6.242   7.154  1.2060  0.8494 -3.3677
 2680TIP3   OH229674   0.304   3.975   0.199  0.2193  0.2668  0.2049
 2680TIP3    H129675   0.251   4.048   0.233 -0.1484  0.3395 -0.5136
 2680TIP3    H229676   0.295   3.981   0.104  2.7062  1.1867 -0.0609
 2681TIP3   OH229677   4.144   5.391   6.770  0.7483  0.2902 -0.8661
 2681TIP3    H129678   4.057   5.357   6.749  1.2215 -0.6967 -1.2974
 2681TIP3    H229679   4.199   5.361   6.698  1.8134 -0.6284  0.2816
 2682TIP3   OH229680   4.657   4.749   1.960  0.9271  0.5005 -0.0492
 2682TIP3    H129681   4.675   4.708   1.876  0.6671 -0.6160  0.4205
 2682TIP3    H229682   4.709   4.830   1.959 -0.6020  1.5283 -2.0527
 2683TIP3   OH229683   4.962   1.309   1.698  0.6178 -1.1815  0.0270
 2683TIP3    H129684   4.984   1.289   1.607 -1.2774 -0.4882 -0.6155
 2683TIP3    H229685   4.942   1.223   1.736 -0.4784 -1.2933 -0.7563
 2684TIP3   OH229686   2.686   6.182   1.692  0.4948 -0.6719  0.1005
 2684TIP3    H129687   2.609   6.151   1.739  1.3867 -2.1481  0.6585
 2684TIP3    H229688   2.667   6.165   1.600 -0.1640 -0.2519  0.1509
 2685TIP3   OH229689   0.782   0.683   0.230 -0.3828 -0.1432 -0.7082
 2685TIP3    H129690   0.783   0.625   0.307 -0.6579 -1.2858 -1.5406
 2685TIP3    H229691   0.843   0.643   0.169  0.6234  1.3385 -0.7026
 2686TIP3   OH229692   5.712   2.377   0.177  0.0350 -0.1401 -0.2234
 2686TIP3    H129693   5.662   2.431   0.238  0.3690  1.0959 -1.0247
 2686TIP3    H229694   5.670   2.291   0.182  0.2532 -0.1736  1.9808
 2687TIP3   OH229695   3.900   4.855   0.633 -0.3008  0.6486  0.1308
 2687TIP3    H129696   3.934   4.855   0.722 -0.1372 -1.0538  0.0971
 2687TIP3    H229697   3.967   4.812   0.581 -1.3975 -0.5254 -0.3726
 2688TIP3   OH229698   2.988   5.896   7.867  0.0694  0.4612  0.0227
 2688TIP3    H129699   3.023   5.810   7.889 -0.1924  0.7061  1.4662
 2688TIP3    H229700   2.988   5.944   7.949  1.1565  2.1952 -0.9241
 2689TIP3   OH229701   2.108   5.294   1.561 -0.0235 -0.3967  0.0333
 2689TIP3    H129702   2.093   5.271   1.469  0.5505 -2.1613  0.3443
 2689TIP3    H229703   2.022   5.320   1.593 -0.7739 -2.2019 -0.3834
 2690TIP3   OH229704   2.569   3.989   1.195  0.4611  0.0359 -0.0666
 2690TIP3    H129705   2.661   3.993   1.220  0.3446  5.2370  0.8103
 2690TIP3    H229706   2.524   4.042   1.260 -2.7154 -0.0590 -1.9583
 2691TIP3   OH229707   4.453   4.522   6.653  0.1089 -0.4192  0.0809
 2691TIP3    H129708   4.362   4.552   6.650 -1.4052 -4.1191  1.8383
 2691TIP3    H229709   4.467   4.479   6.569  0.9491  1.6825 -0.9086
 2692TIP3   OH229710   5.241   1.986   8.118 -0.4110  0.6210  0.1536
 2692TIP3    H129711   5.177   1.928   8.160  0.8011  0.0054  1.2267
 2692TIP3    H229712   5.314   1.990   8.180  0.9601  0.6176 -1.3832
 2693TIP3   OH229713   0.042   2.725   0.941 -0.3449 -0.3941  0.4768
 2693TIP3    H129714   0.043   2.739   0.846  2.7262 -1.8630  0.1577
 2693TIP3    H229715   0.133   2.739   0.967 -0.8656 -1.3057  3.0026
 2694TIP3   OH229716   5.361   5.145   1.036  0.3597  0.5686 -0.2828
 2694TIP3    H129717   5.348   5.182   0.948  0.4767  0.4738 -0.3394
 2694TIP3    H229718   5.394   5.218   1.088  1.2581  0.3705 -0.5651
 2695TIP3   OH229719   6.749   4.068   7.596  0.0705 -0.4447 -0.4943
 2695TIP3    H129720   6.790   3.993   7.640  0.7019  0.5494  0.6920
 2695TIP3    H229721   6.697   4.030   7.526  0.7462 -1.9579 -0.2072
 2696TIP3   OH229722   5.133   2.417   7.584  0.3773 -0.0398 -0.2378
 2696TIP3    H129723   5.204   2.374   7.537  1.1607  0.3762  0.5273
 2696TIP3    H229724   5.132   2.375   7.670  0.7959  1.0739  0.3310
 2697TIP3   OH229725   3.545   3.629   6.936 -0.4391 -0.1403  0.2638
 2697TIP3    H129726   3.509   3.710   6.898  0.4471  0.7562  1.2707
 2697TIP3    H229727   3.545   3.645   7.030  1.6944 -0.4724  0.3639
 2698TIP3   OH229728   1.209   6.526   8.614  0.5175  0.7326  0.1018
 2698TIP3    H129729   1.121   6.563   8.608  0.4458  0.8396  1.5032
 2698TIP3    H229730   1.233   6.536   8.706  2.1581  1.0588 -0.3303
 2699TIP3   OH229731   6.003   0.283   0.254  0.8629 -0.3250 -0.0925
 2699TIP3    H129732   6.030   0.213   0.312 -2.0259 -0.5276  1.1610
 2699TIP3    H229733   5.980   0.239   0.172  0.0964 -0.7555  0.3354
 2700TIP3   OH229734   6.513   1.130   7.228 -0.1725 -0.3389 -0.3092
 2700TIP3    H129735   6.462   1.109   7.307  0.8752 -0.8164  0.2673
 2700TIP3    H229736   6.479   1.070   7.161 -0.9614 -0.0410 -0.1819
 2701TIP3   OH229737   1.692   1.997   7.249 -0.7953  0.2906 -0.1574
 2701TIP3    H129738   1.685   1.901   7.249  0.5124  0.1862  0.0692
 2701TIP3    H229739   1.725   2.019   7.162 -1.4208  0.5729 -0.3305
 2702TIP3   OH229740   3.903   1.043   7.663 -0.6836  0.2061 -0.0264
 2702TIP3    H129741   3.826   1.041   7.719  0.7241  0.0328  2.0164
 2702TIP3    H229742   3.969   0.993   7.711  1.0907  1.4099 -1.0702
 2703TIP3   OH229743   3.978   4.149   7.913 -0.0410 -0.3988  0.1584
 2703TIP3    H129744   4.048   4.105   7.961 -0.6890 -1.2848  0.3178
 2703TIP3    H229745   3.942   4.211   7.976  0.0764 -0.5169  0.3438
 2704TIP3   OH229746   0.728   4.075   1.893  0.5502  0.2710 -0.6452
 2704TIP3    H129747   0.756   4.038   1.809  2.0686 -1.1892  0.4369
 2704TIP3    H229748   0.640   4.040   1.907  0.8703 -0.6991 -0.9623
 2705TIP3   OH229749   3.969   4.384   0.650 -0.0355 -0.1106  0.0819
 2705TIP3    H129750   3.905   4.352   0.713 -0.6830  0.1263 -0.4432
 2705TIP3    H229751   3.964   4.479   0.655 -0.3887 -0.0877 -0.6130
 2706TIP3   OH229752   0.678   6.401   2.036 -0.1356  0.4780  0.1763
 2706TIP3    H129753   0.733   6.398   1.958 -0.4793 -0.8037 -0.0482
 2706TIP3    H229754   0.731   6.360   2.104 -0.4829 -0.0146  0.1596
 2707TIP3   OH229755   5.080   4.612   2.671 -0.7720 -0.1639 -0.1062
 2707TIP3    H129756   4.993   4.575   2.683  0.1547 -2.4565  0.1888
 2707TIP3    H229757   5.121   4.556   2.605  0.3263  1.1276 -0.5572
 2708TIP3   OH229758   6.296   3.868   8.339  0.1063 -0.1149  0.3995
 2708TIP3    H129759   6.350   3.790   8.325  0.5001  0.1124  0.6265
 2708TIP3    H229760   6.207   3.840   8.314  0.1819 -0.7299  0.7844
 2709TIP3   OH229761   1.769   0.468   0.012  0.2291 -0.0841 -0.5312
 2709TIP3    H129762   1.791   0.560   0.024 -2.7570  0.4358  2.2721
 2709TIP3    H229763   1.711   0.467  -0.064 -0.1394  0.4680 -0.2644
 2710TIP3   OH229764   6.074   6.200   7.649  0.5773 -0.2821  0.4570
 2710TIP3    H129765   5.986   6.162   7.644  0.5043 -0.1465  0.6890
 2710TIP3    H229766   6.064   6.289   7.618  0.7397 -0.4334 -0.0336
 2711TIP3   OH229767   4.209   5.405   7.713 -0.4511  0.4296 -0.4061
 2711TIP3    H129768   4.131   5.449   7.749 -0.8195 -0.6709  0.1777
 2711TIP3    H229769   4.174   5.328   7.668  0.3614 -0.5518  0.6194
 2712TIP3   OH229770   1.589   6.152   0.542 -0.0514 -0.0767 -0.0031
 2712TIP3    H129771   1.498   6.158   0.573 -0.6520  0.9259 -1.8347
 2712TIP3    H229772   1.584   6.169   0.448  2.0444 -0.0637 -0.1607
 2713TIP3   OH229773   5.356   1.219   7.353  0.3934 -0.0138 -0.1382
 2713TIP3    H129774   5.410   1.200   7.276  0.3566 -0.3235 -0.0872
 2713TIP3    H229775   5.286   1.155   7.350 -2.0357  2.4970 -2.1426
 2714TIP3   OH229776   3.128   3.703   2.108 -0.1175 -0.0310 -0.1431
 2714TIP3    H129777   3.078   3.658   2.176 -0.1111 -0.4222 -0.3985
 2714TIP3    H229778   3.219   3.693   2.135 -0.1110 -0.2413 -0.2454
 2715TIP3   OH229779   6.292   3.848   7.863  0.0146 -0.5521  0.4592
 2715TIP3    H129780   6.355   3.913   7.895 -2.3700  3.5360 -2.2221
 2715TIP3    H229781   6.224   3.845   7.930 -0.4485  0.7942  0.0888
 2716TIP3   OH229782   4.819   4.001   1.500 -0.4757 -0.2316 -0.4010
 2716TIP3    H129783   4.777   3.976   1.418  0.4425  0.4247 -1.0948
 2716TIP3    H229784   4.822   4.096   1.497 -1.1350 -0.1679  0.7669
 2717TIP3   OH229785   6.462   6.143   7.677  0.2978 -0.2439  0.5194
 2717TIP3    H129786   6.521   6.173   7.608  0.9216 -1.6343  0.4159
 2717TIP3    H229787   6.441   6.222   7.728  0.1820  0.7176 -0.9724
 2718TIP3   OH229788   5.377   4.033   1.197  0.2004  0.1157  0.6277
 2718TIP3    H129789   5.321   4.041   1.119 -0.1789  0.5153  0.9343
 2718TIP3    H229790   5.419   3.948   1.187  1.3708  0.8167 -0.8014
 2719TIP3   OH229791   6.563   0.709   8.577  0.2746  0.2425 -0.3929
 2719TIP3    H129792   6.514   0.628   8.559  1.3399 -0.6141  0.3688
 2719TIP3    H229793   6.502   0.763   8.626 -0.8875  0.4572 -1.9878
 2720TIP3   OH229794   3.034   3.608   1.595 -0.0976 -0.3760 -0.3804
 2720TIP3    H129795   2.985   3.526   1.582 -0.9437 -0.2907  1.8471
 2720TIP3    H229796   2.996   3.669   1.533 -0.9003 -1.1007 -0.6211
 2721TIP3   OH229797   2.034   2.994   0.740  0.4059 -0.5099 -0.6952
 2721TIP3    H129798   2.114   2.944   0.756  2.3419  2.0834 -1.5859
 2721TIP3    H229799   1.997   2.955   0.660  1.1749 -1.3055 -0.6761
 2722TIP3   OH229800   0.336   0.643   0.527  0.0834 -0.0901 -0.1734
 2722TIP3    H129801   0.390   0.648   0.448  0.5212 -0.8050  0.0754
 2722TIP3    H229802   0.339   0.551   0.553 -2.3743 -0.4384 -0.9115
 2723TIP3   OH229803   5.192   1.305   0.769 -0.2057  0.2202  0.4980
 2723TIP3    H129804   5.275   1.338   0.735 -0.0515  0.1377  0.7992
 2723TIP3    H229805   5.202   1.209   0.768 -1.0540  0.0892 -1.4401
 2724TIP3   OH229806   3.074   3.646   8.523 -0.7013 -0.2229  0.3859
 2724TIP3    H129807   3.150   3.702   8.538 -1.0835 -0.0704  1.9740
 2724TIP3    H229808   3.091   3.604   8.439  0.5534  0.7237  0.1320
 2725TIP3   OH229809   4.673   0.880   0.306 -0.2218 -0.0537  1.2150
 2725TIP3    H129810   4.640   0.819   0.240 -0.3795  0.2515  1.0091
 2725TIP3    H229811   4.650   0.840   0.389 -0.1345 -0.3796  1.0835
 2726TIP3   OH229812   5.035   4.900   0.923 -0.6325 -0.0145  0.2541
 2726TIP3    H129813   4.979   4.847   0.981 -1.7343  1.2854  0.4147
 2726TIP3    H229814   5.051   4.844   0.848  0.3878 -1.5542  1.5384
 2727TIP3   OH229815   2.082   0.265   2.111 -0.2233 -0.2148 -0.3368
 2727TIP3    H129816   2.054   0.224   2.029 -0.8649 -0.3295 -0.0585
 2727TIP3    H229817   2.167   0.224   2.129 -1.7192 -2.9794  0.9928
 2728TIP3   OH229818   6.292   3.206   0.576 -0.0791  0.1647  0.1126
 2728TIP3    H129819   6.222   3.240   0.520  1.7764  0.1542 -2.3559
 2728TIP3    H229820   6.338   3.142   0.522  1.7862  0.0824  1.6871
 2729TIP3   OH229821   0.245   5.841   0.919 -0.3435  0.7653  0.0717
 2729TIP3    H129822   0.328   5.857   0.964  0.4546  0.2433 -1.1648
 2729TIP3    H229823   0.187   5.910   0.951  0.8070  1.6162  0.3855
 2730TIP3   OH229824   3.298   0.699   0.870  0.6549  0.1327 -0.2619
 2730TIP3    H129825   3.354   0.646   0.928  1.3373  1.0690 -0.0561
 2730TIP3    H229826   3.332   0.684   0.782  1.6181  1.1658 -0.0731
 2731TIP3   OH229827   6.701   2.582   7.957  0.3266  0.3076 -0.7073
 2731TIP3    H129828   6.696   2.487   7.969 -1.3866  0.5925  1.4936
 2731TIP3    H229829   6.791   2.604   7.978  0.1606 -0.6069  1.1635
 2732TIP3   OH229830   0.788   0.058   0.998 -0.1435  0.3174 -0.5646
 2732TIP3    H129831   0.843   0.133   0.975  1.2154 -0.3811  0.3189
 2732TIP3    H229832   0.753   0.080   1.085  0.3116 -0.0980 -0.2747
 2733TIP3   OH229833   3.137   4.903   2.243  0.3887 -0.3169  0.2087
 2733TIP3    H129834   3.222   4.868   2.216  0.6432 -0.6854  1.4061
 2733TIP3    H229835   3.122   4.978   2.185  2.4233  0.9108  1.1327
 2734TIP3   OH229836   5.602   0.884   8.661 -0.1148 -0.2716  0.8149
 2734TIP3    H129837   5.624   0.858   8.571 -1.3700 -1.9707  0.9540
 2734TIP3    H229838   5.511   0.915   8.655 -0.4306 -1.0153  1.6020
 2735TIP3   OH229839   1.818   4.155   1.552 -0.0359  0.5525 -0.2435
 2735TIP3    H129840   1.781   4.157   1.640  0.6610 -2.1649  0.2272
 2735TIP3    H229841   1.897   4.209   1.557 -0.2957  0.8542  0.6533
 2736TIP3   OH229842   6.212   4.803   0.205 -0.0944  0.3750 -0.8185
 2736TIP3    H129843   6.189   4.713   0.227  0.0703  0.8759  1.5977
 2736TIP3    H229844   6.171   4.818   0.119 -3.3543 -0.7970  0.3912
 2737TIP3   OH229845   6.094   6.503   0.325  0.2347  0.3981 -0.2837
 2737TIP3    H129846   6.153   6.431   0.345 -2.1631 -1.7281 -0.3526
 2737TIP3    H229847   6.040   6.471   0.253 -1.5756  1.8851  0.3365
 2738TIP3   OH229848   4.166   1.665   6.603 -0.1604  0.4123 -0.4304
 2738TIP3    H129849   4.245   1.635   6.648 -0.5383  2.0631  1.5075
 2738TIP3    H229850   4.094   1.635   6.660 -0.7682  1.1494 -0.8006
 2739TIP3   OH229851   0.766   3.969   1.651 -0.2353 -0.1077  0.3830
 2739TIP3    H129852   0.834   3.935   1.592  0.1781  1.2628  0.0368
 2739TIP3    H229853   0.687   3.972   1.597  0.3912  2.2321 -0.5412
 2740TIP3   OH229854   1.747   5.224   2.032 -0.4398 -0.0072  0.4429
 2740TIP3    H129855   1.807   5.160   1.993  0.0373  0.7047 -0.0278
 2740TIP3    H229856   1.660   5.190   2.012 -0.2356 -1.5674  1.9854
 2741TIP3   OH229857   3.369   3.517   8.152 -0.2828  0.1236 -0.3286
 2741TIP3    H129858   3.413   3.432   8.153 -1.2425 -0.3949 -1.0605
 2741TIP3    H229859   3.440   3.581   8.151  0.4549 -0.6539  0.4007
 2742TIP3   OH229860   0.402   2.400   1.513  0.6358  0.2569 -0.3130
 2742TIP3    H129861   0.364   2.422   1.428 -0.7637 -0.2681  0.1465
 2742TIP3    H229862   0.439   2.312   1.501  0.9975  0.4387 -0.5418
 2743TIP3   OH229863   0.423   1.875   0.550 -0.0386  0.4466  0.3841
 2743TIP3    H129864   0.484   1.916   0.611  1.3159 -2.2595  0.9902
 2743TIP3    H229865   0.479   1.832   0.485 -1.4124  0.8131 -1.1070
 2744TIP3   OH229866   4.940   2.382   1.470  0.7240 -0.1519  0.1304
 2744TIP3    H129867   4.877   2.436   1.517  0.2006 -0.2273 -0.4770
 2744TIP3    H229868   4.956   2.307   1.528  2.5971  1.3164  1.6862
 2745TIP3   OH229869   0.458   4.672   2.181  0.0465 -0.4086  0.0138
 2745TIP3    H129870   0.443   4.639   2.269 -0.2744 -3.3447 -1.0349
 2745TIP3    H229871   0.379   4.647   2.132 -0.6130  2.7656 -0.7811
 2746TIP3   OH229872   0.262   1.189   2.570  0.8553  0.0914  0.1774
 2746TIP3    H129873   0.171   1.163   2.557  1.6136 -2.6319 -0.2101
 2746TIP3    H229874   0.302   1.116   2.617  2.7035  1.5145  0.9460
 2747TIP3   OH229875   4.784   2.072   7.588 -0.1350  0.4686  0.0260
 2747TIP3    H129876   4.713   2.023   7.546 -0.4435  1.5240 -0.7311
 2747TIP3    H229877   4.748   2.160   7.599  0.7988  0.8197  0.3324
 2748TIP3   OH229878   3.023   3.426   1.966 -0.5424 -0.0644  0.6181
 2748TIP3    H129879   3.095   3.395   1.911 -0.2463 -0.0283  0.9822
 2748TIP3    H229880   3.058   3.502   2.011 -1.0110  0.3231  0.3337
 2749TIP3   OH229881   5.061   2.923   7.248 -0.4046  0.3847  0.2806
 2749TIP3    H129882   5.063   2.857   7.317 -0.5673  0.5312  0.4286
 2749TIP3    H229883   5.049   2.874   7.167  1.9270  0.0279  0.0957
 2750TIP3   OH229884   1.354   5.164   0.779  0.7586 -0.2531  0.6288
 2750TIP3    H129885   1.360   5.071   0.802  1.2065 -0.2514  0.5252
 2750TIP3    H229886   1.279   5.195   0.828 -0.3631 -1.0256 -0.5339
 2751TIP3   OH229887   1.203   0.853   8.512 -0.0713 -0.0344  0.0234
 2751TIP3    H129888   1.265   0.909   8.558 -1.3610  2.5545 -1.1833
 2751TIP3    H229889   1.208   0.882   8.421 -1.9215 -0.8298 -0.3788
 2752TIP3   OH229890   0.246   3.439   1.654  0.4136 -0.0170  0.5146
 2752TIP3    H129891   0.177   3.390   1.608 -0.7222  0.7932  1.2978
 2752TIP3    H229892   0.218   3.439   1.746 -0.1653  2.8963  0.4309
 2753TIP3   OH229893   5.784   3.701   0.913 -0.1210 -0.3024  0.3067
 2753TIP3    H129894   5.704   3.667   0.954  0.4968 -3.0186 -0.5534
 2753TIP3    H229895   5.855   3.671   0.969  0.4206  1.3619  0.5904
 2754TIP3   OH229896   2.931   0.625   2.111  0.0883 -0.6901 -0.0937
 2754TIP3    H129897   2.868   0.559   2.139 -0.6701 -0.5993 -1.4836
 2754TIP3    H229898   2.878   0.699   2.082  0.9159  0.5297  1.3178
 2755TIP3   OH229899   4.376   2.811   2.080 -0.3891 -0.3847 -0.5573
 2755TIP3    H129900   4.371   2.757   2.001  1.0904 -0.3532 -0.7003
 2755TIP3    H229901   4.288   2.846   2.091 -1.0287 -1.7079 -1.2612
 2756TIP3   OH229902   1.734   5.729   7.582  0.1272  0.6497  0.0961
 2756TIP3    H129903   1.785   5.802   7.618  1.7133 -1.3558  2.2018
 2756TIP3    H229904   1.758   5.728   7.489  0.8049  2.1981  0.2111
 2757TIP3   OH229905   0.500   0.518   7.097 -0.3684  0.0872  0.1931
 2757TIP3    H129906   0.574   0.575   7.114  0.1887 -0.1146 -1.4240
 2757TIP3    H229907   0.467   0.545   7.011 -0.2046 -1.8734 -0.5336
 2758TIP3   OH229908   5.239   0.556   8.330 -0.4136 -0.1806 -0.1581
 2758TIP3    H129909   5.175   0.622   8.305  0.8444  0.5196 -1.6681
 2758TIP3    H229910   5.323   0.599   8.321  0.3318 -1.1632  1.5450
 2759TIP3   OH229911   4.825   1.998   0.419 -0.8421  0.7514 -0.0752
 2759TIP3    H129912   4.793   2.063   0.356  0.6330  1.1496 -0.4559
 2759TIP3    H229913   4.747   1.948   0.444 -1.2558 -0.6562 -3.6344
 2760TIP3   OH229914   1.792   6.435   1.266  0.5544  0.0143 -0.1604
 2760TIP3    H129915   1.697   6.445   1.270  0.7073  1.5418  2.6078
 2760TIP3    H229916   1.812   6.377   1.339  1.8270  1.1295  0.4235
 2761TIP3   OH229917   3.235   6.563   0.501  0.6309  0.3112 -0.2414
 2761TIP3    H129918   3.273   6.592   0.583 -1.5372 -0.3150  1.0852
 2761TIP3    H229919   3.304   6.576   0.436  2.4017  0.8795  1.6452
 2762TIP3   OH229920   5.536   0.443   1.553  0.1924  0.1921  0.1472
 2762TIP3    H129921   5.586   0.409   1.628 -0.9219  0.6727  1.1501
 2762TIP3    H229922   5.602   0.482   1.496  1.0032  0.6325  1.3357
 2763TIP3   OH229923   1.825   2.291   7.308 -0.2845  0.2665 -0.3771
 2763TIP3    H129924   1.858   2.375   7.274  0.9788 -0.0635 -0.0014
 2763TIP3    H229925   1.873   2.225   7.258 -1.3437 -0.2572 -0.7351
 2764TIP3   OH229926   3.650   1.006   6.637  0.0966 -0.0188  0.0735
 2764TIP3    H129927   3.652   0.943   6.566  0.6035  0.6089 -0.4850
 2764TIP3    H229928   3.742   1.019   6.660 -0.0707 -0.4133  1.0348
 2765TIP3   OH229929   3.260   1.051   0.084 -0.3291 -0.1645 -0.2328
 2765TIP3    H129930   3.175   1.013   0.105  0.0708 -0.8121  0.2682
 2765TIP3    H229931   3.278   1.020  -0.005  0.1083 -1.4042  0.2638
 2766TIP3   OH229932   5.111   3.115   0.767 -0.3246 -0.1002  0.2501
 2766TIP3    H129933   5.121   3.051   0.696  1.9236 -1.0078  1.2889
 2766TIP3    H229934   5.088   3.062   0.843  1.5763  0.2625  1.1319
 2767TIP3   OH229935   0.717   3.067   0.460  0.2871 -0.0634 -0.3368
 2767TIP3    H129936   0.645   3.111   0.506  0.4963 -1.9304  1.9829
 2767TIP3    H229937   0.791   3.127   0.468 -0.6374  1.3240 -1.6580
 2768TIP3   OH229938   1.364   0.386   6.315  0.5572 -0.7092  0.3402
 2768TIP3    H129939   1.392   0.477   6.324 -0.6530 -0.1699 -0.9395
 2768TIP3    H229940   1.440   0.341   6.278  0.6185  0.1661 -0.6413
 2769TIP3   OH229941   2.459   3.798   7.965 -0.2202  0.0065  0.1148
 2769TIP3    H129942   2.410   3.728   8.008 -0.7519 -2.4136 -3.8446
 2769TIP3    H229943   2.539   3.755   7.935  0.0576  1.4427 -1.3385
 2770TIP3   OH229944   1.737   1.683   0.823 -0.5455  0.0109 -0.4915
 2770TIP3    H129945   1.798   1.755   0.840 -1.4041  0.6448 -0.0253
 2770TIP3    H229946   1.701   1.660   0.909 -0.4685 -0.8134 -0.6666
 2771TIP3   OH229947   1.638   5.719   0.103  0.5677 -0.2817  0.3625
 2771TIP3    H129948   1.574   5.782   0.071  0.5893  0.1371  1.1285
 2771TIP3    H229949   1.693   5.699   0.026  0.5122  0.5692  0.0970
 2772TIP3   OH229950   4.816   4.623   8.656 -0.5360  0.0753  0.5494
 2772TIP3    H129951   4.903   4.614   8.694 -0.5749  0.1282  0.6496
 2772TIP3    H229952   4.764   4.667   8.723 -0.6033  0.1707  0.4355
 2773TIP3   OH229953   6.545   4.426   1.491  0.3208  0.4723  0.4637
 2773TIP3    H129954   6.472   4.449   1.434  1.4523  1.5685 -0.6116
 2773TIP3    H229955   6.566   4.507   1.537  1.3181  0.3792  0.1948
 2774TIP3   OH229956   0.612   4.613   1.832 -0.3172  0.4156  1.0513
 2774TIP3    H129957   0.650   4.671   1.766  0.2406 -1.1722 -0.0850
 2774TIP3    H229958   0.685   4.588   1.888 -0.9714  2.6986  3.1599
 2775TIP3   OH229959   3.905   2.074   0.573  0.1790 -0.0010  0.1326
 2775TIP3    H129960   3.889   2.001   0.514 -3.1917  1.8270 -1.5152
 2775TIP3    H229961   3.845   2.060   0.646 -0.1265  0.8467  0.0575
 2776TIP3   OH229962   4.948   6.126   1.537  0.8069  0.4683  0.2362
 2776TIP3    H129963   4.996   6.101   1.616 -0.9238 -1.6902  0.6898
 2776TIP3    H229964   4.858   6.098   1.554  0.7091 -1.8232 -3.1969
 2777TIP3   OH229965   3.949   3.685   1.080  0.3528 -0.0699 -0.0585
 2777TIP3    H129966   3.974   3.638   1.000  1.6572 -1.3569  1.0635
 2777TIP3    H229967   3.929   3.617   1.143 -0.2180  0.9250  0.8721
 2778TIP3   OH229968   4.070   4.514   7.863 -0.2081 -0.8962 -0.2820
 2778TIP3    H129969   4.127   4.587   7.839 -1.7450  0.1728 -0.7676
 2778TIP3    H229970   3.982   4.544   7.845 -0.9719 -2.4930  0.5315
 2779TIP3   OH229971   1.614   2.631   7.248  0.4203  0.0767 -0.0469
 2779TIP3    H129972   1.704   2.625   7.217  0.1010  1.6793 -1.3790
 2779TIP3    H229973   1.596   2.544   7.283  1.4925 -1.2577 -2.5244
 2780TIP3   OH229974   2.402   1.813   7.549 -0.6322 -0.3665 -0.3343
 2780TIP3    H129975   2.379   1.837   7.639  0.9464 -0.3047  0.0916
 2780TIP3    H229976   2.366   1.883   7.495 -0.0035  0.5964  0.4521
 2781TIP3   OH229977   6.115   5.996   1.922  0.1321  0.4091  0.2231
 2781TIP3    H129978   6.153   6.037   2.000 -0.7921  0.5671  0.5955
 2781TIP3    H229979   6.187   5.995   1.858  0.9151  0.2098  1.0972
 2782TIP3   OH229980   0.323   1.583   7.970 -0.3905 -0.1388  0.4106
 2782TIP3    H129981   0.294   1.659   7.918 -1.7631  0.1239  1.5061
 2782TIP3    H229982   0.255   1.518   7.957  0.6120 -1.0926 -0.2427
 2783TIP3   OH229983   0.872   1.819   0.605  0.5515 -0.1384  0.1050
 2783TIP3    H129984   0.880   1.894   0.547  1.0838  0.0148  0.3763
 2783TIP3    H229985   0.824   1.754   0.554 -0.8134  0.7467  0.2238
 2784TIP3   OH229986   5.189   6.320   0.084  0.5493 -0.1083  0.2193
 2784TIP3    H129987   5.197   6.299   0.177 -0.7719  0.5941  0.5230
 2784TIP3    H229988   5.277   6.346   0.057  1.2844 -1.8271  0.8640
 2785TIP3   OH229989   6.797   1.947   8.082 -0.1385 -0.1169  0.5171
 2785TIP3    H129990   6.704   1.938   8.104 -0.3250 -1.3231 -0.6689
 2785TIP3    H229991   6.830   1.858   8.077  0.7374  0.2430 -0.5109
 2786TIP3   OH229992   0.551   2.160   6.675  0.1338  0.1303  0.7296
 2786TIP3    H129993   0.604   2.081   6.687  1.5973  0.8125 -0.8459
 2786TIP3    H229994   0.465   2.128   6.647  1.3398 -0.9277 -2.1281
 2787TIP3   OH229995   0.627   0.913   8.561  0.1630  0.4213 -0.0775
 2787TIP3    H129996   0.719   0.920   8.538  0.2988 -1.4179 -0.2245
 2787TIP3    H229997   0.581   0.924   8.477  0.3013  0.3091 -0.1675
 2788TIP3   OH229998   1.489   2.389   6.874 -0.2332  0.6049  0.1290
 2788TIP3    H129999   1.453   2.364   6.789  0.4062 -1.3161  0.3658
 2788TIP3    H230000   1.413   2.399   6.931 -0.5995  0.7315 -0.3848
 2789TIP3   OH230001   3.537   4.517   7.339  0.8583  0.0289 -0.5297
 2789TIP3    H130002   3.465   4.467   7.299  0.3975 -0.9652  1.4295
 2789TIP3    H230003   3.599   4.532   7.267 -0.4221 -0.7250 -1.8374
 2790TIP3   OH230004   2.705   3.495   0.196 -0.4648  0.5799 -0.3263
 2790TIP3    H130005   2.733   3.559   0.262  0.8697  0.2611 -0.5521
 2790TIP3    H230006   2.774   3.497   0.130 -1.4954  0.4606 -1.4234
 2791TIP3   OH230007   1.962   5.474   7.577 -0.3473 -0.1087  0.6941
 2791TIP3    H130008   1.937   5.390   7.536  0.2905  0.0642 -0.0855
 2791TIP3    H230009   1.895   5.490   7.643 -1.9012  0.0068 -0.8576
 2792TIP3   OH230010   4.584   2.757   0.712 -0.6079 -0.3795 -0.3980
 2792TIP3    H130011   4.608   2.667   0.690 -0.7815 -0.7455  0.8008
 2792TIP3    H230012   4.663   2.808   0.697  0.4007 -1.2350  1.6313
 2793TIP3   OH230013   3.512   5.624   6.631 -0.8710 -0.4865 -0.0427
 2793TIP3    H130014   3.586   5.570   6.659  0.0874  1.5846  1.7054
 2793TIP3    H230015   3.546   5.713   6.633 -3.4678  0.5595  1.0895
 2794TIP3   OH230016   0.621   4.828   7.242  0.4688 -0.2594 -0.4220
 2794TIP3    H130017   0.540   4.833   7.191  0.3585  2.8560 -0.1046
 2794TIP3    H230018   0.671   4.904   7.216  3.1499 -1.8286 -0.2042
 2795TIP3   OH230019   5.081   5.139   7.641 -0.2933  1.0554  0.0357
 2795TIP3    H130020   5.017   5.084   7.688  0.2226  0.4492  0.0472
 2795TIP3    H230021   5.030   5.213   7.609 -1.4530 -0.3794 -1.6490
 2796TIP3   OH230022   1.925   5.185   1.281  0.3571 -0.3473  0.0829
 2796TIP3    H130023   2.009   5.223   1.256 -0.2537  1.5201  0.7601
 2796TIP3    H230024   1.945   5.130   1.357  1.2323 -1.4180 -0.8680
 2797TIP3   OH230025   3.499   2.458   0.925  0.5486 -0.2709  0.1920
 2797TIP3    H130026   3.580   2.419   0.959  0.9567  0.6367  0.3040
 2797TIP3    H230027   3.440   2.460   1.000  1.1152  0.8462  0.6438
 2798TIP3   OH230028   2.766   2.667   6.692  0.2978  0.0426  0.0279
 2798TIP3    H130029   2.756   2.692   6.600  1.6433 -2.0245 -0.7604
 2798TIP3    H230030   2.824   2.591   6.689 -0.0704 -0.3998  2.5636
 2799TIP3   OH230031   0.114   2.989   8.270  0.2576 -0.0710 -0.6326
 2799TIP3    H130032   0.111   3.041   8.350  1.2277  0.6062 -1.0072
 2799TIP3    H230033   0.181   2.923   8.286 -1.2468 -1.5147 -0.0144
 2800TIP3   OH230034   3.503   2.642   1.586 -0.1627 -0.1195  0.3568
 2800TIP3    H130035   3.499   2.660   1.680 -0.7435 -1.8738  0.7111
 2800TIP3    H230036   3.465   2.555   1.577  0.1186 -0.0909 -1.4894
 2801TIP3   OH230037   5.129   1.826   0.431  0.3891  0.4573  0.4589
 2801TIP3    H130038   5.084   1.763   0.487  0.3985 -0.7234 -0.8060
 2801TIP3    H230039   5.059   1.879   0.394  0.4436  1.8449  2.2281
 2802TIP3   OH230040   4.184   1.071   8.658  0.1531  0.1366  0.0619
 2802TIP3    H130041   4.174   1.159   8.696 -0.0967 -0.5174  1.5716
 2802TIP3    H230042   4.278   1.055   8.659  0.3433  0.9102 -1.5360
 2803TIP3   OH230043   2.090   0.772   8.176  0.3442  0.0412 -0.0659
 2803TIP3    H130044   2.140   0.702   8.219 -1.1033 -1.4154 -0.6547
 2803TIP3    H230045   2.104   0.849   8.231 -1.1387 -1.6292  2.9153
 2804TIP3   OH230046   1.428   5.865   7.501  1.0125 -0.0977  0.1873
 2804TIP3    H130047   1.521   5.885   7.495  1.2551 -1.3201 -0.3297
 2804TIP3    H230048   1.420   5.775   7.470 -0.0717 -0.7424  2.1815
 2805TIP3   OH230049   0.324   6.256   1.419  0.4613  0.7189  0.6191
 2805TIP3    H130050   0.263   6.285   1.351  0.2669 -0.9188  0.0324
 2805TIP3    H230051   0.411   6.268   1.380  0.3562 -0.0843  0.1130
 2806TIP3   OH230052   6.551   3.181   7.245  0.0400  0.1723  0.4167
 2806TIP3    H130053   6.521   3.112   7.187 -1.2393 -0.5784  1.9057
 2806TIP3    H230054   6.606   3.137   7.309 -1.3749  0.3439  1.8207
 2807TIP3   OH230055   3.974   3.282   7.535  0.1750 -0.4116  0.2568
 2807TIP3    H130056   3.892   3.292   7.487  0.1919  0.1874  0.3514
 2807TIP3    H230057   3.971   3.192   7.569 -0.2961 -0.4948 -0.0006
 2808TIP3   OH230058   4.810   1.794   6.530 -1.2649 -0.3513  0.1684
 2808TIP3    H130059   4.862   1.871   6.553 -2.6941  0.1648  1.8666
 2808TIP3    H230060   4.719   1.824   6.534 -1.7943 -1.6026 -1.2892
 2809TIP3   OH230061   3.986   3.713   0.683 -0.0469  0.3543  0.3606
 2809TIP3    H130062   4.011   3.730   0.774 -1.1814  0.0662  0.7392
 2809TIP3    H230063   3.971   3.619   0.679  0.3955  0.3001 -0.2390
 2810TIP3   OH230064   4.801   6.595   7.547 -0.1932  0.5172  0.1687
 2810TIP3    H130065   4.856   6.635   7.614  0.6654 -0.1033 -0.1577
 2810TIP3    H230066   4.711   6.616   7.574  0.1647  0.7427  1.2141
 2811TIP3   OH230067   5.424   1.747   8.519 -0.6661  0.3966 -0.1217
 2811TIP3    H130068   5.484   1.821   8.527  1.8182 -1.6200  1.6811
 2811TIP3    H230069   5.341   1.780   8.555  0.0706  2.5134 -0.1929
 2812TIP3   OH230070   1.389   2.532   7.434  0.4599 -0.4367  0.1110
 2812TIP3    H130071   1.430   2.586   7.501  0.6035  2.4806 -2.1316
 2812TIP3    H230072   1.458   2.473   7.405  0.6562 -1.0950  1.8122
 2813TIP3   OH230073   0.753   0.528   0.431  0.2766 -0.6774 -0.1401
 2813TIP3    H130074   0.757   0.582   0.510 -1.7760  1.7558 -1.5267
 2813TIP3    H230075   0.722   0.443   0.462  0.7246 -0.1892  1.8003
 2814TIP3   OH230076   6.550   3.689   2.064  0.2795  0.0524  0.2260
 2814TIP3    H130077   6.571   3.734   2.145  1.1257  2.8840 -1.4413
 2814TIP3    H230078   6.634   3.652   2.035 -0.0421 -1.0517  0.6507
 2815TIP3   OH230079   5.194   5.919   1.936  0.0273  0.0097  0.2030
 2815TIP3    H130080   5.277   5.930   1.982 -0.0887  0.3933  0.3290
 2815TIP3    H230081   5.155   5.841   1.976 -0.0331  0.2865  0.7001
 2816TIP3   OH230082   1.106   5.169   8.038  0.3775 -0.8420 -0.1011
 2816TIP3    H130083   1.075   5.257   8.059  0.0850 -0.5489 -1.6480
 2816TIP3    H230084   1.197   5.168   8.066  0.7712  0.4043 -1.2523
 2817TIP3   OH230085   5.967   2.279   7.073 -0.0464 -0.1036 -0.2254
 2817TIP3    H130086   5.921   2.310   6.995 -0.2451 -1.6527 -0.7651
 2817TIP3    H230087   5.924   2.323   7.146 -0.9593  0.1090 -0.8788
 2818TIP3   OH230088   1.006   3.127   1.310 -0.2829 -0.4367  0.0316
 2818TIP3    H130089   0.913   3.109   1.316 -0.2770 -0.5750 -0.2595
 2818TIP3    H230090   1.026   3.120   1.216  0.1219 -0.9626  0.1470
 2819TIP3   OH230091   3.780   6.526   6.828 -0.2926 -0.2633 -0.3496
 2819TIP3    H130092   3.747   6.582   6.899 -1.2279 -1.8793  0.5620
 2819TIP3    H230093   3.705   6.472   6.804  0.0285  0.1997 -2.5834
 2820TIP3   OH230094   2.066   6.233   1.895 -0.1291 -0.6562 -0.0177
 2820TIP3    H130095   2.040   6.324   1.880 -0.2002 -0.7960 -0.7546
 2820TIP3    H230096   2.136   6.217   1.832  2.9825  0.1968  2.8864
 2821TIP3   OH230097   4.705   2.631   1.834  0.1915 -0.1613 -0.4126
 2821TIP3    H130098   4.752   2.607   1.913 -1.2970  0.9979  0.8994
 2821TIP3    H230099   4.620   2.587   1.842 -0.7533  1.5803 -0.2867
 2822TIP3   OH230100   2.878   5.161   8.526 -0.3141  0.2469  0.0935
 2822TIP3    H130101   2.891   5.256   8.524  0.4613  0.1514  0.5836
 2822TIP3    H230102   2.921   5.132   8.606 -2.2793 -0.2792  1.0329
 2823TIP3   OH230103   2.586   2.943   1.704 -0.3442  0.0053 -0.4943
 2823TIP3    H130104   2.576   2.979   1.791  0.2059 -0.1898 -0.3464
 2823TIP3    H230105   2.612   3.017   1.650  2.3453 -0.4082  0.1121
 2824TIP3   OH230106   3.762   4.305   7.008 -0.6883 -0.4683 -0.3507
 2824TIP3    H130107   3.759   4.227   7.062  0.7580  0.6515  1.4792
 2824TIP3    H230108   3.850   4.306   6.970  0.4431  1.6974  2.0602
 2825TIP3   OH230109   0.643   0.185   7.357 -0.4493 -0.1102 -0.4292
 2825TIP3    H130110   0.556   0.208   7.324 -1.1303  1.0389  1.9597
 2825TIP3    H230111   0.627   0.132   7.434  1.0447 -1.3277 -0.8949
 2826TIP3   OH230112   2.795   6.123   7.579 -0.0636  0.1622  0.0871
 2826TIP3    H130113   2.788   6.069   7.500  3.1778 -1.7939  0.9456
 2826TIP3    H230114   2.859   6.191   7.556  1.2782 -0.7140  1.0690
 2827TIP3   OH230115   5.851   3.274   7.405 -0.3376  0.1629 -0.3550
 2827TIP3    H130116   5.758   3.296   7.403 -1.0061 -2.1031  1.4886
 2827TIP3    H230117   5.876   3.280   7.497  1.6509  1.6864 -0.9317
 2828TIP3   OH230118   0.053   4.768   2.316  0.0039  0.0292  0.4926
 2828TIP3    H130119   0.086   4.696   2.368  1.3775  2.3125  3.0471
 2828TIP3    H230120  -0.026   4.797   2.362  0.1842  0.9241  0.2695
 2829TIP3   OH230121   1.400   3.930   0.315  0.9012  0.0832 -0.2637
 2829TIP3    H130122   1.415   4.021   0.289 -0.2304  0.1309 -0.8693
 2829TIP3    H230123   1.469   3.880   0.271  0.8368  0.5298 -0.8805
 2830TIP3   OH230124   1.228   2.917   8.279  1.1337 -0.2086 -0.2657
 2830TIP3    H130125   1.202   2.930   8.371 -1.0075 -0.4445 -0.7781
 2830TIP3    H230126   1.229   3.006   8.243 -1.2463 -0.2948 -0.7406
 2831TIP3   OH230127   1.480   0.568   7.759 -0.0081 -0.7981 -0.8014
 2831TIP3    H130128   1.567   0.547   7.793  0.8483  0.6974 -1.9784
 2831TIP3    H230129   1.470   0.662   7.775 -0.7515 -0.6505 -2.0723
 2832TIP3   OH230130   5.129   5.636   1.575 -0.3254 -0.1630  0.0706
 2832TIP3    H130131   5.052   5.692   1.562 -0.4358 -0.6360 -1.5830
 2832TIP3    H230132   5.123   5.571   1.505  0.3254 -1.6648  1.3465
 2833TIP3   OH230133   5.916   2.825   0.238  0.1348 -0.4442 -0.2067
 2833TIP3    H130134   5.965   2.744   0.230 -1.5575 -1.6654  1.1031
 2833TIP3    H230135   5.855   2.824   0.164 -0.8619 -1.1133  0.5981
 2834TIP3   OH230136   5.779   5.464   0.059 -0.0422 -0.2850 -0.4392
 2834TIP3    H130137   5.836   5.537   0.036 -0.5578  0.1905 -0.2311
 2834TIP3    H230138   5.831   5.386   0.040  1.2895  0.1272  1.2871
 2835TIP3   OH230139   2.162   2.849   7.190 -0.4539 -0.2870  0.2723
 2835TIP3    H130140   2.172   2.797   7.269  0.1020  0.1476  0.4987
 2835TIP3    H230141   2.081   2.818   7.150 -0.0326 -1.4479  0.3026
 2836TIP3   OH230142   3.198   4.917   7.611 -0.4421  0.1327 -0.4430
 2836TIP3    H130143   3.225   5.007   7.593  0.5132  0.3441  1.6775
 2836TIP3    H230144   3.102   4.921   7.618 -0.2985  1.5489  1.9253
 2837TIP3   OH230145   3.094   1.840   1.835 -0.3266 -0.4327  0.2252
 2837TIP3    H130146   3.159   1.845   1.906 -0.3516 -0.9050  0.2790
 2837TIP3    H230147   3.044   1.922   1.844  2.2886  1.5723 -1.8059
 2838TIP3   OH230148   4.536   6.343   7.365  0.2006 -0.3378 -0.0003
 2838TIP3    H130149   4.533   6.331   7.460 -2.0544  0.1666  0.0492
 2838TIP3    H230150   4.509   6.258   7.329 -1.5404  0.1928 -0.0595
 2839TIP3   OH230151   6.662   5.979   7.313  0.3254 -0.0756 -0.4425
 2839TIP3    H130152   6.624   5.919   7.377  0.3090  0.0043 -0.3773
 2839TIP3    H230153   6.591   5.996   7.251  0.8902 -1.7063 -1.6119
 2840TIP3   OH230154   2.601   4.762   1.096  0.5343  0.1825  0.1139
 2840TIP3    H130155   2.544   4.697   1.054  0.3386 -1.6797  2.9630
 2840TIP3    H230156   2.557   4.845   1.081 -0.8189 -0.7043 -1.1578
 2841TIP3   OH230157   6.446   1.575   1.856  0.2230  0.0135  0.2180
 2841TIP3    H130158   6.461   1.484   1.882 -0.0303  0.0181  0.3817
 2841TIP3    H230159   6.441   1.624   1.938 -4.3855 -0.5346  0.5429
 2842TIP3   OH230160   4.724   0.081   7.510 -0.6392  0.1923  0.3218
 2842TIP3    H130161   4.637   0.044   7.494 -1.2652  1.1358  1.3982
 2842TIP3    H230162   4.712   0.140   7.585  1.0058  0.0704  0.7271
 2843TIP3   OH230163   5.649   5.462   2.210 -0.2450 -0.1763  0.6155
 2843TIP3    H130164   5.719   5.401   2.231 -0.4647 -1.2750 -1.5893
 2843TIP3    H230165   5.590   5.458   2.286 -0.2825 -2.7947  0.5441
 2844TIP3   OH230166   2.358   1.533   0.372  0.3826 -0.3676 -0.2242
 2844TIP3    H130167   2.274   1.568   0.403  1.2053  1.6262 -0.1103
 2844TIP3    H230168   2.338   1.442   0.348 -1.3577 -0.5632  1.6351
 2845TIP3   OH230169   4.417   3.467   7.157  0.1960  0.2974  0.4336
 2845TIP3    H130170   4.400   3.546   7.105 -0.0041 -0.3421 -0.4837
 2845TIP3    H230171   4.510   3.448   7.143  0.4361  0.7759  1.2542
 2846TIP3   OH230172   6.522   4.841   7.969  0.1066 -0.5362  0.2221
 2846TIP3    H130173   6.589   4.831   7.901  0.4185  1.3462  0.2147
 2846TIP3    H230174   6.559   4.795   8.045  0.9589 -0.3813 -0.0838
 2847TIP3   OH230175   3.324   4.615   1.337 -0.5565 -0.2136 -0.9397
 2847TIP3    H130176   3.244   4.631   1.287 -0.4501  0.5249 -0.8758
 2847TIP3    H230177   3.388   4.585   1.273 -0.4090  0.7627 -1.2511
 2848TIP3   OH230178   1.391   3.608   1.166  0.8456  0.2222 -0.0696
 2848TIP3    H130179   1.330   3.546   1.206 -1.0867  1.1521 -1.3982
 2848TIP3    H230180   1.417   3.666   1.237  0.2124 -0.2196  0.5337
 2849TIP3   OH230181   4.363   1.439   1.258  0.5902 -0.2198 -0.0970
 2849TIP3    H130182   4.388   1.530   1.272 -0.6260  0.4521 -1.9913
 2849TIP3    H230183   4.390   1.420   1.168  2.0089 -2.1923  0.6627
 2850TIP3   OH230184   4.310   0.199   0.291  0.6666  0.2641 -0.2023
 2850TIP3    H130185   4.351   0.188   0.377 -0.7671  0.5428  0.5573
 2850TIP3    H230186   4.383   0.209   0.230  1.7181  1.7968  1.2163
 2851TIP3   OH230187   4.772   6.404   8.619 -0.5024 -0.0558  0.0034
 2851TIP3    H130188   4.682   6.375   8.636 -0.4363  0.8584  2.2448
 2851TIP3    H230189   4.789   6.470   8.687  1.9756 -0.4671 -0.1348
 2852TIP3   OH230190   6.907   0.912   7.602  0.0331  0.3765 -0.7218
 2852TIP3    H130191   6.832   0.967   7.624 -0.5716 -0.5568 -0.3672
 2852TIP3    H230192   6.971   0.931   7.670 -0.6039 -0.1548  0.0509
 2853TIP3   OH230193   6.349   2.882   1.175 -0.5420  0.4931 -0.0804
 2853TIP3    H130194   6.389   2.820   1.235  0.7541 -1.6526 -2.9117
 2853TIP3    H230195   6.257   2.856   1.171 -0.4455  0.0870  0.2812
 2854TIP3   OH230196   3.119   6.898   2.257 -0.5059  0.0581 -0.3023
 2854TIP3    H130197   3.158   6.852   2.183 -0.2413  0.2774 -0.3026
 2854TIP3    H230198   3.168   6.867   2.333  0.3911  1.1131 -0.4220
 2855TIP3   OH230199   1.360   0.341   8.620 -0.3854 -0.1188 -0.2048
 2855TIP3    H130200   1.266   0.358   8.616 -0.6013 -1.1143  0.2185
 2855TIP3    H230201   1.401   0.424   8.598 -1.3621  0.0101 -1.6246
 2856TIP3   OH230202   2.172   3.746   2.124  0.4793 -0.5074 -0.1783
 2856TIP3    H130203   2.196   3.681   2.190 -1.5060 -1.1540 -0.0271
 2856TIP3    H230204   2.217   3.826   2.151  1.5048 -1.3431  0.6649
 2857TIP3   OH230205   3.288   1.102   0.743 -0.4050 -0.2465  0.2593
 2857TIP3    H130206   3.323   1.191   0.736  2.0080 -1.1866 -1.0700
 2857TIP3    H230207   3.214   1.100   0.682  1.8546 -0.0590 -2.7243
 2858TIP3   OH230208   6.227   0.982   7.639  0.0128 -0.4554  0.2263
 2858TIP3    H130209   6.257   0.891   7.638 -0.1457 -0.5058  0.1849
 2858TIP3    H230210   6.137   0.978   7.671  0.1328 -0.2761  0.5990
 2859TIP3   OH230211   0.755   1.303   8.347  0.2696 -0.3074 -0.3027
 2859TIP3    H130212   0.836   1.254   8.349 -0.1627 -1.0804 -1.2446
 2859TIP3    H230213   0.716   1.283   8.262 -0.7688  0.2670  0.0169
 2860TIP3   OH230214   2.870   1.634   1.421 -0.5258 -0.2134  0.0301
 2860TIP3    H130215   2.872   1.705   1.485 -1.5401 -0.1279 -0.0122
 2860TIP3    H230216   2.931   1.569   1.456  1.8732  1.4286 -0.8797
 2861TIP3   OH230217   5.497   5.865   8.271  0.2358  0.4616  0.5061
 2861TIP3    H130218   5.549   5.785   8.264 -0.2603  0.2301 -0.9188
 2861TIP3    H230219   5.428   5.843   8.334 -0.6041 -0.6685 -0.7640
 2862TIP3   OH230220   5.744   2.192   8.537 -0.1488 -0.0792  0.6975
 2862TIP3    H130221   5.772   2.183   8.446 -0.7937  0.4852  0.4392
 2862TIP3    H230222   5.811   2.248   8.577  0.4912 -0.8582  0.7499
 2863TIP3   OH230223   2.456   4.664   1.835  0.0825  0.6063  0.3414
 2863TIP3    H130224   2.539   4.704   1.809  0.3635 -0.4420 -0.4804
 2863TIP3    H230225   2.393   4.693   1.769  0.4598 -0.8531 -0.7200
 2864TIP3   OH230226   6.865   0.859   0.570  0.5573 -1.0671  0.1576
 2864TIP3    H130227   6.827   0.878   0.655  0.6526 -0.5079  0.0750
 2864TIP3    H230228   6.792   0.868   0.509  0.6335 -0.8227  0.1018
 2865TIP3   OH230229   6.439   0.168   7.214  0.3185  0.4319  0.2208
 2865TIP3    H130230   6.354   0.205   7.189 -0.2888 -0.8177  0.3436
 2865TIP3    H230231   6.444   0.183   7.308  0.3525  0.7429  0.1699
 2866TIP3   OH230232   3.070   4.276   0.178 -0.2251 -0.2269  0.1451
 2866TIP3    H130233   3.119   4.217   0.120 -0.7300  0.1495 -0.6913
 2866TIP3    H230234   2.987   4.232   0.192 -0.4533  0.0943 -0.1651
 2867TIP3   OH230235   3.826   4.034   2.492 -0.4108  0.0224 -0.2290
 2867TIP3    H130236   3.797   3.964   2.550  0.9433 -0.0849  0.3725
 2867TIP3    H230237   3.815   4.114   2.544 -1.0664  0.1592 -0.5682
 2868TIP3   OH230238   6.619   5.808   7.531  0.1276  0.7073  0.0398
 2868TIP3    H130239   6.543   5.777   7.581 -0.3251  0.9942 -0.4536
 2868TIP3    H230240   6.683   5.737   7.537  0.9305  1.5471  2.7690
 2869TIP3   OH230241   3.995   3.031   0.173  0.6922 -0.2112  0.5939
 2869TIP3    H130242   3.917   3.070   0.213  0.6903 -0.0140  0.3935
 2869TIP3    H230243   3.990   2.938   0.199 -1.0283 -0.8210 -1.5791
 2870TIP3   OH230244   2.261   5.993   8.118  1.1280 -0.6373  0.2539
 2870TIP3    H130245   2.230   5.908   8.151  1.6541  0.2500  3.3058
 2870TIP3    H230246   2.356   5.981   8.108  1.0932 -0.6315 -0.0895
 2871TIP3   OH230247   3.566   1.897   0.863  0.1980  0.2883 -0.0449
 2871TIP3    H130248   3.595   1.862   0.779 -0.9334  1.1122 -0.8199
 2871TIP3    H230249   3.643   1.895   0.919  1.2819  0.8342 -1.4799
 2872TIP3   OH230250   6.870   2.577   0.171 -0.0217  0.1738  0.6292
 2872TIP3    H130251   6.891   2.490   0.137  1.6116  0.7460  0.0506
 2872TIP3    H230252   6.869   2.633   0.094 -2.0241  0.5453  0.8725
 2873TIP3   OH230253   6.516   4.861   7.517 -0.6783 -0.0631 -0.0365
 2873TIP3    H130254   6.549   4.771   7.521 -1.0829 -0.3746 -2.3328
 2873TIP3    H230255   6.425   4.854   7.548  0.0633  0.0772  2.3386
 2874TIP3   OH230256   1.910   5.502   1.593  0.5239  0.0400 -0.1796
 2874TIP3    H130257   1.850   5.521   1.666 -0.7565 -0.4977 -1.0542
 2874TIP3    H230258   1.856   5.513   1.515  1.4785 -0.8228 -0.9808
 2875TIP3   OH230259   2.848   5.941   1.157  0.3063 -0.2128  0.1202
 2875TIP3    H130260   2.897   5.935   1.075 -0.6977  0.3032 -0.5293
 2875TIP3    H230261   2.763   5.978   1.132 -0.1466 -0.3946  1.3376
 2876TIP3   OH230262   1.768   2.219   0.452 -0.0049 -0.5306  0.2003
 2876TIP3    H130263   1.733   2.245   0.366 -1.7991 -0.0089  1.0300
 2876TIP3    H230264   1.824   2.292   0.478 -0.9225  0.1711  0.2590
 2877TIP3   OH230265   5.556   4.630   0.677 -0.3345 -0.5126 -0.0045
 2877TIP3    H130266   5.538   4.539   0.655  1.2299 -0.8607  0.0307
 2877TIP3    H230267   5.554   4.633   0.772 -1.7546 -0.1936 -0.0330
 2878TIP3   OH230268   3.837   0.427   7.951 -0.1186  0.8118 -0.3500
 2878TIP3    H130269   3.859   0.472   8.032 -0.4078  0.0396  0.1699
 2878TIP3    H230270   3.824   0.497   7.887  1.0379  1.3904  0.0280
 2879TIP3   OH230271   0.820   4.339   0.780  0.4687  0.5549  0.1130
 2879TIP3    H130272   0.737   4.386   0.786  1.2118  1.8745  0.4436
 2879TIP3    H230273   0.812   4.285   0.701 -1.0345 -0.0551  0.6385
 2880TIP3   OH230274   2.644   3.152   0.926 -0.1039  0.3647 -0.3350
 2880TIP3    H130275   2.698   3.228   0.906  2.0459 -0.7497  0.9136
 2880TIP3    H230276   2.573   3.187   0.980  0.4202  1.5882 -0.4019
 2881TIP3   OH230277   4.048   1.590   7.409  0.1429 -0.3423 -0.2795
 2881TIP3    H130278   3.990   1.598   7.484  2.2304  0.2702  1.3572
 2881TIP3    H230279   4.076   1.680   7.391  0.1256 -0.5541 -1.4270
 2882TIP3   OH230280   2.626   2.667   1.029 -0.0234 -0.4549 -0.3813
 2882TIP3    H130281   2.547   2.668   0.975 -0.8586 -2.0521  0.7253
 2882TIP3    H230282   2.621   2.746   1.081 -0.6573 -0.3133 -0.6500
 2883TIP3   OH230283   2.769   2.837   0.291  0.1633 -0.0714  0.3519
 2883TIP3    H130284   2.718   2.852   0.370  0.9633  1.1315  0.6636
 2883TIP3    H230285   2.855   2.873   0.310  0.2636  0.5919 -1.1824
 2884TIP3   OH230286   5.487   3.414   0.501  0.2130 -0.2995 -0.5813
 2884TIP3    H130287   5.430   3.418   0.423  0.2544  1.3167 -0.5584
 2884TIP3    H230288   5.539   3.334   0.488  1.3595  0.7435 -3.0320
 2885TIP3   OH230289   3.145   1.340   0.111  0.4912  0.0100  0.4080
 2885TIP3    H130290   3.203   1.267   0.133 -0.9795 -1.8571 -1.4787
 2885TIP3    H230291   3.065   1.298   0.078 -2.4315  2.4299  3.7432
 2886TIP3   OH230292   4.500   4.677   0.448  0.0565 -0.1673 -0.2752
 2886TIP3    H130293   4.522   4.598   0.497  1.4999 -0.2107 -0.9536
 2886TIP3    H230294   4.435   4.722   0.502  1.2796 -0.4228  1.4597
 2887TIP3   OH230295   3.717   0.359   1.350  0.5689 -0.1029  0.4315
 2887TIP3    H130296   3.739   0.435   1.403  1.1632  0.3504 -0.4481
 2887TIP3    H230297   3.743   0.382   1.261 -2.5915  0.1033 -0.5755
 2888TIP3   OH230298   2.497   2.444   1.534 -0.1457  0.5705 -0.3266
 2888TIP3    H130299   2.438   2.518   1.522  0.6995  1.2011 -0.7108
 2888TIP3    H230300   2.465   2.400   1.612  0.4835  2.4931  1.1087
 2889TIP3   OH230301   4.066   6.424   6.835  0.3695 -0.2253 -0.0734
 2889TIP3    H130302   4.110   6.509   6.839  0.7133 -0.3845 -0.3935
 2889TIP3    H230303   3.975   6.445   6.818 -0.0123  0.1847  2.1703
 2890TIP3   OH230304   5.926   2.993   7.713 -0.5949  0.1459 -0.0989
 2890TIP3    H130305   5.886   2.949   7.788 -2.2712  0.7836 -0.5737
 2890TIP3    H230306   6.006   3.031   7.748 -1.5774  0.8465  1.5306
 2891TIP3   OH230307   0.261   4.937   2.847  0.4093  0.2684 -0.5602
 2891TIP3    H130308   0.353   4.948   2.824  0.2302  1.3378 -0.8196
 2891TIP3    H230309   0.259   4.861   2.905  1.2951 -0.4703 -1.4823
 2892TIP3   OH230310   1.165   4.856   1.491  0.3438  0.4566  0.3805
 2892TIP3    H130311   1.085   4.836   1.441 -0.9088  2.2325  1.5425
 2892TIP3    H230312   1.137   4.849   1.583  1.0144  2.7580  0.8192
 2893TIP3   OH230313   3.221   1.486   7.524 -0.1342  0.1753 -0.6025
 2893TIP3    H130314   3.281   1.491   7.449 -0.5170  0.9685 -0.8652
 2893TIP3    H230315   3.146   1.437   7.491  0.8671 -1.9401  0.0919
 2894TIP3   OH230316   0.696   2.302   1.714 -0.6658  0.0003 -0.0327
 2894TIP3    H130317   0.774   2.344   1.750 -0.5652  0.0322 -0.2827
 2894TIP3    H230318   0.676   2.231   1.775 -0.8559  0.4338  0.4110
 2895TIP3   OH230319   5.867   2.508   0.651  0.3707  0.4658 -0.4790
 2895TIP3    H130320   5.908   2.540   0.571  0.8988 -2.6564 -1.5744
 2895TIP3    H230321   5.936   2.514   0.717  1.0483 -0.1546 -1.1159
 2896TIP3   OH230322   2.439   0.157   7.546  0.3001 -0.2196 -0.5600
 2896TIP3    H130323   2.344   0.158   7.563  0.4829 -0.5415  0.5963
 2896TIP3    H230324   2.469   0.076   7.587  1.3808  0.9032  0.9465
 2897TIP3   OH230325   6.081   2.985   7.223  0.5408 -0.7057  0.2025
 2897TIP3    H130326   6.074   2.964   7.130 -0.6476  0.3078  0.0331
 2897TIP3    H230327   6.022   2.923   7.266 -1.8220  1.1368 -0.1493
 2898TIP3   OH230328   0.524   1.177   0.777  0.2515  0.3600  0.4918
 2898TIP3    H130329   0.493   1.096   0.818  1.2337 -0.0050  0.5250
 2898TIP3    H230330   0.444   1.229   0.765 -0.5583 -1.0051 -0.4455
 2899TIP3   OH230331   0.856   0.746   7.451  0.1203  0.1314  0.0277
 2899TIP3    H130332   0.800   0.778   7.522  1.2469  0.9031  0.6063
 2899TIP3    H230333   0.826   0.657   7.435 -0.8608  0.3172  0.7379
 2900TIP3   OH230334   0.853   4.450   1.244  0.2177 -0.3109 -0.4971
 2900TIP3    H130335   0.810   4.527   1.207  0.9112  0.9653  1.2025
 2900TIP3    H230336   0.851   4.385   1.174 -1.5205  0.8118 -1.5588
 2901TIP3   OH230337   6.420   6.399   7.781 -0.4283  0.6889 -0.0246
 2901TIP3    H130338   6.513   6.421   7.785 -0.2469 -0.0348 -0.1769
 2901TIP3    H230339   6.380   6.472   7.734  0.1012  0.8766 -0.1895
 2902TIP3   OH230340   4.653   2.752   7.983  0.5335  0.4745  0.1761
 2902TIP3    H130341   4.605   2.831   7.959  0.6044  0.1548 -1.0842
 2902TIP3    H230342   4.620   2.684   7.924  0.8929 -0.2939  0.8418
 2903TIP3   OH230343   2.236   0.425   8.026  0.2526 -0.1482 -0.4886
 2903TIP3    H130344   2.246   0.358   8.094  0.9679 -0.3575 -0.7851
 2903TIP3    H230345   2.322   0.467   8.022 -0.2851  1.0355 -0.0597
 2904TIP3   OH230346   1.455   3.622   0.075  0.8605 -0.1775 -0.7116
 2904TIP3    H130347   1.438   3.688   0.008  2.0734  0.5063 -0.3796
 2904TIP3    H230348   1.519   3.663   0.133  1.0608 -1.3677 -0.0613
 2905TIP3   OH230349   2.373   4.305   0.870  0.2341 -1.2959  0.0084
 2905TIP3    H130350   2.417   4.258   0.941  1.0043 -1.1820 -0.3851
 2905TIP3    H230351   2.384   4.249   0.794  1.3672 -0.3965 -0.5223
 2906TIP3   OH230352   6.308   2.585   0.753 -0.1520  0.2027 -0.3633
 2906TIP3    H130353   6.361   2.505   0.756  0.6726  0.7530  1.7523
 2906TIP3    H230354   6.367   2.654   0.782 -0.9603  1.5456 -1.8175
 2907TIP3   OH230355   5.758   4.032   8.356  0.0588 -0.4286  0.0246
 2907TIP3    H130356   5.851   4.054   8.359 -0.1808  0.4939  1.2091
 2907TIP3    H230357   5.756   3.937   8.366  0.7941 -0.2591  2.6202
 2908TIP3   OH230358   1.857   6.606   6.993 -0.4602  0.0043 -0.3033
 2908TIP3    H130359   1.773   6.607   7.039  0.2219  0.3165  0.9855
 2908TIP3    H230360   1.882   6.513   6.992  0.5480  0.1754  1.9966
 2909TIP3   OH230361   2.309   4.909   1.235  0.5814 -0.3613 -0.3955
 2909TIP3    H130362   2.365   4.937   1.163  2.9281 -0.6090  1.2022
 2909TIP3    H230363   2.297   4.815   1.222 -0.2825 -0.1413 -1.2528
 2910TIP3   OH230364   6.290   3.263   1.817 -0.0165  0.5483 -0.0518
 2910TIP3    H130365   6.385   3.265   1.831  0.0037  2.8962 -0.2223
 2910TIP3    H230366   6.279   3.222   1.732  0.7246 -0.9087  0.5058
 2911TIP3   OH230367   5.572   1.096   8.399  0.3756 -0.4821 -0.2232
 2911TIP3    H130368   5.610   1.014   8.369 -0.1047 -0.3849 -1.1317
 2911TIP3    H230369   5.527   1.074   8.480  0.7132 -0.9976 -0.1724
 2912TIP3   OH230370   0.432   2.596   7.313  0.4120  0.2040  0.1126
 2912TIP3    H130371   0.361   2.603   7.376  0.1604 -1.5131  0.0790
 2912TIP3    H230372   0.423   2.508   7.276  0.5410  1.1297 -2.3305
 2913TIP3   OH230373   1.621   1.317   0.914 -0.7447 -0.1143 -0.5437
 2913TIP3    H130374   1.580   1.295   0.998 -1.6358 -0.3434 -1.0306
 2913TIP3    H230375   1.692   1.253   0.905  1.0631  1.4944  1.2326
 2914TIP3   OH230376   5.593   1.277   7.505 -0.2699  0.5210  0.6699
 2914TIP3    H130377   5.524   1.278   7.438 -0.0956 -1.2350  0.3971
 2914TIP3    H230378   5.604   1.368   7.530 -0.4774  1.2345 -1.5761
 2915TIP3   OH230379   1.406   0.502   0.826  0.1039 -0.6723  0.0696
 2915TIP3    H130380   1.443   0.430   0.775  0.4154  0.4022 -1.2733
 2915TIP3    H230381   1.358   0.555   0.762 -0.2331  0.2480  1.0489
 2916TIP3   OH230382   3.795   1.849   1.319  0.0855 -0.5886  0.1011
 2916TIP3    H130383   3.736   1.793   1.370 -1.7056 -0.1208 -1.3590
 2916TIP3    H230384   3.853   1.889   1.385 -0.9625 -1.3688  1.5582
 2917TIP3   OH230385   4.790   4.372   8.092 -1.1554 -0.3536  0.4856
 2917TIP3    H130386   4.710   4.423   8.105 -0.7207  1.4215 -2.6146
 2917TIP3    H230387   4.763   4.299   8.036 -1.0287 -1.2584  1.5734
 2918TIP3   OH230388   5.046   2.632   2.477  0.8716 -0.2824 -0.4085
 2918TIP3    H130389   5.111   2.700   2.491  0.8455 -0.2988 -0.2103
 2918TIP3    H230390   5.066   2.597   2.390  2.2663 -1.5350  0.3709
 2919TIP3   OH230391   5.276   6.504   2.081 -0.2082  0.0303  0.2812
 2919TIP3    H130392   5.297   6.463   1.997 -0.9288  0.2978 -0.0385
 2919TIP3    H230393   5.200   6.455   2.114 -0.2046  0.2132  0.5682
 2920TIP3   OH230394   4.295   3.834   7.788 -0.0126 -0.1890  0.1110
 2920TIP3    H130395   4.223   3.772   7.775 -0.3126  0.5395 -2.2591
 2920TIP3    H230396   4.328   3.815   7.876 -1.5042 -2.1967  0.3111
 2921TIP3   OH230397   0.436   1.943   7.621  0.0895  0.4815  0.2759
 2921TIP3    H130398   0.478   1.948   7.535  0.9999  0.9912  0.7272
 2921TIP3    H230399   0.435   2.033   7.652  1.8372  0.0706  1.7194
 2922TIP3   OH230400   1.626   0.774   8.530  0.3016 -0.9902  0.5563
 2922TIP3    H130401   1.623   0.862   8.567  1.5776 -0.9303  0.5505
 2922TIP3    H230402   1.701   0.775   8.470  0.7302 -2.2522  1.0238
 2923TIP3   OH230403   5.057   3.287   8.101  0.3819 -0.3171  0.4346
 2923TIP3    H130404   5.151   3.297   8.115  0.3933 -0.5222  0.5155
 2923TIP3    H230405   5.029   3.226   8.169  0.1245  0.0197  0.6360
 2924TIP3   OH230406   2.230   6.274   7.420 -0.0469  0.0647  0.6122
 2924TIP3    H130407   2.142   6.295   7.452 -0.5277 -1.5601  0.4850
 2924TIP3    H230408   2.235   6.315   7.333 -1.1232 -0.7130  0.1532
 2925TIP3   OH230409   4.837   2.984   8.058 -0.1581  0.1168 -0.0610
 2925TIP3    H130410   4.824   2.988   8.153  1.6288 -0.1904  0.2325
 2925TIP3    H230411   4.762   2.934   8.026  0.7836 -2.6228  1.6040
 2926TIP3   OH230412   6.232   1.953   7.662  0.1894 -0.1562  0.0615
 2926TIP3    H130413   6.224   1.862   7.690 -0.6536 -0.6628 -1.7344
 2926TIP3    H230414   6.277   1.949   7.578 -1.4879  0.8743 -0.9565
 2927TIP3   OH230415   3.713   1.613   1.456 -0.7740  0.3271 -0.0578
 2927TIP3    H130416   3.696   1.520   1.444  1.1214 -0.3155  1.5534
 2927TIP3    H230417   3.655   1.639   1.528  1.0017 -0.5520  1.8335
 2928TIP3   OH230418   5.016   6.062   7.332 -0.0042 -0.0232  0.5899
 2928TIP3    H130419   5.050   6.124   7.267  0.0109 -1.5535 -0.9335
 2928TIP3    H230420   4.942   6.107   7.372 -0.3714  0.7696 -0.9014
 2929TIP3   OH230421   1.928   0.038   8.598 -0.3400 -0.0070 -0.3120
 2929TIP3    H130422   1.841   0.057   8.634  0.7694  2.4270  1.4344
 2929TIP3    H230423   1.963   0.124   8.575  2.1131 -0.7312  0.3777
 2930TIP3   OH230424   5.760   1.773   2.153 -0.2177 -0.5115  0.2316
 2930TIP3    H130425   5.744   1.835   2.224  1.4060 -1.0450  1.1073
 2930TIP3    H230426   5.854   1.776   2.139  0.2065 -3.8809  1.4010
 2931TIP3   OH230427   2.324   3.308   1.995 -0.0521 -0.0225 -0.2765
 2931TIP3    H130428   2.415   3.280   2.005  0.2125  1.0411  0.3636
 2931TIP3    H230429   2.279   3.230   1.960  1.2659 -0.2874 -1.4788
 2932TIP3   OH230430   0.506   5.147   7.147 -0.1905  0.3936 -0.0695
 2932TIP3    H130431   0.461   5.149   7.231  1.4820  0.7237  0.8524
 2932TIP3    H230432   0.507   5.238   7.117 -0.0091  0.4086 -0.0187
 2933TIP3   OH230433   5.011   4.267   0.209  0.1485 -0.3008 -0.0689
 2933TIP3    H130434   5.022   4.273   0.304  0.3482 -1.3439 -0.0159
 2933TIP3    H230435   4.958   4.343   0.186 -0.5464 -0.4552  0.9788
 2934TIP3   OH230436   0.523   4.368   7.215 -0.0093  0.1741 -0.5344
 2934TIP3    H130437   0.584   4.295   7.231 -0.7843 -0.4146 -0.2181
 2934TIP3    H230438   0.495   4.395   7.302 -1.6018 -0.7745 -0.7177
 2935TIP3   OH230439   4.414   0.958   2.003 -0.0618 -0.4744  0.8233
 2935TIP3    H130440   4.500   0.961   1.959 -0.0867 -0.6572  0.7627
 2935TIP3    H230441   4.357   0.912   1.941 -0.0577 -0.8758  1.1189
 2936TIP3   OH230442   0.592   0.803   0.968  0.4520  0.1792 -0.2501
 2936TIP3    H130443   0.559   0.774   0.883  0.9066 -0.2158 -0.3001
 2936TIP3    H230444   0.667   0.745   0.985 -0.8812 -1.1554  1.3940
 2937TIP3   OH230445   2.098   2.599   1.792 -0.3842  0.1183  0.2157
 2937TIP3    H130446   2.158   2.539   1.836  2.0903  1.8534 -0.5544
 2937TIP3    H230447   2.082   2.559   1.707  0.1989 -0.0629  0.1897
 2938TIP3   OH230448   4.065   0.924   0.201  0.2809 -0.2141  0.5417
 2938TIP3    H130449   4.110   0.987   0.257  0.9574  2.0051 -2.2325
 2938TIP3    H230450   4.090   0.950   0.112 -4.1220 -0.7170 -1.0617
 2939TIP3   OH230451   0.278   1.182   7.976 -0.8996 -0.1593  0.2043
 2939TIP3    H130452   0.327   1.237   8.038 -2.6004  1.0650  0.5315
 2939TIP3    H230453   0.218   1.242   7.933  0.6537 -0.8294 -3.2163
 2940TIP3   OH230454   5.219   3.717   8.331 -0.5627 -0.2768  0.5590
 2940TIP3    H130455   5.277   3.789   8.308  1.0185 -0.4636  3.4363
 2940TIP3    H230456   5.131   3.754   8.328  0.0650  1.2622  0.2287
 2941TIP3   OH230457   2.240   5.867   0.216  0.4168  0.4701  0.2987
 2941TIP3    H130458   2.259   5.846   0.124 -0.0461 -1.1230  0.5356
 2941TIP3    H230459   2.320   5.841   0.263 -0.4626 -1.7822  0.7021
 2942TIP3   OH230460   5.789   2.199   2.087 -0.1480  0.5475 -0.0584
 2942TIP3    H130461   5.820   2.127   2.142 -0.1604  0.0798 -0.6538
 2942TIP3    H230462   5.846   2.273   2.110  0.4101  0.1181 -0.0393
 2943TIP3   OH230463   2.257   3.316   8.563 -0.5164  0.2946  0.2190
 2943TIP3    H130464   2.266   3.355   8.649 -0.0328  0.3932  0.1309
 2943TIP3    H230465   2.307   3.235   8.568  0.4281  0.8250 -0.2790
 2944TIP3   OH230466   3.414   4.123   0.082  0.7480  0.3901  0.5097
 2944TIP3    H130467   3.401   4.065   0.157  0.3503  0.7277  0.6971
 2944TIP3    H230468   3.348   4.095   0.019 -0.0488  1.2501  0.9598
 2945TIP3   OH230469   5.853   5.429   1.023  0.5767 -0.2134  0.2749
 2945TIP3    H130470   5.841   5.488   0.949  2.1311 -0.6682 -0.3826
 2945TIP3    H230471   5.883   5.347   0.984  2.8554 -0.0147  1.4632
 2946TIP3   OH230472   5.936   2.309   1.847 -0.6312 -0.4801  0.1167
 2946TIP3    H130473   6.011   2.260   1.879 -1.3338 -1.2403  0.6581
 2946TIP3    H230474   5.865   2.285   1.907 -1.1637  0.6594 -0.0404
 2947TIP3   OH230475   3.799   3.046   1.739 -0.0339  0.3639 -0.1666
 2947TIP3    H130476   3.884   3.091   1.741  0.3004 -0.2124 -0.8036
 2947TIP3    H230477   3.741   3.108   1.694  0.6161 -0.1249 -1.7484
 2948TIP3   OH230478   3.926   5.957   2.311 -1.3219 -0.9640 -0.0311
 2948TIP3    H130479   3.949   5.959   2.218  1.6954  1.5616  0.5913
 2948TIP3    H230480   3.909   6.049   2.333  1.6150 -0.8751  2.5587
 2949TIP3   OH230481   1.545   3.806   0.730  0.0493 -0.4380 -0.0386
 2949TIP3    H130482   1.507   3.730   0.775  0.5617 -0.8285 -0.2670
 2949TIP3    H230483   1.469   3.858   0.704 -0.3344 -1.1824 -0.4288
 2950TIP3   OH230484   4.700   6.344   0.698 -0.6309  0.1840  0.1969
 2950TIP3    H130485   4.647   6.423   0.694  0.2275  0.7917  0.5843
 2950TIP3    H230486   4.766   6.355   0.630 -0.9783 -0.5675 -0.2814
 2951TIP3   OH230487   0.781   1.857   2.170 -0.1015  0.1519  0.4989
 2951TIP3    H130488   0.749   1.794   2.234 -0.6289 -0.0288  0.0686
 2951TIP3    H230489   0.704   1.882   2.120  0.2364  0.5690  0.1743
 2952TIP3   OH230490   3.784   5.492   0.684  0.6564 -0.5147 -0.8671
 2952TIP3    H130491   3.717   5.490   0.617  1.3960 -0.0876 -1.6433
 2952TIP3    H230492   3.805   5.585   0.694  0.0133 -0.5006  0.5210
 2953TIP3   OH230493   4.615   4.885   8.234  0.0300  0.0602 -0.0588
 2953TIP3    H130494   4.702   4.872   8.273  0.1273 -2.6375 -0.9529
 2953TIP3    H230495   4.554   4.855   8.302  0.1063 -2.5848 -1.0298
 2954TIP3   OH230496   4.803   1.644   8.231 -0.3700  0.0524  0.2312
 2954TIP3    H130497   4.741   1.573   8.216 -1.1346  0.2972  1.9460
 2954TIP3    H230498   4.870   1.633   8.163 -0.9522 -1.7348 -0.1009
 2955TIP3   OH230499   4.746   0.503   2.003 -0.4349 -0.0050 -0.6723
 2955TIP3    H130500   4.753   0.554   1.922  0.6546 -0.1156 -0.6545
 2955TIP3    H230501   4.806   0.430   1.990 -1.7966 -1.1937 -0.6057
 2956TIP3   OH230502   4.567   4.689   1.486 -0.3117  0.0777  0.1189
 2956TIP3    H130503   4.567   4.601   1.524  1.7944  0.5161  1.2908
 2956TIP3    H230504   4.548   4.747   1.560  0.7497  0.7522 -0.1220
 2957TIP3   OH230505   5.597   4.766   7.637  0.5069 -0.5333  0.2629
 2957TIP3    H130506   5.579   4.797   7.548  0.7203 -0.5038  0.2303
 2957TIP3    H230507   5.515   4.779   7.684 -0.9140 -4.0054 -0.9002
 2958TIP3   OH230508   5.567   3.154   8.155 -0.3620 -0.0828  0.8480
 2958TIP3    H130509   5.609   3.155   8.069 -0.6318 -1.3587  0.6669
 2958TIP3    H230510   5.516   3.072   8.155 -1.6359  0.6684  1.6181
 2959TIP3   OH230511   6.839   5.353   0.601  0.1865  0.3786  0.1337
 2959TIP3    H130512   6.798   5.430   0.561 -1.1037  0.4625  1.5608
 2959TIP3    H230513   6.891   5.389   0.673 -0.2452 -0.0521  0.6678
 2960TIP3   OH230514   3.182   3.148   6.635 -0.2198 -0.1212 -0.1512
 2960TIP3    H130515   3.141   3.235   6.631 -2.6364 -1.1095  1.1783
 2960TIP3    H230516   3.260   3.156   6.580 -0.7064  2.6928 -0.5902
 2961TIP3   OH230517   5.106   1.932   1.045 -0.3373  0.0746  0.2418
 2961TIP3    H130518   5.093   2.001   0.979 -1.0728 -0.6347 -0.3715
 2961TIP3    H230519   5.027   1.935   1.099 -0.1934 -0.0354  0.4615
 2962TIP3   OH230520   1.060   0.498   7.628 -0.1777  0.3251 -0.3339
 2962TIP3    H130521   1.099   0.514   7.541  1.5706  0.3375  0.4106
 2962TIP3    H230522   0.969   0.475   7.609  0.2137  0.1165 -2.1917
 2963TIP3   OH230523   6.072   0.717   0.565 -0.6129 -0.2747 -0.1097
 2963TIP3    H130524   6.086   0.630   0.527  0.7562 -0.1944  0.1924
 2963TIP3    H230525   6.011   0.702   0.637  1.1086 -1.3170  1.1789
 2964TIP3   OH230526   1.820   1.375   8.061 -0.1038 -0.1511  0.0764
 2964TIP3    H130527   1.868   1.437   8.005 -0.9959  2.3503  1.8871
 2964TIP3    H230528   1.886   1.343   8.123  0.1231 -0.1180 -0.1430
 2965TIP3   OH230529   0.259   2.779   8.532 -0.0367  0.0722 -0.0623
 2965TIP3    H130530   0.278   2.742   8.446 -0.3610  0.7324 -0.4293
 2965TIP3    H230531   0.323   2.739   8.590  0.2342 -0.3305 -0.6261
 2966TIP3   OH230532   5.127   5.252   8.153 -0.0768 -0.3523 -0.1696
 2966TIP3    H130533   5.205   5.239   8.098 -1.4648 -0.5657 -2.1921
 2966TIP3    H230534   5.115   5.347   8.154  0.1252 -0.3283  0.0233
 2967TIP3   OH230535   1.004   5.101   2.109 -0.2184 -0.1771 -0.7245
 2967TIP3    H130536   0.995   5.180   2.057  2.7900 -0.2078 -1.4854
 2967TIP3    H230537   1.024   5.133   2.197 -0.3961 -0.0966 -0.7131
 2968TIP3   OH230538   2.754   1.836   7.947  0.2313 -0.3647  0.5310
 2968TIP3    H130539   2.715   1.811   7.864 -2.0813 -0.6075  1.5882
 2968TIP3    H230540   2.743   1.931   7.951  0.7812 -0.2931  0.3548
 2969TIP3   OH230541   6.854   3.325   0.706  0.1897  0.2579  0.5257
 2969TIP3    H130542   6.927   3.375   0.668  1.6930 -0.9465  1.6929
 2969TIP3    H230543   6.781   3.341   0.647  1.5079  1.1577 -0.9520
 2970TIP3   OH230544   3.601   4.924   1.420 -0.8163  0.1429 -0.3459
 2970TIP3    H130545   3.672   4.981   1.449 -0.9792  0.1288  0.0869
 2970TIP3    H230546   3.645   4.854   1.371 -0.4626 -0.2348  0.4980
 2971TIP3   OH230547   2.905   1.229   8.172  0.1116  0.0269 -0.1594
 2971TIP3    H130548   2.844   1.208   8.101 -0.2123  0.7968 -0.1302
 2971TIP3    H230549   2.863   1.303   8.218  0.3336 -0.4303  0.8082
 2972TIP3   OH230550   3.582   6.141   1.569  0.4328  0.5106  0.4167
 2972TIP3    H130551   3.615   6.229   1.589  0.2426  0.8611 -0.7188
 2972TIP3    H230552   3.495   6.138   1.608 -0.2144  1.4281 -0.8875
 2973TIP3   OH230553   6.119   4.167   8.589 -0.1942 -0.6847 -0.3513
 2973TIP3    H130554   6.169   4.091   8.619  0.9063  0.0625 -0.2324
 2973TIP3    H230555   6.050   4.177   8.654  0.8279 -0.4225  0.7361
 2974TIP3   OH230556   0.705   4.417   8.541  0.0633  0.1331  0.5831
 2974TIP3    H130557   0.691   4.507   8.571 -0.2937 -0.1218  1.2007
 2974TIP3    H230558   0.777   4.424   8.478 -1.4098  1.1567 -1.0551
 2975TIP3   OH230559   0.102   0.700   0.413 -0.2855 -0.2539  0.0695
 2975TIP3    H130560   0.168   0.666   0.473  0.3639 -1.1153 -1.0908
 2975TIP3    H230561   0.044   0.753   0.468 -0.4856 -2.0431  1.6867
 2976TIP3   OH230562   3.749   0.472   8.415 -0.5915 -0.5080 -0.5414
 2976TIP3    H130563   3.839   0.452   8.443 -0.4698 -0.7060 -1.0788
 2976TIP3    H230564   3.703   0.492   8.497  0.6302  2.4065 -0.4156
 2977TIP3   OH230565   4.974   1.607   1.129 -0.0598  0.0970 -0.0492
 2977TIP3    H130566   4.932   1.662   1.063  1.5623 -0.6255 -1.7847
 2977TIP3    H230567   4.980   1.662   1.207 -1.8676  1.0417 -0.5293
 2978TIP3   OH230568   2.054   5.611   8.584  0.0412  0.1157  0.0830
 2978TIP3    H130569   2.096   5.585   8.502  0.5867  0.1978  0.3333
 2978TIP3    H230570   2.106   5.568   8.653  0.1091  0.7313  0.4246
 2979TIP3   OH230571   5.002   6.615   0.956  0.0353  0.1286  0.2916
 2979TIP3    H130572   4.976   6.707   0.951  1.4016  0.6113  1.3479
 2979TIP3    H230573   5.054   6.601   0.876 -1.2663 -0.1294 -0.5372
 2980TIP3   OH230574   3.024   4.897   8.521  0.4433 -0.0013  0.5378
 2980TIP3    H130575   3.092   4.951   8.562  0.9155 -1.1353  1.3018
 2980TIP3    H230576   3.067   4.813   8.504 -0.3828 -0.2786 -0.2597
 2981TIP3   OH230577   5.065   4.619   8.270  0.1908  0.3040 -0.2061
 2981TIP3    H130578   4.972   4.596   8.276 -0.6859  2.9648 -1.6597
 2981TIP3    H230579   5.110   4.536   8.256 -1.8588 -1.1429  1.2899
 2982TIP3   OH230580   0.336   0.741   7.800 -0.0212  0.3047  0.4603
 2982TIP3    H130581   0.410   0.681   7.798  0.3387  0.7533 -1.6147
 2982TIP3    H230582   0.259   0.685   7.805  0.3521 -0.3176 -0.4941
 2983TIP3   OH230583   2.775   4.604   0.847 -0.2937  0.0352  0.1545
 2983TIP3    H130584   2.762   4.644   0.933 -2.3439  1.7625 -0.8589
 2983TIP3    H230585   2.854   4.646   0.812  0.4314 -0.5253  1.0786
 2984TIP3   OH230586   0.146   2.086   6.871 -0.1697  0.3073  0.1902
 2984TIP3    H130587   0.144   2.180   6.889 -0.2500  0.6705 -1.5276
 2984TIP3    H230588   0.055   2.058   6.879 -0.0908  0.2722  1.0953
 2985TIP3   OH230589   3.216   5.259   7.046 -0.8185 -0.0243 -0.1916
 2985TIP3    H130590   3.148   5.197   7.020 -1.6949 -0.0221  1.9209
 2985TIP3    H230591   3.224   5.248   7.140  0.6743  1.4349 -0.1035
 2986TIP3   OH230592   6.543   2.686   1.713 -0.1493 -0.0687  0.0088
 2986TIP3    H130593   6.594   2.652   1.787 -1.6633  0.9326  1.5766
 2986TIP3    H230594   6.609   2.705   1.645  1.3790 -0.2331  1.3868
 2987TIP3   OH230595   0.391   5.434   1.886 -0.2895  0.2092 -0.1996
 2987TIP3    H130596   0.406   5.517   1.930 -1.0145  0.7996 -1.0113
 2987TIP3    H230597   0.389   5.369   1.956  0.9117  0.7779  0.3852
 2988TIP3   OH230598   0.596   3.835   1.227 -0.0142 -0.5166  0.2995
 2988TIP3    H130599   0.601   3.930   1.240  0.4640 -0.8614  3.0064
 2988TIP3    H230600   0.507   3.821   1.193  1.1560  1.1798 -4.3507
 2989TIP3   OH230601   6.035   5.426   2.137  0.8111 -0.7247 -0.7937
 2989TIP3    H130602   6.032   5.430   2.042  0.4843  1.3355 -0.7435
 2989TIP3    H230603   5.969   5.362   2.160  0.5555 -0.8949 -1.9386
 2990TIP3   OH230604   1.494   3.060   1.816  0.5357  0.0337  0.3626
 2990TIP3    H130605   1.410   3.104   1.830  0.4205  0.2265 -0.8240
 2990TIP3    H230606   1.550   3.091   1.887 -0.0734  0.7576  0.5301
 2991TIP3   OH230607   5.563   5.036   7.528  0.4763  0.4883  0.8201
 2991TIP3    H130608   5.568   5.056   7.434  2.2862  1.6857  1.1252
 2991TIP3    H230609   5.473   5.008   7.541  0.3472 -0.3837 -1.4047
 2992TIP3   OH230610   6.429   3.154   2.448  0.3808  0.1311 -0.1071
 2992TIP3    H130611   6.381   3.073   2.466  0.6282  0.2288  1.0837
 2992TIP3    H230612   6.499   3.155   2.514 -0.0697  1.6744  0.3856
 2993TIP3   OH230613   3.620   6.778   8.224  0.3546  0.3963 -0.2921
 2993TIP3    H130614   3.532   6.806   8.199  0.0870  0.0813  0.2825
 2993TIP3    H230615   3.635   6.699   8.172  0.3565  0.5233 -0.4889
 2994TIP3   OH230616   2.621   4.190   0.592  0.0265 -0.3460 -0.0828
 2994TIP3    H130617   2.626   4.159   0.682  2.2744  0.5856  0.1713
 2994TIP3    H230618   2.617   4.111   0.539 -0.7685 -0.9093  0.8070
 2995TIP3   OH230619   1.035   2.270   0.415  0.7742 -0.5277  0.7007
 2995TIP3    H130620   1.044   2.224   0.331 -0.0187 -1.7121  1.2403
 2995TIP3    H230621   1.090   2.221   0.475  1.9461  0.7750  0.7278
 2996TIP3   OH230622   5.273   2.349   0.123  0.4136  0.6171  0.2421
 2996TIP3    H130623   5.364   2.347   0.151 -0.4648  0.3954  3.4303
 2996TIP3    H230624   5.249   2.257   0.111  0.3078  0.6097  0.5067
 2997TIP3   OH230625   5.663   6.112   2.902  0.0303 -0.2167 -0.3110
 2997TIP3    H130626   5.721   6.187   2.888 -0.7664  0.2276 -1.4473
 2997TIP3    H230627   5.598   6.144   2.964  0.2807 -0.3089  0.0008
 2998TIP3   OH230628   2.225   2.668   8.248  0.3236 -0.6560 -0.6400
 2998TIP3    H130629   2.154   2.606   8.266  0.4591 -0.1694  2.0283
 2998TIP3    H230630   2.187   2.729   8.185 -1.5390 -0.6323  0.4039
 2999TIP3   OH230631   5.132   3.479   7.334 -0.2123 -0.4141 -0.0080
 2999TIP3    H130632   5.166   3.392   7.314 -0.7228 -0.4480 -0.7801
 2999TIP3    H230633   5.201   3.520   7.385 -0.0457 -1.3398  0.5372
 3000TIP3   OH230634   3.627   4.062   7.028 -0.1044 -0.1109 -0.0625
 3000TIP3    H130635   3.650   4.027   6.942  1.5142 -1.4650  0.8864
 3000TIP3    H230636   3.553   4.120   7.010  0.2084 -0.3220 -2.3701
 3001TIP3   OH230637   3.603   3.191   7.642 -0.7808  0.0484  0.2476
 3001TIP3    H130638   3.639   3.234   7.564 -0.8564 -1.1559 -0.4621
 3001TIP3    H230639   3.640   3.103   7.640 -0.1339  0.2348  2.0306
 3002TIP3   OH230640   4.586   5.092   1.772  0.6483  0.1829 -0.0789
 3002TIP3    H130641   4.527   5.147   1.823  0.4530 -0.0371 -0.0610
 3002TIP3    H230642   4.647   5.056   1.835 -0.1925 -0.8625  0.1664
 3003TIP3   OH230643   4.429   2.536   7.193  0.4592 -0.2327 -0.5929
 3003TIP3    H130644   4.347   2.532   7.243  0.3720  0.2088 -0.6968
 3003TIP3    H230645   4.482   2.465   7.229 -0.7965 -1.9769 -2.0080
 3004TIP3   OH230646   5.511   4.087   6.621 -0.0739 -0.4977  0.2428
 3004TIP3    H130647   5.497   4.124   6.708  1.9591  0.6463  0.1503
 3004TIP3    H230648   5.599   4.048   6.627  1.2539  1.8659 -1.9587
 3005TIP3   OH230649   3.606   6.824   1.755  0.2830  0.5463  0.2501
 3005TIP3    H130650   3.695   6.804   1.782  0.5194  0.9544 -0.2301
 3005TIP3    H230651   3.602   6.798   1.663 -0.7208 -1.5016  0.8118
 3006TIP3   OH230652   5.556   1.556   8.649 -0.1374  0.3556  0.0172
 3006TIP3    H130653   5.644   1.580   8.675 -0.2966 -0.9741  1.9232
 3006TIP3    H230654   5.522   1.635   8.604  1.4919  1.3686  0.4887
 3007TIP3   OH230655   3.368   0.144   1.127  0.4296  0.1634 -0.2412
 3007TIP3    H130656   3.427   0.209   1.089 -0.8875  1.1958 -0.6026
 3007TIP3    H230657   3.294   0.195   1.159  0.6131 -0.8779  2.0398
 3008TIP3   OH230658   0.698   1.510   0.556 -0.5517 -0.4362  0.6308
 3008TIP3    H130659   0.787   1.475   0.557 -0.1373  0.5824  1.7784
 3008TIP3    H230660   0.642   1.433   0.564  0.1430 -1.2205 -1.5421
 3009TIP3   OH230661   5.034   5.193   6.809 -0.1741 -0.1040 -0.4011
 3009TIP3    H130662   5.126   5.174   6.788  0.5031  0.5530  1.7462
 3009TIP3    H230663   5.038   5.259   6.878 -2.1500 -2.1964  1.9106
 3010TIP3   OH230664   0.962   2.496   1.467  0.0884 -0.1464  0.1851
 3010TIP3    H130665   0.987   2.535   1.550 -1.6646 -0.5170  0.9258
 3010TIP3    H230666   1.044   2.463   1.430  1.1654  1.6093  0.8946
 3011TIP3   OH230667   6.774   0.114   2.819 -0.2287 -0.6422 -0.2174
 3011TIP3    H130668   6.764   0.138   2.726  2.3514  0.3222 -0.3392
 3011TIP3    H230669   6.810   0.025   2.816 -1.5354 -1.1906 -0.0620
 3012TIP3   OH230670   6.058   0.870   1.415  0.1781  0.1348 -0.2999
 3012TIP3    H130671   5.994   0.908   1.475 -0.2312  2.7848 -2.2397
 3012TIP3    H230672   6.137   0.923   1.426  1.2963 -1.5243  0.2537
 3013TIP3   OH230673   2.749   2.662   1.765 -0.1855 -0.0814  0.3269
 3013TIP3    H130674   2.708   2.654   1.851  1.6551 -0.4839  1.2179
 3013TIP3    H230675   2.733   2.753   1.739 -0.6165  0.0916  1.1673
 3014TIP3   OH230676   1.330   2.859   2.095  0.4298 -0.5763 -0.0072
 3014TIP3    H130677   1.258   2.874   2.034 -0.3193  2.2942  1.4191
 3014TIP3    H230678   1.289   2.859   2.181  1.8725 -1.2299  0.7114
 3015TIP3   OH230679   1.152   4.211   6.575 -0.4715 -0.4632 -0.4138
 3015TIP3    H130680   1.241   4.217   6.542 -0.0315 -0.9243  0.6400
 3015TIP3    H230681   1.112   4.142   6.523  0.0190 -0.7582 -0.4083
 3016TIP3   OH230682   1.448   4.121   1.813 -0.0947  1.1472  0.1671
 3016TIP3    H130683   1.490   4.155   1.734 -0.3700 -0.0583 -0.5238
 3016TIP3    H230684   1.519   4.082   1.864 -0.0939  0.7912 -0.1028
 3017TIP3   OH230685   2.565   0.530   7.947 -0.1014  0.6519  0.3754
 3017TIP3    H130686   2.577   0.478   7.867 -1.0084  0.0108  0.6275
 3017TIP3    H230687   2.517   0.608   7.918 -3.1911 -0.9793  0.6624
 3018TIP3   OH230688   3.191   0.900   7.944 -0.5621 -0.5343  0.2362
 3018TIP3    H130689   3.159   0.866   7.860  0.8818  1.8456 -1.4099
 3018TIP3    H230690   3.279   0.863   7.953 -0.5491 -0.4476  0.4780
 3019TIP3   OH230691   2.640   4.663   0.034 -0.1863 -0.3857 -0.3642
 3019TIP3    H130692   2.650   4.590  -0.027 -0.4766  0.0081 -0.8934
 3019TIP3    H230693   2.546   4.677   0.041 -0.1242  0.9521 -1.5367
 3020TIP3   OH230694   2.369   5.212   7.188  0.2847  0.2543  0.4099
 3020TIP3    H130695   2.440   5.275   7.175 -0.5967  1.8060  2.5438
 3020TIP3    H230696   2.339   5.228   7.278 -0.8395 -2.3652  0.5868
 3021TIP3   OH230697   5.362   3.845   7.066  0.0727 -0.7235 -0.1092
 3021TIP3    H130698   5.407   3.910   7.120 -0.7217  0.1431 -0.4563
 3021TIP3    H230699   5.282   3.824   7.115  0.3298 -1.4640  0.0085
 3022TIP3   OH230700   6.096   3.853   2.036  0.1019  0.0962 -0.0891
 3022TIP3    H130701   6.067   3.863   2.127 -0.6425 -0.1302 -0.2902
 3022TIP3    H230702   6.162   3.783   2.039 -0.4949 -0.4667  0.1678
 3023TIP3   OH230703   3.141   5.367   0.261  0.1065 -0.2063 -0.1845
 3023TIP3    H130704   3.209   5.305   0.286  1.8984  1.1510 -1.3905
 3023TIP3    H230705   3.102   5.395   0.344  1.8406 -0.1529  0.6546
 3024TIP3   OH230706   5.967   3.287   8.038 -0.2610  0.3864  0.2243
 3024TIP3    H130707   6.025   3.298   8.114  0.0336  0.3684  0.0048
 3024TIP3    H230708   6.002   3.210   7.993 -1.5476 -0.7254  1.0736
 3025TIP3   OH230709   2.475   6.372   1.557 -0.0733  0.1275 -0.5807
 3025TIP3    H130710   2.440   6.293   1.599 -1.3716  0.6780 -0.5769
 3025TIP3    H230711   2.428   6.444   1.600  2.3708  1.0674  0.7216
 3026TIP3   OH230712   5.138   5.768   7.839 -0.2208 -0.1811  0.0482
 3026TIP3    H130713   5.194   5.825   7.786  0.7786  0.1293  1.3706
 3026TIP3    H230714   5.199   5.719   7.895 -1.2558  0.3347  1.7120
 3027TIP3   OH230715   2.799   0.075   1.260 -0.0582  0.3368  0.1884
 3027TIP3    H130716   2.877   0.022   1.241 -0.7322 -0.9809  0.9637
 3027TIP3    H230717   2.749   0.074   1.179  0.0356 -0.0529  0.1322
 3028TIP3   OH230718   1.499   4.843   2.079  0.0705 -0.1855  0.2393
 3028TIP3    H130719   1.412   4.806   2.093 -0.1075  0.3299  0.5086
 3028TIP3    H230720   1.487   4.937   2.086  0.6508 -0.1088  0.2800
 3029TIP3   OH230721   0.718   5.908   0.801 -0.0695 -0.2122 -0.0493
 3029TIP3    H130722   0.769   5.835   0.764  0.3098  1.3857 -2.9318
 3029TIP3    H230723   0.745   5.911   0.893  3.2388 -1.0073 -0.8526
 3030TIP3   OH230724   2.182   2.773   0.746  0.5409 -0.1045  0.2748
 3030TIP3    H130725   2.264   2.738   0.781  2.0529 -0.9818 -3.6576
 3030TIP3    H230726   2.122   2.698   0.748  0.8245 -0.3333  0.3115
 3031TIP3   OH230727   3.973   0.518   0.359 -0.7495  0.3182  0.2511
 3031TIP3    H130728   3.952   0.526   0.452  0.8272  1.5285  0.5458
 3031TIP3    H230729   3.957   0.606   0.323  1.5654  0.7328  0.0686
 3032TIP3   OH230730   5.668   1.094   7.761 -0.1794  0.1884  0.3040
 3032TIP3    H130731   5.728   1.038   7.712 -1.0634 -1.0630  0.5947
 3032TIP3    H230732   5.604   1.124   7.697 -0.0472  0.3709  0.2591
 3033TIP3   OH230733   1.751   0.779   6.975 -0.1275  0.8047 -0.1820
 3033TIP3    H130734   1.756   0.711   6.908 -2.9422 -0.0095  0.3052
 3033TIP3    H230735   1.788   0.857   6.933 -0.1344 -0.1324 -2.0405
 3034TIP3   OH230736   2.003   2.144   6.728  0.5214  0.1191 -0.2648
 3034TIP3    H130737   1.911   2.169   6.736  0.5975  0.6986 -1.0760
 3034TIP3    H230738   2.009   2.060   6.774  0.0022  0.9800  1.4723
 3035TIP3   OH230739   3.431   1.987   8.605  0.5072 -0.5559  0.9671
 3035TIP3    H130740   3.440   2.008   8.698 -1.3094  0.3923  0.9779
 3035TIP3    H230741   3.483   2.054   8.560  0.1625 -0.0976  1.2472
 3036TIP3   OH230742   0.842   5.945   1.349 -0.3957 -0.2275 -0.4355
 3036TIP3    H130743   0.761   5.997   1.355 -1.5252 -2.0639  2.0211
 3036TIP3    H230744   0.899   5.981   1.416 -0.1273 -0.4477 -0.5439
 3037TIP3   OH230745   6.270   2.698   7.323 -0.3140  0.6050  0.0838
 3037TIP3    H130746   6.348   2.666   7.368 -0.0270  0.9628 -0.1520
 3037TIP3    H230747   6.260   2.639   7.248 -0.4205  0.4011  0.2584
 3038TIP3   OH230748   6.415   3.960   2.492 -0.4302 -0.1623  0.0717
 3038TIP3    H130749   6.471   4.027   2.531 -1.1750  1.2646 -1.1966
 3038TIP3    H230750   6.335   4.007   2.468  0.0695 -0.8544 -3.3571
 3039TIP3   OH230751   2.196   4.558   8.259  0.3389 -0.0152  0.2139
 3039TIP3    H130752   2.193   4.644   8.217  0.6281  0.1216  0.4650
 3039TIP3    H230753   2.153   4.571   8.343 -2.1393 -0.7786 -0.8321
 3040TIP3   OH230754   1.342   5.948   0.251 -0.4259 -0.0840 -0.8007
 3040TIP3    H130755   1.424   5.981   0.214 -0.3339  2.2690  1.2219
 3040TIP3    H230756   1.284   6.024   0.253 -2.8893 -1.7681 -2.5344
 3041TIP3   OH230757   5.923   6.396   1.514 -0.6391  0.0582 -0.1569
 3041TIP3    H130758   6.012   6.429   1.524  0.0661 -1.7834 -0.0413
 3041TIP3    H230759   5.885   6.402   1.602  0.5298 -2.2103  0.5775
 3042TIP3   OH230760   0.625   3.334   1.025  0.1636 -0.1125  0.4750
 3042TIP3    H130761   0.670   3.405   1.070  0.9053 -1.8474  2.6586
 3042TIP3    H230762   0.693   3.269   1.009 -0.5058 -0.3871 -1.4404
 3043TIP3   OH230763   3.944   5.634   0.237  0.0521  0.1590 -0.5738
 3043TIP3    H130764   3.896   5.571   0.183  0.0059  0.4642 -0.8930
 3043TIP3    H230765   3.887   5.711   0.241  0.6347  0.6332 -1.1958
 3044TIP3   OH230766   5.690   5.964   1.959 -0.2260 -0.0916  0.1743
 3044TIP3    H130767   5.653   6.016   2.029  0.8249 -0.3466  0.9439
 3044TIP3    H230768   5.616   5.917   1.922 -1.0460  1.2767  0.0295
 3045TIP3   OH230769   2.335   5.070   1.515 -0.0973  0.8189  0.6379
 3045TIP3    H130770   2.278   5.024   1.576 -0.4844  1.6629  0.9311
 3045TIP3    H230771   2.291   5.154   1.499 -1.4219 -0.3692 -2.9056
 3046TIP3   OH230772   4.912   1.516   6.539  0.0993 -0.2126 -0.9053
 3046TIP3    H130773   4.892   1.610   6.536  0.0532 -0.0894  1.4640
 3046TIP3    H230774   4.907   1.487   6.447  0.7502  2.2041 -1.7831
 3047TIP3   OH230775   1.226   3.401   0.232  0.0160  0.3600 -0.4927
 3047TIP3    H130776   1.171   3.478   0.245  1.3458  1.4722 -1.1780
 3047TIP3    H230777   1.315   3.435   0.231  0.5274 -0.8240 -3.2091
 3048TIP3   OH230778   3.017   1.501   0.329 -0.0215  0.0316  0.3347
 3048TIP3    H130779   3.063   1.417   0.324  1.0910  0.7014 -1.1363
 3048TIP3    H230780   2.924   1.477   0.329  0.2540 -1.1737 -1.1020
 3049TIP3   OH230781   6.286   2.445   7.159 -0.0324  0.3483 -0.1320
 3049TIP3    H130782   6.358   2.425   7.218 -0.9117 -0.9705  0.5564
 3049TIP3    H230783   6.325   2.442   7.072  1.2632  2.2478  0.3221
 3050TIP3   OH230784   3.672   3.256   1.618  0.4038 -0.5199  0.2968
 3050TIP3    H130785   3.709   3.330   1.666  0.2690 -0.5852  0.5022
 3050TIP3    H230786   3.578   3.262   1.632  0.4776 -1.4835  1.4372
 3051TIP3   OH230787   5.906   4.315   1.215  0.3218 -0.4337  0.1719
 3051TIP3    H130788   5.899   4.246   1.281 -0.7891  0.7151  1.2911
 3051TIP3    H230789   5.990   4.357   1.234  0.4661 -0.7397  0.2166
 3052TIP3   OH230790   3.602   1.094   8.204 -1.2570 -0.3297  0.0140
 3052TIP3    H130791   3.683   1.092   8.153  0.1335  0.8029  2.0306
 3052TIP3    H230792   3.545   1.029   8.162  1.1660 -2.1316 -0.6732
 3053TIP3   OH230793   1.993   2.170   7.956 -0.5533 -0.2882  0.2223
 3053TIP3    H130794   2.067   2.157   7.897  0.2779  1.2927  0.8836
 3053TIP3    H230795   2.031   2.171   8.043 -1.1158  1.9056  0.4934
 3054TIP3   OH230796   3.928   1.079   8.312 -0.5727 -0.1010 -0.1381
 3054TIP3    H130797   3.904   1.120   8.229 -2.4233  0.8322  0.7884
 3054TIP3    H230798   3.974   1.148   8.361  1.1472 -0.8595 -0.6029
 3055TIP3   OH230799   5.375   6.267   8.294 -0.1387 -0.9769  0.3876
 3055TIP3    H130800   5.298   6.302   8.249 -2.2683 -2.5946  2.4698
 3055TIP3    H230801   5.399   6.190   8.242  0.7461  0.0530 -0.7986
 3056TIP3   OH230802   2.297   2.008   2.246  0.0875  0.1028 -0.0371
 3056TIP3    H130803   2.352   2.058   2.185 -1.2366  0.9428 -0.5902
 3056TIP3    H230804   2.281   1.925   2.202  0.4461  0.0853 -0.1339
 3057TIP3   OH230805   4.136   4.852   6.660 -0.1376 -0.6064 -0.6374
 3057TIP3    H130806   4.200   4.893   6.601  1.2074 -0.2513  0.9834
 3057TIP3    H230807   4.082   4.925   6.691 -1.3099 -0.8881 -1.9055
 3058TIP3   OH230808   5.375   1.241   0.177  0.0457 -0.1506 -0.5215
 3058TIP3    H130809   5.413   1.321   0.214  2.6195 -2.3174  2.0166
 3058TIP3    H230810   5.294   1.229   0.225  0.3576  0.2062  0.1102
 3059TIP3   OH230811   2.001   6.670   7.762  0.4224  0.3836 -0.1393
 3059TIP3    H130812   2.072   6.655   7.700  0.7074  2.6488 -0.4273
 3059TIP3    H230813   1.929   6.617   7.729  1.3853 -0.5129 -0.8793
 3060TIP3   OH230814   2.864   2.303   1.820 -0.0369 -0.1896 -0.7308
 3060TIP3    H130815   2.782   2.299   1.870  0.4206 -2.5617 -0.0843
 3060TIP3    H230816   2.845   2.364   1.748 -2.2336 -0.3590 -0.3574
 3061TIP3   OH230817   0.479   4.051   7.138  0.1782  0.1716  0.3335
 3061TIP3    H130818   0.478   4.078   7.046  0.1220  0.5107  0.4306
 3061TIP3    H230819   0.422   3.974   7.141 -3.4073  2.5992  0.7959
 3062TIP3   OH230820   0.568   1.498   7.831 -0.0612  0.0173  0.4383
 3062TIP3    H130821   0.521   1.538   7.758 -1.1633 -1.5564  0.2384
 3062TIP3    H230822   0.510   1.508   7.906  0.5047  0.4901  0.8217
 3063TIP3   OH230823   0.850   1.094   7.591  0.1653 -0.0036  0.0995
 3063TIP3    H130824   0.908   1.058   7.658 -1.0946 -0.5243  0.9592
 3063TIP3    H230825   0.790   1.022   7.572  0.8961 -0.0912 -2.0977
 3064TIP3   OH230826   5.854   1.755   8.189 -0.0525 -0.5614  0.2521
 3064TIP3    H130827   5.941   1.786   8.164 -0.6159 -0.0206 -1.1990
 3064TIP3    H230828   5.831   1.806   8.266 -0.1238  1.2171 -0.8962
 3065TIP3   OH230829   4.338   6.178   6.809 -0.0490 -0.6840 -0.1356
 3065TIP3    H130830   4.275   6.175   6.736 -0.3361 -0.2817  0.0946
 3065TIP3    H230831   4.407   6.237   6.779  0.5216 -1.5611 -0.6178
 3066TIP3   OH230832   2.515   5.814   7.841  0.0300 -0.0285 -0.5886
 3066TIP3    H130833   2.577   5.873   7.799  1.6383 -1.4460 -0.3169
 3066TIP3    H230834   2.452   5.793   7.772  0.5340  0.5075 -1.2329
 3067TIP3   OH230835   4.975   6.637   0.618 -0.6720 -0.5816  0.4884
 3067TIP3    H130836   4.923   6.715   0.596  0.1027 -0.5116 -1.2080
 3067TIP3    H230837   4.931   6.566   0.572  0.2853 -0.6549 -0.3190
 3068TIP3   OH230838   1.974   2.918   0.190 -0.2414  0.2806  0.3524
 3068TIP3    H130839   2.012   2.858   0.254  0.2868  0.7360  0.4785
 3068TIP3    H230840   2.045   2.935   0.129 -1.0745 -1.0629 -1.0527
 3069TIP3   OH230841   0.836   1.304   7.758 -0.0731  0.1920  0.2728
 3069TIP3    H130842   0.818   1.233   7.697  0.0911  0.0190  0.4227
 3069TIP3    H230843   0.793   1.380   7.721 -2.4636 -0.5235  1.3872
 3070TIP3   OH230844   5.327   2.908   8.401  0.3075  0.1841 -0.0330
 3070TIP3    H130845   5.371   2.825   8.381 -0.2829 -0.0276 -0.4774
 3070TIP3    H230846   5.259   2.916   8.334 -1.2587 -0.1924  1.4462
 3071TIP3   OH230847   5.751   2.520   8.616 -0.1930  0.1242 -0.1675
 3071TIP3    H130848   5.744   2.609   8.651  0.7272  0.3870 -0.6136
 3071TIP3    H230849   5.751   2.463   8.693 -0.3933  0.5301  0.1364
 3072TIP3   OH230850   6.665   2.313   8.364 -0.3913 -0.1889 -0.3901
 3072TIP3    H130851   6.669   2.406   8.344 -0.2237 -0.0758  0.1516
 3072TIP3    H230852   6.728   2.272   8.305  2.9544  0.5700  2.3577
 3073TIP3   OH230853   1.054   5.435   1.064 -0.5739 -0.0408 -0.1174
 3073TIP3    H130854   1.101   5.368   1.014  0.2619  1.6618 -1.7379
 3073TIP3    H230855   1.119   5.469   1.125 -1.1906 -1.1264  1.1864
 3074TIP3   OH230856   5.637   3.502   8.547  0.1855 -0.1043 -0.1835
 3074TIP3    H130857   5.604   3.592   8.547 -1.7388 -0.7432  0.9833
 3074TIP3    H230858   5.589   3.459   8.477  0.3617 -0.4664 -0.0843
 3075TIP3   OH230859   2.299   4.218   7.356 -0.0398 -0.4439  0.1816
 3075TIP3    H130860   2.253   4.255   7.431 -1.1609  1.6618 -1.4368
 3075TIP3    H230861   2.266   4.128   7.350 -1.3883 -0.0446  1.0643
 3076TIP3   OH230862   0.981   2.158   7.027 -0.2606 -0.2385  0.1389
 3076TIP3    H130863   0.999   2.216   6.953 -3.9664 -0.3875 -1.1075
 3076TIP3    H230864   1.027   2.077   7.006  1.1979  0.6972 -0.4257
 3077TIP3   OH230865   2.133   5.521   2.179  0.0377  0.5148 -0.2091
 3077TIP3    H130866   2.198   5.580   2.141  1.0894  0.3860  1.2807
 3077TIP3    H230867   2.114   5.458   2.110  1.4725  0.6014 -0.7115
 3078TIP3   OH230868   2.272   1.215   7.160 -0.1939  0.0165  0.0269
 3078TIP3    H130869   2.188   1.259   7.153  0.2405  0.6854 -1.6133
 3078TIP3    H230870   2.333   1.272   7.113  1.1971 -0.4105  1.2544
 3079TIP3   OH230871   0.783   4.951   8.527 -0.3101  0.0881 -0.3681
 3079TIP3    H130872   0.849   4.986   8.587 -0.5805  0.3007 -0.1883
 3079TIP3    H230873   0.715   5.019   8.525 -1.1620 -0.7127  0.5042
 3080TIP3   OH230874   1.750   3.587   1.075  0.1140 -0.0084  0.5288
 3080TIP3    H130875   1.736   3.492   1.076  1.4429 -0.2444 -0.4459
 3080TIP3    H230876   1.784   3.607   1.162  0.6928 -0.5780  0.4418
 3081TIP3   OH230877   6.397   5.755   7.696 -1.0040  0.3071  0.0723
 3081TIP3    H130878   6.319   5.786   7.743 -1.5207 -1.6016  0.5801
 3081TIP3    H230879   6.416   5.670   7.736  1.5432  0.8580  0.1497
 3082TIP3   OH230880   4.752   2.531   0.192 -0.0346  0.3667 -0.0356
 3082TIP3    H130881   4.767   2.620   0.162 -0.3186  0.2696 -0.4684
 3082TIP3    H230882   4.695   2.540   0.269 -1.0136  0.4876 -0.7673
 3083TIP3   OH230883   0.196   2.460   7.223 -0.8600  0.0307 -0.0470
 3083TIP3    H130884   0.224   2.512   7.147 -0.2747  0.3423  0.3727
 3083TIP3    H230885   0.196   2.370   7.192  0.0136  0.0879 -0.2380
 3084TIP3   OH230886   1.587   1.253   1.177  0.2365  0.0236 -0.0791
 3084TIP3    H130887   1.586   1.330   1.233 -0.0985 -0.8963  1.2320
 3084TIP3    H230888   1.669   1.208   1.199  0.6666  0.2215 -1.1802
 3085TIP3   OH230889   3.770   0.630   7.790  0.5242  0.5849  0.2834
 3085TIP3    H130890   3.677   0.653   7.783  0.6138  0.9827  0.4236
 3085TIP3    H230891   3.795   0.605   7.701 -0.2837 -1.6921  0.6040
 3086TIP3   OH230892   5.990   1.954   0.626  0.2805 -0.2340  0.1284
 3086TIP3    H130893   5.903   1.915   0.633  0.0249  0.3022  0.0126
 3086TIP3    H230894   5.978   2.029   0.568  0.8153 -0.1353  0.1369
 3087TIP3   OH230895   1.702   3.614   7.499 -0.2470  0.2009  0.0507
 3087TIP3    H130896   1.715   3.531   7.543  0.9031  1.2607  1.8293
 3087TIP3    H230897   1.790   3.640   7.470 -0.6521  0.6288 -0.8431
 3088TIP3   OH230898   6.779   3.643   7.197  0.7227 -0.9593  0.0268
 3088TIP3    H130899   6.837   3.685   7.261  0.1344 -1.4334  0.8921
 3088TIP3    H230900   6.727   3.582   7.249  0.4217 -1.5557 -0.9578
 3089TIP3   OH230901   5.314   4.748   2.734 -0.5521  0.3173  0.3224
 3089TIP3    H130902   5.239   4.689   2.729  0.0849 -0.4202 -1.1760
 3089TIP3    H230903   5.276   4.834   2.749 -1.6558 -0.1534  0.2988
 3090TIP3   OH230904   5.852   1.466   7.502 -0.6586  0.0992  0.1726
 3090TIP3    H130905   5.839   1.459   7.407  0.9741  2.1224 -0.2718
 3090TIP3    H230906   5.894   1.383   7.526 -1.1745 -0.4815 -0.8408
 3091TIP3   OH230907   6.184   2.595   1.619  0.0417 -0.4211 -0.3908
 3091TIP3    H130908   6.255   2.549   1.663 -1.9248 -0.2363  3.3559
 3091TIP3    H230909   6.217   2.683   1.603  0.7280 -0.3801  1.1514
 3092TIP3   OH230910   2.086   3.047   2.456  0.1409  0.2235  0.2166
 3092TIP3    H130911   2.128   2.961   2.454 -0.0129  0.1599 -1.4372
 3092TIP3    H230912   2.005   3.033   2.505  0.5645 -0.3420  0.7848
 3093TIP3   OH230913   1.870   5.201   0.598  0.1151  0.5201 -0.0542
 3093TIP3    H130914   1.832   5.274   0.549 -0.6099 -0.3984 -0.9038
 3093TIP3    H230915   1.795   5.155   0.634  0.6037  0.6627  1.2121
 3094TIP3   OH230916   3.432   3.805   0.517 -0.6154  0.1115  0.0122
 3094TIP3    H130917   3.499   3.791   0.584  0.1908  1.5687 -0.4540
 3094TIP3    H230918   3.420   3.719   0.476  0.7619 -0.2294  0.2970
 3095TIP3   OH230919   0.644   1.954   0.723  0.2934 -0.3934  0.0536
 3095TIP3    H130920   0.704   1.895   0.679 -1.4382 -1.4653 -0.9598
 3095TIP3    H230921   0.630   1.915   0.809  0.8742 -0.2392  0.2226
 3096TIP3   OH230922   1.681   4.727   6.577 -0.4148 -0.2114  0.3175
 3096TIP3    H130923   1.711   4.641   6.548  0.1219 -0.5781  1.8638
 3096TIP3    H230924   1.588   4.715   6.597  0.0014 -0.8508  1.9750
 3097TIP3   OH230925   6.530   6.881   1.422 -0.0672 -0.5360  0.5360
 3097TIP3    H130926   6.471   6.941   1.469  0.8395  0.6690  0.1837
 3097TIP3    H230927   6.616   6.920   1.433  0.1862 -0.2145 -2.1114
 3098TIP3   OH230928   0.961   6.341   7.347  0.0560 -0.2153  0.1229
 3098TIP3    H130929   1.043   6.292   7.347  0.9924  1.2927  0.1139
 3098TIP3    H230930   0.967   6.397   7.270 -1.5251 -0.9168 -0.5528
 3099TIP3   OH230931   1.307   4.376   7.825 -0.1211  0.0462 -0.3985
 3099TIP3    H130932   1.246   4.306   7.848 -0.4377 -0.2831 -2.1189
 3099TIP3    H230933   1.300   4.383   7.730 -0.8079  3.0744 -0.1995
 3100TIP3   OH230934   6.311   6.680   8.241  0.5684  0.0779  0.5787
 3100TIP3    H130935   6.390   6.735   8.234  0.7497 -0.2592 -0.1017
 3100TIP3    H230936   6.317   6.621   8.167 -0.2612 -0.0475  0.6078
 3101TIP3   OH230937   4.978   3.165   6.344 -0.3051  0.3326  0.3459
 3101TIP3    H130938   5.030   3.089   6.316  0.1551  0.1303  1.6900
 3101TIP3    H230939   4.893   3.152   6.303 -0.1746 -0.8277  0.4045
 3102TIP3   OH230940   4.321   4.604   7.007 -0.4822 -0.1362 -0.1956
 3102TIP3    H130941   4.279   4.641   6.930  0.4394 -1.1474 -1.2275
 3102TIP3    H230942   4.406   4.649   7.012 -0.9108  0.6119  0.8225
 3103TIP3   OH230943   1.415   0.667   6.319  0.5351  0.0338  0.5771
 3103TIP3    H130944   1.497   0.674   6.368 -0.5188  0.1495  2.4009
 3103TIP3    H230945   1.349   0.704   6.377 -0.9481 -0.8020 -0.5118
 3104TIP3   OH230946   2.226   6.579   0.291 -0.3479  0.5170  0.2611
 3104TIP3    H130947   2.297   6.637   0.263  0.8724 -0.2272  1.6581
 3104TIP3    H230948   2.197   6.536   0.211  0.6186  1.0063 -0.3704
 3105TIP3   OH230949   6.727   2.235   0.926  0.6387 -0.0771 -0.7433
 3105TIP3    H130950   6.732   2.328   0.903 -0.0894  0.5848  1.4686
 3105TIP3    H230951   6.633   2.216   0.928  0.5757  0.0539  1.7968
 3106TIP3   OH230952   1.253   0.240   2.548 -0.1026 -0.2371  0.2499
 3106TIP3    H130953   1.325   0.177   2.558  0.3823  0.2616 -0.0695
 3106TIP3    H230954   1.295   0.326   2.560 -0.3634  0.1396 -1.3728
 3107TIP3   OH230955   0.426   5.440   7.680 -0.2910  0.1555  0.1215
 3107TIP3    H130956   0.448   5.474   7.767  0.1082 -0.0596  0.1093
 3107TIP3    H230957   0.332   5.424   7.683 -0.8364  2.8065 -0.4093
 3108TIP3   OH230958   6.157   1.945   0.910 -0.9228 -0.2144  0.5159
 3108TIP3    H130959   6.115   2.026   0.938 -3.3712 -0.5666 -1.6854
 3108TIP3    H230960   6.161   1.952   0.814 -0.3929 -2.3181  0.3246
 3109TIP3   OH230961   1.812   5.809   2.215 -0.0721 -0.3149 -0.4114
 3109TIP3    H130962   1.905   5.831   2.211 -0.2081  0.4328  0.2124
 3109TIP3    H230963   1.809   5.714   2.211  0.8254 -0.4384  1.0439
 3110TIP3   OH230964   4.023   4.029   0.240 -0.1842 -0.5678  0.3681
 3110TIP3    H130965   3.948   4.041   0.182 -0.1940  0.0834  0.5097
 3110TIP3    H230966   4.065   4.115   0.245 -1.0338 -0.2130  2.4878
 3111TIP3   OH230967   4.981   5.821   0.130 -0.3190 -0.1902  0.2927
 3111TIP3    H130968   4.937   5.836   0.047 -2.5693  0.7931  1.5431
 3111TIP3    H230969   5.013   5.908   0.156 -0.4406 -0.3007  0.8389
 3112TIP3   OH230970   0.452   5.869   2.624 -0.7221  0.1286  0.3778
 3112TIP3    H130971   0.520   5.937   2.625 -0.2078 -0.3447 -0.5427
 3112TIP3    H230972   0.490   5.797   2.674  0.3419 -0.9113 -1.7976
 3113TIP3   OH230973   1.458   1.321   8.506 -0.1481 -0.0560  0.4361
 3113TIP3    H130974   1.541   1.357   8.537 -0.0571 -0.2632  0.4352
 3113TIP3    H230975   1.394   1.391   8.522 -0.1099 -0.1654  1.1184
 3114TIP3   OH230976   5.502   3.271   7.137  0.4287  0.1992  0.2031
 3114TIP3    H130977   5.530   3.293   7.226  0.6593  0.2175  0.1276
 3114TIP3    H230978   5.556   3.326   7.080 -2.1746  2.8694  0.1310
 3115TIP3   OH230979   1.043   3.006   0.544  0.1440 -0.0920  0.3131
 3115TIP3    H130980   1.077   3.074   0.486 -0.3320  0.3086  0.5042
 3115TIP3    H230981   1.098   2.930   0.526 -0.7140 -0.3369 -1.5318
 3116TIP3   OH230982   3.348   5.505   8.486 -0.2412 -0.7095 -0.4640
 3116TIP3    H130983   3.271   5.513   8.543 -0.3093 -3.5713 -0.0176
 3116TIP3    H230984   3.387   5.593   8.487 -2.1916  0.2345  1.1598
 3117TIP3   OH230985   0.333   2.420   8.493 -0.4891 -0.6075 -0.4418
 3117TIP3    H130986   0.351   2.433   8.586 -0.0019  0.2662 -0.6511
 3117TIP3    H230987   0.239   2.405   8.489 -0.5213 -0.6247  0.1847
 3118TIP3   OH230988   0.979   4.092   7.628 -0.6323 -0.4095 -0.1775
 3118TIP3    H130989   1.050   4.117   7.570  0.3765 -0.4629  0.9875
 3118TIP3    H230990   0.932   4.173   7.646  0.3967  0.0282  0.6576
 3119TIP3   OH230991   0.136   5.138   1.521 -0.0836  0.1480  0.1023
 3119TIP3    H130992   0.073   5.149   1.593  0.0781 -0.4469  0.3382
 3119TIP3    H230993   0.221   5.136   1.564 -0.0137 -0.6134 -0.0631
 3120TIP3   OH230994   1.792   0.830   1.549  0.0974 -0.8082  0.3401
 3120TIP3    H130995   1.781   0.924   1.536 -1.9010 -1.1930 -1.2231
 3120TIP3    H230996   1.851   0.823   1.625  0.2873  1.6660  0.5041
 3121TIP3   OH230997   1.208   3.556   6.911 -0.3497  0.6580  0.2737
 3121TIP3    H130998   1.283   3.544   6.853  2.2859 -0.0539  3.5352
 3121TIP3    H230999   1.174   3.468   6.926 -1.5554  0.9220 -0.7599
 3122TIP3   OH231000   4.181   5.875   6.362  0.8993 -0.1254 -0.4934
 3122TIP3    H131001   4.231   5.957   6.359  0.3844  0.2016 -0.2945
 3122TIP3    H231002   4.216   5.824   6.289  1.8510 -0.1020 -0.0746
 3123TIP3   OH231003   4.448   2.107   6.926  0.5749 -0.3497 -0.0104
 3123TIP3    H131004   4.430   2.198   6.950  2.1536 -0.1287  0.3951
 3123TIP3    H231005   4.543   2.100   6.924  0.5192 -1.4568 -2.1689
 3124TIP3   OH231006   5.386   3.693   0.868  0.2470 -0.1148 -0.2524
 3124TIP3    H131007   5.351   3.616   0.825 -0.3710 -0.6849  1.2059
 3124TIP3    H231008   5.468   3.664   0.908  1.3805  0.6821 -1.8778
 3125TIP3   OH231009   3.187   5.851   0.690 -0.0573 -0.2628 -0.2647
 3125TIP3    H131010   3.129   5.775   0.690  0.0712 -0.3671  0.3000
 3125TIP3    H231011   3.258   5.827   0.748 -0.1397  0.3821  0.1206
 3126TIP3   OH231012   2.859   6.164   0.801  0.0497 -0.0224  0.1690
 3126TIP3    H131013   2.938   6.193   0.848  0.9316  0.6547 -1.6466
 3126TIP3    H231014   2.787   6.204   0.849  0.8472 -0.0063  1.4060
 3127TIP3   OH231015   4.212   6.711   6.852 -0.4074 -0.4799 -0.1701
 3127TIP3    H131016   4.182   6.790   6.808 -1.3368 -0.4789  0.4553
 3127TIP3    H231017   4.305   6.728   6.869 -0.7967  0.8902  0.8108
 3128TIP3   OH231018   3.433   3.667   7.203  0.1047 -0.2623 -0.1347
 3128TIP3    H131019   3.441   3.740   7.264  0.0883  0.5560 -1.1060
 3128TIP3    H231020   3.341   3.665   7.178  0.2209 -0.2505 -0.5670
 3129TIP3   OH231021   2.119   6.655   8.121 -0.4341 -0.3303 -0.4994
 3129TIP3    H131022   2.053   6.589   8.100 -0.1263 -0.1570 -2.1112
 3129TIP3    H231023   2.199   6.605   8.139 -0.2239 -0.4083 -1.6302
 3130TIP3   OH231024   2.343   0.146   2.085  0.4436  0.4472 -0.6757
 3130TIP3    H131025   2.339   0.114   1.995 -0.4693 -1.4738 -0.0083
 3130TIP3    H231026   2.433   0.132   2.112 -0.2741 -3.5724  0.1844
 3131TIP3   OH231027   1.774   3.825   0.942 -0.0247 -0.2769  0.5994
 3131TIP3    H131028   1.698   3.881   0.957 -0.2592 -0.7138  1.0454
 3131TIP3    H231029   1.764   3.753   1.004  1.3927  0.2976  1.5406
 3132TIP3   OH231030   1.061   1.437   7.057 -0.0474 -0.8897 -0.4611
 3132TIP3    H131031   1.024   1.444   6.969  1.4757 -1.9788 -1.2354
 3132TIP3    H231032   1.118   1.514   7.064 -0.3839 -0.6531 -0.3172
 3133TIP3   OH231033   1.846   6.329   7.250  0.2848 -0.6811 -0.7508
 3133TIP3    H131034   1.812   6.418   7.253  0.7215 -0.5360  0.7647
 3133TIP3    H231035   1.769   6.273   7.239 -0.1392 -0.1982 -0.2538
 3134TIP3   OH231036   5.123   1.429   7.353  0.2467  0.4819  0.1808
 3134TIP3    H131037   5.208   1.393   7.378  0.1568 -0.4152 -0.7332
 3134TIP3    H231038   5.071   1.425   7.434  1.0075  0.8896  0.7029
 3135TIP3   OH231039   1.915   3.010   2.661 -0.3336  0.1698  0.0576
 3135TIP3    H131040   1.995   2.983   2.707 -0.3049  1.2270  0.6589
 3135TIP3    H231041   1.897   3.099   2.693 -0.7516  0.6492 -1.4051
 3136TIP3   OH231042   3.303   2.178   1.775  0.2985 -0.6773 -0.2031
 3136TIP3    H131043   3.385   2.220   1.802 -0.3863  0.2690  0.4848
 3136TIP3    H231044   3.315   2.086   1.797  0.2954 -0.1744  2.2038
 3137TIP3   OH231045   1.155   2.613   0.244 -0.3973 -0.4814  0.1125
 3137TIP3    H131046   1.220   2.582   0.180  1.4234  0.9980  1.1496
 3137TIP3    H231047   1.140   2.704   0.220 -1.0646 -0.4283  0.7196
 3138TIP3   OH231048   2.060   2.990   1.897 -0.2422 -0.7918 -0.7789
 3138TIP3    H131049   2.120   3.025   1.831  0.6614 -0.2165  0.3054
 3138TIP3    H231050   2.112   2.989   1.978 -1.8758  0.2649  0.3270
 3139TIP3   OH231051   6.839   5.210   2.515  0.2477  0.1838  0.0711
 3139TIP3    H131052   6.915   5.192   2.571 -0.2741 -1.5281  0.2787
 3139TIP3    H231053   6.776   5.142   2.539 -1.1310  1.2290 -0.5136
 3140TIP3   OH231054   6.797   0.186   8.602 -0.5196  0.1900 -0.5826
 3140TIP3    H131055   6.877   0.200   8.652 -1.1212 -1.0120  0.7725
 3140TIP3    H231056   6.789   0.265   8.548  0.9306  0.8586  0.1139
 3141TIP3   OH231057   4.199   4.953   2.311 -0.1368 -0.5203 -0.3104
 3141TIP3    H131058   4.149   4.877   2.280 -0.1984 -0.9834  0.8724
 3141TIP3    H231059   4.290   4.930   2.296 -0.1123 -1.1563  0.6898
 3142TIP3   OH231060   6.585   6.421   6.775  0.0055 -0.1692  0.2745
 3142TIP3    H131061   6.539   6.381   6.701 -0.8060 -0.1819  0.7623
 3142TIP3    H231062   6.542   6.506   6.787 -1.3186 -1.0072  1.9900
 3143TIP3   OH231063   6.067   2.264   7.601  0.2410  0.4551  0.6001
 3143TIP3    H131064   6.013   2.189   7.624  0.7697 -0.4149 -0.8573
 3143TIP3    H231065   6.146   2.226   7.563  0.1420  1.7229 -1.0055
 3144TIP3   OH231066   6.196   5.950   8.596 -0.4740 -0.0155  0.5610
 3144TIP3    H131067   6.155   6.034   8.613  0.9499  0.6421  0.9412
 3144TIP3    H231068   6.270   5.947   8.657 -0.1305 -1.2637  0.1155
 3145TIP3   OH231069   5.904   6.368   1.788  0.5159 -0.1336 -0.0418
 3145TIP3    H131070   5.906   6.298   1.853 -2.6011 -0.9544 -0.6732
 3145TIP3    H231071   5.815   6.403   1.792  1.6473  3.1804 -0.4799
 3146TIP3   OH231072   1.028   0.661   0.920 -0.0700 -0.2393 -0.7270
 3146TIP3    H131073   1.046   0.705   0.838  1.5318  1.8936  0.6655
 3146TIP3    H231074   0.948   0.703   0.953 -0.3078 -0.5949 -0.8394
 3147TIP3   OH231075   5.808   3.602   0.154 -0.2276  0.4543 -0.1447
 3147TIP3    H131076   5.755   3.568   0.227  1.1353 -1.9282 -0.1852
 3147TIP3    H231077   5.743   3.634   0.091 -1.5640 -0.6978  0.5826
 3148TIP3   OH231078   5.534   5.343   1.926  0.1005  0.1351 -0.5110
 3148TIP3    H131079   5.559   5.393   1.849 -2.8978  1.4324 -0.7754
 3148TIP3    H231080   5.574   5.390   1.999  4.3985 -2.0257 -1.1226
 3149TIP3   OH231081   1.667   3.048   1.224  0.1086 -0.2319  0.3553
 3149TIP3    H131082   1.736   2.981   1.219  0.3799 -0.2411  2.8907
 3149TIP3    H231083   1.700   3.120   1.170  0.9760 -1.1540 -0.3888
 3150TIP3   OH231084   4.746   6.571   0.191 -0.1136  0.0569  0.8009
 3150TIP3    H131085   4.684   6.542   0.257 -0.6471  1.4959  0.9677
 3150TIP3    H231086   4.731   6.665   0.184 -0.4958 -0.1253 -1.7793
 3151TIP3   OH231087   4.106   5.635   1.543  0.4647  0.1064 -0.0108
 3151TIP3    H131088   4.076   5.587   1.621 -2.7131  0.1721 -1.0148
 3151TIP3    H231089   4.087   5.576   1.470 -0.4365  1.5402 -1.0075
 3152TIP3   OH231090   5.073   4.650   0.101 -0.1152  0.2034  0.1095
 3152TIP3    H131091   5.122   4.662   0.020  0.1581  0.4163  0.3050
 3152TIP3    H231092   5.139   4.636   0.168 -0.2974  0.7668  0.4222
 3153TIP3   OH231093   0.062   6.481   0.412  0.1262 -0.0327 -0.2277
 3153TIP3    H131094   0.095   6.556   0.363  0.6975  0.4904  0.9154
 3153TIP3    H231095   0.131   6.415   0.404  2.8769  1.8451  4.0880
 3154TIP3   OH231096   2.070   5.564   0.590  0.0187 -0.1814 -0.7338
 3154TIP3    H131097   2.008   5.509   0.542  0.1271 -0.9966  0.0206
 3154TIP3    H231098   2.059   5.537   0.682  0.3324  0.8127 -0.3928
 3155TIP3   OH231099   1.173   0.197   2.858  0.8312  0.2283  0.1142
 3155TIP3    H131100   1.259   0.205   2.899  0.0909 -1.2486  2.1326
 3155TIP3    H231101   1.112   0.229   2.924 -0.2436  0.5930 -1.0141
 3156TIP3   OH231102   0.870   5.412   0.433  0.5748 -0.4522  0.3179
 3156TIP3    H131103   0.918   5.466   0.370 -0.7640 -1.1066 -1.3481
 3156TIP3    H231104   0.817   5.474   0.483 -0.5530 -0.1046 -1.2245
 3157TIP3   OH231105   5.743   2.112   7.339 -0.3034  0.4165  0.5421
 3157TIP3    H131106   5.733   2.172   7.413 -0.0183 -0.2309  1.1171
 3157TIP3    H231107   5.793   2.162   7.275 -2.0654  1.6109  0.0279
 3158TIP3   OH231108   2.231   2.720   7.470 -0.4327 -0.0272  0.0615
 3158TIP3    H131109   2.319   2.705   7.436 -0.8750 -1.9371 -0.3974
 3158TIP3    H231110   2.219   2.814   7.467  0.3108  0.0615 -3.2144
 3159TIP3   OH231111   4.871   3.902   6.388  0.3533 -0.6136 -0.6883
 3159TIP3    H131112   4.906   3.818   6.418  0.6707 -1.2168 -2.5866
 3159TIP3    H231113   4.829   3.881   6.304 -0.3125  0.9875 -0.7854
 3160TIP3   OH231114   0.918   0.052   0.144 -0.5523 -0.0280 -0.2589
 3160TIP3    H131115   0.823   0.045   0.137 -0.8459  0.7450  1.9613
 3160TIP3    H231116   0.948   0.079   0.057 -2.5652  1.4533 -0.5473
 3161TIP3   OH231117   3.480   5.521   0.094  0.5469 -0.2177 -0.3503
 3161TIP3    H131118   3.427   5.442   0.086  0.1239 -0.0235  0.4178
 3161TIP3    H231119   3.507   5.542   0.005 -0.0871 -0.7116 -0.6606
 3162TIP3   OH231120   2.521   1.433   0.616  0.0726 -0.0989  0.4143
 3162TIP3    H131121   2.457   1.469   0.554  0.8729  0.5190 -0.0657
 3162TIP3    H231122   2.541   1.507   0.674  0.2146 -0.3405  0.6735
 3163TIP3   OH231123   1.713   0.114   7.470 -0.1763 -0.2081 -0.6707
 3163TIP3    H131124   1.682   0.187   7.523  0.5083  0.3188 -0.9640
 3163TIP3    H231125   1.731   0.044   7.532  1.8270  0.8177 -0.0077
 3164TIP3   OH231126   6.337   5.183   1.561 -0.5897  0.0274  0.0937
 3164TIP3    H131127   6.270   5.118   1.539 -0.2707  0.1068 -1.2216
 3164TIP3    H231128   6.379   5.203   1.477  1.6552 -0.6373  0.9840
 3165TIP3   OH231129   1.559   1.459   8.009 -0.0472  0.2976 -1.0364
 3165TIP3    H131130   1.566   1.411   7.927 -1.9086 -2.0179  0.0468
 3165TIP3    H231131   1.640   1.438   8.056 -1.7900 -4.1951  0.4709
 3166TIP3   OH231132   5.878   1.944   8.401  0.3128 -0.2649  0.2685
 3166TIP3    H131133   5.967   1.959   8.433  0.1749  2.8435 -0.5062
 3166TIP3    H231134   5.843   1.876   8.459  2.4479 -0.0302  1.9709
 3167TIP3   OH231135   2.975   6.265   6.723 -0.3905  0.1264 -0.5946
 3167TIP3    H131136   2.893   6.288   6.767 -0.2736 -0.8614  0.1806
 3167TIP3    H231137   3.042   6.318   6.768  0.1073 -2.5640  2.2094
 3168TIP3   OH231138   5.269   6.437   2.793  0.2036 -0.0812  0.7667
 3168TIP3    H131139   5.232   6.428   2.881 -0.4279  0.3766  0.5576
 3168TIP3    H231140   5.247   6.356   2.748  0.1716 -0.1455  0.8999
 3169TIP3   OH231141   1.573   4.375   1.210  0.8147 -0.3998 -0.2407
 3169TIP3    H131142   1.524   4.296   1.232  1.7931 -1.3288 -1.2483
 3169TIP3    H231143   1.568   4.380   1.114 -1.4357  2.2520 -0.1076
 3170TIP3   OH231144   3.005   0.946   8.164 -0.7556 -0.5742  0.1426
 3170TIP3    H131145   2.986   1.040   8.162 -1.7205 -0.7315  1.2129
 3170TIP3    H231146   3.062   0.932   8.088 -1.0454  0.7747 -0.3541
 3171TIP3   OH231147   5.197   2.444   1.613  0.3791  0.6284 -0.3465
 3171TIP3    H131148   5.197   2.364   1.666  1.5009  0.8759  0.0635
 3171TIP3    H231149   5.131   2.429   1.546 -0.3053 -0.1315  0.4819
 3172TIP3   OH231150   5.850   1.920   0.194  0.2112  0.1445  0.0267
 3172TIP3    H131151   5.819   1.870   0.119 -1.0984  2.3939 -1.0332
 3172TIP3    H231152   5.940   1.943   0.172 -0.6813  2.3011 -1.8337
 3173TIP3   OH231153   5.057   0.354   8.389 -0.0949  0.0688  0.1317
 3173TIP3    H131154   5.123   0.419   8.365 -1.2536  2.2734  2.3963
 3173TIP3    H231155   5.096   0.306   8.462  0.0402 -0.4965 -0.3109
 3174TIP3   OH231156   6.252   3.171   1.554 -0.7808 -0.0550 -0.0120
 3174TIP3    H131157   6.327   3.115   1.573  0.8542  2.1513  0.5308
 3174TIP3    H231158   6.239   3.164   1.460  2.5897  2.2679 -0.8102
 3175TIP3   OH231159   3.184   5.414   8.219 -0.0052  0.3629 -0.0122
 3175TIP3    H131160   3.129   5.486   8.248  0.3684  0.0598  1.5682
 3175TIP3    H231161   3.240   5.395   8.295  0.8852 -0.6433 -0.8852
 3176TIP3   OH231162   2.769   1.924   1.487  0.6212  0.8667  0.1217
 3176TIP3    H131163   2.805   1.926   1.399 -0.9351 -1.3005 -0.6566
 3176TIP3    H231164   2.674   1.933   1.475  0.1053 -1.9418  1.2560
 3177TIP3   OH231165   4.173   1.291   1.364  0.4752 -0.3900  0.6416
 3177TIP3    H131166   4.187   1.230   1.436  3.0135 -1.4905 -0.6639
 3177TIP3    H231167   4.255   1.340   1.358  0.1267  0.0323 -1.1308
 3178TIP3   OH231168   5.552   0.965   8.013 -0.1756 -0.5372 -0.1104
 3178TIP3    H131169   5.615   1.028   7.977 -0.0440 -1.4881 -1.6395
 3178TIP3    H231170   5.471   1.015   8.021 -0.4041 -0.4228 -2.4492
 3179TIP3   OH231171   2.630   2.507   1.272 -0.4366  0.5237 -1.3596
 3179TIP3    H131172   2.584   2.590   1.256  1.0092  1.5666 -0.4170
 3179TIP3    H231173   2.608   2.485   1.362 -0.2569  0.2571 -1.3817
 3180TIP3   OH231174   3.003   4.671   2.327  0.3226  0.6164  0.3732
 3180TIP3    H131175   3.071   4.608   2.348  0.4259  0.3853 -0.5991
 3180TIP3    H231176   3.050   4.743   2.285  0.1433  1.1300  1.0298
 3181TIP3   OH231177   2.150   4.830   1.459 -0.6924 -0.0300  0.1381
 3181TIP3    H131178   2.189   4.860   1.377 -0.7668 -1.2983 -0.3895
 3181TIP3    H231179   2.084   4.896   1.479  0.7145  1.3804  0.2896
 3182TIP3   OH231180   5.653   0.164   0.084 -0.4493  0.2903  0.2529
 3182TIP3    H131181   5.694   0.128   0.005 -0.1788  0.1459  0.4563
 3182TIP3    H231182   5.693   0.250   0.094 -2.6152  1.5986 -1.4249
 3183TIP3   OH231183   0.714   3.298   1.512  0.6208 -0.2407  0.2460
 3183TIP3    H131184   0.735   3.217   1.559  3.5970  2.0707  3.3201
 3183TIP3    H231185   0.663   3.350   1.574  0.3940  1.0332 -0.9466
 3184TIP3   OH231186   5.571   3.256   1.894  0.2397 -0.1720 -0.0779
 3184TIP3    H131187   5.539   3.167   1.881 -0.1757 -0.0786  0.2990
 3184TIP3    H231188   5.494   3.312   1.886  0.5851  0.2086 -0.8620
 3185TIP3   OH231189   3.138   1.527   1.466 -0.3166 -0.0655  0.1844
 3185TIP3    H131190   3.201   1.472   1.420 -0.9710 -0.9353  0.2893
 3185TIP3    H231191   3.176   1.615   1.464 -0.2396 -0.1017 -1.8359
 3186TIP3   OH231192   2.773   4.699   7.544 -0.3784  0.2382  0.5522
 3186TIP3    H131193   2.695   4.745   7.514 -0.4762 -0.4621 -0.2837
 3186TIP3    H231194   2.741   4.622   7.590 -0.1815 -0.1854 -0.0118
 3187TIP3   OH231195   4.769   1.709   7.596  0.6742 -0.1691  0.0966
 3187TIP3    H131196   4.788   1.633   7.651  1.0088 -0.5978 -0.5926
 3187TIP3    H231197   4.802   1.783   7.645  0.3926 -0.4702  0.7582
 3188TIP3   OH231198   3.712   3.130   1.278 -0.1996  0.0597 -0.1274
 3188TIP3    H131199   3.633   3.107   1.327 -0.7281  3.8345  1.1126
 3188TIP3    H231200   3.680   3.186   1.206  1.1032 -0.9590 -1.5635
 3189TIP3   OH231201   3.094   5.065   0.993  0.6802  0.0769  0.5786
 3189TIP3    H131202   3.086   5.053   0.898  0.9977  0.0412  0.5543
 3189TIP3    H231203   3.112   5.158   1.004 -0.8685  0.3884  0.7082
 3190TIP3   OH231204   5.694   3.972   1.300 -0.4301  0.3008 -0.3975
 3190TIP3    H131205   5.661   3.899   1.352  1.6480  0.0147  0.6471
 3190TIP3    H231206   5.653   4.050   1.338 -1.1306 -0.1584 -0.2073
 3191TIP3   OH231207   6.503   3.817   6.938 -0.1217  0.9154  0.3372
 3191TIP3    H131208   6.414   3.818   6.904  0.6561 -0.3801 -1.9847
 3191TIP3    H231209   6.493   3.821   7.033 -2.5473  2.4503  0.0911
 3192TIP3   OH231210   0.203   0.481   7.596  0.1983  0.5281  0.3940
 3192TIP3    H131211   0.146   0.557   7.585  0.4357  0.7516  0.6894
 3192TIP3    H231212   0.151   0.407   7.564  0.4793  0.9953 -1.2375
 3193TIP3   OH231213   0.843   2.852   0.042 -0.0450 -0.5056 -0.5489
 3193TIP3    H131214   0.836   2.945   0.062 -0.4498 -0.7105  0.3063
 3193TIP3    H231215   0.879   2.849  -0.047 -1.4041  0.4858 -1.1616
 3194TIP3   OH231216   4.269   1.382   7.372 -0.3459 -0.3912  0.3407
 3194TIP3    H131217   4.259   1.476   7.358  1.0832  0.0605  1.9423
 3194TIP3    H231218   4.180   1.347   7.367 -1.2321  1.4136  2.0223
 3195TIP3   OH231219   4.400   0.566   0.700 -0.0986  0.1438  0.1769
 3195TIP3    H131220   4.489   0.600   0.709 -0.4878  1.2857 -0.0987
 3195TIP3    H231221   4.399   0.524   0.614  0.7657 -1.8326  1.0684
 3196TIP3   OH231222   2.095   3.998   1.409 -0.2647 -1.1955 -0.2389
 3196TIP3    H131223   2.073   4.084   1.445  0.1587 -0.7359 -1.0435
 3196TIP3    H231224   2.010   3.955   1.397 -0.4157 -1.4398  1.4328
 3197TIP3   OH231225   6.467   4.333   1.215 -0.3134  0.6587 -0.1407
 3197TIP3    H131226   6.550   4.348   1.262 -0.4379  1.2676 -0.1084
 3197TIP3    H231227   6.460   4.237   1.210  0.7653  0.5934 -0.8027
 3198TIP3   OH231228   5.679   1.651   0.761 -0.2495 -0.5306  0.0291
 3198TIP3    H131229   5.756   1.597   0.739 -0.9387 -1.7522  0.4937
 3198TIP3    H231230   5.620   1.638   0.687 -0.7830 -1.1609  0.5454
 3199TIP3   OH231231   1.628   3.008   7.649 -0.3407  0.6463  0.0227
 3199TIP3    H131232   1.711   2.977   7.686 -0.9021 -1.1504 -0.1261
 3199TIP3    H231233   1.635   2.989   7.556 -0.9437  0.4234  0.0194
 3200TIP3   OH231234   4.930   1.817   2.307  0.3479 -0.3400  0.4249
 3200TIP3    H131235   4.882   1.849   2.383  2.5388 -0.2431  1.8533
 3200TIP3    H231236   5.006   1.875   2.301  0.1045 -0.1749 -2.0435
 3201TIP3   OH231237   3.766   3.494   8.273  0.4750 -0.2602 -0.3987
 3201TIP3    H131238   3.722   3.420   8.232  0.7096 -0.4347 -0.3376
 3201TIP3    H231239   3.858   3.483   8.251  0.2168  1.4390 -2.6167
 3202TIP3   OH231240   5.174   5.861   7.427 -0.3503  0.5018  0.4292
 3202TIP3    H131241   5.100   5.878   7.369 -0.4090  0.6075  0.5342
 3202TIP3    H231242   5.180   5.938   7.483  0.1068  0.6817  0.1367
 3203TIP3   OH231243   1.257   2.133   6.330 -0.2095  0.2065 -0.1910
 3203TIP3    H131244   1.353   2.144   6.330 -0.3602  1.7151 -0.3891
 3203TIP3    H231245   1.228   2.180   6.252 -1.1505  0.0929  0.0787
 3204TIP3   OH231246   1.267   6.443   7.389  0.0299 -0.2947  0.4495
 3204TIP3    H131247   1.259   6.406   7.301 -2.9329  0.0706  0.4942
 3204TIP3    H231248   1.263   6.367   7.447  1.3978 -0.4799  0.3436
 3205TIP3   OH231249   6.508   6.855   2.181 -0.7234  0.0078 -0.2918
 3205TIP3    H131250   6.471   6.930   2.135 -2.9212  0.4929  2.0700
 3205TIP3    H231251   6.509   6.881   2.273  1.7450 -1.6078  0.2216
 3206TIP3   OH231252   1.190   4.458   7.594 -0.2630  0.0226  0.8168
 3206TIP3    H131253   1.150   4.512   7.662 -0.4993  0.4661  0.3310
 3206TIP3    H231254   1.224   4.521   7.530 -0.9362 -0.4099  0.0210
 3207TIP3   OH231255   5.926   5.036   2.562 -0.1622  0.4912 -0.0070
 3207TIP3    H131256   5.847   5.030   2.616 -1.0488 -0.0595 -1.3137
 3207TIP3    H231257   5.941   5.130   2.551 -0.8225  0.6015 -0.0054
 3208TIP3   OH231258   6.869   1.668   0.760 -0.3011  0.1275 -0.2225
 3208TIP3    H131259   6.963   1.668   0.741 -0.4198 -1.4030 -0.9723
 3208TIP3    H231260   6.827   1.672   0.674 -0.9095 -0.3744  0.0420
 3209TIP3   OH231261   3.347   0.458   6.576  0.1117  0.2046  0.0925
 3209TIP3    H131262   3.359   0.403   6.499  1.5247  0.5236  0.0454
 3209TIP3    H231263   3.429   0.509   6.581 -0.5202  1.1631  1.0181
 3210TIP3   OH231264   4.264   6.800   6.233 -0.0814  0.7100  0.5871
 3210TIP3    H131265   4.260   6.805   6.328  0.7327  3.4768  0.5503
 3210TIP3    H231266   4.315   6.877   6.207 -1.5243  0.8423 -2.1680
 3211TIP3   OH231267   1.200   1.879   0.823 -0.3875  0.2771  0.0141
 3211TIP3    H131268   1.138   1.813   0.792  0.0714  0.6186 -1.7459
 3211TIP3    H231269   1.282   1.833   0.834  0.2975  0.6882 -2.5222
 3212TIP3   OH231270   1.744   4.831   8.183  0.2623  0.0293 -0.0953
 3212TIP3    H131271   1.777   4.753   8.139 -1.5735 -0.6066 -0.4475
 3212TIP3    H231272   1.787   4.832   8.268  0.7541 -1.0283 -0.3248
 3213TIP3   OH231273   2.966   0.608   0.027 -0.2088  0.0851 -0.4202
 3213TIP3    H131274   3.033   0.545   0.001 -0.1230 -0.1716  0.3823
 3213TIP3    H231275   2.949   0.659  -0.052  1.6125  0.7735 -0.4171
 3214TIP3   OH231276   3.278   1.754   1.490  0.1093  0.1385 -0.1072
 3214TIP3    H131277   3.205   1.816   1.493 -1.1248 -1.2701  0.5684
 3214TIP3    H231278   3.350   1.803   1.450 -0.9048  1.8782  0.0896
 3215TIP3   OH231279   1.958   6.289   7.519  0.0872  0.9349  0.3734
 3215TIP3    H131280   1.938   6.299   7.425  0.2759  1.0778  0.3470
 3215TIP3    H231281   1.881   6.246   7.555  0.4986 -0.2131 -0.0606
 3216TIP3   OH231282   4.237   5.995   2.506  0.4919 -0.2695 -0.0586
 3216TIP3    H131283   4.183   6.073   2.497 -0.5646 -1.0063 -0.2980
 3216TIP3    H231284   4.305   6.005   2.440  2.2650  1.8973  1.9146
 3217TIP3   OH231285   4.639   6.530   1.209 -0.6062  0.0345 -0.4174
 3217TIP3    H131286   4.628   6.435   1.197  0.4517 -0.0761 -0.5521
 3217TIP3    H231287   4.695   6.537   1.286  1.0036  0.4945 -1.5996
 3218TIP3   OH231288   6.349   2.446   6.897  0.2536 -0.2962 -0.0452
 3218TIP3    H131289   6.281   2.389   6.861 -0.1190  0.5016 -0.6477
 3218TIP3    H231290   6.432   2.405   6.872  0.0299 -1.6701  1.3182
 3219TIP3   OH231291   3.029   2.705   7.256  0.1566  0.1596  0.2662
 3219TIP3    H131292   3.007   2.720   7.164 -1.0362  0.8758  0.6552
 3219TIP3    H231293   3.058   2.614   7.258 -0.2838 -0.0233 -0.7337
 3220TIP3   OH231294   3.880   5.353   7.420 -0.4947 -0.0947  0.6252
 3220TIP3    H131295   3.822   5.276   7.417  1.3776 -1.7036  2.5742
 3220TIP3    H231296   3.925   5.352   7.336 -0.9015 -0.8015  0.4043
 3221TIP3   OH231297   2.815   5.335   8.250  0.2838 -0.8697  0.1193
 3221TIP3    H131298   2.859   5.416   8.277 -0.9812  0.4546 -1.5248
 3221TIP3    H231299   2.734   5.365   8.209 -0.2956 -3.0067 -0.4055
 3222TIP3   OH231300   5.783   6.196   1.415  0.3839  0.4012  0.6049
 3222TIP3    H131301   5.848   6.263   1.437  0.7019  0.3862 -0.2431
 3222TIP3    H231302   5.781   6.139   1.492  0.9341  0.7483  0.8890
 3223TIP3   OH231303   4.905   4.985   7.817  0.0793  0.3386 -0.2313
 3223TIP3    H131304   4.929   4.988   7.910 -1.1092  0.2818  0.1049
 3223TIP3    H231305   4.885   4.893   7.801  1.3050  0.1620 -0.8399
 3224TIP3   OH231306   6.258   3.724   0.195 -0.0918  0.3419 -0.5335
 3224TIP3    H131307   6.280   3.725   0.288  1.6193  1.8653 -0.9163
 3224TIP3    H231308   6.173   3.769   0.190 -0.2070  0.2264  0.2802
 3225TIP3   OH231309   4.459   5.969   6.981  0.0814 -0.2789  0.1578
 3225TIP3    H131310   4.405   6.039   6.945 -0.1207  0.4310  1.7908
 3225TIP3    H231311   4.537   5.968   6.925 -0.8506 -0.2206 -1.2041
 3226TIP3   OH231312   3.405   5.112   0.813  0.0372 -0.0486 -0.2335
 3226TIP3    H131313   3.324   5.154   0.841  0.2343 -0.6580  1.4002
 3226TIP3    H231314   3.474   5.172   0.840  0.1518  0.7139 -2.0875
 3227TIP3   OH231315   5.829   5.280   2.283 -0.2585  0.2468  0.0688
 3227TIP3    H131316   5.860   5.290   2.373 -1.1660  0.3311  0.3782
 3227TIP3    H231317   5.847   5.189   2.261  1.1950  0.5524 -0.1519
 3228TIP3   OH231318   2.390   0.914   0.054 -0.5356 -0.4250 -0.4169
 3228TIP3    H131319   2.439   0.954   0.127  0.2277  0.6925 -1.5027
 3228TIP3    H231320   2.435   0.944  -0.024 -1.2475 -1.7473 -1.3663
 3229TIP3   OH231321   1.678   5.214   8.140  0.4930 -0.0705 -0.2055
 3229TIP3    H131322   1.726   5.172   8.212 -0.1248  0.8574  0.7654
 3229TIP3    H231323   1.736   5.204   8.064  2.0418  0.6372  0.8342
 3230TIP3   OH231324   1.410   1.043   8.557  0.5196  0.3210 -0.1957
 3230TIP3    H131325   1.401   1.138   8.551 -1.0897  0.1480 -0.9781
 3230TIP3    H231326   1.497   1.025   8.521  1.5497  1.6066  1.4802
 3231TIP3   OH231327   1.083   3.943   8.441 -0.0013  0.9170 -0.0328
 3231TIP3    H131328   1.144   3.872   8.424 -0.2480  0.7998 -0.4392
 3231TIP3    H231329   1.021   3.940   8.368 -0.9468  0.5437  0.7621
 3232TIP3   OH231330   5.907   1.318   0.552  0.1813  0.4939 -0.1411
 3232TIP3    H131331   5.912   1.287   0.462  0.4953 -0.5603  0.2216
 3232TIP3    H231332   5.826   1.370   0.555  0.2272  0.6247 -1.0483
 3233TIP3   OH231333   3.585   3.502   1.304 -0.1900  0.4217 -0.1789
 3233TIP3    H131334   3.527   3.526   1.376  1.7776 -0.8450  1.9771
 3233TIP3    H231335   3.543   3.425   1.265  0.0363 -0.6102  1.4824
 3234TIP3   OH231336   0.984   1.123   8.371  0.5032  0.1196 -0.1904
 3234TIP3    H131337   1.027   1.038   8.382 -2.2366 -1.4499 -0.7037
 3234TIP3    H231338   1.009   1.152   8.283  1.2213 -0.2629 -0.1209
 3235TIP3   OH231339   2.230   4.067   8.465 -0.2575  0.5762 -0.3520
 3235TIP3    H131340   2.210   4.067   8.372 -0.1420  0.4859 -0.3759
 3235TIP3    H231341   2.322   4.092   8.471  0.5545 -2.1086 -0.4231
 3236TIP3   OH231342   0.346   2.601   0.830  0.0899 -0.0298 -0.3294
 3236TIP3    H131343   0.258   2.578   0.799  0.3840  0.1659 -1.3499
 3236TIP3    H231344   0.392   2.632   0.751  0.6110  1.2811  0.4506
 3237TIP3   OH231345   2.414   5.404   6.858  0.5451  0.1396  0.0507
 3237TIP3    H131346   2.372   5.482   6.821  1.1075  0.7638  0.6849
 3237TIP3    H231347   2.498   5.436   6.892  0.2359 -0.4812  1.4805
 3238TIP3   OH231348   1.200   3.757   8.180 -0.0113 -0.2696 -0.6801
 3238TIP3    H131349   1.220   3.849   8.165 -1.6383  0.5614  1.7273
 3238TIP3    H231350   1.121   3.741   8.127 -0.4435  0.0911 -0.1570
 3239TIP3   OH231351   4.815   2.952   7.352 -0.5241  0.3850  0.2326
 3239TIP3    H131352   4.898   2.953   7.305 -0.8293 -0.3930 -0.3591
 3239TIP3    H231353   4.831   2.895   7.427 -0.7092 -0.3899 -0.2912
 3240TIP3   OH231354   4.610   4.124   1.184 -0.0615 -0.1392  0.2132
 3240TIP3    H131355   4.691   4.105   1.137  0.8614 -1.3716  2.1778
 3240TIP3    H231356   4.588   4.213   1.159  2.0859  0.3493 -0.1132
 3241TIP3   OH231357   4.369   4.079   0.857 -0.4132  0.5953  0.7047
 3241TIP3    H131358   4.387   4.001   0.805 -2.0715  0.6901 -0.0546
 3241TIP3    H231359   4.313   4.048   0.928  2.2493  0.3622  2.8612
 3242TIP3   OH231360   4.535   6.529   2.354 -0.3085  0.4416 -0.1131
 3242TIP3    H131361   4.442   6.523   2.335  0.1015  1.9659 -3.2192
 3242TIP3    H231362   4.546   6.617   2.391  0.2072  1.7766 -3.0982
 3243TIP3   OH231363   5.255   0.892   2.220  0.1334 -0.0669 -0.5255
 3243TIP3    H131364   5.263   0.845   2.137 -0.7647 -0.7396 -0.2477
 3243TIP3    H231365   5.292   0.832   2.285 -0.0197  0.0665 -0.3147
 3244TIP3   OH231366   4.727   2.529   0.610  0.7282  0.6684  0.8027
 3244TIP3    H131367   4.698   2.564   0.526 -1.0737  1.0390  1.5485
 3244TIP3    H231368   4.809   2.484   0.589 -0.6210 -0.9327 -1.5426
 3245TIP3   OH231369   1.255   1.644   2.408  0.1383  0.4091 -0.1090
 3245TIP3    H131370   1.261   1.705   2.481 -0.4224  0.0104  0.2820
 3245TIP3    H231371   1.345   1.611   2.397  0.1750  0.2603  0.5873
 3246TIP3   OH231372   3.748   3.631   7.621 -0.5288  0.5084  0.4236
 3246TIP3    H131373   3.674   3.590   7.576 -1.3708  1.9074  0.4630
 3246TIP3    H231374   3.776   3.701   7.562 -0.1058  0.8622  1.0266
 3247TIP3   OH231375   5.905   6.750   1.613 -0.2990  0.6486 -0.1639
 3247TIP3    H131376   5.958   6.677   1.643 -0.3771  1.5772  2.4739
 3247TIP3    H231377   5.818   6.713   1.598  0.4388 -0.4070 -2.2261
 3248TIP3   OH231378   0.023   3.937   0.045 -0.0724 -0.4366 -0.0802
 3248TIP3    H131379  -0.005   3.908   0.132  0.4687 -4.0687 -0.9924
 3248TIP3    H231380  -0.049   3.993   0.014 -0.0322  1.4546  2.8165
 3249TIP3   OH231381   5.645   1.152   0.121 -0.0914 -0.4142  0.5267
 3249TIP3    H131382   5.626   1.065   0.086 -1.0734 -1.0271  2.4612
 3249TIP3    H231383   5.559   1.191   0.136  0.3383  0.6986  0.1704
 3250TIP3   OH231384   2.084   6.442   0.055  0.3502  0.0068  0.6872
 3250TIP3    H131385   2.073   6.348   0.072  0.6651 -0.0899  0.3687
 3250TIP3    H231386   1.996   6.474   0.037  0.4550 -0.6159 -1.1776
 3251TIP3   OH231387   1.648   5.561   0.524 -0.1116  0.2753 -0.5916
 3251TIP3    H131388   1.738   5.549   0.495 -0.1168 -1.5313  0.0237
 3251TIP3    H231389   1.653   5.562   0.619 -0.7981 -0.4436 -0.5390
 3252TIP3   OH231390   3.721   6.189   0.810 -0.2397 -0.1939 -0.0010
 3252TIP3    H131391   3.786   6.130   0.849 -1.4792 -0.0438  2.5126
 3252TIP3    H231392   3.644   6.134   0.796 -0.2218  0.0506 -1.1690
 3253TIP3   OH231393   2.196   0.066   7.613  0.6035  0.0690  0.1255
 3253TIP3    H131394   2.140  -0.010   7.599 -1.0273  1.0497  1.0730
 3253TIP3    H231395   2.226   0.057   7.704  0.6095  0.4355  0.1601
 3254TIP3   OH231396   5.842   6.886   6.599 -0.4761 -0.5848  0.1392
 3254TIP3    H131397   5.844   6.977   6.629  1.7693 -1.1874  2.1652
 3254TIP3    H231398   5.927   6.873   6.557  0.2309 -2.3314  1.9878
 3255TIP3   OH231399   4.061   3.049   8.130 -0.0971  0.2058  0.0050
 3255TIP3    H131400   4.066   3.100   8.210 -1.7913  0.7886 -0.2161
 3255TIP3    H231401   4.067   2.958   8.160  5.4613  0.2896  0.2015
 3256TIP3   OH231402   1.388   4.554   1.806 -0.1196 -0.3723 -0.0355
 3256TIP3    H131403   1.396   4.540   1.900 -2.2167  1.9550  0.6048
 3256TIP3    H231404   1.317   4.496   1.779 -1.1445  0.6472  0.3603
 3257TIP3   OH231405   6.703   3.912   0.832  0.5149 -0.4840 -0.1764
 3257TIP3    H131406   6.787   3.923   0.876  0.4737 -1.2522  0.1224
 3257TIP3    H231407   6.641   3.962   0.884  1.3533  3.2973 -2.4725
 3258TIP3   OH231408   3.433   3.868   1.981 -0.0733 -1.0867  0.2842
 3258TIP3    H131409   3.388   3.882   2.064 -1.4926 -0.2163 -0.5869
 3258TIP3    H231410   3.365   3.836   1.922  0.5541 -0.2402 -0.9426
 3259TIP3   OH231411   0.513   5.690   0.797 -0.1800 -0.0661  0.3912
 3259TIP3    H131412   0.429   5.734   0.786  1.2768  2.6184 -1.3645
 3259TIP3    H231413   0.555   5.736   0.870  0.4455 -0.1126  0.0708
 3260TIP3   OH231414   3.378   6.677   1.841  0.0034 -0.4857  0.1899
 3260TIP3    H131415   3.351   6.597   1.796 -0.4649 -0.1337 -0.1604
 3260TIP3    H231416   3.424   6.728   1.775 -0.9117  0.1468  0.0276
 3261TIP3   OH231417   0.796   5.938   1.742 -0.0198 -0.2331 -0.1864
 3261TIP3    H131418   0.840   5.873   1.797  0.6704  0.0938 -0.3423
 3261TIP3    H231419   0.760   5.887   1.670 -0.8407 -0.6499  0.5039
 3262TIP3   OH231420   1.568   5.382   2.750  0.0255 -0.2412  0.5833
 3262TIP3    H131421   1.662   5.400   2.742 -0.2147  0.3162 -1.7677
 3262TIP3    H231422   1.564   5.290   2.776  1.2090 -0.0901  1.4128
 3263TIP3   OH231423   2.058   2.581   7.618  0.3475  0.0791 -0.6647
 3263TIP3    H131424   2.102   2.621   7.543  1.5449 -2.1782 -1.2782
 3263TIP3    H231425   2.123   2.585   7.689 -0.1968  0.8070 -0.1943
 3264TIP3   OH231426   5.164   6.775   8.267  0.0151 -0.5373 -0.3537
 3264TIP3    H131427   5.219   6.849   8.292 -1.0019  0.7431 -1.7255
 3264TIP3    H231428   5.189   6.705   8.328  1.2087  0.8220  0.8000
 3265TIP3   OH231429   1.506   4.893   1.188 -0.5138  0.4374 -0.7352
 3265TIP3    H131430   1.459   4.810   1.201  0.5725  0.0603  1.3294
 3265TIP3    H231431   1.575   4.872   1.126 -0.7417  0.0129 -0.8530
 3266TIP3   OH231432   4.185   4.266   0.580  0.2766  0.3744 -0.0286
 3266TIP3    H131433   4.179   4.182   0.626 -0.2871  0.6066  0.3365
 3266TIP3    H231434   4.104   4.312   0.604  1.0576  1.4513  0.6407
 3267TIP3   OH231435   0.480   4.746   8.528 -0.3954  0.1439  0.4102
 3267TIP3    H131436   0.546   4.705   8.585 -1.3089 -0.9760  0.6932
 3267TIP3    H231437   0.530   4.807   8.474  0.7268  0.0579  1.3186
 3268TIP3   OH231438   0.761   4.700   0.522  0.0860 -0.1544 -0.0888
 3268TIP3    H131439   0.733   4.760   0.591 -1.4432 -0.9846  0.0634
 3268TIP3    H231440   0.682   4.650   0.501  1.4690 -2.6187  0.3023
 3269TIP3   OH231441   4.806   4.307   0.650  0.1047  0.1219  0.4103
 3269TIP3    H131442   4.870   4.284   0.717  0.3204 -0.9838 -0.1419
 3269TIP3    H231443   4.858   4.329   0.573 -0.1457  1.1227  0.5233
 3270TIP3   OH231444   3.964   1.171   0.698  0.2748  0.1205 -0.2680
 3270TIP3    H131445   3.884   1.121   0.683 -0.4618  1.1448  0.1120
 3270TIP3    H231446   4.034   1.114   0.668 -0.3456 -1.9316  1.8856
 3271TIP3   OH231447   1.565   1.140   7.259 -0.0578 -0.0308  0.4632
 3271TIP3    H131448   1.481   1.184   7.248  0.3802  0.8844  0.7039
 3271TIP3    H231449   1.569   1.077   7.186 -0.3923  0.8126 -0.2992
 3272TIP3   OH231450   2.622   1.606   1.096  0.1518  0.5812 -0.2269
 3272TIP3    H131451   2.687   1.538   1.116  0.9896  1.2689 -0.5588
 3272TIP3    H231452   2.546   1.558   1.063  0.9283 -0.1671 -0.9772
 3273TIP3   OH231453   2.122   5.701   1.115  0.2033 -0.0471  0.0653
 3273TIP3    H131454   2.032   5.722   1.141 -0.2782 -1.5485 -0.3331
 3273TIP3    H231455   2.176   5.760   1.168 -1.0325  1.5848 -0.4220
 3274TIP3   OH231456   2.891   1.561   0.004 -0.6542  0.5434  1.0894
 3274TIP3    H131457   2.969   1.616  -0.003  0.7311 -1.4052  0.6855
 3274TIP3    H231458   2.860   1.574   0.094  0.8299  0.4463  1.6300
 3275TIP3   OH231459   1.171   1.677   1.086  0.0843 -0.0588 -0.1853
 3275TIP3    H131460   1.096   1.726   1.052  1.1557  2.9217  1.4330
 3275TIP3    H231461   1.203   1.628   1.011 -1.8148  0.7348 -1.6110
 3276TIP3   OH231462   5.848   4.191   7.763  0.4648  0.4813  0.7733
 3276TIP3    H131463   5.864   4.249   7.688  0.2479  0.8483  1.0071
 3276TIP3    H231464   5.875   4.105   7.733 -0.6337  0.4193 -0.1094
 3277TIP3   OH231465   2.883   1.765   0.833 -0.3628 -0.1667 -0.1897
 3277TIP3    H131466   2.977   1.750   0.821  0.1375  1.6750  1.0952
 3277TIP3    H231467   2.863   1.842   0.781 -1.1409 -0.4208 -0.2879
 3278TIP3   OH231468   0.600   5.865   8.134 -0.1648  0.2067  0.1243
 3278TIP3    H131469   0.520   5.909   8.163 -0.1234  0.5557 -0.2678
 3278TIP3    H231470   0.633   5.821   8.212 -0.0761  1.0795  0.5988
 3279TIP3   OH231471   0.444   2.656   0.013  0.1589 -0.5249  0.3102
 3279TIP3    H131472   0.397   2.610   0.083  0.3031  0.1225  0.8334
 3279TIP3    H231473   0.523   2.690   0.055  0.5696 -0.6792 -0.3173
 3280TIP3   OH231474   6.867   5.603   2.358  0.3487  0.6855 -0.2810
 3280TIP3    H131475   6.950   5.557   2.353 -0.2897 -0.6083  0.4497
 3280TIP3    H231476   6.891   5.695   2.366  1.7756  0.2354  1.4494
 3281TIP3   OH231477   0.288   3.519   8.079 -0.3406 -0.3088  0.2883
 3281TIP3    H131478   0.326   3.485   7.998 -1.4624 -1.7122  0.3188
 3281TIP3    H231479   0.202   3.551   8.055  0.2369  1.4787  0.5013
 3282TIP3   OH231480   4.873   1.758   1.377 -0.2854  0.3155  0.3226
 3282TIP3    H131481   4.881   1.703   1.455 -1.8898 -0.0078  0.2903
 3282TIP3    H231482   4.879   1.847   1.410  0.5024  0.1596  0.6178
 3283TIP3   OH231483   3.966   5.621   2.133  0.6822 -0.4392  0.3616
 3283TIP3    H131484   3.937   5.533   2.156 -0.0000 -1.0909 -2.5865
 3283TIP3    H231485   4.061   5.619   2.146  0.9890 -2.3514 -1.6543
 3284TIP3   OH231486   0.382   1.794   1.733  0.4068  0.3885  0.1437
 3284TIP3    H131487   0.290   1.766   1.734  0.0656  1.3722 -1.0303
 3284TIP3    H231488   0.429   1.723   1.778 -0.8915 -0.2113  0.6173
 3285TIP3   OH231489   5.456   2.887   8.108  0.4859 -0.2137  0.0692
 3285TIP3    H131490   5.485   2.821   8.045  2.6315  0.9633 -0.2783
 3285TIP3    H231491   5.451   2.840   8.191  0.6144 -1.0977 -0.4023
 3286TIP3   OH231492   6.811   0.905   0.135  0.1234 -0.4651 -0.7037
 3286TIP3    H131493   6.728   0.911   0.087  0.6798  2.2100 -1.5040
 3286TIP3    H231494   6.787   0.915   0.227 -0.4812 -0.4388 -0.8607
 3287TIP3   OH231495   2.162   3.622   1.029  0.1933 -0.0993  0.2693
 3287TIP3    H131496   2.243   3.589   1.067  0.0712 -0.5080  0.1773
 3287TIP3    H231497   2.096   3.610   1.097 -0.0505 -0.9458 -0.1073
 3288TIP3   OH231498   3.949   1.796   0.837  0.5246 -0.7342 -0.1739
 3288TIP3    H131499   3.988   1.772   0.753  0.1779 -0.5186 -0.3944
 3288TIP3    H231500   4.000   1.745   0.901  1.3247 -0.2793 -0.4323
 3289TIP3   OH231501   6.773   3.954   0.563  0.4183 -0.0452 -0.2128
 3289TIP3    H131502   6.744   3.968   0.653  1.2089 -0.4333  0.1109
 3289TIP3    H231503   6.694   3.929   0.516  0.2929 -1.5819  0.7601
 3290TIP3   OH231504   5.049   0.076   6.902  0.2494  0.3151 -0.2861
 3290TIP3    H131505   5.043   0.095   6.808 -0.6625 -3.8484 -1.3209
 3290TIP3    H231506   5.139   0.046   6.914 -0.0891 -0.7376 -0.2711
 3291TIP3   OH231507   3.527   4.726   1.781  0.0279  0.0361  0.1904
 3291TIP3    H131508   3.454   4.700   1.724 -0.5769 -2.1403  1.8335
 3291TIP3    H231509   3.507   4.686   1.866  3.2790 -1.0026  0.6156
 3292TIP3   OH231510   5.972   3.848   7.184  0.7189  0.0786  0.7115
 3292TIP3    H131511   5.926   3.807   7.111 -1.3078  0.8404  1.4764
 3292TIP3    H231512   6.052   3.885   7.146 -0.8195  1.4660 -1.3571
 3293TIP3   OH231513   0.056   3.014   1.162 -0.0832  0.0812 -0.3556
 3293TIP3    H131514   0.016   3.101   1.166 -0.8846 -0.2143  4.1205
 3293TIP3    H231515  -0.017   2.955   1.146 -0.3651  0.0103  1.0460
 3294TIP3   OH231516   1.541   2.994   0.011  0.1309 -0.2927 -0.3267
 3294TIP3    H131517   1.610   3.035   0.064  0.4586 -0.3773 -0.6791
 3294TIP3    H231518   1.550   3.034  -0.076 -0.6013  0.0689 -0.2424
 3295TIP3   OH231519   6.110   3.456   1.527  0.0128 -0.6476  0.0930
 3295TIP3    H131520   6.192   3.420   1.560 -0.8731 -2.1588  0.7506
 3295TIP3    H231521   6.061   3.481   1.606 -1.9433 -3.8985  0.0849
 3296TIP3   OH231522   0.070   5.098   0.777 -0.2806  0.1689  0.2288
 3296TIP3    H131523  -0.004   5.082   0.719 -0.4713 -0.6221  0.6872
 3296TIP3    H231524   0.050   5.183   0.817 -0.8412  0.0494  0.2107
 3297TIP3   OH231525   5.116   1.010   7.327 -0.4336  0.1359  0.4821
 3297TIP3    H131526   5.096   1.004   7.234  0.4105  2.0511  0.1243
 3297TIP3    H231527   5.041   1.055   7.365  0.1243  1.2146  0.3390
 3298TIP3   OH231528   0.438   2.188   8.403 -0.1841  0.0288  0.1720
 3298TIP3    H131529   0.364   2.129   8.413  0.1217 -0.4890 -0.5204
 3298TIP3    H231530   0.406   2.273   8.433 -1.1677 -0.1073 -0.4712
 3299TIP3   OH231531   5.682   1.471   0.515  0.5606  0.1087 -0.1788
 3299TIP3    H131532   5.717   1.544   0.463 -1.7800  2.2142  1.0309
 3299TIP3    H231533   5.595   1.455   0.478 -0.3114  0.2500  1.7285
 3300TIP3   OH231534   2.787   1.454   2.037 -0.3781  0.2149  0.8779
 3300TIP3    H131535   2.822   1.486   2.120 -1.0539  1.0839  0.8366
 3300TIP3    H231536   2.837   1.374   2.020  1.3323  1.2104  0.9992
 3301TIP3   OH231537   5.406   6.501   7.347  0.3975 -0.0314  0.6051
 3301TIP3    H131538   5.491   6.532   7.380  0.6083 -0.7367  0.7379
 3301TIP3    H231539   5.427   6.454   7.267  0.1827 -0.5627  0.8549
 3302TIP3   OH231540   1.467   5.247   6.334 -0.1718 -0.4789  0.3457
 3302TIP3    H131541   1.418   5.296   6.401 -1.4545  0.5745 -1.2940
 3302TIP3    H231542   1.439   5.156   6.347 -3.4832  0.1768 -1.1400
 3303TIP3   OH231543   0.382   4.879   0.160 -0.0452 -0.3329 -0.4079
 3303TIP3    H131544   0.366   4.827   0.081 -1.2422  0.7599 -0.9217
 3303TIP3    H231545   0.476   4.873   0.174 -0.0522 -1.9956 -0.8827
 3304TIP3   OH231546   0.325   3.818   7.159  0.0572 -0.4923  0.1160
 3304TIP3    H131547   0.277   3.744   7.123 -0.5803 -0.5825  1.1115
 3304TIP3    H231548   0.325   3.803   7.253 -0.6466  1.0893  0.4078
 3305TIP3   OH231549   0.044   5.175   1.260  0.1790 -0.0811  0.4523
 3305TIP3    H131550   0.077   5.159   1.349  0.5250  1.3023  0.5893
 3305TIP3    H231551   0.112   5.139   1.203 -0.3655 -1.6160  0.7088
 3306TIP3   OH231552   0.946   4.491   7.947 -0.1835 -0.9351  0.0665
 3306TIP3    H131553   1.006   4.423   7.977  0.0896 -0.5438  0.4294
 3306TIP3    H231554   0.997   4.542   7.884 -0.2098 -0.7363  0.2065
 3307TIP3   OH231555   3.183   4.007   7.393  0.3119  0.4973 -0.8118
 3307TIP3    H131556   3.201   4.060   7.315 -0.2458 -0.6054 -1.7274
 3307TIP3    H231557   3.151   3.924   7.358 -0.6715  0.2380  0.6202
 3308TIP3   OH231558   1.653   6.855   8.158 -0.2927 -0.4139  0.0236
 3308TIP3    H131559   1.728   6.810   8.119 -0.8769 -0.5803 -0.9384
 3308TIP3    H231560   1.598   6.880   8.083 -0.9722  0.1180  0.6786
 3309TIP3   OH231561   2.642   4.753   2.112  0.1218  0.2296 -0.8856
 3309TIP3    H131562   2.668   4.824   2.053 -0.0576  1.6480  0.6738
 3309TIP3    H231563   2.546   4.753   2.109  0.0244  1.6156  0.8118
 3310TIP3   OH231564   4.547   1.959   7.414  0.0111 -0.4267  0.8760
 3310TIP3    H131565   4.498   2.008   7.348 -1.3676 -1.8399  0.7874
 3310TIP3    H231566   4.555   1.871   7.378  1.5303 -0.5708  1.4836
 3311TIP3   OH231567   2.481   4.797   1.447 -0.2538 -0.0139  0.3138
 3311TIP3    H131568   2.536   4.821   1.372  1.9074  0.7178  2.0262
 3311TIP3    H231569   2.421   4.871   1.458  0.5448  0.6391  0.3079
 3312TIP3   OH231570   1.852   2.630   1.473  0.6185 -0.2359 -0.0342
 3312TIP3    H131571   1.840   2.685   1.550 -0.0811 -0.2547 -0.1243
 3312TIP3    H231572   1.777   2.571   1.473  0.0913  0.3860 -1.2386
 3313TIP3   OH231573   2.351   5.461   0.828 -0.3679 -0.0901 -0.8322
 3313TIP3    H131574   2.327   5.421   0.745  2.2027 -1.3506 -1.0414
 3313TIP3    H231575   2.347   5.556   0.811 -0.9874 -0.3199 -2.0245
 3314TIP3   OH231576   1.207   5.572   7.244 -0.3660 -0.2276 -0.5600
 3314TIP3    H131577   1.229   5.489   7.286 -0.2790 -0.0848 -0.3230
 3314TIP3    H231578   1.178   5.629   7.316 -0.3042 -0.0118 -0.7029
 3315TIP3   OH231579   1.301   0.906   0.410 -0.0990  0.1012  0.3768
 3315TIP3    H131580   1.271   0.840   0.349 -0.4538 -0.3514  1.0225
 3315TIP3    H231581   1.269   0.876   0.495 -2.5885  2.4026  0.3767
 3316TIP3   OH231582   0.521   4.914   2.044 -0.1201 -0.1627 -0.4531
 3316TIP3    H131583   0.484   4.826   2.057 -2.4253  0.7626 -0.4216
 3316TIP3    H231584   0.601   4.914   2.098 -1.7312 -1.2185  2.1398
 3317TIP3   OH231585   4.972   4.751   2.241  0.2218 -0.2563 -0.2110
 3317TIP3    H131586   4.978   4.821   2.176 -1.7582 -1.3021 -1.6259
 3317TIP3    H231587   5.010   4.789   2.321 -1.4178  2.6994 -0.6910
 3318TIP3   OH231588   2.998   6.163   7.279  0.0366  0.4778 -0.5032
 3318TIP3    H131589   3.006   6.200   7.366 -1.6545  0.3892 -0.2764
 3318TIP3    H231590   2.980   6.238   7.222  0.0695  0.4149 -0.5970
 3319TIP3   OH231591   0.015   1.413   0.455  0.0898  0.2573  0.1197
 3319TIP3    H131592  -0.042   1.489   0.458  0.4137  0.6334 -1.7672
 3319TIP3    H231593  -0.018   1.355   0.523 -1.9348  0.8632 -0.2818
 3320TIP3   OH231594   0.127   2.180   1.573 -0.1043 -0.2828  0.0366
 3320TIP3    H131595   0.222   2.185   1.568 -0.0742 -0.3960  0.4624
 3320TIP3    H231596   0.109   2.120   1.645 -0.4992 -0.4685 -0.2115
 3321TIP3   OH231597   4.334   5.989   0.131  0.2319 -0.1844  0.2461
 3321TIP3    H131598   4.278   5.959   0.202  0.6402 -1.2546  0.1334
 3321TIP3    H231599   4.423   5.965   0.159  0.3498 -1.1055 -0.8342
 3322TIP3   OH231600   3.397   6.499   8.600 -0.1165 -0.0980  0.4799
 3322TIP3    H131601   3.413   6.580   8.551 -0.4829 -0.3738 -0.1146
 3322TIP3    H231602   3.478   6.483   8.647  0.1955  0.2688  0.0780
 3323TIP3   OH231603   2.356   5.315   1.095  0.3890  0.1777  0.0227
 3323TIP3    H131604   2.439   5.294   1.138  0.6692  0.6195 -0.2949
 3323TIP3    H231605   2.381   5.365   1.018 -0.0374 -1.4534 -1.2337
 3324TIP3   OH231606   4.287   6.737   1.560  0.0814 -1.1149  0.0216
 3324TIP3    H131607   4.205   6.700   1.528  0.0419 -1.6186  0.6986
 3324TIP3    H231608   4.274   6.832   1.557 -0.2692 -1.1786 -0.5306
 3325TIP3   OH231609   3.553   2.706   1.843 -0.2298  0.6848 -0.0870
 3325TIP3    H131610   3.554   2.783   1.900 -2.7299  1.6856 -1.2535
 3325TIP3    H231611   3.558   2.632   1.903 -1.9813  1.7101  1.4458
 3326TIP3   OH231612   4.995   0.702   7.241 -0.0318 -0.0306  0.0402
 3326TIP3    H131613   5.074   0.736   7.201 -0.5046  2.9176  1.3376
 3326TIP3    H231614   4.925   0.759   7.209 -1.8490 -2.8072 -1.4403
 3327TIP3   OH231615   2.413   0.890   2.019  0.1620 -0.5473 -0.0277
 3327TIP3    H131616   2.364   0.884   2.102  0.0804 -0.7641 -0.0905
 3327TIP3    H231617   2.348   0.868   1.952  0.0455  0.3093 -0.2115
 3328TIP3   OH231618   6.902   1.938   7.818  0.1650  0.4444 -0.0288
 3328TIP3    H131619   6.979   1.884   7.837 -0.3391 -0.4835 -0.5246
 3328TIP3    H231620   6.845   1.925   7.893 -1.5707 -2.7535 -1.6662
 3329TIP3   OH231621   1.222   4.028   8.138  0.2109 -0.0163 -0.5177
 3329TIP3    H131622   1.236   4.036   8.043  1.7717 -1.4499 -0.4488
 3329TIP3    H231623   1.266   4.104   8.175 -2.3650  1.8651 -1.0037
 3330TIP3   OH231624   3.134   1.719   0.709  0.0513 -0.1215 -0.1618
 3330TIP3    H131625   3.178   1.654   0.764  0.5081  0.1645 -0.1873
 3330TIP3    H231626   3.204   1.777   0.679 -0.2809  0.0830 -0.5539
 3331TIP3   OH231627   6.465   6.077   2.578  0.7721 -0.2794 -0.5962
 3331TIP3    H131628   6.509   6.024   2.511 -1.2145  0.4047 -2.5814
 3331TIP3    H231629   6.445   6.159   2.533 -1.4755 -0.1331  0.5318
 3332TIP3   OH231630   4.765   6.518   1.872  0.0750 -0.5436 -0.0264
 3332TIP3    H131631   4.821   6.463   1.817  0.9047 -0.7243  0.9787
 3332TIP3    H231632   4.735   6.459   1.941 -0.9169 -0.3012 -0.2280
 3333TIP3   OH231633   2.088   4.583   2.696  0.1857  0.2880 -0.5798
 3333TIP3    H131634   2.034   4.607   2.621 -0.1698  0.7116 -0.1897
 3333TIP3    H231635   2.040   4.513   2.739  0.3664  0.0787 -0.7153
 3334TIP3   OH231636   0.288   5.314   1.068 -0.1295 -0.2075  0.5191
 3334TIP3    H131637   0.266   5.223   1.048 -3.1159  0.7321 -1.1277
 3334TIP3    H231638   0.295   5.357   0.982 -0.4631  1.4319  1.2581
 3335TIP3   OH231639   2.693   5.165   0.368  0.5392 -0.0987 -0.4649
 3335TIP3    H131640   2.759   5.141   0.303  1.6717 -1.9533  1.2271
 3335TIP3    H231641   2.717   5.253   0.396  0.7924  0.2116 -1.5956
 3336TIP3   OH231642   6.423   6.623   2.040  0.3643 -0.0270 -0.0174
 3336TIP3    H131643   6.418   6.530   2.064  1.2713 -0.1413 -0.2314
 3336TIP3    H231644   6.463   6.665   2.115  2.0327 -0.1850 -0.7641
 3337TIP3   OH231645   6.286   1.364   8.092  0.0309  0.6392  0.2636
 3337TIP3    H131646   6.291   1.443   8.038 -0.9123 -0.0710 -0.9119
 3337TIP3    H231647   6.210   1.378   8.149  0.1278  0.7538  0.3669
 3338TIP3   OH231648   6.450   4.410   7.136 -0.1574 -0.9668  0.2346
 3338TIP3    H131649   6.501   4.371   7.206 -0.0788 -1.6693 -0.2030
 3338TIP3    H231650   6.469   4.503   7.141  0.5687 -1.1291  0.5554
 3339TIP3   OH231651   2.157   6.870   1.620  0.2957 -0.3803 -0.2459
 3339TIP3    H131652   2.074   6.832   1.590  0.6816 -1.4328 -0.0201
 3339TIP3    H231653   2.150   6.962   1.597 -0.7920 -0.5218 -0.5607
 3340TIP3   OH231654   1.982   4.216   7.732  0.0139  0.0641 -0.6852
 3340TIP3    H131655   2.036   4.146   7.770  1.8340  0.2531 -2.6740
 3340TIP3    H231656   1.920   4.170   7.676 -0.8986 -0.0825  0.4257
 3341TIP3   OH231657   6.602   6.169   0.778 -0.0093 -0.5217  0.2396
 3341TIP3    H131658   6.568   6.217   0.854 -0.2715  1.1990 -0.9352
 3341TIP3    H231659   6.525   6.124   0.742 -0.1270 -0.3239  0.2465
 3342TIP3   OH231660   6.823   2.307   0.171 -0.2289  0.8200 -0.5444
 3342TIP3    H131661   6.752   2.302   0.235 -1.4246  3.2353 -1.5335
 3342TIP3    H231662   6.888   2.244   0.201 -2.3760 -0.8270  0.9290
 3343TIP3   OH231663   0.997   3.335   8.267 -0.2126  0.1032 -0.2998
 3343TIP3    H131664   1.071   3.293   8.310  0.3648 -0.1445 -1.4991
 3343TIP3    H231665   1.019   3.333   8.174 -0.3932  2.5903 -0.4639
 3344TIP3   OH231666   0.703   1.775   7.412  0.3843  0.2077 -0.8024
 3344TIP3    H131667   0.713   1.839   7.483 -0.4298  0.4379 -0.8860
 3344TIP3    H231668   0.793   1.754   7.386  0.6617  1.4249 -0.8673
 3345TIP3   OH231669   6.748   6.255   7.751 -0.5332  0.4457  0.3093
 3345TIP3    H131670   6.777   6.171   7.716  0.2947  0.6288  0.5164
 3345TIP3    H231671   6.739   6.311   7.673 -0.3124  0.3875  0.2402
 3346TIP3   OH231672   3.097   5.308   7.674  0.0903  0.1625  0.0964
 3346TIP3    H131673   3.161   5.374   7.647 -0.3546  0.7334  0.4074
 3346TIP3    H231674   3.122   5.284   7.763  0.4512 -0.3442 -0.1370
 3347TIP3   OH231675   3.685   5.214   1.273 -0.3185 -0.2763 -0.1322
 3347TIP3    H131676   3.708   5.296   1.231 -0.4082 -0.0789  0.1948
 3347TIP3    H231677   3.699   5.147   1.206  1.4085 -0.2066  0.1167
 3348TIP3   OH231678   5.104   2.468   1.254  0.8636  0.5933 -0.3610
 3348TIP3    H131679   5.117   2.555   1.292 -0.5162  0.3748  0.7135
 3348TIP3    H231680   5.037   2.428   1.309  0.4312 -0.6156 -1.7027
 3349TIP3   OH231681   2.353   1.210   7.920  0.2145 -0.4478 -0.5730
 3349TIP3    H131682   2.272   1.190   7.874 -1.1297  2.0581  0.5054
 3349TIP3    H231683   2.414   1.238   7.851 -0.8593  0.5910 -1.1222
 3350TIP3   OH231684   3.666   5.051   8.308  0.3597  0.0337 -0.9882
 3350TIP3    H131685   3.588   5.052   8.253  0.7700 -0.2001 -1.5848
 3350TIP3    H231686   3.633   5.047   8.398 -0.3709  2.5884 -1.0749
 3351TIP3   OH231687   3.890   4.003   0.506 -0.1915 -0.4222  0.0356
 3351TIP3    H131688   3.934   4.052   0.437 -0.6843  1.5252  1.0135
 3351TIP3    H231689   3.850   3.928   0.462  0.6023  0.0565 -1.5453
 3352TIP3   OH231690   0.457   5.698   1.125  0.2713  0.0697 -0.3276
 3352TIP3    H131691   0.550   5.703   1.146  0.3536 -1.7916 -0.0951
 3352TIP3    H231692   0.419   5.646   1.196 -0.9060  0.5706 -0.5639
 3353TIP3   OH231693   2.945   3.983   7.132  0.4972  0.2466  0.0277
 3353TIP3    H131694   2.874   3.949   7.078  0.5406  1.1676 -0.6250
 3353TIP3    H231695   2.970   3.909   7.188  1.4057 -1.2055 -2.1472
 3354TIP3   OH231696   6.376   3.848   7.208 -0.3894 -0.1399  0.4235
 3354TIP3    H131697   6.338   3.922   7.256  0.1883  0.7247 -0.4063
 3354TIP3    H231698   6.408   3.789   7.276 -2.2945 -0.4241  1.1248
 3355TIP3   OH231699   3.072   0.645   0.541 -0.3283  0.5069 -0.0325
 3355TIP3    H131700   3.071   0.552   0.562  1.8811  0.9352  2.6727
 3355TIP3    H231701   3.160   0.660   0.506 -1.5173  1.2161 -3.0034
 3356TIP3   OH231702   5.166   0.138   8.142 -0.3770 -0.0967  0.4271
 3356TIP3    H131703   5.216   0.057   8.152  1.7871  1.0753 -0.2796
 3356TIP3    H231704   5.158   0.172   8.231 -0.1824 -0.4292  0.5736
 3357TIP3   OH231705   5.729   4.088   2.106 -0.3455 -0.2213  0.0708
 3357TIP3    H131706   5.766   4.067   2.192 -0.6006 -0.7886  0.0460
 3357TIP3    H231707   5.704   4.004   2.069 -1.9801  0.1550  0.2364
 3358TIP3   OH231708   3.349   1.874   0.639 -0.6880 -0.4654  0.1958
 3358TIP3    H131709   3.423   1.927   0.609 -1.1314 -0.1009 -0.2635
 3358TIP3    H231710   3.310   1.926   0.710 -0.8361 -0.3996  0.0662
 3359TIP3   OH231711   0.133   0.131   0.603 -0.5147  0.4708  0.2291
 3359TIP3    H131712   0.156   0.184   0.679 -2.0941  0.5095  0.7068
 3359TIP3    H231713   0.121   0.194   0.532  0.6725  0.4584 -0.0012
 3360TIP3   OH231714   4.344   0.904   2.294 -0.8066 -0.0267  0.0226
 3360TIP3    H131715   4.272   0.923   2.235 -0.8270  1.5575  0.5226
 3360TIP3    H231716   4.387   0.988   2.308  0.7638 -0.8301  0.2363
 3361TIP3   OH231717   6.413   4.457   2.375  0.1294  0.0102 -0.1860
 3361TIP3    H131718   6.340   4.452   2.436  0.3781 -0.3852  0.0821
 3361TIP3    H231719   6.397   4.537   2.325 -1.6448 -1.1559 -1.6206
 3362TIP3   OH231720   1.493   4.587   7.759 -0.3919  0.5396  0.2665
 3362TIP3    H131721   1.479   4.495   7.783  0.3985  0.9094  2.3656
 3362TIP3    H231722   1.429   4.635   7.812  0.4797  1.3302  0.6185
 3363TIP3   OH231723   4.160   4.946   1.659  0.1149 -0.0820 -0.2602
 3363TIP3    H131724   4.252   4.937   1.632  1.5057 -1.7885  4.1954
 3363TIP3    H231725   4.122   4.860   1.644  0.1305 -0.2432  0.5778
 3364TIP3   OH231726   1.134   4.024   1.540 -0.0415  0.5897  0.2674
 3364TIP3    H131727   1.210   3.966   1.538  0.4363  1.1558  1.2747
 3364TIP3    H231728   1.060   3.968   1.517  0.7108  0.1127 -1.1001
 3365TIP3   OH231729   6.049   6.036   6.868  0.2996  0.2037  0.2406
 3365TIP3    H131730   6.096   6.104   6.819  0.5999  0.4791  0.8959
 3365TIP3    H231731   6.102   5.958   6.859  0.0870  0.1131 -0.2984
 3366TIP3   OH231732   3.851   3.432   0.709  0.1036 -0.3697  0.6307
 3366TIP3    H131733   3.799   3.418   0.629 -0.4063  2.0416  0.4563
 3366TIP3    H231734   3.787   3.424   0.780 -0.0974  0.4126  0.5569
 3367TIP3   OH231735   1.892   6.811   6.790  0.3876 -0.2125  0.6592
 3367TIP3    H131736   1.860   6.764   6.866 -0.2922 -0.5531  0.1727
 3367TIP3    H231737   1.867   6.756   6.715  0.7915  0.2478  0.1714
 3368TIP3   OH231738   3.866   0.857   2.051 -0.5071 -0.3036  0.2453
 3368TIP3    H131739   3.881   0.935   1.997  1.3155  0.0922  1.2398
 3368TIP3    H231740   3.936   0.796   2.026 -0.6264 -0.7615  0.9898
 3369TIP3   OH231741   3.173   2.496   1.721 -0.1623 -0.0752 -0.5592
 3369TIP3    H131742   3.089   2.532   1.693  0.6623  1.1160 -1.6102
 3369TIP3    H231743   3.188   2.535   1.807 -0.9931 -0.8697 -0.0283
 3370TIP3   OH231744   5.324   1.868   7.390  0.6872  0.0849 -0.0547
 3370TIP3    H131745   5.391   1.930   7.361 -1.1410  1.3200 -1.8954
 3370TIP3    H231746   5.271   1.917   7.452 -0.6378  0.3472 -1.3525
 3371TIP3   OH231747   5.101   6.607   0.063  0.0059 -0.1032  0.4882
 3371TIP3    H131748   5.134   6.688   0.102 -0.3729  1.1320 -1.6370
 3371TIP3    H231749   5.126   6.539   0.126  1.4266  1.4778  1.7384
 3372TIP3   OH231750   4.052   1.847   6.955 -1.0520 -0.0932  0.1958
 3372TIP3    H131751   4.056   1.819   7.047  2.3087  0.1968  0.2539
 3372TIP3    H231752   4.048   1.765   6.906 -1.6782 -0.2828  0.5444
 3373TIP3   OH231753   5.853   0.419   6.826  0.1503  0.5852 -0.0520
 3373TIP3    H131754   5.767   0.422   6.785  0.7262  1.8218 -1.2381
 3373TIP3    H231755   5.849   0.486   6.894  0.2477  0.7715 -0.2321
 3374TIP3   OH231756   3.193   2.931   6.980 -0.1466  0.2910 -0.0617
 3374TIP3    H131757   3.197   2.836   6.993  0.1966  0.2117 -0.7332
 3374TIP3    H231758   3.103   2.948   6.952 -0.1470  0.1447 -0.1462
 3375TIP3   OH231759   1.713   2.094   6.658  0.4334  0.4666  0.6264
 3375TIP3    H131760   1.620   2.071   6.663  0.6562 -0.8795 -0.7838
 3375TIP3    H231761   1.714   2.177   6.611  0.0562 -1.5246 -3.3518
 3376TIP3   OH231762   5.679   2.397   7.918 -0.2392  0.3873  0.3833
 3376TIP3    H131763   5.608   2.382   7.981 -0.3853 -2.2221 -0.2681
 3376TIP3    H231764   5.758   2.390   7.971 -0.3123 -2.8667  0.2620
 3377TIP3   OH231765   1.956   2.044   8.424 -0.0257 -0.1000 -0.0515
 3377TIP3    H131766   2.025   2.064   8.361 -0.2019 -0.6140 -0.4188
 3377TIP3    H231767   1.956   2.118   8.485 -1.5531  1.6988 -2.0803
 3378TIP3   OH231768   6.243   5.683   0.146  0.4353  0.4606 -0.0961
 3378TIP3    H131769   6.294   5.745   0.093  2.6783 -2.2620 -1.4305
 3378TIP3    H231770   6.294   5.673   0.226  1.4265 -1.2639 -0.8707
 3379TIP3   OH231771   4.858   4.363   6.676  0.5950  0.2721  0.0641
 3379TIP3    H131772   4.852   4.273   6.643  1.3790 -0.1484  0.9943
 3379TIP3    H231773   4.907   4.410   6.609 -0.5521  0.2222 -0.8262
 3380TIP3   OH231774   4.772   4.395   0.180  0.6337  0.1376  0.7470
 3380TIP3    H131775   4.743   4.482   0.154  1.9491  0.6781  0.9934
 3380TIP3    H231776   4.708   4.367   0.245  0.0825  0.8418  0.5195
 3381TIP3   OH231777   5.383   1.804   0.730 -0.2051 -0.1078 -0.1069
 3381TIP3    H131778   5.424   1.881   0.770 -0.0536 -0.0516 -0.3648
 3381TIP3    H231779   5.308   1.785   0.786  0.7828 -0.8752  0.9931
 3382TIP3   OH231780   1.743   6.445   0.012  0.8895  0.6582  0.1012
 3382TIP3    H131781   1.791   6.368  -0.021  0.5888  0.7031 -0.4469
 3382TIP3    H231782   1.772   6.516  -0.045 -0.9493  0.4042 -1.2492
 3383TIP3   OH231783   5.266   6.673   1.804  0.3163 -0.6285 -0.7440
 3383TIP3    H131784   5.357   6.703   1.812  0.5662 -1.7699  1.8094
 3383TIP3    H231785   5.272   6.578   1.803 -0.8696 -0.7489  0.5514
 3384TIP3   OH231786   2.072   0.993   0.558  0.4951 -0.0071  0.1576
 3384TIP3    H131787   2.132   0.919   0.551  1.4001  0.6003  1.0353
 3384TIP3    H231788   2.024   0.995   0.475 -1.9773 -3.5609  1.2610
 3385TIP3   OH231789   4.022   1.287   8.451  0.1991 -0.3754  0.1066
 3385TIP3    H131790   4.062   1.287   8.538 -0.7005  1.4959  0.5640
 3385TIP3    H231791   4.091   1.318   8.393  0.9643 -2.1161  0.0233
 3386TIP3   OH231792   6.654   3.752   7.674  0.7924 -0.4962 -0.1489
 3386TIP3    H131793   6.678   3.735   7.765  1.9819 -1.8040 -0.6614
 3386TIP3    H231794   6.578   3.695   7.658 -1.4577  2.0399  0.8549
 3387TIP3   OH231795   6.173   3.107   7.457 -0.2606 -0.3455 -0.1021
 3387TIP3    H131796   6.165   3.037   7.392  0.9484 -1.4086  0.8520
 3387TIP3    H231797   6.134   3.183   7.414  0.3479 -1.0446 -2.0112
 3388TIP3   OH231798   1.073   6.075   0.975  0.2296 -0.3256  0.1369
 3388TIP3    H131799   1.141   6.138   0.951 -0.5893  0.2233 -0.8614
 3388TIP3    H231800   1.106   5.991   0.945  0.1235  0.0620 -1.1378
 3389TIP3   OH231801   6.350   6.519   1.704  0.1459 -0.2089  0.4628
 3389TIP3    H131802   6.399   6.442   1.677  1.3200  0.5551  0.3640
 3389TIP3    H231803   6.416   6.586   1.722 -0.8883  1.4129 -1.3456
 3390TIP3   OH231804   4.840   4.274   7.583 -0.0839  0.3848 -0.2634
 3390TIP3    H131805   4.905   4.296   7.516  0.4699 -0.1617  0.0902
 3390TIP3    H231806   4.797   4.195   7.550  2.1404 -1.6140  1.2954
 3391TIP3   OH231807   4.538   0.381   8.348  0.3975 -0.2851 -0.3544
 3391TIP3    H131808   4.562   0.404   8.259  0.4741  0.5479 -0.1241
 3391TIP3    H231809   4.621   0.368   8.393  0.3599 -1.9472 -0.6991
 3392TIP3   OH231810   2.321   5.689   0.608  0.4489  0.0648 -0.1579
 3392TIP3    H131811   2.309   5.732   0.693  0.0031 -2.1719  0.9627
 3392TIP3    H231812   2.238   5.645   0.591  0.5121  0.5125 -1.8123
 3393TIP3   OH231813   0.876   3.392   7.979 -0.0678  0.1673 -0.0277
 3393TIP3    H131814   0.812   3.397   8.049 -0.5263  0.9115 -0.4838
 3393TIP3    H231815   0.837   3.333   7.914  0.4226 -0.6405  0.4048
 3394TIP3   OH231816   4.864   4.718   7.710  0.0449 -0.7006  0.6114
 3394TIP3    H131817   4.795   4.682   7.655 -0.6153  0.8855  0.3485
 3394TIP3    H231818   4.899   4.642   7.757 -0.5678 -1.8143 -0.6688
 3395TIP3   OH231819   5.830   6.484   1.274  0.4529 -0.1892  0.2912
 3395TIP3    H131820   5.862   6.488   1.364  2.1208 -0.8018 -0.2264
 3395TIP3    H231821   5.895   6.533   1.223  0.2151 -0.8984 -0.7340
 3396TIP3   OH231822   4.873   3.419   7.479  0.3056  0.5146 -0.2164
 3396TIP3    H131823   4.955   3.441   7.435  0.9557 -0.7161  0.3192
 3396TIP3    H231824   4.823   3.372   7.413  1.2557 -1.2744  0.2384
 3397TIP3   OH231825   1.504   3.392   8.608  0.2082 -0.1496  0.0414
 3397TIP3    H131826   1.585   3.395   8.558  1.7090  1.5329  2.3864
 3397TIP3    H231827   1.490   3.482   8.638 -1.0562 -0.9004  1.9049
 3398TIP3   OH231828   6.755   6.899   7.323 -0.2548 -0.1320  0.1468
 3398TIP3    H131829   6.796   6.848   7.393 -1.9199 -0.9793  0.5681
 3398TIP3    H231830   6.661   6.883   7.335 -0.7450  1.9610 -0.5583
 3399TIP3   OH231831   1.884   4.670   1.585  0.1201 -0.0094  0.4836
 3399TIP3    H131832   1.896   4.715   1.502  1.3139  0.6491  0.9889
 3399TIP3    H231833   1.820   4.602   1.566 -3.5911  3.1838  0.1489
 3400TIP3   OH231834   3.760   2.030   8.290  0.6957  0.0937  0.0854
 3400TIP3    H131835   3.740   1.990   8.375  1.3708  1.9740  1.1993
 3400TIP3    H231836   3.843   1.991   8.264  1.1579  0.4606  0.9687
 3401TIP3   OH231837   5.778   5.545   6.789 -0.2822  0.3170 -0.0080
 3401TIP3    H131838   5.785   5.453   6.761 -0.7168  0.4405 -0.5416
 3401TIP3    H231839   5.850   5.557   6.850 -0.9570 -0.7265  1.0368
 3402TIP3   OH231840   6.615   2.946   6.614 -0.0194  0.3879  0.3888
 3402TIP3    H131841   6.621   2.975   6.523 -0.5894  1.9748  0.8230
 3402TIP3    H231842   6.704   2.923   6.638  0.5967  2.3364  0.1512
 3403TIP3   OH231843   5.421   4.296   8.153  0.1251 -0.6973  0.2096
 3403TIP3    H131844   5.434   4.354   8.228 -0.3216  1.1678 -1.0970
 3403TIP3    H231845   5.503   4.246   8.147  0.2189 -0.7941  1.8270
 3404TIP3   OH231846   5.188   6.226   2.079  0.3183  0.0112  1.0179
 3404TIP3    H131847   5.280   6.241   2.060  0.2981  0.4869  1.2580
 3404TIP3    H231848   5.186   6.143   2.126  0.5953 -0.1219  0.7961
 3405TIP3   OH231849   0.922   5.374   0.800  0.6639 -0.1127 -0.1434
 3405TIP3    H131850   0.909   5.442   0.866 -0.5900  0.7339 -1.2156
 3405TIP3    H231851   0.994   5.407   0.746  1.2576 -0.4995  0.4047
 3406TIP3   OH231852   4.444   6.672   0.085  0.2866 -0.9747 -0.1666
 3406TIP3    H131853   4.380   6.739   0.061  0.3976 -0.4721  0.8706
 3406TIP3    H231854   4.527   6.720   0.092  0.4676 -1.3154  0.0681
 3407TIP3   OH231855   4.809   0.330   6.422 -0.0686  0.3988 -0.6128
 3407TIP3    H131856   4.865   0.324   6.499 -0.7170  2.5647  0.1077
 3407TIP3    H231857   4.731   0.376   6.454 -1.9674 -1.8070 -1.7484
 3408TIP3   OH231858   4.442   3.251   7.433  0.8860 -0.0157 -0.0513
 3408TIP3    H131859   4.494   3.324   7.399 -1.2923  1.7671  0.2057
 3408TIP3    H231860   4.371   3.241   7.370  0.0765 -0.5967  0.9162
 3409TIP3   OH231861   0.694   4.675   7.939 -0.5145  0.0406 -0.1961
 3409TIP3    H131862   0.615   4.665   7.991 -0.4783  0.2369 -0.1036
 3409TIP3    H231863   0.754   4.609   7.974 -1.2584 -1.3782 -1.4699
 3410TIP3   OH231864   1.312   4.479   6.741 -0.1425  0.4870  0.2810
 3410TIP3    H131865   1.382   4.467   6.676 -1.3877 -0.3924 -0.9396
 3410TIP3    H231866   1.324   4.570   6.771 -0.5196  1.5329 -2.4028
 3411TIP3   OH231867   5.713   3.019   7.274  0.0526  0.0230 -0.2409
 3411TIP3    H131868   5.761   3.088   7.229 -0.9046  1.8340  1.3713
 3411TIP3    H231869   5.759   3.008   7.358 -0.9516  0.1272  0.3445
 3412TIP3   OH231870   3.089   0.152   1.997  0.3961 -0.0136  0.0243
 3412TIP3    H131871   3.025   0.203   2.046  1.3345  0.5115  0.7281
 3412TIP3    H231872   3.082   0.063   2.034  0.3871  0.1451  0.4123
 3413TIP3   OH231873   4.225   4.454   1.188  0.0292  0.0561 -0.1923
 3413TIP3    H131874   4.206   4.453   1.095 -1.7699 -0.8828  0.1309
 3413TIP3    H231875   4.224   4.546   1.213 -1.4736  0.2142 -0.7587
 3414TIP3   OH231876   2.915   6.547   7.688  0.0811  0.1269  0.5893
 3414TIP3    H131877   2.866   6.598   7.753 -0.4451 -0.8149  0.9499
 3414TIP3    H231878   2.932   6.463   7.731  1.6196  0.2590  0.2872
 3415TIP3   OH231879   2.025   2.449   6.975 -0.3611  0.5430 -0.0557
 3415TIP3    H131880   2.069   2.364   6.967 -1.7794 -0.2822  0.3969
 3415TIP3    H231881   2.022   2.483   6.886 -2.5924 -1.4157 -0.8344
 3416TIP3   OH231882   3.068   3.214   0.805  0.9084 -0.2520  0.0303
 3416TIP3    H131883   3.115   3.297   0.802 -0.1723  0.3890 -3.3925
 3416TIP3    H231884   3.135   3.147   0.790  1.4239  0.2119  0.2446
 3417TIP3   OH231885   6.291   4.355   1.761 -0.1064  0.0193  0.1013
 3417TIP3    H131886   6.323   4.267   1.742  0.7462  0.4151 -0.3571
 3417TIP3    H231887   6.202   4.357   1.725  1.2513  0.6164 -3.6993
 3418TIP3   OH231888   3.562   3.036   8.241  0.2418  0.1543 -0.0457
 3418TIP3    H131889   3.493   2.979   8.273  1.7959 -1.6645  0.2369
 3418TIP3    H231890   3.606   3.068   8.320  1.9703 -1.6558 -0.2026
 3419TIP3   OH231891   0.743   6.556   1.143 -0.2432  0.5301 -0.1524
 3419TIP3    H131892   0.795   6.543   1.222  0.0970 -0.0148 -0.4588
 3419TIP3    H231893   0.690   6.476   1.136 -0.1382  0.4947 -0.5699
 3420TIP3   OH231894   3.420   6.681   2.236  0.6422 -0.1739  0.1566
 3420TIP3    H131895   3.414   6.750   2.302  0.3817 -0.1682  0.1297
 3420TIP3    H231896   3.389   6.602   2.282  0.9602 -0.2756  0.1942
 3421TIP3   OH231897   4.430   2.382   6.954 -0.5256 -0.3134 -0.4162
 3421TIP3    H131898   4.521   2.403   6.934 -1.1351  1.8518 -1.2071
 3421TIP3    H231899   4.416   2.418   7.042 -1.1799  1.4928 -1.2012
 3422TIP3   OH231900   0.760   2.017   1.278  0.4153  0.1267 -0.0021
 3422TIP3    H131901   0.741   2.080   1.209  1.0743  0.9431  0.5378
 3422TIP3    H231902   0.700   2.040   1.349 -0.6864 -1.0963 -0.5056
 3423TIP3   OH231903   1.407   1.664   8.118 -0.0998  0.4040 -0.5075
 3423TIP3    H131904   1.316   1.642   8.096  0.2291 -0.3404 -1.1763
 3423TIP3    H231905   1.457   1.588   8.090  0.4867 -0.3060  2.1950
 3424TIP3   OH231906   2.080   2.453   6.715  0.0984  0.1473  0.3265
 3424TIP3    H131907   2.163   2.496   6.694 -0.3169  0.5968 -0.4412
 3424TIP3    H231908   2.090   2.364   6.681  0.4745  0.0295  0.7420
 3425TIP3   OH231909   5.643   5.642   2.778  0.5147  0.1587  0.2090
 3425TIP3    H131910   5.642   5.567   2.718 -0.3089  0.9532 -0.7913
 3425TIP3    H231911   5.654   5.602   2.865  0.2538 -1.1068 -0.3111
 3426TIP3   OH231912   4.988   3.168   7.090 -0.8478  0.8108  0.4841
 3426TIP3    H131913   4.962   3.139   7.002 -0.6989  0.2540  0.6246
 3426TIP3    H231914   5.029   3.092   7.130  1.1841  1.6876  0.2154
 3427TIP3   OH231915   0.513   4.578   1.509  0.5508  0.0121  0.2482
 3427TIP3    H131916   0.433   4.582   1.562 -0.0765 -1.5095 -0.5033
 3427TIP3    H231917   0.575   4.530   1.563  0.1652 -0.8646 -0.0721
 3428TIP3   OH231918   4.077   4.634   1.385  0.0893  0.4795  0.1227
 3428TIP3    H131919   4.085   4.729   1.395 -0.2183  0.2754  3.5627
 3428TIP3    H231920   4.107   4.598   1.468  0.7225 -2.5357 -1.2457
 3429TIP3   OH231921   1.664   1.515   7.512  0.2305 -0.2668 -0.2201
 3429TIP3    H131922   1.723   1.446   7.482 -0.1744 -0.0164 -1.7102
 3429TIP3    H231923   1.596   1.519   7.445 -0.2977  0.8934  0.3503
 3430TIP3   OH231924   2.803   5.536   1.667  0.4131  0.4690 -0.2456
 3430TIP3    H131925   2.768   5.625   1.676  0.3973  0.4766 -0.3796
 3430TIP3    H231926   2.897   5.550   1.652  0.7416  0.4046  1.5676
 3431TIP3   OH231927   4.998   4.504   1.487  0.3513 -0.4401 -0.4243
 3431TIP3    H131928   5.073   4.537   1.537  0.9264  0.4169 -1.7593
 3431TIP3    H231929   4.988   4.568   1.416 -1.3894 -0.7776 -0.5131
 3432TIP3   OH231930   3.524   4.799   7.085  0.3734 -0.2571  0.0860
 3432TIP3    H131931   3.520   4.834   6.996 -0.3611  2.5618  1.1043
 3432TIP3    H231932   3.558   4.711   7.075  1.6910  0.4720 -2.8510
 3433TIP3   OH231933   3.134   1.523   2.014 -0.8952 -0.1164  0.3190
 3433TIP3    H131934   3.119   1.488   1.926  0.9808 -0.6627  0.1605
 3433TIP3    H231935   3.228   1.510   2.028 -1.0558  0.5263  2.1710
 3434TIP3   OH231936   4.801   5.649   8.227  0.8232  0.0847 -0.4309
 3434TIP3    H131937   4.753   5.568   8.243 -0.4263  0.9715  0.4572
 3434TIP3    H231938   4.809   5.654   8.132  1.3742 -1.3071 -0.4952
 3435TIP3   OH231939   0.683   2.040   1.840 -0.3278 -0.1470 -0.0905
 3435TIP3    H131940   0.702   1.974   1.773  0.8705 -0.4789  0.5477
 3435TIP3    H231941   0.621   1.996   1.899 -0.2201 -0.3898 -0.1548
 3436TIP3   OH231942   1.769   5.724   7.281 -0.1288  0.3468  0.4757
 3436TIP3    H131943   1.752   5.703   7.190  3.6936 -0.4857 -0.2135
 3436TIP3    H231944   1.776   5.820   7.282 -1.0786  0.4325  0.1283
 3437TIP3   OH231945   4.881   5.912   8.228  0.9759 -0.0474  0.4530
 3437TIP3    H131946   4.976   5.906   8.242  1.0318 -1.4433 -0.3641
 3437TIP3    H231947   4.852   5.821   8.226 -0.3955  0.3690  0.6899
 3438TIP3   OH231948   2.616   0.119   1.714  0.0081  0.0451  0.1740
 3438TIP3    H131949   2.590   0.055   1.647 -2.0376  1.4107 -0.4145
 3438TIP3    H231950   2.659   0.066   1.781  0.6716 -1.5922 -1.4505
 3439TIP3   OH231951   3.403   0.341   3.081  0.0891 -0.1323  0.3077
 3439TIP3    H131952   3.431   0.392   3.157  1.3493 -0.5877  0.1850
 3439TIP3    H231953   3.424   0.397   3.006  0.3724 -0.3348  0.2315
 3440TIP3   OH231954   6.397   3.554   0.945 -0.4215 -0.2590  0.2768
 3440TIP3    H131955   6.435   3.491   0.884 -0.3739  0.1984 -0.1740
 3440TIP3    H231956   6.303   3.541   0.937 -0.3864 -1.5525  1.5648
 3441TIP3   OH231957   1.460   4.969   6.403  0.4296  0.1556 -0.0055
 3441TIP3    H131958   1.554   4.984   6.392  0.9624 -1.1729  2.1244
 3441TIP3    H231959   1.441   4.893   6.347  0.7070  0.2052 -0.1673
 3442TIP3   OH231960   6.274   3.327   8.430  0.2147  0.1739 -0.5508
 3442TIP3    H131961   6.361   3.298   8.458  0.4507  0.1628 -1.2969
 3442TIP3    H231962   6.220   3.316   8.509  0.0602 -3.1392 -0.9596
 3443TIP3   OH231963   6.408   5.441   7.824 -0.8173  0.7531 -0.2005
 3443TIP3    H131964   6.425   5.384   7.899  0.7300  0.0472 -1.0438
 3443TIP3    H231965   6.318   5.421   7.800 -1.0330  0.3074  0.8976
 3444TIP3   OH231966   5.606   2.522   0.399  0.2377  0.2378 -0.0842
 3444TIP3    H131967   5.512   2.524   0.383  0.3556 -2.7163 -2.0452
 3444TIP3    H231968   5.614   2.497   0.491 -1.0998 -3.3997 -0.7916
 3445TIP3   OH231969   6.440   4.520   8.125  0.4609  0.0912  0.1518
 3445TIP3    H131970   6.514   4.483   8.173  0.9930 -0.8030 -1.3017
 3445TIP3    H231971   6.469   4.521   8.034 -1.7329 -1.4502 -0.6474
 3446TIP3   OH231972   1.861   1.881   0.589  0.3582 -0.2871  0.3966
 3446TIP3    H131973   1.794   1.814   0.601 -2.2910  2.2252  0.7288
 3446TIP3    H231974   1.894   1.897   0.678  0.5699 -0.7415  0.4000
 3447TIP3   OH231975   0.700   4.547   2.163  0.0123 -0.4498 -0.6137
 3447TIP3    H131976   0.623   4.604   2.158 -0.6910 -1.3124  0.0128
 3447TIP3    H231977   0.769   4.603   2.198 -0.6526  0.0452 -0.0534
 3448TIP3   OH231978   1.243   2.035   1.097  0.4995 -0.0075 -1.1115
 3448TIP3    H131979   1.158   2.005   1.130  0.3613  1.2431 -0.2986
 3448TIP3    H231980   1.256   1.984   1.017 -0.4517 -1.0832 -0.6132
 3449TIP3   OH231981   6.191   4.198   0.290  0.7241 -0.4123  0.1353
 3449TIP3    H131982   6.096   4.184   0.284  0.4551  1.1290  0.4640
 3449TIP3    H231983   6.202   4.266   0.356  1.9689  0.2844 -0.7327
 3450TIP3   OH231984   3.348   3.298   2.002 -0.0766 -0.6468 -0.0124
 3450TIP3    H131985   3.325   3.206   2.012  1.6803 -1.5132 -2.9264
 3450TIP3    H231986   3.443   3.300   2.011  0.1556  0.4720 -2.1922
 3451TIP3   OH231987   1.142   2.104   1.656  0.4185 -0.0937 -0.2560
 3451TIP3    H131988   1.093   2.137   1.581  1.3561  0.5736 -0.5888
 3451TIP3    H231989   1.084   2.120   1.731  0.3090  1.1194 -0.5724
 3452TIP3   OH231990   4.970   3.511   6.708  0.3631 -0.3532 -0.0387
 3452TIP3    H131991   5.026   3.515   6.785  1.5505  0.6845 -0.9048
 3452TIP3    H231992   4.978   3.420   6.677 -0.0117 -0.7312  0.9585
 3453TIP3   OH231993   4.556   5.509   8.334  0.0452 -0.0979  0.0403
 3453TIP3    H131994   4.593   5.423   8.355  0.7338  0.1214 -0.2410
 3453TIP3    H231995   4.465   5.491   8.311 -0.0574 -0.6396  0.8268
 3454TIP3   OH231996   5.366   4.257   6.402  0.3425 -0.3403  0.1750
 3454TIP3    H131997   5.338   4.222   6.486 -1.9439  1.6784  0.3666
 3454TIP3    H231998   5.336   4.193   6.338  1.3041 -1.4542  0.7971
 3455TIP3   OH231999   6.086   0.582   1.557  0.5613  0.1869 -0.0557
 3455TIP3    H132000   6.064   0.625   1.474  0.6505  0.3232 -0.0086
 3455TIP3    H232001   6.178   0.560   1.549  0.4856 -0.1163 -0.1315
 3456TIP3   OH232002   1.187   3.175   0.390 -0.5527  0.2536 -0.0075
 3456TIP3    H132003   1.201   3.262   0.353 -0.0198 -0.1210 -0.6964
 3456TIP3    H232004   1.270   3.152   0.430 -0.7865  0.1750  0.4480
 3457TIP3   OH232005   0.182   1.369   7.658 -0.5366 -0.2190  0.0923
 3457TIP3    H132006   0.267   1.407   7.682 -0.8337  1.3310 -1.1285
 3457TIP3    H232007   0.132   1.369   7.740  0.1110  0.3304  0.5003
 3458TIP3   OH232008   0.519   0.973   7.201 -0.0236  0.4938 -0.0833
 3458TIP3    H132009   0.565   1.036   7.257 -0.7591  0.3042  0.7501
 3458TIP3    H232010   0.464   0.922   7.261  2.2815 -2.5944 -0.3386
 3459TIP3   OH232011   4.131   1.461   8.282 -1.3292  0.1523  0.6031
 3459TIP3    H132012   4.101   1.550   8.265 -1.4084  0.5598  2.6349
 3459TIP3    H232013   4.220   1.471   8.314  0.1912 -0.8606 -2.8141
 3460TIP3   OH232014   2.233   4.139   1.193  0.2816 -0.3066 -0.6961
 3460TIP3    H132015   2.250   4.226   1.230  0.3192 -0.9719  0.9038
 3460TIP3    H232016   2.264   4.078   1.260 -0.8934 -1.5575 -1.2576
 3461TIP3   OH232017   2.024   0.310   8.641  0.0113 -0.5263  0.4609
 3461TIP3    H132018   2.078   0.376   8.599 -2.3110 -0.3337 -2.5358
 3461TIP3    H232019   1.958   0.360   8.690  0.0287 -0.6948  0.6604
 3462TIP3   OH232020   3.735   4.120   1.326 -0.1768 -0.3217 -0.7499
 3462TIP3    H132021   3.772   4.048   1.275  0.0624 -1.2899  0.7131
 3462TIP3    H232022   3.798   4.134   1.396 -0.3144  1.2180 -0.9107
 3463TIP3   OH232023   5.842   5.716   2.049 -0.2325  0.4219 -0.1228
 3463TIP3    H132024   5.809   5.651   1.987  0.6725 -0.7874  0.6249
 3463TIP3    H232025   5.794   5.796   2.027 -0.1705 -0.0419 -2.1521
 3464TIP3   OH232026   4.386   2.616   1.254  0.2138 -0.1022 -0.3249
 3464TIP3    H132027   4.327   2.691   1.262  0.6169  0.1378  0.5270
 3464TIP3    H232028   4.415   2.599   1.344 -1.5821 -2.6533 -0.0792
 3465TIP3   OH232029   0.357   4.091   1.301  0.1126 -0.1614 -0.4124
 3465TIP3    H132030   0.385   4.084   1.210 -0.5989 -0.5145 -0.6177
 3465TIP3    H232031   0.275   4.139   1.298  0.2865  0.1794  0.0889
 3466TIP3   OH232032   2.478   1.618   8.322  0.3696 -0.1072 -0.1030
 3466TIP3    H132033   2.484   1.679   8.248  1.8316  1.1220  0.9719
 3466TIP3    H232034   2.384   1.613   8.340 -0.0572 -0.6506 -2.1646
 3467TIP3   OH232035   2.840   0.609   7.303 -0.1592  0.4116 -0.0109
 3467TIP3    H132036   2.833   0.519   7.270 -0.0245  0.7743 -1.0584
 3467TIP3    H232037   2.842   0.599   7.398 -3.1291 -0.5267  0.0583
 3468TIP3   OH232038   5.438   2.781   0.998  0.1724 -0.1156 -0.1272
 3468TIP3    H132039   5.351   2.797   0.961  0.6072 -0.4938 -1.3291
 3468TIP3    H232040   5.433   2.692   1.032  0.3915 -0.5114 -1.1081
 3469TIP3   OH232041   0.443   5.286   2.110 -0.0786 -0.1097  0.2347
 3469TIP3    H132042   0.395   5.305   2.191 -0.1183  2.7667 -0.3541
 3469TIP3    H232043   0.535   5.284   2.136 -0.1206  0.4329  0.4421
 3470TIP3   OH232044   3.142   6.550   0.975 -0.4910  0.1275 -0.2625
 3470TIP3    H132045   3.058   6.564   0.933 -1.5335  0.0835  1.7039
 3470TIP3    H232046   3.176   6.638   0.993 -0.5391  0.1380 -0.2247
 3471TIP3   OH232047   6.308   3.652   8.609 -0.2756 -0.1605 -0.0253
 3471TIP3    H132048   6.296   3.684   8.698 -1.0986 -1.1164  0.2297
 3471TIP3    H232049   6.230   3.598   8.593 -0.3552  0.3498 -1.4792
 3472TIP3   OH232050   2.251   5.277   8.531  0.5282 -0.2405  0.1698
 3472TIP3    H132051   2.267   5.301   8.623  1.1162  0.2077 -0.0446
 3472TIP3    H232052   2.246   5.360   8.485 -2.3939 -0.2942  0.1680
 3473TIP3   OH232053   0.406   3.834   0.402  0.3791  0.2883 -0.1040
 3473TIP3    H132054   0.481   3.780   0.382  0.5751  0.4046  0.2994
 3473TIP3    H232055   0.375   3.866   0.317  0.0544 -0.7191 -0.3758
 3474TIP3   OH232056   4.826   3.703   6.835 -0.3071 -0.0825 -0.1739
 3474TIP3    H132057   4.900   3.734   6.887 -1.5947 -1.0189  2.4100
 3474TIP3    H232058   4.860   3.630   6.785  0.6686 -0.1262  0.5258
 3475TIP3   OH232059   3.768   1.518   1.171 -0.2519 -0.1700  0.5918
 3475TIP3    H132060   3.736   1.563   1.249  1.0574  0.0141  1.0477
 3475TIP3    H232061   3.863   1.521   1.179 -0.0218  1.0609 -1.6898
 3476TIP3   OH232062   6.103   6.480   7.869 -0.7972 -0.4963  0.4461
 3476TIP3    H132063   6.127   6.440   7.786 -0.9154  2.2963 -1.0731
 3476TIP3    H232064   6.124   6.414   7.935  3.5239 -1.2759 -1.3791
 3477TIP3   OH232065   0.338   5.426   0.751 -0.0790 -0.8514 -0.3257
 3477TIP3    H132066   0.405   5.494   0.743 -0.8143  0.0491  0.7159
 3477TIP3    H232067   0.361   5.361   0.685  2.0332 -0.7604  0.2391
 3478TIP3   OH232068   1.605   5.983   2.173 -0.3753  0.2127  0.0545
 3478TIP3    H132069   1.632   6.071   2.201 -0.7925  0.6460 -0.8377
 3478TIP3    H232070   1.684   5.931   2.177  0.8184  1.5466 -2.8874
 3479TIP3   OH232071   5.990   5.650   0.045 -0.3852 -0.6717 -0.1092
 3479TIP3    H132072   6.076   5.643   0.088 -0.6442 -1.5452  0.2865
 3479TIP3    H232073   5.950   5.726   0.087 -0.0772 -0.6717  0.1964
 3480TIP3   OH232074   0.362   2.885   1.361 -0.1887 -0.0082  0.4611
 3480TIP3    H132075   0.435   2.852   1.412 -0.5317  0.0061  0.9627
 3480TIP3    H232076   0.402   2.918   1.280  0.4142  0.4241  0.9305
 3481TIP3   OH232077   4.674   3.609   7.511  0.2792 -0.2254  0.0372
 3481TIP3    H132078   4.613   3.562   7.568 -0.1551 -0.4982 -0.6398
 3481TIP3    H232079   4.743   3.546   7.491 -0.7542 -0.9363 -1.5940
 3482TIP3   OH232080   5.183   4.905   6.225 -0.2642 -0.2099 -0.0721
 3482TIP3    H132081   5.198   4.833   6.287 -0.7487 -0.6107 -0.4068
 3482TIP3    H232082   5.256   4.964   6.238  0.8569 -1.4116 -0.6892
 3483TIP3   OH232083   2.030   1.099   7.509 -0.3932  0.1777  0.3844
 3483TIP3    H132084   1.935   1.108   7.498 -0.5365 -2.0404 -0.7491
 3483TIP3    H232085   2.042   1.074   7.601 -1.0250 -0.5943  0.2673
 3484TIP3   OH232086   0.405   2.248   1.943  0.4337  0.4251 -0.2548
 3484TIP3    H132087   0.394   2.304   1.865 -0.1416  1.1827  0.3493
 3484TIP3    H232088   0.402   2.309   2.016 -0.9834 -0.4629  0.4826
 3485TIP3   OH232089   2.347   3.003   2.111 -0.2697 -0.2657 -0.0307
 3485TIP3    H132090   2.417   3.025   2.049  1.5016 -0.0705  1.9194
 3485TIP3    H232091   2.374   2.919   2.148 -0.3972  0.3806  1.6089
 3486TIP3   OH232092   6.534   4.474   0.449 -0.7366 -0.8393 -0.8942
 3486TIP3    H132093   6.571   4.554   0.488  1.7098 -1.9779 -0.7179
 3486TIP3    H232094   6.523   4.496   0.356 -0.9845 -0.0266 -0.6884
 3487TIP3   OH232095   4.355   3.356   1.424  0.3548  1.1430 -0.2347
 3487TIP3    H132096   4.267   3.375   1.456  0.0568  1.4614 -1.2280
 3487TIP3    H232097   4.348   3.359   1.329  0.8763 -1.3076 -0.4089
 3488TIP3   OH232098   1.697   5.860   1.428  0.7730 -0.3722 -0.9022
 3488TIP3    H132099   1.700   5.952   1.456  1.5391 -0.9023  0.8400
 3488TIP3    H232100   1.610   5.830   1.455  1.0362 -0.5344 -0.2349
 3489TIP3   OH232101   1.242   5.871   7.777 -0.0172  0.0478  0.1979
 3489TIP3    H132102   1.214   5.782   7.754 -1.2327  0.7479 -1.1914
 3489TIP3    H232103   1.310   5.892   7.714  0.5187 -0.0081  0.7468
 3490TIP3   OH232104   1.395   4.733   1.532 -0.1915  0.2506 -0.5761
 3490TIP3    H132105   1.326   4.783   1.490 -0.4744 -0.5023 -1.0317
 3490TIP3    H232106   1.353   4.692   1.608 -0.1143  0.2412 -0.5385
 3491TIP3   OH232107   5.722   0.701   7.257 -0.4842  0.5591  0.0560
 3491TIP3    H132108   5.792   0.734   7.312 -1.5502  1.9215  0.6361
 3491TIP3    H232109   5.641   0.721   7.304 -1.3003 -1.0010 -0.5702
 3492TIP3   OH232110   4.575   6.321   6.029  0.1386 -0.0110  0.0266
 3492TIP3    H132111   4.528   6.297   6.109 -1.7352  1.5904 -0.5109
 3492TIP3    H232112   4.535   6.403   6.001  3.0977  1.3514 -0.6777
 3493TIP3   OH232113   4.915   0.883   1.210  0.1018 -0.0446 -0.2468
 3493TIP3    H132114   4.991   0.886   1.269 -1.0531  1.1811  1.2723
 3493TIP3    H232115   4.895   0.975   1.192 -1.2920 -0.3177 -0.2264
 3494TIP3   OH232116   4.247   0.265   1.324  0.1507 -0.0317  0.5359
 3494TIP3    H132117   4.213   0.200   1.385 -0.7744  0.9928  1.1404
 3494TIP3    H232118   4.192   0.342   1.337  1.6491  1.1315  0.3614
 3495TIP3   OH232119   5.654   1.315   1.153 -0.5485  0.6825  0.1203
 3495TIP3    H132120   5.667   1.409   1.162 -0.6573  0.5141  2.7209
 3495TIP3    H232121   5.741   1.277   1.170 -1.1599  0.2253  2.6742
 3496TIP3   OH232122   2.099   4.577   7.593 -0.1486  0.1244 -0.6002
 3496TIP3    H132123   2.124   4.667   7.613 -0.3484  0.3505 -1.3323
 3496TIP3    H232124   2.032   4.556   7.658  0.9629 -0.0333  0.5309
 3497TIP3   OH232125   0.858   2.811   1.961 -0.7929  0.1594  0.2196
 3497TIP3    H132126   0.864   2.757   1.882  0.9837  1.7175 -0.7922
 3497TIP3    H232127   0.899   2.758   2.030  1.0256  0.1738 -0.7788
 3498TIP3   OH232128   4.296   2.663   6.862  0.2262 -0.4100  0.1796
 3498TIP3    H132129   4.226   2.599   6.860  0.5712 -0.7890  0.1851
 3498TIP3    H232130   4.270   2.725   6.931  0.0724 -0.7458  0.4219
 3499TIP3   OH232131   5.140   5.614   0.569  0.8358  0.4490  0.3728
 3499TIP3    H132132   5.130   5.527   0.531 -3.2432  0.5088  0.8144
 3499TIP3    H232133   5.136   5.673   0.494 -0.4025  0.3372  0.3292
 3500TIP3   OH232134   6.636   0.327   1.747 -0.0774  0.0002  0.9567
 3500TIP3    H132135   6.701   0.364   1.687 -1.6397  1.1998 -0.0927
 3500TIP3    H232136   6.561   0.308   1.692  0.0640 -3.4430  1.7329
 3501TIP3   OH232137   1.114   4.552   8.446 -0.5565 -0.2467  0.1187
 3501TIP3    H132138   1.198   4.524   8.410 -1.4366 -1.0188 -1.4509
 3501TIP3    H232139   1.073   4.602   8.375 -1.2845  0.4255  0.9827
 3502TIP3   OH232140   0.692   5.527   1.912 -0.3052  0.0921  0.6163
 3502TIP3    H132141   0.629   5.561   1.976  0.1778  0.0294  1.1288
 3502TIP3    H232142   0.644   5.459   1.866 -1.4846  1.7959 -0.8163
 3503TIP3   OH232143   2.386   6.644   8.456  0.2592  0.2226 -0.6901
 3503TIP3    H132144   2.408   6.737   8.461 -0.0819  0.3046 -0.6941
 3503TIP3    H232145   2.290   6.641   8.464  0.3419 -0.2052  0.3286
 3504TIP3   OH232146   4.247   3.088   7.941 -0.2185  0.3654 -0.3898
 3504TIP3    H132147   4.326   3.134   7.971 -0.9792  1.7017 -0.3835
 3504TIP3    H232148   4.182   3.108   8.008 -0.2980 -1.6380  0.1869
 3505TIP3   OH232149   5.725   2.572   6.987 -0.2816  0.1384  0.1618
 3505TIP3    H132150   5.717   2.660   7.022  0.2513  1.3281 -2.4799
 3505TIP3    H232151   5.816   2.547   7.007 -0.0435  0.7053 -0.1963
 3506TIP3   OH232152   3.988   1.184   6.857  0.1910 -0.0993  0.0357
 3506TIP3    H132153   3.933   1.239   6.913  0.8617 -0.7809  1.4117
 3506TIP3    H232154   4.077   1.216   6.871  0.3687 -0.2837 -0.6455
 3507TIP3   OH232155   4.786   5.144   0.291 -0.1505 -0.2490  0.0471
 3507TIP3    H132156   4.838   5.144   0.371 -1.0110 -0.7637  0.6291
 3507TIP3    H232157   4.708   5.092   0.313  0.4778 -2.0749 -1.7119
 3508TIP3   OH232158   1.727   5.147   1.707 -0.0665  0.0477 -0.0087
 3508TIP3    H132159   1.698   5.208   1.639  0.4989 -0.3357 -0.6032
 3508TIP3    H232160   1.661   5.078   1.708 -0.3690  0.3400  0.2197
 3509TIP3   OH232161   4.456   4.893   1.644 -0.3962  0.4134 -0.3699
 3509TIP3    H132162   4.507   4.958   1.692 -0.5185 -0.1724  0.5860
 3509TIP3    H232163   4.438   4.825   1.708 -0.3594 -0.5235 -1.3180
 3510TIP3   OH232164   0.684   2.200   1.079 -0.1389  0.5335 -0.3760
 3510TIP3    H132165   0.590   2.216   1.087 -0.0697  1.3929 -1.1696
 3510TIP3    H232166   0.718   2.276   1.032  0.7126 -0.5222 -1.5356
 3511TIP3   OH232167   5.885   4.667   0.714  0.4181 -0.3350  0.1833
 3511TIP3    H132168   5.877   4.655   0.809  0.4830 -1.3023  0.0769
 3511TIP3    H232169   5.858   4.757   0.699  0.4368 -0.1581  1.1273
 3512TIP3   OH232170   1.081   2.539   0.967 -0.4117 -0.1990  0.4988
 3512TIP3    H132171   1.047   2.533   1.056 -0.8062  1.1315  0.4640
 3512TIP3    H232172   1.171   2.509   0.973 -0.6344 -0.7449  1.2156
 3513TIP3   OH232173   5.819   1.258   0.293  0.3008  0.1821  0.5475
 3513TIP3    H132174   5.823   1.349   0.262 -1.0872  0.4437  1.0639
 3513TIP3    H232175   5.764   1.213   0.228  1.6248 -0.4911 -0.1346
 3514TIP3   OH232176   4.877   2.331   7.433  0.7323 -0.3734  0.4833
 3514TIP3    H132177   4.910   2.246   7.463  2.2949  0.4780  1.3474
 3514TIP3    H232178   4.926   2.395   7.485  0.4646  1.0941 -0.9736
 3515TIP3   OH232179   1.187   3.656   1.754 -0.2875 -0.0443  0.1189
 3515TIP3    H132180   1.234   3.731   1.718 -1.2973 -0.6018 -2.6230
 3515TIP3    H232181   1.098   3.665   1.720 -0.8195 -1.6916  0.9768
 3516TIP3   OH232182   6.113   0.020   1.474 -0.7069 -0.1206  0.0513
 3516TIP3    H132183   6.035  -0.026   1.505  0.5056 -1.3643  1.4132
 3516TIP3    H232184   6.178   0.005   1.542  1.0543 -0.0115 -1.5425
 3517TIP3   OH232185   6.519   3.624   0.468  0.6204 -0.1321 -0.2131
 3517TIP3    H132186   6.428   3.594   0.462  0.3737  0.4538  0.3772
 3517TIP3    H232187   6.527   3.658   0.558  1.3805 -0.0473 -0.3047
 3518TIP3   OH232188   4.976   6.307   6.864 -0.1685  0.3314 -0.0714
 3518TIP3    H132189   5.062   6.279   6.832  0.2221 -0.3610  1.5013
 3518TIP3    H232190   4.915   6.240   6.833 -0.1057  0.6194 -0.8549
 3519TIP3   OH232191   5.220   5.169   0.541 -0.4475  0.8282 -0.4283
 3519TIP3    H132192   5.176   5.252   0.525 -3.3648 -0.4219  0.3503
 3519TIP3    H232193   5.169   5.105   0.492  0.9230 -0.6899  0.0342
 3520TIP3   OH232194   5.105   0.719   1.065  0.3764  0.0620 -0.0256
 3520TIP3    H132195   5.055   0.789   1.108  1.7482  0.3478  1.1898
 3520TIP3    H232196   5.196   0.742   1.081  0.8964 -0.8543 -1.5383
 3521TIP3   OH232197   0.575   2.762   7.606  0.1757  0.3455 -0.1026
 3521TIP3    H132198   0.520   2.777   7.529  0.9696  1.2161 -0.5266
 3521TIP3    H232199   0.625   2.683   7.585 -0.5192 -0.1548  0.0728
 3522TIP3   OH232200   1.730   0.966   0.301 -0.1221 -0.1495  0.2449
 3522TIP3    H132201   1.721   1.005   0.388  0.3781 -1.1763  0.7690
 3522TIP3    H232202   1.640   0.941   0.277 -0.0110 -1.8170  1.4121
 3523TIP3   OH232203   3.278   2.061   7.229  0.6453 -0.2349 -0.2678
 3523TIP3    H132204   3.362   2.081   7.269 -0.4748  3.0555  0.7640
 3523TIP3    H232205   3.225   2.024   7.300  0.0373  1.5054  0.2478
 3524TIP3   OH232206   6.531   3.448   6.975 -0.7178  0.3913 -0.6685
 3524TIP3    H132207   6.553   3.356   6.960 -0.9917  0.4613 -1.5377
 3524TIP3    H232208   6.616   3.492   6.978 -0.6169  0.2135 -0.9166
 3525TIP3   OH232209   4.442   2.142   8.432  0.2589  0.7856 -0.1708
 3525TIP3    H132210   4.424   2.196   8.509  1.3647 -0.2595  0.8656
 3525TIP3    H232211   4.419   2.198   8.357 -0.7742  1.8485  0.9004
 3526TIP3   OH232212   5.316   4.453   0.773 -0.0329 -0.2271  0.1674
 3526TIP3    H132213   5.307   4.365   0.737  0.6956 -0.2430 -0.0019
 3526TIP3    H232214   5.258   4.507   0.720 -0.4993 -0.6064  0.2855
 3527TIP3   OH232215   2.057   0.098   6.886  0.1133  0.0888  0.1182
 3527TIP3    H132216   2.087   0.125   6.799 -1.6149  1.3011 -0.1630
 3527TIP3    H232217   2.006   0.019   6.871  1.4702 -0.8659  0.3409
 3528TIP3   OH232218   4.979   3.509   1.169  0.0687  0.3906  0.5276
 3528TIP3    H132219   5.017   3.512   1.081 -0.5654  0.3687  0.2400
 3528TIP3    H232220   4.933   3.425   1.172 -0.2407  0.5644  0.7331
 3529TIP3   OH232221   2.596   0.905   2.597  0.5970 -0.1647 -0.3155
 3529TIP3    H132222   2.667   0.864   2.646  0.3152 -0.1320  0.1263
 3529TIP3    H232223   2.628   0.910   2.507  0.6658 -1.2598 -0.3575
 3530TIP3   OH232224   3.112   1.156   1.049 -0.4313  0.4901  0.3471
 3530TIP3    H132225   3.166   1.084   1.017 -2.4564 -0.2181 -1.7270
 3530TIP3    H232226   3.025   1.118   1.061 -1.3094  2.3537  0.2204
 3531TIP3   OH232227   5.450   2.988   7.736 -0.1688 -0.1928  0.0151
 3531TIP3    H132228   5.374   2.954   7.782  0.2208  0.2025  0.9764
 3531TIP3    H232229   5.484   2.912   7.687  0.2547 -1.0201  1.5379
 3532TIP3   OH232230   5.410   2.026   7.700  0.2980  0.1905  1.3213
 3532TIP3    H132231   5.418   1.949   7.757  2.2764 -1.4617 -0.9709
 3532TIP3    H232232   5.500   2.055   7.686  0.0052 -0.0996 -1.6867
 3533TIP3   OH232233   3.840   5.314   0.334 -0.0935 -0.4197  0.1180
 3533TIP3    H132234   3.845   5.371   0.257 -0.1105 -0.9357 -0.2639
 3533TIP3    H232235   3.754   5.274   0.328 -0.4646  0.2281  0.8999
 3534TIP3   OH232236   5.986   0.019   0.138 -0.0033  0.2905  0.3387
 3534TIP3    H132237   5.976  -0.009   0.047 -0.0366  1.0225  0.1167
 3534TIP3    H232238   6.067  -0.024   0.167  1.8140  2.5290 -1.0197
 3535TIP3   OH232239   6.342   1.120   1.853 -0.0041  0.1042  0.3510
 3535TIP3    H132240   6.384   1.199   1.886  0.6548  0.9058 -2.1645
 3535TIP3    H232241   6.268   1.105   1.912  0.4049  2.0456  1.4322
 3536TIP3   OH232242   4.242   1.894   1.109  0.2979 -0.4274 -0.2397
 3536TIP3    H132243   4.209   1.831   1.044 -1.0883  0.0182 -0.0091
 3536TIP3    H232244   4.316   1.936   1.066  0.0958 -0.9319 -1.1076
 3537TIP3   OH232245   3.317   3.584   1.116  0.0065 -0.0681  0.8968
 3537TIP3    H132246   3.334   3.648   1.047 -0.5747  0.0480  0.8527
 3537TIP3    H232247   3.260   3.630   1.178 -1.1690 -0.8066  0.4120
 3538TIP3   OH232248   3.727   0.815   8.061 -0.5407  0.8633  0.4177
 3538TIP3    H132249   3.683   0.776   8.137 -0.0444  0.3765  0.4590
 3538TIP3    H232250   3.760   0.741   8.011  0.0231  1.2091  0.2627
 3539TIP3   OH232251   4.562   2.205   7.700  0.0294 -0.4271  0.4565
 3539TIP3    H132252   4.617   2.223   7.776 -0.3466 -1.0588  0.8833
 3539TIP3    H232253   4.473   2.201   7.735 -0.3034  0.5251 -0.2101
 3540TIP3   OH232254   0.865   4.309   1.761  0.2609  0.1235  0.2870
 3540TIP3    H132255   0.805   4.238   1.785  0.0169  0.6349  1.2672
 3540TIP3    H232256   0.821   4.354   1.689 -0.7389  0.7049  1.2220
 3541TIP3   OH232257   2.943   5.121   6.771 -0.2727 -0.2758  0.6408
 3541TIP3    H132258   2.905   5.199   6.731  0.0272  0.1005  1.0794
 3541TIP3    H232259   2.873   5.055   6.767 -0.6131  0.0904  0.5032
 3542TIP3   OH232260   4.487   1.338   2.194  0.1907 -0.3523  0.9132
 3542TIP3    H132261   4.454   1.423   2.226  0.2851 -0.9354  2.6823
 3542TIP3    H232262   4.581   1.344   2.208  0.1573 -0.8646  1.3985
 3543TIP3   OH232263   0.307   3.109   0.774 -0.0417 -0.7293 -0.5900
 3543TIP3    H132264   0.339   3.046   0.838  0.4912  0.3497  0.2325
 3543TIP3    H232265   0.262   3.175   0.825 -1.2066 -0.7770 -1.5047
 3544TIP3   OH232266   2.174   4.645   0.222 -0.0352 -0.5666  0.5648
 3544TIP3    H132267   2.212   4.721   0.266  0.9335  0.2244 -1.5330
 3544TIP3    H232268   2.156   4.583   0.293  1.0828  0.7860  2.0980
 3545TIP3   OH232269   4.028   6.802   0.002  0.0918  0.4024 -0.6032
 3545TIP3    H132270   4.021   6.731  -0.063 -2.6145  0.0494 -0.0266
 3545TIP3    H232271   4.030   6.882  -0.051 -1.0594  0.0730 -1.1689
 3546TIP3   OH232272   6.454   4.266   0.759 -0.4376  0.1881 -0.3949
 3546TIP3    H132273   6.420   4.206   0.693 -1.9936 -0.8553  1.2496
 3546TIP3    H232274   6.376   4.302   0.802  0.4742 -0.0047  1.5543
 3547TIP3   OH232275   1.883   0.407   7.647 -0.3399 -0.4262 -0.1032
 3547TIP3    H132276   1.942   0.335   7.669  0.7580  0.1838 -0.9672
 3547TIP3    H232277   1.940   0.481   7.627 -1.4502  0.7609  0.9133
 3548TIP3   OH232278   1.421   4.615   1.290  0.5121 -0.9212 -0.2570
 3548TIP3    H132279   1.429   4.644   1.381 -0.0440 -2.8799  0.4616
 3548TIP3    H232280   1.495   4.556   1.277  1.0701 -0.0291 -1.3781
 3549TIP3   OH232281   3.540   2.709   1.104 -0.2600 -0.1111  0.0390
 3549TIP3    H132282   3.572   2.720   1.193 -1.0356  3.4491  0.0362
 3549TIP3    H232283   3.457   2.663   1.113 -1.1321  1.5964  1.4259
 3550TIP3   OH232284   5.157   6.629   2.412  0.4927 -0.0775 -0.3828
 3550TIP3    H132285   5.215   6.684   2.464  1.0299 -0.4786 -0.5465
 3550TIP3    H232286   5.190   6.540   2.425  0.3917 -0.2295 -1.0841
 3551TIP3   OH232287   2.529   2.454   0.381 -0.2022  0.3798  0.3890
 3551TIP3    H132288   2.494   2.433   0.294  1.4575  1.0168 -0.4770
 3551TIP3    H232289   2.556   2.370   0.417 -0.9314  0.1073  0.3213
 3552TIP3   OH232290   1.881   3.541   0.850 -0.0099 -0.2547 -0.8911
 3552TIP3    H132291   1.883   3.628   0.810 -1.2174 -0.0506 -0.5377
 3552TIP3    H232292   1.857   3.556   0.941  3.9341 -0.5996  0.3905
 3553TIP3   OH232293   6.579   0.610   0.563  0.2968 -0.0703 -0.0862
 3553TIP3    H132294   6.521   0.535   0.567  1.4106 -1.0075 -0.7651
 3553TIP3    H232295   6.521   0.685   0.552 -0.8180 -0.8672  0.2415
 3554TIP3   OH232296   3.234   2.744   0.828 -0.6099 -0.3948 -0.3649
 3554TIP3    H132297   3.318   2.698   0.826 -1.1404 -1.7107  2.6108
 3554TIP3    H232298   3.245   2.816   0.767  2.3493 -1.0617 -0.7716
 3555TIP3   OH232299   2.319   2.076   0.243 -0.2874 -0.2836  0.3738
 3555TIP3    H132300   2.374   2.014   0.291  1.0641  1.5716  1.3927
 3555TIP3    H232301   2.345   2.065   0.151  0.4968 -0.7131  0.6378
 3556TIP3   OH232302   0.587   1.112   0.085 -0.2819 -0.9432  0.0001
 3556TIP3    H132303   0.577   1.091  -0.008  0.2198 -0.1685 -0.2412
 3556TIP3    H232304   0.507   1.158   0.108  0.0918 -0.0829 -0.3687
 3557TIP3   OH232305   3.522   0.733   6.986 -0.4512  0.1849 -0.3621
 3557TIP3    H132306   3.464   0.739   6.910 -0.5779  1.6776 -0.1794
 3557TIP3    H232307   3.602   0.777   6.958 -0.0996 -0.2102  0.0133
 3558TIP3   OH232308   5.023   0.529   0.881 -0.2385  0.1271 -0.5674
 3558TIP3    H132309   5.028   0.615   0.923 -0.3436  0.3577 -1.0265
 3558TIP3    H232310   5.112   0.512   0.851 -0.0005 -0.3590  0.3713
 3559TIP3   OH232311   1.455   6.603   8.552  0.3969 -0.1054  0.0954
 3559TIP3    H132312   1.379   6.553   8.582  0.6448 -1.1085 -0.8642
 3559TIP3    H232313   1.420   6.668   8.492  0.3320 -1.0982 -0.9952
 3560TIP3   OH232314   5.529   0.848   7.424 -0.7085  0.9650  0.2324
 3560TIP3    H132315   5.459   0.843   7.359  0.5508 -0.2954 -1.1045
 3560TIP3    H232316   5.552   0.940   7.427 -1.5205  1.1984 -0.3030
 3561TIP3   OH232317   3.869   4.956   1.495 -0.2921  0.3792 -0.0297
 3561TIP3    H132318   3.853   4.893   1.565  0.2636  1.8926  1.5116
 3561TIP3    H232319   3.944   4.920   1.447 -1.3365 -1.2003 -0.5641
 3562TIP3   OH232320   1.820   0.123   8.309 -0.4607  0.2885  0.0760
 3562TIP3    H132321   1.901   0.078   8.285 -0.1013  1.8407 -1.8650
 3562TIP3    H232322   1.751   0.063   8.279 -0.0675 -0.5897  0.8518
 3563TIP3   OH232323   4.067   2.686   1.782  0.4858 -0.1213 -0.2735
 3563TIP3    H132324   3.983   2.733   1.781 -0.1440 -1.2024  0.1825
 3563TIP3    H232325   4.071   2.643   1.696  0.5146 -0.1710 -0.2471
 3564TIP3   OH232326   5.280   0.017   0.866 -0.3928 -0.0038  0.7480
 3564TIP3    H132327   5.352   0.060   0.819 -0.5146 -1.8188 -1.2248
 3564TIP3    H232328   5.218   0.088   0.885  1.0620  1.2815  0.8872
 3565TIP3   OH232329   6.607   3.450   8.235 -0.3172 -0.5849 -0.3981
 3565TIP3    H132330   6.575   3.532   8.275 -0.1077  0.4475 -2.2094
 3565TIP3    H232331   6.527   3.405   8.207 -0.3909 -0.3121 -0.6375
 3566TIP3   OH232332   6.198   2.851   7.871 -0.7197 -0.1304 -0.8690
 3566TIP3    H132333   6.258   2.918   7.904  0.3973 -1.3659 -0.2851
 3566TIP3    H232334   6.173   2.880   7.784  0.0724  0.8264 -0.7788
 3567TIP3   OH232335   4.544   1.949   1.334  0.1662  0.1446  0.1654
 3567TIP3    H132336   4.512   2.027   1.288 -0.9432 -0.4668 -0.1331
 3567TIP3    H232337   4.602   1.984   1.402 -1.2676  1.3368  0.8324
 3568TIP3   OH232338   2.350   4.389   2.693  0.7187 -0.0638 -0.1379
 3568TIP3    H132339   2.302   4.312   2.662  1.2358 -0.3032 -0.3543
 3568TIP3    H232340   2.284   4.442   2.739  0.2622 -0.4085 -0.3932
 3569TIP3   OH232341   5.544   1.557   6.780 -0.2836 -0.1831  0.9203
 3569TIP3    H132342   5.633   1.571   6.747  0.3925 -0.6253  2.4256
 3569TIP3    H232343   5.535   1.462   6.784 -1.3529 -0.1557 -0.5086
 3570TIP3   OH232344   6.421   4.058   1.211 -0.2037  0.2481 -0.7592
 3570TIP3    H132345   6.330   4.043   1.188 -0.1504 -0.9518 -0.3060
 3570TIP3    H232346   6.431   4.014   1.296  0.7859  0.3603 -0.8078
 3571TIP3   OH232347   3.114   0.880   6.503 -0.0083  0.2478  0.2255
 3571TIP3    H132348   3.160   0.831   6.572 -0.2376  0.0752  0.2564
 3571TIP3    H232349   3.028   0.899   6.540 -0.5247 -0.7860 -0.4114
 3572TIP3   OH232350   5.134   0.447   7.627 -0.2879  0.6984 -0.9232
 3572TIP3    H132351   5.174   0.496   7.699  1.0436  0.5425 -1.5285
 3572TIP3    H232352   5.055   0.409   7.665  0.3433  0.6814  0.4454
 3573TIP3   OH232353   1.857   6.595   2.173 -0.2391 -0.1083 -0.3393
 3573TIP3    H132354   1.891   6.642   2.097  0.0108  0.0187 -0.1494
 3573TIP3    H232355   1.911   6.625   2.246 -1.7370  1.2909  0.2617
 3574TIP3   OH232356   3.935   6.570   6.557 -0.0855  0.0003  0.0350
 3574TIP3    H132357   3.867   6.562   6.624 -0.7445 -1.1988 -0.7338
 3574TIP3    H232358   3.901   6.636   6.496 -1.3661 -1.7151 -1.2010
 3575TIP3   OH232359   3.151   4.786   8.188 -0.3129 -0.0127 -0.1455
 3575TIP3    H132360   3.232   4.744   8.218 -0.0966 -0.3703 -1.1903
 3575TIP3    H232361   3.170   4.812   8.098 -1.2987  0.0790 -0.3320
 3576TIP3   OH232362   5.048   2.876   7.543 -0.7428 -0.0460  0.4773
 3576TIP3    H132363   5.010   2.883   7.631 -0.5430  1.1339  0.4889
 3576TIP3    H232364   5.108   2.801   7.548 -0.5305  0.1745  1.4251
 3577TIP3   OH232365   6.100   6.131   0.367  0.4813  0.3270 -0.3076
 3577TIP3    H132366   6.046   6.127   0.446 -0.8608  0.2264 -1.1988
 3577TIP3    H232367   6.126   6.041   0.352  0.9988  0.3879  0.1782
 3578TIP3   OH232368   4.451   3.091   2.712 -0.2744  0.4233 -0.4120
 3578TIP3    H132369   4.471   3.168   2.659 -0.0403  0.3663 -0.4070
 3578TIP3    H232370   4.516   3.091   2.782  0.3464 -0.3111 -0.9710
 3579TIP3   OH232371   1.776   0.508   0.844  0.0448 -0.1346 -0.4677
 3579TIP3    H132372   1.726   0.443   0.894 -0.4895  0.3084 -0.4202
 3579TIP3    H232373   1.818   0.457   0.774  0.6343 -0.7312  0.2970
 3580TIP3   OH232374   6.841   6.796   7.566 -0.0380 -0.2372  0.3142
 3580TIP3    H132375   6.829   6.861   7.636  1.4730  0.0772  0.3225
 3580TIP3    H232376   6.804   6.715   7.602 -0.7307  0.2901  0.8303
 3581TIP3   OH232377   4.896   4.815   8.069 -0.1765 -0.1644 -0.4799
 3581TIP3    H132378   4.886   4.802   8.163 -0.2867  1.3242 -0.2695
 3581TIP3    H232379   4.991   4.809   8.054 -0.1058  0.1569 -0.1755
 3582TIP3   OH232380   5.613   4.141   7.137 -0.1557 -0.7139  0.2590
 3582TIP3    H132381   5.571   4.091   7.207 -1.3767 -0.2103 -0.0832
 3582TIP3    H232382   5.616   4.081   7.063  0.2438 -0.9375  0.4594
 3583TIP3   OH232383   5.285   4.972   7.570 -0.7725  0.7994 -0.1989
 3583TIP3    H132384   5.217   5.034   7.543 -0.5709  0.7908 -0.7303
 3583TIP3    H232385   5.240   4.912   7.630 -1.8747 -0.6638 -2.3522
 3584TIP3   OH232386   4.265   2.437   0.185  0.5371 -0.4174  0.0049
 3584TIP3    H132387   4.246   2.505   0.121 -0.8773 -0.2999  0.5191
 3584TIP3    H232388   4.324   2.480   0.248  0.5398 -0.0071 -0.2706
 3585TIP3   OH232389   4.934   0.246   1.222 -0.0943  0.3765  0.3733
 3585TIP3    H132390   4.925   0.170   1.164  0.5579  2.1203 -2.2082
 3585TIP3    H232391   5.022   0.279   1.204 -0.1235  1.3819  1.9353
 3586TIP3   OH232392   3.786   3.310   8.058 -0.3912 -0.2262  0.2379
 3586TIP3    H132393   3.816   3.260   7.982  0.7586  0.1917  0.3887
 3586TIP3    H232394   3.863   3.313   8.115 -0.0349  2.7024 -0.2721
 3587TIP3   OH232395   6.396   2.150   7.078  0.0997 -0.3202 -0.1908
 3587TIP3    H132396   6.364   2.097   7.005 -0.3523  0.8407 -0.8597
 3587TIP3    H232397   6.317   2.185   7.119  0.3918 -0.1333  0.2246
 3588TIP3   OH232398   4.944   0.487   6.941 -0.1724 -0.4805  0.6373
 3588TIP3    H132399   4.850   0.497   6.959 -0.3925 -0.7388 -0.3400
 3588TIP3    H232400   4.979   0.576   6.948 -0.1791 -0.5902  2.6030
 3589TIP3   OH232401   2.904   4.487   0.405 -0.0186  0.1068 -0.1891
 3589TIP3    H132402   2.914   4.438   0.486 -0.6445 -0.5024 -0.4712
 3589TIP3    H232403   2.818   4.462   0.372 -0.9635  2.4095  0.3244
 3590TIP3   OH232404   5.090   2.097   8.440  0.3090  0.3201 -0.3246
 3590TIP3    H132405   5.038   2.177   8.449  1.5066  0.9898  1.1121
 3590TIP3    H232406   5.047   2.048   8.370 -2.0370  0.9871  0.5479
 3591TIP3   OH232407   3.971   6.077   7.533  0.1578 -0.6137 -0.5431
 3591TIP3    H132408   3.991   6.146   7.596 -1.7458 -0.1751 -0.3711
 3591TIP3    H232409   3.951   6.124   7.452 -0.6047 -0.9705 -0.5737
 3592TIP3   OH232410   1.288   1.043   2.920  0.3260 -0.0799 -0.1608
 3592TIP3    H132411   1.331   0.972   2.967  1.9527  0.0633 -1.3638
 3592TIP3    H232412   1.333   1.122   2.948 -1.4787  0.5539  1.1703
 3593TIP3   OH232413   1.818   0.550   2.486  0.6462  0.0306  0.2773
 3593TIP3    H132414   1.890   0.501   2.446  0.7902  2.5390 -2.9070
 3593TIP3    H232415   1.739   0.513   2.447  0.7018  1.5246 -1.3810
 3594TIP3   OH232416   3.278   2.088   7.705 -0.6503 -0.4630 -0.3172
 3594TIP3    H132417   3.281   2.003   7.749  0.1963  1.5678  4.0954
 3594TIP3    H232418   3.370   2.112   7.694 -0.8654  0.3517 -0.4023
 3595TIP3   OH232419   0.749   0.677   1.821 -0.3641 -0.0938 -0.3041
 3595TIP3    H132420   0.834   0.652   1.857 -0.8834 -2.1482 -0.3375
 3595TIP3    H232421   0.769   0.734   1.747  0.7986  2.5540  1.8776
 3596TIP3   OH232422   2.362   3.973   1.402  0.1167  0.5727 -0.3270
 3596TIP3    H132423   2.396   3.937   1.484  1.1662  1.5397 -0.3187
 3596TIP3    H232424   2.267   3.971   1.413  0.2349  0.2720  0.7267
 3597TIP3   OH232425   5.141   4.579   1.008 -0.0466 -0.0832  0.5135
 3597TIP3    H132426   5.147   4.619   0.922 -1.0084 -2.2151 -0.6108
 3597TIP3    H232427   5.172   4.489   0.996  3.1770  0.4630  3.1789
 3598TIP3   OH232428   1.674   4.355   8.337 -0.5902 -0.3721  0.0588
 3598TIP3    H132429   1.619   4.279   8.319 -2.3897  1.1311 -1.2285
 3598TIP3    H232430   1.651   4.418   8.268  0.7199  1.3989  1.1464
 3599TIP3   OH232431   3.044   4.404   1.408  0.2374  0.3078  0.2376
 3599TIP3    H132432   3.039   4.497   1.428 -1.4017  0.1765  0.5544
 3599TIP3    H232433   3.083   4.365   1.487 -0.3177  0.5662  0.6466
 3600TIP3   OH232434   2.638   6.358   0.862  0.5030 -0.0637 -0.9651
 3600TIP3    H132435   2.629   6.435   0.806 -1.8298  0.2843 -0.2186
 3600TIP3    H232436   2.550   6.323   0.869  0.4543  0.3856  3.1049
 3601TIP3   OH232437   2.847   4.078   1.075 -0.7661 -0.1459 -0.7348
 3601TIP3    H132438   2.839   4.168   1.105 -1.1777 -0.7412  1.0846
 3601TIP3    H232439   2.899   4.083   0.995  1.1696  1.4860  0.5491
 3602TIP3   OH232440   6.142   2.122   7.241 -0.8002  0.0469  0.6662
 3602TIP3    H132441   6.069   2.154   7.189  0.5643  2.0910 -0.0946
 3602TIP3    H232442   6.155   2.032   7.211 -2.3601 -0.0363  0.1530
 3603TIP3   OH232443   2.862   2.016   7.436  0.2129 -0.0095  0.2855
 3603TIP3    H132444   2.803   1.971   7.376  0.4602 -0.5053  0.4135
 3603TIP3    H232445   2.805   2.047   7.507  0.2912 -1.6367  1.0855
 3604TIP3   OH232446   4.545   6.631   7.645 -0.1206 -0.6224 -0.3426
 3604TIP3    H132447   4.505   6.617   7.730 -0.7336 -0.8993 -0.6692
 3604TIP3    H232448   4.472   6.632   7.583  0.4141 -1.9904 -1.0549
 3605TIP3   OH232449   1.856   1.347   7.436  0.1384 -0.0643 -0.0846
 3605TIP3    H132450   1.813   1.263   7.448  1.6485 -0.9964 -0.9381
 3605TIP3    H232451   1.858   1.360   7.341 -1.2189  1.5880  0.0556
 3606TIP3   OH232452   3.373   6.244   8.060 -0.5423 -0.2150 -0.3292
 3606TIP3    H132453   3.332   6.315   8.109 -1.4026 -0.1466 -1.1105
 3606TIP3    H232454   3.384   6.174   8.123  1.1982  0.9075  0.7024
 3607TIP3   OH232455   0.894   6.470   2.456 -0.3324 -0.3017  0.1780
 3607TIP3    H132456   0.972   6.415   2.465  0.2998  0.5639  0.0993
 3607TIP3    H232457   0.832   6.434   2.520  0.2473 -0.8022  0.4676
 3608TIP3   OH232458   4.711   2.394   6.831 -0.0675  0.5649  0.3807
 3608TIP3    H132459   4.706   2.459   6.760  0.3110 -0.1932 -0.3530
 3608TIP3    H232460   4.694   2.310   6.788  1.2937 -0.0391  0.9766
 3609TIP3   OH232461   2.479   1.426   1.250  0.7640 -0.3670 -0.4632
 3609TIP3    H132462   2.391   1.464   1.261  0.2965 -1.8019  1.3119
 3609TIP3    H232463   2.538   1.493   1.284  0.0235 -0.7575  1.7571
 3610TIP3   OH232464   2.010   0.801   1.211  0.3846  0.1138 -0.9219
 3610TIP3    H132465   1.957   0.768   1.283  0.2396  0.1339 -1.0186
 3610TIP3    H232466   1.966   0.769   1.132 -0.1607  1.1160 -1.0423
 3611TIP3   OH232467   2.241   3.001   7.535  0.0315  0.3038 -0.3507
 3611TIP3    H132468   2.312   2.997   7.598  0.8247 -0.2104 -1.2539
 3611TIP3    H232469   2.261   3.078   7.482 -0.1071  0.1874 -0.5735
 3612TIP3   OH232470   4.054   5.040   7.131 -0.1173  0.1614  0.4997
 3612TIP3    H132471   4.087   5.030   7.042 -1.3534  1.6074 -0.1558
 3612TIP3    H232472   4.120   5.095   7.174 -0.6743  1.4759 -0.2597
 3613TIP3   OH232473   1.114   2.130   8.454  0.1333  0.4052 -0.0032
 3613TIP3    H132474   1.160   2.053   8.421 -0.9735 -0.6191  0.7620
 3613TIP3    H232475   1.145   2.139   8.545  0.2998  0.9075 -0.1042
 3614TIP3   OH232476   4.335   2.680   1.850 -0.4559 -0.1997 -0.2394
 3614TIP3    H132477   4.360   2.668   1.758 -2.3348  2.8760 -1.3272
 3614TIP3    H232478   4.243   2.709   1.846 -0.0822  1.7594  2.4210
 3615TIP3   OH232479   0.611   5.802   0.482 -0.0685  0.4655  0.4757
 3615TIP3    H132480   0.594   5.720   0.436  2.3451  0.0467  0.2315
 3615TIP3    H232481   0.586   5.784   0.573  0.2151 -0.4623  0.3794
 3616TIP3   OH232482   2.748   2.157   7.953 -0.2868  1.0931  0.2391
 3616TIP3    H132483   2.840   2.137   7.970 -0.2603  1.3962  0.4689
 3616TIP3    H232484   2.744   2.253   7.954 -0.9348  1.0855  2.0411
 3617TIP3   OH232485   3.421   3.087   6.850  0.0753 -0.0423 -0.0541
 3617TIP3    H132486   3.327   3.079   6.839  0.1789 -0.8485 -0.4396
 3617TIP3    H232487   3.433   3.109   6.943 -0.4218 -1.7318  0.4534
 3618TIP3   OH232488   3.315   4.234   1.565 -0.4211  0.7926  0.0378
 3618TIP3    H132489   3.364   4.316   1.558 -0.0980  0.7045  1.0813
 3618TIP3    H232490   3.345   4.196   1.647 -0.9566 -0.1229 -0.1831
 3619TIP3   OH232491   5.144   4.272   8.629 -0.4588  0.3008 -0.1458
 3619TIP3    H132492   5.072   4.309   8.679  0.4271  1.2400  0.4599
 3619TIP3    H232493   5.143   4.178   8.650 -1.0774  0.4228  0.3789
 3620TIP3   OH232494   3.375   4.992   1.565 -0.1133 -0.5648  0.0514
 3620TIP3    H132495   3.457   5.014   1.521  0.8230 -0.6425  1.6457
 3620TIP3    H232496   3.379   4.897   1.576  1.2127 -0.2812  2.9931
 3621TIP3   OH232497   1.083   4.859   8.458  0.4123 -0.1946 -0.4454
 3621TIP3    H132498   1.047   4.845   8.545  0.7726 -0.6278 -0.3640
 3621TIP3    H232499   1.031   4.931   8.422  1.6545  1.5189  0.9436
 3622TIP3   OH232500   4.424   1.726   7.737 -0.5902  0.6639 -0.2038
 3622TIP3    H132501   4.388   1.660   7.679 -2.2189  0.6813  0.7131
 3622TIP3    H232502   4.392   1.702   7.824  2.3659  0.2019  0.8856
 3623TIP3   OH232503   6.555   1.329   1.166 -0.1342 -0.4045 -0.1432
 3623TIP3    H132504   6.533   1.375   1.085  2.7136  0.5038 -0.5079
 3623TIP3    H232505   6.531   1.391   1.236 -0.5191 -0.2746 -0.3864
 3624TIP3   OH232506   0.164   4.215   1.645 -0.2857  0.2968 -0.5644
 3624TIP3    H132507   0.124   4.291   1.603  0.3185  0.3916 -0.9861
 3624TIP3    H232508   0.221   4.178   1.578  0.5949  0.3743  0.1189
 3625TIP3   OH232509   3.811   2.417   0.824  0.5238  0.3310  0.4564
 3625TIP3    H132510   3.768   2.422   0.910  1.1102 -0.3427  0.8000
 3625TIP3    H232511   3.847   2.505   0.810  1.2532  0.1966  1.3499
 3626TIP3   OH232512   2.569   1.637   0.777 -0.2517  0.3060  0.3578
 3626TIP3    H132513   2.638   1.627   0.843  0.3717  1.3980 -0.1064
 3626TIP3    H232514   2.489   1.615   0.823  0.3413 -0.5057  1.0439
 3627TIP3   OH232515   1.346   5.820   1.451  0.1733  0.1565  0.1410
 3627TIP3    H132516   1.380   5.741   1.493 -0.4014  0.2240  0.7603
 3627TIP3    H232517   1.333   5.881   1.524  0.5863  0.8144 -0.3277
 3628TIP3   OH232518   6.576   5.972   1.998 -0.4842  0.1819  0.0281
 3628TIP3    H132519   6.620   5.892   2.026 -0.3838 -0.0523 -0.7685
 3628TIP3    H232520   6.557   6.019   2.079  0.5219 -0.0898  0.4311
 3629TIP3   OH232521   3.333   2.740   0.217 -0.7291  0.1612 -0.7114
 3629TIP3    H132522   3.278   2.701   0.148 -2.0585 -0.8316  0.8163
 3629TIP3    H232523   3.319   2.683   0.293  1.0832  0.9232  0.2587
 3630TIP3   OH232524   2.490   4.445   2.233  0.2134  0.3310 -0.5193
 3630TIP3    H132525   2.459   4.495   2.157 -0.5401 -0.1588 -0.5534
 3630TIP3    H232526   2.442   4.482   2.307  0.1274  0.0796 -0.4491
 3631TIP3   OH232527   5.772   4.005   6.666 -0.0062 -0.1140 -0.2489
 3631TIP3    H132528   5.839   3.938   6.661 -2.0338 -2.1825 -2.7346
 3631TIP3    H232529   5.810   4.074   6.720  1.8490 -3.6309  3.4186
 3632TIP3   OH232530   0.079   3.043   7.886 -0.1112  0.7897  0.3723
 3632TIP3    H132531   0.164   3.084   7.903  0.0016  1.3750 -1.4581
 3632TIP3    H232532   0.070   3.044   7.791 -0.2912 -3.0944  0.1866
 3633TIP3   OH232533   3.256   4.556   0.309 -0.6323 -0.4107  0.2500
 3633TIP3    H132534   3.344   4.526   0.288 -0.8906 -0.3966 -0.8969
 3633TIP3    H232535   3.266   4.649   0.327 -0.4539 -0.3490 -0.1611
 3634TIP3   OH232536   6.083   0.375   0.788 -0.5131 -0.1056  0.9726
 3634TIP3    H132537   6.044   0.412   0.867 -1.0284  0.1463  0.6066
 3634TIP3    H232538   6.016   0.387   0.721  0.1937  0.3185  0.3321
 3635TIP3   OH232539   1.399   3.996   7.636  0.3708  0.8389  0.3109
 3635TIP3    H132540   1.391   4.015   7.543 -1.6702  1.1703  0.5086
 3635TIP3    H232541   1.452   4.067   7.671  2.4236 -0.0675 -0.7815
 3636TIP3   OH232542   2.514   0.671   0.714  0.2275  0.3604  0.0765
 3636TIP3    H132543   2.608   0.671   0.731  0.0363  0.4995  1.1502
 3636TIP3    H232544   2.474   0.705   0.794 -0.6424  1.9868 -0.9833
 3637TIP3   OH232545   5.658   4.883   0.659 -0.3020  0.6351  0.1525
 3637TIP3    H132546   5.642   4.897   0.566  1.3485  2.1524  0.0373
 3637TIP3    H232547   5.625   4.795   0.677 -1.1580  0.5427 -1.7279
 3638TIP3   OH232548   6.789   6.830   2.204 -0.2001  0.2448 -0.1881
 3638TIP3    H132549   6.698   6.850   2.225  0.1143  0.4107  1.1045
 3638TIP3    H232550   6.839   6.898   2.248  0.5930 -0.2396 -0.3227
 3639TIP3   OH232551   4.637   4.933   0.818 -0.0279  0.0304 -0.2269
 3639TIP3    H132552   4.700   5.005   0.813 -0.7889  0.6806 -0.5290
 3639TIP3    H232553   4.571   4.963   0.880 -0.1939 -0.5412 -0.1216
 3640TIP3   OH232554   6.173   2.219   6.831 -0.5503  0.1009  0.2351
 3640TIP3    H132555   6.091   2.169   6.830 -1.7637  1.8972  2.0555
 3640TIP3    H232556   6.241   2.152   6.838 -1.8536 -1.4264 -0.7411
 3641TIP3   OH232557   6.331   0.830   7.933 -0.4975  0.1502  0.0599
 3641TIP3    H132558   6.262   0.893   7.912 -0.9354  0.7559  2.9419
 3641TIP3    H232559   6.285   0.746   7.943 -0.3511 -0.0436 -0.7552
 3642TIP3   OH232560   5.106   6.017   0.763  0.1956  0.0751  0.2408
 3642TIP3    H132561   5.046   6.082   0.799  0.6475  0.4487  0.3350
 3642TIP3    H232562   5.090   5.939   0.815  0.6714  0.5378  1.1051
 3643TIP3   OH232563   3.852   6.416   1.757  0.0219 -0.1361 -0.5341
 3643TIP3    H132564   3.831   6.370   1.838  2.6530 -1.3937 -0.4682
 3643TIP3    H232565   3.861   6.507   1.783 -0.7128 -0.2694  0.2550
 3644TIP3   OH232566   0.995   0.028   1.583 -0.0380  0.3809  0.5356
 3644TIP3    H132567   1.068  -0.012   1.631 -1.1894 -1.7962  0.5887
 3644TIP3    H232568   0.953   0.086   1.646 -0.0239 -0.5237  1.4000
 3645TIP3   OH232569   1.011   3.962   7.168 -0.2657 -0.2327 -0.2491
 3645TIP3    H132570   1.051   4.043   7.137  0.2157 -1.4730 -3.1753
 3645TIP3    H232571   0.926   3.959   7.124 -0.7355 -0.8378  0.6732
 3646TIP3   OH232572   4.675   2.338   8.667  0.1885 -0.0941 -0.0335
 3646TIP3    H132573   4.585   2.356   8.640 -0.7521 -1.8962  1.5979
 3646TIP3    H232574   4.694   2.405   8.732 -0.0200  0.2291 -0.3025
 3647TIP3   OH232575   4.918   6.901   0.864 -0.2163  0.6774  0.0321
 3647TIP3    H132576   4.869   6.893   0.945  0.9005 -0.2277  0.6501
 3647TIP3    H232577   4.985   6.967   0.882  0.5688 -0.1282  0.1508
 3648TIP3   OH232578   2.175   1.428   1.200  0.3085  0.5560  0.2766
 3648TIP3    H132579   2.139   1.453   1.115  0.9429  1.3252  0.2204
 3648TIP3    H232580   2.172   1.508   1.252 -0.3731  0.0148  1.1015
 3649TIP3   OH232581   5.371   6.687   0.754  0.5597 -0.1718 -0.1759
 3649TIP3    H132582   5.338   6.756   0.812 -1.0541 -1.5369  0.6182
 3649TIP3    H232583   5.462   6.711   0.738  0.0899  2.0749  0.1442
 3650TIP3   OH232584   5.128   2.206   0.539 -0.1485 -0.0462 -0.6479
 3650TIP3    H132585   5.118   2.148   0.463  0.7350 -2.9560  1.2714
 3650TIP3    H232586   5.201   2.168   0.588 -1.5701  0.8262  2.3624
 3651TIP3   OH232587   1.601   1.067   1.887  0.1532 -0.0662  0.1105
 3651TIP3    H132588   1.589   1.162   1.881 -0.7978 -0.0901  1.2188
 3651TIP3    H232589   1.661   1.056   1.962  2.2733 -0.2552 -1.5277
 3652TIP3   OH232590   6.189   6.765   0.241 -0.0798 -0.1459 -0.4225
 3652TIP3    H132591   6.161   6.820   0.314  1.8626 -0.8111  0.9094
 3652TIP3    H232592   6.129   6.691   0.241 -1.8155  1.2091 -1.3094
 3653TIP3   OH232593   5.974   5.281   8.653 -0.6627  0.2058 -0.2132
 3653TIP3    H132594   6.008   5.328   8.576  0.4462 -0.3463 -0.0796
 3653TIP3    H232595   5.916   5.214   8.616  1.8880 -1.8268 -0.8521
 3654TIP3   OH232596   2.902   2.710   6.997  0.0609  0.3855  0.8722
 3654TIP3    H132597   2.860   2.790   6.966 -0.9166 -0.3333  0.2872
 3654TIP3    H232598   2.844   2.640   6.968  1.1272 -0.5695  1.0029
 3655TIP3   OH232599   4.915   5.566   0.873 -0.1408 -0.1483  0.5559
 3655TIP3    H132600   4.987   5.629   0.862  1.3784 -1.6515  1.2602
 3655TIP3    H232601   4.948   5.505   0.939 -0.9675 -2.4723 -1.0708
 3656TIP3   OH232602   6.485   2.392   0.277  0.3380 -0.3266 -0.0849
 3656TIP3    H132603   6.527   2.450   0.340 -1.7580  0.4546  0.6919
 3656TIP3    H232604   6.459   2.316   0.329 -2.6156  0.9027  0.4449
 3657TIP3   OH232605   2.622   0.780   1.671  0.3888 -0.0141 -0.1169
 3657TIP3    H132606   2.592   0.861   1.714 -1.9941 -1.2736  0.7753
 3657TIP3    H232607   2.702   0.757   1.718 -1.2758 -0.4668  2.7660
 3658TIP3   OH232608   0.241   6.652   2.647  0.0423  0.6556  0.4317
 3658TIP3    H132609   0.187   6.577   2.622 -0.4748  0.1472  2.7837
 3658TIP3    H232610   0.331   6.622   2.632 -0.2106  0.7123 -1.4644
 3659TIP3   OH232611   2.430   5.761   0.374 -0.2555 -0.6163 -0.3116
 3659TIP3    H132612   2.396   5.730   0.458 -1.5075  0.0805 -0.5378
 3659TIP3    H232613   2.476   5.685   0.338 -1.9578 -1.7676 -0.1685
 3660TIP3   OH232614   5.038   1.667   8.056  0.1149  0.1761  0.2006
 3660TIP3    H132615   5.091   1.709   7.988 -2.8538  2.9867 -0.6486
 3660TIP3    H232616   5.091   1.673   8.135  0.9129  3.5447 -0.4214
 3661TIP3   OH232617   1.937   3.806   8.146 -0.6978 -0.2360 -0.1199
 3661TIP3    H132618   1.867   3.745   8.167 -0.7699  0.2472  1.1342
 3661TIP3    H232619   1.910   3.889   8.184  1.2545 -0.4136  1.8955
 3662TIP3   OH232620   4.395   4.793   1.267  0.3606 -0.0441 -0.4500
 3662TIP3    H132621   4.432   4.739   1.336 -0.2709 -0.0024 -0.0718
 3662TIP3    H232622   4.387   4.880   1.306  1.3705  0.3345 -1.0531
 3663TIP3   OH232623   4.622   6.398   7.786  0.2568 -0.6823  0.3326
 3663TIP3    H132624   4.646   6.480   7.743  1.6724 -1.3957 -0.2839
 3663TIP3    H232625   4.565   6.425   7.859 -0.2411  0.7342 -0.5378
 3664TIP3   OH232626   6.266   4.746   7.651  0.0859 -0.0009 -0.8288
 3664TIP3    H132627   6.172   4.729   7.643 -0.0180  0.4398 -0.5985
 3664TIP3    H232628   6.293   4.691   7.725  0.7310 -2.8309 -3.0113
 3665TIP3   OH232629   0.650   3.320   2.658  0.6214 -0.4358 -0.4613
 3665TIP3    H132630   0.653   3.403   2.707  0.0376 -1.3895  1.2684
 3665TIP3    H232631   0.653   3.347   2.566  0.5348  1.4973  0.0467
 3666TIP3   OH232632   6.579   4.173   1.748  0.5554 -0.1478 -0.4003
 3666TIP3    H132633   6.641   4.112   1.709  0.1512 -0.6975 -0.2019
 3666TIP3    H232634   6.519   4.196   1.677  1.4265  0.9943 -0.7975
 3667TIP3   OH232635   3.493   1.331   8.455  0.5867 -0.0284  0.5495
 3667TIP3    H132636   3.537   1.325   8.540  0.8033 -0.3495  0.4148
 3667TIP3    H232637   3.532   1.262   8.402  0.3233  0.0520  0.2441
 3668TIP3   OH232638   1.477   1.576   7.311  0.2188  0.6042  0.4828
 3668TIP3    H132639   1.458   1.597   7.220  1.6862  2.1816  0.4972
 3668TIP3    H232640   1.419   1.632   7.362  0.5509  0.9418  0.5000
 3669TIP3   OH232641   6.887   4.403   8.360 -0.4416  0.2879  0.0858
 3669TIP3    H132642   6.973   4.434   8.387 -1.0199  1.7201  0.3622
 3669TIP3    H232643   6.888   4.410   8.265 -0.3811  0.6918  0.1121
 3670TIP3   OH232644   3.130   1.318   7.317 -0.1062  0.2179 -0.2018
 3670TIP3    H132645   3.089   1.312   7.231  0.3548 -0.0801 -0.4073
 3670TIP3    H232646   3.079   1.259   7.373  0.6769 -0.9903 -0.7167
 3671TIP3   OH232647   4.294   5.481   8.197  0.3687  0.4421 -0.0117
 3671TIP3    H132648   4.264   5.390   8.200  1.1178  0.1886  0.0043
 3671TIP3    H232649   4.238   5.523   8.131  0.4308 -0.1878 -0.4715
 3672TIP3   OH232650   6.318   4.524   6.384  0.2495 -0.0540  0.3595
 3672TIP3    H132651   6.320   4.506   6.478  1.2487  3.3555  1.1067
 3672TIP3    H232652   6.255   4.596   6.374  0.1649 -0.3416 -1.6165
 3673TIP3   OH232653   5.375   2.775   0.631  0.4354 -0.1622  0.9356
 3673TIP3    H132654   5.381   2.723   0.551  0.5029 -0.0160  0.8447
 3673TIP3    H232655   5.462   2.813   0.642  0.6634 -0.8413  1.5308
 3674TIP3   OH232656   0.991   2.185   1.455 -0.2638  0.8137 -0.0993
 3674TIP3    H132657   0.908   2.232   1.450  0.0684  1.3178 -1.0956
 3674TIP3    H232658   1.010   2.161   1.364  1.4571  2.0889 -0.1162
 3675TIP3   OH232659   6.745   6.546   7.373  0.0267  0.0945  0.0413
 3675TIP3    H132660   6.773   6.528   7.462 -1.4234 -2.4902  0.0631
 3675TIP3    H232661   6.650   6.534   7.374 -0.3042  1.9883 -1.4679
 3676TIP3   OH232662   3.303   0.973   0.979  0.0001  0.4534  0.6457
 3676TIP3    H132663   3.306   0.880   0.956  0.2633  0.2636  1.4345
 3676TIP3    H232664   3.304   1.018   0.894 -2.2201 -0.2804  0.1679
 3677TIP3   OH232665   2.293   3.985   2.196  0.1721 -0.0454  0.1349
 3677TIP3    H132666   2.229   4.039   2.243  0.5546  0.0319  0.5719
 3677TIP3    H232667   2.378   4.025   2.217  0.5648 -1.3869  1.2648
 3678TIP3   OH232668   0.345   3.685   1.887  0.2656  0.0812 -0.1648
 3678TIP3    H132669   0.321   3.599   1.853  0.5829  0.3121 -0.9926
 3678TIP3    H232670   0.317   3.683   1.979 -1.0919 -0.3686 -0.5666
 3679TIP3   OH232671   5.751   0.382   0.911  0.0822 -0.1798 -0.5700
 3679TIP3    H132672   5.655   0.389   0.915  0.0380 -0.7385 -0.5328
 3679TIP3    H232673   5.778   0.453   0.853 -0.3086  0.3242 -0.1400
 3680TIP3   OH232674   1.486   0.418   1.978  0.1017 -0.6403  0.6580
 3680TIP3    H132675   1.582   0.419   1.984  0.0781 -0.2523  0.9856
 3680TIP3    H232676   1.464   0.325   1.975  0.5465 -0.7256 -0.3619
 3681TIP3   OH232677   6.433   2.851   0.841  0.0364  0.3177 -0.0679
 3681TIP3    H132678   6.398   2.911   0.776 -3.4698 -1.3449  0.0675
 3681TIP3    H232679   6.425   2.899   0.924 -0.4805  0.5224 -0.2330
 3682TIP3   OH232680   5.775   5.475   1.502 -0.2991 -0.4299  0.2693
 3682TIP3    H132681   5.858   5.519   1.486 -0.4210  0.6567  2.2538
 3682TIP3    H232682   5.719   5.502   1.429 -0.0073  1.8821  0.8170
 3683TIP3   OH232683   5.424   0.482   0.156  0.1825 -0.1336  0.1605
 3683TIP3    H132684   5.360   0.465   0.225  0.5099 -0.3501  0.4123
 3683TIP3    H232685   5.389   0.435   0.080  0.3011 -0.6769  0.4355
 3684TIP3   OH232686   1.657   0.806   8.199  0.2241 -0.2805  0.0665
 3684TIP3    H132687   1.717   0.797   8.273  0.9087 -0.8364 -0.5305
 3684TIP3    H232688   1.604   0.726   8.201  0.4352 -0.4285 -0.2027
 3685TIP3   OH232689   2.975   3.487   7.290  0.2382 -0.2997  0.3109
 3685TIP3    H132690   2.953   3.405   7.245 -0.7280  1.0526 -1.8275
 3685TIP3    H232691   2.901   3.503   7.348  1.2474 -1.7841  2.1202
 3686TIP3   OH232692   0.829   4.356   7.713 -0.2554 -0.1631 -0.4167
 3686TIP3    H132693   0.878   4.401   7.782  1.6685  1.0878 -2.4471
 3686TIP3    H232694   0.767   4.422   7.680 -1.0117 -0.6780 -0.0331
 3687TIP3   OH232695   1.342   2.286   8.148  0.1982  0.5576 -0.1327
 3687TIP3    H132696   1.416   2.334   8.109  0.1579  2.5169  1.9471
 3687TIP3    H232697   1.365   2.279   8.241 -0.4567 -2.3956 -0.1071
 3688TIP3   OH232698   2.652   5.782   0.070  0.4699 -0.5108 -0.5389
 3688TIP3    H132699   2.725   5.807   0.126 -0.3725 -2.3836  1.5335
 3688TIP3    H232700   2.592   5.857   0.072  0.3629 -0.6157  1.2989
 3689TIP3   OH232701   4.766   3.209   8.551 -0.0203  0.3006 -0.3201
 3689TIP3    H132702   4.686   3.251   8.519 -0.1532 -0.1585 -0.5859
 3689TIP3    H232703   4.788   3.145   8.484  1.0624  1.0215 -0.6887
 3690TIP3   OH232704   1.318   1.579   1.292  0.0880  0.0017  0.4614
 3690TIP3    H132705   1.262   1.591   1.215  0.4146 -0.8133  0.0797
 3690TIP3    H232706   1.322   1.665   1.333 -2.7633 -0.2191  1.4374
 3691TIP3   OH232707   5.348   4.155   2.169 -0.0323 -0.3157  0.1147
 3691TIP3    H132708   5.256   4.129   2.171 -0.1569 -0.1673 -1.5901
 3691TIP3    H232709   5.396   4.073   2.181 -0.4002 -0.5409  0.0713
 3692TIP3   OH232710   4.870   2.253   8.442  0.3136 -0.0003 -0.3294
 3692TIP3    H132711   4.920   2.310   8.500 -0.7938  1.2815 -0.5985
 3692TIP3    H232712   4.797   2.222   8.495  0.8764 -1.1812 -0.1996
 3693TIP3   OH232713   1.271   2.320   1.867  0.3915  0.2007  0.0018
 3693TIP3    H132714   1.342   2.297   1.807  0.7072 -0.0075  0.4510
 3693TIP3    H232715   1.192   2.306   1.816  0.6605  0.2115 -0.4293
 3694TIP3   OH232716   0.967   2.246   0.824 -0.2508 -0.3923 -0.1120
 3694TIP3    H132717   0.933   2.332   0.846  2.0123  0.2564  1.1706
 3694TIP3    H232718   0.943   2.233   0.732 -0.9963  1.4091 -0.2029
 3695TIP3   OH232719   3.633   2.786   1.411 -0.1950 -0.7147  0.0879
 3695TIP3    H132720   3.600   2.876   1.408  2.0517  0.1426 -0.5319
 3695TIP3    H232721   3.570   2.739   1.466 -1.4605  1.2013  0.3482
 3696TIP3   OH232722   2.316   0.080   1.279 -0.7492 -0.3231 -0.0620
 3696TIP3    H132723   2.409   0.089   1.299 -0.1663  1.2325 -2.8429
 3696TIP3    H232724   2.308  -0.006   1.238  0.0142  0.4118 -1.8862
 3697TIP3   OH232725   1.302   2.378   7.069 -0.0997 -0.5886  0.0748
 3697TIP3    H132726   1.272   2.454   7.119  0.3195 -0.4598  0.1341
 3697TIP3    H232727   1.274   2.302   7.121 -2.1806 -0.5477 -0.9087
 3698TIP3   OH232728   3.100   2.870   1.769 -0.4765 -0.1180  0.0259
 3698TIP3    H132729   3.110   2.806   1.839  3.5588  0.4264  0.1770
 3698TIP3    H232730   3.017   2.914   1.788 -1.6104 -2.7961  1.9416
 3699TIP3   OH232731   5.046   3.747   7.959 -0.1660 -0.7539 -0.4843
 3699TIP3    H132732   4.976   3.712   8.014  1.2746  0.3419  2.2656
 3699TIP3    H232733   5.118   3.684   7.968  0.3027 -0.2409 -0.5521
 3700TIP3   OH232734   1.121   5.149   8.340 -0.5118 -0.4821 -0.1064
 3700TIP3    H132735   1.159   5.152   8.428 -0.0015 -1.4053 -0.2720
 3700TIP3    H232736   1.165   5.075   8.298  0.0180  0.5840 -1.5000
 3701TIP3   OH232737   2.206   1.016   8.250 -0.1612  0.1834  0.0601
 3701TIP3    H132738   2.173   1.092   8.201  0.9148  0.2236 -0.6231
 3701TIP3    H232739   2.298   1.011   8.227  0.1568 -0.3605  1.3826
 3702TIP3   OH232740   6.607   5.873   0.493  0.2716  0.7058 -0.1805
 3702TIP3    H132741   6.571   5.891   0.580 -3.0443 -0.7244 -1.0974
 3702TIP3    H232742   6.579   5.947   0.439 -0.7456 -0.0645 -0.7462
 3703TIP3   OH232743   6.780   0.603   7.014 -0.2193  0.0612 -0.4672
 3703TIP3    H132744   6.728   0.681   7.035 -1.0172  0.1375 -2.4851
 3703TIP3    H232745   6.866   0.637   6.992 -0.4890  0.3857 -1.0701
 3704TIP3   OH232746   6.348   6.336   2.012  0.4694 -0.3838 -0.4324
 3704TIP3    H132747   6.330   6.262   2.069  0.8213 -0.0234  0.1605
 3704TIP3    H232748   6.262   6.368   1.985  0.3202 -1.1464 -0.8848
 3705TIP3   OH232749   4.630   1.430   8.449  0.1053 -0.4638  0.5336
 3705TIP3    H132750   4.669   1.472   8.525  0.1653 -0.5659  0.5593
 3705TIP3    H232751   4.575   1.360   8.485  0.2362 -0.5973  0.4797
 3706TIP3   OH232752   0.960   0.255   1.779  0.2866  0.1244 -0.0116
 3706TIP3    H132753   1.049   0.260   1.814  0.1840 -1.7292  0.5785
 3706TIP3    H232754   0.961   0.314   1.704  2.7602 -1.6995 -1.5607
 3707TIP3   OH232755   2.979   5.922   0.921  0.2050 -0.9589  0.1785
 3707TIP3    H132756   3.039   5.987   0.883  0.3630 -0.7056  0.8496
 3707TIP3    H232757   2.952   5.869   0.846  0.3034 -0.3061 -0.3347
 3708TIP3   OH232758   1.687   1.376   7.200 -0.3697 -0.1404  0.3011
 3708TIP3    H132759   1.628   1.444   7.231 -0.3810 -1.0307  2.3594
 3708TIP3    H232760   1.644   1.294   7.222 -0.1508 -0.8674 -1.7469
 3709TIP3   OH232761   2.035   2.905   1.311 -0.1960  0.2059 -0.8260
 3709TIP3    H132762   1.958   2.882   1.259  0.1815  1.0253 -1.7746
 3709TIP3    H232763   2.105   2.850   1.276  0.1420  1.0120 -1.4418
 3710TIP3   OH232764   6.386   5.630   2.713  0.4269 -0.0799  0.1699
 3710TIP3    H132765   6.348   5.718   2.703 -0.0696 -0.1366  1.3692
 3710TIP3    H232766   6.335   5.590   2.784  2.1531 -0.4978  1.2205
 3711TIP3   OH232767   3.907   1.838   0.442 -0.5039  0.1279  0.0651
 3711TIP3    H132768   3.977   1.797   0.492 -1.3441 -0.4854  0.7696
 3711TIP3    H232769   3.939   1.838   0.352  0.0521 -0.9143  0.2467
 3712TIP3   OH232770   2.787   3.036   6.649  0.3301 -0.0546  0.3381
 3712TIP3    H132771   2.771   3.004   6.560  2.0123 -1.3645  0.4468
 3712TIP3    H232772   2.702   3.029   6.692 -0.5955  0.9327 -1.2399
 3713TIP3   OH232773   3.881   3.816   8.505  0.2427  0.0779 -0.1089
 3713TIP3    H132774   3.918   3.775   8.428 -0.3107  0.5519 -0.6403
 3713TIP3    H232775   3.923   3.902   8.509 -0.7661  0.6346 -0.7351
 3714TIP3   OH232776   1.136   1.256   0.449 -0.0063 -0.0572  0.2350
 3714TIP3    H132777   1.118   1.162   0.448 -2.0982  0.3018 -0.2861
 3714TIP3    H232778   1.191   1.270   0.372 -1.1961 -0.6367 -0.7660
 3715TIP3   OH232779   3.624   0.350   7.507  0.1404  0.1580  0.1497
 3715TIP3    H132780   3.661   0.343   7.595  0.5123  2.6868  0.2676
 3715TIP3    H232781   3.543   0.399   7.518  0.9821  1.9466 -1.0148
 3716TIP3   OH232782   2.464   6.212   7.528 -0.0654 -0.0385  0.6134
 3716TIP3    H132783   2.385   6.248   7.487  0.1257  0.1682  0.4256
 3716TIP3    H232784   2.535   6.241   7.472  0.3816  1.5938  1.9446
 3717TIP3   OH232785   0.325   5.676   8.296 -0.4711 -0.2522 -0.1217
 3717TIP3    H132786   0.406   5.626   8.288  0.6025  1.1019  1.4648
 3717TIP3    H232787   0.300   5.696   8.206  1.8650  0.6481 -0.6403
 3718TIP3   OH232788   6.013   2.732   7.386  0.8596 -0.5147  1.2073
 3718TIP3    H132789   5.961   2.652   7.377  2.0526 -1.1842 -0.3026
 3718TIP3    H232790   6.102   2.705   7.363  1.1480  1.4156 -0.1714
 3719TIP3   OH232791   4.002   5.706   0.932 -0.1108 -0.8378  0.0089
 3719TIP3    H132792   3.998   5.756   0.851 -1.2751  0.3502  0.7511
 3719TIP3    H232793   4.055   5.629   0.911  1.0711  0.3094 -1.3890
 3720TIP3   OH232794   3.239   0.592   1.377  0.0323  0.5403  0.0548
 3720TIP3    H132795   3.177   0.638   1.434  0.8520  1.0444  0.5546
 3720TIP3    H232796   3.325   0.625   1.403  0.4579  0.5083 -1.2268
 3721TIP3   OH232797   3.272   3.767   1.789 -0.2204 -0.1016  0.2630
 3721TIP3    H132798   3.270   3.672   1.793 -0.4820 -0.1533 -0.8854
 3721TIP3    H232799   3.205   3.791   1.725  1.2635  0.7308 -1.0618
 3722TIP3   OH232800   2.289   6.167   1.695 -0.0849  0.0118  0.0496
 3722TIP3    H132801   2.344   6.171   1.773 -0.4853 -0.6312  0.3726
 3722TIP3    H232802   2.275   6.074   1.680 -0.6131  0.1522 -0.3659
 3723TIP3   OH232803   0.288   6.177   6.450 -0.1122  0.2361 -0.5578
 3723TIP3    H132804   0.263   6.085   6.443 -0.9381  0.5818 -3.1782
 3723TIP3    H232805   0.237   6.221   6.382 -0.4707  2.8223  1.2492
 3724TIP3   OH232806   3.441   1.623   0.521 -0.3575  0.0820  0.3862
 3724TIP3    H132807   3.522   1.615   0.573 -0.0209 -1.5783 -0.3372
 3724TIP3    H232808   3.412   1.712   0.537  1.5170  0.6645  0.8368
 3725TIP3   OH232809   3.699   1.984   8.567  0.4542  0.0794  0.0858
 3725TIP3    H132810   3.746   2.035   8.633  0.3154  0.6919 -0.2722
 3725TIP3    H232811   3.609   1.980   8.599  0.1531  1.2590 -0.5407
 3726TIP3   OH232812   6.490   2.327   0.670 -0.7833  0.1366  0.2676
 3726TIP3    H132813   6.459   2.265   0.604  0.6449 -0.5600  0.2017
 3726TIP3    H232814   6.474   2.284   0.753 -1.7626  0.6256  0.3385
 3727TIP3   OH232815   6.604   0.248   0.735  0.0240  0.4044 -0.8568
 3727TIP3    H132816   6.622   0.266   0.828 -0.0440 -0.0683 -0.7507
 3727TIP3    H232817   6.639   0.160   0.720 -0.3342  0.3131 -1.1740
 3728TIP3   OH232818   6.392   0.694   8.228  0.4387 -0.8967 -0.2670
 3728TIP3    H132819   6.342   0.759   8.178  1.9561  0.9499  0.4969
 3728TIP3    H232820   6.383   0.723   8.319  0.9614 -1.9152  0.1203
 3729TIP3   OH232821   1.104   0.006   1.158 -0.7865 -0.3599  0.0280
 3729TIP3    H132822   1.137   0.061   1.228  0.0083 -0.8574  0.0541
 3729TIP3    H232823   1.025  -0.035   1.195  0.4637 -1.8173  1.2163
 3730TIP3   OH232824   2.817   3.039   7.860 -0.1982 -0.2020  0.6577
 3730TIP3    H132825   2.876   3.060   7.933 -2.3068  1.6413  1.9724
 3730TIP3    H232826   2.729   3.048   7.897 -1.3475 -0.1699 -1.8818
 3731TIP3   OH232827   3.318   4.705   1.595 -0.1665 -0.1975  0.0136
 3731TIP3    H132828   3.340   4.665   1.510  0.1522 -1.7988  0.8154
 3731TIP3    H232829   3.233   4.667   1.618  0.5293 -1.1207  1.1794
 3732TIP3   OH232830   3.076   1.939   0.445 -0.5570  0.8575  0.0173
 3732TIP3    H132831   3.140   2.007   0.462  0.5247 -0.2200  0.3833
 3732TIP3    H232832   3.127   1.866   0.410 -1.8955  0.8045 -2.0079
 3733TIP3   OH232833   3.816   4.604   7.809  0.2220  0.1715 -0.6552
 3733TIP3    H132834   3.788   4.621   7.719  0.7482  0.8413 -0.6983
 3733TIP3    H232835   3.734   4.597   7.859 -0.0531  0.4531 -1.0664
 3734TIP3   OH232836   6.606   2.354   6.879  0.0631  0.6147  0.1541
 3734TIP3    H132837   6.672   2.367   6.946 -1.8282  0.7725  2.1156
 3734TIP3    H232838   6.573   2.265   6.894 -0.1329  0.5103 -0.8150
 3735TIP3   OH232839   4.125   1.371   0.966  0.0657  0.3601 -0.1872
 3735TIP3    H132840   4.046   1.318   0.978 -0.3878  0.5794 -1.8827
 3735TIP3    H232841   4.187   1.311   0.924 -0.3282  1.0280 -1.7935
 3736TIP3   OH232842   0.963   6.672   8.588 -0.5591 -0.1317  0.2449
 3736TIP3    H132843   0.873   6.680   8.556  0.6229  1.2277 -3.2091
 3736TIP3    H232844   1.015   6.720   8.524  2.5385  0.2474  2.8126
 3737TIP3   OH232845   5.294   0.285   1.832 -0.4903 -0.6993  0.0764
 3737TIP3    H132846   5.377   0.332   1.834 -1.6494  1.4378  0.8501
 3737TIP3    H232847   5.293   0.236   1.914 -1.0335  1.2981  1.3375
 3738TIP3   OH232848   4.007   3.804   7.114  0.1256  0.1827 -0.1867
 3738TIP3    H132849   4.016   3.890   7.073  1.7040  0.6268  0.9624
 3738TIP3    H232850   4.055   3.745   7.056 -1.0369  0.0345 -1.0256
 3739TIP3   OH232851   5.446   0.076   0.530  0.2119 -0.4785  0.0421
 3739TIP3    H132852   5.475   0.001   0.583  0.5225  0.9367  1.9702
 3739TIP3    H232853   5.526   0.109   0.490  0.2321 -0.5726  0.0051
 3740TIP3   OH232854   0.429   5.293   0.406  0.3280 -0.0583  0.1182
 3740TIP3    H132855   0.350   5.259   0.449 -0.4198  1.0553 -0.3119
 3740TIP3    H232856   0.496   5.228   0.424 -0.5467 -0.7537  0.9948
 3741TIP3   OH232857   3.339   0.159   8.432  0.0548 -0.2143  0.1412
 3741TIP3    H132858   3.245   0.144   8.422 -0.0417  1.0243 -0.9746
 3741TIP3    H232859   3.347   0.197   8.520 -0.4467 -0.5599  0.3450
 3742TIP3   OH232860   5.955   4.178   6.824 -0.2511 -0.4163 -0.1475
 3742TIP3    H132861   6.011   4.121   6.772  0.2185 -1.7026  1.6796
 3742TIP3    H232862   5.976   4.157   6.915 -0.6049  2.1642  0.6227
 3743TIP3   OH232863   2.673   0.217   2.087  0.0564 -0.0654 -0.4914
 3743TIP3    H132864   2.665   0.300   2.040 -0.9996  0.7853  1.1000
 3743TIP3    H232865   2.766   0.209   2.107 -0.0021  1.4687  0.5380
 3744TIP3   OH232866   1.957   2.469   8.416 -0.0996 -0.4445 -0.3637
 3744TIP3    H132867   1.988   2.559   8.430 -1.8592 -0.1317  2.1669
 3744TIP3    H232868   1.884   2.478   8.355 -0.0784 -0.1827 -0.3507
 3745TIP3   OH232869   5.819   4.974   8.068  0.2792  0.1223 -0.4946
 3745TIP3    H132870   5.838   4.880   8.072  2.0725  0.3538 -2.2321
 3745TIP3    H232871   5.816   4.994   7.974  1.7116  2.1105 -0.1722
 3746TIP3   OH232872   0.740   2.898   8.065 -0.2388  0.1878  0.4986
 3746TIP3    H132873   0.747   2.887   7.971 -1.6079  2.0604  0.1270
 3746TIP3    H232874   0.831   2.893   8.096  0.0636 -2.6588 -0.5578
 3747TIP3   OH232875   5.734   1.313   8.527 -0.5083  0.6989  0.5127
 3747TIP3    H132876   5.682   1.319   8.607 -1.2715 -1.0100  0.1919
 3747TIP3    H232877   5.700   1.235   8.483  2.3387 -0.5075  0.2813
 3748TIP3   OH232878   5.925   6.335   8.367  0.7430  0.0324 -0.5609
 3748TIP3    H132879   5.894   6.264   8.311 -0.8305  1.0069 -1.0107
 3748TIP3    H232880   5.849   6.357   8.421  1.3171  1.0921 -0.1583
 3749TIP3   OH232881   1.730   2.821   8.173 -0.5786 -0.5325 -0.2606
 3749TIP3    H132882   1.651   2.874   8.181 -1.2998 -1.5716 -0.3924
 3749TIP3    H232883   1.796   2.869   8.223 -1.1549  0.5957 -0.5591
 3750TIP3   OH232884   0.107   4.823   0.843 -0.2746 -0.4997 -0.1779
 3750TIP3    H132885   0.068   4.901   0.803 -1.3840  0.5807  2.7463
 3750TIP3    H232886   0.195   4.819   0.806 -1.8417 -1.1408 -4.5320
 3751TIP3   OH232887   5.444   1.320   0.674  0.4077 -0.0745  0.4495
 3751TIP3    H132888   5.497   1.274   0.609 -1.0614  0.2287 -1.0227
 3751TIP3    H232889   5.446   1.264   0.751 -0.6817 -2.2723 -1.0289
 3752TIP3   OH232890   1.495   2.990   0.617  0.1991  0.6358  0.1214
 3752TIP3    H132891   1.530   3.010   0.530  1.0941 -1.7670 -0.1438
 3752TIP3    H232892   1.572   2.983   0.673  0.2468 -3.3852 -0.1806
 3753TIP3   OH232893   2.615   1.614   6.723  0.1940  0.2392  0.6327
 3753TIP3    H132894   2.600   1.678   6.653  1.0439  1.1595  1.2651
 3753TIP3    H232895   2.637   1.533   6.677  1.1537  0.9332 -0.1763
 3754TIP3   OH232896   0.330   0.745   1.876 -0.0153 -0.1281 -0.5105
 3754TIP3    H132897   0.237   0.766   1.870 -0.5981 -2.7803 -2.7234
 3754TIP3    H232898   0.369   0.785   1.799  0.2323 -0.9381 -0.8129
 3755TIP3   OH232899   2.779   4.207   7.775  0.4604  0.4291 -0.5230
 3755TIP3    H132900   2.808   4.295   7.799  2.0406 -0.3930  0.8183
 3755TIP3    H232901   2.803   4.197   7.683  4.0723  0.0846  0.2782
 3756TIP3   OH232902   2.101   6.636   8.499  0.2382 -0.0062 -0.0037
 3756TIP3    H132903   2.053   6.554   8.495 -0.4461  0.4042 -0.3917
 3756TIP3    H232904   2.052   6.696   8.443  0.4171  0.8225  0.6938
 3757TIP3   OH232905   2.439   6.107   8.406 -0.4694  0.4179 -0.0384
 3757TIP3    H132906   2.495   6.161   8.350 -0.6268  2.1140  1.3375
 3757TIP3    H232907   2.388   6.170   8.456 -1.8103 -1.0660  0.5433
 3758TIP3   OH232908   3.473   5.447   0.948 -0.0017 -0.0608 -0.1829
 3758TIP3    H132909   3.486   5.450   0.853  1.0512 -1.7163 -0.1363
 3758TIP3    H232910   3.556   5.480   0.984 -0.2895  0.2877  0.1643
 3759TIP3   OH232911   0.398   6.389   2.054  0.3449 -0.2360  0.1567
 3759TIP3    H132912   0.378   6.295   2.047 -0.6982 -0.0046 -0.1171
 3759TIP3    H232913   0.491   6.395   2.032 -0.0580 -0.9689 -2.0846
 3760TIP3   OH232914   5.522   4.215   7.558 -0.5890 -0.0397  0.4227
 3760TIP3    H132915   5.515   4.300   7.515  2.2315 -0.0420 -0.2410
 3760TIP3    H232916   5.498   4.232   7.649 -1.2349  1.1795  0.0414
 3761TIP3   OH232917   2.311   2.235   8.203  0.4012  0.0814  0.3729
 3761TIP3    H132918   2.399   2.230   8.168  0.7860  1.1597  1.1422
 3761TIP3    H232919   2.287   2.144   8.221  1.3619 -0.2157  0.1877
 3762TIP3   OH232920   0.190   6.168   0.680  0.2292 -0.4844  0.5066
 3762TIP3    H132921   0.220   6.078   0.670  2.8182  0.0755  2.2149
 3762TIP3    H232922   0.237   6.216   0.612  1.8627  0.1071  1.9843
 3763TIP3   OH232923   6.639   5.129   8.389 -0.7447  0.2816  0.0169
 3763TIP3    H132924   6.586   5.209   8.392 -1.4574 -0.2088  1.2422
 3763TIP3    H232925   6.615   5.088   8.305 -0.2789  1.3925 -0.6767
 3764TIP3   OH232926   1.274   5.705   0.184  0.8016  0.2746  0.1380
 3764TIP3    H132927   1.301   5.793   0.208  1.7336  0.6679 -2.1222
 3764TIP3    H232928   1.216   5.716   0.109 -1.9000 -0.8932  1.8632
 3765TIP3   OH232929   0.795   1.301   8.023 -0.4126  0.3976 -0.3047
 3765TIP3    H132930   0.864   1.256   8.072  0.9653  0.9052 -1.6829
 3765TIP3    H232931   0.826   1.299   7.932 -2.6578 -0.1139 -1.1019
 3766TIP3   OH232932   3.382   3.220   6.479  0.0202 -0.4385 -0.1746
 3766TIP3    H132933   3.352   3.242   6.391  1.1735  0.8728 -0.2751
 3766TIP3    H232934   3.470   3.185   6.467  0.7076  0.9612  0.5279
 3767TIP3   OH232935   6.193   5.235   7.001 -0.4551 -0.9713 -0.4463
 3767TIP3    H132936   6.287   5.251   6.993 -0.6160  1.9803  1.6861
 3767TIP3    H232937   6.154   5.280   6.926 -0.2377 -0.5543 -0.3150
 3768TIP3   OH232938   4.175   1.219   8.111  0.7874  0.2090 -0.4235
 3768TIP3    H132939   4.230   1.266   8.048  0.6234  1.5925  0.4329
 3768TIP3    H232940   4.104   1.279   8.132  1.1840  0.0614  1.5554
 3769TIP3   OH232941   1.173   4.100   2.597 -0.1029 -0.0994  0.5508
 3769TIP3    H132942   1.211   4.015   2.619 -1.0121 -0.8502 -0.6453
 3769TIP3    H232943   1.094   4.106   2.650 -0.4820 -0.3850  0.0273
 3770TIP3   OH232944   4.656   5.274   6.889 -0.0062  0.0918 -0.3530
 3770TIP3    H132945   4.633   5.290   6.797  0.1373 -0.3029 -0.4593
 3770TIP3    H232946   4.641   5.359   6.932 -4.1229 -0.6822  0.1451
 3771TIP3   OH232947   5.341   2.125   0.701 -0.4299  0.0292  0.0284
 3771TIP3    H132948   5.357   2.119   0.795  0.1495 -2.3460 -0.1595
 3771TIP3    H232949   5.425   2.106   0.660 -0.1228  3.1542 -1.0513
 3772TIP3   OH232950   0.212   0.927   0.607 -0.9826 -0.6605  0.4638
 3772TIP3    H132951   0.254   0.844   0.588 -1.6556 -0.9372  0.1356
 3772TIP3    H232952   0.123   0.917   0.573 -0.2571  1.2260 -2.3490
 3773TIP3   OH232953   0.525   0.562   7.880 -0.2826 -0.1637 -0.0732
 3773TIP3    H132954   0.498   0.576   7.970  1.8985 -0.3678  0.6616
 3773TIP3    H232955   0.486   0.477   7.856 -0.4611 -0.3517  0.8471
 3774TIP3   OH232956   2.689   2.878   7.561 -0.3620 -0.3784  0.5988
 3774TIP3    H132957   2.600   2.906   7.579 -0.7448 -0.6447 -0.7823
 3774TIP3    H232958   2.731   2.953   7.521  0.5039  0.2301  2.5132
 3775TIP3   OH232959   1.024   3.403   6.673  0.2681 -0.5690 -0.6204
 3775TIP3    H132960   1.102   3.444   6.710  1.4074 -2.0004 -1.3222
 3775TIP3    H232961   1.052   3.314   6.651 -1.2796 -0.7950 -1.8489
 3776TIP3   OH232962   0.739   4.943   8.172  0.2096  0.3564 -0.5486
 3776TIP3    H132963   0.695   4.858   8.173 -1.4130  0.9055  4.7192
 3776TIP3    H232964   0.683   4.999   8.119 -1.7516 -0.6804  0.3257
 3777TIP3   OH232965   2.681   6.890   1.973 -0.7359  0.2453  0.1682
 3777TIP3    H132966   2.720   6.862   2.056  1.1916  0.6037 -0.5806
 3777TIP3    H232967   2.659   6.982   1.986  0.5442  0.5998 -0.0239
 3778TIP3   OH232968   0.405   3.491   0.930  0.3084 -0.2093 -0.2752
 3778TIP3    H132969   0.474   3.427   0.951 -1.0285 -1.7819 -0.4654
 3778TIP3    H232970   0.395   3.542   1.010  1.1592 -0.4544  0.0042
 3779TIP3   OH232971   3.397   0.610   8.197  0.0028 -0.3207 -0.1314
 3779TIP3    H132972   3.466   0.554   8.164 -1.0381 -2.2901  0.8821
 3779TIP3    H232973   3.327   0.602   8.132  0.4153  1.1274 -0.8032
 3780TIP3   OH232974   5.318   0.789   0.149 -0.5603 -0.2884  0.3015
 3780TIP3    H132975   5.302   0.745   0.233  1.4901 -0.5767  0.6051
 3780TIP3    H232976   5.346   0.719   0.091 -2.1391 -0.1138 -0.7258
 3781TIP3   OH232977   1.481   5.015   7.192  0.0309  0.6474 -0.1377
 3781TIP3    H132978   1.548   5.061   7.242  0.4009 -0.5415  0.4973
 3781TIP3    H232979   1.418   4.985   7.258 -0.7805  1.1515 -0.6541
 3782TIP3   OH232980   2.154   2.215   6.925  0.2000 -0.0680  0.4746
 3782TIP3    H132981   2.107   2.179   6.851  0.4241 -1.3832  0.9517
 3782TIP3    H232982   2.246   2.209   6.900  0.2294  0.4068  0.4594
 3783TIP3   OH232983   6.306   0.013   1.696  0.4995 -0.4079 -0.6919
 3783TIP3    H132984   6.378  -0.045   1.721  2.5137  2.0617 -0.3809
 3783TIP3    H232985   6.244   0.005   1.768  1.1793 -1.4103 -0.1746
 3784TIP3   OH232986   0.567   6.544   6.351  0.1640  0.5118 -0.6912
 3784TIP3    H132987   0.650   6.560   6.305  0.5610  0.2060 -0.0904
 3784TIP3    H232988   0.548   6.452   6.335  0.3249  0.3943 -0.2044
 3785TIP3   OH232989   0.443   3.254   8.536 -0.3048  0.3646 -0.1053
 3785TIP3    H132990   0.401   3.179   8.578 -0.3745  0.2070 -0.4555
 3785TIP3    H232991   0.504   3.288   8.602 -1.0502  0.6572  0.4523
 3786TIP3   OH232992   5.949   5.634   7.698 -0.1883 -0.4152 -0.2077
 3786TIP3    H132993   5.854   5.623   7.706 -0.2175  0.0950  0.1785
 3786TIP3    H232994   5.984   5.602   7.781 -0.0879  0.1387 -0.0304
 3787TIP3   OH232995   3.677   0.724   8.321 -0.1391 -0.0786  0.0160
 3787TIP3    H132996   3.661   0.641   8.366  0.3955 -0.6505 -0.8094
 3787TIP3    H232997   3.665   0.791   8.388 -1.2553 -0.7755  0.5264
 3788TIP3   OH232998   6.889   0.656   0.124  0.2597  0.1511  0.0887
 3788TIP3    H132999   6.813   0.627   0.175  0.3788  0.2258  0.3079
 3788TIP3    H233000   6.863   0.740   0.087 -0.0544 -0.1836 -0.4786
 3789TIP3   OH233001   1.396   3.243   6.815 -0.4278  0.0261 -0.1125
 3789TIP3    H133002   1.316   3.251   6.866 -0.1801  0.4086  0.2242
 3789TIP3    H233003   1.428   3.333   6.806  0.3106 -0.1850  0.3201
 3790TIP3   OH233004   3.739   2.333   1.080 -0.1498  0.2880 -0.3031
 3790TIP3    H133005   3.696   2.365   1.159 -0.0798  0.9270 -0.5159
 3790TIP3    H233006   3.710   2.242   1.072 -0.2970  0.2706  0.3566
 3791TIP3   OH233007   4.900   6.223   2.099  0.2736  0.2041 -0.1450
 3791TIP3    H133008   4.940   6.218   2.013  0.1296  1.4556 -0.3145
 3791TIP3    H233009   4.949   6.292   2.144 -1.6025  1.7901 -0.3615
 3792TIP3   OH233010   0.675   6.194   8.654 -0.2635 -0.2903  0.0600
 3792TIP3    H133011   0.652   6.265   8.713  0.5430 -0.8793  1.1288
 3792TIP3    H233012   0.631   6.117   8.690  2.8789 -1.3885  1.9958
 3793TIP3   OH233013   4.179   6.002   0.400 -0.2583  0.3603 -0.0163
 3793TIP3    H133014   4.218   6.089   0.389 -1.5809  0.9228 -0.4797
 3793TIP3    H233015   4.086   6.015   0.382 -0.3723 -1.2957 -0.8785
 3794TIP3   OH233016   1.330   6.063   2.121 -0.2337  0.3943 -0.2730
 3794TIP3    H133017   1.421   6.049   2.146  0.1136 -1.1286 -2.1678
 3794TIP3    H233018   1.285   5.982   2.146 -0.5807  0.2468 -1.3244
 3795TIP3   OH233019   6.197   6.143   2.144  0.1344 -0.2727 -0.3680
 3795TIP3    H133020   6.216   6.069   2.201 -0.2082  0.0425  0.1583
 3795TIP3    H233021   6.158   6.209   2.201 -1.2171 -0.3508 -1.1430
 3796TIP3   OH233022   0.825   5.004   7.178  0.6420 -0.1457  0.7518
 3796TIP3    H133023   0.857   4.963   7.097  1.6318 -1.7046  1.8701
 3796TIP3    H233024   0.867   5.090   7.180  0.7516 -0.1619 -0.2782
 3797TIP3   OH233025   2.075   4.264   1.502 -0.7374 -0.0518 -0.4127
 3797TIP3    H133026   2.089   4.338   1.560 -1.2974 -0.0240 -0.3139
 3797TIP3    H233027   2.052   4.303   1.418 -0.6037 -0.1066 -0.4760
 3798TIP3   OH233028   6.190   5.858   2.392  0.1582 -0.2010  0.2097
 3798TIP3    H133029   6.168   5.949   2.411 -0.8097  0.2311 -2.5034
 3798TIP3    H233030   6.242   5.830   2.467  1.2407  2.8550  0.7703
 3799TIP3   OH233031   2.074   1.352   1.661  0.5025  0.1945  0.0403
 3799TIP3    H133032   2.121   1.435   1.671 -0.6019  0.6588  1.8303
 3799TIP3    H233033   2.033   1.358   1.575  0.6210  1.4296  0.0520
 3800TIP3   OH233034   5.327   4.172   1.456 -0.6736 -0.0376  0.4273
 3800TIP3    H133035   5.407   4.222   1.473 -0.8605  0.5614 -0.3846
 3800TIP3    H233036   5.349   4.115   1.383 -1.1185  0.4985 -0.1468
 3801TIP3   OH233037   1.601   4.407   0.930  0.1029  0.9032 -0.3340
 3801TIP3    H133038   1.601   4.465   0.853 -0.7433  0.2903 -0.8096
 3801TIP3    H233039   1.690   4.372   0.934 -0.3709 -0.6365 -2.2521
 3802TIP3   OH233040   4.377   5.638   2.456 -0.3912  0.2740  0.2735
 3802TIP3    H133041   4.418   5.711   2.501  0.5124  0.3804 -0.6875
 3802TIP3    H233042   4.421   5.560   2.491 -0.4690  0.2844  0.3921
 3803TIP3   OH233043   4.640   4.648   0.214  0.3880 -0.6078 -0.7664
 3803TIP3    H133044   4.560   4.654   0.266  0.7273 -4.8880  0.6663
 3803TIP3    H233045   4.706   4.696   0.265 -0.5285  0.1779 -0.2989
 3804TIP3   OH233046   2.049   1.387   7.608  0.0476 -0.1171 -0.0136
 3804TIP3    H133047   1.994   1.394   7.529 -0.7502  1.9705  0.6782
 3804TIP3    H233048   2.129   1.432   7.585  0.9767 -1.9296 -0.5279
 3805TIP3   OH233049   1.409   6.315   7.719 -0.0069  0.5004  0.6686
 3805TIP3    H133050   1.343   6.380   7.743  0.9830  1.5732  0.5411
 3805TIP3    H233051   1.439   6.280   7.803 -1.3779 -0.6967  0.7079
 3806TIP3   OH233052   0.783   5.918   7.053 -0.3125 -0.3460  0.1846
 3806TIP3    H133053   0.709   5.859   7.039  1.4296 -2.7759  0.5839
 3806TIP3    H233054   0.826   5.923   6.968  0.0873 -0.4417  0.3797
 3807TIP3   OH233055   0.758   4.410   1.509  0.3488 -0.4844 -0.2987
 3807TIP3    H133056   0.698   4.336   1.496 -1.1252  0.8898 -1.8512
 3807TIP3    H233057   0.798   4.424   1.423 -2.6903  3.1258 -1.3985
 3808TIP3   OH233058   0.332   5.902   0.330  0.4918 -0.1053  0.1138
 3808TIP3    H133059   0.389   5.886   0.255 -0.1517  1.1828 -0.6937
 3808TIP3    H233060   0.258   5.950   0.294 -0.2660 -0.2281  1.4388
 3809TIP3   OH233061   1.878   6.217   8.660 -0.0591  0.1496 -0.0594
 3809TIP3    H133062   1.952   6.174   8.704 -0.0194  0.1237 -0.1517
 3809TIP3    H233063   1.819   6.145   8.637 -0.6746  0.2773  1.0683
 3810TIP3   OH233064   4.147   6.179   6.597 -0.1690 -0.8249  0.0277
 3810TIP3    H133065   4.169   6.211   6.510  0.3728 -3.8563 -1.0472
 3810TIP3    H233066   4.052   6.186   6.602 -0.0369  2.0320  0.4111
 3811TIP3   OH233067   5.445   5.184   1.451  0.9570  0.0177 -0.7178
 3811TIP3    H133068   5.429   5.221   1.537  1.8053 -0.9622 -0.1159
 3811TIP3    H233069   5.360   5.190   1.406  0.6800  1.1705 -0.0863
 3812TIP3   OH233070   4.971   2.068   7.998 -0.3477 -0.1747 -0.1756
 3812TIP3    H133071   5.060   2.067   8.034 -0.2440  1.3547 -0.3079
 3812TIP3    H233072   4.980   2.036   7.909 -0.2969 -2.1248  0.4950
 3813TIP3   OH233073   0.885   5.720   7.849  0.5731 -0.0804  0.2218
 3813TIP3    H133074   0.917   5.727   7.939  0.4186  3.1914  0.1477
 3813TIP3    H233075   0.868   5.810   7.823 -2.2064 -1.1151 -2.1100
 3814TIP3   OH233076   3.288   3.342   7.212 -0.1067 -0.5026  0.2508
 3814TIP3    H133077   3.257   3.316   7.126  1.3205 -1.1288 -0.1090
 3814TIP3    H233078   3.289   3.438   7.210  1.5301 -0.5011 -1.0701
 3815TIP3   OH233079   1.504   5.992   2.691 -0.0116 -0.2719  0.0284
 3815TIP3    H133080   1.457   6.012   2.772 -0.1225 -0.9210  0.1313
 3815TIP3    H233081   1.438   5.957   2.633  0.3013 -1.0030  0.1051
 3816TIP3   OH233082   2.824   5.138   0.836  0.2814 -0.9339  0.3641
 3816TIP3    H133083   2.827   5.047   0.865 -0.0036 -1.1781 -0.3615
 3816TIP3    H233084   2.752   5.176   0.887 -0.9264 -1.6390 -0.7443
 3817TIP3   OH233085   2.115   5.515   2.695  0.3130  0.1087  0.2708
 3817TIP3    H133086   2.105   5.442   2.756  1.3163  0.9581  1.5157
 3817TIP3    H233087   2.091   5.592   2.746  1.1600  0.8432 -0.4167
 3818TIP3   OH233088   0.304   2.028   6.657 -0.0272  0.3252 -0.0210
 3818TIP3    H133089   0.249   2.020   6.735 -0.9558  1.0203 -0.5745
 3818TIP3    H233090   0.312   1.938   6.624 -0.3427  0.1425  0.3892
 3819TIP3   OH233091   1.859   5.761   0.283 -0.5394  0.0691 -0.3604
 3819TIP3    H133092   1.899   5.676   0.265  0.1387  0.3509 -0.2409
 3819TIP3    H233093   1.767   5.750   0.261 -0.1366 -0.1843 -2.0530
 3820TIP3   OH233094   0.066   6.128   8.480 -0.2919  0.7861 -0.0317
 3820TIP3    H133095   0.079   6.188   8.554 -0.5097 -0.5110  1.1005
 3820TIP3    H233096   0.143   6.071   8.481 -0.7719  0.1169 -0.1684
 3821TIP3   OH233097   1.272   5.339   7.372  0.4410 -0.3091  0.2748
 3821TIP3    H133098   1.243   5.284   7.299  0.3019 -0.0793  0.1574
 3821TIP3    H233099   1.365   5.317   7.381  0.1311 -1.4369  0.9995
 3822TIP3   OH233100   6.095   1.104   0.872  0.0536  0.2534  0.4057
 3822TIP3    H133101   6.095   1.189   0.827 -0.6116  0.8449  1.4806
 3822TIP3    H233102   6.030   1.052   0.825  0.0826  0.5198  0.0657
 3823TIP3   OH233103   2.509   2.706   7.362 -0.0475 -0.3939  0.2257
 3823TIP3    H133104   2.527   2.615   7.384 -0.4641 -1.1670 -2.2737
 3823TIP3    H233105   2.591   2.752   7.379  0.8128 -1.6559 -0.3854
 3824TIP3   OH233106   4.492   0.598   1.838 -0.8611 -0.1821 -0.1954
 3824TIP3    H133107   4.472   0.567   1.926 -1.3827 -0.5988 -0.4534
 3824TIP3    H233108   4.572   0.650   1.848 -1.0153 -0.0774  0.5489
 3825TIP3   OH233109   6.648   0.269   7.038 -0.1432 -0.5449 -0.4113
 3825TIP3    H133110   6.571   0.252   7.093 -0.2564  1.4051  0.1268
 3825TIP3    H233111   6.723   0.254   7.095 -0.1374 -1.6429 -0.6929
 3826TIP3   OH233112   2.927   6.071   0.440  0.3048  0.2877 -0.5074
 3826TIP3    H133113   2.987   6.082   0.514 -0.5991 -0.5591  0.3931
 3826TIP3    H233114   2.840   6.084   0.478 -0.1238  1.1014 -1.7024
 3827TIP3   OH233115   1.237   5.430   1.265 -0.0204  0.2607 -0.6532
 3827TIP3    H133116   1.188   5.356   1.300  0.0628 -0.3725 -1.8210
 3827TIP3    H233117   1.324   5.394   1.248  0.0133  0.6130 -1.2444
 3828TIP3   OH233118   0.849   2.006   0.413 -0.1031 -0.2429 -0.2849
 3828TIP3    H133119   0.782   2.024   0.347 -0.0203  1.4384  0.0448
 3828TIP3    H233120   0.851   2.085   0.467  0.4431 -1.2264  1.2105
 3829TIP3   OH233121   1.556   1.392   7.746 -0.1103 -0.0836  0.2487
 3829TIP3    H133122   1.576   1.482   7.723 -0.0175  0.0840  0.9884
 3829TIP3    H233123   1.635   1.343   7.722 -0.5723 -0.1616 -1.2173
 3830TIP3   OH233124   6.542   5.471   0.229  0.8208 -0.6676 -0.0580
 3830TIP3    H133125   6.520   5.495   0.319 -0.3223 -1.0939 -0.2077
 3830TIP3    H233126   6.586   5.548   0.194 -0.3555  0.1981  0.3094
 3831TIP3   OH233127   4.212   2.675   7.425 -0.3302 -0.3913 -0.4049
 3831TIP3    H133128   4.241   2.624   7.501 -0.0062  1.7373  0.9834
 3831TIP3    H233129   4.151   2.617   7.379 -1.4547 -1.3556  2.1297
 3832TIP3   OH233130   5.597   1.525   8.273 -0.4795 -0.3097 -0.1832
 3832TIP3    H133131   5.517   1.475   8.256 -1.8070  1.0082  1.6342
 3832TIP3    H233132   5.599   1.534   8.369  0.8056  1.3103 -0.3138
 3833TIP3   OH233133   4.552   1.247   8.658 -0.4584 -0.5225  0.8997
 3833TIP3    H133134   4.503   1.323   8.691  2.1657  2.0126 -0.5640
 3833TIP3    H233135   4.636   1.251   8.703  1.0398 -0.3871 -1.7423
 3834TIP3   OH233136   1.033   6.857   7.575 -0.4754 -1.0677 -0.1321
 3834TIP3    H133137   1.025   6.885   7.484 -0.7061  0.0862  0.2191
 3834TIP3    H233138   0.954   6.807   7.592 -1.4368  0.4246 -0.0160
 3835TIP3   OH233139   3.039   4.317   0.870 -0.5929  0.2260 -0.1044
 3835TIP3    H133140   3.018   4.379   0.939  0.0841 -0.7847  1.0480
 3835TIP3    H233141   3.121   4.350   0.833 -0.0850 -0.0972  0.6947
 3836TIP3   OH233142   2.878   3.535   8.653  0.6821 -0.2098 -0.0046
 3836TIP3    H133143   2.953   3.581   8.617 -0.3184  1.3055 -0.2197
 3836TIP3    H233144   2.816   3.530   8.580  0.4907 -1.3061  0.2114
 3837TIP3   OH233145   6.346   1.292   0.899 -0.0393 -0.4247  0.4331
 3837TIP3    H133146   6.301   1.374   0.885  0.4344  0.5943  3.9133
 3837TIP3    H233147   6.279   1.232   0.931  0.0624 -0.6367  0.2560
 3838TIP3   OH233148   3.246   6.343   6.612  0.3885 -0.1197  0.2386
 3838TIP3    H133149   3.321   6.286   6.631 -0.0830 -1.4339 -1.5329
 3838TIP3    H233150   3.169   6.286   6.625 -0.0927  0.0406 -1.6045
 3839TIP3   OH233151   6.335   2.687   0.148 -0.4117 -0.1874 -0.0313
 3839TIP3    H133152   6.300   2.754   0.089 -1.1821  0.3013  0.9690
 3839TIP3    H233153   6.429   2.707   0.154 -0.5228  0.4068 -0.2369
 3840TIP3   OH233154   2.317   5.242   0.180  0.3959 -0.0522 -0.1066
 3840TIP3    H133155   2.375   5.171   0.151  0.4098 -0.3471  0.6116
 3840TIP3    H233156   2.260   5.201   0.246 -1.2243  0.0215 -1.4063
 3841TIP3   OH233157   1.353   5.139   0.225 -0.0789 -0.1389 -0.1248
 3841TIP3    H133158   1.430   5.185   0.191 -1.5946  1.8474 -1.0862
 3841TIP3    H233159   1.362   5.145   0.320  1.4416 -0.8848 -0.1797
 3842TIP3   OH233160   5.440   3.571   0.149  0.1606 -0.0026 -0.4204
 3842TIP3    H133161   5.447   3.570   0.053 -1.1262 -1.6740 -0.5468
 3842TIP3    H233162   5.379   3.499   0.169 -1.3984  1.7510  1.5201
 3843TIP3   OH233163   4.318   0.004   0.008  0.2036 -0.7875  0.2917
 3843TIP3    H133164   4.373   0.081   0.022  1.6510 -1.9655  1.4472
 3843TIP3    H233165   4.245   0.036  -0.045 -0.2648  1.8162  2.2926
 3844TIP3   OH233166   6.104   1.456   1.172  0.0760 -0.1958 -1.0296
 3844TIP3    H133167   6.055   1.429   1.094  1.1410 -0.3101 -1.6675
 3844TIP3    H233168   6.146   1.537   1.146 -0.8024  0.5997 -0.0495
 3845TIP3   OH233169   0.961   0.222   0.591  0.1019 -0.1229  0.6624
 3845TIP3    H133170   0.999   0.304   0.622 -0.3548  0.1151  0.5992
 3845TIP3    H233171   0.867   0.239   0.587 -0.0718 -0.8476  1.2778
 3846TIP3   OH233172   4.414   5.543   1.223 -0.3999 -0.3682  0.4493
 3846TIP3    H133173   4.423   5.628   1.180 -0.2728 -1.0670 -0.9412
 3846TIP3    H233174   4.497   5.531   1.270  1.0382 -1.2195 -2.1506
 3847TIP3   OH233175   1.807   5.042   1.088  0.2825  0.1983  0.8782
 3847TIP3    H133176   1.862   4.964   1.089 -1.2868 -0.9833  0.4065
 3847TIP3    H233177   1.840   5.096   1.159  1.5867 -0.7750  1.0554
 3848TIP3   OH233178   3.515   2.140   7.338 -0.4381  0.3497  0.0397
 3848TIP3    H133179   3.514   2.162   7.431  0.4644 -2.0186  0.7021
 3848TIP3    H233180   3.602   2.103   7.323 -0.8842 -0.1626 -1.5328
 3849TIP3   OH233181   6.425   0.345   2.333  0.4621 -0.0962 -0.3767
 3849TIP3    H133182   6.369   0.325   2.407 -0.8592 -0.7368 -1.5101
 3849TIP3    H233183   6.508   0.372   2.372  0.7895 -3.1530  1.3549
 3850TIP3   OH233184   3.400   4.942   7.785 -0.3743  0.1698  0.3158
 3850TIP3    H133185   3.430   4.867   7.734 -0.1258  0.3045  0.2643
 3850TIP3    H233186   3.321   4.910   7.829 -0.2881 -0.1129  0.2719
 3851TIP3   OH233187   1.835   4.061   2.358  0.3233 -0.3034  0.4807
 3851TIP3    H133188   1.810   3.973   2.383  1.1677 -0.4287  0.9043
 3851TIP3    H233189   1.752   4.106   2.343 -0.1966 -0.5115  2.5008
 3852TIP3   OH233190   3.796   6.564   0.607  0.1655  0.5266  0.2591
 3852TIP3    H133191   3.735   6.635   0.626 -1.1266  0.0998 -1.9859
 3852TIP3    H233192   3.850   6.596   0.535 -1.1051 -1.0411 -1.4960
 3853TIP3   OH233193   3.955   3.854   7.716 -0.0833 -0.2396  0.4556
 3853TIP3    H133194   3.966   3.763   7.745  1.0778 -0.6074 -1.0060
 3853TIP3    H233195   4.007   3.860   7.636  0.5257  1.9465  0.9461
 3854TIP3   OH233196   3.333   6.674   7.577  0.2517 -0.5952  0.4808
 3854TIP3    H133197   3.296   6.720   7.653 -1.9836 -1.6257  0.1001
 3854TIP3    H233198   3.258   6.631   7.536  1.7006 -1.6431 -1.2305
 3855TIP3   OH233199   1.153   3.957   0.052 -0.0936 -0.3911 -0.9999
 3855TIP3    H133200   1.090   3.979  -0.016 -0.3919 -0.0876 -0.6284
 3855TIP3    H233201   1.238   3.972   0.011 -0.2320 -1.6188 -1.7778
 3856TIP3   OH233202   6.085   5.718   0.807  0.5832  0.2511  0.0654
 3856TIP3    H133203   6.076   5.625   0.786  0.8272  0.3655 -0.5584
 3856TIP3    H233204   6.169   5.744   0.770  0.4849  0.7383  0.1689
 3857TIP3   OH233205   4.464   3.221   0.300  0.1850  0.1690  0.1685
 3857TIP3    H133206   4.464   3.263   0.386 -0.5276 -0.7917  0.6443
 3857TIP3    H233207   4.372   3.215   0.275  0.2516 -1.1974  0.1641
 3858TIP3   OH233208   5.741   3.773   8.429 -0.3261  0.6077  0.1100
 3858TIP3    H133209   5.706   3.725   8.354 -1.3385 -1.7019  1.9265
 3858TIP3    H233210   5.818   3.723   8.456 -1.4197 -0.1757  2.0635
 3859TIP3   OH233211   1.477   0.687   1.045  0.3496 -0.2920  0.6437
 3859TIP3    H133212   1.437   0.642   0.970 -1.2192  0.9810  0.6423
 3859TIP3    H233213   1.493   0.618   1.109 -1.0454 -1.0104  0.2579
 3860TIP3   OH233214   2.654   6.187   1.196  0.0827  0.1436 -0.0088
 3860TIP3    H133215   2.597   6.193   1.120  0.0057  1.5581  0.1284
 3860TIP3    H233216   2.736   6.227   1.168  0.7483 -1.1320  0.0530
 3861TIP3   OH233217   5.390   0.782   7.197  0.4737  0.6626 -0.2533
 3861TIP3    H133218   5.441   0.771   7.117 -1.0088 -2.2931 -0.9556
 3861TIP3    H233219   5.310   0.827   7.169  0.7961  1.3988 -0.0136
 3862TIP3   OH233220   2.463   5.903   7.490  0.4706  0.2513 -0.4012
 3862TIP3    H133221   2.401   5.870   7.555  1.0734  0.1846  0.1476
 3862TIP3    H233222   2.474   5.996   7.511  1.5608 -0.0305  0.3352
 3863TIP3   OH233223   6.374   3.384   1.244  0.0897 -0.0006  0.7204
 3863TIP3    H133224   6.305   3.425   1.191 -1.7564 -1.9839  1.4508
 3863TIP3    H233225   6.343   3.294   1.258  2.3635 -0.6591  1.9583
 3864TIP3   OH233226   6.442   5.107   6.514  0.4681 -0.1939  0.2817
 3864TIP3    H133227   6.467   5.015   6.514  0.9570 -0.0774  1.4032
 3864TIP3    H233228   6.483   5.143   6.593  0.6810  1.0844 -0.3834
 3865TIP3   OH233229   5.362   3.370   1.993 -0.1421 -0.2490  0.4613
 3865TIP3    H133230   5.328   3.409   1.913  0.8347  0.7335  0.5070
 3865TIP3    H233231   5.330   3.427   2.063  1.2097  0.4493  0.5376
 3866TIP3   OH233232   2.197   3.424   0.145  0.3522 -0.1947 -0.3069
 3866TIP3    H133233   2.104   3.407   0.158  0.5840 -1.5827 -0.3750
 3866TIP3    H233234   2.218   3.493   0.208 -0.2847 -1.2735  1.1323
 3867TIP3   OH233235   5.007   0.808   8.258 -0.4328 -0.1012 -0.6610
 3867TIP3    H133236   5.058   0.853   8.191  0.8387  1.3197  1.1686
 3867TIP3    H233237   4.938   0.869   8.281  1.4177  1.1647  1.9750
 3868TIP3   OH233238   2.024   1.858   6.376  0.4421  0.2237  0.0869
 3868TIP3    H133239   2.068   1.775   6.391 -2.3234 -1.6194 -1.3160
 3868TIP3    H233240   1.996   1.886   6.463  0.2489 -1.0087  0.4374
 3869TIP3   OH233241   4.774   1.852   2.085 -0.9760 -0.2056 -0.0028
 3869TIP3    H133242   4.697   1.908   2.098  0.0802  1.2537  0.2399
 3869TIP3    H233243   4.825   1.863   2.165  0.3774  0.3333 -0.9034
 3870TIP3   OH233244   1.741   0.761   2.216 -0.0320  0.0437  0.4449
 3870TIP3    H133245   1.645   0.765   2.213 -0.0552 -0.2943 -2.1096
 3870TIP3    H233246   1.762   0.675   2.179  1.2484  0.6803 -0.3721
 3871TIP3   OH233247   5.728   4.518   1.223  0.2647  0.4923 -0.2451
 3871TIP3    H133248   5.785   4.445   1.196 -0.2699 -0.0903  0.1646
 3871TIP3    H233249   5.780   4.596   1.206  0.8323  0.0196 -0.7510
 3872TIP3   OH233250   1.221   6.752   0.306 -0.0181  0.1069  0.4986
 3872TIP3    H133251   1.254   6.730   0.219 -1.6461  2.8117 -0.9515
 3872TIP3    H233252   1.300   6.771   0.358  0.9459 -0.6226 -0.6577
 3873TIP3   OH233253   2.532   4.237   1.100  0.2895 -0.0454 -0.0247
 3873TIP3    H133254   2.547   4.143   1.089 -0.1222 -0.3476  1.7107
 3873TIP3    H233255   2.619   4.275   1.098  0.6971 -0.7812  1.5525
 3874TIP3   OH233256   4.646   4.858   7.957  0.5156 -0.4039  0.4035
 3874TIP3    H133257   4.742   4.863   7.959  0.5413 -0.9397  1.0599
 3874TIP3    H233258   4.620   4.865   8.049 -0.1884  1.3558  0.1180
 3875TIP3   OH233259   3.203   5.323   7.962 -0.2171  0.6010  0.6651
 3875TIP3    H133260   3.212   5.348   8.053 -0.8045  0.4720  0.7665
 3875TIP3    H233261   3.286   5.347   7.921 -0.2274  1.3359  1.0747
 3876TIP3   OH233262   0.729   5.798   7.561  0.4791 -0.0643  0.3717
 3876TIP3    H133263   0.684   5.798   7.645  1.8615  2.8493  1.2497
 3876TIP3    H233264   0.674   5.854   7.505  1.3319  0.9056  0.4768
 3877TIP3   OH233265   5.598   5.132   8.114  0.8822  0.6634  0.4635
 3877TIP3    H133266   5.675   5.081   8.089  0.7298  1.7222 -2.5635
 3877TIP3    H233267   5.534   5.067   8.142  1.6656 -0.5484 -0.4628
 3878TIP3   OH233268   5.164   1.278   8.386 -0.0991  0.0323 -0.3221
 3878TIP3    H133269   5.198   1.319   8.466 -1.7091 -0.6173  0.7546
 3878TIP3    H233270   5.099   1.215   8.418 -0.9154 -0.1119 -2.1649
 3879TIP3   OH233271   5.224   2.974   6.981  0.0229  0.5569 -0.5538
 3879TIP3    H133272   5.148   2.920   6.961  0.6909 -0.6931  0.1466
 3879TIP3    H233273   5.253   3.008   6.897  0.2773 -1.1419 -1.1940
 3880TIP3   OH233274   1.902   6.281   1.457  0.0612 -0.7266 -0.5281
 3880TIP3    H133275   1.959   6.212   1.423  2.0551  1.5024 -1.9868
 3880TIP3    H233276   1.893   6.261   1.550  0.3718 -3.0296 -0.9322
 3881TIP3   OH233277   6.211   6.682   0.601  0.7673 -0.7748 -0.3357
 3881TIP3    H133278   6.153   6.641   0.665  1.1325  0.2200  0.6414
 3881TIP3    H233279   6.152   6.728   0.541  0.3437 -2.6158 -1.4450
 3882TIP3   OH233280   5.470   5.465   7.571  0.2209 -0.0913 -0.0827
 3882TIP3    H133281   5.432   5.419   7.495  1.4895  0.9228 -1.3950
 3882TIP3    H233282   5.395   5.499   7.619 -0.6081  0.4602 -1.7022
 3883TIP3   OH233283   0.548   6.101   1.754  0.5900  0.2941  0.1520
 3883TIP3    H133284   0.478   6.079   1.815 -1.3228  2.3082 -1.1602
 3883TIP3    H233285   0.614   6.033   1.769 -2.4133 -2.9781  0.1370
 3884TIP3   OH233286   2.462   1.831   8.147 -0.5569 -0.2097 -0.1367
 3884TIP3    H133287   2.384   1.816   8.093 -1.4581  1.7695  0.5058
 3884TIP3    H233288   2.487   1.921   8.128  1.8503 -0.8981 -0.5902
 3885TIP3   OH233289   2.389   3.547   8.131 -0.1234  0.6568 -0.4446
 3885TIP3    H133290   2.325   3.600   8.179  0.7845  1.0042  0.4034
 3885TIP3    H233291   2.436   3.499   8.199 -0.0160 -0.2252 -1.1153
 3886TIP3   OH233292   6.871   5.573   1.713 -0.0082  1.3156 -0.3052
 3886TIP3    H133293   6.948   5.516   1.707 -1.0769 -0.2039 -0.1488
 3886TIP3    H233294   6.826   5.561   1.629 -0.2474  1.9496 -0.2730
 3887TIP3   OH233295   1.672   0.195   7.060 -0.2019  0.0756  0.2612
 3887TIP3    H133296   1.604   0.139   7.098 -0.7281  0.9861  0.6975
 3887TIP3    H233297   1.740   0.134   7.032 -1.8889 -1.0577 -1.7181
 3888TIP3   OH233298   5.349   0.624   8.591  0.6417  0.5408 -0.1215
 3888TIP3    H133299   5.409   0.569   8.541 -0.9018 -0.2028 -1.2254
 3888TIP3    H233300   5.268   0.573   8.597 -0.2163  1.9051  0.4684
 3889TIP3   OH233301   2.993   1.546   1.024  0.1671  0.4882  0.0978
 3889TIP3    H133302   2.946   1.521   1.104  0.6000  0.5614  0.3781
 3889TIP3    H233303   2.992   1.642   1.024  1.0488  0.5035  0.5475
 3890TIP3   OH233304   3.471   0.944   7.641 -0.6008  0.7811  0.0614
 3890TIP3    H133305   3.556   0.951   7.684 -1.9967  1.9512  2.9457
 3890TIP3    H233306   3.425   1.024   7.667 -2.4445  0.4127 -1.7908
 3891TIP3   OH233307   3.850   2.662   6.884 -0.4038 -0.1687 -0.5656
 3891TIP3    H133308   3.838   2.594   6.950 -0.8734 -0.7283 -1.2154
 3891TIP3    H233309   3.762   2.677   6.849 -0.3800  1.0641 -0.1589
 3892TIP3   OH233310   6.107   4.451   8.614  0.1095  0.6496 -0.4192
 3892TIP3    H133311   6.188   4.476   8.570 -0.9945  0.8823 -2.4459
 3892TIP3    H233312   6.111   4.356   8.621  1.1034  0.7477  0.6980
 3893TIP3   OH233313   6.884   4.596   7.887 -0.0565 -0.2193 -0.0404
 3893TIP3    H133314   6.952   4.660   7.868 -1.0079  0.7623 -0.2419
 3893TIP3    H233315   6.845   4.626   7.969 -0.9704 -0.1347 -0.4907
 3894TIP3   OH233316   0.857   4.901   1.335 -0.3512  0.0316  0.4181
 3894TIP3    H133317   0.819   4.938   1.415 -1.1989 -0.9189  0.4831
 3894TIP3    H233318   0.883   4.812   1.360 -0.2340 -0.1310 -0.2580
 3895TIP3   OH233319   4.055   6.642   1.442  0.0489  0.3673 -0.6773
 3895TIP3    H133320   4.054   6.661   1.348 -1.2948 -0.3604 -0.8344
 3895TIP3    H233321   3.978   6.688   1.476 -1.9802 -2.7088 -0.6950
 3896TIP3   OH233322   0.983   6.358   0.427 -0.4979 -0.1102  0.3587
 3896TIP3    H133323   0.985   6.402   0.342  1.3510 -0.3985  0.2173
 3896TIP3    H233324   0.994   6.265   0.406  1.4184 -0.0621  0.9382
 3897TIP3   OH233325   0.378   5.713   7.419 -0.5673  0.3850 -0.2695
 3897TIP3    H133326   0.406   5.801   7.394 -0.7326  1.1999  2.1020
 3897TIP3    H233327   0.457   5.659   7.414  0.3708  1.5040  1.5604
 3898TIP3   OH233328   3.114   1.252   0.381  0.0210  0.4436 -0.3191
 3898TIP3    H133329   3.045   1.254   0.448  0.7001 -1.4750  0.5054
 3898TIP3    H233330   3.180   1.193   0.416  0.7162 -0.1144 -2.4141
 3899TIP3   OH233331   6.324   6.449   1.234  0.3435 -0.2303 -0.5557
 3899TIP3    H133332   6.262   6.389   1.192  0.5844  0.2102 -1.5686
 3899TIP3    H233333   6.289   6.536   1.217 -1.3863 -0.0348  3.0454
 3900TIP3   OH233334   6.303   0.702   7.679 -0.3070 -0.2056  0.0141
 3900TIP3    H133335   6.393   0.672   7.668  0.2172  0.8265  1.2534
 3900TIP3    H233336   6.273   0.657   7.758 -0.0807  1.1568  0.9136
 3901TIP3   OH233337   1.682   4.825   0.980  0.3739  0.1218 -0.1430
 3901TIP3    H133338   1.698   4.786   0.894 -0.9776  0.3795 -0.5320
 3901TIP3    H233339   1.733   4.906   0.980 -0.9801  1.0246 -1.4121
 3902TIP3   OH233340   6.583   0.201   7.759  0.0408  0.0009 -0.2282
 3902TIP3    H133341   6.548   0.140   7.824  1.4470  0.7567  1.3234
 3902TIP3    H233342   6.534   0.282   7.773 -1.0657 -0.3832 -1.5538
 3903TIP3   OH233343   1.964   2.993   7.631 -0.9615  0.0527  0.2240
 3903TIP3    H133344   1.972   3.077   7.676  0.3365  0.9523 -1.5551
 3903TIP3    H233345   2.054   2.971   7.605 -1.6420 -0.3067 -2.0322
 3904TIP3   OH233346   2.656   2.951   1.124 -0.0950  0.0079  0.3653
 3904TIP3    H133347   2.747   2.940   1.152  0.2996  0.8734 -0.4897
 3904TIP3    H233348   2.662   3.008   1.047 -1.3159 -0.3999 -0.0495
 3905TIP3   OH233349   1.904   5.221   7.504  0.7480 -0.5316 -0.1702
 3905TIP3    H133350   1.869   5.185   7.586  1.2946 -0.5613  0.0569
 3905TIP3    H233351   1.928   5.145   7.452  0.2584 -0.5154 -0.4302
 3906TIP3   OH233352   5.848   4.493   8.274 -0.0288 -0.1874  0.1309
 3906TIP3    H133353   5.785   4.422   8.288 -1.0808  0.3438 -1.5133
 3906TIP3    H233354   5.933   4.454   8.291 -0.6408 -1.6322 -0.0089
 3907TIP3   OH233355   0.825   2.046   8.495 -0.2672 -0.5666 -0.1348
 3907TIP3    H133356   0.789   2.135   8.501  2.2251  1.0018 -4.1744
 3907TIP3    H233357   0.920   2.058   8.506  0.0013 -3.0667  0.9166
 3908TIP3   OH233358   1.345   3.219   0.714 -0.2890  0.5545  0.5229
 3908TIP3    H133359   1.354   3.124   0.711  0.5459  0.5602  1.8199
 3908TIP3    H233360   1.401   3.250   0.643 -1.3684  0.0586 -0.5676
 3909TIP3   OH233361   1.169   4.552   0.559  0.3868 -0.5506 -0.5154
 3909TIP3    H133362   1.119   4.618   0.511 -0.4104 -0.5303  0.3162
 3909TIP3    H233363   1.231   4.517   0.495 -0.0234  0.1292 -1.2975
 3910TIP3   OH233364   2.732   6.398   8.487 -0.3673  0.0807  0.0694
 3910TIP3    H133365   2.647   6.438   8.506  1.0056  3.1157  0.5250
 3910TIP3    H233366   2.764   6.368   8.572 -0.5663 -0.1675  0.0580
 3911TIP3   OH233367   2.458   1.718   8.641 -0.3997  0.3411 -0.0415
 3911TIP3    H133368   2.409   1.733   8.722 -2.5698  0.3963 -1.2842
 3911TIP3    H233369   2.408   1.650   8.596  1.8691 -1.1385 -0.5021
 3912TIP3   OH233370   5.639   2.515   8.351  0.0700 -0.0687 -0.3635
 3912TIP3    H133371   5.725   2.499   8.311  0.9172  1.4763  0.7419
 3912TIP3    H233372   5.658   2.529   8.444 -1.3839  0.3339 -0.1024
 3913TIP3   OH233373   1.906   4.373   8.129 -0.8775 -0.2740 -0.4835
 3913TIP3    H133374   1.856   4.304   8.085 -0.6504 -1.3513  0.8612
 3913TIP3    H233375   1.855   4.394   8.207 -0.3147  0.1578 -0.2261
 3914TIP3   OH233376   1.185   1.319   0.741 -0.0154  0.7253 -0.1774
 3914TIP3    H133377   1.122   1.314   0.670  0.0220  4.3215 -0.6029
 3914TIP3    H233378   1.271   1.316   0.698  0.0647  0.4205 -0.0059
 3915TIP3   OH233379   2.415   4.594   0.945  0.0714 -0.0005 -0.2929
 3915TIP3    H133380   2.406   4.509   0.904 -0.4637 -0.2518  0.3329
 3915TIP3    H233381   2.333   4.639   0.927 -0.6119 -0.5124  1.3735
 3916TIP3   OH233382   5.067   6.348   8.252  0.2328  0.4562 -0.0229
 3916TIP3    H133383   5.065   6.338   8.347 -1.7711  1.7841  0.1379
 3916TIP3    H233384   5.109   6.268   8.220 -1.2723 -1.1648  1.8338
 3917TIP3   OH233385   0.521   2.238   8.124  0.0677 -0.4657  0.4760
 3917TIP3    H133386   0.527   2.246   8.219  3.0952 -0.4161  0.3684
 3917TIP3    H233387   0.607   2.208   8.097 -0.1104  1.2894 -2.4356
 3918TIP3   OH233388   0.248   5.203   0.575  0.5990 -0.7472  0.0862
 3918TIP3    H133389   0.216   5.134   0.518 -0.2686 -0.0041 -0.3615
 3918TIP3    H233390   0.225   5.174   0.664  0.7843 -1.3072 -0.0465
 3919TIP3   OH233391   3.565   6.398   7.151 -0.3393  0.3977  0.1492
 3919TIP3    H133392   3.545   6.308   7.175 -0.6533  0.4881  0.2354
 3919TIP3    H233393   3.657   6.396   7.122  0.6910  0.5693  3.0358
 3920TIP3   OH233394   1.976   3.700   7.461  0.3067 -0.0607 -0.0900
 3920TIP3    H133395   1.994   3.606   7.465  0.5838 -0.0333 -0.6255
 3920TIP3    H233396   2.050   3.737   7.413 -1.0225  0.1026 -2.1109
 3921TIP3   OH233397   4.058   2.530   1.550 -0.4261 -0.4373 -0.5251
 3921TIP3    H133398   4.057   2.442   1.514 -0.6897 -1.8166  2.5227
 3921TIP3    H233399   3.975   2.569   1.520 -1.9014 -2.4535  0.6488
 3922TIP3   OH233400   3.820   4.774   7.347 -0.4048  0.6724 -0.2161
 3922TIP3    H133401   3.771   4.717   7.288  0.6284  0.0720 -0.5235
 3922TIP3    H233402   3.902   4.727   7.363  0.1397  1.7121  0.1610
 3923TIP3   OH233403   0.228   2.996   0.024 -0.3924  0.0242 -0.2605
 3923TIP3    H133404   0.246   2.946  -0.056  1.7890  0.2441  0.0500
 3923TIP3    H233405   0.210   2.930   0.090 -1.1177 -0.1923 -0.6586
 3924TIP3   OH233406   0.113   1.573   6.885  0.3372  0.4561 -0.0604
 3924TIP3    H133407   0.064   1.545   6.808  1.0177  0.5108 -0.5288
 3924TIP3    H233408   0.203   1.547   6.866  0.2142 -1.4370  1.6354
 3925TIP3   OH233409   1.330   3.369   7.922 -0.1164  0.3691 -0.0576
 3925TIP3    H133410   1.407   3.405   7.877  0.7551  0.8110  1.7107
 3925TIP3    H233411   1.261   3.372   7.856  1.1948  0.6136 -1.4846
 3926TIP3   OH233412   3.496   5.729   8.243 -0.1902 -0.1856 -0.4751
 3926TIP3    H133413   3.485   5.759   8.333 -2.1447 -1.0184 -0.3977
 3926TIP3    H233414   3.520   5.636   8.251  3.6612  0.5930 -0.7766
 3927TIP3   OH233415   0.331   5.125   6.853 -0.6280  0.3146 -0.1173
 3927TIP3    H133416   0.309   5.199   6.910  0.0866 -0.2217  0.8796
 3927TIP3    H233417   0.247   5.082   6.835 -1.3162  2.2945 -2.0901
 3928TIP3   OH233418   5.287   3.142   0.394 -1.4187 -0.1997  0.3298
 3928TIP3    H133419   5.359   3.110   0.340  0.6851  2.3491  1.4269
 3928TIP3    H233420   5.271   3.071   0.457  0.2724 -0.7812  0.1526
 3929TIP3   OH233421   4.895   1.162   1.140 -0.0777 -0.0423  0.2831
 3929TIP3    H133422   4.935   1.235   1.092 -0.0655 -1.1166 -1.4190
 3929TIP3    H233423   4.851   1.110   1.073 -0.0135 -1.6549  1.4334
 3930TIP3   OH233424   2.702   2.211   7.206 -0.7551 -0.2158  0.0841
 3930TIP3    H133425   2.708   2.300   7.240 -1.4494  0.2169 -0.8698
 3930TIP3    H233426   2.713   2.220   7.111  2.4205 -1.5314  0.1967
 3931TIP3   OH233427   0.214   1.606   1.910 -0.1497 -0.1105  0.2363
 3931TIP3    H133428   0.282   1.667   1.936  0.2951 -0.4998 -0.0024
 3931TIP3    H233429   0.132   1.650   1.932  0.1112  1.1880 -1.2384
 3932TIP3   OH233430   4.885   2.279   1.748 -0.3369  0.4322  0.0831
 3932TIP3    H133431   4.957   2.323   1.793 -0.9276  2.0649 -0.4862
 3932TIP3    H233432   4.878   2.194   1.792  0.6133  1.0392  1.5003
 3933TIP3   OH233433   5.036   0.796   1.877  0.5111  0.1804  0.0470
 3933TIP3    H133434   5.130   0.794   1.896  0.4618 -0.0210  0.2727
 3933TIP3    H233435   4.994   0.809   1.963  0.3317  0.2288 -0.0467
 3934TIP3   OH233436   5.554   2.900   6.659  0.4520  0.3056  0.3856
 3934TIP3    H133437   5.548   2.818   6.708 -3.0349  0.3487  0.2916
 3934TIP3    H233438   5.615   2.881   6.588  1.0641 -1.6336  1.3518
 3935TIP3   OH233439   4.952   2.697   2.225 -0.3238 -0.0968 -0.0760
 3935TIP3    H133440   4.887   2.729   2.288 -0.3710 -0.8466  0.2704
 3935TIP3    H233441   4.982   2.776   2.179 -2.5182  0.1332 -1.2582
 3936TIP3   OH233442   2.565   3.820   0.308 -0.0998 -0.3039 -0.6709
 3936TIP3    H133443   2.546   3.865   0.390 -1.0959 -2.1021  0.1389
 3936TIP3    H233444   2.644   3.770   0.325  0.5817  0.5158 -1.3297
 3937TIP3   OH233445   6.110   5.387   6.777 -0.5310  0.0408  0.3941
 3937TIP3    H133446   6.159   5.358   6.700  0.8397  0.7897  0.9313
 3937TIP3    H233447   6.103   5.482   6.767 -3.4621 -0.1790 -0.5147
 3938TIP3   OH233448   4.104   2.224   0.808  0.3583 -0.0935  0.2841
 3938TIP3    H133449   4.093   2.219   0.713  1.8331 -0.4135  0.1002
 3938TIP3    H233450   4.039   2.289   0.836 -1.2047 -1.1440 -0.7148
 3939TIP3   OH233451   3.644   5.797   0.032  0.4638  0.0177 -0.2888
 3939TIP3    H133452   3.672   5.836  -0.051  1.6563  0.0699  0.1081
 3939TIP3    H233453   3.700   5.720   0.042 -0.7606 -0.9045 -0.2818
 3940TIP3   OH233454   6.055   0.611   1.023  0.4944 -0.0914  0.3700
 3940TIP3    H133455   6.004   0.583   1.099 -0.4189  1.1624  0.2422
 3940TIP3    H233456   6.090   0.697   1.048  1.1373 -0.1809 -0.2040
 3941TIP3   OH233457   3.274   4.008   1.201 -0.7367 -0.2578  0.3168
 3941TIP3    H133458   3.232   4.093   1.211 -0.4259  0.0315 -0.7153
 3941TIP3    H233459   3.340   4.007   1.271  0.1569  0.9246 -0.4580
 3942TIP3   OH233460   4.650   5.636   7.490 -0.8325  0.4076 -0.3668
 3942TIP3    H133461   4.741   5.638   7.461 -0.8499 -1.1246 -0.6148
 3942TIP3    H233462   4.625   5.543   7.484 -2.3651  0.7841 -0.1694
 3943TIP3   OH233463   5.461   4.028   0.802 -0.2102 -0.1629  0.0177
 3943TIP3    H133464   5.392   3.974   0.842 -0.6439  1.0395  0.9578
 3943TIP3    H233465   5.539   3.973   0.803 -1.0486 -1.4023 -0.6798
 3944TIP3   OH233466   5.608   6.767   0.678 -0.1279 -0.8647  0.5546
 3944TIP3    H133467   5.661   6.739   0.753 -0.5037 -2.1363  0.3687
 3944TIP3    H233468   5.661   6.746   0.601 -0.0982 -0.3399  0.4262
 3945TIP3   OH233469   5.610   3.411   7.386 -0.2145 -0.1539  0.1781
 3945TIP3    H133470   5.630   3.501   7.361  1.0093 -0.8269 -1.4032
 3945TIP3    H233471   5.595   3.416   7.481  1.1167  1.5032  0.3558
 3946TIP3   OH233472   1.827   6.072   6.991 -0.2716 -0.1963 -0.5812
 3946TIP3    H133473   1.875   6.005   6.942  1.9379  0.3665  0.6916
 3946TIP3    H233474   1.750   6.025   7.024  0.2403 -1.6034 -1.2768
 3947TIP3   OH233475   1.109   0.678   1.443 -0.6362 -0.3992  0.6601
 3947TIP3    H133476   1.062   0.762   1.442 -0.3019 -0.1692  2.3057
 3947TIP3    H233477   1.114   0.653   1.351 -0.4190  1.5776  0.0860
 3948TIP3   OH233478   2.820   6.733   0.108  0.7410 -0.3255 -0.0913
 3948TIP3    H133479   2.767   6.667   0.152  1.0623 -1.6074 -1.5347
 3948TIP3    H233480   2.849   6.792   0.177 -1.4987 -0.3141  0.9205
 3949TIP3   OH233481   0.480   0.269   1.213 -0.1671 -0.4905 -0.5036
 3949TIP3    H133482   0.525   0.289   1.295 -0.6740 -2.3956  0.3059
 3949TIP3    H233483   0.413   0.337   1.205 -0.2332 -0.3764  0.7794
 3950TIP3   OH233484   0.422   2.064   1.686  0.3022  0.5401 -0.0923
 3950TIP3    H133485   0.408   2.106   1.771 -1.8140  0.3728 -0.2944
 3950TIP3    H233486   0.416   1.970   1.705  2.5042  0.3603 -0.0475
 3951TIP3   OH233487   2.853   0.408   8.473  0.3222  0.3981  0.3588
 3951TIP3    H133488   2.856   0.352   8.550 -1.8966 -0.1225  0.1379
 3951TIP3    H233489   2.866   0.348   8.399  0.3740  0.5608  0.2343
 3952TIP3   OH233490   1.461   0.048   2.602 -0.3774 -0.2293 -0.1816
 3952TIP3    H133491   1.525  -0.012   2.640 -0.0273  0.1045 -0.2343
 3952TIP3    H233492   1.399  -0.008   2.556 -1.0569 -0.6785  1.2294
 3953TIP3   OH233493   4.114   2.027   8.651  0.1310  0.4841  0.1675
 3953TIP3    H133494   4.036   2.042   8.705  0.6505  2.3157  0.4688
 3953TIP3    H233495   4.139   2.114   8.620  1.0914 -0.2691 -1.3107
 3954TIP3   OH233496   3.255   0.320   0.339 -0.1662  0.6708 -0.0862
 3954TIP3    H133497   3.191   0.319   0.411  0.2753 -0.3206  0.3158
 3954TIP3    H233498   3.204   0.296   0.262 -0.3587  0.2596  0.1641
 3955TIP3   OH233499   4.360   6.676   1.289 -0.4993  0.4655  0.7740
 3955TIP3    H133500   4.330   6.681   1.380  1.8764 -1.8428  1.8342
 3955TIP3    H233501   4.453   6.655   1.296 -0.5824 -1.5300 -2.1575
 3956TIP3   OH233502   5.286   5.766   1.027  0.8919 -0.1115 -0.0279
 3956TIP3    H133503   5.291   5.860   1.010  1.9790  0.1452  1.5058
 3956TIP3    H233504   5.377   5.739   1.039  0.5028 -1.1111  0.7601
 3957TIP3   OH233505   5.875   3.075   6.761 -0.8753  0.3344  0.1320
 3957TIP3    H133506   5.878   3.118   6.675 -1.0782 -0.3007 -0.2009
 3957TIP3    H233507   5.941   3.006   6.755  0.6433  1.6040  1.2418
 3958TIP3   OH233508   3.315   2.901   8.152 -0.0451 -0.0558 -1.2943
 3958TIP3    H133509   3.327   2.936   8.063  0.1954 -0.0008 -1.2430
 3958TIP3    H233510   3.278   2.814   8.138  0.2840 -0.1716 -1.4633
 3959TIP3   OH233511   3.004   5.460   0.489  0.2297  0.2245  0.2961
 3959TIP3    H133512   3.024   5.542   0.534 -1.7082  1.3673 -0.7514
 3959TIP3    H233513   3.056   5.394   0.534  0.7150  1.7900  2.1629
 3960TIP3   OH233514   4.239   5.705   8.426 -0.3755 -0.1520 -0.0878
 3960TIP3    H133515   4.310   5.743   8.375 -0.6396  1.1096  0.4281
 3960TIP3    H233516   4.222   5.619   8.387  0.8181 -0.0801 -0.7717
 3961TIP3   OH233517   4.991   2.729   8.333  0.7811  0.3157 -0.1220
 3961TIP3    H133518   5.038   2.737   8.250 -0.3164  0.0708 -0.7855
 3961TIP3    H233519   4.909   2.684   8.310 -0.6957  2.4723  0.6221
 3962TIP3   OH233520   5.518   5.464   0.784 -0.3594 -0.1507  0.2609
 3962TIP3    H133521   5.513   5.552   0.744  1.0522  0.0003  0.3507
 3962TIP3    H233522   5.594   5.424   0.742  0.3345 -0.5098  1.8100
 3963TIP3   OH233523   2.076   5.926   1.380  0.4946  0.1256  0.5927
 3963TIP3    H133524   1.992   5.961   1.349  0.3854 -0.1089  0.6246
 3963TIP3    H233525   2.084   5.959   1.469  2.8588  4.5890 -0.9329
 3964TIP3   OH233526   3.028   4.672   1.453 -0.3843  0.4191  0.6837
 3964TIP3    H133527   3.049   4.655   1.545  1.2503 -0.9691  0.1027
 3964TIP3    H233528   3.063   4.759   1.436  1.2966 -0.1983  0.8295
 3965TIP3   OH233529   2.505   6.896   8.477  0.2572 -0.2747  0.3141
 3965TIP3    H133530   2.598   6.905   8.458 -0.0353  0.4242 -0.8777
 3965TIP3    H233531   2.492   6.944   8.559  1.0202 -0.7967  0.7535
 3966TIP3   OH233532   1.327   4.623   7.423  0.7767  0.3075  0.2613
 3966TIP3    H133533   1.416   4.594   7.406  1.0208  0.2617  1.5127
 3966TIP3    H233534   1.327   4.716   7.400  0.7057 -0.0401 -1.2304
 3967TIP3   OH233535   4.116   4.770   0.471  0.0451 -0.1844 -0.3655
 3967TIP3    H133536   4.128   4.676   0.457 -1.3314 -0.6187  1.1107
 3967TIP3    H233537   4.196   4.798   0.515  0.3254 -0.7366 -0.5136
 3968TIP3   OH233538   2.273   6.551   0.740 -0.4479  0.0535  0.3104
 3968TIP3    H133539   2.346   6.605   0.713 -1.1075  0.5627 -0.5088
 3968TIP3    H233540   2.311   6.465   0.757  0.4723  0.5497  0.8112
 3969TIP3   OH233541   3.395   2.358   8.191  0.0324 -0.5437 -0.1431
 3969TIP3    H133542   3.388   2.297   8.118 -0.1000 -1.7163  0.8303
 3969TIP3    H233543   3.440   2.309   8.259  2.4505  1.3317 -0.2680
 3970TIP3   OH233544   0.521   4.178   0.926 -0.3340  0.5115  0.0656
 3970TIP3    H133545   0.447   4.139   0.973  0.8749  1.3350  2.8326
 3970TIP3    H233546   0.564   4.233   0.991  2.0952  0.9114 -1.7704
 3971TIP3   OH233547   6.637   3.190   0.350 -0.4705  0.2208  0.2082
 3971TIP3    H133548   6.721   3.144   0.348 -0.2720  0.3814  2.2764
 3971TIP3    H233549   6.658   3.276   0.387 -1.5741  0.1666  0.9926
 3972TIP3   OH233550   4.591   4.103   0.118 -0.9879 -0.2689  0.0259
 3972TIP3    H133551   4.648   4.029   0.142  2.2366  2.2684  0.9561
 3972TIP3    H233552   4.617   4.124   0.028 -0.0822  1.1309  0.5785
 3973TIP3   OH233553   2.583   3.852   7.412 -0.3700  0.0408  0.6303
 3973TIP3    H133554   2.613   3.847   7.503 -0.6422  0.1826  0.7282
 3973TIP3    H233555   2.492   3.879   7.419 -0.1651  0.8458  0.2795
 3974TIP3   OH233556   2.442   0.400   2.185 -0.2832 -0.2313  0.1652
 3974TIP3    H133557   2.428   0.322   2.133  0.6085 -0.0322 -0.4061
 3974TIP3    H233558   2.449   0.471   2.121 -2.8037  0.6465  0.7270
 3975TIP3   OH233559   0.350   4.437   0.854  0.2028  0.3644 -0.1617
 3975TIP3    H133560   0.372   4.377   0.783  1.0577  0.5706 -0.0810
 3975TIP3    H233561   0.332   4.380   0.929  0.7955  0.1924 -0.1439
 3976TIP3   OH233562   2.067   0.201   7.833 -0.1210  0.2773 -0.2749
 3976TIP3    H133563   2.033   0.130   7.779  0.5856  0.1039 -0.4962
 3976TIP3    H233564   2.139   0.163   7.881 -0.9112  0.3570  1.0229
 3977TIP3   OH233565   2.072   6.880   8.276 -0.7122 -0.0398 -0.2998
 3977TIP3    H133566   2.115   6.951   8.229 -2.3469  1.2069 -0.0309
 3977TIP3    H233567   2.101   6.800   8.232  1.4857  0.7467 -0.3512
 3978TIP3   OH233568   5.288   4.160   6.145 -0.1460 -0.0313 -0.4677
 3978TIP3    H133569   5.284   4.069   6.115 -0.1493  0.2988 -1.4867
 3978TIP3    H233570   5.373   4.192   6.116  0.3694 -0.0346  0.9202
 3979TIP3   OH233571   5.699   5.562   7.719  0.4968 -0.5745 -0.2490
 3979TIP3    H133572   5.685   5.573   7.813 -0.0123  0.2068 -0.4016
 3979TIP3    H233573   5.612   5.549   7.683  0.6321 -0.3251 -0.6760
 3980TIP3   OH233574   1.899   1.052   3.008  0.4593 -0.0215 -0.4210
 3980TIP3    H133575   1.886   0.966   3.047  1.5987 -0.4285 -0.8958
 3980TIP3    H233576   1.969   1.039   2.944 -0.9968  0.7373 -2.2331
 3981TIP3   OH233577   2.784   1.108   1.412  0.4466  0.2464  0.4601
 3981TIP3    H133578   2.689   1.121   1.406  0.6245  0.9129 -2.3944
 3981TIP3    H233579   2.817   1.189   1.450 -0.0555  0.3736  0.6374
 3982TIP3   OH233580   4.856   2.548   2.028 -0.2590 -0.2428 -0.6115
 3982TIP3    H133581   4.927   2.498   1.988  0.8618  0.5446  0.3252
 3982TIP3    H233582   4.897   2.593   2.102 -2.0423 -0.9680  0.9196
 3983TIP3   OH233583   5.657   3.151   7.867  0.3045  0.3397  0.0546
 3983TIP3    H133584   5.598   3.101   7.810 -1.7324  0.0503  2.2420
 3983TIP3    H233585   5.725   3.089   7.892  2.2728  0.9292 -3.2506
 3984TIP3   OH233586   2.680   0.502   1.021  0.8824 -0.3309 -0.2098
 3984TIP3    H133587   2.598   0.550   1.012  1.3691  0.5177 -0.2198
 3984TIP3    H233588   2.726   0.517   0.939  0.8761 -1.1441 -0.3690
 3985TIP3   OH233589   6.428   1.495   2.169  0.2563 -0.1860  0.1108
 3985TIP3    H133590   6.509   1.444   2.174  0.0523 -0.5814 -0.4689
 3985TIP3    H233591   6.371   1.444   2.112 -0.5076 -0.0477  0.7321
 3986TIP3   OH233592   2.134   4.268   8.652 -0.1541  0.0905 -0.8326
 3986TIP3    H133593   2.211   4.250   8.706  1.2473  3.2225 -1.5964
 3986TIP3    H233594   2.151   4.221   8.570  0.3030 -0.2816 -0.5300
 3987TIP3   OH233595   1.485   0.134   1.975 -0.1135 -0.6030 -0.0175
 3987TIP3    H133596   1.390   0.131   1.982 -0.0358 -1.4986  0.8744
 3987TIP3    H233597   1.504   0.097   1.889 -0.5595 -0.9932  0.0455
 3988TIP3   OH233598   6.795   0.327   7.944  0.2795 -0.1526 -0.4351
 3988TIP3    H133599   6.701   0.330   7.930 -0.1104  0.6310  1.8329
 3988TIP3    H233600   6.829   0.405   7.900 -0.0174 -0.7703 -1.7937
 3989TIP3   OH233601   4.556   4.163   6.841  0.2751  0.1043 -0.2109
 3989TIP3    H133602   4.592   4.074   6.834 -0.7345 -0.3159 -0.1867
 3989TIP3    H233603   4.474   4.160   6.792 -0.5703  0.5790  1.1142
 3990TIP3   OH233604   2.994   2.439   0.468  0.4773  0.0434 -0.3178
 3990TIP3    H133605   3.008   2.533   0.457  1.9895 -0.0206  0.6909
 3990TIP3    H233606   3.060   2.413   0.533  0.4252 -1.8057 -0.9592
 3991TIP3   OH233607   1.655   3.696   1.382 -0.3319  0.3987 -0.9339
 3991TIP3    H133608   1.716   3.654   1.443  0.5737  0.1723 -1.9681
 3991TIP3    H233609   1.685   3.787   1.376 -0.7836  0.5721 -0.5873
 3992TIP3   OH233610   5.606   6.747   7.091 -0.2780  0.2382 -0.2364
 3992TIP3    H133611   5.649   6.754   7.006 -0.8172 -0.8584 -0.6253
 3992TIP3    H233612   5.515   6.770   7.073 -0.3247  0.3071  0.0986
 3993TIP3   OH233613   5.815   2.907   7.484 -0.4600 -0.2658 -0.1777
 3993TIP3    H133614   5.870   2.930   7.558  0.9437  1.7869 -1.7581
 3993TIP3    H233615   5.872   2.857   7.426  0.2938  2.8684 -2.3792
 3994TIP3   OH233616   6.881   1.394   6.722  0.3900  0.0548  0.3870
 3994TIP3    H133617   6.915   1.310   6.753  0.6487  0.0734  0.1584
 3994TIP3    H233618   6.821   1.371   6.651 -1.2267 -0.0806  1.7315
 3995TIP3   OH233619   5.661   5.106   1.808 -0.3508 -0.7245 -0.3788
 3995TIP3    H133620   5.644   5.194   1.842 -1.3052 -1.6630  1.7934
 3995TIP3    H233621   5.612   5.102   1.726 -0.6746  0.6270 -0.2798
 3996TIP3   OH233622   5.427   4.992   0.168 -0.6468 -0.4013  0.2692
 3996TIP3    H133623   5.489   5.027   0.103  1.2466 -2.3889  0.8704
 3996TIP3    H233624   5.403   4.906   0.134 -1.7235 -0.3724  0.9216
 3997TIP3   OH233625   1.945   5.697   6.639  0.3989 -0.4610  0.0523
 3997TIP3    H133626   1.889   5.666   6.568 -0.4804 -0.0970  0.5632
 3997TIP3    H233627   2.028   5.651   6.627 -0.2104 -1.4749 -0.3857
 3998TIP3   OH233628   1.962   0.316   1.153 -0.1575 -0.1605 -0.2038
 3998TIP3    H133629   2.018   0.363   1.215 -0.3002  0.2497 -0.3835
 3998TIP3    H233630   1.961   0.226   1.186  1.0312 -0.2956 -0.5060
 3999TIP3   OH233631   2.542   4.967   7.279 -0.0257  0.4434  0.3355
 3999TIP3    H133632   2.520   4.906   7.209  1.2339 -1.6869  1.6908
 3999TIP3    H233633   2.491   5.046   7.259 -1.6542 -0.9872 -1.5562
 4000TIP3   OH233634   2.038   1.326   8.231 -0.2342 -0.4923 -0.2393
 4000TIP3    H133635   2.132   1.339   8.227 -0.2882 -0.4327 -1.8209
 4000TIP3    H233636   2.009   1.379   8.305  1.0500 -1.0481  0.6884
 4001TIP3   OH233637   3.417   5.678   6.891  0.3566  0.2480 -0.6014
 4001TIP3    H133638   3.329   5.641   6.887  0.1615  0.2791  1.7648
 4001TIP3    H233639   3.450   5.673   6.801 -1.4737 -1.1541 -1.2533
 4002TIP3   OH233640   3.915   6.518   8.318  0.3158 -0.0201 -0.0989
 4002TIP3    H133641   3.920   6.603   8.362  1.3632 -0.4166  0.6041
 4002TIP3    H233642   3.826   6.488   8.334  0.1912  0.5781  0.3659
 4003TIP3   OH233643   0.509   5.562   0.382 -0.4585  0.5882  0.3201
 4003TIP3    H133644   0.417   5.585   0.396 -1.2908  1.0050 -4.3108
 4003TIP3    H233645   0.511   5.467   0.392 -1.2855  0.6102  0.8567
 4004TIP3   OH233646   6.626   2.531   1.092 -0.9596 -0.4020  0.1314
 4004TIP3    H133647   6.649   2.548   1.000 -1.1723 -2.0884 -0.2660
 4004TIP3    H233648   6.682   2.591   1.142 -0.9698  0.6773 -1.0849
 4005TIP3   OH233649   2.671   6.897   7.431  0.3924  0.1583 -0.3092
 4005TIP3    H133650   2.699   6.986   7.410  2.6889 -0.5847 -0.6069
 4005TIP3    H233651   2.640   6.904   7.522 -0.6996  1.4928 -0.7466
 4006TIP3   OH233652   2.018   0.064   1.226 -0.5094  0.0425  0.6286
 4006TIP3    H133653   1.969   0.054   1.307  0.3991 -4.2693  0.8827
 4006TIP3    H233654   2.106   0.090   1.255  0.0677 -2.3561  1.2573
 4007TIP3   OH233655   5.214   5.541   7.662 -0.2461 -0.3085 -0.1167
 4007TIP3    H133656   5.135   5.549   7.610 -0.7299 -2.2244  0.2656
 4007TIP3    H233657   5.238   5.631   7.684 -0.9923  0.4371 -2.1657
 4008TIP3   OH233658   2.517   5.870   8.107  0.7398  0.0432 -0.0787
 4008TIP3    H133659   2.492   5.832   8.023 -1.7446 -0.3500  0.7630
 4008TIP3    H233660   2.517   5.795   8.167  1.7422  0.4469  0.4373
 4009TIP3   OH233661   5.475   4.859   1.634  0.1096 -0.1562 -0.0644
 4009TIP3    H133662   5.470   4.844   1.540  1.7063 -0.0688 -0.1948
 4009TIP3    H233663   5.429   4.942   1.648 -0.0924 -0.1464 -0.7781
 4010TIP3   OH233664   4.037   4.865   0.878  0.3597  0.3594  0.2540
 4010TIP3    H133665   4.114   4.900   0.833  1.4648  0.5358  2.1798
 4010TIP3    H233666   4.071   4.797   0.936 -0.9637  0.2706  0.9729
 4011TIP3   OH233667   4.999   1.425   6.298  0.1458 -0.0126 -0.2994
 4011TIP3    H133668   5.060   1.368   6.251 -1.6121 -0.8518 -1.7426
 4011TIP3    H233669   5.005   1.509   6.253 -0.6260 -0.4637 -1.3196
 4012TIP3   OH233670   1.733   1.818   7.576 -0.1687  0.6982 -0.2485
 4012TIP3    H133671   1.680   1.882   7.624 -3.1995 -1.1746 -0.8066
 4012TIP3    H233672   1.669   1.759   7.536  2.4046 -2.0962 -0.6285
 4013TIP3   OH233673   5.979   5.740   7.163  0.6093  0.9494  0.3064
 4013TIP3    H133674   6.074   5.735   7.169  0.5735  1.4469  1.9997
 4013TIP3    H233675   5.948   5.680   7.231 -0.3021  0.4653 -0.5189
 4014TIP3   OH233676   5.136   2.334   7.868  0.0924 -0.4912  0.1236
 4014TIP3    H133677   5.079   2.379   7.931 -0.2952 -1.6929  0.6714
 4014TIP3    H233678   5.182   2.268   7.921  1.1119 -0.3301 -0.5389
 4015TIP3   OH233679   4.744   6.117   6.003  0.1634 -0.2052 -0.1488
 4015TIP3    H133680   4.683   6.062   5.954 -0.4691  0.3215  0.0303
 4015TIP3    H233681   4.694   6.195   6.025  0.6900 -0.0670  0.6153
 4016TIP3   OH233682   4.061   1.920   1.340  0.1648  0.4769  0.5455
 4016TIP3    H133683   3.994   1.982   1.312 -1.0663 -0.4860  1.2568
 4016TIP3    H233684   4.116   1.908   1.263 -1.3004  0.2403 -0.5011
 4017TIP3   OH233685   1.548   3.430   1.418  0.0462 -0.0261 -0.3387
 4017TIP3    H133686   1.494   3.437   1.496 -1.1422 -1.7161 -0.9627
 4017TIP3    H233687   1.554   3.520   1.385  0.0728  0.6184  1.3260
 4018TIP3   OH233688   0.243   5.068   8.519 -0.5838  0.4934 -0.3910
 4018TIP3    H133689   0.152   5.099   8.520 -0.7055  0.1712 -1.1625
 4018TIP3    H233690   0.286   5.119   8.587 -1.6681 -0.3234  0.9745
 4019TIP3   OH233691   3.949   0.939   6.714 -0.0132 -0.3540  0.1071
 4019TIP3    H133692   4.024   0.879   6.717 -0.9693 -1.5927  0.2598
 4019TIP3    H233693   3.980   1.018   6.757  1.0712 -1.0128  0.5911
 4020TIP3   OH233694   5.550   2.341   0.940  0.4937  0.3322 -0.5459
 4020TIP3    H133695   5.592   2.396   1.006  1.9400 -2.5897  1.1802
 4020TIP3    H233696   5.468   2.313   0.981  0.8074 -0.4979 -0.4660
 4021TIP3   OH233697   4.840   3.452   1.437 -0.1064  0.2813  0.6110
 4021TIP3    H133698   4.761   3.494   1.471  0.5005  0.7087  1.5427
 4021TIP3    H233699   4.809   3.371   1.396 -1.0947  0.7652  0.3701
 4022TIP3   OH233700   0.742   2.705   6.530 -0.4776  0.5477 -0.2861
 4022TIP3    H133701   0.784   2.754   6.460 -0.3244 -0.7392 -1.1191
 4022TIP3    H233702   0.809   2.698   6.598 -0.4696  1.3832 -0.1952
 4023TIP3   OH233703   4.892   5.707   7.933 -0.7266 -0.1082  0.3917
 4023TIP3    H133704   4.977   5.741   7.903 -0.1371 -0.1738  1.8740
 4023TIP3    H233705   4.830   5.733   7.865  0.4127  0.3121 -0.5207
 4024TIP3   OH233706   4.915   5.090   1.151 -0.8934 -0.0388  0.2741
 4024TIP3    H133707   4.986   5.029   1.127 -1.3885 -0.7299  0.5305
 4024TIP3    H233708   4.917   5.157   1.083  0.8374  0.6617  0.9658
 4025TIP3   OH233709   2.662   6.403   7.962 -0.4112  0.1126  0.1085
 4025TIP3    H133710   2.672   6.483   7.911  2.5022  0.5745  1.1772
 4025TIP3    H233711   2.637   6.337   7.897  1.3868  1.0336 -1.6512
 4026TIP3   OH233712   0.155   3.340   0.904  0.4057 -0.1973  0.2631
 4026TIP3    H133713   0.121   3.364   0.818  0.6665  1.0714  0.4940
 4026TIP3    H233714   0.244   3.375   0.905  0.1649  0.4293  1.2978
 4027TIP3   OH233715   0.167   5.391   7.775 -0.5147  0.1737  0.1497
 4027TIP3    H133716   0.118   5.344   7.843 -2.9628  0.8356 -1.0764
 4027TIP3    H233717   0.161   5.335   7.698  0.2438  0.5159 -0.1705
 4028TIP3   OH233718   4.411   3.253   0.591  0.2238  0.7435  0.1515
 4028TIP3    H133719   4.480   3.280   0.651 -0.1375  0.4557  0.7144
 4028TIP3    H233720   4.413   3.157   0.594  0.9455  0.6968 -1.1756
 4029TIP3   OH233721   4.497   2.134   1.636 -0.0889  0.3416  0.1423
 4029TIP3    H133722   4.494   2.047   1.677  0.6972  0.0068 -0.4901
 4029TIP3    H233723   4.428   2.132   1.570  1.1608 -0.5102 -1.1978
 4030TIP3   OH233724   1.592   0.406   7.572  0.5660  0.2744  0.4423
 4030TIP3    H133725   1.550   0.483   7.611  1.3255  1.2248 -0.5582
 4030TIP3    H233726   1.656   0.378   7.638  0.8687  1.0114  0.4683
 4031TIP3   OH233727   3.703   1.387   8.225  0.1360 -0.0334  0.6048
 4031TIP3    H133728   3.611   1.406   8.205  0.4273 -0.9271 -2.0746
 4031TIP3    H233729   3.721   1.306   8.178  1.8836 -0.8120  2.4990
 4032TIP3   OH233730   1.243   0.097   0.586  0.1791 -0.5239 -0.0962
 4032TIP3    H133731   1.228   0.138   0.501  0.6481  0.1225  0.1257
 4032TIP3    H233732   1.336   0.109   0.603 -0.1679  0.7060  1.1795
 4033TIP3   OH233733   2.749   6.769   0.653  0.4348 -0.2054 -0.0254
 4033TIP3    H133734   2.797   6.725   0.723 -1.8022 -1.2581  0.9325
 4033TIP3    H233735   2.729   6.855   0.688  0.0103 -0.4440  0.3257
 4034TIP3   OH233736   5.513   6.434   1.614  0.4329 -0.2665  0.0621
 4034TIP3    H133737   5.562   6.516   1.611  1.0071 -0.5810  0.5379
 4034TIP3    H233738   5.525   6.402   1.704 -0.8474 -0.2383  0.2689
 4035TIP3   OH233739   1.535   6.828   0.036  0.1376 -0.0826  0.3146
 4035TIP3    H133740   1.502   6.774  -0.036 -1.1881 -0.4470  1.1776
 4035TIP3    H233741   1.619   6.789   0.059  0.2239 -0.4169 -0.5387
 4036TIP3   OH233742   1.493   5.422   0.901  0.4137 -0.3977 -1.1729
 4036TIP3    H133743   1.568   5.448   0.846  0.4391  1.7835 -0.2320
 4036TIP3    H233744   1.499   5.327   0.905  1.8563 -0.4542 -2.9007
 4037TIP3   OH233745   6.181   0.670   2.064 -0.3811  0.1052  0.2460
 4037TIP3    H133746   6.164   0.763   2.075 -0.7377 -0.1526  2.1018
 4037TIP3    H233747   6.181   0.634   2.152 -2.3764 -2.0175 -0.4970
 4038TIP3   OH233748   5.637   6.641   7.344  0.2092  0.1109  0.0476
 4038TIP3    H133749   5.722   6.601   7.323 -0.9577 -1.9636 -0.9768
 4038TIP3    H233750   5.610   6.684   7.263 -1.0884 -1.8873 -0.6341
 4039TIP3   OH233751   6.055   2.594   0.852  0.1859 -0.5609 -0.4884
 4039TIP3    H133752   6.137   2.585   0.803  0.3194 -1.0930 -0.1721
 4039TIP3    H233753   6.042   2.688   0.859  0.7375 -0.4719 -0.5953
 4040TIP3   OH233754   2.833   5.163   6.449 -0.3355 -0.1278 -0.5066
 4040TIP3    H133755   2.835   5.067   6.454 -0.5315 -0.2421 -2.1968
 4040TIP3    H233756   2.758   5.188   6.503  1.3722 -0.6752  2.3657
 4041TIP3   OH233757   1.479   0.816   2.258  0.0314  0.0070  0.2760
 4041TIP3    H133758   1.481   0.769   2.342 -3.2104 -0.1674  0.3815
 4041TIP3    H233759   1.463   0.907   2.282 -1.6760 -0.1608 -0.1194
 4042TIP3   OH233760   2.545   3.291   0.024 -0.0026 -0.2797 -0.3980
 4042TIP3    H133761   2.572   3.363   0.080  1.6231  0.2525 -1.7935
 4042TIP3    H233762   2.610   3.289  -0.046 -1.7488 -1.1252 -2.0860
 4043TIP3   OH233763   5.460   2.022   8.288  0.0746  0.3195  0.0692
 4043TIP3    H133764   5.465   1.976   8.371 -1.0493 -0.0050 -0.0381
 4043TIP3    H233765   5.550   2.052   8.272  0.9473 -2.1987 -0.0782
 4044TIP3   OH233766   5.405   5.893   2.125  0.2606 -0.0090  0.7517
 4044TIP3    H133767   5.449   5.977   2.119 -0.7757  0.5430  0.6000
 4044TIP3    H233768   5.364   5.894   2.212 -0.6587  0.1101  0.3242
 4045TIP3   OH233769   5.774   2.382   7.266  0.0667 -0.0255  0.6632
 4045TIP3    H133770   5.691   2.426   7.248  1.2000  1.5299 -1.0912
 4045TIP3    H233771   5.807   2.423   7.346  0.2944  1.1080 -0.0032
 4046TIP3   OH233772   1.348   5.674   2.028  0.4759  0.1423  0.3648
 4046TIP3    H133773   1.387   5.619   1.960  1.2917  0.5635  0.4775
 4046TIP3    H233774   1.270   5.711   1.988  0.5322 -0.2167 -0.0832
 4047TIP3   OH233775   1.796   4.549   8.521  0.1204 -0.3542  0.0858
 4047TIP3    H133776   1.726   4.601   8.560  0.5100  1.9453 -1.9914
 4047TIP3    H233777   1.750   4.479   8.474 -0.7033  0.2048  0.0286
 4048TIP3   OH233778   4.464   3.058   7.627  0.3406  0.1216 -0.4179
 4048TIP3    H133779   4.470   3.133   7.568  1.9727  0.3229 -0.0273
 4048TIP3    H233780   4.388   3.009   7.595  1.3764  0.0222 -2.9145
 4049TIP3   OH233781   0.780   0.678   7.863  0.3028  0.3242  0.1078
 4049TIP3    H133782   0.706   0.624   7.836 -0.4542  1.3644  0.0232
 4049TIP3    H233783   0.761   0.699   7.955  0.0052  1.3558 -0.1813
 4050TIP3   OH233784   0.810   1.555   6.234  0.3474  0.3154  0.3960
 4050TIP3    H133785   0.721   1.524   6.217  0.2874  0.6729  0.0430
 4050TIP3    H233786   0.798   1.629   6.294  0.3173  1.0682 -0.5217
 4051TIP3   OH233787   0.185   1.774   0.647  0.9834 -0.2768  0.0650
 4051TIP3    H133788   0.225   1.764   0.561 -1.0090 -3.1101 -0.6847
 4051TIP3    H233789   0.257   1.798   0.705  2.5208  0.9823 -2.2165
 4052TIP3   OH233790   5.803   4.028   1.803 -0.2461 -0.1581 -0.3197
 4052TIP3    H133791   5.746   3.971   1.855  1.3151  0.8726  2.7787
 4052TIP3    H233792   5.778   4.117   1.827  1.6291  0.3400  0.0204
 4053TIP3   OH233793   5.187   3.017   2.287 -0.3621 -0.1245  0.3798
 4053TIP3    H133794   5.237   3.086   2.244 -0.3098  0.7541  1.7961
 4053TIP3    H233795   5.099   3.025   2.252 -0.3332  0.6071  0.4590
 4054TIP3   OH233796   2.007   3.934   6.866 -0.0089  0.3233  0.2903
 4054TIP3    H133797   2.036   4.019   6.900 -1.3643 -0.1335  2.8864
 4054TIP3    H233798   1.964   3.955   6.783 -1.6804  2.4611  1.5817
 4055TIP3   OH233799   6.106   3.463   7.765  0.1497  0.5846  0.2399
 4055TIP3    H133800   6.160   3.500   7.696  0.2549  0.2038  0.1161
 4055TIP3    H233801   6.052   3.536   7.796  0.1633  0.7729 -0.1838
 4056TIP3   OH233802   5.732   1.618   1.217  0.3550 -0.0858  0.2004
 4056TIP3    H133803   5.793   1.676   1.171 -0.7183  0.0893 -1.0885
 4056TIP3    H233804   5.650   1.626   1.167 -0.3377 -1.3119  1.0905
 4057TIP3   OH233805   2.617   3.473   7.634  0.3882  0.0849 -0.4992
 4057TIP3    H133806   2.541   3.531   7.628  0.6383  0.5173  0.3552
 4057TIP3    H233807   2.580   3.385   7.632 -0.1262  0.2885 -0.2635
 4058TIP3   OH233808   0.965   6.292   1.125 -0.2256 -0.2829  0.8255
 4058TIP3    H133809   1.025   6.284   1.199  0.0033 -2.0598  0.5043
 4058TIP3    H233810   0.982   6.213   1.073 -2.2533 -0.4008  0.2900
 4059TIP3   OH233811   1.311   5.133   0.506 -0.0733 -0.3717  0.0589
 4059TIP3    H133812   1.217   5.116   0.507  0.0583 -1.3186 -1.0122
 4059TIP3    H233813   1.337   5.133   0.598 -1.1526  0.1287  0.3791
 4060TIP3   OH233814   0.223   3.968   1.721  0.6273  0.5183 -0.2254
 4060TIP3    H133815   0.280   3.939   1.650  0.9018  0.0066  0.2017
 4060TIP3    H233816   0.193   4.055   1.694  0.6208  0.2697 -1.0269
 4061TIP3   OH233817   0.176   0.861   0.184 -0.5118 -0.4370 -0.6979
 4061TIP3    H133818   0.149   0.795   0.247 -1.0816 -0.4589 -0.9582
 4061TIP3    H233819   0.095   0.903   0.157 -0.2974 -0.5796 -1.5880
 4062TIP3   OH233820   5.882   6.579   7.203  0.4618  0.3389 -0.2786
 4062TIP3    H133821   5.890   6.643   7.132  0.6666  0.1684 -0.4108
 4062TIP3    H233822   5.942   6.508   7.178  0.3968  0.1949 -0.0269
 4063TIP3   OH233823   3.209   3.669   0.176 -0.1175 -0.6422  0.1965
 4063TIP3    H133824   3.256   3.620   0.109  1.4259  0.9767  0.0087
 4063TIP3    H233825   3.179   3.748   0.131 -0.9635 -0.5530  0.9009
 4064TIP3   OH233826   5.504   6.317   0.810 -0.4849 -0.1728 -0.0737
 4064TIP3    H133827   5.518   6.331   0.904  0.2055  4.6189 -0.6026
 4064TIP3    H233828   5.412   6.338   0.796 -0.2214  0.6568 -0.6190
 4065TIP3   OH233829   2.112   1.369   8.654  0.3832  0.0393 -0.2870
 4065TIP3    H133830   2.123   1.463   8.672 -1.7597  0.5753 -1.4067
 4065TIP3    H233831   2.044   1.366   8.587  2.1504 -2.2307 -2.1268
 4066TIP3   OH233832   1.496   4.735   7.140 -0.1691  0.0819  0.2471
 4066TIP3    H133833   1.408   4.701   7.122  0.3374 -0.6554 -0.9556
 4066TIP3    H233834   1.487   4.830   7.135 -0.5952 -0.0284 -1.3985
 4067TIP3   OH233835   3.896   0.201   0.539 -0.2217  0.0206 -0.2240
 4067TIP3    H133836   3.989   0.210   0.518 -0.4995  2.7722 -0.6066
 4067TIP3    H233837   3.882   0.260   0.613 -1.4981 -1.1131  0.4762
 4068TIP3   OH233838   4.766   2.619   8.216  0.0842 -0.3675 -0.1169
 4068TIP3    H133839   4.683   2.596   8.259 -0.8069  0.7085 -1.1839
 4068TIP3    H233840   4.740   2.649   8.129  1.2738  2.7672  0.4626
 4069TIP3   OH233841   0.602   3.157   1.900 -0.1972 -0.4067 -0.1532
 4069TIP3    H133842   0.545   3.180   1.826  2.2535  1.2137 -1.6836
 4069TIP3    H233843   0.562   3.078   1.937 -2.3544 -0.4373 -2.2681
 4070TIP3   OH233844   6.526   4.745   1.303 -0.3540 -0.0370  0.5872
 4070TIP3    H133845   6.583   4.752   1.380 -0.3256  0.7272  0.5099
 4070TIP3    H233846   6.546   4.824   1.252 -1.7247  0.4059  0.7181
 4071TIP3   OH233847   1.620   2.125   7.974 -0.3391  0.0435  0.3199
 4071TIP3    H133848   1.529   2.102   7.955 -0.0844 -0.0821 -0.8044
 4071TIP3    H233849   1.643   2.188   7.905  0.2031  0.6345  1.0264
 4072TIP3   OH233850   1.023   3.359   7.646 -0.2490  0.2427  0.0842
 4072TIP3    H133851   0.942   3.329   7.688 -1.7329  0.9825 -2.0835
 4072TIP3    H233852   0.993   3.402   7.566  2.2952  0.9281 -0.5570
 4073TIP3   OH233853   2.638   5.526   6.959 -0.4556  0.3106  0.1878
 4073TIP3    H133854   2.679   5.612   6.947 -1.2194  0.5106 -1.2216
 4073TIP3    H233855   2.710   5.464   6.952 -0.1962  0.7252 -0.9379
 4074TIP3   OH233856   2.956   6.257   2.672 -0.8914 -0.2160  0.1276
 4074TIP3    H133857   3.031   6.218   2.717 -0.7982 -0.1693  0.0095
 4074TIP3    H233858   2.881   6.235   2.728 -0.5804  1.1671  1.1441
 4075TIP3   OH233859   1.135   5.764   1.856  0.6451 -0.4212 -0.3103
 4075TIP3    H133860   1.040   5.755   1.857  0.6439 -0.3448  0.1041
 4075TIP3    H233861   1.163   5.714   1.779  0.1194  1.0721 -1.5296
 4076TIP3   OH233862   4.071   3.566   2.356  0.1628  0.6729 -0.0205
 4076TIP3    H133863   4.103   3.553   2.445 -0.3910  1.2003  0.2591
 4076TIP3    H233864   4.017   3.488   2.338  0.7194  0.2991 -0.1055
 4077TIP3   OH233865   3.075   3.845   6.419  0.3755 -0.2769  0.4543
 4077TIP3    H133866   3.012   3.784   6.380 -1.2805  0.0781  2.4034
 4077TIP3    H233867   3.145   3.851   6.355 -0.9400 -1.7363 -1.2283
 4078TIP3   OH233868   3.998   3.212   0.634  0.0240  0.7910 -0.4372
 4078TIP3    H133869   4.036   3.165   0.708  0.6562  0.9998 -0.6164
 4078TIP3    H233870   3.950   3.285   0.673  0.0250  0.6734 -0.2161
 4079TIP3   OH233871   6.540   1.793   1.454  0.1471 -0.1219 -0.5510
 4079TIP3    H133872   6.510   1.883   1.442 -1.9449 -0.6424  0.3482
 4079TIP3    H233873   6.620   1.788   1.402  0.9012  2.5228  0.1770
 4080TIP3   OH233874   5.968   0.848   8.425 -0.1287 -0.2169  0.3713
 4080TIP3    H133875   5.974   0.798   8.507 -1.4544 -0.9611  0.0501
 4080TIP3    H233876   5.921   0.790   8.365 -0.7613  1.0089 -0.3607
 4081TIP3   OH233877   3.593   3.004   7.978 -0.2135  0.0061  0.1293
 4081TIP3    H133878   3.512   3.003   7.926 -0.3148 -0.8524  0.2940
 4081TIP3    H233879   3.562   3.014   8.069 -0.1612 -0.6837  0.2272
 4082TIP3   OH233880   3.786   2.764   0.536 -0.1513 -0.3546  0.0101
 4082TIP3    H133881   3.775   2.772   0.631 -0.2916 -0.1773 -0.0195
 4082TIP3    H233882   3.842   2.838   0.512 -0.8010  0.0919 -0.1569
 4083TIP3   OH233883   1.266   4.597   7.076 -0.0267  0.2525  0.2662
 4083TIP3    H133884   1.234   4.509   7.098  0.2026  0.1251  0.0919
 4083TIP3    H233885   1.190   4.641   7.037  0.0286 -0.0785 -0.2269
 4084TIP3   OH233886   5.439   1.364   1.935  0.2791  0.1754  0.4563
 4084TIP3    H133887   5.401   1.352   2.022 -0.0530 -2.0239  0.0628
 4084TIP3    H233888   5.523   1.319   1.939 -1.4443 -3.7485 -1.4092
 4085TIP3   OH233889   1.038   5.576   2.756 -0.2652  0.1724 -0.4059
 4085TIP3    H133890   1.027   5.654   2.702 -1.4041 -0.0127 -0.4543
 4085TIP3    H233891   1.063   5.507   2.694 -0.4130  0.2254 -0.5242
 4086TIP3   OH233892   4.365   3.611   6.906  0.1028  0.2500  0.2977
 4086TIP3    H133893   4.317   3.608   6.823  0.2023  1.9294  0.1465
 4086TIP3    H233894   4.350   3.699   6.940  0.9913 -0.0355  1.5179
 4087TIP3   OH233895   3.935   6.051   1.645  0.6495 -0.1919  0.0726
 4087TIP3    H133896   3.935   5.959   1.620 -0.9023 -0.1562 -0.1397
 4087TIP3    H233897   3.934   6.049   1.741 -1.9901 -0.4846  0.1074
 4088TIP3   OH233898   4.582   1.102   8.181  1.1088 -0.4470  0.1239
 4088TIP3    H133899   4.637   1.179   8.168  0.3867  0.2723  1.1839
 4088TIP3    H233900   4.511   1.132   8.238  0.0504 -1.5547 -0.5497
 4089TIP3   OH233901   2.271   6.412   7.838 -0.0962 -0.8022  0.1698
 4089TIP3    H133902   2.206   6.342   7.832 -2.1234  0.6871  2.4670
 4089TIP3    H233903   2.309   6.401   7.926  0.7232  0.0278 -0.0651
 4090TIP3   OH233904   4.544   3.857   7.549 -0.2617 -0.3240  0.1025
 4090TIP3    H133905   4.449   3.847   7.560 -0.3481  0.4765  0.1032
 4090TIP3    H233906   4.574   3.769   7.525 -0.7155 -1.0793  2.0900
 4091TIP3   OH233907   2.031   3.469   1.718  0.7220  0.4397 -0.2058
 4091TIP3    H133908   2.039   3.556   1.756 -4.3486  2.4400 -2.7898
 4091TIP3    H233909   1.969   3.424   1.774  0.4675 -0.1083 -0.9138
 4092TIP3   OH233910   6.412   6.281   8.443 -0.0527  0.6825 -0.0020
 4092TIP3    H133911   6.324   6.253   8.417  0.1886  0.3158 -0.4412
 4092TIP3    H233912   6.469   6.248   8.373  0.6200 -0.3878  1.0258
 4093TIP3   OH233913   0.773   4.078   6.869 -0.3848 -0.4636 -0.1354
 4093TIP3    H133914   0.688   4.038   6.884 -0.1526 -1.8134 -2.0745
 4093TIP3    H233915   0.776   4.094   6.775  0.7687  1.3670  0.1563
 4094TIP3   OH233916   3.748   4.492   1.026 -0.5320  0.6897 -0.4905
 4094TIP3    H133917   3.807   4.561   1.056 -0.6096  1.2621 -1.5793
 4094TIP3    H233918   3.732   4.438   1.103  1.3109  0.5862 -0.1460
 4095TIP3   OH233919   0.417   6.884   1.849 -0.0913  0.7097  0.2848
 4095TIP3    H133920   0.385   6.810   1.797  0.4109  0.4928  0.2764
 4095TIP3    H233921   0.430   6.849   1.937 -0.2367  0.8915  0.3805
 4096TIP3   OH233922   1.965   0.598   7.404  0.3307 -0.1135 -0.4127
 4096TIP3    H133923   2.023   0.522   7.405  0.5589  0.0543 -0.7353
 4096TIP3    H233924   1.880   0.563   7.375  0.5266 -0.1833 -0.9057
 4097TIP3   OH233925   1.984   4.107   1.060  0.0739 -0.7539  0.0242
 4097TIP3    H133926   1.993   4.199   1.034  0.7170 -0.4233  1.3186
 4097TIP3    H233927   2.065   4.088   1.107  0.0519 -2.0707 -0.4388
 4098TIP3   OH233928   2.386   4.723   2.107  0.2959  0.0386  0.0198
 4098TIP3    H133929   2.395   4.672   2.027 -0.0179  2.1682 -1.4422
 4098TIP3    H233930   2.298   4.703   2.139 -0.2834  0.5320 -1.2088
 4099TIP3   OH233931   3.488   2.913   0.540 -0.1638 -0.1050  0.4979
 4099TIP3    H133932   3.580   2.894   0.521 -0.7219 -1.5634 -0.9160
 4099TIP3    H233933   3.456   2.836   0.586 -0.5799  0.6061  1.4394
 4100TIP3   OH233934   0.274   3.192   8.043 -0.1838  0.0293 -0.0586
 4100TIP3    H133935   0.265   3.287   8.038 -0.3188  0.0646  0.7239
 4100TIP3    H233936   0.257   3.171   8.135 -0.8534 -0.8255 -0.3652
 4101TIP3   OH233937   1.366   4.136   0.988 -0.2067 -0.1232  0.3748
 4101TIP3    H133938   1.279   4.168   0.964  0.3008  0.3930 -0.8683
 4101TIP3    H233939   1.426   4.186   0.932  0.8326 -1.0827  0.5915
 4102TIP3   OH233940   2.178   0.693   7.938 -0.5599  0.9186 -0.6553
 4102TIP3    H133941   2.119   0.738   7.998 -1.2094  0.5441 -0.9986
 4102TIP3    H233942   2.179   0.602   7.969  2.7175  1.5521  1.5966
 4103TIP3   OH233943   4.875   1.278   0.663  0.0544 -0.1049  0.2512
 4103TIP3    H133944   4.871   1.365   0.702 -1.9429 -0.6870  1.4958
 4103TIP3    H233945   4.968   1.256   0.664  0.6018  1.9991 -0.1105
 4104TIP3   OH233946   1.642   2.088   2.471  0.1638  0.1578 -0.0310
 4104TIP3    H133947   1.650   2.053   2.382  1.1726  1.0697 -0.3270
 4104TIP3    H233948   1.660   2.182   2.461 -0.8815  0.4897  0.9654
 4105TIP3   OH233949   1.610   0.400   0.376  0.1583  0.1438 -0.8674
 4105TIP3    H133950   1.694   0.416   0.418  0.6804 -0.1407 -1.7669
 4105TIP3    H233951   1.563   0.483   0.383  0.5039  0.2964 -0.3364
 4106TIP3   OH233952   4.230   4.973   8.322 -0.0060  0.0717 -0.3265
 4106TIP3    H133953   4.225   4.883   8.291 -2.0562  0.3411 -0.9074
 4106TIP3    H233954   4.253   4.965   8.414  0.2289 -1.0180 -0.4634
 4107TIP3   OH233955   4.284   0.637   8.070 -0.0388  0.0394 -0.7168
 4107TIP3    H133956   4.317   0.693   8.140  0.3951  0.2927 -1.1183
 4107TIP3    H233957   4.196   0.614   8.098  0.0322  0.3540 -0.2128
 4108TIP3   OH233958   5.896   1.276   7.854  0.1601 -0.1476  0.2198
 4108TIP3    H133959   5.820   1.227   7.822 -0.8345  1.4978 -0.0854
 4108TIP3    H233960   5.960   1.269   7.783 -1.6887  2.7091 -1.9831
 4109TIP3   OH233961   4.874   4.129   6.559 -0.1500 -0.3042 -0.3330
 4109TIP3    H133962   4.885   4.053   6.502 -0.7033 -0.3286 -0.4203
 4109TIP3    H233963   4.904   4.099   6.645  0.8797 -0.2017 -0.6540
 4110TIP3   OH233964   4.611   0.711   0.831 -0.4469 -0.2540  0.1357
 4110TIP3    H133965   4.682   0.661   0.792  1.1842  1.9886 -0.0042
 4110TIP3    H233966   4.644   0.735   0.918 -1.8753 -0.8164  0.8587
 4111TIP3   OH233967   2.811   6.879   7.940  0.0379 -0.0463  0.2008
 4111TIP3    H133968   2.867   6.954   7.961 -0.7130  0.6026 -0.0518
 4111TIP3    H233969   2.722   6.910   7.957 -0.3824 -0.4338 -1.1724
 4112TIP3   OH233970   2.105   4.466   0.413  0.1274 -0.0643 -0.3307
 4112TIP3    H133971   2.022   4.443   0.372 -0.8469 -1.9954  2.4282
 4112TIP3    H233972   2.151   4.382   0.422  1.2216  0.5877  0.5258
 4113TIP3   OH233973   1.094   5.168   1.771 -0.0177  0.3914 -0.5291
 4113TIP3    H133974   1.060   5.132   1.853  4.7202 -0.5354  1.3444
 4113TIP3    H233975   1.041   5.247   1.756 -2.2819 -0.3865  2.3439
 4114TIP3   OH233976   1.466   2.940   8.159  0.2553  0.1283  0.1572
 4114TIP3    H133977   1.398   2.977   8.214 -0.0640 -1.4179  0.8609
 4114TIP3    H233978   1.439   2.962   8.069 -0.9142 -0.0409  0.4574
 4115TIP3   OH233979   3.863   2.107   0.110  0.3933  0.1232  0.0115
 4115TIP3    H133980   3.907   2.154   0.181 -0.7725 -0.8931  1.4674
 4115TIP3    H233981   3.791   2.060   0.153 -1.8696  1.3517 -2.1599
 4116TIP3   OH233982   5.831   3.583   0.587 -0.6383  0.6138  0.1784
 4116TIP3    H133983   5.868   3.507   0.630 -1.3464 -0.2961 -0.7675
 4116TIP3    H233984   5.821   3.648   0.656  2.7844  0.9888  0.4801
 4117TIP3   OH233985   2.927   6.816   7.332  0.3100  0.4336 -0.7134
 4117TIP3    H133986   2.852   6.816   7.391  1.1219 -0.9271  0.3922
 4117TIP3    H233987   2.975   6.895   7.355  0.1417  0.3830 -0.1619
 4118TIP3   OH233988   4.600   1.399   7.950 -0.4282 -0.1080 -0.2207
 4118TIP3    H133989   4.588   1.493   7.934 -0.2629  0.0069  0.2986
 4118TIP3    H233990   4.648   1.395   8.033 -1.8303 -0.6849  0.5974
 4119TIP3   OH233991   3.057   2.671   6.754 -0.7821 -0.2328 -0.2291
 4119TIP3    H133992   3.000   2.693   6.827 -2.6934  0.5220 -1.8576
 4119TIP3    H233993   3.061   2.750   6.701  0.4691 -0.7880 -1.0241
 4120TIP3   OH233994   1.940   1.777   8.345 -0.2067 -0.0420  0.0640
 4120TIP3    H133995   1.937   1.767   8.250  0.5193  1.0505 -0.0869
 4120TIP3    H233996   1.911   1.867   8.361 -0.5358 -0.2792  0.9028
 4121TIP3   OH233997   5.243   0.016   6.533  0.7133 -0.2953 -0.3891
 4121TIP3    H133998   5.179  -0.053   6.550  0.7785 -0.3001 -0.1593
 4121TIP3    H233999   5.324  -0.032   6.512  0.8638 -0.2873  0.1766
 4122TIP3   OH234000   4.417   6.393   6.548  0.5041  0.0883 -0.0738
 4122TIP3    H134001   4.452   6.325   6.606 -1.7209  0.0518  1.3157
 4122TIP3    H234002   4.444   6.365   6.460  0.0811 -2.3544  0.5002
 4123TIP3   OH234003   0.809   1.300   0.731 -0.4384 -0.0652  0.5150
 4123TIP3    H134004   0.867   1.368   0.697  0.1922 -0.7729  0.1308
 4123TIP3    H234005   0.755   1.275   0.656 -0.7876  0.1262  0.6995
 4124TIP3   OH234006   4.913   6.351   7.426  0.4821 -0.1325  0.4429
 4124TIP3    H134007   4.876   6.413   7.487 -2.0360  0.0737 -1.1757
 4124TIP3    H234008   4.867   6.269   7.443 -1.2573  0.2347 -1.8815
 4125TIP3   OH234009   6.573   2.441   7.724 -0.2395 -0.2374 -0.0398
 4125TIP3    H134010   6.477   2.437   7.726 -0.3738  0.9845 -1.5363
 4125TIP3    H234011   6.594   2.524   7.765  0.0779  0.0898 -0.8397
 4126TIP3   OH234012   6.527   2.098   7.350  0.8878 -0.0762 -0.5691
 4126TIP3    H134013   6.595   2.160   7.377 -0.7087  1.8384 -0.7006
 4126TIP3    H234014   6.523   2.109   7.255  0.4768 -0.2718 -0.5729
 4127TIP3   OH234015   3.888   3.105   7.933  0.8615  0.7185  0.2152
 4127TIP3    H134016   3.829   3.030   7.932  1.7678 -0.0311 -0.6658
 4127TIP3    H234017   3.952   3.085   8.002  1.6021  0.2402 -0.5838
 4128TIP3   OH234018   6.301   0.918   0.880 -0.5194  0.0516  0.4815
 4128TIP3    H134019   6.276   0.871   0.960 -3.1621 -1.3972 -1.0475
 4128TIP3    H234020   6.227   0.976   0.862  0.7230  1.5107 -0.1193
 4129TIP3   OH234021   3.476   5.688   7.565 -0.0774  0.1957  0.4936
 4129TIP3    H134022   3.568   5.674   7.542 -0.8218 -1.5269 -1.7952
 4129TIP3    H234023   3.455   5.773   7.528  0.7143  0.8394  1.4932
 4130TIP3   OH234024   3.218   2.170   0.421 -0.6437 -0.2483 -0.3626
 4130TIP3    H134025   3.199   2.227   0.496 -0.2247  0.1221 -0.5357
 4130TIP3    H234026   3.208   2.228   0.345  1.5359  0.0807 -0.4521
 4131TIP3   OH234027   1.404   1.332   0.324  0.5132 -0.8493 -0.1079
 4131TIP3    H134028   1.428   1.258   0.268 -1.0042 -1.1774 -0.3625
 4131TIP3    H234029   1.441   1.408   0.280 -0.0335 -1.1832 -1.1767
 4132TIP3   OH234030   0.410   0.233   0.202 -0.0883 -0.3825 -0.8620
 4132TIP3    H134031   0.431   0.307   0.146 -1.7186  0.3289 -0.5813
 4132TIP3    H234032   0.321   0.209   0.178  0.4645 -2.4023 -1.0906
 4133TIP3   OH234033   1.015   3.811   7.412  0.0958  0.0178  0.1995
 4133TIP3    H134034   1.109   3.793   7.415  0.0009 -1.0755 -1.7390
 4133TIP3    H234035   1.005   3.872   7.338 -0.9139 -1.5596 -1.0260
 4134TIP3   OH234036   6.159   5.895   0.590  0.1595 -0.5475  0.6901
 4134TIP3    H134037   6.107   5.854   0.520  1.8086  0.5228 -1.2817
 4134TIP3    H234038   6.108   5.973   0.614  0.8178  0.5963 -1.3508
 4135TIP3   OH234039   2.101   3.157   1.042  0.1946  0.0792  0.2087
 4135TIP3    H134040   2.138   3.077   1.004 -0.5037  0.2538 -0.8953
 4135TIP3    H234041   2.148   3.169   1.124  1.4822 -0.5507 -0.4070
 4136TIP3   OH234042   3.196   5.005   6.706 -0.3603 -0.1743  0.5193
 4136TIP3    H134043   3.284   5.014   6.742 -0.3402 -0.7481  0.6244
 4136TIP3    H234044   3.171   5.094   6.681  1.2471 -0.3157 -1.8860
 4137TIP3   OH234045   4.864   4.837   8.384 -0.0444 -0.0234 -0.3052
 4137TIP3    H134046   4.870   4.826   8.479 -0.3353 -0.9464 -0.3766
 4137TIP3    H234047   4.955   4.840   8.355  0.1284 -2.4070 -0.2396
 4138TIP3   OH234048   4.307   0.220   0.803  0.0443  0.0581  0.0442
 4138TIP3    H134049   4.299   0.193   0.894  1.5817 -0.1217  0.1490
 4138TIP3    H234050   4.401   0.221   0.786 -0.2314 -0.6158 -1.7594
 4139TIP3   OH234051   5.511   0.100   7.686 -0.0330  0.3841  0.0954
 4139TIP3    H134052   5.543   0.015   7.717 -1.5136 -0.8805 -1.6698
 4139TIP3    H234053   5.475   0.082   7.599 -0.6266  2.7897 -0.2190
 4140TIP3   OH234054   6.262   1.057   1.446 -0.1471  0.1533  0.3150
 4140TIP3    H134055   6.262   1.087   1.356 -2.2830  0.8809  0.4976
 4140TIP3    H234056   6.334   1.105   1.488 -0.0352  0.8582 -0.6590
 4141TIP3   OH234057   4.349   5.751   1.499  0.1871 -0.2014  0.0454
 4141TIP3    H134058   4.322   5.815   1.433  0.7229  0.0270  0.0435
 4141TIP3    H234059   4.273   5.693   1.509  0.0197 -0.0981 -0.6026
 4142TIP3   OH234060   6.144   0.244   1.131  0.1342  0.7653 -0.4698
 4142TIP3    H134061   6.051   0.223   1.132  0.0234  1.1775 -1.1573
 4142TIP3    H234062   6.180   0.187   1.063  0.9146 -1.4365  1.6679
 4143TIP3   OH234063   3.662   3.328   7.416  0.0846 -0.2998 -0.0001
 4143TIP3    H134064   3.630   3.418   7.418 -0.2009 -0.4060  1.0673
 4143TIP3    H234065   3.696   3.316   7.328 -0.3103  0.7006 -0.2999
 4144TIP3   OH234066   2.963   4.955   0.448  0.1280  0.5150  0.0396
 4144TIP3    H134067   3.055   4.933   0.434 -0.1520 -3.0873  2.5954
 4144TIP3    H234068   2.926   4.956   0.359  2.3843  1.0664 -0.9786
 4145TIP3   OH234069   1.481   6.722   7.784 -0.2102  0.5056 -0.2576
 4145TIP3    H134070   1.494   6.631   7.812  1.6612  0.5900 -0.6900
 4145TIP3    H234071   1.394   6.723   7.745 -1.3227 -0.4945  2.0209
 4146TIP3   OH234072   0.934   4.789   1.714 -0.1275 -0.4637 -0.2624
 4146TIP3    H134073   0.845   4.826   1.711 -0.2840 -0.8300 -0.2171
 4146TIP3    H234074   0.940   4.749   1.800 -0.0957 -0.8739 -0.4559
 4147TIP3   OH234075   1.059   4.792   0.946  0.1647 -0.3406 -0.2511
 4147TIP3    H134076   1.043   4.711   0.897  1.0808 -1.2812  0.9469
 4147TIP3    H234077   1.109   4.764   1.023 -0.1769  1.2710  0.5916
 4148TIP3   OH234078   4.170   1.869   1.739  0.2662 -0.4609  0.4622
 4148TIP3    H134079   4.167   1.822   1.823 -3.1189 -0.0409  0.7169
 4148TIP3    H234080   4.180   1.961   1.763 -0.1275 -0.3928  0.3631
 4149TIP3   OH234081   0.174   5.941   8.135 -0.2093 -0.2220 -0.0816
 4149TIP3    H134082   0.209   5.881   8.069 -0.9772 -0.2095 -0.5041
 4149TIP3    H234083   0.245   6.003   8.150  0.1927 -0.5853 -0.4460
 4150TIP3   OH234084   5.516   2.164   0.089 -0.0859  0.0958  0.1328
 4150TIP3    H134085   5.490   2.079   0.054  1.7936 -0.0491 -1.0941
 4150TIP3    H234086   5.564   2.206   0.016  0.2504  1.6047  1.1708
 4151TIP3   OH234087   0.715   1.519   6.799  0.3035 -0.1556  0.5127
 4151TIP3    H134088   0.654   1.516   6.725  2.0091  1.1308 -1.0275
 4151TIP3    H234089   0.662   1.548   6.873 -1.5530 -1.9052 -0.0546
 4152TIP3   OH234090   6.890   5.150   8.470  0.3386  0.1187 -0.0667
 4152TIP3    H134091   6.920   5.219   8.411 -0.3446 -0.7995 -1.5292
 4152TIP3    H234092   6.795   5.148   8.459  0.2465 -0.3935  0.7144
 4153TIP3   OH234093   6.499   0.537   7.601 -0.1019  0.2792 -0.2757
 4153TIP3    H134094   6.559   0.466   7.578 -0.9700 -0.3225 -0.7105
 4153TIP3    H234095   6.550   0.617   7.586  1.6351 -0.2320  2.3131
 4154TIP3   OH234096   5.666   3.975   7.464 -0.0990  0.6018  0.6732
 4154TIP3    H134097   5.637   4.061   7.494 -0.5539  0.2524  1.2681
 4154TIP3    H234098   5.747   3.992   7.415  0.6058  1.2293  1.9909
 4155TIP3   OH234099   6.793   3.270   8.366 -0.1800  0.0082  0.2948
 4155TIP3    H134100   6.846   3.270   8.287  0.9663  2.1281  0.9923
 4155TIP3    H234101   6.705   3.293   8.337  0.0534 -0.0342 -0.4514
 4156TIP3   OH234102   0.929   5.066   0.048 -0.3386  0.4396 -0.0932
 4156TIP3    H134103   0.870   5.112   0.107 -0.1448  0.8813 -0.2410
 4156TIP3    H234104   1.005   5.124   0.039 -0.0564  0.0595 -0.2192
 4157TIP3   OH234105   3.906   2.792   7.815  0.2609 -0.4865 -0.2690
 4157TIP3    H134106   3.904   2.698   7.797 -1.2529 -0.3464 -1.0059
 4157TIP3    H234107   3.814   2.817   7.820  0.5390  1.4583 -2.8892
 4158TIP3   OH234108   2.406   5.824   1.102  0.3860 -0.2572  0.1160
 4158TIP3    H134109   2.377   5.893   1.162 -2.0625 -2.8546  2.2281
 4158TIP3    H234110   2.474   5.778   1.150 -0.6449 -1.5348  0.4206
 4159TIP3   OH234111   1.789   5.683   8.559 -0.2059 -0.2228  0.1434
 4159TIP3    H134112   1.875   5.644   8.576 -0.0685  0.3592  0.8624
 4159TIP3    H234113   1.730   5.609   8.546  0.5148 -0.6303 -1.0103
 4160TIP3   OH234114   0.310   4.661   8.281  0.5380 -0.0646 -0.0196
 4160TIP3    H134115   0.390   4.610   8.288  0.3850 -0.3705 -0.4372
 4160TIP3    H234116   0.249   4.619   8.342  0.5488 -0.1168 -0.0448
 4161TIP3   OH234117   2.888   1.509   8.301  0.4764  0.4744 -0.1509
 4161TIP3    H134118   2.910   1.578   8.237  0.3493  1.4567  0.8407
 4161TIP3    H234119   2.801   1.479   8.274  0.6234  0.5355 -0.7244
 4162TIP3   OH234120   2.025   3.856   8.524  0.3477 -0.3030 -0.2798
 4162TIP3    H134121   2.083   3.789   8.560  1.5959 -0.1756 -1.9058
 4162TIP3    H234122   2.077   3.936   8.527  0.0085 -0.0424 -1.1617
 4163TIP3   OH234123   1.235   6.053   1.865 -0.2849  0.3157 -0.0243
 4163TIP3    H134124   1.258   6.064   1.957  1.2040  1.3937 -0.4784
 4163TIP3    H234125   1.181   5.974   1.862 -0.6467  0.4592  1.8021
 4164TIP3   OH234126   2.521   2.383   2.817  0.3886  0.0759  0.0947
 4164TIP3    H134127   2.542   2.469   2.782  0.9968 -0.2607 -0.4031
 4164TIP3    H234128   2.431   2.390   2.848  0.3086  0.7807 -0.2830
 4165TIP3   OH234129   0.008   1.521   0.994  0.1826  0.5212  0.0666
 4165TIP3    H134130  -0.036   1.586   0.939 -1.1318  1.7209  2.3639
 4165TIP3    H234131   0.076   1.571   1.039  0.0423  0.0129  0.8606
 4166TIP3   OH234132   2.340   0.512   8.303 -0.6509  0.4381  0.2320
 4166TIP3    H134133   2.366   0.578   8.367  0.4871  0.3701 -0.1426
 4166TIP3    H234134   2.247   0.497   8.320 -0.1631 -0.3252  2.5464
 4167TIP3   OH234135   4.597   0.441   6.556  0.2453  0.5796  0.2704
 4167TIP3    H134136   4.566   0.438   6.646  2.0989  2.9275  1.0874
 4167TIP3    H234137   4.594   0.534   6.532  0.3813  0.0943 -1.9000
 4168TIP3   OH234138   1.684   1.982   0.309  0.1269 -0.0769 -0.1475
 4168TIP3    H134139   1.634   1.924   0.367  0.7608  0.7053  1.2171
 4168TIP3    H234140   1.642   1.971   0.224 -0.6153 -1.5214  0.3638
 4169TIP3   OH234141   5.122   6.333   7.177 -0.2507  0.3946  0.7796
 4169TIP3    H134142   5.204   6.348   7.131 -0.0466  1.4506  1.4572
 4169TIP3    H234143   5.054   6.352   7.112 -0.0321 -2.3244 -0.3856
 4170TIP3   OH234144   3.070   0.352   0.556 -0.0373 -0.5332  0.2341
 4170TIP3    H134145   2.978   0.375   0.548  0.2751  0.3155 -1.6571
 4170TIP3    H234146   3.072   0.277   0.615 -2.0505 -1.2424 -0.5392
 4171TIP3   OH234147   6.748   0.828   2.399 -0.1918 -0.1215 -0.9296
 4171TIP3    H134148   6.681   0.849   2.465  0.1003  0.4783 -0.8195
 4171TIP3    H234149   6.708   0.853   2.316  0.0828  0.7222 -0.8164
 4172TIP3   OH234150   4.238   4.227   8.547 -0.4195 -0.3867 -0.3365
 4172TIP3    H134151   4.321   4.183   8.530  0.6097  0.3647  2.4002
 4172TIP3    H234152   4.260   4.320   8.551 -1.5205 -0.1174 -0.2087
 4173TIP3   OH234153   4.203   6.746   0.211 -0.3485 -0.5555  0.2417
 4173TIP3    H134154   4.264   6.820   0.218 -1.1987  0.0142  2.3750
 4173TIP3    H234155   4.150   6.766   0.134  1.5704 -0.6838 -1.2111
 4174TIP3   OH234156   0.280   3.988   8.616  0.1426 -0.6052  0.2257
 4174TIP3    H134157   0.186   4.006   8.622  0.3256  0.9516 -1.0630
 4174TIP3    H234158   0.285   3.906   8.568 -0.5481 -0.1572 -0.6361
 4175TIP3   OH234159   6.341   3.796   0.692 -0.4217  0.1129  0.5988
 4175TIP3    H134160   6.428   3.755   0.693 -0.7543 -0.6200  0.4650
 4175TIP3    H234161   6.353   3.876   0.642 -0.3264 -1.2113 -1.6477
 4176TIP3   OH234162   0.703   2.224   2.088 -0.9689  0.2059  0.0287
 4176TIP3    H134163   0.651   2.152   2.053  1.5832 -0.2391 -3.3605
 4176TIP3    H234164   0.646   2.301   2.079 -2.0392 -0.6680 -0.9190
 4177TIP3   OH234165   0.461   2.331   7.493  0.6198 -0.5823  0.3822
 4177TIP3    H134166   0.397   2.290   7.435  0.3810  1.9052 -1.2423
 4177TIP3    H234167   0.436   2.302   7.581 -0.7132 -2.2453 -0.4861
 4178TIP3   OH234168   4.577   1.414   7.346 -0.2278  0.4113 -0.3850
 4178TIP3    H134169   4.607   1.326   7.368 -0.2434  0.5161  0.0571
 4178TIP3    H234170   4.481   1.407   7.349 -0.2775  0.1017 -1.6960
 4179TIP3   OH234171   2.445   2.375   7.945  0.3840 -0.6639  0.1006
 4179TIP3    H134172   2.507   2.391   7.874 -1.2914 -1.1510 -1.5512
 4179TIP3    H234173   2.477   2.428   8.017  1.6815  0.5267 -1.2790
 4180TIP3   OH234174   2.528   3.401   1.359  0.0996 -0.6181 -0.2947
 4180TIP3    H134175   2.484   3.482   1.385  0.1828 -0.6040 -0.1931
 4180TIP3    H234176   2.617   3.428   1.337  0.2298 -0.7310  0.0828
 4181TIP3   OH234177   2.265   1.555   7.557 -0.5502 -0.1249  0.5150
 4181TIP3    H134178   2.300   1.626   7.503 -0.8307 -0.4350 -0.0839
 4181TIP3    H234179   2.293   1.475   7.512  0.0289 -0.4057  1.3492
 4182TIP3   OH234180   2.633   4.069   2.018 -0.2683  0.5925 -0.0968
 4182TIP3    H134181   2.593   4.104   2.098  1.1233 -0.1553  0.9545
 4182TIP3    H234182   2.655   4.146   1.966 -2.9586  1.0579 -0.7209
 4183TIP3   OH234183   0.946   1.100   1.981  0.1445 -0.4185 -0.5049
 4183TIP3    H134184   0.921   1.112   2.073  0.7199 -0.3124 -0.3554
 4183TIP3    H234185   0.982   1.012   1.978 -0.0306 -0.4838 -0.6657
 4184TIP3   OH234186   1.102   0.179   1.366  0.4929  0.2664 -0.6317
 4184TIP3    H134187   1.152   0.175   1.447  1.0220 -0.0238 -0.9615
 4184TIP3    H234188   1.019   0.136   1.386  1.8434 -2.9020 -1.0863
 4185TIP3   OH234189   6.758   6.619   8.244 -0.3780 -0.1302  0.1116
 4185TIP3    H134190   6.777   6.541   8.296  0.8154  0.4862  0.6408
 4185TIP3    H234191   6.835   6.629   8.188 -1.4677 -0.5648 -1.5527
 4186TIP3   OH234192   0.114   5.955   7.845 -0.4646  0.5294  0.2091
 4186TIP3    H134193   0.023   5.957   7.875 -0.9007  0.9050 -1.0488
 4186TIP3    H234194   0.128   5.865   7.816 -0.2922  0.3613  0.8117
 4187TIP3   OH234195   6.628   6.274   2.760  0.0852 -0.0906 -0.5582
 4187TIP3    H134196   6.549   6.272   2.705 -1.5343 -0.5377  1.6310
 4187TIP3    H234197   6.657   6.365   2.755 -0.3186 -0.0003 -1.7131
 4188TIP3   OH234198   4.741   5.173   0.863 -0.8022  0.1682  0.3267
 4188TIP3    H134199   4.690   5.236   0.914 -1.6127  0.0309 -0.2992
 4188TIP3    H234200   4.803   5.227   0.814 -0.2387  0.3269  1.1958
 4189TIP3   OH234201   2.086   0.499   0.985 -0.0896 -0.7933 -0.5959
 4189TIP3    H134202   2.016   0.434   0.999  0.0419 -1.1959 -1.7362
 4189TIP3    H234203   2.041   0.574   0.947  0.0293 -0.8772 -0.9002
 4190TIP3   OH234204   0.917   6.665   7.099  0.0888  0.4324  0.0054
 4190TIP3    H134205   0.985   6.611   7.058 -0.2589  0.0791 -0.1091
 4190TIP3    H234206   0.908   6.740   7.042  0.1875  0.3444 -0.1264
 4191TIP3   OH234207   3.597   1.573   1.784 -0.5302 -0.1812 -0.6540
 4191TIP3    H134208   3.649   1.492   1.787  1.5254  1.0392 -1.5195
 4191TIP3    H234209   3.626   1.623   1.860 -1.6963 -0.1551 -0.2028
 4192TIP3   OH234210   5.022   3.326   0.004  0.1651 -0.2886  0.0419
 4192TIP3    H134211   4.957   3.375   0.054  1.7900  0.3165  1.6552
 4192TIP3    H234212   4.974   3.250  -0.030 -1.4573  0.3252  0.8622
 4193TIP3   OH234213   2.120   6.715   7.503 -0.3950  0.1757 -0.1167
 4193TIP3    H134214   2.213   6.710   7.480 -0.2516 -1.0613  0.5977
 4193TIP3    H234215   2.074   6.709   7.419  0.1451 -2.1655 -0.3165
 4194TIP3   OH234216   0.062   2.163   1.163 -0.0566  0.4011 -0.1758
 4194TIP3    H134217  -0.010   2.102   1.145 -0.4336  1.1452 -1.2548
 4194TIP3    H234218   0.114   2.119   1.230 -0.2912 -1.1227 -0.9594
 4195TIP3   OH234219   3.255   3.006   0.143  0.0812  0.4850 -0.4327
 4195TIP3    H134220   3.290   2.922   0.173 -2.6506 -0.0491  1.6765
 4195TIP3    H234221   3.182   2.983   0.087 -2.8268  1.1643  2.7273
 4196TIP3   OH234222   6.093   5.413   8.433 -0.3399  0.0705 -0.4033
 4196TIP3    H134223   6.078   5.400   8.340 -1.1079  0.3623 -0.3295
 4196TIP3    H234224   6.088   5.508   8.445  0.7681  0.1154 -0.2266
 4197TIP3   OH234225   4.361   1.914   8.560 -0.1119  0.2834  0.2880
 4197TIP3    H134226   4.282   1.935   8.610  0.1404 -0.6495  1.1182
 4197TIP3    H234227   4.400   1.999   8.540 -0.2704  0.7026  1.6292
 4198TIP3   OH234228   5.612   6.782   2.618  0.4551 -0.0762 -0.5262
 4198TIP3    H134229   5.662   6.747   2.692  1.2755 -2.4206 -2.0675
 4198TIP3    H234230   5.612   6.711   2.553 -2.4217  0.9310 -1.7888
 4199TIP3   OH234231   6.469   2.812   8.237  0.6954 -0.3924  0.0718
 4199TIP3    H134232   6.402   2.880   8.236  0.7067 -0.3625  0.9548
 4199TIP3    H234233   6.463   2.772   8.150  1.2375  1.2567 -0.7650
 4200TIP3   OH234234   2.814   1.474   7.356  0.1971 -0.4165  0.3744
 4200TIP3    H134235   2.817   1.406   7.289 -2.2069 -2.7365  2.4214
 4200TIP3    H234236   2.738   1.527   7.333 -1.1363 -1.7204  1.6178
 4201TIP3   OH234237   0.830   2.727   1.392 -0.2209  0.3440  0.3356
 4201TIP3    H134238   0.852   2.639   1.423  1.0751  0.0564 -1.2805
 4201TIP3    H234239   0.909   2.758   1.349 -0.9790  1.9225  0.0204
 4202TIP3   OH234240   0.065   3.983   1.944 -0.2272 -0.0300 -0.5974
 4202TIP3    H134241   0.111   3.984   1.860 -0.1386  2.3376 -0.5820
 4202TIP3    H234242   0.133   4.002   2.008 -0.6412  0.0841 -0.1896
 4203TIP3   OH234243   5.619   1.066   1.302 -0.5788  0.6300  0.1274
 4203TIP3    H134244   5.679   1.125   1.349 -0.6046  1.4317 -0.8047
 4203TIP3    H234245   5.596   1.115   1.222 -0.8479 -0.5223 -0.5184
 4204TIP3   OH234246   0.079   0.872   1.681 -0.9196 -0.0243 -0.6095
 4204TIP3    H134247   0.021   0.882   1.606 -2.5197 -1.3207  0.3828
 4204TIP3    H234248   0.030   0.909   1.754 -1.0387 -2.1224  0.4555
 4205TIP3   OH234249   2.774   3.777   0.666 -0.2552  0.3224 -0.1878
 4205TIP3    H134250   2.833   3.711   0.704  0.2811 -0.2273 -1.8941
 4205TIP3    H234251   2.686   3.747   0.690  0.0654  0.2689  1.0027
 4206TIP3   OH234252   3.756   3.086   0.899  0.1365 -0.0128 -0.0710
 4206TIP3    H134253   3.789   3.163   0.945 -0.5368 -0.2452  0.8155
 4206TIP3    H234254   3.702   3.122   0.829  1.3678  0.3445 -0.8678
 4207TIP3   OH234255   5.556   2.307   8.187 -0.2155  0.5533  0.6495
 4207TIP3    H134256   5.608   2.231   8.214 -0.1196 -0.3277 -1.7896
 4207TIP3    H234257   5.562   2.367   8.261  1.6691 -0.8199  1.7057
 4208TIP3   OH234258   4.259   3.379   1.756  0.2259 -0.3033  0.0576
 4208TIP3    H134259   4.205   3.403   1.680 -0.3013 -0.8065  0.2623
 4208TIP3    H234260   4.322   3.316   1.721  1.8329  1.5549 -0.5537
 4209TIP3   OH234261   1.724   3.331   8.158 -0.1173  0.2578  0.3655
 4209TIP3    H134262   1.783   3.360   8.228  0.0099 -1.1853  0.8889
 4209TIP3    H234263   1.723   3.404   8.096  1.8353  0.5216  0.5806
 4210TIP3   OH234264   5.602   0.059   8.232 -0.8868  0.1682 -0.1994
 4210TIP3    H134265   5.603   0.015   8.147  1.1261 -0.1247 -0.0747
 4210TIP3    H234266   5.547   0.136   8.217 -1.9528 -0.7519 -1.2746
 4211TIP3   OH234267   6.770   6.440   1.873 -0.3210  0.2261  0.1075
 4211TIP3    H134268   6.723   6.396   1.944 -1.9720  2.6555  0.6629
 4211TIP3    H234269   6.769   6.532   1.898  1.8514  0.7775 -1.5853
 4212TIP3   OH234270   1.086   3.150   1.940 -0.3496  0.5404 -0.1715
 4212TIP3    H134271   1.158   3.199   1.979 -1.0252 -0.6573  2.8388
 4212TIP3    H234272   1.124   3.065   1.917  0.2371  1.4839 -3.1360
 4213TIP3   OH234273   4.492   2.184   1.212 -0.1581  0.0782 -0.0420
 4213TIP3    H134274   4.431   2.258   1.220  1.2111  1.1703  0.6144
 4213TIP3    H234275   4.578   2.224   1.208  0.5164 -1.4107 -1.7147
 4214TIP3   OH234276   1.685   3.680   6.402  0.1297 -0.1398 -0.8786
 4214TIP3    H134277   1.721   3.722   6.480  0.2314 -0.4215 -0.7707
 4214TIP3    H234278   1.635   3.749   6.358 -0.1833 -0.0594 -0.4005
 4215TIP3   OH234279   5.043   5.450   8.420 -0.0453 -0.0010  0.1011
 4215TIP3    H134280   5.020   5.520   8.481  0.3179 -0.9595  1.3916
 4215TIP3    H234281   5.050   5.371   8.475 -2.5104 -1.5342 -1.5892
 4216TIP3   OH234282   0.114   6.214   1.981  0.1782  1.0866 -0.0570
 4216TIP3    H134283   0.068   6.298   1.991 -2.1561 -0.2427  1.4123
 4216TIP3    H234284   0.113   6.176   2.069  0.8910 -0.6287 -0.7547
 4217TIP3   OH234285   2.839   0.904   6.607 -0.1959  0.5411 -0.1641
 4217TIP3    H134286   2.784   0.827   6.618  0.3806  0.1080 -0.2442
 4217TIP3    H234287   2.779   0.978   6.616 -0.5155  0.1232  1.4100
 4218TIP3   OH234288   4.022   5.503   0.481  0.1532  0.2557  0.5083
 4218TIP3    H134289   3.999   5.546   0.399 -1.4926  0.2793  0.9524
 4218TIP3    H234290   3.991   5.563   0.549 -0.3751 -0.6904  1.1358
 4219TIP3   OH234291   0.351   4.587   1.838 -0.1408 -0.4204  0.6295
 4219TIP3    H134292   0.335   4.493   1.831 -0.5582 -0.2578 -0.8210
 4219TIP3    H234293   0.445   4.596   1.823  0.1390 -0.6955  2.0306
 4220TIP3   OH234294   2.477   6.139   2.261 -0.3327 -0.0251 -0.2694
 4220TIP3    H134295   2.512   6.158   2.348 -1.9006  0.9397  0.1912
 4220TIP3    H234296   2.389   6.104   2.278 -0.3521 -0.6160 -1.4499
 4221TIP3   OH234297   2.604   1.505   7.138 -0.2091 -0.3010  0.2192
 4221TIP3    H134298   2.535   1.454   7.097 -0.7812  0.3366  0.3733
 4221TIP3    H234299   2.685   1.463   7.111 -0.3775  1.4477 -3.5882
 4222TIP3   OH234300   3.379   1.216   7.993 -0.4156  0.3703 -0.3156
 4222TIP3    H134301   3.344   1.208   8.082  1.7110  1.8032  0.7338
 4222TIP3    H234302   3.387   1.310   7.979  1.3728  0.1232 -1.1390
 4223TIP3   OH234303   4.406   2.359   8.605 -0.1133 -0.0607  0.0116
 4223TIP3    H134304   4.379   2.431   8.548 -0.4289  0.3082  0.6171
 4223TIP3    H234305   4.331   2.346   8.664  0.2900 -0.2925  0.4782
 4224TIP3   OH234306   5.408   1.803   6.672  0.2705  0.1813 -0.1089
 4224TIP3    H134307   5.458   1.723   6.687  0.3173  0.1595 -0.3835
 4224TIP3    H234308   5.317   1.775   6.673  0.1678  0.4557  1.9499
 4225TIP3   OH234309   1.708   4.057   1.068  0.2068 -0.0901 -0.1283
 4225TIP3    H134310   1.798   4.070   1.039 -0.1042 -0.2329 -1.1996
 4225TIP3    H234311   1.655   4.074   0.990 -0.6275 -1.2129  0.1768
 4226TIP3   OH234312   0.412   3.971   0.609  0.1969  0.3651  0.4770
 4226TIP3    H134313   0.476   3.912   0.649  1.5732  1.4904  0.0085
 4226TIP3    H234314   0.394   3.933   0.523  0.1522  0.0005  0.6445
 4227TIP3   OH234315   3.148   4.951   2.698 -0.0825 -0.1613  0.1022
 4227TIP3    H134316   3.074   4.896   2.672 -1.7999  1.2898  1.6270
 4227TIP3    H234317   3.166   5.006   2.622  2.5502 -3.4353 -1.9953
 4228TIP3   OH234318   4.048   2.127   7.014  0.5421  0.5122  0.3514
 4228TIP3    H134319   4.051   2.035   6.988 -1.2799  1.3793 -3.6231
 4228TIP3    H234320   4.117   2.169   6.964 -1.4225  1.8725 -1.4205
 4229TIP3   OH234321   3.813   4.217   8.371  0.2881 -0.1990 -0.2380
 4229TIP3    H134322   3.785   4.260   8.291  0.9551 -0.3627 -0.5675
 4229TIP3    H234323   3.742   4.233   8.433 -1.5424 -2.3914 -1.6295
 4230TIP3   OH234324   4.110   6.232   0.735  0.0800 -0.1383 -0.3413
 4230TIP3    H134325   4.103   6.291   0.661  0.7153  0.8233  0.3357
 4230TIP3    H234326   4.026   6.239   0.780  0.9875  2.2265  1.1351
 4231TIP3   OH234327   1.040   0.308   1.115 -0.5258  0.0208 -0.2381
 4231TIP3    H134328   1.128   0.323   1.080  0.1001 -1.6963  0.4584
 4231TIP3    H234329   1.053   0.243   1.185 -2.1993  0.6199  0.6879
 4232TIP3   OH234330   1.165   4.425   1.264 -0.2940 -0.4747 -0.5444
 4232TIP3    H134331   1.076   4.419   1.230 -1.1694 -0.0329  1.5298
 4232TIP3    H234332   1.202   4.502   1.222 -1.2558 -0.0562 -0.6356
 4233TIP3   OH234333   0.329   3.026   7.554  0.1314  1.2242  0.1814
 4233TIP3    H134334   0.381   3.044   7.633 -0.0899  1.0486  0.3695
 4233TIP3    H234335   0.368   3.081   7.487  2.3552 -0.9256 -0.4315
 4234TIP3   OH234336   0.678   3.784   8.010 -0.0245  0.0839 -0.5843
 4234TIP3    H134337   0.619   3.827   8.071 -0.0570 -0.4783 -0.2117
 4234TIP3    H234338   0.668   3.691   8.028 -0.5592 -0.1520 -1.9262
 4235TIP3   OH234339   4.589   5.894   0.288 -0.3018  0.6308  0.2853
 4235TIP3    H134340   4.664   5.953   0.282 -1.4019  2.0379 -0.0373
 4235TIP3    H234341   4.606   5.826   0.222  1.0019  0.5226  0.6996
 4236TIP3   OH234342   0.581   6.438   0.101 -0.0402  0.2928 -0.9756
 4236TIP3    H134343   0.613   6.462   0.189 -4.1392  0.6221  0.6439
 4236TIP3    H234344   0.605   6.512   0.046  2.6307  0.0929 -0.2200
 4237TIP3   OH234345   3.371   5.951   7.688  0.0104 -0.2149  0.1252
 4237TIP3    H134346   3.454   5.961   7.642 -0.5859 -1.2995 -1.2313
 4237TIP3    H234347   3.391   5.890   7.760  0.7480  0.8504  0.8685
 4238TIP3   OH234348   6.637   5.264   1.405 -0.0475 -0.3781  0.5810
 4238TIP3    H134349   6.726   5.257   1.370  1.0400  2.5045  2.4182
 4238TIP3    H234350   6.640   5.213   1.487  1.0655  2.3403  2.3757
 4239TIP3   OH234351   6.123   4.820   2.001  0.4170  0.0691 -0.0300
 4239TIP3    H134352   6.091   4.756   1.938  0.6360 -1.0019  0.9073
 4239TIP3    H234353   6.120   4.775   2.085  1.2106  1.0713  0.5675
 4240TIP3   OH234354   3.144   4.804   1.178 -0.1649  0.2721 -0.0845
 4240TIP3    H134355   3.105   4.841   1.099  2.3336 -1.8570 -2.5219
 4240TIP3    H234356   3.234   4.837   1.178  0.0984 -0.3590  1.4696
 4241TIP3   OH234357   0.601   0.134   0.386 -0.3561  0.1806  0.2114
 4241TIP3    H134358   0.651   0.053   0.384 -0.7322 -0.0407 -0.8467
 4241TIP3    H234359   0.536   0.124   0.316 -1.6565  0.6014  1.3128
 4242TIP3   OH234360   6.182   3.835   1.515  0.2190 -0.7628 -0.1134
 4242TIP3    H134361   6.146   3.878   1.593 -0.8930 -1.8827  0.0264
 4242TIP3    H234362   6.259   3.887   1.493 -1.0776  1.3235 -0.0019
 4243TIP3   OH234363   2.466   1.654   6.950 -0.5859  0.1029 -0.5934
 4243TIP3    H134364   2.504   1.642   6.862  1.5372  0.3116  0.2241
 4243TIP3    H234365   2.527   1.608   7.008 -1.8455  0.1434  0.8075
 4244TIP3   OH234366   4.134   3.658   8.632 -0.0546 -0.9285 -0.5112
 4244TIP3    H134367   4.077   3.683   8.559  1.1736 -0.7163 -1.4156
 4244TIP3    H234368   4.076   3.659   8.709 -1.0625  0.1990 -1.2576
 4245TIP3   OH234369   6.659   1.123   8.228  0.0745  0.3046  0.2534
 4245TIP3    H134370   6.682   1.044   8.277  2.1145  0.7341  0.1034
 4245TIP3    H234371   6.737   1.141   8.175 -1.4734  0.7402 -1.9813
 4246TIP3   OH234372   0.144   4.958   0.225  0.5122  0.0488  0.4339
 4246TIP3    H134373   0.092   4.905   0.164  0.0426 -2.1231  2.5755
 4246TIP3    H234374   0.234   4.936   0.204  0.3426 -1.0310  0.7943
 4247TIP3   OH234375   4.099   3.656   2.105 -0.4325 -0.0957  0.3138
 4247TIP3    H134376   4.127   3.577   2.060  0.0015  0.0867  0.2617
 4247TIP3    H234377   4.107   3.635   2.198  0.8939  0.3077  0.3032
 4248TIP3   OH234378   6.218   1.749   1.090  0.5870 -0.4678 -0.3630
 4248TIP3    H134379   6.244   1.812   1.157  0.6264 -0.3345 -0.5035
 4248TIP3    H234380   6.189   1.803   1.017  1.8545 -0.5919 -0.9839
 4249TIP3   OH234381   5.845   6.057   1.643 -0.2311  0.0102  0.3968
 4249TIP3    H134382   5.801   5.982   1.604 -1.4903  1.9148 -2.1173
 4249TIP3    H234383   5.829   6.048   1.737 -2.8197 -1.3365 -0.0920
 4250TIP3   OH234384   0.345   5.340   8.327 -0.0356  0.2242 -0.4370
 4250TIP3    H134385   0.253   5.363   8.313 -0.8261 -1.9368  0.8273
 4250TIP3    H234386   0.359   5.260   8.276 -0.1607 -1.9639  2.7018
 4251TIP3   OH234387   6.063   3.904   0.904 -0.0199  0.0256  0.3523
 4251TIP3    H134388   5.990   3.860   0.949 -0.4543 -1.5330 -1.6985
 4251TIP3    H234389   6.140   3.879   0.953 -0.6498 -0.0925  1.3078
 4252TIP3   OH234390   0.743   1.747   1.801 -0.1990  0.1674 -0.4100
 4252TIP3    H134391   0.685   1.681   1.839 -2.0615  1.9646  0.0168
 4252TIP3    H234392   0.767   1.711   1.715  0.9163 -2.1579  0.7712
 4253TIP3   OH234393   6.698   2.276   7.995 -0.6110  0.5662 -0.0355
 4253TIP3    H134394   6.742   2.259   7.912  1.3317  0.0998  1.0058
 4253TIP3    H234395   6.760   2.243   8.061 -2.7394 -0.4715  1.5511
 4254TIP3   OH234396   3.988   5.438   2.347  0.0063  0.9013 -0.3115
 4254TIP3    H134397   4.056   5.376   2.375  0.2609  1.0654 -0.5630
 4254TIP3    H234398   3.908   5.385   2.342 -0.1734  0.9760  1.2537
 4255TIP3   OH234399   2.993   3.219   8.012 -0.4514  0.0499  0.0650
 4255TIP3    H134400   3.024   3.159   8.079  0.8869 -2.0164 -2.2186
 4255TIP3    H234401   3.064   3.282   8.000 -0.2455 -0.2196 -0.1310
 4256TIP3   OH234402   5.884   3.023   1.997  0.0873 -0.6179 -0.6058
 4256TIP3    H134403   5.854   2.977   2.075  0.9258  0.5825  0.4684
 4256TIP3    H234404   5.879   3.116   2.021  1.5549 -0.2707 -1.5046
 4257TIP3   OH234405   0.231   4.799   8.614 -0.0498  0.0217  0.5478
 4257TIP3    H134406   0.224   4.891   8.589  0.7868 -0.2750 -0.9231
 4257TIP3    H234407   0.297   4.763   8.554 -2.4925 -2.2047 -1.0509
 4258TIP3   OH234408   3.372   1.556   8.424  0.1525 -0.4289  1.0291
 4258TIP3    H134409   3.442   1.621   8.428 -0.2743  0.1551 -0.4101
 4258TIP3    H234410   3.415   1.473   8.447  1.3452 -0.0985  0.0967
 4259TIP3   OH234411   0.364   5.173   8.061 -0.3328 -0.1266  0.1565
 4259TIP3    H134412   0.273   5.203   8.050 -0.7804 -0.9339  1.4154
 4259TIP3    H234413   0.358   5.105   8.128  1.0233 -1.1368 -0.6954
 4260TIP3   OH234414   4.061   5.034   0.423 -0.1714  0.4565 -0.2539
 4260TIP3    H134415   4.084   4.943   0.441  0.4027  0.6306 -0.0812
 4260TIP3    H234416   4.042   5.036   0.329 -1.0798 -0.0214 -0.0900
 4261TIP3   OH234417   6.907   0.273   0.895 -0.1540  0.5484 -0.3224
 4261TIP3    H134418   6.904   0.368   0.911  1.0191  0.5502 -0.0354
 4261TIP3    H234419   6.996   0.248   0.919 -0.7124 -0.7822  0.4726
 4262TIP3   OH234420   4.654   0.565   8.115 -0.1426 -0.2256 -0.3588
 4262TIP3    H134421   4.686   0.552   8.026  0.5316 -0.2962 -0.1104
 4262TIP3    H234422   4.566   0.601   8.104 -1.2870 -2.9278 -1.0809
 4263TIP3   OH234423   6.267   5.528   8.173  0.1971 -0.6326  0.2021
 4263TIP3    H134424   6.305   5.449   8.135  0.2536 -0.7778  0.5585
 4263TIP3    H234425   6.260   5.509   8.267 -0.0930 -0.3409  0.2430
 4264TIP3   OH234426   3.723   0.427   0.307 -0.4780 -0.5509 -0.0466
 4264TIP3    H134427   3.675   0.500   0.269 -1.3591 -0.6920  0.7752
 4264TIP3    H234428   3.815   0.451   0.296 -0.5251 -1.6128 -4.3252
 4265TIP3   OH234429   2.040   1.701   1.065  0.5186 -0.0682 -0.1741
 4265TIP3    H134430   1.985   1.638   1.017  0.2775  1.1643 -1.5954
 4265TIP3    H234431   1.978   1.752   1.117  0.6705 -0.6747  0.6291
 4266TIP3   OH234432   2.387   6.754   0.157 -0.3754  0.2028 -0.6704
 4266TIP3    H134433   2.444   6.831   0.166  0.9677 -0.5164 -2.2595
 4266TIP3    H234434   2.313   6.786   0.105  0.6173  0.2879 -2.1188
 4267TIP3   OH234435   0.117   3.265   0.212 -0.1199  0.2939  0.5538
 4267TIP3    H134436   0.057   3.288   0.141 -1.5327 -0.0771  1.5856
 4267TIP3    H234437   0.149   3.349   0.245  0.0010  0.4943 -0.0600
 4268TIP3   OH234438   0.712   2.786   8.441  0.4246  0.1470 -0.3294
 4268TIP3    H134439   0.635   2.806   8.494  0.3467 -0.5617 -0.1643
 4268TIP3    H234440   0.695   2.698   8.405  1.7722 -0.6658  0.8970
 4269TIP3   OH234441   4.432   4.201   1.452  0.5475 -0.8478 -0.1487
 4269TIP3    H134442   4.442   4.140   1.526 -1.0586 -2.5873 -1.2846
 4269TIP3    H234443   4.461   4.151   1.376  0.0271  0.1273 -1.0032
 4270TIP3   OH234444   4.866   5.086   7.384  0.4487  0.0172 -0.7310
 4270TIP3    H134445   4.848   5.151   7.316  0.8281  1.5790  0.6105
 4270TIP3    H234446   4.805   5.107   7.454 -0.4841 -2.0636 -0.8280
 4271TIP3   OH234447   5.717   5.095   6.652  0.8810 -0.5677 -0.1292
 4271TIP3    H134448   5.638   5.111   6.704 -0.7291  2.1400 -3.0412
 4271TIP3    H234449   5.697   5.015   6.602  0.5143 -0.6020  0.0685
 4272TIP3   OH234450   0.603   6.463   7.756 -0.0351 -0.4088  0.4373
 4272TIP3    H134451   0.656   6.540   7.773  0.3510 -0.6322  0.2767
 4272TIP3    H234452   0.556   6.483   7.675  1.1540 -0.8863 -0.3981
 4273TIP3   OH234453   2.528   4.563   0.372 -0.2981 -0.0106 -0.3035
 4273TIP3    H134454   2.590   4.520   0.312  2.4028  1.7527  1.0012
 4273TIP3    H234455   2.544   4.521   0.457 -0.4166  0.8892  0.1771
 4274TIP3   OH234456   4.756   2.892   6.382 -0.2704  0.3039  0.0787
 4274TIP3    H134457   4.802   2.831   6.325  0.0618 -0.1176  0.7826
 4274TIP3    H234458   4.750   2.973   6.332 -0.8691 -0.3462 -0.9362
 4275TIP3   OH234459   5.620   5.813   0.062 -0.1577  0.2440 -0.0695
 4275TIP3    H134460   5.623   5.749  -0.009  0.3281 -1.3681  1.3469
 4275TIP3    H234461   5.529   5.843   0.064 -0.8837 -1.8314  0.4095
 4276TIP3   OH234462   1.991   6.489   1.795  0.0999  1.0008  0.4382
 4276TIP3    H134463   1.943   6.515   1.717  0.5707 -1.1471 -0.6291
 4276TIP3    H234464   2.083   6.504   1.774  0.3287 -0.6802  0.0510
 4277TIP3   OH234465   0.160   5.415   0.253  0.3573 -0.6576  0.1542
 4277TIP3    H134466   0.184   5.476   0.323 -0.6036 -1.6008  1.3653
 4277TIP3    H234467   0.209   5.445   0.177  0.1397  1.4441  0.7732
 4278TIP3   OH234468   0.994   0.964   7.781 -0.2041  0.1252 -0.4443
 4278TIP3    H134469   1.079   0.973   7.739 -0.1445 -0.3277 -0.4246
 4278TIP3    H234470   1.013   0.932   7.869 -0.3240  1.1680 -0.0234
 4279TIP3   OH234471   3.419   1.156   6.543  0.2867 -0.3653 -0.0302
 4279TIP3    H134472   3.482   1.084   6.550  0.7377  0.1370  1.3839
 4279TIP3    H234473   3.471   1.235   6.556 -0.5364  0.0910  0.5923
 4280TIP3   OH234474   4.959   1.935   8.273  0.4940  0.0991  0.7880
 4280TIP3    H134475   4.970   1.840   8.284 -0.1496 -0.1420 -0.4019
 4280TIP3    H234476   4.870   1.944   8.238  0.7418  1.0973  0.3849
 4281TIP3   OH234477   3.143   1.366   0.856  0.1270  0.1740  0.5509
 4281TIP3    H134478   3.080   1.416   0.908  0.1073 -1.2208  1.9396
 4281TIP3    H234479   3.161   1.288   0.908  2.2754  0.0637 -0.2508
 4282TIP3   OH234480   6.246   0.833   7.388  0.1260  0.0813  0.7357
 4282TIP3    H134481   6.322   0.887   7.414 -0.8961  0.9279  2.1177
 4282TIP3    H234482   6.235   0.852   7.294  0.7847  1.0354  0.8268
 4283TIP3   OH234483   4.748   4.625   6.506 -0.5961  0.2719 -0.4269
 4283TIP3    H134484   4.714   4.588   6.424 -1.9424  1.7072 -0.5786
 4283TIP3    H234485   4.713   4.569   6.575 -0.2658 -0.3695 -0.7751
 4284TIP3   OH234486   5.745   3.049   8.533 -0.8890  0.1738 -0.3953
 4284TIP3    H134487   5.789   3.114   8.479  0.4204  0.7463  1.2786
 4284TIP3    H234488   5.756   2.966   8.486  0.7444  0.5582 -0.7310
 4285TIP3   OH234489   4.967   2.431   8.074  0.1074  0.0788  0.0717
 4285TIP3    H134490   4.914   2.352   8.083  1.9844 -1.2285  0.0148
 4285TIP3    H234491   4.904   2.503   8.085 -1.3944 -1.3832  1.6799
 4286TIP3   OH234492   4.488   6.304   8.279 -0.2268 -0.2455  1.0988
 4286TIP3    H134493   4.552   6.367   8.311 -0.7842  1.2218 -0.4936
 4286TIP3    H234494   4.407   6.354   8.273 -0.2628 -0.4958 -2.0147
 4287TIP3   OH234495   2.509   0.291   1.159 -0.5123 -0.0063 -0.8076
 4287TIP3    H134496   2.581   0.343   1.122  1.3481 -2.6495 -1.2156
 4287TIP3    H234497   2.518   0.303   1.254  0.1740  0.0769 -0.8740
 4288TIP3   OH234498   5.529   5.901   0.922  0.2134  0.3405  0.9713
 4288TIP3    H134499   5.470   5.955   0.975  0.0607  0.5301  0.6129
 4288TIP3    H234500   5.611   5.900   0.971  0.4570  1.5396  0.6139
 4289TIP3   OH234501   3.198   3.753   1.330  0.6973 -0.1297  0.0749
 4289TIP3    H134502   3.151   3.797   1.401  0.4694 -0.6839  0.2770
 4289TIP3    H234503   3.223   3.823   1.270  0.8041  0.3349  0.6535
 4290TIP3   OH234504   4.830   0.760   6.771 -0.8140  0.3501  0.0926
 4290TIP3    H134505   4.900   0.812   6.811  0.6312 -1.0388 -0.5053
 4290TIP3    H234506   4.750   0.810   6.787 -0.0195  0.9153  2.7587
 4291TIP3   OH234507   6.654   2.047   8.539  0.1219  0.1290 -0.5588
 4291TIP3    H134508   6.605   2.115   8.493  0.1345  0.1974 -0.4718
 4291TIP3    H234509   6.587   1.993   8.582  0.0933 -0.1150 -0.9016
 4292TIP3   OH234510   0.074   4.135   6.741  0.1675  0.0369  0.8175
 4292TIP3    H134511   0.132   4.059   6.739 -0.9338 -0.8117 -0.8867
 4292TIP3    H234512   0.027   4.132   6.657 -0.3846  2.2227  0.9886
 4293TIP3   OH234513   3.745   1.605   7.965 -0.0063 -0.0294 -0.5886
 4293TIP3    H134514   3.674   1.560   7.919 -0.1789 -1.3839  0.8798
 4293TIP3    H234515   3.701   1.671   8.018  0.0891  0.7906 -1.5092
 4294TIP3   OH234516   0.071   0.800   2.251  0.6873 -0.7294 -0.2778
 4294TIP3    H134517  -0.009   0.812   2.302  0.8073  0.2237 -0.3014
 4294TIP3    H234518   0.120   0.733   2.299 -0.1119 -1.3055 -0.2583
 4295TIP3   OH234519   1.644   0.206   8.508  0.1803  0.0997 -0.4663
 4295TIP3    H134520   1.624   0.298   8.491  1.4108  0.3758 -0.5076
 4295TIP3    H234521   1.715   0.185   8.448  0.4892 -0.6241  0.1310
 4296TIP3   OH234522   5.208   6.351   7.465 -0.0932  0.2820  0.0929
 4296TIP3    H134523   5.261   6.417   7.420  0.8259 -0.0328  0.6953
 4296TIP3    H234524   5.124   6.354   7.420  0.3986  0.8603 -0.8237
 4297TIP3   OH234525   5.522   6.785   2.323  0.5374 -0.2170  0.1028
 4297TIP3    H134526   5.512   6.878   2.342  1.1728  0.3195 -1.9945
 4297TIP3    H234527   5.609   6.763   2.358  0.6283  0.1212  0.0951
 4298TIP3   OH234528   6.190   2.878   1.831 -0.7562  0.1354  0.2986
 4298TIP3    H134529   6.112   2.837   1.867 -0.2639  0.2259  1.5129
 4298TIP3    H234530   6.224   2.933   1.903  0.4665  0.0281 -0.1656
 4299TIP3   OH234531   1.307   3.745   7.505  0.0524 -0.1877  0.2699
 4299TIP3    H134532   1.371   3.697   7.453  0.7000  1.3665 -0.4079
 4299TIP3    H234533   1.332   3.728   7.596  1.5181  0.4993  0.0183
 4300TIP3   OH234534   0.025   6.140   0.321  0.3807 -0.4120  0.0062
 4300TIP3    H134535  -0.067   6.164   0.328  0.1966 -1.5286  2.5038
 4300TIP3    H234536   0.032   6.056   0.366  2.6706 -0.1839  0.2276
 4301TIP3   OH234537   4.487   5.429   7.723  0.4077 -0.3405  0.2347
 4301TIP3    H134538   4.392   5.443   7.728  0.1797 -1.7058  0.1024
 4301TIP3    H234539   4.515   5.425   7.815  0.6101  1.5484  0.3000
 4302TIP3   OH234540   3.067   4.906   1.927 -0.2911  0.1000 -0.0919
 4302TIP3    H134541   2.997   4.937   1.984 -1.0791 -1.3508 -0.2208
 4302TIP3    H234542   3.058   4.957   1.847  2.1714  3.7685  1.6561
 4303TIP3   OH234543   6.383   1.139   8.344 -0.2526  0.5394 -0.0795
 4303TIP3    H134544   6.341   1.135   8.258  1.8230 -1.4195 -1.1120
 4303TIP3    H234545   6.473   1.165   8.326  0.3173 -0.2413  1.4496
 4304TIP3   OH234546   1.918   2.414   6.419 -0.3982 -0.7084 -0.3830
 4304TIP3    H134547   1.925   2.507   6.396 -0.6814 -0.2570  1.2554
 4304TIP3    H234548   2.009   2.387   6.436 -0.4234 -0.4547  0.1595
 4305TIP3   OH234549   2.531   2.945   6.760 -0.1409 -0.1019 -0.0975
 4305TIP3    H134550   2.495   2.877   6.703 -1.3315 -0.1822  0.7122
 4305TIP3    H234551   2.490   3.026   6.728  2.9950  0.6919 -2.5516
 4306TIP3   OH234552   4.579   5.337   0.409  0.3837  0.5198 -0.1260
 4306TIP3    H134553   4.560   5.426   0.441  1.0196  0.7176 -0.2912
 4306TIP3    H234554   4.588   5.285   0.489 -0.2092  0.5475 -0.0312
 4307TIP3   OH234555   6.313   5.528   2.403  0.8340 -0.0395  0.2139
 4307TIP3    H134556   6.293   5.546   2.311 -0.6000 -2.3623 -0.0009
 4307TIP3    H234557   6.230   5.540   2.448 -0.1337 -4.7994  0.1489
 4308TIP3   OH234558   4.048   0.317   1.991  0.5465  0.7131  0.2643
 4308TIP3    H134559   4.028   0.285   2.079 -0.1686  0.6268  0.0766
 4308TIP3    H234560   4.085   0.242   1.945  3.4303  1.4070  1.2525
 4309TIP3   OH234561   1.712   4.974   7.922 -0.5482  0.3438 -0.2197
 4309TIP3    H134562   1.799   4.975   7.881 -0.8369 -2.9692 -1.1622
 4309TIP3    H234563   1.730   4.956   8.015 -0.1693  2.7361  0.2460
 4310TIP3   OH234564   3.108   0.867   1.843  0.2112 -0.0970 -0.4682
 4310TIP3    H134565   3.128   0.866   1.937 -0.2382 -1.2578 -0.3693
 4310TIP3    H234566   3.184   0.909   1.803  0.6557 -0.0882  0.3580
 4311TIP3   OH234567   0.109   1.596   2.505  0.7057  0.2674  0.2557
 4311TIP3    H134568   0.130   1.647   2.584  0.4868  0.1822  0.3707
 4311TIP3    H234569   0.187   1.544   2.489 -0.0173 -1.3449  1.6826
 4312TIP3   OH234570   0.121   3.222   6.758 -0.1789  0.2388 -0.1100
 4312TIP3    H134571   0.208   3.223   6.799 -0.1037  2.1105 -0.1995
 4312TIP3    H234572   0.117   3.139   6.711  2.3424  0.8718 -1.6410
 4313TIP3   OH234573   0.427   6.514   7.113  0.5473 -0.4644  0.1373
 4313TIP3    H134574   0.410   6.427   7.147 -2.9577  0.1610  0.3858
 4313TIP3    H234575   0.384   6.573   7.175  2.3312  1.4321 -0.3177
 4314TIP3   OH234576   5.872   3.303   7.702  0.1068 -0.1370  0.1900
 4314TIP3    H134577   5.876   3.241   7.775  0.1826 -1.2062 -0.6936
 4314TIP3    H234578   5.946   3.362   7.716 -1.2640  1.2368  2.2879
 4315TIP3   OH234579   3.456   6.386   1.021  0.1639  0.2686 -0.0510
 4315TIP3    H134580   3.545   6.403   1.051 -0.4154 -0.0207  2.0031
 4315TIP3    H234581   3.419   6.473   1.005  0.6425  0.4092 -0.3910
 4316TIP3   OH234582   4.810   5.642   1.564 -0.1072  0.7506 -0.1042
 4316TIP3    H134583   4.750   5.688   1.505 -1.0800  0.8656  0.9438
 4316TIP3    H234584   4.758   5.569   1.598  0.7954  0.0297 -0.2282
 4317TIP3   OH234585   2.639   1.062   8.639  0.1523  0.6235 -0.2702
 4317TIP3    H134586   2.557   1.104   8.664  1.3261  2.2583  1.1847
 4317TIP3    H234587   2.701   1.135   8.630  1.9141 -0.6521  0.7542
 4318TIP3   OH234588   1.765   6.360   8.185 -0.0024 -0.1876 -0.3497
 4318TIP3    H134589   1.754   6.268   8.205 -0.5839  0.0444  0.4234
 4318TIP3    H234590   1.824   6.361   8.110 -2.3459 -1.3322 -2.3526
 4319TIP3   OH234591   6.863   3.130   6.372 -0.0727  0.3183  0.2547
 4319TIP3    H134592   6.774   3.097   6.358  0.3217 -0.0994 -1.4418
 4319TIP3    H234593   6.910   3.057   6.410 -0.0269 -0.0340 -0.4651
 4320TIP3   OH234594   0.009   1.006   7.081 -0.0829  0.6581 -0.3045
 4320TIP3    H134595  -0.024   1.079   7.133 -0.3990 -0.0789  0.5647
 4320TIP3    H234596   0.094   1.036   7.048  0.6635  0.7571  1.5808
 4321TIP3   OH234597   4.476   4.300   0.269  0.4895 -0.4826 -0.1119
 4321TIP3    H134598   4.499   4.221   0.220 -0.2133 -1.4392  1.0614
 4321TIP3    H234599   4.504   4.283   0.358 -1.1314 -0.0867  0.5111
 4322TIP3   OH234600   5.910   6.327   0.559 -0.3476  0.2537 -0.0832
 4322TIP3    H134601   5.950   6.410   0.531 -0.6779  0.4162 -0.0902
 4322TIP3    H234602   5.827   6.354   0.599 -0.1502 -0.0252  0.5225
 4323TIP3   OH234603   4.182   1.346   6.910 -0.1357 -0.3609  0.1127
 4323TIP3    H134604   4.155   1.433   6.940  0.5753 -0.0364 -0.1646
 4323TIP3    H234605   4.250   1.363   6.846 -0.0217 -1.1294  0.0198
 4324TIP3   OH234606   2.290   3.574   1.567  0.0793  0.3261 -0.2477
 4324TIP3    H134607   2.226   3.504   1.552 -0.2479  0.4177  0.6531
 4324TIP3    H234608   2.307   3.571   1.661  2.3175 -0.4831 -0.6242
 4325TIP3   OH234609   5.058   3.823   6.980  0.1162 -0.5598 -0.0461
 4325TIP3    H134610   5.023   3.842   7.067 -2.3229 -1.8627 -0.6395
 4325TIP3    H234611   5.124   3.755   6.995  1.0289  0.4938  0.9222
 4326TIP3   OH234612   2.774   1.211   7.256  0.7283 -0.8095  0.8048
 4326TIP3    H134613   2.711   1.212   7.184  0.9432 -0.2474  0.6117
 4326TIP3    H234614   2.824   1.130   7.244  0.8470 -0.6563  0.2397
 4327TIP3   OH234615   0.602   0.546   8.646  0.1304 -0.1557  0.2915
 4327TIP3    H134616   0.690   0.539   8.682 -0.6731 -1.3945  2.1670
 4327TIP3    H234617   0.548   0.582   8.717 -1.3532 -1.9327  0.1563
 4328TIP3   OH234618   5.140   5.066   1.469  0.1346  0.3541  1.0980
 4328TIP3    H134619   5.076   5.137   1.459 -1.0631 -0.8718 -0.5379
 4328TIP3    H234620   5.175   5.053   1.381  0.3654 -1.0459  1.3694
 4329TIP3   OH234621   5.698   3.165   0.197  0.2647  0.1801 -0.3563
 4329TIP3    H134622   5.611   3.129   0.184 -0.5899  0.9832  2.4781
 4329TIP3    H234623   5.755   3.089   0.202 -1.1020 -0.7850  2.7783
 4330TIP3   OH234624   1.393   5.760   0.825  0.2233  0.1588 -0.2584
 4330TIP3    H134625   1.357   5.674   0.801 -0.1490  0.7767 -2.0222
 4330TIP3    H234626   1.451   5.783   0.752 -1.1543  2.2352 -0.7662
 4331TIP3   OH234627   2.086   0.327   7.302  0.4196 -0.4819 -0.1990
 4331TIP3    H134628   2.091   0.348   7.209 -0.8246 -0.2191 -0.2165
 4331TIP3    H234629   2.042   0.242   7.305  1.0984 -0.8351  0.1283
 4332TIP3   OH234630   1.292   4.974   8.198  0.1134  0.4013 -1.1125
 4332TIP3    H134631   1.319   5.016   8.116 -0.4067  0.3493 -1.3198
 4332TIP3    H234632   1.353   5.007   8.264  0.4354  0.5720 -1.4919
 4333TIP3   OH234633   4.198   4.607   6.741 -0.5495 -0.4530  0.2071
 4333TIP3    H134634   4.180   4.701   6.736  0.0105 -0.2881  1.0836
 4333TIP3    H234635   4.146   4.569   6.670 -1.1715  0.4568  0.1563
 4334TIP3   OH234636   1.306   2.088   0.068  0.4469  0.4955 -0.5867
 4334TIP3    H134637   1.326   2.180   0.082  0.3648  0.4708 -0.3031
 4334TIP3    H234638   1.391   2.047   0.052  0.6343  0.3977  0.5816
 4335TIP3   OH234639   3.545   1.474   7.833 -1.0921  0.2411 -0.3316
 4335TIP3    H134640   3.451   1.470   7.815 -0.8523 -2.4994 -1.5129
 4335TIP3    H234641   3.579   1.393   7.796  1.4463  0.1741  1.9223
 4336TIP3   OH234642   2.344   0.758   2.599  0.0213 -0.6512 -0.0350
 4336TIP3    H134643   2.421   0.814   2.591 -0.6687  0.2669 -0.5587
 4336TIP3    H234644   2.278   0.800   2.543 -1.6961  0.0668  2.3535
 4337TIP3   OH234645   2.317   1.308   2.402 -0.2137 -0.3434 -0.3097
 4337TIP3    H134646   2.382   1.378   2.398 -0.6605  0.1166  0.1665
 4337TIP3    H234647   2.363   1.230   2.372  0.5999 -0.0574  0.1494
 4338TIP3   OH234648   5.170   5.116   7.303 -0.3265  0.0213 -0.1271
 4338TIP3    H134649   5.117   5.146   7.377 -0.6178  0.1799 -0.4002
 4338TIP3    H234650   5.116   5.133   7.226  0.5301  1.1264 -0.5019
 4339TIP3   OH234651   1.984   0.531   0.605  0.1990  0.2344  0.5736
 4339TIP3    H134652   1.943   0.615   0.626  1.2588  1.4848 -1.9512
 4339TIP3    H234653   1.929   0.494   0.536  1.2506  0.2193 -0.2918
 4340TIP3   OH234654   3.341   4.471   7.998 -0.4529 -0.7870  0.1412
 4340TIP3    H134655   3.247   4.467   7.982 -0.3376 -0.2991 -0.7304
 4340TIP3    H234656   3.369   4.380   8.005 -0.7761 -0.9844 -0.9581
 4341TIP3   OH234657   6.470   3.129   8.519 -0.4919  0.0068 -0.1146
 4341TIP3    H134658   6.474   3.035   8.535 -1.0753  0.2002  1.2108
 4341TIP3    H234659   6.558   3.160   8.540 -0.2631 -0.2443 -0.6688
 4342TIP3   OH234660   6.065   3.214   8.304 -0.0020  0.2081  0.1252
 4342TIP3    H134661   6.145   3.255   8.338 -0.7034  1.0176  0.8161
 4342TIP3    H234662   5.994   3.256   8.351 -0.8285 -0.8505 -0.1315
 4343TIP3   OH234663   3.778   3.779   0.397  0.4271 -0.1813 -0.4091
 4343TIP3    H134664   3.804   3.728   0.321 -1.2245 -1.4258 -0.1779
 4343TIP3    H234665   3.699   3.825   0.370  0.1694 -0.1448  0.3644
 4344TIP3   OH234666   6.109   6.234   8.625  0.2472 -0.0013  0.1169
 4344TIP3    H134667   6.053   6.264   8.696 -0.3744 -1.2301  0.1794
 4344TIP3    H234668   6.154   6.312   8.594  0.6587  0.5399  1.9760
 4345TIP3   OH234669   2.435   6.810   1.571 -0.3033  0.1127  0.0182
 4345TIP3    H134670   2.454   6.878   1.507 -0.3562 -0.1718 -0.2994
 4345TIP3    H234671   2.359   6.843   1.619 -0.6887  0.0177 -0.5204
 4346TIP3   OH234672   5.053   5.175   0.906  0.5039  0.5308  0.0811
 4346TIP3    H134673   5.140   5.165   0.867 -0.1045 -0.1384 -1.1759
 4346TIP3    H234674   5.015   5.087   0.901  0.6160  0.2431  2.8172
 4347TIP3   OH234675   2.708   1.790   8.551 -0.6656  0.1879  0.0040
 4347TIP3    H134676   2.626   1.754   8.585 -0.0960 -0.0458  1.1497
 4347TIP3    H234677   2.761   1.713   8.529  0.2640  0.2641  1.7664
 4348TIP3   OH234678   0.720   2.312   8.526  0.2752  0.1766 -0.6811
 4348TIP3    H134679   0.724   2.406   8.542  0.8737  0.3221 -1.6128
 4348TIP3    H234680   0.633   2.298   8.490 -1.0653 -0.1412  2.3314
 4349TIP3   OH234681   4.055   0.023   1.963  0.3819 -0.3565 -0.0966
 4349TIP3    H134682   4.012   0.063   2.039  0.7839  1.0414 -0.5692
 4349TIP3    H234683   4.148   0.022   1.986  0.7145  1.6051 -1.1890
 4350TIP3   OH234684   6.239   3.143   1.277  0.1100 -0.0767 -0.5832
 4350TIP3    H134685   6.151   3.152   1.241  0.3825  0.1421 -1.2098
 4350TIP3    H234686   6.267   3.055   1.250  0.4628  0.2323 -1.2614
 4351TIP3   OH234687   4.264   5.194   7.948 -0.3122  0.2422  0.2075
 4351TIP3    H134688   4.336   5.146   7.905 -1.9704 -0.7764 -1.5901
 4351TIP3    H234689   4.279   5.286   7.924 -1.0613 -0.2559 -2.5728
 4352TIP3   OH234690   6.460   0.769   1.390 -0.2634  0.0370 -0.0600
 4352TIP3    H134691   6.501   0.855   1.399 -1.2244  0.8784 -2.7289
 4352TIP3    H234692   6.508   0.727   1.318  1.0229 -2.2787  1.9724
 4353TIP3   OH234693   2.395   2.639   0.843 -0.9055 -0.1451 -0.2196
 4353TIP3    H134694   2.355   2.552   0.838 -2.7692  0.7453 -2.7333
 4353TIP3    H234695   2.469   2.634   0.783 -2.5594  0.6193 -2.4839
 4354TIP3   OH234696   2.756   4.538   1.528 -0.2164 -0.4374 -0.6437
 4354TIP3    H134697   2.809   4.579   1.459  0.6429  0.0769  0.2891
 4354TIP3    H234698   2.743   4.607   1.592 -0.7716 -0.9874 -0.1530
 4355TIP3   OH234699   3.587   0.940   8.456  0.5470  0.2340 -0.3317
 4355TIP3    H134700   3.588   0.955   8.362 -2.6773 -0.7047 -0.6473
 4355TIP3    H234701   3.495   0.923   8.477  1.2575 -0.4563  2.8668
 4356TIP3   OH234702   4.943   2.687   0.754 -0.2414 -0.0578  0.2848
 4356TIP3    H134703   4.948   2.593   0.741 -0.6516  0.1681 -1.9466
 4356TIP3    H234704   4.899   2.720   0.675 -1.7087  1.8239  1.7772
 4357TIP3   OH234705   1.985   5.999   0.279  0.4382 -0.6140  0.5514
 4357TIP3    H134706   2.044   6.003   0.204  0.9531 -1.7470  0.8892
 4357TIP3    H234707   1.938   5.916   0.269 -0.7717  0.0498  0.5387
 4358TIP3   OH234708   0.691   0.265   1.425  0.6322 -0.3424 -0.4630
 4358TIP3    H134709   0.632   0.253   1.499 -0.5627  1.1280 -1.1288
 4358TIP3    H234710   0.778   0.274   1.464 -0.0484  1.0459  0.8403
 4359TIP3   OH234711   0.017   2.797   0.416  0.5445  0.3130 -0.1539
 4359TIP3    H134712   0.094   2.822   0.365  0.1723  0.7505 -0.5065
 4359TIP3    H234713   0.020   2.702   0.420  0.2421  0.2277 -1.5213
 4360TIP3   OH234714   0.264   6.312   1.674 -0.0260 -0.0371 -0.2654
 4360TIP3    H134715   0.347   6.321   1.721  1.1187  2.2869 -2.4741
 4360TIP3    H234716   0.289   6.303   1.582 -2.2200 -0.4826 -0.8793
 4361TIP3   OH234717   0.880   1.217   7.128  0.2520 -0.5086  0.4222
 4361TIP3    H134718   0.950   1.278   7.104  0.9177 -1.1452  0.7093
 4361TIP3    H234719   0.800   1.270   7.127  0.9295  0.5864  1.5302
 4362TIP3   OH234720   4.319   5.050   1.365  0.1707  0.7185  0.1505
 4362TIP3    H134721   4.316   5.093   1.450  2.6316  0.7229  0.2799
 4362TIP3    H234722   4.380   5.102   1.313  0.2493 -0.4291 -0.9600
 4363TIP3   OH234723   2.606   2.935   0.520  0.2053  0.1678 -0.1289
 4363TIP3    H134724   2.524   2.886   0.526 -0.1836  0.7783 -0.4231
 4363TIP3    H234725   2.579   3.024   0.500  0.9493  0.3545 -0.3096
 4364TIP3   OH234726   2.210   4.036   7.130 -0.1614  0.1164 -0.7822
 4364TIP3    H134727   2.236   3.958   7.080  2.1073 -0.2860  0.8850
 4364TIP3    H234728   2.203   4.105   7.064 -1.2431 -1.2252 -2.1626
 4365TIP3   OH234729   3.231   4.024   0.315 -0.2783 -0.1419 -0.0651
 4365TIP3    H134730   3.298   4.071   0.363 -3.1822  3.1908  1.0975
 4365TIP3    H234731   3.171   3.990   0.382  0.1691 -3.2262 -1.0410
 4366TIP3   OH234732   6.416   1.835   1.763 -0.5332 -0.3955  0.9777
 4366TIP3    H134733   6.425   1.740   1.773  1.7855 -0.1583  1.8125
 4366TIP3    H234734   6.339   1.857   1.815 -1.1639 -1.8120  0.6940
 4367TIP3   OH234735   5.239   6.783   1.083  0.1918  0.1969 -0.1875
 4367TIP3    H134736   5.155   6.740   1.096  0.5407 -0.8725 -1.2599
 4367TIP3    H234737   5.234   6.819   0.994  0.3729  1.3099  0.2378
 4368TIP3   OH234738   2.274   5.415   2.498  0.1611 -0.3437  0.0640
 4368TIP3    H134739   2.334   5.375   2.561 -0.7305  0.5248  1.5204
 4368TIP3    H234740   2.201   5.446   2.551 -1.3007 -0.8105 -1.5768
 4369TIP3   OH234741   3.551   4.569   0.485 -0.5632 -0.3965 -0.4675
 4369TIP3    H134742   3.610   4.553   0.412 -0.4190  4.5320 -1.7844
 4369TIP3    H234743   3.609   4.583   0.560 -0.1841  1.0171 -0.9867
 4370TIP3   OH234744   0.424   0.758   1.186  0.6042 -0.5845 -0.0473
 4370TIP3    H134745   0.357   0.813   1.147  0.8664  0.5192  0.9979
 4370TIP3    H234746   0.492   0.751   1.118  1.1256  1.4262  0.1892
 4371TIP3   OH234747   2.722   6.538   1.479  0.5463 -0.2638 -0.1552
 4371TIP3    H134748   2.638   6.515   1.439 -0.4428  0.9894  1.1241
 4371TIP3    H234749   2.727   6.484   1.558  1.4185 -1.0366 -0.7169
 4372TIP3   OH234750   0.293   0.138   7.498 -0.2081  0.5459 -0.0081
 4372TIP3    H134751   0.232   0.198   7.541  0.3702  1.6811 -0.7071
 4372TIP3    H234752   0.316   0.182   7.416 -0.2246 -0.9297 -0.8407
 4373TIP3   OH234753   1.177   4.184   7.473  0.2140 -0.5152 -0.1220
 4373TIP3    H134754   1.187   4.275   7.501 -1.5628 -0.6053  0.9613
 4373TIP3    H234755   1.227   4.179   7.391  1.4746  1.0524  0.4784
 4374TIP3   OH234756   5.259   5.114   7.862 -0.0027  0.5700 -0.2117
 4374TIP3    H134757   5.307   5.039   7.828  1.6845  1.3765  0.2686
 4374TIP3    H234758   5.210   5.147   7.786 -1.4997 -1.4906 -0.2163
 4375TIP3   OH234759   5.124   2.374   7.138 -0.0732 -0.2173 -0.8819
 4375TIP3    H134760   5.055   2.432   7.171  0.2614 -0.9021  1.2077
 4375TIP3    H234761   5.078   2.300   7.100 -0.5579 -1.0752  1.2539
 4376TIP3   OH234762   6.651   1.380   7.787 -0.0698 -0.4076  0.2873
 4376TIP3    H134763   6.746   1.374   7.800  0.2409  0.3360 -1.4065
 4376TIP3    H234764   6.614   1.357   7.872  1.5478 -2.6382  0.4661
 4377TIP3   OH234765   0.670   0.128   8.472  0.5779  0.3958 -0.5928
 4377TIP3    H134766   0.669   0.121   8.568  1.1756  2.1887 -0.4052
 4377TIP3    H234767   0.605   0.195   8.453 -0.3155 -0.7152 -1.5576
 4378TIP3   OH234768   4.223   6.888   8.060 -0.0196 -0.8744 -0.1608
 4378TIP3    H134769   4.294   6.915   8.118  0.7825 -1.0887 -1.0233
 4378TIP3    H234770   4.145   6.932   8.095  0.7932  0.5183 -0.0487
 4379TIP3   OH234771   5.435   4.593   1.409  0.2026  0.2617  0.4905
 4379TIP3    H134772   5.395   4.628   1.329 -0.7080 -0.2091  0.7211
 4379TIP3    H234773   5.523   4.568   1.382  0.3352  1.2541 -0.0572
 4380TIP3   OH234774   4.630   0.934   2.176  0.3131  0.4411 -0.5709
 4380TIP3    H134775   4.563   0.942   2.108  0.1992 -0.1229 -0.5252
 4380TIP3    H234776   4.616   1.011   2.232  1.1936  1.5974 -1.8613
 4381TIP3   OH234777   3.233   1.847   2.059 -0.5580 -0.1001 -0.3116
 4381TIP3    H134778   3.294   1.776   2.080 -1.1426 -0.6353 -0.3949
 4381TIP3    H234779   3.159   1.833   2.119 -0.0417  1.3075  0.6980
 4382TIP3   OH234780   0.330   4.074   1.952  0.7309  0.0870 -0.5780
 4382TIP3    H134781   0.398   4.021   1.994 -0.5560 -0.0818  1.4240
 4382TIP3    H234782   0.307   4.026   1.873  0.1433 -2.0294  0.7815
 4383TIP3   OH234783   2.306   5.621   1.379 -0.1943 -1.1578  0.4802
 4383TIP3    H134784   2.341   5.565   1.448  0.5526  0.0091  1.0845
 4383TIP3    H234785   2.372   5.620   1.311  0.4500  0.0119  1.0620
 4384TIP3   OH234786   4.168   6.168   2.160 -0.0798 -0.4288  0.3234
 4384TIP3    H134787   4.240   6.133   2.213  0.4450  0.3294  0.1275
 4384TIP3    H234788   4.110   6.210   2.223  0.2126 -0.0888  0.3678
 4385TIP3   OH234789   0.988   3.674   6.382 -0.0064  0.0266 -0.0326
 4385TIP3    H134790   0.989   3.630   6.466  0.2712 -1.4400 -0.7696
 4385TIP3    H234791   0.902   3.653   6.345  0.4003 -0.5046 -0.6946
 4386TIP3   OH234792   0.906   6.209   8.521  0.8746  0.1432  0.1303
 4386TIP3    H134793   0.832   6.205   8.582  0.3753  0.7268 -0.4203
 4386TIP3    H234794   0.894   6.132   8.465  0.7136  0.2073  0.0763
 4387TIP3   OH234795   4.479   5.196   1.997  0.2645  0.0315  0.2097
 4387TIP3    H134796   4.421   5.210   2.072  1.0704 -1.5151  1.1649
 4387TIP3    H234797   4.488   5.101   1.991  2.9756  0.1998  0.3491
 4388TIP3   OH234798   4.344   5.244   1.133 -0.5266 -0.2072 -0.0842
 4388TIP3    H134799   4.291   5.315   1.170  1.3292  1.8493 -1.0735
 4388TIP3    H234800   4.423   5.243   1.187 -0.3482 -1.2546 -0.3530
 4389TIP3   OH234801   5.644   6.078   0.691  0.3804  0.1267 -0.6682
 4389TIP3    H134802   5.562   6.101   0.734  0.9764  2.2016 -0.5606
 4389TIP3    H234803   5.711   6.128   0.738  1.7208 -1.4230 -0.8280
 4390TIP3   OH234804   5.829   6.613   7.866  0.0709 -0.1982  0.1769
 4390TIP3    H134805   5.844   6.613   7.771  0.5482  0.4547  0.2471
 4390TIP3    H234806   5.911   6.581   7.903  1.2247  2.8120  0.5311
 4391TIP3   OH234807   5.752   6.306   0.280 -0.0187  0.1650 -0.5937
 4391TIP3    H134808   5.658   6.293   0.286 -0.1800  1.3894 -0.0572
 4391TIP3    H234809   5.780   6.317   0.371  0.7595 -0.8743 -0.6899
 4392TIP3   OH234810   0.775   4.645   6.463 -0.1625  0.1635 -0.8222
 4392TIP3    H134811   0.859   4.684   6.440 -1.0059  1.2588 -2.2775
 4392TIP3    H234812   0.796   4.554   6.486  1.3827  0.3436 -1.3987
 4393TIP3   OH234813   3.045   2.683   1.303  0.3403 -0.2399  0.5022
 4393TIP3    H134814   3.098   2.664   1.225 -0.9865 -0.0196 -0.4983
 4393TIP3    H234815   3.001   2.600   1.322 -0.1740 -0.0068  0.3419
 4394TIP3   OH234816   6.707   2.161   7.078 -0.0884 -0.1342 -0.1759
 4394TIP3    H134817   6.733   2.104   7.005 -0.3725 -1.0629  0.4442
 4394TIP3    H234818   6.784   2.164   7.135 -0.0239  0.2314 -0.2765
 4395TIP3   OH234819   6.324   5.165   0.902  0.3594 -0.5441  0.3323
 4395TIP3    H134820   6.408   5.163   0.855  0.1715 -0.5496 -0.0125
 4395TIP3    H234821   6.313   5.076   0.934  0.0821 -0.7656 -0.3605
 4396TIP3   OH234822   1.644   2.881   7.415 -0.0318  0.1556 -0.3064
 4396TIP3    H134823   1.730   2.901   7.378 -0.4710  1.1576 -0.8177
 4396TIP3    H234824   1.614   2.805   7.364  0.5349 -0.1829 -0.1393
 4397TIP3   OH234825   4.244   6.355   5.936 -0.3797 -0.3077 -0.3103
 4397TIP3    H134826   4.280   6.433   5.979  0.3246 -0.7720 -0.0321
 4397TIP3    H234827   4.255   6.285   6.000  2.0946 -1.3653 -1.6958
 4398TIP3   OH234828   2.644   5.302   1.701  0.3316  0.0190 -0.1075
 4398TIP3    H134829   2.653   5.294   1.796  0.5261 -0.1314 -0.1380
 4398TIP3    H234830   2.693   5.382   1.680 -0.7227  0.7344  0.0650
 4399TIP3   OH234831   1.955   0.512   2.162 -0.2905 -0.5908 -0.0008
 4399TIP3    H134832   1.994   0.425   2.157  1.1901 -0.0715  1.4592
 4399TIP3    H234833   2.030   0.572   2.157 -1.1818  0.5744  0.0736
 4400TIP3   OH234834   2.850   0.275   7.659  0.3470  0.3052 -0.1950
 4400TIP3    H134835   2.918   0.214   7.686  1.6908  1.2614 -1.3061
 4400TIP3    H234836   2.830   0.252   7.569 -1.7183 -0.7313  0.4680
 4401TIP3   OH234837   5.454   2.913   1.221  0.2640 -0.0977 -0.2004
 4401TIP3    H134838   5.438   2.860   1.142 -0.4572  0.2044 -0.2646
 4401TIP3    H234839   5.389   2.983   1.216 -0.6647 -0.7961  1.3204
 4402TIP3   OH234840   2.444   0.779   7.935  0.1599  0.6727  0.2542
 4402TIP3    H134841   2.457   0.861   7.982 -1.0024  1.2941 -0.4542
 4402TIP3    H234842   2.350   0.764   7.938  0.3107 -0.4213  0.0033
 4403TIP3   OH234843   0.478   1.624   1.236  0.4708 -0.0483 -0.2347
 4403TIP3    H134844   0.563   1.667   1.221  0.7663 -0.2890  0.6728
 4403TIP3    H234845   0.440   1.672   1.309 -1.7704  2.3186 -2.7302
 4404TIP3   OH234846   5.142   2.994   1.203 -0.4269  0.2360  0.4481
 4404TIP3    H134847   5.122   3.071   1.149 -1.0126 -0.3984 -0.2570
 4404TIP3    H234848   5.100   2.921   1.158 -0.0291 -0.4805  1.2049
 4405TIP3   OH234849   4.346   4.635   7.519  0.1916 -0.3280  0.2075
 4405TIP3    H134850   4.361   4.674   7.605  3.0631 -0.0951 -0.3076
 4405TIP3    H234851   4.378   4.545   7.528 -0.2843 -0.5679 -0.4213
 4406TIP3   OH234852   5.908   2.454   2.182 -0.4567 -0.0872  0.1115
 4406TIP3    H134853   5.916   2.549   2.175  0.1009 -0.1174  0.2610
 4406TIP3    H234854   5.953   2.432   2.263 -1.0779 -0.4247  0.3685
 4407TIP3   OH234855   3.412   4.389   7.119 -0.3838 -1.1497 -0.0421
 4407TIP3    H134856   3.444   4.324   7.056  0.8325  0.3016 -0.9758
 4407TIP3    H234857   3.395   4.467   7.067  0.4387  0.0278  1.3587
 4408TIP3   OH234858   0.676   1.187   1.576  0.0628 -0.1480 -0.0242
 4408TIP3    H134859   0.744   1.152   1.518 -0.9455 -1.2643 -0.5892
 4408TIP3    H234860   0.671   1.124   1.648 -0.2182  0.0434  0.1275
 4409TIP3   OH234861   0.244   4.144   7.312 -0.3374 -0.4476 -0.3328
 4409TIP3    H134862   0.333   4.111   7.325  0.5378  1.2339 -1.6940
 4409TIP3    H234863   0.219   4.114   7.224 -0.4162  0.5713 -0.6636
 4410TIP3   OH234864   4.803   2.640   7.289 -0.0719 -0.0719 -1.1463
 4410TIP3    H134865   4.824   2.589   7.211 -0.5233  1.2307 -2.1414
 4410TIP3    H234866   4.732   2.698   7.261  0.3418  1.0139  0.0004
 4411TIP3   OH234867   5.323   6.036   8.464 -0.1176  0.3575 -0.0297
 4411TIP3    H134868   5.341   6.121   8.425  0.8041  0.0564 -0.2689
 4411TIP3    H234869   5.370   6.036   8.547 -1.4398  0.6940  0.7457
 4412TIP3   OH234870   1.552   4.650   8.653 -0.3668 -0.1118 -0.5625
 4412TIP3    H134871   1.479   4.682   8.599 -0.9133 -1.0371 -0.4009
 4412TIP3    H234872   1.510   4.611   8.730  0.4150  1.7618  0.9068
 4413TIP3   OH234873   5.657   2.492   1.137 -0.1038 -0.1404  0.4302
 4413TIP3    H134874   5.722   2.561   1.148  0.3230 -0.5319  0.4020
 4413TIP3    H234875   5.575   2.532   1.163 -0.4298  1.3894 -2.4888
 4414TIP3   OH234876   5.382   2.450   2.537 -0.8658  0.7329 -0.0684
 4414TIP3    H134877   5.335   2.428   2.457  0.4231 -0.2633 -0.5973
 4414TIP3    H234878   5.386   2.546   2.538  0.3189  0.7546 -1.9837
 4415TIP3   OH234879   2.552   2.058   0.781 -0.2569 -0.2634  0.1374
 4415TIP3    H134880   2.481   1.996   0.797 -1.5098  1.4139  1.5624
 4415TIP3    H234881   2.623   2.029   0.838 -1.2889  0.2573  1.7764
 4416TIP3   OH234882   3.640   6.623   0.114 -0.2869 -0.1231  0.1823
 4416TIP3    H134883   3.671   6.585   0.031 -0.1691  0.2837  0.0391
 4416TIP3    H234884   3.710   6.681   0.142  0.0489 -0.9000  1.0097
 4417TIP3   OH234885   6.269   0.216   1.378 -0.2287  1.2668 -0.0882
 4417TIP3    H134886   6.215   0.142   1.407  2.3549 -0.7955 -0.1370
 4417TIP3    H234887   6.229   0.244   1.296 -2.0707  0.8528  0.6221
 4418TIP3   OH234888   5.307   1.937   1.284  0.0132 -0.0418  0.0266
 4418TIP3    H134889   5.225   1.894   1.309  0.1284 -0.0137  0.4617
 4418TIP3    H234890   5.368   1.864   1.270 -0.1723 -0.0763 -0.6156
 4419TIP3   OH234891   5.256   3.362   0.215  0.6529 -1.0510  0.0740
 4419TIP3    H134892   5.282   3.287   0.270 -1.4855 -1.8015  0.1506
 4419TIP3    H234893   5.161   3.368   0.227  0.6781  1.1977 -0.5796
 4420TIP3   OH234894   4.110   0.545   2.133  0.7908  0.1160 -0.8833
 4420TIP3    H134895   4.100   0.502   2.218  0.5092  1.0809 -0.4154
 4420TIP3    H234896   4.084   0.478   2.069 -1.8974  0.2676 -0.0771
 4421TIP3   OH234897   2.960   5.430   6.400 -0.0916  0.0660 -0.2091
 4421TIP3    H134898   2.882   5.481   6.380 -1.6837 -0.3700  3.9408
 4421TIP3    H234899   2.928   5.340   6.411  0.6942 -0.0018  2.2978
 4422TIP3   OH234900   6.268   1.966   0.564  0.1089  0.1388 -0.7395
 4422TIP3    H134901   6.180   2.003   0.562  0.1240  0.4801  1.6896
 4422TIP3    H234902   6.254   1.872   0.575  0.0110  0.3127  0.7645
 4423TIP3   OH234903   2.286   4.663   1.614 -0.1991  0.1553 -0.4499
 4423TIP3    H134904   2.258   4.745   1.573 -1.3892 -0.3307 -0.6225
 4423TIP3    H234905   2.330   4.615   1.544 -3.4759 -1.3074 -1.6975
 4424TIP3   OH234906   4.505   2.858   6.204 -0.2078  0.0861  0.5120
 4424TIP3    H134907   4.596   2.862   6.233 -0.5604  0.5565  1.6235
 4424TIP3    H234908   4.485   2.948   6.177 -0.5289  0.1457  0.9250
 4425TIP3   OH234909   1.237   3.442   1.312  0.2182  0.1888 -0.3186
 4425TIP3    H134910   1.153   3.436   1.357 -0.7420  0.2634 -2.0151
 4425TIP3    H234911   1.289   3.500   1.367 -1.1960  0.9780  0.2487
 4426TIP3   OH234912   2.356   6.200   0.960  0.7689 -0.0113  0.2050
 4426TIP3    H134913   2.288   6.172   0.900 -0.4949  4.1104 -0.5643
 4426TIP3    H234914   2.315   6.195   1.047  0.2407  0.4386 -0.0178
 4427TIP3   OH234915   6.138   5.736   2.062 -0.0602 -0.3617  0.0323
 4427TIP3    H134916   6.157   5.686   1.983  1.3863 -0.5496  0.4552
 4427TIP3    H234917   6.111   5.822   2.030 -1.0635 -0.9265 -0.6758
 4428TIP3   OH234918   3.928   6.633   7.399  0.4638 -0.4238 -0.0169
 4428TIP3    H134919   3.936   6.575   7.324  2.5844 -0.4297  0.1343
 4428TIP3    H234920   3.932   6.575   7.475 -2.5129 -0.5016  0.1695
 4429TIP3   OH234921   5.436   0.261   8.099  0.3294  0.3389  0.1429
 4429TIP3    H134922   5.361   0.312   8.066 -1.0533 -2.1292 -0.8080
 4429TIP3    H234923   5.431   0.178   8.051  2.6468 -0.5883  1.3828
 4430TIP3   OH234924   3.761   2.543   1.497  0.2031 -0.3942  0.3376
 4430TIP3    H134925   3.722   2.627   1.522  1.6092  0.6708 -0.8995
 4430TIP3    H234926   3.776   2.498   1.581 -1.7288  0.0040  0.9589
 4431TIP3   OH234927   1.767   5.534   1.352  0.0984 -0.4554  0.5341
 4431TIP3    H134928   1.836   5.524   1.287  2.1276  2.1260  2.0954
 4431TIP3    H234929   1.696   5.578   1.306  0.0327 -1.8378 -0.7422
 4432TIP3   OH234930   4.153   5.103   1.972 -0.0116 -0.0329 -0.4720
 4432TIP3    H134931   4.215   5.045   2.015 -0.1358  0.2808  0.1422
 4432TIP3    H234932   4.125   5.054   1.894  1.0118 -0.1640 -0.7738
 4433TIP3   OH234933   2.324   1.710   7.231 -0.2141 -0.3564 -0.3427
 4433TIP3    H134934   2.370   1.700   7.147 -0.1787 -1.7560 -0.1812
 4433TIP3    H234935   2.244   1.660   7.220 -1.2660  1.2514 -0.2728
 4434TIP3   OH234936   4.128   6.430   7.501  0.0850 -0.1197  0.3800
 4434TIP3    H134937   4.166   6.357   7.451 -0.2010  0.2390 -0.3743
 4434TIP3    H234938   4.091   6.388   7.579 -2.3104 -1.1897 -1.2208
 4435TIP3   OH234939   0.373   0.138   0.990 -0.2070  0.4015 -0.1513
 4435TIP3    H134940   0.334   0.065   1.039 -0.4389  0.7012  0.1130
 4435TIP3    H234941   0.381   0.208   1.054  0.1823  0.5537 -0.3619
 4436TIP3   OH234942   5.772   0.070   2.205  0.1877  0.5407 -0.3674
 4436TIP3    H134943   5.781   0.151   2.256 -0.6199  0.1828  0.3756
 4436TIP3    H234944   5.861   0.033   2.204  0.2369  0.5790  0.7689
 4437TIP3   OH234945   4.365   2.707   7.734 -0.3729 -0.3417  0.2200
 4437TIP3    H134946   4.306   2.768   7.778 -0.3918 -1.0587  1.2288
 4437TIP3    H234947   4.449   2.753   7.729 -0.9151  0.5735 -0.9650
 4438TIP3   OH234948   0.228   4.144   7.586 -0.2107  0.6683  0.4915
 4438TIP3    H134949   0.253   4.146   7.494 -2.3559  2.9798 -0.1552
 4438TIP3    H234950   0.280   4.214   7.627 -1.3626  1.6603  0.3340
 4439TIP3   OH234951   3.524   3.329   7.845  0.4949 -0.0342 -0.2224
 4439TIP3    H134952   3.571   3.273   7.783  0.9030 -0.0832  0.1293
 4439TIP3    H234953   3.532   3.285   7.929  1.5932  0.9811  0.2440
 4440TIP3   OH234954   6.721   5.248   7.193  0.0951  0.0695  0.4685
 4440TIP3    H134955   6.698   5.158   7.217 -1.6208  0.2014 -0.5343
 4440TIP3    H234956   6.716   5.250   7.097  4.6220  0.1181  0.0124
 4441TIP3   OH234957   0.301   6.407   8.283 -0.1687  0.2868  0.1198
 4441TIP3    H134958   0.355   6.373   8.354  1.5363  1.0397 -0.7561
 4441TIP3    H234959   0.318   6.347   8.210 -0.8693  0.2771 -0.0402
 4442TIP3   OH234960   5.039   6.002   6.702  0.3461  0.0706  0.6672
 4442TIP3    H134961   4.966   6.063   6.710  1.8803  2.3331 -0.9644
 4442TIP3    H234962   5.087   6.011   6.784 -0.1834  0.0217  0.9837
 4443TIP3   OH234963   0.415   3.031   8.246  0.2449 -0.0473 -0.4630
 4443TIP3    H134964   0.506   3.052   8.264  0.2472 -1.2885  1.1290
 4443TIP3    H234965   0.412   3.017   8.151  1.4720  0.9634 -0.6777
 4444TIP3   OH234966   0.145   3.402   7.659  0.3077  0.7124  0.4603
 4444TIP3    H134967   0.164   3.389   7.567  0.4170 -1.4981  0.7484
 4444TIP3    H234968   0.226   3.435   7.697  1.3449 -1.5454  0.3316
 4445TIP3   OH234969   5.691   4.290   8.383 -0.1606 -0.0431  0.2108
 4445TIP3    H134970   5.705   4.195   8.390  0.7549  0.0312 -0.4531
 4445TIP3    H234971   5.601   4.303   8.412 -0.4777 -1.1875 -0.1935
 4446TIP3   OH234972   2.832   6.875   8.531  0.1507  0.5026  0.3054
 4446TIP3    H134973   2.812   6.812   8.601 -0.3982 -0.2047 -0.4640
 4446TIP3    H234974   2.871   6.822   8.461 -0.9641  0.8764 -0.6331
 4447TIP3   OH234975   1.905   0.390   0.368  0.1542 -0.4638  0.3487
 4447TIP3    H134976   1.923   0.296   0.372 -0.6694 -0.6098  0.8056
 4447TIP3    H234977   1.968   0.423   0.304  0.4736 -1.3184  0.2000
 4448TIP3   OH234978   0.825   6.039   8.325 -0.1410 -0.0925  0.6596
 4448TIP3    H134979   0.795   5.948   8.322  1.4717 -0.6971  1.6664
 4448TIP3    H234980   0.745   6.091   8.312 -1.3098 -1.6264  1.3884
 4449TIP3   OH234981   4.800   3.773   1.063  0.0889  0.2432  0.2423
 4449TIP3    H134982   4.888   3.769   1.101 -0.0108 -0.9827  0.3514
 4449TIP3    H234983   4.749   3.823   1.127  0.6143  0.6879  0.3298
 4450TIP3   OH234984   4.247   4.510   0.459 -0.2201 -0.0784  0.1014
 4450TIP3    H134985   4.320   4.521   0.520  2.8074 -0.9380 -3.0554
 4450TIP3    H234986   4.210   4.424   0.480  0.9638 -0.4962  0.5336
 4451TIP3   OH234987   1.335   3.438   7.568  0.1517  0.6779 -0.3513
 4451TIP3    H134988   1.412   3.383   7.559  1.2350  2.1431 -0.3278
 4451TIP3    H234989   1.284   3.422   7.489 -0.1849 -1.2277  0.1927
 4452TIP3   OH234990   4.419   1.957   7.152  0.6025  0.1056 -0.1583
 4452TIP3    H134991   4.349   1.902   7.116 -0.9253  2.1555 -0.4746
 4452TIP3    H234992   4.431   2.026   7.087  0.9416  1.3473  1.1826
 4453TIP3   OH234993   0.241   1.301   1.300  0.5541  0.0312 -0.0524
 4453TIP3    H134994   0.244   1.216   1.344 -0.9576  0.7464  1.5693
 4453TIP3    H234995   0.286   1.360   1.361 -2.6790  1.3075  1.3468
 4454TIP3   OH234996   6.600   4.089   0.989 -0.0941 -0.2367 -0.3752
 4454TIP3    H134997   6.585   4.179   0.960 -2.1634 -0.7748 -1.1430
 4454TIP3    H234998   6.545   4.080   1.067  0.0328 -0.8847 -0.3607
 4455TIP3   OH234999   4.762   4.498   8.414 -0.1627 -0.2907  0.3878
 4455TIP3    H135000   4.765   4.409   8.447  1.3588 -0.1785  0.6061
 4455TIP3    H235001   4.779   4.553   8.491  0.7096  0.0898 -0.0588
 4456TIP3   OH235002   6.076   4.856   1.692  0.0045  0.1111  0.3158
 4456TIP3    H135003   6.099   4.893   1.607 -0.8259 -1.4040 -0.6178
 4456TIP3    H235004   6.048   4.931   1.744  1.4840  1.1994 -0.3920
 4457TIP3   OH235005   6.568   1.796   0.739 -0.1129 -0.2185 -0.2986
 4457TIP3    H135006   6.605   1.802   0.827  0.0047 -1.6607 -0.2268
 4457TIP3    H235007   6.588   1.880   0.699 -1.3169  0.9974  1.4860
 4458TIP3   OH235008   1.793   2.296   6.869 -0.1199 -0.2989  0.3711
 4458TIP3    H135009   1.856   2.363   6.896  1.2202 -1.0881 -0.6889
 4458TIP3    H235010   1.725   2.346   6.823  0.1319  0.4891  0.8310
 4459TIP3   OH235011   5.403   2.159   1.441 -0.0907  0.0771 -0.0881
 4459TIP3    H135012   5.372   2.093   1.379 -0.1313 -0.1936  0.2171
 4459TIP3    H235013   5.448   2.109   1.508 -1.0859  0.2465  0.7325
 4460TIP3   OH235014   1.945   0.747   0.359 -0.1064  0.1925  0.4013
 4460TIP3    H135015   1.976   0.691   0.287  0.0083 -0.2088  0.7604
 4460TIP3    H235016   1.866   0.789   0.324  0.6485  0.9657 -0.4020
 4461TIP3   OH235017   5.135   4.823   0.452 -0.4121 -0.2010  0.4112
 4461TIP3    H135018   5.225   4.793   0.466 -0.4899  0.0154  1.4420
 4461TIP3    H235019   5.138   4.866   0.367  0.4708 -0.1479  0.4507
 4462TIP3   OH235020   1.225   2.312   1.051  0.5799  0.0929 -0.1189
 4462TIP3    H135021   1.172   2.286   0.975  0.6128 -0.2298 -0.0335
 4462TIP3    H235022   1.235   2.231   1.102 -1.4575  0.7677  1.4787
 4463TIP3   OH235023   1.076   5.301   0.042 -0.1782  0.3203  0.1199
 4463TIP3    H135024   1.005   5.364   0.026 -1.0696 -0.5765  0.4170
 4463TIP3    H235025   1.155   5.355   0.049 -0.4795  1.2020 -2.3003
 4464TIP3   OH235026   4.979   1.443   8.520  0.6856 -0.3790 -0.0116
 4464TIP3    H135027   4.963   1.349   8.520 -1.8441 -0.0242 -0.7087
 4464TIP3    H235028   4.951   1.473   8.606  1.7571 -0.2678  0.3161
 4465TIP3   OH235029   6.871   5.850   1.225 -0.6929 -0.6095 -0.0777
 4465TIP3    H135030   6.819   5.814   1.296 -1.0047 -0.8620 -0.4334
 4465TIP3    H235031   6.836   5.810   1.145  1.0700 -2.0299 -0.2107
 4466TIP3   OH235032   3.326   6.815   8.266 -0.2927  0.7432  0.6977
 4466TIP3    H135033   3.286   6.742   8.314 -2.1985  1.6584  0.5816
 4466TIP3    H235034   3.333   6.885   8.332 -0.2000  1.0555  0.3569
 4467TIP3   OH235035   5.210   1.719   0.923  0.2557  0.3732  0.0636
 4467TIP3    H135036   5.173   1.800   0.957  0.7146  0.0399  1.4172
 4467TIP3    H235037   5.176   1.650   0.981 -0.2082 -0.4314 -1.1213
 4468TIP3   OH235038   6.675   2.012   0.628 -0.5354 -0.1198 -0.4186
 4468TIP3    H135039   6.762   2.032   0.663 -0.5506  1.9375 -1.3990
 4468TIP3    H235040   6.622   2.088   0.650 -2.6719 -2.0333  1.6938
 4469TIP3   OH235041   2.247   5.732   0.865  0.6778 -0.5656  0.2817
 4469TIP3    H135042   2.172   5.793   0.861  1.1730  0.0180 -0.5501
 4469TIP3    H235043   2.288   5.750   0.949  1.9212  1.6505 -0.7086
 4470TIP3   OH235044   3.096   3.690   7.693  0.1319  0.0572 -0.1893
 4470TIP3    H135045   3.058   3.617   7.644 -1.3493  1.5157 -1.3313
 4470TIP3    H235046   3.128   3.650   7.773 -0.3815 -1.8925 -0.8826
 4471TIP3   OH235047   3.887   2.941   1.982 -0.4253 -0.1135  0.1103
 4471TIP3    H135048   3.854   3.014   2.034 -1.8606 -1.4366  1.1248
 4471TIP3    H235049   3.834   2.943   1.902 -0.7631 -0.3095  0.3295
 4472TIP3   OH235050   5.659   1.960   1.224 -0.8471  0.3426 -0.4958
 4472TIP3    H135051   5.631   1.919   1.306  1.4712 -1.1855 -0.3609
 4472TIP3    H235052   5.652   2.054   1.240 -0.8239  0.0653  1.3444
 4473TIP3   OH235053   0.124   5.791   0.655 -0.1189  0.1089  0.2374
 4473TIP3    H135054   0.188   5.857   0.630 -0.5930  0.4753 -0.0389
 4473TIP3    H235055   0.147   5.767   0.745  0.0090  0.7158  0.3679
 4474TIP3   OH235056   2.936   4.134   7.545 -0.2245  0.0942 -0.6866
 4474TIP3    H135057   2.876   4.172   7.481 -1.8997 -1.1292  0.0757
 4474TIP3    H235058   2.946   4.043   7.517 -1.2289 -0.5387  0.9208
 4475TIP3   OH235059   1.880   0.604   1.382  0.0950 -0.1322 -0.3112
 4475TIP3    H135060   1.841   0.675   1.434 -1.1608 -2.9282  2.9928
 4475TIP3    H235061   1.971   0.600   1.411  0.1408  0.0466 -0.4283
 4476TIP3   OH235062   2.678   4.083   0.199  0.0634  0.1345  0.3533
 4476TIP3    H135063   2.741   4.062   0.268  0.2402 -0.2670  0.0762
 4476TIP3    H235064   2.612   4.014   0.205  1.0424 -0.9808 -1.0508
 4477TIP3   OH235065   2.257   6.308   2.090  0.0530 -0.1550 -0.2505
 4477TIP3    H135066   2.262   6.232   2.148 -0.6727  0.8469  1.1822
 4477TIP3    H235067   2.165   6.310   2.062  0.0754  0.1741 -0.3041
 4478TIP3   OH235068   3.714   5.257   8.663 -1.1429  0.1126  0.1290
 4478TIP3    H135069   3.642   5.214   8.616 -0.5876 -1.9379  1.0235
 4478TIP3    H235070   3.788   5.198   8.652  0.3156  1.9439 -0.3711
 4479TIP3   OH235071   4.475   4.382   8.087 -0.4323  0.0434  0.0370
 4479TIP3    H135072   4.383   4.361   8.070 -0.5402  0.8480 -0.4231
 4479TIP3    H235073   4.498   4.445   8.020  0.0943  0.8199  0.9204
 4480TIP3   OH235074   2.370   6.547   1.354 -0.1342 -0.1981  0.1042
 4480TIP3    H135075   2.436   6.482   1.377 -2.2099 -2.3204  0.5379
 4480TIP3    H235076   2.320   6.560   1.434 -0.6046  0.9177 -0.3427
 4481TIP3   OH235077   2.950   1.253   1.909  0.3316 -0.3417  0.4583
 4481TIP3    H135078   2.953   1.331   1.853 -0.6342 -0.9595 -0.5078
 4481TIP3    H235079   3.041   1.227   1.920  0.5937  0.3467 -0.0584
 4482TIP3   OH235080   0.091   0.866   8.030  0.0875 -0.0736 -0.3251
 4482TIP3    H135081   0.010   0.831   8.066  0.2835 -0.5003 -0.2890
 4482TIP3    H235082   0.149   0.873   8.106 -0.1422  0.9080 -0.2266
 4483TIP3   OH235083   5.060   3.768   0.126 -0.1094 -0.2603  0.0810
 4483TIP3    H135084   5.014   3.799   0.204  0.1111 -1.2726  0.6251
 4483TIP3    H235085   5.008   3.693   0.095  0.4840 -0.6372 -0.0175
 4484TIP3   OH235086   4.534   4.218   1.790 -0.0131  0.6845 -0.3175
 4484TIP3    H135087   4.491   4.301   1.813 -0.5490  0.1141  0.8245
 4484TIP3    H235088   4.544   4.173   1.874  1.1757  0.0134 -0.8114
 4485TIP3   OH235089   2.792   5.660   1.149 -0.1985 -0.2401  0.1791
 4485TIP3    H135090   2.810   5.607   1.227  2.1365 -0.7083 -0.5920
 4485TIP3    H235091   2.809   5.750   1.177  0.7746 -0.4189  0.2124
 4486TIP3   OH235092   5.339   6.487   0.329 -0.0639 -0.1708  0.6601
 4486TIP3    H135093   5.305   6.559   0.382 -3.9639  1.2339 -3.1784
 4486TIP3    H235094   5.283   6.413   0.350 -2.1480  0.5991 -1.7070
 4487TIP3   OH235095   5.599   6.641   2.088 -0.2032 -0.2268  0.2525
 4487TIP3    H135096   5.582   6.704   2.158 -0.2108  1.0486 -0.8601
 4487TIP3    H235097   5.695   6.639   2.080 -0.2558  0.9741 -0.8640
 4488TIP3   OH235098   0.239   6.698   7.885 -0.8037  0.0250 -0.0017
 4488TIP3    H135099   0.258   6.634   7.816 -0.2089  1.7969 -1.5415
 4488TIP3    H235100   0.324   6.722   7.920 -1.0039  0.1499  0.4043
 4489TIP3   OH235101   4.663   6.869   8.277 -0.4988 -0.4144  0.3097
 4489TIP3    H135102   4.738   6.811   8.264 -0.0672  0.3367 -0.6894
 4489TIP3    H235103   4.681   6.912   8.361  1.1093  1.0207 -0.6873
 4490TIP3   OH235104   5.149   5.747   1.285 -0.1633 -0.5461 -0.0681
 4490TIP3    H135105   5.176   5.734   1.194 -2.7494 -1.4848 -0.7992
 4490TIP3    H235106   5.125   5.840   1.289  0.9722 -0.2395 -0.0077
 4491TIP3   OH235107   3.450   5.784   7.932 -0.3543 -0.3255  0.2887
 4491TIP3    H135108   3.526   5.841   7.925 -0.4693 -0.2232 -0.1253
 4491TIP3    H235109   3.445   5.761   8.025 -1.0994  1.4244  0.7109
 4492TIP3   OH235110   6.541   1.445   0.653  0.0811 -0.2588  0.2272
 4492TIP3    H135111   6.464   1.406   0.611  0.9549 -2.1020  0.2191
 4492TIP3    H235112   6.511   1.529   0.686 -1.7500 -0.6285 -0.3944
 4493TIP3   OH235113   5.600   0.343   7.693 -0.5373  0.4191 -0.0381
 4493TIP3    H135114   5.682   0.328   7.645 -1.0634 -0.2009 -0.7602
 4493TIP3    H235115   5.563   0.255   7.705 -0.6839  0.6172  1.0349
 4494TIP3   OH235116   3.109   2.641   0.076  0.8493 -0.4345 -0.4130
 4494TIP3    H135117   3.144   2.598  -0.002  0.2498  0.2959 -1.0923
 4494TIP3    H235118   3.027   2.681   0.047  0.2431 -0.7730  0.7665
 4495TIP3   OH235119   3.822   2.418   1.739  0.6681  0.4763 -0.5003
 4495TIP3    H135120   3.898   2.434   1.796  0.4442 -1.3886  0.3921
 4495TIP3    H235121   3.813   2.323   1.737 -0.4631  0.5697 -2.2098
 4496TIP3   OH235122   1.130   2.378   6.841 -0.2638  0.0443  0.1683
 4496TIP3    H135123   1.183   2.416   6.911 -1.0791  0.0798  0.7908
 4496TIP3    H235124   1.190   2.368   6.768  0.6303 -0.0388  0.8915
 4497TIP3   OH235125   3.987   0.356   1.680 -0.4403  0.7643 -0.0573
 4497TIP3    H135126   3.907   0.311   1.706  0.3165  0.3119  1.5970
 4497TIP3    H235127   3.996   0.428   1.742 -0.5742  2.0184 -1.4436
 4498TIP3   OH235128   3.126   6.104   0.620  0.0383 -0.2232  0.0676
 4498TIP3    H135129   3.151   6.012   0.615  2.8421  0.4575 -0.3063
 4498TIP3    H235130   3.206   6.149   0.646 -1.2483  2.1303  0.2326
 4499TIP3   OH235131   6.802   0.157   0.262 -0.6617 -0.4526 -0.4135
 4499TIP3    H135132   6.803   0.179   0.169 -0.9431 -0.3603 -0.3950
 4499TIP3    H235133   6.839   0.234   0.305  0.4170 -0.8908 -0.5276
 4500TIP3   OH235134   2.034   1.889   6.841 -0.3526  0.0792 -0.9859
 4500TIP3    H135135   2.121   1.868   6.809 -0.6424 -0.8099 -1.2354
 4500TIP3    H235136   2.031   1.853   6.930 -0.6571 -0.4223 -1.1961
 4501TIP3   OH235137   1.990   4.181   0.387 -0.1883 -0.1088 -0.4370
 4501TIP3    H135138   1.979   4.221   0.301  0.7666 -0.6550 -0.8316
 4501TIP3    H235139   2.042   4.102   0.371 -0.3012 -0.4172  0.5903
 4502TIP3   OH235140   5.270   2.307   1.064  0.0885  0.1939 -0.5506
 4502TIP3    H135141   5.205   2.316   0.994 -0.9880 -1.5189  0.1560
 4502TIP3    H235142   5.221   2.267   1.136  1.7559 -0.3801  0.2990
 4503TIP3   OH235143   4.795   5.992   0.917  0.6569  0.1427 -0.6259
 4503TIP3    H135144   4.823   6.043   0.842 -0.7259 -0.5179 -1.6443
 4503TIP3    H235145   4.709   5.957   0.892  0.3749 -0.5022  1.0643
 4504TIP3   OH235146   0.244   1.632   1.096  0.6910  0.3301  0.3585
 4504TIP3    H135147   0.206   1.641   1.184 -0.8687  1.1235 -0.3621
 4504TIP3    H235148   0.335   1.607   1.112  0.7012  1.3816  2.2237
 4505TIP3   OH235149   2.524   3.663   0.651  0.2220 -0.7254  0.5263
 4505TIP3    H135150   2.456   3.626   0.706 -1.7204 -0.2837 -1.4274
 4505TIP3    H235151   2.513   3.619   0.566  2.8901 -1.1724  0.3084
 4506TIP3   OH235152   5.827   0.652   2.283 -0.6401 -0.3736 -0.5081
 4506TIP3    H135153   5.921   0.665   2.275 -0.4601 -0.4947  1.1130
 4506TIP3    H235154   5.811   0.651   2.378 -2.2004 -0.8427 -0.7557
 4507TIP3   OH235155   4.214   1.488   7.673  0.1244  0.2606 -0.0139
 4507TIP3    H135156   4.141   1.432   7.647  2.5627 -3.6085  0.6449
 4507TIP3    H235157   4.248   1.523   7.591 -1.8625  1.4660 -0.3940
 4508TIP3   OH235158   1.653   2.335   7.751  0.1632 -0.4808 -0.4924
 4508TIP3    H135159   1.700   2.416   7.735 -0.4429 -0.1961 -0.8598
 4508TIP3    H235160   1.699   2.270   7.698 -0.2523 -0.0700 -1.3783
 4509TIP3   OH235161   0.748   6.793   7.503  0.4189  0.1764 -0.6460
 4509TIP3    H135162   0.669   6.846   7.511 -1.3333 -2.1444 -1.5296
 4509TIP3    H235163   0.770   6.769   7.593  0.8965  1.8089 -0.2836
 4510TIP3   OH235164   3.301   2.486   8.589 -0.0947 -0.1771 -0.3077
 4510TIP3    H135165   3.323   2.515   8.501 -3.4373 -1.1729 -1.6229
 4510TIP3    H235166   3.307   2.390   8.585  0.2715 -0.2101  0.7285
 4511TIP3   OH235167   6.042   4.714   8.384  0.2438 -0.2921 -0.0799
 4511TIP3    H135168   6.118   4.656   8.379  0.5016  0.1005 -1.3048
 4511TIP3    H235169   5.969   4.662   8.349 -0.1312 -0.7604  1.3498
 4512TIP3   OH235170   0.321   3.580   1.172 -0.0630  0.5187 -0.2517
 4512TIP3    H135171   0.239   3.584   1.221 -0.5289  0.2923 -1.0070
 4512TIP3    H235172   0.387   3.560   1.238 -0.6787  0.2567  0.2937
 4513TIP3   OH235173   5.389   3.140   2.162 -0.2952  0.3501 -0.1227
 4513TIP3    H135174   5.378   3.222   2.114 -3.2765  1.0923  1.5491
 4513TIP3    H235175   5.483   3.135   2.181  0.7789  0.8676 -4.2858
 4514TIP3   OH235176   5.132   1.748   7.168  0.2018 -0.8863 -0.0668
 4514TIP3    H135177   5.173   1.834   7.178 -0.5265 -0.6866  1.5293
 4514TIP3    H235178   5.204   1.686   7.179  0.6473 -0.5121 -0.7536
 4515TIP3   OH235179   0.111   3.913   7.642  0.0281 -0.1466 -0.1427
 4515TIP3    H135180   0.189   3.869   7.676 -0.6693 -1.9853 -0.7822
 4515TIP3    H235181   0.138   4.003   7.626  2.3340 -0.9918 -1.3727
 4516TIP3   OH235182   2.414   3.505   1.097  0.1606  0.3250  0.0228
 4516TIP3    H135183   2.458   3.531   1.178  2.4924 -0.5989 -0.8605
 4516TIP3    H235184   2.437   3.574   1.034  0.5650 -0.2692 -0.5000
 4517TIP3   OH235185   0.531   1.223   1.850  0.1585 -0.0378  0.1280
 4517TIP3    H135186   0.542   1.317   1.833 -0.3469  0.2232  1.1811
 4517TIP3    H235187   0.440   1.214   1.876  0.0721 -0.9093 -0.4677
 4518TIP3   OH235188   1.492   0.265   0.688 -0.8558 -0.1902  0.4339
 4518TIP3    H135189   1.531   0.241   0.604 -0.3309  1.5525  0.1507
 4518TIP3    H235190   1.557   0.240   0.753 -1.1484 -1.2922  0.3222
 4519TIP3   OH235191   2.940   2.643   2.244 -0.4598 -0.4142 -0.3816
 4519TIP3    H135192   2.895   2.570   2.201  1.8034 -1.5131 -1.0238
 4519TIP3    H235193   2.974   2.696   2.172  0.9609 -0.7267  0.0324
 4520TIP3   OH235194   2.977   1.697   7.273 -0.1721  0.5172  0.4580
 4520TIP3    H135195   2.952   1.637   7.342  0.1082  0.3239  0.3945
 4520TIP3    H235196   3.011   1.641   7.203 -0.4135  0.7125  0.1822
 4521TIP3   OH235197   1.045   0.985   2.238  0.5193 -0.0183 -0.2593
 4521TIP3    H135198   1.101   1.004   2.313  0.7166 -1.1877 -0.0859
 4521TIP3    H235199   0.970   1.044   2.248  1.0581  0.5921  0.2593
 4522TIP3   OH235200   1.586   6.550   7.067 -0.3008 -0.0350  0.4369
 4522TIP3    H135201   1.570   6.462   7.101 -0.8493  0.3384  1.1728
 4522TIP3    H235202   1.498   6.588   7.058 -0.2758 -0.3741 -2.1459
 4523TIP3   OH235203   1.747   3.071   0.184 -0.1617 -0.9117 -0.1851
 4523TIP3    H135204   1.794   3.139   0.134 -0.5009 -0.4730  0.0871
 4523TIP3    H235205   1.814   3.005   0.202  0.1117 -0.7767 -0.6807
 4524TIP3   OH235206   3.602   5.296   0.524  0.0534 -0.6630 -0.5240
 4524TIP3    H135207   3.584   5.202   0.519  1.7914 -1.0710  0.0388
 4524TIP3    H235208   3.677   5.303   0.583  0.6941  0.9675 -1.4534
 4525TIP3   OH235209   5.263   1.010   0.854 -0.3254  0.1917  0.4009
 4525TIP3    H135210   5.311   1.001   0.771 -3.3016 -3.8784 -1.2413
 4525TIP3    H235211   5.331   1.005   0.921  1.9458 -0.2006 -1.7461
 4526TIP3   OH235212   6.111   4.862   8.614 -0.3882 -0.8102 -0.2320
 4526TIP3    H135213   6.079   4.820   8.534 -0.0389 -1.7287  0.1021
 4526TIP3    H235214   6.200   4.890   8.592 -0.4959 -0.5410 -0.3390
 4527TIP3   OH235215   0.797   3.140   0.185 -0.1314  0.4990 -0.7320
 4527TIP3    H135216   0.882   3.174   0.158 -0.7509  1.5842 -1.3815
 4527TIP3    H235217   0.798   3.143   0.280  0.9730 -0.5734 -0.6910
 4528TIP3   OH235218   6.134   0.833   0.154 -0.5226 -0.4102 -0.5550
 4528TIP3    H135219   6.211   0.781   0.130  0.0718  1.2158 -2.4551
 4528TIP3    H235220   6.060   0.786   0.115 -0.3918 -1.4002  0.3425
 4529TIP3   OH235221   0.188   3.827   8.187  0.4150  0.2478 -0.0460
 4529TIP3    H135222   0.145   3.827   8.102 -1.6262 -0.9927  0.8826
 4529TIP3    H235223   0.272   3.869   8.173  0.3770 -0.4427 -2.7817
 4530TIP3   OH235224   0.343   5.949   0.600 -0.2674 -0.4757  0.2073
 4530TIP3    H135225   0.420   5.993   0.637  2.0193 -3.8132 -0.1351
 4530TIP3    H235226   0.366   5.931   0.509 -2.4658  0.4311 -0.5891
 4531TIP3   OH235227   0.339   6.822   0.331 -0.1402  0.3204 -0.6875
 4531TIP3    H135228   0.248   6.847   0.347  0.1615  1.3894 -0.5379
 4531TIP3    H235229   0.390   6.879   0.389  0.5697 -1.1743  0.2020
 4532TIP3   OH235230   1.751   2.138   8.212 -0.4901  0.1221  0.2450
 4532TIP3    H135231   1.837   2.115   8.178 -0.6072 -0.1011  0.0951
 4532TIP3    H235232   1.693   2.132   8.136 -1.0889 -2.1789  0.7976
 4533TIP3   OH235233   2.377   3.480   0.803 -0.3698  0.3125 -0.7124
 4533TIP3    H135234   2.291   3.447   0.828 -0.6550  0.0920 -1.9367
 4533TIP3    H235235   2.411   3.414   0.742  0.6698  0.4000 -0.2536
 4534TIP3   OH235236   1.590   2.528   1.338 -0.1697  0.2556  0.0095
 4534TIP3    H135237   1.535   2.606   1.340 -0.4871  0.0226  0.5725
 4534TIP3    H235238   1.532   2.456   1.363  0.5661  0.1259  1.4611
 4535TIP3   OH235239   0.652   3.330   0.721 -0.2059 -0.1549 -0.9463
 4535TIP3    H135240   0.737   3.373   0.707  0.3387 -1.0593 -0.4687
 4535TIP3    H235241   0.640   3.330   0.816 -0.1884 -1.0635 -0.9345
 4536TIP3   OH235242   4.793   3.496   0.357 -0.2628  0.0177  0.5810
 4536TIP3    H135243   4.707   3.538   0.354 -0.2333  0.1291  1.1809
 4536TIP3    H235244   4.801   3.465   0.447  0.5783  0.5423  0.6868
 4537TIP3   OH235245   0.746   6.177   7.662  0.2786  0.5076 -0.2916
 4537TIP3    H135246   0.809   6.207   7.728 -2.2709  0.7636  2.2133
 4537TIP3    H235247   0.732   6.084   7.682 -2.1484  1.0988  1.0761
 4538TIP3   OH235248   6.881   3.194   6.988  0.3750 -0.0504  0.5208
 4538TIP3    H135249   6.870   3.099   6.994  1.4545 -0.2160  0.1350
 4538TIP3    H235250   6.925   3.207   6.904 -2.3829  1.0435 -0.9096
 4539TIP3   OH235251   0.792   3.225   7.770  0.4968  0.8095  0.3851
 4539TIP3    H135252   0.752   3.186   7.848  2.8714 -0.6374  0.9850
 4539TIP3    H235253   0.819   3.149   7.718  0.0752  1.7567 -1.2657
 4540TIP3   OH235254   2.367   4.093   0.261  0.3242  0.6084  0.3752
 4540TIP3    H135255   2.327   4.036   0.195 -1.6647  1.0342  1.1355
 4540TIP3    H235256   2.418   4.156   0.210 -0.8918  0.7247 -0.7672
 4541TIP3   OH235257   1.948   1.313   0.244 -0.1297 -0.5043  0.1085
 4541TIP3    H135258   1.955   1.317   0.149 -0.7160 -1.2487  0.0304
 4541TIP3    H235259   1.861   1.277   0.261 -0.0000 -0.4594  0.9258
 4542TIP3   OH235260   0.401   1.882   6.930 -0.4183  0.6806  0.1497
 4542TIP3    H135261   0.471   1.879   6.865 -0.7095 -0.3315 -0.1441
 4542TIP3    H235262   0.357   1.966   6.914  1.4282  1.9114  1.1400
 4543TIP3   OH235263   4.031   0.814   8.248 -0.0984  0.3813 -0.0088
 4543TIP3    H135264   3.967   0.885   8.257 -0.5495  0.1849 -1.3948
 4543TIP3    H235265   4.101   0.837   8.308 -1.8161  0.1886  2.1665
 4544TIP3   OH235266   1.437   2.772   0.264 -0.4304  0.5092 -0.3760
 4544TIP3    H135267   1.497   2.728   0.203  0.0369  1.0121 -0.2944
 4544TIP3    H235268   1.495   2.813   0.329 -0.9018  0.4080  0.1119
 4545TIP3   OH235269   1.114   1.730   8.430  0.1271 -0.5375 -0.3856
 4545TIP3    H135270   1.105   1.792   8.502 -0.3309 -2.3380  1.1988
 4545TIP3    H235271   1.072   1.650   8.462  0.1813 -1.5062 -2.5553
 4546TIP3   OH235272   0.913   4.242   7.108 -0.6297  0.6164  0.2117
 4546TIP3    H135273   0.860   4.197   7.174  0.0778 -1.6528 -0.6760
 4546TIP3    H235274   0.866   4.228   7.026  1.0257 -1.1238 -0.5317
 4547TIP3   OH235275   5.919   2.164   1.194 -0.4809  0.7120 -0.1035
 4547TIP3    H135276   5.854   2.210   1.247  1.1225  0.4738  2.2347
 4547TIP3    H235277   5.931   2.080   1.239  1.4370  0.7746 -0.4072
 4548TIP3   OH235278   1.907   0.847   7.304  0.0133  0.6056  0.0348
 4548TIP3    H135279   1.867   0.911   7.363 -0.8324  0.5544 -0.4601
 4548TIP3    H235280   1.915   0.767   7.356  0.5798  0.9546  0.4960
 4549TIP3   OH235281   3.896   0.594   8.162  0.3128 -0.7870 -0.3393
 4549TIP3    H135282   3.840   0.584   8.239 -0.8332 -1.8658 -1.2713
 4549TIP3    H235283   3.960   0.661   8.187 -0.1308 -0.9968  1.4744
 4550TIP3   OH235284   2.406   6.387   0.398  0.2048  0.2505 -0.2310
 4550TIP3    H135285   2.488   6.426   0.368 -0.5274 -0.4534 -3.6447
 4550TIP3    H235286   2.338   6.441   0.357 -0.9786 -0.4819  0.7195
 4551TIP3   OH235287   6.240   0.140   2.206  0.0558  0.5131  0.0944
 4551TIP3    H135288   6.296   0.147   2.128  0.5401 -0.0971  0.3752
 4551TIP3    H235289   6.291   0.182   2.275 -0.5173  1.3466  0.0119
 4552TIP3   OH235290   2.690   6.573   8.186  0.4415 -0.2915  0.0479
 4552TIP3    H135291   2.670   6.520   8.109  1.3515  0.0406 -0.4281
 4552TIP3    H235292   2.785   6.569   8.193  0.4014  0.1056  0.8575
 4553TIP3   OH235293   2.890   2.477   1.347  0.6962  1.0467 -0.4411
 4553TIP3    H135294   2.810   2.488   1.297  0.3197 -0.2493 -0.1678
 4553TIP3    H235295   2.861   2.471   1.438  0.8516 -1.3073 -0.4799
 4554TIP3   OH235296   0.430   5.964   7.362  0.0683 -0.0216  0.5073
 4554TIP3    H135297   0.405   6.045   7.407 -0.0244  0.2966 -0.1071
 4554TIP3    H235298   0.513   5.985   7.319  0.2808 -0.3976  0.7250
 4555TIP3   OH235299   3.104   6.138   8.037 -0.1198 -0.2005  0.5331
 4555TIP3    H135300   3.114   6.111   8.129  1.0900 -1.0674  0.1603
 4555TIP3    H235301   3.189   6.175   8.014 -1.0078  1.8280  0.3178
 4556TIP3   OH235302   5.595   0.533   1.215  0.5115 -0.1301 -0.2940
 4556TIP3    H135303   5.601   0.628   1.224  0.9999 -0.2313  0.5641
 4556TIP3    H235304   5.655   0.512   1.144  0.7670  0.1568 -0.1652
 4557TIP3   OH235305   3.051   4.609   1.721 -0.4991 -0.6461 -0.0427
 4557TIP3    H135306   3.045   4.513   1.725 -0.1839 -0.6587  0.0771
 4557TIP3    H235307   3.039   4.637   1.811  0.6406 -0.6372  0.1169
 4558TIP3   OH235308   6.061   3.726   8.293 -0.6457  0.2847  0.3078
 4558TIP3    H135309   6.006   3.786   8.244  0.7221  0.2944 -1.3419
 4558TIP3    H235310   6.010   3.702   8.370 -1.6177  2.7581  0.5027
 4559TIP3   OH235311   6.124   6.716   7.287 -0.2717 -0.2277  0.4133
 4559TIP3    H135312   6.171   6.636   7.311  0.8034 -0.1864 -1.3165
 4559TIP3    H235313   6.037   6.687   7.260  0.7257 -1.1519 -2.0949
 4560TIP3   OH235314   4.231   5.544   0.681 -0.1221  0.6520 -0.4339
 4560TIP3    H135315   4.183   5.483   0.624  0.3994  0.5509 -0.7723
 4560TIP3    H235316   4.298   5.582   0.624  1.1043 -0.2328  0.3640
 4561TIP3   OH235317   1.281   1.272   6.740  0.2223  0.7506  0.1790
 4561TIP3    H135318   1.222   1.219   6.687  0.2575  1.9549 -1.1254
 4561TIP3    H235319   1.256   1.253   6.831 -1.9790  1.0193 -0.3204
 4562TIP3   OH235320   6.581   0.793   7.488 -0.7521  0.2813 -0.4786
 4562TIP3    H135321   6.653   0.767   7.430 -1.0004  0.0240 -0.6729
 4562TIP3    H235322   6.581   0.889   7.484 -0.3971  0.2847 -0.4482
 4563TIP3   OH235323   4.149   2.909   1.051  0.1493  0.9774  0.5900
 4563TIP3    H135324   4.167   2.843   0.984  0.0951  1.3090  0.2475
 4563TIP3    H235325   4.135   2.858   1.131 -1.1719  0.4716  0.0751
 4564TIP3   OH235326   2.235   2.724   1.435 -0.5906  0.3845 -0.5457
 4564TIP3    H135327   2.274   2.748   1.520  1.3057  0.7300 -1.4599
 4564TIP3    H235328   2.171   2.657   1.457 -0.1478  0.4580  1.1713
 4565TIP3   OH235329   4.773   0.016   1.533  0.0438  0.4038 -0.4734
 4565TIP3    H135330   4.726  -0.063   1.560  0.1782  0.5498  0.2140
 4565TIP3    H235331   4.841  -0.015   1.474  1.5823 -0.3241  1.5410
 4566TIP3   OH235332   5.336   5.864   2.386  0.2205 -0.0319 -0.0073
 4566TIP3    H135333   5.290   5.948   2.384  2.6694  1.4732  1.3516
 4566TIP3    H235334   5.306   5.822   2.466  0.9556  0.8274  0.7411
 4567TIP3   OH235335   1.068   4.682   0.350 -0.2664  0.1388  0.3945
 4567TIP3    H135336   1.057   4.744   0.277  1.8317 -0.7593 -0.7673
 4567TIP3    H235337   1.006   4.611   0.330 -2.5234  1.6313  1.6178
 4568TIP3   OH235338   2.729   4.780   0.362 -0.0456 -0.0057 -0.8521
 4568TIP3    H135339   2.663   4.712   0.374  0.0666  0.1440  0.7469
 4568TIP3    H235340   2.700   4.852   0.418  0.0616  1.1257 -2.1990
 4569TIP3   OH235341   2.092   0.934   2.798  0.3468 -0.0402 -0.6154
 4569TIP3    H135342   2.133   0.866   2.851 -1.7460 -1.9072 -1.2429
 4569TIP3    H235343   2.163   0.967   2.742  1.9333 -0.0277  1.3096
 4570TIP3   OH235344   6.737   4.005   2.076  0.0959  0.2813 -0.1541
 4570TIP3    H135345   6.814   4.025   2.022  0.0579 -0.5934 -0.5438
 4570TIP3    H235346   6.768   4.017   2.166  0.7441 -0.1994 -0.3014
 4571TIP3   OH235347   1.616   1.231   6.540 -0.2788 -0.2567 -0.1362
 4571TIP3    H135348   1.644   1.161   6.481  3.7407  0.2390  0.9066
 4571TIP3    H235349   1.638   1.198   6.628 -2.3050  0.6659  0.7793
 4572TIP3   OH235350   1.466   3.406   8.237 -0.2835 -0.0162 -0.2552
 4572TIP3    H135351   1.550   3.372   8.206 -0.2937 -0.1641 -0.1228
 4572TIP3    H235352   1.430   3.453   8.163  0.2408  0.6432 -0.1031
 4573TIP3   OH235353   4.860   0.290   0.545 -0.0403  0.5229 -0.2007
 4573TIP3    H135354   4.838   0.253   0.460 -1.4974  0.0659  0.3466
 4573TIP3    H235355   4.912   0.222   0.589 -0.1610  0.3453 -0.3341
 4574TIP3   OH235356   5.745   5.016   7.808  0.0539  0.1502 -0.6317
 4574TIP3    H135357   5.738   5.103   7.769  0.4346  0.8532  0.7871
 4574TIP3    H235358   5.661   4.974   7.788 -0.4638  1.1486 -0.6404
 4575TIP3   OH235359   4.133   2.187   8.088  0.1761 -0.0137  0.1326
 4575TIP3    H135360   4.086   2.109   8.118  0.7710  0.1693  1.6592
 4575TIP3    H235361   4.100   2.203   8.000 -2.2734 -0.1678  0.9327
 4576TIP3   OH235362   0.905   3.501   0.665  0.4936  0.1156  0.0557
 4576TIP3    H135363   0.985   3.449   0.669  0.3320 -0.3679 -1.8171
 4576TIP3    H235364   0.926   3.572   0.605 -0.5548 -0.1925 -0.7054
 4577TIP3   OH235365   0.628   5.226   7.685  0.2722 -0.2537 -0.0637
 4577TIP3    H135366   0.561   5.201   7.622  0.7480 -0.8068 -0.3552
 4577TIP3    H235367   0.603   5.314   7.713 -0.5405 -0.4275 -0.2109
 4578TIP3   OH235368   0.236   5.634   1.475  0.9899  0.5449 -0.9222
 4578TIP3    H135369   0.256   5.717   1.432  2.3726  0.4946 -0.4522
 4578TIP3    H235370   0.268   5.568   1.414 -1.1925  0.2808 -1.8378
 4579TIP3   OH235371   3.665   3.132   8.475 -0.3442  0.2053 -0.3195
 4579TIP3    H135372   3.581   3.159   8.510  0.2270  1.4873  0.1337
 4579TIP3    H235373   3.728   3.192   8.515  1.0078 -1.7385  0.6341
 4580TIP3   OH235374   2.784   2.302   8.635 -0.5575 -0.0268  0.0305
 4580TIP3    H135375   2.856   2.323   8.694  0.3019 -0.0817 -0.9717
 4580TIP3    H235376   2.789   2.207   8.624 -1.4004 -0.1675  0.7067
 4581TIP3   OH235377   6.706   3.215   8.639  0.3208 -0.4476  0.6165
 4581TIP3    H135378   6.702   3.286   8.703 -2.1917 -0.4393  0.5524
 4581TIP3    H235379   6.753   3.252   8.565 -3.6430  2.4757 -0.7939
 4582TIP3   OH235380   6.901   6.455   7.601  0.4841 -0.0661  0.4133
 4582TIP3    H135381   6.985   6.499   7.586 -0.1139  1.4254  1.2204
 4582TIP3    H235382   6.900   6.439   7.695 -0.0474 -0.2447  0.3754
 4583TIP3   OH235383   6.680   2.717   0.692 -0.5030  0.4467 -0.4581
 4583TIP3    H135384   6.723   2.801   0.674 -0.7194  0.6064 -0.2451
 4583TIP3    H235385   6.600   2.741   0.739 -1.0548  0.1825 -1.2585
 4584TIP3   OH235386   4.558   6.547   6.299 -0.3791  0.5332  0.3454
 4584TIP3    H135387   4.506   6.472   6.271 -0.5952  0.6703  0.3722
 4584TIP3    H235388   4.604   6.517   6.377  0.6559 -0.0242 -0.4554
 4585TIP3   OH235389   6.029   5.480   0.713 -0.1703  0.4787 -0.4700
 4585TIP3    H135390   6.040   5.515   0.624 -2.3895  1.2530 -0.4984
 4585TIP3    H235391   6.048   5.387   0.705 -2.8671 -0.0264 -2.4078
 4586TIP3   OH235392   3.367   5.258   0.357  0.0255  0.0346 -0.0937
 4586TIP3    H135393   3.425   5.296   0.422  1.3342 -1.5077 -0.2840
 4586TIP3    H235394   3.426   5.220   0.292 -1.2037 -0.9035 -0.7033
 4587TIP3   OH235395   6.005   3.484   6.368  0.3788  0.3270  0.4574
 4587TIP3    H135396   6.046   3.561   6.407 -0.2970  0.6044  0.6493
 4587TIP3    H235397   5.958   3.518   6.291  0.8471 -0.0486 -0.0025
 4588TIP3   OH235398   3.811   5.376   0.940  0.1364  0.3802 -0.1133
 4588TIP3    H135399   3.824   5.413   0.853 -0.0791  1.3536  0.2569
 4588TIP3    H235400   3.780   5.449   0.993  0.2295 -0.2069  0.7757
 4589TIP3   OH235401   6.753   6.416   8.639  0.1868 -0.5589 -0.5958
 4589TIP3    H135402   6.780   6.409   8.547 -0.4241  1.3025 -0.9636
 4589TIP3    H235403   6.658   6.420   8.636  0.2009  0.7347 -0.0200
 4590TIP3   OH235404   3.944   3.978   8.260  0.2133 -0.8369  0.0101
 4590TIP3    H135405   3.889   3.965   8.183  0.0732  0.0397 -0.0503
 4590TIP3    H235406   3.895   4.042   8.313  0.6765 -0.8428  0.4527
 4591TIP3   OH235407   5.898   5.897   0.106  0.0400  0.3492 -0.2744
 4591TIP3    H135408   5.912   5.957   0.033  1.1701  0.7423  0.2402
 4591TIP3    H235409   5.806   5.873   0.100 -0.2180  1.4503 -1.0116
 4592TIP3   OH235410   3.423   6.686   7.918  0.1870  0.3202 -0.5442
 4592TIP3    H135411   3.349   6.662   7.973  0.2753  1.4151  0.1045
 4592TIP3    H235412   3.411   6.637   7.837 -1.3652  0.6606 -0.5445
 4593TIP3   OH235413   5.910   0.374   8.474 -0.2289  0.1379  0.3208
 4593TIP3    H135414   5.874   0.385   8.562 -1.6681 -0.4131 -0.1647
 4593TIP3    H235415   5.885   0.285   8.449  0.1676  0.2848 -0.6426
 4594TIP3   OH235416   3.475   2.122   1.454  0.6124  0.0055  0.0032
 4594TIP3    H135417   3.407   2.076   1.406  1.7229 -0.5219 -1.1109
 4594TIP3    H235418   3.429   2.193   1.499 -0.9465 -1.4496  0.8193
 4595TIP3   OH235419   3.455   0.498   7.094  0.0641  0.2400 -0.4701
 4595TIP3    H135420   3.469   0.568   7.029  0.6450 -0.8148 -1.5252
 4595TIP3    H235421   3.481   0.418   7.049 -2.0357 -0.8917  0.1755
 4596TIP3   OH235422   5.265   6.775   7.281 -0.2905 -0.1103  0.2005
 4596TIP3    H135423   5.171   6.778   7.297 -0.3749 -1.9715  0.2056
 4596TIP3    H235424   5.298   6.710   7.343  0.6748 -1.0338 -1.2214
 4597TIP3   OH235425   5.623   5.077   0.003  0.3135 -0.2640 -0.4019
 4597TIP3    H135426   5.589   5.094  -0.085 -0.9328 -0.6303 -0.0109
 4597TIP3    H235427   5.680   5.001  -0.008  1.8469  0.9384 -1.2420
 4598TIP3   OH235428   1.039   6.669   1.754 -0.5261  0.3682 -0.3310
 4598TIP3    H135429   1.019   6.576   1.764  2.0980 -0.3714 -0.9129
 4598TIP3    H235430   0.959   6.708   1.720 -2.2972 -1.2889  1.7075
 4599TIP3   OH235431   5.199   2.485   8.251 -0.3338  0.8738  0.2697
 4599TIP3    H135432   5.120   2.464   8.201 -1.3007 -0.1066  2.0902
 4599TIP3    H235433   5.222   2.403   8.295 -0.6061  2.0834  2.8259
 4600TIP3   OH235434   3.003   6.237   0.117 -0.5674  0.2222 -0.5388
 4600TIP3    H135435   3.060   6.175   0.162 -0.2707  0.5859 -0.4050
 4600TIP3    H235436   3.047   6.322   0.128 -1.5960  0.6517  0.3556
 4601TIP3   OH235437   1.328   6.509   0.861 -0.4668  0.0647 -0.7481
 4601TIP3    H135438   1.285   6.464   0.935 -0.9434  1.5894 -0.0502
 4601TIP3    H235439   1.264   6.503   0.790 -1.6053  1.6612  0.0634
 4602TIP3   OH235440   2.036   4.109   1.972 -0.0388 -0.0110 -0.0799
 4602TIP3    H135441   2.090   4.160   2.032  2.3789 -0.7947 -1.4450
 4602TIP3    H235442   1.995   4.043   2.028  1.5779 -0.2763  0.8757
 4603TIP3   OH235443   6.880   0.854   1.159 -0.3478 -0.0742  0.4039
 4603TIP3    H135444   6.897   0.947   1.147 -0.7205 -0.2794 -2.4983
 4603TIP3    H235445   6.800   0.837   1.108  1.4801 -2.4895 -2.0094
 4604TIP3   OH235446   6.354   1.988   6.854  0.0333  0.0796 -0.2080
 4604TIP3    H135447   6.435   2.031   6.827  0.8865  0.2945  2.3963
 4604TIP3    H235448   6.382   1.908   6.898 -1.4014 -1.6568 -2.2651
 4605TIP3   OH235449   3.076   1.925   1.565  0.1880 -0.5763  0.0405
 4605TIP3    H135450   2.988   1.963   1.576  0.6703  0.6313 -0.1088
 4605TIP3    H235451   3.109   1.916   1.654  0.3135 -0.0243  0.0554
 4606TIP3   OH235452   6.212   0.257   8.595  0.3171 -0.1217 -0.0446
 4606TIP3    H135453   6.232   0.189   8.530  0.5031 -0.7596  0.6575
 4606TIP3    H235454   6.258   0.228   8.674 -1.3069 -0.2805  0.8846
 4607TIP3   OH235455   3.289   3.012   2.160  0.1176 -0.1344  0.2548
 4607TIP3    H135456   3.245   3.052   2.235  0.0571  0.1661  0.0597
 4607TIP3    H235457   3.218   2.974   2.108  0.1694 -0.4433  0.4058
 4608TIP3   OH235458   0.591   6.532   6.630  0.2279 -0.7374 -0.2981
 4608TIP3    H135459   0.548   6.611   6.662 -0.7517 -1.3955  0.0433
 4608TIP3    H235460   0.567   6.527   6.538 -0.8756 -1.3740  0.0102
 4609TIP3   OH235461   1.246   0.423   7.827  0.4931 -0.0675  0.2294
 4609TIP3    H135462   1.188   0.439   7.753 -0.2643  0.6095  0.9419
 4609TIP3    H235463   1.328   0.467   7.804  0.0346  0.7252  0.0860
 4610TIP3   OH235464   2.658   4.582   7.176 -0.5356  0.3717  0.5433
 4610TIP3    H135465   2.682   4.654   7.118  1.7497 -0.4702  0.3334
 4610TIP3    H235466   2.672   4.616   7.264 -0.0423  0.3775  0.4633
 4611TIP3   OH235467   0.760   1.994   2.435 -0.3456  0.0828  1.1363
 4611TIP3    H135468   0.736   1.982   2.343 -0.2919  0.3681  1.0843
 4611TIP3    H235469   0.738   1.911   2.476  0.6427 -0.4418  0.6560
 4612TIP3   OH235470   1.134   6.080   6.988  0.3309 -0.2403 -0.4939
 4612TIP3    H135471   1.210   6.079   6.930  0.6643  0.4228 -0.0766
 4612TIP3    H235472   1.064   6.040   6.937  0.9685 -0.8975 -0.8694
 4613TIP3   OH235473   6.371   5.968   1.832 -0.1422 -0.5951 -0.0096
 4613TIP3    H135474   6.416   6.029   1.773 -0.2739  0.4713  0.9539
 4613TIP3    H235475   6.430   5.960   1.907 -1.3728  0.5918  1.1399
 4614TIP3   OH235476   0.859   2.455   0.258  0.8809 -0.3352 -0.3587
 4614TIP3    H135477   0.870   2.499   0.173 -1.2096 -1.5559 -1.3162
 4614TIP3    H235478   0.919   2.381   0.254 -0.8970 -1.7943 -1.8506
 4615TIP3   OH235479   6.782   0.461   8.547 -0.6158  0.2839 -0.2200
 4615TIP3    H135480   6.706   0.466   8.489 -1.3128 -0.5434  0.5806
 4615TIP3    H235481   6.770   0.534   8.608 -1.0155 -0.1087  0.1789
 4616TIP3   OH235482   2.109   3.065   2.190  0.0868  0.1890 -0.6363
 4616TIP3    H135483   2.200   3.053   2.162  0.1318  0.5117 -0.6302
 4616TIP3    H235484   2.113   3.062   2.286  0.0527 -0.0607 -0.6415
 4617TIP3   OH235485   2.122   5.959   1.963 -0.9319 -0.4865  0.0019
 4617TIP3    H135486   2.090   6.047   1.944 -2.4505 -0.5471  1.9910
 4617TIP3    H235487   2.089   5.939   2.051 -1.1468 -3.2661 -0.5993
 4618TIP3   OH235488   4.480   3.433   8.277 -0.5583 -0.2414  0.1442
 4618TIP3    H135489   4.500   3.517   8.320 -0.2420 -0.4035  0.3223
 4618TIP3    H235490   4.511   3.367   8.339 -1.5334 -0.5088  0.3630
 4619TIP3   OH235491   5.614   2.768   7.635  0.8019  0.1634  0.2112
 4619TIP3    H135492   5.673   2.811   7.573 -1.3217  0.2782 -1.8761
 4619TIP3    H235493   5.570   2.700   7.584 -0.4839 -0.2543  1.7785
 4620TIP3   OH235494   4.154   5.177   7.531  0.5736 -0.1433 -0.5425
 4620TIP3    H135495   4.184   5.124   7.457 -0.7158  0.0717 -1.2398
 4620TIP3    H235496   4.090   5.237   7.494 -0.6432 -0.5091  0.8510
 4621TIP3   OH235497   0.105   4.269   0.772  0.1463 -0.7387 -0.0726
 4621TIP3    H135498   0.035   4.241   0.832 -0.2295  0.2808 -0.0223
 4621TIP3    H235499   0.090   4.362   0.760  2.5145 -0.0950  1.2837
 4622TIP3   OH235500   0.044   0.355   0.418  0.2416  0.1088 -0.4056
 4622TIP3    H135501   0.069   0.428   0.362 -1.8960  0.9307 -0.3992
 4622TIP3    H235502   0.001   0.395   0.493 -0.8578 -1.1254 -0.3349
 4623TIP3   OH235503   6.023   5.458   1.224 -0.6464 -0.2984  0.3048
 4623TIP3    H135504   5.982   5.439   1.140  1.0420 -0.2784 -0.5738
 4623TIP3    H235505   6.016   5.553   1.234  0.2620 -0.1377 -0.4526
 4624TIP3   OH235506   4.522   3.982   1.639 -0.0303 -0.1798 -0.2594
 4624TIP3    H135507   4.613   3.953   1.642 -0.4050 -1.3309  1.3178
 4624TIP3    H235508   4.515   4.048   1.708 -0.6308 -0.9208  0.4062
 4625TIP3   OH235509   6.853   4.940   7.081  0.2122 -0.0491 -0.4728
 4625TIP3    H135510   6.811   4.892   7.152  1.0134 -0.7468 -0.4464
 4625TIP3    H235511   6.864   4.875   7.011 -0.9507  0.7264 -1.4221
 4626TIP3   OH235512   1.058   1.160   7.413 -0.4433 -0.1883  0.0691
 4626TIP3    H135513   1.113   1.217   7.467 -1.7800 -0.2325  1.5281
 4626TIP3    H235514   0.987   1.132   7.471 -2.6066  0.6622 -2.0020
 4627TIP3   OH235515   4.243   0.576   0.257  0.3095 -0.2855 -0.3786
 4627TIP3    H135516   4.303   0.523   0.310 -0.6068 -3.9677 -2.6404
 4627TIP3    H235517   4.158   0.564   0.298  0.5250  2.4735  1.0800
 4628TIP3   OH235518   1.854   3.461   7.685 -0.1536  0.1763 -0.8747
 4628TIP3    H135519   1.883   3.370   7.692  0.6323  0.2535 -2.7319
 4628TIP3    H235520   1.925   3.512   7.724 -1.3498 -0.0064  1.8339
 4629TIP3   OH235521   5.792   5.604   7.327 -0.7323  0.0664 -0.3319
 4629TIP3    H135522   5.839   5.521   7.317 -1.1111 -0.1914  0.0048
 4629TIP3    H235523   5.702   5.583   7.304 -0.5822  0.7096 -1.6326
 4630TIP3   OH235524   0.603   2.145   1.502 -0.5273  0.1477  0.7089
 4630TIP3    H135525   0.641   2.217   1.552 -1.2526  1.6806 -0.8581
 4630TIP3    H235526   0.525   2.120   1.551 -0.4232  0.6067  1.1101
 4631TIP3   OH235527   3.446   0.883   0.221  0.1246 -0.7426 -0.1091
 4631TIP3    H135528   3.377   0.831   0.180  1.0507 -0.6833 -1.8369
 4631TIP3    H235529   3.435   0.971   0.185 -0.7026  0.0410  1.8946
 4632TIP3   OH235530   0.390   3.407   0.422  0.1564 -0.2395  0.1399
 4632TIP3    H135531   0.414   3.333   0.477  0.3891  0.8795  1.6054
 4632TIP3    H235532   0.457   3.473   0.441 -1.8103  1.5170  1.3442
 4633TIP3   OH235533   6.789   1.641   0.460 -0.3639 -0.4092  0.3851
 4633TIP3    H135534   6.840   1.706   0.411  1.9382 -1.8182  0.7739
 4633TIP3    H235535   6.701   1.679   0.465  0.6504  2.2672 -0.1515
 4634TIP3   OH235536   4.060   0.461   1.434  0.8467 -0.2183  0.0073
 4634TIP3    H135537   4.040   0.405   1.509  0.3680 -0.9903 -0.6777
 4634TIP3    H235538   3.982   0.516   1.425  0.2313 -1.1819 -0.8384
 4635TIP3   OH235539   5.131   1.004   0.124  0.0921  0.1336 -0.0946
 4635TIP3    H135540   5.045   0.966   0.143  0.7931 -1.1971  0.5646
 4635TIP3    H235541   5.191   0.929   0.127  1.1951  0.9384 -1.1316
 4636TIP3   OH235542   2.611   6.053   1.465 -0.3285  0.2022  0.4277
 4636TIP3    H135543   2.633   6.114   1.395 -0.0273  1.1824  1.3446
 4636TIP3    H235544   2.537   6.002   1.431 -0.6896  1.1940 -0.3047
 4637TIP3   OH235545   3.293   0.457   0.024  0.0663  0.2833  0.0451
 4637TIP3    H135546   3.264   0.450  -0.067  0.3549  0.4945 -0.0646
 4637TIP3    H235547   3.317   0.368   0.049 -2.1989 -0.2306  0.6615
 4638TIP3   OH235548   6.495   6.065   2.237  0.1758 -0.2846  0.4202
 4638TIP3    H135549   6.532   6.021   2.314  0.1519  1.1992  1.3237
 4638TIP3    H235550   6.463   6.149   2.270 -0.8255 -0.0542 -1.0198
 4639TIP3   OH235551   0.479   6.723   0.063  0.1969 -0.2560  0.1415
 4639TIP3    H135552   0.450   6.738   0.153 -0.9808 -0.2699 -0.2261
 4639TIP3    H235553   0.413   6.665   0.026 -1.4368  2.5931 -1.8376
 4640TIP3   OH235554   3.828   5.223   7.768 -0.0369 -0.3423 -0.0338
 4640TIP3    H135555   3.850   5.312   7.741 -0.2802 -0.6166 -1.2132
 4640TIP3    H235556   3.740   5.228   7.803 -0.6587 -0.3499 -1.5221
 4641TIP3   OH235557   0.390   5.476   1.284  0.4074  0.1338 -0.6293
 4641TIP3    H135558   0.469   5.423   1.286  0.5973  0.1282 -3.5605
 4641TIP3    H235559   0.335   5.435   1.217 -2.1228  0.1383  1.3187
 4642TIP3   OH235560   6.853   5.299   2.261  0.4517 -0.3237  0.7275
 4642TIP3    H135561   6.828   5.250   2.339  0.7707 -0.2758  0.8639
 4642TIP3    H235562   6.901   5.375   2.295  1.5243 -0.8574  0.4423
 4643TIP3   OH235563   0.716   6.885   1.836 -0.5254  0.2142  0.1115
 4643TIP3    H135564   0.750   6.870   1.925 -1.8125 -1.2959  0.3958
 4643TIP3    H235565   0.628   6.919   1.850 -1.5763 -2.0979 -0.5202
 4644TIP3   OH235566   6.230   3.607   0.459  0.5197  0.7236 -0.3700
 4644TIP3    H135567   6.211   3.589   0.551  2.0089 -1.7319 -0.4440
 4644TIP3    H235568   6.151   3.580   0.412  0.6451 -0.3737  0.0283
 4645TIP3   OH235569   0.761   6.292   6.478 -0.0805 -0.1652 -0.2238
 4645TIP3    H135570   0.748   6.231   6.550  0.3937  1.3612  1.2077
 4645TIP3    H235571   0.674   6.304   6.441 -0.4373 -0.5182  0.4817
 4646TIP3   OH235572   5.849   5.582   0.322 -0.3494 -0.4601  0.1884
 4646TIP3    H135573   5.812   5.601   0.236  0.5601  0.0658 -0.1034
 4646TIP3    H235574   5.857   5.486   0.325 -0.4376 -0.4811 -0.2888
 4647TIP3   OH235575   4.209   1.484   0.549 -0.3753 -0.4813  0.4338
 4647TIP3    H135576   4.150   1.448   0.483 -0.3998 -1.3674  0.9334
 4647TIP3    H235577   4.291   1.436   0.537  0.4806  1.1325 -0.6424
 4648TIP3   OH235578   4.691   3.990   0.586  0.5475  0.1812 -0.0438
 4648TIP3    H135579   4.787   3.989   0.581  0.6459 -1.8619  0.9396
 4648TIP3    H235580   4.673   4.001   0.680 -0.2566  2.3915 -0.4169
 4649TIP3   OH235581   5.451   4.092   7.881  0.8007  0.0706 -0.4708
 4649TIP3    H135582   5.509   4.081   7.956  1.9323  0.3008 -1.2852
 4649TIP3    H235583   5.404   4.173   7.899 -0.7171 -1.0899  1.1016
 4650TIP3   OH235584   0.969   3.719   8.051 -0.3136  0.0380  0.0459
 4650TIP3    H135585   0.890   3.759   8.014 -0.2969 -0.8784 -1.0351
 4650TIP3    H235586   1.002   3.662   7.981 -0.0363 -1.4306  1.3281
 4651TIP3   OH235587   0.531   6.664   0.733 -0.2693  0.7162  0.2511
 4651TIP3    H135588   0.561   6.573   0.728  1.2903  1.1390  1.2159
 4651TIP3    H235589   0.578   6.700   0.808 -0.8529  2.3314 -0.1298
 4652TIP3   OH235590   2.671   4.840   0.670 -0.0528 -0.5044  0.5794
 4652TIP3    H135591   2.714   4.755   0.680  2.8169  0.8344  0.5961
 4652TIP3    H235592   2.707   4.894   0.741 -1.6734  0.8195  0.4809
 4653TIP3   OH235593   2.311   1.744   0.210  0.4904 -0.5041  0.3927
 4653TIP3    H135594   2.243   1.785   0.264  2.0989  1.8987  0.7391
 4653TIP3    H235595   2.358   1.687   0.270 -0.0228 -0.7199  0.5999
 4654TIP3   OH235596   5.857   0.632   8.274  0.5371 -0.5106 -0.1680
 4654TIP3    H135597   5.822   0.611   8.188  0.1394 -1.5040  0.2217
 4654TIP3    H235598   5.879   0.548   8.313  2.9603  0.0314 -0.2011
 4655TIP3   OH235599   5.098   1.700   7.497  0.6831 -0.2937 -0.6749
 4655TIP3    H135600   5.105   1.671   7.407 -0.4471 -3.7562  0.1965
 4655TIP3    H235601   5.007   1.731   7.506  0.3096 -1.4282 -0.3975
 4656TIP3   OH235602   0.306   0.572   0.870 -0.0726  0.2778 -0.1224
 4656TIP3    H135603   0.303   0.592   0.964  0.3456  0.3310 -0.1146
 4656TIP3    H235604   0.292   0.656   0.827  0.2207  0.3419 -0.0997
 4657TIP3   OH235605   1.501   4.214   0.621  0.7939 -0.6944 -0.4349
 4657TIP3    H135606   1.420   4.162   0.625  0.7238 -0.5188  1.0290
 4657TIP3    H235607   1.496   4.259   0.537 -1.2295  0.2445  0.1279
 4658TIP3   OH235608   2.624   1.080   6.609 -0.1265 -0.0755 -0.3508
 4658TIP3    H135609   2.616   1.112   6.699 -0.7252 -0.4039 -0.2806
 4658TIP3    H235610   2.631   1.160   6.556  1.1679  0.1008  0.0531
 4659TIP3   OH235611   2.557   3.088   7.033 -0.1012 -0.1405  0.1252
 4659TIP3    H135612   2.520   3.016   7.085 -1.4530 -0.1110 -0.7617
 4659TIP3    H235613   2.487   3.113   6.973 -0.0267  2.5646  1.0235
 4660TIP3   OH235614   1.118   0.039   7.273  0.7944  0.2958 -1.1163
 4660TIP3    H135615   1.152  -0.050   7.284  0.6938  0.4835  1.3743
 4660TIP3    H235616   1.044   0.030   7.213  1.8205 -1.0021 -2.2259
 4661TIP3   OH235617   0.195   2.036   8.370  0.3250  0.0812  0.1630
 4661TIP3    H135618   0.202   1.948   8.334  1.1086 -0.0042  0.5145
 4661TIP3    H235619   0.156   2.023   8.457  1.0370  0.0101  0.4790
 4662TIP3   OH235620   4.195   6.210   1.405  0.0836  0.5688  0.2062
 4662TIP3    H135621   4.244   6.163   1.473 -0.2541 -0.9186 -0.5372
 4662TIP3    H235622   4.127   6.257   1.453  1.1699  1.2773  1.0874
 4663TIP3   OH235623   1.380   4.461   2.088 -0.0155  0.2959 -0.8741
 4663TIP3    H135624   1.331   4.475   2.169  0.4783  0.2287 -0.5581
 4663TIP3    H235625   1.354   4.373   2.059 -1.4573  0.9468 -1.6928
 4664TIP3   OH235626   1.524   5.721   2.239  0.2628 -0.0521  0.7675
 4664TIP3    H135627   1.456   5.702   2.176 -1.9964 -0.3880  3.1457
 4664TIP3    H235628   1.554   5.810   2.217  1.2218 -0.9910 -2.0681
 4665TIP3   OH235629   0.933   5.695   8.130 -0.2349 -0.2902 -0.2720
 4665TIP3    H135630   0.864   5.697   8.196  0.4413 -0.2313  0.4520
 4665TIP3    H235631   1.002   5.752   8.166 -0.6016  1.2613 -1.8888
 4666TIP3   OH235632   6.759   3.447   0.156 -0.2206  0.4595 -0.1984
 4666TIP3    H135633   6.744   3.482   0.244  0.1972 -0.2947  0.1863
 4666TIP3    H235634   6.844   3.482   0.130  0.9488 -1.4411  0.8284
 4667TIP3   OH235635   2.524   3.460   0.431  0.4184  0.1157 -0.1416
 4667TIP3    H135636   2.434   3.465   0.399 -0.2956 -0.7596  1.6054
 4667TIP3    H235637   2.577   3.459   0.352 -1.1880 -0.9720 -1.2711
 4668TIP3   OH235638   0.456   3.445   7.873  0.3952 -0.4329 -0.2739
 4668TIP3    H135639   0.505   3.521   7.844 -1.1591  1.3423  1.4400
 4668TIP3    H235640   0.522   3.386   7.910  1.4491  1.0526  0.3148
 4669TIP3   OH235641   4.472   5.010   1.041 -0.1187 -0.0235  0.2276
 4669TIP3    H135642   4.530   4.965   1.103 -0.7675 -2.2491 -0.6794
 4669TIP3    H235643   4.497   5.102   1.047  0.8453 -0.3568  2.6937
 4670TIP3   OH235644   2.649   1.839   7.372  0.3451  0.1305  0.1345
 4670TIP3    H135645   2.591   1.764   7.357 -1.0428  1.5121 -1.9423
 4670TIP3    H235646   2.590   1.914   7.376  1.8899  1.4927 -1.2151
 4671TIP3   OH235647   3.741   4.409   0.111 -0.1489  0.3188 -0.0102
 4671TIP3    H135648   3.828   4.430   0.077 -0.7357 -0.6200 -2.2914
 4671TIP3    H235649   3.730   4.316   0.092 -0.8140 -0.1549  2.3132
 4672TIP3   OH235650   1.938   2.288   7.577 -0.0921 -0.1262  0.0700
 4672TIP3    H135651   1.911   2.292   7.485 -0.7835  0.3669  0.2790
 4672TIP3    H235652   2.001   2.359   7.586  2.2496 -1.9981 -0.6931
 4673TIP3   OH235653   0.923   6.063   0.344 -0.7641 -0.0400  0.6009
 4673TIP3    H135654   0.835   6.093   0.322 -0.5522 -0.4965 -0.9974
 4673TIP3    H235655   0.914   5.968   0.354 -0.3936 -0.1364  0.0609
 4674TIP3   OH235656   3.255   5.289   0.987  0.5171 -0.1626  0.2096
 4674TIP3    H135657   3.218   5.358   0.933  0.2144  1.2858  2.1617
 4674TIP3    H235658   3.342   5.321   1.011  1.0007 -1.1843 -0.1035
 4675TIP3   OH235659   0.813   6.289   2.255  0.1806 -0.0014  0.3443
 4675TIP3    H135660   0.801   6.210   2.308  1.1221 -0.0187  0.5556
 4675TIP3    H235661   0.827   6.359   2.319  0.8468  0.0612  0.1449
 4676TIP3   OH235662   4.366   1.694   1.612  0.5198 -0.3688 -0.5509
 4676TIP3    H135663   4.277   1.715   1.640  0.4769 -0.0582 -0.9183
 4676TIP3    H235664   4.356   1.652   1.527  0.7314 -0.2040 -0.6587
 4677TIP3   OH235665   6.421   0.386   0.612  0.1282 -0.7490  0.1420
 4677TIP3    H135666   6.372   0.442   0.672  1.3115  0.3746  0.0881
 4677TIP3    H235667   6.484   0.340   0.666  1.3447  0.4287 -0.2355
 4678TIP3   OH235668   4.732   5.289   0.066 -0.1970 -0.5525 -0.0039
 4678TIP3    H135669   4.759   5.217   0.122 -0.9807 -1.5043 -0.8208
 4678TIP3    H235670   4.637   5.289   0.069 -0.2131  0.3267 -0.1701
 4679TIP3   OH235671   6.105   2.425   1.174 -0.3488 -0.1167 -0.6632
 4679TIP3    H135672   6.105   2.330   1.187 -1.8512 -0.1731 -0.8896
 4679TIP3    H235673   6.196   2.452   1.190 -0.4955 -1.1498  2.5692
 4680TIP3   OH235674   5.762   1.659   0.349 -0.3054 -0.0961 -0.4932
 4680TIP3    H135675   5.795   1.623   0.267  0.5659  2.8474 -1.5875
 4680TIP3    H235676   5.729   1.746   0.324 -1.0128  0.4527  2.1022
 4681TIP3   OH235677   3.283   0.479   8.432 -0.1194 -0.1469  0.0474
 4681TIP3    H135678   3.204   0.520   8.398  0.0523  0.3162  0.2038
 4681TIP3    H235679   3.355   0.522   8.386 -0.0058 -1.9572 -1.6077
 4682TIP3   OH235680   4.582   3.711   8.281  0.2719 -0.2314 -0.2485
 4682TIP3    H135681   4.578   3.774   8.210  1.1784 -0.3672 -0.4339
 4682TIP3    H235682   4.673   3.681   8.282 -0.0074 -1.1197  0.1958
 4683TIP3   OH235683   6.726   2.938   7.168  0.3593 -0.6776 -0.8821
 4683TIP3    H135684   6.723   2.850   7.206 -2.0716 -0.2131  0.2350
 4683TIP3    H235685   6.768   2.926   7.084  0.8360 -2.7745 -0.4196
 4684TIP3   OH235686   0.633   4.083   2.586 -0.3600  0.0759  0.2367
 4684TIP3    H135687   0.694   4.015   2.614  0.2408 -0.0173 -1.2032
 4684TIP3    H235688   0.549   4.058   2.625 -0.0007 -1.1327  0.2778
 4685TIP3   OH235689   2.924   1.325   1.508 -0.4588  0.3166  0.4117
 4685TIP3    H135690   2.981   1.316   1.432  0.6223 -0.7196  1.2997
 4685TIP3    H235691   2.949   1.253   1.566 -3.1282 -0.6304  0.5720
 4686TIP3   OH235692   1.478   1.158   1.494 -0.4474  0.5450  0.2624
 4686TIP3    H135693   1.451   1.067   1.500 -1.0174  0.6508 -0.4852
 4686TIP3    H235694   1.560   1.156   1.445 -0.1906  0.3972  0.6939
 4687TIP3   OH235695   0.807   6.268   0.616 -0.0301 -0.2466 -0.9673
 4687TIP3    H135696   0.835   6.300   0.531  1.4818  1.5701  0.1430
 4687TIP3    H235697   0.878   6.213   0.647  0.2363  0.5227 -0.1590
 4688TIP3   OH235698   4.664   4.455   6.839  0.3261 -0.5446 -0.3229
 4688TIP3    H135699   4.582   4.446   6.791  1.4949 -0.9076 -2.3481
 4688TIP3    H235700   4.731   4.422   6.779  1.8950 -0.9501  1.5448
 4689TIP3   OH235701   4.399   2.972   7.206 -0.0827 -0.4224  0.5024
 4689TIP3    H135702   4.338   3.039   7.174  1.0486  0.1427 -0.5335
 4689TIP3    H235703   4.391   2.976   7.301 -0.1048  1.1295  0.4601
 4690TIP3   OH235704   2.825   1.471   0.783 -0.0543  0.1601 -0.0014
 4690TIP3    H135705   2.821   1.523   0.702 -1.7699  2.3268  1.3437
 4690TIP3    H235706   2.879   1.523   0.842 -2.2758  0.8274  1.5719
 4691TIP3   OH235707   3.139   4.959   7.265  0.0004 -0.2789  0.0373
 4691TIP3    H135708   3.158   4.999   7.180 -0.4706  0.9083  0.4719
 4691TIP3    H235709   3.064   5.008   7.299 -0.3588 -1.3005  0.7676
 4692TIP3   OH235710   0.094   6.585   8.092 -0.1761  0.0886 -0.0299
 4692TIP3    H135711   0.136   6.629   8.017 -0.3976 -0.9924 -0.8040
 4692TIP3    H235712   0.134   6.498   8.094  0.0513  0.2010  1.3198
 4693TIP3   OH235713   3.450   0.618   0.669 -0.4000 -0.6892  0.0897
 4693TIP3    H135714   3.394   0.649   0.598  3.6306  2.4089 -2.1669
 4693TIP3    H235715   3.493   0.540   0.635 -1.9495 -2.0816  1.1724
 4694TIP3   OH235716   1.818   5.416   1.023  0.6277 -0.3554 -0.3673
 4694TIP3    H135717   1.912   5.430   1.031  0.8244 -1.0191 -1.2189
 4694TIP3    H235718   1.778   5.499   1.048  1.4861  0.2033 -0.7995
 4695TIP3   OH235719   0.144   1.850   7.384 -0.3892  0.4108 -0.2194
 4695TIP3    H135720   0.141   1.754   7.389 -0.0757  0.2382 -2.2420
 4695TIP3    H235721   0.061   1.878   7.422  0.1361 -0.5549  1.7585
 4696TIP3   OH235722   3.246   6.595   1.457  0.1410 -0.1622 -0.4786
 4696TIP3    H135723   3.254   6.549   1.374 -0.4992  0.8226 -1.1126
 4696TIP3    H235724   3.303   6.671   1.448  0.5810 -0.3943  0.2468
 4697TIP3   OH235725   4.739   2.149   0.190  0.2454 -0.5507 -0.0719
 4697TIP3    H135726   4.645   2.166   0.192  0.1461 -1.1273  0.6695
 4697TIP3    H235727   4.779   2.235   0.179 -0.3411 -0.2110  0.4160
 4698TIP3   OH235728   1.524   5.973   7.004 -0.4298  0.0967  0.0824
 4698TIP3    H135729   1.435   5.993   6.974 -0.8570  0.0962  1.2938
 4698TIP3    H235730   1.554   5.904   6.945 -1.0274  0.4803 -0.6840
 4699TIP3   OH235731   6.677   2.702   7.578 -0.4745 -0.0774 -0.6496
 4699TIP3    H135732   6.682   2.622   7.526 -1.5574  1.1660 -2.8300
 4699TIP3    H235733   6.766   2.736   7.579  0.6442 -2.5686  2.6797
 4700TIP3   OH235734   6.423   5.391   1.883  0.2334 -0.6225  0.2488
 4700TIP3    H135735   6.503   5.430   1.848  0.5835 -0.4602  1.1966
 4700TIP3    H235736   6.352   5.436   1.837  0.6670 -2.2421 -2.1781
 4701TIP3   OH235737   4.578   3.265   0.801  0.2626  0.2123  0.0790
 4701TIP3    H135738   4.659   3.313   0.782 -1.0069  1.7419 -1.8565
 4701TIP3    H235739   4.538   3.313   0.874  0.2501  0.5164 -0.1278
 4702TIP3   OH235740   6.747   4.178   0.210 -0.4212 -0.0384  0.1389
 4702TIP3    H135741   6.711   4.194   0.297  1.6399  0.1475  1.0212
 4702TIP3    H235742   6.820   4.240   0.202  0.3737 -1.0696 -1.1028
 4703TIP3   OH235743   1.068   0.358   8.409  0.2641 -0.2875 -0.3591
 4703TIP3    H135744   1.081   0.434   8.467  0.5017 -0.2005 -0.5225
 4703TIP3    H235745   1.012   0.391   8.339  0.2408 -0.3031 -0.3472
 4704TIP3   OH235746   3.047   3.708   0.453  0.2796  0.2269  0.3779
 4704TIP3    H135747   3.123   3.733   0.399  0.1096  1.0675  0.5077
 4704TIP3    H235748   3.040   3.779   0.518 -2.4854  1.8858 -1.5208
 4705TIP3   OH235749   6.899   6.144   1.371  0.4082  0.2248 -0.1219
 4705TIP3    H135750   6.960   6.203   1.328  0.1739 -0.4715 -1.4720
 4705TIP3    H235751   6.937   6.128   1.457  1.6191  0.5708 -0.5764
 4706TIP3   OH235752   6.211   5.072   1.941  0.3404 -0.6217  0.3517
 4706TIP3    H135753   6.152   5.107   1.874  0.2208 -1.9910 -0.3014
 4706TIP3    H235754   6.181   4.982   1.954  0.7713 -0.5723  1.7978
 4707TIP3   OH235755   5.139   4.924   8.664  0.1108 -0.2143  0.2041
 4707TIP3    H135756   5.218   4.875   8.641  0.7964  0.8591  0.2100
 4707TIP3    H235757   5.168   4.985   8.732 -1.0131 -0.6519  1.1084
 4708TIP3   OH235758   1.668   5.550   1.745 -0.2310 -0.0178 -0.0586
 4708TIP3    H135759   1.717   5.516   1.820  1.1656  0.3387 -0.7833
 4708TIP3    H235760   1.646   5.640   1.768 -1.4266 -0.4767  0.6697
 4709TIP3   OH235761   5.971   4.957   0.920  0.6993  0.2537  0.3636
 4709TIP3    H135762   5.892   4.990   0.878  1.2313 -0.4183 -1.2749
 4709TIP3    H235763   5.964   4.985   1.011 -1.7240 -0.3132  0.4309
 4710TIP3   OH235764   6.423   0.147   0.394  0.1529 -0.4717 -0.7587
 4710TIP3    H135765   6.418   0.192   0.479 -1.6534  0.4427 -1.2905
 4710TIP3    H235766   6.425   0.054   0.417 -1.9011 -0.3164  0.3245
 4711TIP3   OH235767   5.282   3.016   6.702  0.0010  0.0265  0.5094
 4711TIP3    H135768   5.279   3.105   6.666 -0.0484  1.6746  4.1446
 4711TIP3    H235769   5.373   3.005   6.729 -0.1733 -0.7096  0.8202
 4712TIP3   OH235770   2.737   5.507   0.035 -0.0726  0.1432  0.1846
 4712TIP3    H135771   2.721   5.593   0.075 -1.8803 -0.1632  0.1743
 4712TIP3    H235772   2.722   5.522  -0.059  1.0340  0.1201 -0.0145
 4713TIP3   OH235773   6.055   3.252   2.148  0.3551  0.3184 -0.4300
 4713TIP3    H135774   6.139   3.271   2.190  0.1613  1.4063 -0.5011
 4713TIP3    H235775   5.993   3.243   2.221  0.4325  0.0335 -0.3988
 4714TIP3   OH235776   5.628   3.826   7.727  0.1450 -0.0674  0.3948
 4714TIP3    H135777   5.607   3.873   7.808 -2.1289 -1.8169  0.9158
 4714TIP3    H235778   5.550   3.837   7.672  0.9368 -0.4307 -0.8405
 4715TIP3   OH235779   5.861   4.697   8.079 -0.0103  0.4598 -0.4783
 4715TIP3    H135780   5.895   4.652   8.002  2.0444 -0.4889  0.8905
 4715TIP3    H235781   5.847   4.627   8.143  0.4758  1.4433  0.7415
 4716TIP3   OH235782   6.207   0.312   7.773  0.0188  0.3602 -0.5111
 4716TIP3    H135783   6.157   0.290   7.695 -1.4719  3.2404 -0.5275
 4716TIP3    H235784   6.204   0.233   7.827 -1.6242 -0.6787 -2.0233
 4717TIP3   OH235785   2.787   0.193   8.256  0.6895 -0.3855 -0.1800
 4717TIP3    H135786   2.749   0.105   8.260 -0.2404  0.0107 -0.0589
 4717TIP3    H235787   2.712   0.252   8.256  1.3276  0.4584  0.8194
 4718TIP3   OH235788   6.175   4.250   7.001 -0.0003 -0.4568 -0.6135
 4718TIP3    H135789   6.226   4.326   6.975  0.0591 -0.3724 -0.2545
 4718TIP3    H235790   6.144   4.270   7.089  0.3077 -0.9932 -0.3744
 4719TIP3   OH235791   5.688   2.170   6.575 -0.2589 -0.2902 -0.8197
 4719TIP3    H135792   5.681   2.265   6.563  0.8138 -0.3387 -2.1343
 4719TIP3    H235793   5.781   2.156   6.592 -0.7309 -0.9276  1.5287
 4720TIP3   OH235794   1.217   4.276   0.459 -0.1799  0.4472  0.0614
 4720TIP3    H135795   1.157   4.228   0.402  1.0534  0.0569 -0.9486
 4720TIP3    H235796   1.298   4.281   0.409  0.5308  1.2595  1.2615
 4721TIP3   OH235797   5.190   6.288   1.145 -0.3647  0.0218  0.4181
 4721TIP3    H135798   5.130   6.282   1.072 -1.7279 -0.5073  1.5458
 4721TIP3    H235799   5.140   6.257   1.221  0.5137  1.8718  1.8448
 4722TIP3   OH235800   6.845   1.898   7.544 -0.1528  0.0162  0.2407
 4722TIP3    H135801   6.860   1.916   7.637 -0.7707  1.1894  0.1223
 4722TIP3    H235802   6.755   1.866   7.540  0.1184 -0.7725  0.1225
 4723TIP3   OH235803   6.430   6.677   7.883 -0.3753 -0.3880 -0.2108
 4723TIP3    H135804   6.488   6.625   7.938  0.2992  0.3446 -0.2078
 4723TIP3    H235805   6.343   6.660   7.917  0.0011 -0.1473  0.9317
 4724TIP3   OH235806   0.620   5.564   7.446  0.0610  0.6938  0.1856
 4724TIP3    H135807   0.669   5.552   7.364 -0.8212  5.2500 -1.2826
 4724TIP3    H235808   0.686   5.591   7.510  0.3597 -0.2051  0.2790
 4725TIP3   OH235809   5.791   5.378   7.161  0.0157  0.2757 -0.6120
 4725TIP3    H135810   5.764   5.299   7.207  0.7285 -0.3839 -1.2986
 4725TIP3    H235811   5.790   5.354   7.068  2.8997  0.1512 -0.7123
 4726TIP3   OH235812   4.400   5.245   8.607  0.0223 -0.0755 -0.6240
 4726TIP3    H135813   4.397   5.188   8.684 -1.5910  0.2621 -0.4052
 4726TIP3    H235814   4.418   5.332   8.642  1.5417 -0.2541 -0.8737
 4727TIP3   OH235815   2.365   5.879   1.381 -0.1899  0.0521 -0.3207
 4727TIP3    H135816   2.281   5.921   1.398  0.5671  1.5051 -0.0007
 4727TIP3    H235817   2.344   5.786   1.371 -1.7304  0.2941  0.4181
 4728TIP3   OH235818   6.842   0.640   7.557  0.0865 -0.0343 -0.2167
 4728TIP3    H135819   6.861   0.733   7.550  1.7851 -0.2576  0.8554
 4728TIP3    H235820   6.838   0.609   7.466  0.2238  0.9241 -0.5605
 4729TIP3   OH235821   0.431   1.312   8.192 -0.5863  0.0278  0.3283
 4729TIP3    H135822   0.349   1.276   8.226 -0.1808 -0.4088  0.8611
 4729TIP3    H235823   0.435   1.401   8.226 -1.2488  0.3537 -0.4092
 4730TIP3   OH235824   0.862   5.729   1.911 -0.3362 -0.3672 -0.4802
 4730TIP3    H135825   0.845   5.762   1.999 -3.4418 -1.6079 -0.4528
 4730TIP3    H235826   0.819   5.643   1.910 -1.0534 -0.0832 -3.3782
 4731TIP3   OH235827   0.553   3.568   6.363  0.1544 -0.1847  0.3201
 4731TIP3    H135828   0.636   3.578   6.316  0.6267 -0.9559  0.9486
 4731TIP3    H235829   0.489   3.614   6.309  0.9956  0.4718 -0.1570
 4732TIP3   OH235830   5.490   1.494   0.246  0.5298  0.2789  0.0204
 4732TIP3    H135831   5.473   1.513   0.154 -0.8837  1.8947  0.5476
 4732TIP3    H235832   5.463   1.574   0.292  1.1434 -0.5018  1.8376
 4733TIP3   OH235833   6.279   0.439   0.306 -0.0026 -0.3497  0.0625
 4733TIP3    H135834   6.219   0.438   0.381  1.3236 -0.2096  1.1494
 4733TIP3    H235835   6.295   0.347   0.288  0.4765 -0.3800  0.6169
 4734TIP3   OH235836   2.672   6.703   1.703  0.0118 -0.2934  0.2101
 4734TIP3    H135837   2.600   6.724   1.644 -1.6221 -0.8983  1.9097
 4734TIP3    H235838   2.688   6.609   1.690  0.2587 -0.2367  0.0923
 4735TIP3   OH235839   1.028   1.166   8.098  0.1971  0.2278  0.3746
 4735TIP3    H135840   1.071   1.085   8.073  1.0851  0.9768 -0.6585
 4735TIP3    H235841   1.077   1.234   8.052 -0.7541  1.3163  0.9118
 4736TIP3   OH235842   0.919   4.228   1.035  0.1119  0.3418  0.2982
 4736TIP3    H135843   0.889   4.252   0.947 -4.3120 -0.7200  1.2904
 4736TIP3    H235844   0.934   4.133   1.030  0.6647  0.4122  0.5318
 4737TIP3   OH235845   5.849   0.641   7.010 -0.1831 -0.2435 -0.3051
 4737TIP3    H135846   5.812   0.725   6.983 -0.9896  0.0928  1.6702
 4737TIP3    H235847   5.813   0.626   7.097  0.8013 -2.1348 -0.1713
 4738TIP3   OH235848   1.718   6.771   7.605 -0.7011 -0.4275 -0.3094
 4738TIP3    H135849   1.753   6.682   7.611  0.8073  0.1709  0.4352
 4738TIP3    H235850   1.657   6.777   7.679  0.2648 -0.4286  0.5185
 4739TIP3   OH235851   3.286   6.462   1.681  0.0091  0.1915  0.5540
 4739TIP3    H135852   3.362   6.406   1.668 -1.5961 -2.0749  0.4185
 4739TIP3    H235853   3.279   6.513   1.600  1.8714  1.1598  0.9416
 4740TIP3   OH235854   2.079   6.253   0.397  0.0578  0.1424 -0.0741
 4740TIP3    H135855   2.002   6.202   0.369  0.9032 -0.9672 -0.4613
 4740TIP3    H235856   2.048   6.304   0.472 -0.6128 -1.7239  1.0105
 4741TIP3   OH235857   5.809   5.668   0.839 -0.1989  0.4511 -0.1031
 4741TIP3    H135858   5.767   5.672   0.753  0.3423 -1.0765 -0.4804
 4741TIP3    H235859   5.899   5.696   0.824  0.2856 -1.1049 -0.3645
 4742TIP3   OH235860   1.857   5.552   2.249  0.4122  0.9796  0.2163
 4742TIP3    H135861   1.951   5.553   2.232  0.5228 -1.7486  0.2078
 4742TIP3    H235862   1.849   5.540   2.344  0.0626  1.2391  0.2239
 4743TIP3   OH235863   4.420   2.672   8.259 -0.1662  0.3393 -0.1013
 4743TIP3    H135864   4.478   2.742   8.287  3.1738 -1.3701 -2.0889
 4743TIP3    H235865   4.389   2.698   8.172  0.1461 -0.1218 -0.3558
 4744TIP3   OH235866   1.023   6.793   0.500 -0.4706  0.2848  0.7244
 4744TIP3    H135867   1.046   6.705   0.530 -0.1145  0.7262  1.8038
 4744TIP3    H235868   1.033   6.789   0.405 -2.3522 -1.3736  0.5385
 4745TIP3   OH235869   0.072   1.883   1.062 -0.4712 -0.3718  0.4337
 4745TIP3    H135870   0.110   1.834   1.135  0.0201 -1.7643 -0.6982
 4745TIP3    H235871   0.097   1.833   0.984 -2.5348  0.0286 -0.5616
 4746TIP3   OH235872   5.581   3.363   6.724 -0.1354 -0.9838  0.3587
 4746TIP3    H135873   5.592   3.349   6.630 -2.6245 -2.7898  0.2656
 4746TIP3    H235874   5.562   3.277   6.760 -0.1261 -0.1909  2.4153
 4747TIP3   OH235875   3.539   2.927   2.030 -0.1841  0.2076 -0.1803
 4747TIP3    H135876   3.453   2.917   2.069  0.0351  0.0409  0.2656
 4747TIP3    H235877   3.597   2.946   2.103 -0.2567  2.9906 -0.7489
 4748TIP3   OH235878   1.195   0.574   6.713  0.5197 -0.6016 -0.0481
 4748TIP3    H135879   1.167   0.497   6.664 -0.3051 -1.0210  1.0367
 4748TIP3    H235880   1.238   0.539   6.791  1.4835  0.0469 -0.2723
 4749TIP3   OH235881   0.031   0.936   6.409 -0.7358 -0.8381 -0.4942
 4749TIP3    H135882   0.059   0.857   6.457 -1.4308 -0.7133  0.1360
 4749TIP3    H235883  -0.062   0.921   6.392 -1.2267  0.4385  0.8609
 4750TIP3   OH235884   4.188   3.240   7.331 -0.0622 -0.0492 -0.2804
 4750TIP3    H135885   4.115   3.195   7.289 -1.2114 -0.1934  1.7435
 4750TIP3    H235886   4.148   3.285   7.406  1.3351  2.8171 -1.1157
 4751TIP3   OH235887   3.497   6.738   8.481  0.2543 -0.7255 -0.0715
 4751TIP3    H135888   3.553   6.753   8.405 -1.2205  1.4628 -0.8452
 4751TIP3    H235889   3.544   6.779   8.553  0.4719 -0.4699 -0.3524
 4752TIP3   OH235890   4.828   5.952   1.181 -0.4073  0.6707 -0.2623
 4752TIP3    H135891   4.891   6.014   1.215 -1.5220  1.0594  1.1967
 4752TIP3    H235892   4.810   5.982   1.092  2.7022 -0.4671 -1.4246
 4753TIP3   OH235893   0.905   5.822   0.444 -0.2233  0.3054  0.4630
 4753TIP3    H135894   0.819   5.813   0.486 -0.0807 -0.1399  0.6671
 4753TIP3    H235895   0.966   5.787   0.508 -0.0583 -0.9111 -0.3411
 4754TIP3   OH235896   2.734   2.423   7.845 -0.8839 -0.3180 -0.1088
 4754TIP3    H135897   2.814   2.464   7.877 -0.5635 -0.7535 -0.3505
 4754TIP3    H235898   2.706   2.480   7.773 -0.0439 -0.9107 -0.9186
 4755TIP3   OH235899   6.751   2.524   0.854  0.3530 -0.2035 -0.4636
 4755TIP3    H135900   6.708   2.593   0.803  1.4996  2.5440  1.9591
 4755TIP3    H235901   6.844   2.534   0.835  0.5377 -1.1031 -0.0859
 4756TIP3   OH235902   3.143   2.364   1.289  0.7840  0.2958 -0.0895
 4756TIP3    H135903   3.049   2.377   1.297  0.8659  1.4734 -0.8119
 4756TIP3    H235904   3.171   2.339   1.377  0.0744  1.8713  0.6272
 4757TIP3   OH235905   0.142   6.366   1.258 -0.6535 -0.2864 -0.3268
 4757TIP3    H135906   0.107   6.379   1.170 -2.4421  0.6415  0.4860
 4757TIP3    H235907   0.143   6.453   1.297  0.5324 -0.6247  0.4516
 4758TIP3   OH235908   0.309   6.585   7.667 -0.5463 -0.6636 -0.3168
 4758TIP3    H135909   0.287   6.673   7.638  1.3783  0.4871  1.4329
 4758TIP3    H235910   0.383   6.558   7.613  0.3174 -0.2419  0.6186
 4759TIP3   OH235911   5.853   4.423   0.625 -0.5122 -0.1749  0.1548
 4759TIP3    H135912   5.872   4.513   0.652 -2.1149 -0.7328  3.8093
 4759TIP3    H235913   5.802   4.432   0.545  1.3340  1.9720 -0.9076
 4760TIP3   OH235914   2.990   4.561   8.185  0.6100 -0.0443  0.0654
 4760TIP3    H135915   3.055   4.624   8.214 -0.5489  0.3376  2.0262
 4760TIP3    H235916   3.027   4.523   8.106  4.2379 -1.3949  2.1576
 4761TIP3   OH235917   5.670   6.325   8.489  0.1476 -0.0607 -0.2216
 4761TIP3    H135918   5.581   6.337   8.455  0.5981 -0.0124 -1.4287
 4761TIP3    H235919   5.666   6.241   8.536 -0.6251  0.1217  0.0491
 4762TIP3   OH235920   4.634   2.076   0.807 -0.2699 -0.3424  0.4299
 4762TIP3    H135921   4.613   2.146   0.746 -0.5500  0.1522  1.0843
 4762TIP3    H235922   4.720   2.045   0.779 -1.3115 -1.6265 -1.5764
 4763TIP3   OH235923   3.700   3.997   2.260 -0.0931 -0.1184  0.0877
 4763TIP3    H135924   3.741   4.016   2.345 -1.7188 -0.5498  1.0087
 4763TIP3    H235925   3.665   4.081   2.231  1.5350  0.2922 -0.7945
 4764TIP3   OH235926   6.092   4.985   8.302  0.6770  0.1912 -0.5358
 4764TIP3    H135927   6.056   4.897   8.319 -0.8864  0.8183 -0.4140
 4764TIP3    H235928   6.185   4.970   8.287  0.8076 -1.2698  1.3841
 4765TIP3   OH235929   5.374   4.009   8.612 -0.0982 -0.2133 -0.0073
 4765TIP3    H135930   5.460   4.051   8.616 -0.9741  1.6498  0.9756
 4765TIP3    H235931   5.366   3.963   8.695 -0.3536  0.3395  0.2862
 4766TIP3   OH235932   4.949   4.758   7.060 -0.3101  0.1665  0.4103
 4766TIP3    H135933   4.939   4.801   7.145 -1.2015  0.4530  0.1700
 4766TIP3    H235934   4.864   4.718   7.043  0.3808 -1.3848  0.4421
 4767TIP3   OH235935   6.002   4.214   0.533 -0.1184 -0.5539 -0.0261
 4767TIP3    H135936   6.072   4.197   0.596  0.4611 -0.0962 -0.5384
 4767TIP3    H235937   5.949   4.283   0.574 -0.6234 -1.3097  0.6229
 4768TIP3   OH235938   6.676   1.001   7.752  0.6304  0.3504  0.6752
 4768TIP3    H135939   6.738   1.054   7.802 -0.5978  1.8620  0.7146
 4768TIP3    H235940   6.592   1.014   7.797 -0.0323 -0.2316 -0.3400
 4769TIP3   OH235941   2.141   5.403   8.016 -0.1839  0.0132  0.1499
 4769TIP3    H135942   2.203   5.372   8.082  0.8113  1.2287 -0.1723
 4769TIP3    H235943   2.196   5.446   7.950 -1.3025  0.3362 -0.6024
 4770TIP3   OH235944   3.343   3.518   7.781  0.0343 -0.2679  0.3018
 4770TIP3    H135945   3.306   3.490   7.697 -0.9902 -1.1060  1.0064
 4770TIP3    H235946   3.409   3.451   7.802 -0.0277 -0.3061  0.3762
 4771TIP3   OH235947   5.444   1.409   8.035 -0.3250  0.3760  0.1376
 4771TIP3    H135948   5.502   1.349   7.987 -1.0427  1.2038 -1.8600
 4771TIP3    H235949   5.445   1.376   8.125  1.2303 -1.1435 -0.3804
 4772TIP3   OH235950   4.140   0.415   2.371 -0.2422  0.3385  0.4835
 4772TIP3    H135951   4.184   0.356   2.310 -1.0966  0.2343 -0.0406
 4772TIP3    H235952   4.203   0.486   2.384  0.7777 -0.6461  1.0878
 4773TIP3   OH235953   0.210   4.867   6.889 -0.0772 -0.2780 -0.5490
 4773TIP3    H135954   0.120   4.835   6.878 -1.1311  1.8662  1.0611
 4773TIP3    H235955   0.244   4.873   6.800 -0.7229 -3.1038 -1.0898
 4774TIP3   OH235956   0.651   0.740   8.111  0.2676  0.7769  0.0601
 4774TIP3    H135957   0.563   0.777   8.105 -0.0987 -0.1330 -0.4878
 4774TIP3    H235958   0.647   0.678   8.184 -0.0710 -0.5418 -1.0225
 4775TIP3   OH235959   1.462   6.652   1.909 -0.3890 -0.0977  0.0722
 4775TIP3    H135960   1.554   6.680   1.914 -0.3013 -0.4579  0.4817
 4775TIP3    H235961   1.414   6.723   1.952 -0.4033  0.5180 -0.9065
 4776TIP3   OH235962   2.375   1.110   7.649 -0.0815  0.0160  0.1959
 4776TIP3    H135963   2.366   1.027   7.603  0.3057  1.3437 -2.5166
 4776TIP3    H235964   2.286   1.145   7.653 -0.1203 -0.1171  0.4670
 4777TIP3   OH235965   2.470   2.089   0.015 -0.3970  0.0640 -0.9189
 4777TIP3    H135966   2.564   2.072   0.017  0.0137  1.8640 -2.2403
 4777TIP3    H235967   2.455   2.133  -0.069 -2.5840 -0.9411 -1.1386
 4778TIP3   OH235968   0.554   2.638   0.654 -0.2545  0.0718  0.0512
 4778TIP3    H135969   0.618   2.679   0.712 -0.4973  0.1821  0.2436
 4778TIP3    H235970   0.548   2.697   0.579  2.1457 -1.4455 -1.4534
 4779TIP3   OH235971   0.648   2.352   6.925 -0.2542  0.4009 -0.0789
 4779TIP3    H135972   0.698   2.392   6.996 -1.9370 -0.3417  1.6090
 4779TIP3    H235973   0.603   2.279   6.966 -4.5066  2.2967 -0.8074
 4780TIP3   OH235974   5.116   5.110   8.391  0.9146  0.3484  0.2196
 4780TIP3    H135975   5.108   5.152   8.305  0.6388  0.7928  0.4573
 4780TIP3    H235976   5.119   5.016   8.372  0.8271  0.4411 -0.2730
 4781TIP3   OH235977   0.199   0.259   8.027  0.4264 -0.1710  0.1485
 4781TIP3    H135978   0.225   0.215   8.107  0.2092  0.4971  0.5980
 4781TIP3    H235979   0.114   0.223   8.005  0.2826 -0.0345  0.4733
 4782TIP3   OH235980   4.662   1.458   1.663 -0.0273  0.4558 -0.5023
 4782TIP3    H135981   4.643   1.409   1.583 -0.1461  0.2467 -0.3468
 4782TIP3    H235982   4.694   1.393   1.724 -1.2988  0.3566  0.0943
 4783TIP3   OH235983   0.894   1.150   1.019  0.1232 -0.4743  0.1265
 4783TIP3    H135984   0.917   1.168   1.110 -1.2791  0.8790  0.2434
 4783TIP3    H235985   0.973   1.110   0.982  2.0936  2.3778  0.9333
 4784TIP3   OH235986   4.156   5.273   8.467  0.2055 -0.5694 -0.0381
 4784TIP3    H135987   4.239   5.278   8.514 -0.7670 -1.7949  1.9796
 4784TIP3    H235988   4.180   5.254   8.377  2.1876  2.0342 -0.1717
 4785TIP3   OH235989   0.763   2.354   7.779 -0.2232 -0.2754 -0.1119
 4785TIP3    H135990   0.845   2.334   7.824  0.1279  0.7523 -0.2613
 4785TIP3    H235991   0.699   2.296   7.819  0.0597  0.6270  1.7782
 4786TIP3   OH235992   0.692   3.034   8.293  0.1339 -0.0197  0.4417
 4786TIP3    H135993   0.729   3.001   8.375 -2.2184 -1.7860  0.8947
 4786TIP3    H235994   0.722   2.973   8.226  2.5440  1.7518 -0.2329
 4787TIP3   OH235995   5.317   2.710   6.319 -0.1377  0.0735 -0.2812
 4787TIP3    H135996   5.366   2.719   6.401  0.6822 -0.7636 -0.6570
 4787TIP3    H235997   5.347   2.783   6.265 -0.9586  0.8536  0.2710
 4788TIP3   OH235998   6.138   2.253   8.347  0.4790  0.0035  0.1888
 4788TIP3    H135999   6.188   2.262   8.266 -0.6025  1.0047 -0.3803
 4788TIP3    H236000   6.204   2.259   8.416  1.2324  0.6104 -0.5636
 4789TIP3   OH236001   0.488   0.496   7.557 -0.3662 -0.0253 -0.4030
 4789TIP3    H136002   0.394   0.514   7.556 -0.1203  1.5639  0.7498
 4789TIP3    H236003   0.495   0.403   7.577 -1.6954  0.0902  0.7375
 4790TIP3   OH236004   5.670   4.420   7.181  0.7569  0.4583 -0.1780
 4790TIP3    H136005   5.666   4.324   7.180  0.3871  0.4572  0.4547
 4790TIP3    H236006   5.690   4.444   7.091 -1.1217 -0.1412 -0.8185
 4791TIP3   OH236007   3.481   1.529   0.084 -0.1782  0.5178 -0.3966
 4791TIP3    H136008   3.533   1.597   0.042  0.6593  0.3272  0.2950
 4791TIP3    H236009   3.525   1.447   0.061  1.1973  0.5014  1.9943
 4792TIP3   OH236010   2.186   0.721   8.648 -0.1103 -0.3271  0.1063
 4792TIP3    H136011   2.225   0.693   8.566  0.7854  0.8035  0.1255
 4792TIP3    H236012   2.234   0.800   8.672 -0.8272 -0.2437  1.3595
 4793TIP3   OH236013   5.787   1.985   2.338 -0.0540  0.0279  0.3345
 4793TIP3    H136014   5.724   2.020   2.401 -0.3814  0.3177 -0.1395
 4793TIP3    H236015   5.872   1.999   2.378 -0.2347  0.5678  0.5431
 4794TIP3   OH236016   0.862   4.283   2.090  0.0890  0.5531 -0.4174
 4794TIP3    H136017   0.813   4.233   2.024 -1.0559  1.4333 -0.2665
 4794TIP3    H236018   0.839   4.374   2.073  1.8547  1.0203 -0.4472
 4795TIP3   OH236019   2.720   0.543   0.167  0.3573  0.6111  0.2668
 4795TIP3    H136020   2.796   0.521   0.113 -0.4429 -0.6148 -0.4194
 4795TIP3    H236021   2.755   0.598   0.237  1.7052  0.8548 -0.5609
 4796TIP3   OH236022   2.935   4.718   0.174 -0.2606 -0.0680 -0.5462
 4796TIP3    H136023   2.884   4.767   0.110  0.1028 -0.0951 -0.8607
 4796TIP3    H236024   2.890   4.733   0.257 -0.1515  0.8075 -0.6347
 4797TIP3   OH236025   5.321   1.645   1.546 -0.2591 -0.1660 -0.0940
 4797TIP3    H136026   5.255   1.580   1.522  0.3828 -1.6039  1.8249
 4797TIP3    H236027   5.348   1.621   1.634  0.6031  2.2529  0.3891
 4798TIP3   OH236028   6.120   3.176   7.808  0.0612 -0.5902  0.2488
 4798TIP3    H136029   6.216   3.170   7.801  0.0179 -0.9094 -0.1187
 4798TIP3    H236030   6.102   3.270   7.797  0.5927  0.0996  4.0344
 4799TIP3   OH236031   2.338   4.228   7.845 -0.0515  0.0614 -0.0776
 4799TIP3    H136032   2.278   4.154   7.853  0.5739 -0.3347  1.2568
 4799TIP3    H236033   2.288   4.304   7.874  0.2748 -0.3791  1.7136
 4800TIP3   OH236034   5.870   6.596   2.051 -0.1933  0.1974 -0.3111
 4800TIP3    H136035   5.944   6.564   2.000 -0.8995 -0.0777 -1.1752
 4800TIP3    H236036   5.901   6.590   2.142  0.9624  0.4135 -0.6656
 4801TIP3   OH236037   2.256   4.610   2.473 -0.0865  0.0770  0.1302
 4801TIP3    H136038   2.347   4.625   2.500  0.2811  0.2438 -1.1180
 4801TIP3    H236039   2.205   4.621   2.553  0.9417  0.4901  0.7527
 4802TIP3   OH236040   5.505   6.695   1.080 -1.1638 -0.3939 -0.5556
 4802TIP3    H136041   5.500   6.601   1.063 -2.7723 -0.1912 -1.4015
 4802TIP3    H236042   5.414   6.726   1.073 -0.4269  1.5962 -2.6320
 4803TIP3   OH236043   2.095   5.701   7.532  0.3074 -0.3903 -0.3809
 4803TIP3    H136044   2.049   5.618   7.531 -1.9888  0.7741  1.0801
 4803TIP3    H236045   2.027   5.767   7.542  2.1269  1.6241 -0.4036
 4804TIP3   OH236046   4.656   0.010   0.698  1.0243  0.0763  0.0398
 4804TIP3    H136047   4.730  -0.039   0.732  0.3319  0.0999  1.6689
 4804TIP3    H236048   4.585  -0.007   0.760  0.0621  1.1607 -0.7092
 4805TIP3   OH236049   6.026   6.899   2.216  0.0317  0.3521  0.3994
 4805TIP3    H136050   6.078   6.821   2.198  0.3542  1.3140 -3.9075
 4805TIP3    H236051   6.089   6.971   2.217 -0.7561  1.1207 -1.3091
 4806TIP3   OH236052   1.359   3.978   0.618 -0.0633  0.2108  0.4150
 4806TIP3    H136053   1.407   3.978   0.536 -0.9343  0.5402 -0.1108
 4806TIP3    H236054   1.267   3.968   0.593 -0.1765 -2.1701  1.4866
 4807TIP3   OH236055   0.830   0.468   1.241 -0.0138 -0.5165  0.2407
 4807TIP3    H136056   0.804   0.421   1.320 -0.5802 -1.0268 -0.2388
 4807TIP3    H236057   0.909   0.422   1.211 -1.2787 -2.0642 -0.9473
 4808TIP3   OH236058   3.383   4.455   8.570  0.4017  0.1622  0.5325
 4808TIP3    H136059   3.449   4.524   8.560  0.7870 -0.2202  0.4368
 4808TIP3    H236060   3.389   4.404   8.490 -0.5982  0.6212  0.1429
 4809TIP3   OH236061   1.852   1.210   2.213 -0.7433  0.8293 -0.4456
 4809TIP3    H136062   1.926   1.238   2.267 -1.7935 -0.7428  1.9444
 4809TIP3    H236063   1.783   1.272   2.233 -0.9575  0.6059 -0.4956
 4810TIP3   OH236064   0.015   0.003   8.004  0.0748  0.0795  0.7155
 4810TIP3    H136065   0.040  -0.069   7.946  1.2751  1.2304 -0.2661
 4810TIP3    H236066   0.080   0.001   8.074 -0.4263 -0.3185  1.1820
 4811TIP3   OH236067   4.596   2.659   2.615 -0.0657 -0.8771  0.2243
 4811TIP3    H136068   4.632   2.706   2.691  0.9733  2.3522 -2.0437
 4811TIP3    H236069   4.519   2.711   2.589  0.0252 -1.4797 -1.3501
 4812TIP3   OH236070   3.836   2.690   2.167  0.1216 -0.2168 -0.3368
 4812TIP3    H136071   3.752   2.661   2.204  0.4187 -1.4541 -0.5943
 4812TIP3    H236072   3.824   2.784   2.153 -0.5610 -0.0014  1.3990
 4813TIP3   OH236073   2.466   0.742   1.317  0.7338 -0.4341 -0.3171
 4813TIP3    H136074   2.494   0.811   1.256 -1.7512 -0.6641 -1.8602
 4813TIP3    H236075   2.414   0.682   1.263  0.0787 -1.7382  1.6619
 4814TIP3   OH236076   5.808   2.846   8.352 -0.0864 -0.0125 -0.2455
 4814TIP3    H136077   5.900   2.870   8.339 -1.0275  2.8440 -2.6978
 4814TIP3    H236078   5.788   2.786   8.281 -0.3664  0.2143 -0.3616
 4815TIP3   OH236079   0.046   4.356   0.107 -0.0116 -0.7729 -0.4363
 4815TIP3    H136080   0.133   4.364   0.144 -0.2787  0.0419  0.0368
 4815TIP3    H236081   0.018   4.446   0.090 -1.4460 -0.8687  1.0711
 4816TIP3   OH236082   5.868   0.985   7.580 -0.5034  0.2014 -0.0880
 4816TIP3    H136083   5.884   1.046   7.508 -0.1774  0.8031  0.4837
 4816TIP3    H236084   5.888   0.899   7.543  0.8069  0.6113 -0.3731
 4817TIP3   OH236085   4.384   3.116   1.107 -0.8424  0.4608 -0.2025
 4817TIP3    H136086   4.303   3.076   1.138 -1.0666  1.7227  0.9005
 4817TIP3    H236087   4.431   3.044   1.064 -1.2907 -0.9562  1.5607
 4818TIP3   OH236088   1.523   5.045   8.407 -0.4943 -0.5843 -0.6473
 4818TIP3    H136089   1.586   5.058   8.336  0.3148 -0.6463  0.0358
 4818TIP3    H236090   1.578   5.022   8.483 -1.3085 -0.1538  0.0838
 4819TIP3   OH236091   6.393   1.779   8.303 -0.1814 -0.5485 -0.5717
 4819TIP3    H136092   6.333   1.710   8.332  0.0294 -0.9617 -1.0929
 4819TIP3    H236093   6.338   1.857   8.295 -0.3089 -0.5081  0.5805
 4820TIP3   OH236094   4.758   3.181   1.329 -0.0001  0.3553  0.3689
 4820TIP3    H136095   4.716   3.250   1.276  1.5706  1.4871  0.5260
 4820TIP3    H236096   4.711   3.101   1.305 -0.8444  1.2135 -1.0160
 4821TIP3   OH236097   0.507   4.638   0.597  0.1677  0.5644 -0.3269
 4821TIP3    H136098   0.449   4.690   0.542  0.5939  1.8704  0.4354
 4821TIP3    H236099   0.486   4.664   0.686  2.1111  1.2880 -0.0418
 4822TIP3   OH236100   5.002   1.142   8.558  0.8007  0.4116  0.2957
 4822TIP3    H136101   4.928   1.081   8.565  1.3208 -0.4555 -1.3539
 4822TIP3    H236102   5.061   1.114   8.629 -0.3411  1.0249  1.5425
 4823TIP3   OH236103   4.644   5.437   1.010  0.6677  0.3459 -0.1861
 4823TIP3    H136104   4.553   5.464   1.021  0.9906  1.7431 -0.7326
 4823TIP3    H236105   4.695   5.512   1.041  1.6093  0.7826 -2.5640
 4824TIP3   OH236106   0.090   2.417   0.374  0.5374 -0.0210 -0.4975
 4824TIP3    H136107   0.062   2.427   0.283 -0.1825 -0.2588 -0.3162
 4824TIP3    H236108   0.178   2.453   0.377  1.2525 -1.5720 -1.6649
 4825TIP3   OH236109   4.835   3.177   0.520 -0.1329 -0.0323 -0.1310
 4825TIP3    H136110   4.820   3.170   0.426  0.2270 -1.9092 -0.1003
 4825TIP3    H236111   4.827   3.270   0.539 -1.5139  0.2418 -1.7826
 4826TIP3   OH236112   6.324   1.252   6.904  0.4000 -0.0619 -0.2844
 4826TIP3    H136113   6.353   1.340   6.926 -0.2183  0.4254 -1.3450
 4826TIP3    H236114   6.273   1.223   6.980 -1.8625  1.6448 -1.0416
 4827TIP3   OH236115   5.605   5.745   6.604  0.1108 -0.8141  0.1560
 4827TIP3    H136116   5.562   5.797   6.536 -3.2975 -2.5141  0.8283
 4827TIP3    H236117   5.678   5.703   6.558  1.0728  1.9549 -1.1322
 4828TIP3   OH236118   0.793   6.419   1.653  0.0691 -0.0231  0.3553
 4828TIP3    H136119   0.767   6.503   1.690  0.6192  0.0275  0.6447
 4828TIP3    H236120   0.875   6.397   1.699  1.2675  0.4557 -1.4557
 4829TIP3   OH236121   1.878   1.062   0.072 -0.0573 -0.4267 -0.2745
 4829TIP3    H136122   1.843   1.021   0.151 -1.8186  2.3420  0.5090
 4829TIP3    H236123   1.971   1.074   0.091 -0.5849  0.9321  1.8211
 4830TIP3   OH236124   6.580   3.791   2.353 -0.1056  0.2054 -0.2944
 4830TIP3    H136125   6.630   3.873   2.358 -1.2113  0.8252  0.9451
 4830TIP3    H236126   6.492   3.814   2.383 -1.1834 -0.8705 -2.4565
 4831TIP3   OH236127   2.169   2.447   7.883 -0.7018 -0.0407 -0.4974
 4831TIP3    H136128   2.095   2.402   7.923 -0.3050 -0.8167 -0.6048
 4831TIP3    H236129   2.244   2.421   7.936 -0.7347  2.2313  0.7648
 4832TIP3   OH236130   1.930   5.103   1.878  0.1393  1.0544 -0.2760
 4832TIP3    H136131   1.858   5.103   1.815  0.7288 -0.2085 -0.9713
 4832TIP3    H236132   1.981   5.025   1.857  2.1017  2.2663 -0.2233
 4833TIP3   OH236133   2.103   5.121   0.951 -0.1393 -0.2699  0.2324
 4833TIP3    H136134   2.153   5.072   1.017 -1.4448 -1.6163  0.2842
 4833TIP3    H236135   2.015   5.128   0.989 -0.3038  1.0511 -0.3413
 4834TIP3   OH236136   0.370   1.810   6.267  0.0331  0.6447 -0.0626
 4834TIP3    H136137   0.343   1.901   6.260 -0.3844  0.4763 -0.8117
 4834TIP3    H236138   0.450   1.812   6.319 -3.0998  0.8532  5.5042
 4835TIP3   OH236139   5.695   5.104   6.978  0.3675  0.1952  0.1460
 4835TIP3    H136140   5.721   5.038   6.913  0.5311  1.6860 -1.3996
 4835TIP3    H236141   5.616   5.143   6.941 -0.1760  0.3398  1.4321
 4836TIP3   OH236142   0.915   6.198   1.948 -1.4327  0.3983  0.2851
 4836TIP3    H136143   0.927   6.190   2.043  0.7774 -0.1123  0.0042
 4836TIP3    H236144   0.881   6.112   1.922  1.3232 -0.7722  0.2113
 4837TIP3   OH236145   2.959   5.160   7.251 -0.4853  0.3145 -0.0771
 4837TIP3    H136146   2.922   5.196   7.332 -0.7201 -0.1810  0.0406
 4837TIP3    H236147   2.919   5.212   7.181 -0.5424  0.5211  0.1058
 4838TIP3   OH236148   2.126   4.399   2.361 -0.0084 -0.5090 -0.2069
 4838TIP3    H136149   2.042   4.435   2.330  0.3926  0.9530  0.3672
 4838TIP3    H236150   2.168   4.471   2.407  1.4166 -1.3407 -0.1551
 4839TIP3   OH236151   1.325   0.123   7.506 -0.6955 -0.1375  0.4891
 4839TIP3    H136152   1.247   0.098   7.457 -1.8242  1.0710  1.5712
 4839TIP3    H236153   1.391   0.142   7.439 -0.4594 -3.5154 -0.4286
 4840TIP3   OH236154   1.573   5.891   8.392 -0.6713  0.2564 -0.7694
 4840TIP3    H136155   1.607   5.851   8.312  0.0701  0.2222 -0.4479
 4840TIP3    H236156   1.649   5.935   8.430 -1.4066  1.7732 -0.9884
 4841TIP3   OH236157   4.004   3.610   1.843 -0.5384 -0.4873 -0.1038
 4841TIP3    H136158   4.024   3.698   1.874  1.7931 -1.3465  1.0442
 4841TIP3    H236159   4.069   3.592   1.775 -0.5109 -1.5862  0.1872
 4842TIP3   OH236160   1.372   0.908   1.472 -0.3713 -0.4974 -0.6427
 4842TIP3    H136161   1.315   0.919   1.395 -2.3066 -0.5386  0.7071
 4842TIP3    H236162   1.314   0.923   1.547  1.7948  1.1501  0.8243
 4843TIP3   OH236163   5.248   2.676   1.351  0.0490  0.4392 -0.1427
 4843TIP3    H136164   5.312   2.738   1.315  0.2391  0.1701 -0.2751
 4843TIP3    H236165   5.215   2.718   1.430  1.3197  0.0467  0.6256
 4844TIP3   OH236166   1.434   3.179   1.343 -0.1975 -0.2389  0.1707
 4844TIP3    H136167   1.520   3.143   1.321 -0.9463 -2.2986  0.3348
 4844TIP3    H236168   1.452   3.265   1.380  1.5599  0.6973 -2.5847
 4845TIP3   OH236169   2.115   0.550   0.189  0.8287  0.0183  0.4431
 4845TIP3    H136170   2.178   0.530   0.258  2.2578  0.1772 -0.7745
 4845TIP3    H236171   2.161   0.610   0.131 -1.0711  1.6201  0.4562
 4846TIP3   OH236172   6.792   2.858   7.876  0.3027  0.6139 -0.1643
 4846TIP3    H136173   6.723   2.793   7.863 -0.5652  1.6453 -0.8067
 4846TIP3    H236174   6.872   2.812   7.850 -0.1987 -0.4186  0.0569
 4847TIP3   OH236175   2.104   4.799   8.247  0.7774 -0.1631 -0.1155
 4847TIP3    H136176   2.039   4.762   8.186  0.2996 -1.7747  1.2809
 4847TIP3    H236177   2.097   4.893   8.237 -0.5238 -0.3636 -1.2849
 4848TIP3   OH236178   6.109   3.112   0.029 -0.0509 -0.5803 -0.0569
 4848TIP3    H136179   6.040   3.178   0.033  1.0483  0.7137 -1.4224
 4848TIP3    H236180   6.165   3.132   0.104 -0.6342 -1.0595  0.5205
 4849TIP3   OH236181   2.683   2.918   2.305 -0.0370 -0.1119 -0.2857
 4849TIP3    H136182   2.658   3.008   2.282 -0.8466  0.1214  1.3703
 4849TIP3    H236183   2.601   2.878   2.334  1.1033  0.2916  4.1840
 4850TIP3   OH236184   0.782   1.945   0.121 -0.0637 -0.3420 -0.2028
 4850TIP3    H136185   0.772   1.953   0.026  2.5964 -0.0240 -0.5211
 4850TIP3    H236186   0.806   1.854   0.136 -0.1169 -0.3047  0.1199
 4851TIP3   OH236187   5.233   1.109   2.096  0.1508 -0.6326  0.4278
 4851TIP3    H136188   5.139   1.125   2.093  0.4448  1.2165 -0.4283
 4851TIP3    H236189   5.244   1.041   2.163 -1.6839 -0.1396  1.2852
 4852TIP3   OH236190   4.272   5.717   0.425 -0.2785 -0.0003  0.4766
 4852TIP3    H136191   4.251   5.702   0.333  0.8070 -0.3995  0.2716
 4852TIP3    H236192   4.237   5.804   0.443  0.5469  0.6103 -0.6784
 4853TIP3   OH236193   1.172   1.449   2.874 -0.6194  0.3351  0.3550
 4853TIP3    H136194   1.261   1.423   2.898 -0.8031 -0.5412  0.1477
 4853TIP3    H236195   1.128   1.366   2.853 -0.7631  0.9298 -1.9753
 4854TIP3   OH236196   4.174   3.718   0.471  0.2065 -0.1236 -0.0895
 4854TIP3    H136197   4.107   3.730   0.539 -0.2920  0.4109 -0.6623
 4854TIP3    H236198   4.214   3.634   0.492 -0.7755 -0.5488  0.1555
 4855TIP3   OH236199   4.385   0.137   6.188  0.0564  0.3807  0.2891
 4855TIP3    H136200   4.330   0.195   6.241  1.4503 -0.2297  2.5632
 4855TIP3    H236201   4.449   0.196   6.147 -1.7775  1.0105 -1.8524
 4856TIP3   OH236202   4.866   5.863   8.516 -0.0494  0.1968 -0.1153
 4856TIP3    H136203   4.892   5.897   8.431  2.4468 -1.5562 -0.1508
 4856TIP3    H236204   4.788   5.811   8.499  0.0374  0.4072 -1.1971
 4857TIP3   OH236205   1.976   0.643   7.116 -0.0392 -0.2011  0.3405
 4857TIP3    H136206   1.927   0.720   7.146 -0.3121 -0.5980  0.9374
 4857TIP3    H236207   1.909   0.580   7.090  0.0849 -1.1349  2.1246
 4858TIP3   OH236208   3.421   1.639   2.076 -0.3239 -0.1239  0.1049
 4858TIP3    H136209   3.511   1.636   2.043 -0.7220 -2.4370 -0.9609
 4858TIP3    H236210   3.431   1.640   2.171  0.8314 -0.4135  0.0023
 4859TIP3   OH236211   3.818   3.791   6.832  0.4035  0.0052  0.1276
 4859TIP3    H136212   3.729   3.826   6.836 -0.5681 -1.8096 -2.5677
 4859TIP3    H236213   3.874   3.867   6.848 -1.5889  1.4630  0.6330
 4860TIP3   OH236214   1.458   3.695   2.600  0.0272  0.5306  0.2791
 4860TIP3    H136215   1.428   3.614   2.640  1.2868  0.4589  1.1738
 4860TIP3    H236216   1.516   3.667   2.529 -0.2344  0.6573  0.0124
 4861TIP3   OH236217   4.676   3.051   1.589 -0.3036  0.5916 -0.0100
 4861TIP3    H136218   4.602   3.107   1.610 -0.1903  0.3880  1.0003
 4861TIP3    H236219   4.637   2.965   1.572 -0.3229  0.5118  0.4112
 4862TIP3   OH236220   6.565   6.381   1.613 -0.0937  0.0265  0.0923
 4862TIP3    H136221   6.608   6.410   1.534 -0.1391  0.4519  0.2236
 4862TIP3    H236222   6.633   6.381   1.680 -0.6596  2.5352  0.7612
 4863TIP3   OH236223   3.363   3.689   0.856  0.2066 -0.3166 -0.3767
 4863TIP3    H136224   3.454   3.705   0.831 -0.2349  2.8795 -0.3618
 4863TIP3    H236225   3.322   3.776   0.857 -3.0722 -1.6657 -1.1644
 4864TIP3   OH236226   6.364   5.455   0.009  0.5570  0.1873  0.0709
 4864TIP3    H136227   6.448   5.468   0.054  0.4832  2.8290 -0.3697
 4864TIP3    H236228   6.298   5.478   0.074  0.2306 -0.2842 -0.0872
 4865TIP3   OH236229   5.771   1.232   1.478 -0.3713  0.8050  0.5286
 4865TIP3    H136230   5.824   1.302   1.440  2.0055  0.2949  2.5845
 4865TIP3    H236231   5.732   1.271   1.556 -2.8228  1.0455 -0.7373
 4866TIP3   OH236232   5.346   2.389   6.457  0.3851 -0.4036 -0.1849
 4866TIP3    H136233   5.321   2.467   6.407  1.5540 -0.8602 -1.5651
 4866TIP3    H236234   5.347   2.318   6.392 -0.3550 -1.5285  0.9758
 4867TIP3   OH236235   2.387   3.620   8.487 -0.3215 -0.5908 -0.1776
 4867TIP3    H136236   2.432   3.539   8.463  0.9299  0.3287 -1.0525
 4867TIP3    H236237   2.422   3.643   8.572 -0.6401 -0.9304  0.0485
 4868TIP3   OH236238   4.462   4.400   7.559 -0.3849  0.2424  0.0937
 4868TIP3    H136239   4.504   4.403   7.473 -1.6321 -0.4843 -0.5698
 4868TIP3    H236240   4.457   4.307   7.580 -1.5362  0.3123  0.2002
 4869TIP3   OH236241   2.596   2.557   8.143  0.0974 -0.3373 -0.0632
 4869TIP3    H136242   2.539   2.630   8.167 -0.4944 -0.9388  0.3973
 4869TIP3    H236243   2.684   2.588   8.162  0.2003  1.4507 -2.8389
 4870TIP3   OH236244   5.111   1.443   0.464  0.2477  0.0309 -0.3520
 4870TIP3    H136245   5.103   1.370   0.403 -0.0476  0.2669 -0.6057
 4870TIP3    H236246   5.203   1.445   0.488  0.3600 -0.0917 -0.7618
 4871TIP3   OH236247   5.030   6.451   2.224  0.0307 -0.2576 -0.3562
 4871TIP3    H136248   5.073   6.489   2.301 -1.6256 -0.0441  0.5246
 4871TIP3    H236249   5.007   6.526   2.169 -0.1278 -0.2789 -0.3200
 4872TIP3   OH236250   6.368   2.040   2.135 -0.9529  0.1405  1.0086
 4872TIP3    H136251   6.389   1.952   2.103 -0.2148  0.6727 -0.0283
 4872TIP3    H236252   6.387   2.036   2.229  2.0576 -0.0173  0.4959
 4873TIP3   OH236253   2.671   5.763   1.637  0.3741  0.0174  0.5089
 4873TIP3    H136254   2.663   5.851   1.599  1.0131  0.6336  1.7427
 4873TIP3    H236255   2.583   5.742   1.666  0.2400  0.2954  0.3153
 4874TIP3   OH236256   2.954   1.682   8.082 -0.0497 -0.3346  0.0577
 4874TIP3    H136257   2.870   1.716   8.051 -0.2471 -1.2291 -0.4060
 4874TIP3    H236258   3.004   1.665   8.002  0.9494  1.0897  0.3484
 4875TIP3   OH236259   4.870   0.562   6.575 -0.4238  0.0534 -0.5892
 4875TIP3    H136260   4.889   0.593   6.664 -2.2656 -1.1317  0.2568
 4875TIP3    H236261   4.790   0.608   6.550  0.0061  0.2829 -1.6216
 4876TIP3   OH236262   0.837   5.175   8.313 -0.1834 -0.0106  0.0170
 4876TIP3    H136263   0.816   5.093   8.270  1.3385 -0.0760 -0.6254
 4876TIP3    H236264   0.927   5.165   8.345  0.3915  1.7275 -0.9207
 4877TIP3   OH236265   2.761   3.973   8.512  0.4440 -0.8323 -0.4334
 4877TIP3    H136266   2.691   3.926   8.467  0.2235 -0.7678 -0.1589
 4877TIP3    H236267   2.786   3.917   8.585  0.1058 -0.4745 -0.0427
 4878TIP3   OH236268   2.520   5.845   8.442  0.5046  0.1739  0.2632
 4878TIP3    H136269   2.508   5.936   8.416  2.4201  0.2042 -0.6808
 4878TIP3    H236270   2.506   5.845   8.537  0.0416  1.3396  0.2111
 4879TIP3   OH236271   1.300   2.830   0.503 -1.0231  0.4288  0.1152
 4879TIP3    H136272   1.345   2.789   0.429 -2.9396 -3.9500  1.0536
 4879TIP3    H236273   1.360   2.898   0.532  1.4833 -0.1220 -3.1365
 4880TIP3   OH236274   0.154   6.710   1.972  0.4670  0.8509 -0.3406
 4880TIP3    H136275   0.134   6.803   1.983  1.2689  0.9968 -0.0379
 4880TIP3    H236276   0.112   6.686   1.890 -3.7060  0.3092  1.6622
 4881TIP3   OH236277   1.816   2.564   7.776  0.3073  0.6513  0.6862
 4881TIP3    H136278   1.889   2.581   7.717 -0.3158  0.9246 -0.0242
 4881TIP3    H236279   1.784   2.650   7.800  0.5654  0.5421  1.4496
 4882TIP3   OH236280   3.159   4.823   7.917  0.4261  0.0578 -0.8631
 4882TIP3    H136281   3.158   4.760   7.845  1.4611  0.3800 -1.1758
 4882TIP3    H236282   3.101   4.894   7.888  1.1476  0.3752 -1.5610
 4883TIP3   OH236283   6.766   5.293   7.534 -0.6596  0.2522 -0.0137
 4883TIP3    H136284   6.748   5.250   7.450 -0.7041  0.2477 -0.0014
 4883TIP3    H236285   6.695   5.266   7.591 -2.3455  2.6260 -0.8193
 4884TIP3   OH236286   4.867   0.274   6.768 -0.3528 -0.2572  0.2204
 4884TIP3    H136287   4.934   0.290   6.701 -0.7554 -2.2331 -0.7281
 4884TIP3    H236288   4.858   0.358   6.813  0.9702  0.7394 -1.2530
 4885TIP3   OH236289   0.799   5.213   7.431 -0.0047 -0.3889  0.1973
 4885TIP3    H136290   0.776   5.166   7.352 -0.9588 -2.1052  1.4272
 4885TIP3    H236291   0.716   5.235   7.472  0.4701  0.5629  0.7020
 4886TIP3   OH236292   5.929   4.332   0.307  0.1311 -0.4689 -0.2564
 4886TIP3    H136293   5.952   4.317   0.398 -1.5253  1.5444  0.5831
 4886TIP3    H236294   5.859   4.397   0.310 -1.2650 -1.6715 -2.8806
 4887TIP3   OH236295   0.206   3.849   1.407 -0.4053  0.3755 -0.9435
 4887TIP3    H136296   0.246   3.907   1.343 -0.1428  0.6358 -0.5418
 4887TIP3    H236297   0.274   3.784   1.426 -0.2838  0.6271 -0.5082
 4888TIP3   OH236298   1.420   5.476   1.865  0.2669  0.0730 -0.7578
 4888TIP3    H136299   1.384   5.391   1.839 -1.7478  0.8260 -0.6299
 4888TIP3    H236300   1.484   5.496   1.797 -0.0299 -1.0542 -1.4019
 4889TIP3   OH236301   4.581   0.646   0.202  0.2531 -0.1840 -0.3921
 4889TIP3    H136302   4.608   0.568   0.250 -0.4243  0.6278  1.3805
 4889TIP3    H236303   4.529   0.613   0.129  0.8763 -1.4331 -0.2967
 4890TIP3   OH236304   2.880   2.277   0.763 -0.0316 -0.0795  0.1367
 4890TIP3    H136305   2.954   2.336   0.747 -0.1524 -0.3512 -1.6878
 4890TIP3    H236306   2.821   2.327   0.819 -0.3748  1.8010 -1.7873
 4891TIP3   OH236307   5.611   1.345   1.655  0.1839 -0.2045 -0.0633
 4891TIP3    H136308   5.550   1.322   1.585 -1.9735  1.3665  1.1874
 4891TIP3    H236309   5.640   1.434   1.634 -1.6786  0.9179  1.6835
 4892TIP3   OH236310   3.519   4.705   8.502 -0.2450  0.1238 -0.2458
 4892TIP3    H136311   3.549   4.729   8.414 -0.1603 -0.8252 -0.4877
 4892TIP3    H236312   3.522   4.787   8.551 -0.0952  0.6274 -1.0711
 4893TIP3   OH236313   1.272   6.465   0.227 -0.3672 -0.0228  0.1119
 4893TIP3    H136314   1.323   6.496   0.302  2.3267 -0.3577 -1.4368
 4893TIP3    H236315   1.191   6.431   0.265 -0.5494  2.6872  2.5234
 4894TIP3   OH236316   2.400   6.344   8.073  0.2512  0.0850 -0.4222
 4894TIP3    H136317   2.495   6.341   8.064  0.1869 -2.0277 -1.0325
 4894TIP3    H236318   2.377   6.261   8.116 -1.2075  1.2101  1.1193
 4895TIP3   OH236319   2.117   3.372   0.850 -0.7145  0.0521  0.5161
 4895TIP3    H136320   2.106   3.321   0.930 -0.5101 -2.2419 -0.8272
 4895TIP3    H236321   2.038   3.426   0.845 -0.8776 -0.0103  2.0851
 4896TIP3   OH236322   6.152   0.897   8.188 -0.3962  0.0169  0.7597
 4896TIP3    H136323   6.182   0.971   8.134 -1.0961 -0.8883 -0.9317
 4896TIP3    H236324   6.058   0.912   8.200 -0.4282 -0.2976  0.9142
 4897TIP3   OH236325   1.237   1.268   0.072 -0.1649 -0.9468  0.0054
 4897TIP3    H136326   1.182   1.192   0.093 -1.7323  0.2039  0.2572
 4897TIP3    H236327   1.326   1.240   0.093 -1.0821 -1.4807  3.7718
 4898TIP3   OH236328   6.721   2.887   8.546 -0.4167  0.5461 -0.0764
 4898TIP3    H136329   6.705   2.908   8.638  0.6855  3.3856 -0.4112
 4898TIP3    H236330   6.634   2.871   8.509 -1.0356  1.0419  1.1188
 4899TIP3   OH236331   4.098   3.332   1.500  0.1661  0.2216  0.8435
 4899TIP3    H136332   4.068   3.267   1.436  0.2983 -0.5276  1.5212
 4899TIP3    H236333   4.037   3.406   1.491 -0.7482 -0.5040  0.9009
 4900TIP3   OH236334   0.355   1.005   1.510 -0.5516 -0.2098 -0.1675
 4900TIP3    H136335   0.280   1.020   1.568  0.1620 -1.4234  1.1476
 4900TIP3    H236336   0.420   0.963   1.566 -0.5113 -3.2036 -2.2265
 4901TIP3   OH236337   1.531   3.447   6.528  0.0353  0.0879 -0.7217
 4901TIP3    H136338   1.560   3.508   6.460 -0.3995  1.2341  0.0732
 4901TIP3    H236339   1.610   3.428   6.578  0.2728 -0.4236 -1.2742
 4902TIP3   OH236340   5.568   0.359   1.835  0.0433 -0.4021 -0.1080
 4902TIP3    H136341   5.584   0.358   1.929 -0.4787 -0.3182 -0.0108
 4902TIP3    H236342   5.596   0.273   1.804  1.9690  0.2110 -0.1999
 4903TIP3   OH236343   0.722   5.805   0.174  0.0659 -0.4559 -0.2654
 4903TIP3    H136344   0.701   5.863   0.247  1.7752 -0.2197  0.0777
 4903TIP3    H236345   0.717   5.717   0.211  0.8343 -0.3410  0.1298
 4904TIP3   OH236346   3.350   6.488   8.222 -0.3098 -0.1441  0.2383
 4904TIP3    H136347   3.290   6.509   8.294 -0.7996  1.4696 -0.6078
 4904TIP3    H236348   3.429   6.455   8.266 -0.6816  0.5889  1.5151
 4905TIP3   OH236349   4.359   0.832   0.404 -0.0162 -0.1862 -0.4540
 4905TIP3    H136350   4.422   0.789   0.463  0.7683  0.2189 -0.9735
 4905TIP3    H236351   4.317   0.760   0.357  1.4196 -0.4099 -1.4559
 4906TIP3   OH236352   3.891   3.774   7.371  0.2449  0.3715  0.2468
 4906TIP3    H136353   3.958   3.734   7.426 -0.7165 -1.3286  0.2538
 4906TIP3    H236354   3.929   3.775   7.283  2.4097  4.4881  0.9704
 4907TIP3   OH236355   5.284   0.440   0.749  0.2707  0.3363  0.7509
 4907TIP3    H136356   5.251   0.367   0.696  1.8100 -1.0960  1.6449
 4907TIP3    H236357   5.356   0.477   0.696  2.2381 -1.5032  1.9681
 4908TIP3   OH236358   0.658   6.037   0.329  0.0408 -0.1676  0.0711
 4908TIP3    H136359   0.619   5.977   0.391  1.1689 -1.2497 -0.2227
 4908TIP3    H236360   0.599   6.113   0.328 -0.7022 -0.6991  1.4252
 4909TIP3   OH236361   5.597   5.603   7.973  0.2660  0.0849  0.6583
 4909TIP3    H136362   5.595   5.524   8.027 -0.8458  0.0328  0.5570
 4909TIP3    H236363   5.513   5.603   7.927  0.5830  0.9139  0.0552
 4910TIP3   OH236364   6.779   1.221   7.248 -0.2153 -0.6945  0.1003
 4910TIP3    H136365   6.685   1.204   7.247 -0.3757 -0.1680  2.1029
 4910TIP3    H236366   6.808   1.195   7.335  1.4987 -0.7473 -0.4352
 4911TIP3   OH236367   3.865   1.915   7.604  0.3421 -0.0163  0.1820
 4911TIP3    H136368   3.832   1.929   7.516  1.5991 -0.6312 -0.4142
 4911TIP3    H236369   3.925   1.841   7.596 -0.1995 -0.6797  1.7289
 4912TIP3   OH236370   2.070   5.314   2.355 -0.1850 -0.1191  0.2531
 4912TIP3    H136371   2.143   5.321   2.417 -0.7087  2.0070  0.7343
 4912TIP3    H236372   2.100   5.363   2.278  0.5658 -2.9541 -1.3749
 4913TIP3   OH236373   6.612   0.355   2.875 -0.1866 -0.0225 -0.2571
 4913TIP3    H136374   6.688   0.406   2.845  0.1150 -0.8294 -0.8993
 4913TIP3    H236375   6.632   0.265   2.849 -1.6894 -0.1445 -1.1030
 4914TIP3   OH236376   5.195   3.789   2.145 -0.7751  0.6239  0.7006
 4914TIP3    H136377   5.148   3.868   2.169 -0.0774  0.9672  0.9828
 4914TIP3    H236378   5.287   3.809   2.165 -0.2645  0.5808 -1.3438
 4915TIP3   OH236379   3.049   6.419   0.679 -0.0704 -0.0217  0.4156
 4915TIP3    H136380   3.044   6.385   0.589 -1.8711  1.9664 -0.3046
 4915TIP3    H236381   3.117   6.486   0.675  0.7782 -0.8242  0.9056
 4916TIP3   OH236382   3.397   0.171   1.821 -0.3029 -0.0368  0.0634
 4916TIP3    H136383   3.326   0.108   1.811 -0.4264  0.4554 -3.0802
 4916TIP3    H236384   3.475   0.123   1.793 -0.0404  0.5895 -0.2889
 4917TIP3   OH236385   3.228   5.831   1.279  0.0582  0.1332  0.6781
 4917TIP3    H136386   3.192   5.744   1.260  1.9856 -0.6023  0.0962
 4917TIP3    H236387   3.253   5.827   1.372  0.5368 -0.1045  0.5434
 4918TIP3   OH236388   3.737   1.319   1.899 -0.5582  0.5380 -0.0187
 4918TIP3    H136389   3.673   1.300   1.967 -0.5218  1.0855  0.1699
 4918TIP3    H236390   3.718   1.255   1.830  0.2896 -0.9739  1.0636
 4919TIP3   OH236391   4.994   0.530   7.865 -0.3022 -0.6473  0.1226
 4919TIP3    H136392   4.971   0.440   7.840 -0.5643 -0.6013  0.1922
 4919TIP3    H236393   4.974   0.535   7.958 -1.0021 -0.2973 -0.0367
 4920TIP3   OH236394   4.166   3.617   1.601 -0.2787 -0.3423 -0.0293
 4920TIP3    H136395   4.143   3.607   1.508 -0.2557  1.2752 -0.2233
 4920TIP3    H236396   4.260   3.634   1.601 -0.0042 -1.6737  0.4184
 4921TIP3   OH236397   3.826   5.051   7.329 -0.7907  0.0786 -0.0878
 4921TIP3    H136398   3.832   4.956   7.343  1.3420  0.1606 -0.2165
 4921TIP3    H236399   3.895   5.071   7.267  0.0114  1.9717  1.3127
 4922TIP3   OH236400   0.052   5.462   1.241 -0.2320  0.0062 -0.8177
 4922TIP3    H136401   0.092   5.527   1.182  1.3655  1.6425  1.8506
 4922TIP3    H236402   0.096   5.380   1.219  2.2653  1.1028 -0.2639
 4923TIP3   OH236403   3.361   3.946   0.932 -0.0307  0.2942  0.2921
 4923TIP3    H136404   3.346   3.967   1.024  1.6464 -0.4876  0.7900
 4923TIP3    H236405   3.378   4.030   0.890 -0.3531  0.6093  0.7810
 4924TIP3   OH236406   5.381   1.151   7.676  0.2226  0.0104 -0.1495
 4924TIP3    H136407   5.342   1.066   7.700 -1.4311  0.4864 -0.9846
 4924TIP3    H236408   5.439   1.131   7.603 -0.3175 -0.3858 -0.4771
 4925TIP3   OH236409   1.375   2.590   1.577 -0.2304  0.0470  0.2710
 4925TIP3    H136410   1.453   2.546   1.611 -1.0457 -0.1207  2.0605
 4925TIP3    H236411   1.382   2.680   1.609 -1.1702 -0.1894  1.1971
 4926TIP3   OH236412   6.702   3.419   0.479  0.3980 -0.4056  0.3544
 4926TIP3    H136413   6.628   3.479   0.481  0.3864 -0.4041  2.7546
 4926TIP3    H236414   6.775   3.472   0.448  0.2968  0.7941  2.0076
 4927TIP3   OH236415   6.716   1.817   1.246 -0.0903  0.5828  0.6912
 4927TIP3    H136416   6.716   1.905   1.208 -0.0229  0.7191  0.9996
 4927TIP3    H236417   6.803   1.809   1.285 -0.4466  0.7605  1.5307
 4928TIP3   OH236418   6.192   0.301   7.226  0.2027 -0.0350  0.0191
 4928TIP3    H136419   6.141   0.347   7.293  1.2420  0.8267  0.2565
 4928TIP3    H236420   6.151   0.326   7.143 -0.5175 -0.3634  0.2674
 4929TIP3   OH236421   2.448   0.121   0.052 -0.4781  0.1075 -0.5219
 4929TIP3    H136422   2.508   0.169   0.108 -0.0527 -0.9122 -0.0736
 4929TIP3    H236423   2.362   0.132   0.093 -0.7214  2.0042 -1.4535
 4930TIP3   OH236424   3.354   5.282   7.291 -0.6536  0.0599 -0.0121
 4930TIP3    H136425   3.380   5.374   7.299  0.8998 -0.3322 -0.2483
 4930TIP3    H236426   3.344   5.253   7.382 -1.1777  0.4624  0.0642
 4931TIP3   OH236427   0.923   3.844   1.469  0.6707  0.4725 -0.2310
 4931TIP3    H136428   0.897   3.827   1.379 -0.4028  1.1337 -0.0694
 4931TIP3    H236429   0.895   3.767   1.518 -1.1183  1.1713 -0.0581
 4932TIP3   OH236430   4.652   2.443   2.429 -0.7522  0.0802 -0.2135
 4932TIP3    H136431   4.631   2.523   2.477 -0.4648  1.4089 -2.1743
 4932TIP3    H236432   4.575   2.427   2.374  0.0636  0.3065 -1.4573
 4933TIP3   OH236433   3.400   5.236   8.388 -0.0083 -0.3862 -0.0320
 4933TIP3    H136434   3.416   5.180   8.463  0.2009 -0.4685 -0.1362
 4933TIP3    H236435   3.396   5.325   8.424  2.4901 -0.1443 -0.1926
 4934TIP3   OH236436   1.009   0.925   1.389  0.1311 -0.0795  0.3074
 4934TIP3    H136437   1.016   1.006   1.439  0.3518  0.6763 -0.9181
 4934TIP3    H236438   0.918   0.924   1.358  0.1234 -0.3076  0.3377
 4935TIP3   OH236439   4.994   6.133   0.487  0.1759 -0.0566  0.0455
 4935TIP3    H136440   4.918   6.115   0.431 -0.8166 -0.0671  1.3547
 4935TIP3    H236441   5.005   6.052   0.538  0.6285  0.2067  0.3663
 4936TIP3   OH236442   0.295   6.516   6.746 -0.3967 -0.1949  0.0840
 4936TIP3    H136443   0.321   6.517   6.654 -1.5779  2.4318 -0.2976
 4936TIP3    H236444   0.208   6.477   6.745 -0.6653  0.4048  0.0021
 4937TIP3   OH236445   4.588   2.578   2.101  0.2250  0.0154  0.5244
 4937TIP3    H136446   4.522   2.645   2.084 -0.1297 -0.5735 -0.4189
 4937TIP3    H236447   4.665   2.628   2.130 -0.1760  0.8004  0.2550
 4938TIP3   OH236448   5.303   2.262   8.400 -0.2808 -0.1034  0.2555
 4938TIP3    H136449   5.234   2.205   8.433 -1.0652  0.0773 -0.9711
 4938TIP3    H236450   5.376   2.204   8.382 -1.2363 -0.8692 -1.4500
 4939TIP3   OH236451   6.226   2.091   0.012  0.2051  0.0942  0.0830
 4939TIP3    H136452   6.214   2.038  -0.067  0.5191  0.9805 -0.5725
 4939TIP3    H236453   6.209   2.180  -0.016  2.2199  0.6725  0.5397
 4940TIP3   OH236454   3.531   6.674   1.147  0.2282 -0.2243  0.1060
 4940TIP3    H136455   3.614   6.711   1.115 -0.1681 -0.5897 -1.4249
 4940TIP3    H236456   3.558   6.598   1.199  0.9096  0.5133  0.8651
 4941TIP3   OH236457   1.393   0.632   8.544 -0.2602  0.1685 -0.0922
 4941TIP3    H136458   1.338   0.680   8.605  0.9509  1.3321  0.1159
 4941TIP3    H236459   1.466   0.691   8.525  1.5951 -1.7887  0.6053
 4942TIP3   OH236460   3.337   6.142   0.950 -0.9720  0.4832 -0.0583
 4942TIP3    H136461   3.370   6.111   0.866 -1.7812 -0.9502  0.1141
 4942TIP3    H236462   3.398   6.211   0.976 -0.5431  0.7427 -1.6706
 4943TIP3   OH236463   5.689   2.512   1.909 -0.0813  0.2889  0.1500
 4943TIP3    H136464   5.615   2.520   1.969 -0.3509 -0.4178 -0.0735
 4943TIP3    H236465   5.761   2.481   1.963 -0.3041 -0.2757  0.1262
 4944TIP3   OH236466   5.217   4.487   6.334  0.3569 -0.1152  0.0506
 4944TIP3    H136467   5.284   4.422   6.356 -0.6906 -1.1899  0.1389
 4944TIP3    H236468   5.259   4.571   6.351  1.5341 -0.7767  0.5303
 4945TIP3   OH236469   2.086   4.546   8.560 -0.1237 -0.3999  0.6789
 4945TIP3    H136470   2.114   4.461   8.594 -1.0929 -0.7988  0.5074
 4945TIP3    H236471   1.994   4.534   8.538 -0.0232  0.4210 -0.2541
 4946TIP3   OH236472   2.214   3.139   0.202  0.7738 -0.7684 -0.2992
 4946TIP3    H136473   2.263   3.124   0.283 -2.2811  0.9585  2.1284
 4946TIP3    H236474   2.221   3.234   0.188  0.3816 -0.9063 -1.4526
 4947TIP3   OH236475   2.586   3.196   7.414 -0.4353  0.5369  0.1343
 4947TIP3    H136476   2.677   3.171   7.394 -0.9794 -0.9054 -0.6715
 4947TIP3    H236477   2.572   3.163   7.503 -0.9027 -1.4837 -0.6373
 4948TIP3   OH236478   1.321   5.061   6.634 -0.4692 -0.5616 -0.1996
 4948TIP3    H136479   1.371   5.005   6.575  0.9174  1.6106 -1.2173
 4948TIP3    H236480   1.236   5.072   6.590 -0.4293 -1.1348 -0.4278
 4949TIP3   OH236481   2.318   1.097   6.863 -0.6801  0.3683 -0.0100
 4949TIP3    H136482   2.280   1.155   6.929 -0.3203  1.0598 -0.4020
 4949TIP3    H236483   2.358   1.026   6.914 -1.5292  0.2045  0.4504
 4950TIP3   OH236484   0.382   6.605   0.512  0.1452  0.2605 -0.0708
 4950TIP3    H136485   0.358   6.681   0.458 -0.8669  0.5625  0.7793
 4950TIP3    H236486   0.416   6.642   0.593  2.1881 -0.1865 -0.6644
 4951TIP3   OH236487   5.559   1.657   1.016 -0.2615 -0.2053 -0.0648
 4951TIP3    H136488   5.565   1.653   0.921  1.7667  1.2505 -0.0618
 4951TIP3    H236489   5.475   1.699   1.033 -1.5212 -2.1745 -1.1095
 4952TIP3   OH236490   6.144   1.965   0.244  0.8365  0.0463  0.2414
 4952TIP3    H136491   6.162   2.004   0.158 -0.3549  1.6471  0.6935
 4952TIP3    H236492   6.145   2.038   0.305  1.3546 -1.0355  1.5881
 4953TIP3   OH236493   6.061   5.428   7.164 -0.5205  1.1118  0.3041
 4953TIP3    H136494   6.104   5.366   7.105  1.2576 -0.2657  2.8546
 4953TIP3    H236495   5.970   5.399   7.167 -0.0780 -0.3608  0.1506
 4954TIP3   OH236496   2.925   3.473   7.684  0.5340  0.5577 -0.4129
 4954TIP3    H136497   2.924   3.379   7.700 -1.3526  0.6217  0.0079
 4954TIP3    H236498   2.842   3.492   7.642  0.9168  2.0391 -0.5674
 4955TIP3   OH236499   3.109   6.604   7.113 -0.1406  0.4317  0.0217
 4955TIP3    H136500   3.131   6.697   7.114  0.3728  0.3127  0.3147
 4955TIP3    H236501   3.185   6.561   7.153 -0.5697 -0.0745  0.2977
 4956TIP3   OH236502   3.563   5.886   1.652  0.1246  0.9992 -0.2718
 4956TIP3    H136503   3.597   5.894   1.741 -0.3340  1.4668 -0.1297
 4956TIP3    H236504   3.589   5.967   1.609 -0.8625  1.4180 -0.1257
 4957TIP3   OH236505   5.675   2.465   6.592 -0.0513  0.2372 -0.1751
 4957TIP3    H136506   5.585   2.470   6.625  0.2765  0.5818  0.6910
 4957TIP3    H236507   5.727   2.514   6.656  1.0289 -1.5169  0.3667
 4958TIP3   OH236508   1.953   0.738   7.749 -0.1841  0.0038 -0.2824
 4958TIP3    H136509   2.028   0.730   7.808  0.8905 -0.5499 -1.6585
 4958TIP3    H236510   1.991   0.768   7.667 -1.7457  1.4612 -0.5173
 4959TIP3   OH236511   3.619   0.373   8.168  0.2126 -0.3390  0.3681
 4959TIP3    H136512   3.633   0.429   8.243 -0.6205  1.0813 -0.4890
 4959TIP3    H236513   3.706   0.359   8.131  0.3678  0.8843  0.2557
 4960TIP3   OH236514   6.477   3.672   8.377  0.4280 -0.1215  0.2484
 4960TIP3    H136515   6.415   3.648   8.446 -0.0176  2.2150  0.7699
 4960TIP3    H236516   6.526   3.746   8.414  1.9148 -0.4083 -1.0376
 4961TIP3   OH236517   1.843   5.930   8.022 -0.1648 -0.4518 -0.3229
 4961TIP3    H136518   1.792   5.990   8.077 -1.3845 -1.4264 -0.3487
 4961TIP3    H236519   1.778   5.873   7.982  1.0038 -2.2084  0.1706
 4962TIP3   OH236520   3.743   3.799   2.639  0.0703  0.3217  0.3503
 4962TIP3    H136521   3.829   3.757   2.638  0.6790  1.5436 -0.2766
 4962TIP3    H236522   3.682   3.727   2.656  1.0071 -0.9327 -1.3165
 4963TIP3   OH236523   6.171   6.259   8.310 -0.3738  0.0025 -0.0975
 4963TIP3    H136524   6.144   6.190   8.248 -3.3151 -0.3515  1.4124
 4963TIP3    H236525   6.088   6.293   8.345  0.9773  3.7752 -0.1167
 4964TIP3   OH236526   4.025   2.628   6.521  0.0090 -0.0663 -0.7598
 4964TIP3    H136527   3.939   2.586   6.523 -1.1223  2.0778 -0.6324
 4964TIP3    H236528   4.086   2.561   6.550 -1.9689 -0.9312  1.8241
 4965TIP3   OH236529   5.204   6.625   8.489 -0.2844 -0.5500  0.1671
 4965TIP3    H136530   5.207   6.534   8.459  0.6116 -0.9285  1.3213
 4965TIP3    H236531   5.165   6.619   8.576  0.8055  0.0255  0.7147
 4966TIP3   OH236532   0.230   4.611   1.538  0.1921 -0.4929  0.1941
 4966TIP3    H136533   0.211   4.705   1.535  0.7692 -0.3758  0.1125
 4966TIP3    H236534   0.144   4.569   1.533 -0.0384  0.0215 -0.2721
 4967TIP3   OH236535   1.271   2.957   0.039  0.6143  0.1121  0.1920
 4967TIP3    H136536   1.244   3.047   0.026 -1.0163 -0.3861 -0.0483
 4967TIP3    H236537   1.367   2.961   0.045  0.6405  1.7271 -0.8042
 4968TIP3   OH236538   1.714   5.399   6.954 -0.0347  0.0935  0.6505
 4968TIP3    H136539   1.649   5.374   6.889 -1.1231  1.2088  1.2649
 4968TIP3    H236540   1.787   5.339   6.939 -1.4334 -1.6267  0.3534
 4969TIP3   OH236541   3.654   1.266   7.663 -0.2549  0.3408  0.1338
 4969TIP3    H136542   3.662   1.241   7.571  0.0630  0.1308  0.2163
 4969TIP3    H236543   3.649   1.183   7.710 -2.3165  0.4263  0.1597
 4970TIP3   OH236544   3.447   0.304   1.438  0.3640 -0.7288  0.3106
 4970TIP3    H136545   3.384   0.357   1.391 -1.9365 -2.1812  1.5941
 4970TIP3    H236546   3.472   0.357   1.514 -0.1369 -0.5753  0.3680
 4971TIP3   OH236547   2.820   4.617   1.239  0.1736 -0.1526 -0.1694
 4971TIP3    H136548   2.877   4.685   1.275 -1.3969 -0.2074  2.8099
 4971TIP3    H236549   2.752   4.666   1.193  1.0189  0.0666 -1.2054
 4972TIP3   OH236550   0.084   6.562   8.588  0.0419  0.1153  0.1605
 4972TIP3    H136551   0.011   6.500   8.573 -0.0766  0.1381  0.6344
 4972TIP3    H236552   0.045   6.648   8.572 -0.2171  0.1757  1.0541
 4973TIP3   OH236553   0.641   2.912   1.649  0.3156 -0.0707 -0.0375
 4973TIP3    H136554   0.700   2.837   1.658 -0.1003 -0.4020 -0.0161
 4973TIP3    H236555   0.600   2.921   1.735 -0.2484 -0.3446 -0.2693
 4974TIP3   OH236556   1.144   1.885   0.376 -0.2509  0.1978  0.3140
 4974TIP3    H136557   1.063   1.866   0.328  0.3645  1.9264 -1.5631
 4974TIP3    H236558   1.120   1.957   0.434 -0.8232 -1.4611  2.2694
 4975TIP3   OH236559   2.195   5.069   6.536 -0.4080  0.1886 -0.4868
 4975TIP3    H136560   2.108   5.093   6.503 -0.9660  0.2915  0.9867
 4975TIP3    H236561   2.239   5.153   6.550 -0.0627  0.1373 -1.1888
 4976TIP3   OH236562   5.682   2.278   1.300 -0.3152  0.1617 -0.1740
 4976TIP3    H136563   5.678   2.340   1.227  1.4189  0.4044 -0.0943
 4976TIP3    H236564   5.655   2.329   1.376 -0.6820  0.3102 -0.3988
 4977TIP3   OH236565   6.221   5.723   1.744 -0.2941  0.4289 -0.1924
 4977TIP3    H136566   6.288   5.784   1.777  0.0592  0.1607 -0.4019
 4977TIP3    H236567   6.271   5.658   1.695 -0.2511 -2.1019  2.9007
 4978TIP3   OH236568   6.897   6.275   0.816 -0.0626 -0.0585 -0.2600
 4978TIP3    H136569   6.839   6.199   0.823  0.0275 -0.1804 -0.8100
 4978TIP3    H236570   6.978   6.241   0.778  0.2294  0.1849  0.1321
 4979TIP3   OH236571   5.409   0.504   6.556 -0.0588 -0.1510  0.1196
 4979TIP3    H136572   5.326   0.501   6.509  1.0471  1.1527 -2.0824
 4979TIP3    H236573   5.474   0.520   6.488  1.7387  1.1978  2.0322
 4980TIP3   OH236574   3.589   1.368   1.442 -0.0229  0.1982  0.0448
 4980TIP3    H136575   3.632   1.297   1.394 -1.1249 -0.5321  0.1070
 4980TIP3    H236576   3.595   1.343   1.534 -0.3719  0.2054  0.0719
 4981TIP3   OH236577   4.846   3.697   0.791 -0.0304  0.1804  0.2903
 4981TIP3    H136578   4.854   3.677   0.884 -0.5928 -0.8042  0.1455
 4981TIP3    H236579   4.755   3.678   0.770 -0.1655  1.3468 -0.2547
 4982TIP3   OH236580   3.388   1.321   0.312 -0.0656 -0.0451  0.3839
 4982TIP3    H136581   3.295   1.310   0.331  0.2938 -0.1005  2.3898
 4982TIP3    H236582   3.396   1.410   0.278 -0.8176  0.0447  0.4373
 4983TIP3   OH236583   4.285   2.710   8.018 -0.3851 -0.2157 -0.4674
 4983TIP3    H136584   4.205   2.726   7.969 -1.8274 -2.4603  0.9450
 4983TIP3    H236585   4.332   2.645   7.965  0.4098  0.8792 -1.1470
 4984TIP3   OH236586   5.397   3.932   8.343 -0.0735 -0.4022  1.1529
 4984TIP3    H136587   5.349   3.954   8.423  0.5875 -0.7084  1.6424
 4984TIP3    H236588   5.471   3.992   8.342 -1.0547  0.8481 -0.2008
 4985TIP3   OH236589   2.411   5.228   1.805  0.4007 -0.2840  0.1770
 4985TIP3    H136590   2.470   5.237   1.730 -0.3579  2.3717 -0.1820
 4985TIP3    H236591   2.470   5.213   1.879  1.4602  0.9707 -0.3719
 4986TIP3   OH236592   0.526   6.266   6.354 -0.0462  0.0153  0.2949
 4986TIP3    H136593   0.546   6.190   6.299 -0.7131  0.7990 -1.1085
 4986TIP3    H236594   0.452   6.238   6.408 -0.4582 -0.2680 -0.4016
 4987TIP3   OH236595   0.170   5.815   1.880 -0.4670  0.0697  0.3686
 4987TIP3    H136596   0.213   5.899   1.864  0.4004 -0.3285  0.5385
 4987TIP3    H236597   0.234   5.765   1.931 -0.4077 -1.1889 -0.8725
 4988TIP3   OH236598   4.713   1.183   7.771 -0.3191 -0.0485  0.8154
 4988TIP3    H136599   4.786   1.226   7.815 -0.4158  0.4914  0.4574
 4988TIP3    H236600   4.638   1.198   7.829 -0.3902  0.4309  0.6072
 4989TIP3   OH236601   3.646   6.389   8.299 -0.0572 -0.0980  0.2167
 4989TIP3    H136602   3.616   6.305   8.335  0.6135 -0.0176  1.0042
 4989TIP3    H236603   3.687   6.367   8.216  0.4045 -0.6027  0.5720
 4990TIP3   OH236604   5.854   2.327   2.605 -0.2895  0.3668  0.2755
 4990TIP3    H136605   5.774   2.344   2.555 -0.4074  2.6220  1.1196
 4990TIP3    H236606   5.850   2.389   2.678  0.8244 -1.4818  1.9897
 4991TIP3   OH236607   1.527   0.732   1.596  1.0456 -0.2787 -0.3412
 4991TIP3    H136608   1.481   0.787   1.532  0.0599 -1.0740 -0.3527
 4991TIP3    H236609   1.620   0.748   1.580  0.7949  0.3816 -1.2084
 4992TIP3   OH236610   3.988   3.029   7.612  0.5543  0.9317  0.0235
 4992TIP3    H136611   3.925   2.986   7.669 -0.7167 -1.1829 -2.7223
 4992TIP3    H236612   4.067   2.976   7.619 -0.1118 -0.3157 -1.2316
 4993TIP3   OH236613   2.266   1.294   0.286 -0.6704  0.1833  0.0170
 4993TIP3    H136614   2.222   1.356   0.229  0.0806  0.5940 -0.1262
 4993TIP3    H236615   2.196   1.236   0.317 -1.2827  0.7365 -0.3069
 4994TIP3   OH236616   3.042   2.323   7.987  0.0854 -0.2341 -0.3555
 4994TIP3    H136617   3.098   2.341   7.912  2.4215  0.7686  1.5174
 4994TIP3    H236618   3.084   2.250   8.032  0.4320  1.0428  1.5203
 4995TIP3   OH236619   3.120   6.438   6.891 -0.2991  0.3520  0.0378
 4995TIP3    H136620   3.107   6.505   6.959  1.3297 -0.8688  1.6777
 4995TIP3    H236621   3.213   6.417   6.896 -0.3850 -0.6627 -1.7875
 4996TIP3   OH236622   1.718   0.492   7.331 -0.1806  0.0351  0.0636
 4996TIP3    H136623   1.648   0.557   7.323 -0.3031  0.1280  1.5412
 4996TIP3    H236624   1.696   0.443   7.410 -3.4569 -5.8867 -3.7141
 4997TIP3   OH236625   2.882   0.070   0.328  0.0541  0.0973 -0.2259
 4997TIP3    H136626   2.791   0.099   0.335  0.5851  1.5533  1.2103
 4997TIP3    H236627   2.886  -0.010   0.381 -0.2582  0.4039  0.2730
 4998TIP3   OH236628   6.556   2.125   1.619  0.0520 -0.1840 -0.1003
 4998TIP3    H136629   6.503   2.113   1.540 -0.3336  0.6879  0.0043
 4998TIP3    H236630   6.628   2.182   1.591  0.1683 -0.2469  0.0713
 4999TIP3   OH236631   6.906   0.110   1.944  0.1694 -0.1412  0.2477
 4999TIP3    H136632   6.977   0.171   1.927  0.7440 -0.4679  1.4209
 4999TIP3    H236633   6.859   0.105   1.860  0.5884  1.2627 -0.0968
 5000TIP3   OH236634   2.160   1.790   8.038  0.0201  0.6499 -0.1399
 5000TIP3    H136635   2.075   1.833   8.025  0.9796  2.5627 -0.4930
 5000TIP3    H236636   2.162   1.721   7.972 -1.4922  0.1714  0.2748
 5001TIP3   OH236637   1.444   3.325   0.489  0.4595 -0.1966 -0.4680
 5001TIP3    H136638   1.381   3.398   0.489 -0.5855 -0.9757 -2.9601
 5001TIP3    H236639   1.481   3.326   0.401  1.9058 -1.4835  0.0850
 5002TIP3   OH236640   4.611   4.979   0.417  0.5146  0.7179  0.0504
 5002TIP3    H136641   4.610   5.027   0.500  0.1687 -0.7551  0.9361
 5002TIP3    H236642   4.657   4.897   0.437 -1.4106 -0.6007 -0.6451
 5003TIP3   OH236643   3.082   2.527   0.840  0.2030 -0.1247  0.4496
 5003TIP3    H136644   3.131   2.606   0.822 -0.5863 -0.1130 -1.9311
 5003TIP3    H236645   2.994   2.544   0.806 -0.0922 -1.8783  0.2217
 5004TIP3   OH236646   4.182   5.398   1.962  0.0216 -0.0399 -0.3019
 5004TIP3    H136647   4.211   5.310   1.985 -1.7396 -0.4872  0.3437
 5004TIP3    H236648   4.245   5.457   2.005 -0.9073 -0.9193  2.4133
 5005TIP3   OH236649   3.913   4.740   1.883 -0.0577 -0.6239 -0.2965
 5005TIP3    H136650   3.845   4.722   1.948 -0.5433 -0.6414 -0.7949
 5005TIP3    H236651   3.864   4.773   1.807  0.5641  0.1204 -0.3809
 5006TIP3   OH236652   0.149   2.667   1.341 -0.1084 -0.3706  0.2153
 5006TIP3    H136653   0.158   2.656   1.436  2.5313  0.7077  0.1545
 5006TIP3    H236654   0.189   2.752   1.323 -2.3440  0.3910 -1.6710
 5007TIP3   OH236655   3.706   3.131   0.230 -0.1380  0.6959  0.1803
 5007TIP3    H136656   3.728   3.221   0.208  2.1301 -0.2969 -2.0845
 5007TIP3    H236657   3.677   3.092   0.147 -2.0375 -0.4565  1.2980
 5008TIP3   OH236658   2.015   2.130   0.211  0.1474  0.0417 -0.2627
 5008TIP3    H136659   1.984   2.189   0.142 -0.4372 -0.8029 -0.7453
 5008TIP3    H236660   2.109   2.124   0.196  0.0833  0.1602 -0.7586
 5009TIP3   OH236661   1.368   1.808   2.604 -0.5275 -0.0366 -0.0603
 5009TIP3    H136662   1.336   1.887   2.647  0.2447  1.4555 -2.0714
 5009TIP3    H236663   1.458   1.797   2.635  0.0232  1.0267 -1.2128
 5010TIP3   OH236664   3.627   2.535   0.108 -0.0792  0.0113  0.1340
 5010TIP3    H136665   3.631   2.609   0.047  1.2894 -0.9238 -0.9825
 5010TIP3    H236666   3.715   2.532   0.146 -0.5032 -0.2928  1.0970
 5011TIP3   OH236667   6.284   1.538   1.440 -0.1537 -0.6527  0.1820
 5011TIP3    H136668   6.331   1.517   1.359  1.1442 -1.6418  1.1602
 5011TIP3    H236669   6.272   1.633   1.436 -0.5007 -0.7269 -1.3592
 5012TIP3   OH236670   3.077   6.179   1.540  0.3742  0.4999  0.3222
 5012TIP3    H136671   3.027   6.258   1.521 -0.9496 -0.2615  0.5190
 5012TIP3    H236672   3.086   6.135   1.455  1.7770  1.2010  0.0725
 5013TIP3   OH236673   6.586   3.036   6.350  0.1344 -0.6869 -0.6443
 5013TIP3    H136674   6.585   2.976   6.275 -0.1222  1.6604 -2.6514
 5013TIP3    H236675   6.503   3.085   6.342  0.7803  0.6252  0.2826
 5014TIP3   OH236676   2.281   4.632   7.960  0.1407 -0.0331 -0.0467
 5014TIP3    H136677   2.225   4.557   7.979  0.3348  0.2564  1.8136
 5014TIP3    H236678   2.368   4.594   7.947  0.4272 -0.0938  1.8193
 5015TIP3   OH236679   0.073   5.197   1.799 -0.0333  0.4276  0.2266
 5015TIP3    H136680   0.008   5.267   1.812  0.7735  1.6215 -1.7585
 5015TIP3    H236681   0.156   5.243   1.790  0.5768 -0.8142 -0.8187
 5016TIP3   OH236682   3.676   2.911   2.303 -0.0066  0.4947  0.4535
 5016TIP3    H136683   3.763   2.930   2.339 -0.0476  1.2145  0.1961
 5016TIP3    H236684   3.666   2.816   2.313  1.0204  0.3226  0.0377
 5017TIP3   OH236685   2.388   2.180   7.565  0.1193  0.1016  0.4181
 5017TIP3    H136686   2.454   2.111   7.566 -0.2057 -0.2090  1.1817
 5017TIP3    H236687   2.326   2.153   7.497 -0.0751 -0.4313  0.7998
 5018TIP3   OH236688   4.246   0.257   1.672 -0.2342 -0.0696  0.7663
 5018TIP3    H136689   4.160   0.297   1.674 -0.3277 -0.0332 -1.7739
 5018TIP3    H236690   4.239   0.187   1.608  2.0956  1.1599 -0.9758
 5019TIP3   OH236691   2.291   2.507   2.117 -0.5184 -0.0561 -0.4810
 5019TIP3    H136692   2.224   2.448   2.153 -1.1321  1.1127  0.3679
 5019TIP3    H236693   2.340   2.537   2.194  3.1109 -3.2216 -1.2572
 5020TIP3   OH236694   5.087   0.230   6.536  0.5082 -0.7882 -0.0129
 5020TIP3    H136695   5.125   0.290   6.472  0.2829  0.7488  1.2147
 5020TIP3    H236696   5.139   0.150   6.529  1.2161 -0.2361 -1.2895
 5021TIP3   OH236697   2.289   4.599   0.660 -0.3779  0.0604  0.3539
 5021TIP3    H136698   2.380   4.578   0.682 -0.0209  1.4495  0.2540
 5021TIP3    H236699   2.255   4.518   0.620  1.0565 -0.2025 -0.3744
 5022TIP3   OH236700   2.759   3.405   7.079  0.2728  0.4432  0.0841
 5022TIP3    H136701   2.803   3.393   6.995 -0.3326  0.8925 -0.3008
 5022TIP3    H236702   2.798   3.338   7.136  1.9471  1.2601 -0.0409
 5023TIP3   OH236703   6.091   2.623   0.274 -0.0106 -0.4921 -0.3542
 5023TIP3    H136704   6.181   2.629   0.244  0.1971  1.0249  0.4504
 5023TIP3    H236705   6.097   2.599   0.366 -0.3777  0.2797 -0.1145
 5024TIP3   OH236706   2.573   6.617   1.132 -0.4682 -0.4962  0.8210
 5024TIP3    H136707   2.583   6.548   1.066 -0.4009  0.8578 -0.6225
 5024TIP3    H236708   2.490   6.596   1.175 -1.1785 -0.6774 -0.5877
 5025TIP3   OH236709   2.208   6.246   1.451 -0.3932  0.0604  0.6198
 5025TIP3    H136710   2.238   6.197   1.528  1.0204 -0.5350 -0.2629
 5025TIP3    H236711   2.263   6.325   1.450 -0.9528  0.4610  0.6438
 5026TIP3   OH236712   2.686   3.636   7.906 -0.5393 -0.3859 -0.1167
 5026TIP3    H136713   2.651   3.574   7.970  0.5767 -1.9568 -0.9735
 5026TIP3    H236714   2.777   3.649   7.933  0.2010 -1.7365 -1.8185
 5027TIP3   OH236715   4.042   3.146   6.570 -0.6919  0.3769  0.2197
 5027TIP3    H136716   3.949   3.136   6.591 -0.0712 -1.6768  2.3721
 5027TIP3    H236717   4.071   3.219   6.625 -0.2444 -1.5729  2.7444
 5028TIP3   OH236718   6.166   4.843   0.618  0.7826  0.3138 -0.2602
 5028TIP3    H136719   6.148   4.905   0.548 -0.9534 -0.6200 -0.6980
 5028TIP3    H236720   6.183   4.897   0.695 -0.0043  1.3261 -0.7851
 5029TIP3   OH236721   0.253   4.318   1.885 -0.1954 -0.4522  0.1597
 5029TIP3    H136722   0.298   4.240   1.918 -1.0627 -0.2150  2.0435
 5029TIP3    H236723   0.191   4.285   1.820  1.7159 -0.9176 -1.5287
 5030TIP3   OH236724   2.237   0.683   7.205  0.1750  0.3034  0.4336
 5030TIP3    H136725   2.230   0.629   7.284  0.2882  0.4405  0.5374
 5030TIP3    H236726   2.147   0.693   7.175  0.3070 -1.9121 -0.9160
 5031TIP3   OH236727   5.877   0.123   7.864 -0.0856  0.8709 -0.2867
 5031TIP3    H136728   5.871   0.205   7.816  2.7969  0.3928 -1.7220
 5031TIP3    H236729   5.971   0.104   7.867 -0.6137 -2.2544  0.1704
 5032TIP3   OH236730   3.325   1.309   1.490 -0.4917 -0.3417  0.4135
 5032TIP3    H136731   3.412   1.306   1.452 -0.3712 -0.4338  0.6957
 5032TIP3    H236732   3.335   1.361   1.570 -0.8938  0.4985 -0.0651
 5033TIP3   OH236733   0.141   2.190   7.729 -0.6947 -0.0653 -0.3249
 5033TIP3    H136734   0.092   2.220   7.652  0.1135 -0.4430 -0.9942
 5033TIP3    H236735   0.115   2.098   7.739 -1.3065  0.1598  0.2687
 5034TIP3   OH236736   1.471   2.665   2.331  0.8738 -0.2761 -0.4826
 5034TIP3    H136737   1.405   2.630   2.391  0.0525  0.1870 -1.1009
 5034TIP3    H236738   1.550   2.614   2.351  0.1928 -1.2353 -0.1230
 5035TIP3   OH236739   3.526   3.158   7.099  0.6759 -0.2734 -0.0827
 5035TIP3    H136740   3.523   3.249   7.069 -1.3406  0.3819  1.8309
 5035TIP3    H236741   3.612   3.149   7.141  1.1343  0.5496 -0.8201
 5036TIP3   OH236742   5.584   3.550   1.024  0.7336 -0.2777  0.4940
 5036TIP3    H136743   5.568   3.541   1.118  0.1960 -1.4463  0.3138
 5036TIP3    H236744   5.528   3.483   0.984 -0.4678  1.3970 -0.8033
 5037TIP3   OH236745   4.565   6.165   0.883  0.1863 -0.2951 -0.0421
 5037TIP3    H136746   4.502   6.119   0.827  0.0680 -0.0591 -0.1023
 5037TIP3    H236747   4.602   6.233   0.828 -1.2713  1.1510  0.6637
 5038TIP3   OH236748   0.723   6.412   8.425  0.0323 -0.2363  0.1467
 5038TIP3    H136749   0.800   6.358   8.442  0.3943  0.0942 -0.3924
 5038TIP3    H236750   0.746   6.498   8.461  0.3178  0.1312 -0.8762
 5039TIP3   OH236751   0.932   1.802   0.998 -0.3344  0.2253 -0.2672
 5039TIP3    H136752   0.900   1.788   0.909 -0.4752  1.0364 -0.3593
 5039TIP3    H236753   0.959   1.894   0.999  0.3398  0.0303  0.3247
 5040TIP3   OH236754   5.911   3.880   1.135 -0.1003 -0.1955 -1.0088
 5040TIP3    H136755   5.845   3.902   1.200  1.9782  2.4743  0.3588
 5040TIP3    H236756   5.937   3.790   1.156 -2.7138 -1.0770 -1.1946
 5041TIP3   OH236757   0.874   3.315   0.394 -0.1857  0.4087 -0.2400
 5041TIP3    H136758   0.888   3.330   0.300 -1.4313  2.5171 -0.1533
 5041TIP3    H236759   0.915   3.390   0.437  0.5795 -0.6552  0.9507
 5042TIP3   OH236760   4.678   6.791   2.250  0.2960  0.1224  0.2016
 5042TIP3    H136761   4.705   6.811   2.161 -0.8227 -1.1284 -0.4612
 5042TIP3    H236762   4.604   6.848   2.267  0.3899  0.2267  0.2621
 5043TIP3   OH236763   4.492   3.253   1.697 -0.0059 -0.1065  0.0619
 5043TIP3    H136764   4.536   3.337   1.683  1.1813 -0.6467  0.3990
 5043TIP3    H236765   4.541   3.212   1.768 -1.5916 -0.3960  1.0241
 5044TIP3   OH236766   3.421   5.772   8.505  0.3100 -0.3769  0.1051
 5044TIP3    H136767   3.359   5.844   8.512 -0.7112 -1.3100  0.8787
 5044TIP3    H236768   3.482   5.785   8.578 -0.4378 -0.8128  0.8170
 5045TIP3   OH236769   3.717   1.204   7.405  0.0277 -0.1014 -0.2432
 5045TIP3    H136770   3.732   1.110   7.402  1.7336  0.1451 -0.5021
 5045TIP3    H236771   3.753   1.237   7.323 -0.5750  0.7811 -0.1659
 5046TIP3   OH236772   5.308   0.893   7.762 -0.3062 -0.3397  0.3753
 5046TIP3    H136773   5.246   0.889   7.835  0.2704 -0.3978  0.8673
 5046TIP3    H236774   5.378   0.832   7.786 -0.1366 -0.3936 -0.2479
 5047TIP3   OH236775   2.571   5.759   0.836 -0.2704  0.5691  0.0513
 5047TIP3    H136776   2.485   5.772   0.877 -0.1790 -1.5360  1.0437
 5047TIP3    H236777   2.607   5.847   0.826 -1.9701  1.3937  0.8813
 5048TIP3   OH236778   3.437   5.595   1.960  0.7902  0.5708  0.0474
 5048TIP3    H136779   3.450   5.534   2.033  2.6262  1.5144  0.5691
 5048TIP3    H236780   3.376   5.660   1.993 -0.1581 -0.2512 -0.0603
 5049TIP3   OH236781   0.786   4.676   8.458  0.4273  0.2615  0.2062
 5049TIP3    H136782   0.786   4.771   8.461  0.1167  0.2574  0.3906
 5049TIP3    H236783   0.871   4.653   8.420  0.4720  0.6118  0.0901
 5050TIP3   OH236784   2.782   4.844   1.446 -0.5175  0.2203  0.4377
 5050TIP3    H136785   2.772   4.817   1.537  2.4325  2.8898  1.7826
 5050TIP3    H236786   2.728   4.923   1.438  1.1327  1.4432  0.7543
 5051TIP3   OH236787   6.863   3.666   1.398  0.0985  0.0332 -0.3072
 5051TIP3    H136788   6.873   3.701   1.309 -0.2435  0.2723 -0.2519
 5051TIP3    H236789   6.916   3.725   1.452  0.3530 -0.1466 -0.3607
 5052TIP3   OH236790   1.586   5.034   0.408  0.7644 -0.1738  0.0536
 5052TIP3    H136791   1.493   5.020   0.387  1.1068 -0.9709 -1.0127
 5052TIP3    H236792   1.588   5.040   0.504 -0.4943  0.7616  0.0492
 5053TIP3   OH236793   1.811   1.437   1.169  1.0397  0.2521  0.4033
 5053TIP3    H136794   1.731   1.472   1.209  1.5280 -0.4331  2.0733
 5053TIP3    H236795   1.791   1.434   1.075 -0.3176  1.5376  0.6062
 5054TIP3   OH236796   5.949   2.053   7.715 -0.6274 -0.3534  0.2071
 5054TIP3    H136797   6.033   2.007   7.718  0.0725  0.8930  0.5502
 5054TIP3    H236798   5.904   2.026   7.795  0.1263  0.1746  0.8259
 5055TIP3   OH236799   2.206   2.134   7.804 -0.4682 -0.3826 -0.1364
 5055TIP3    H136800   2.278   2.194   7.825 -0.6369 -0.0866 -0.3981
 5055TIP3    H236801   2.176   2.161   7.717 -1.1648 -0.2489  0.1403
 5056TIP3   OH236802   6.375   1.697   0.361  0.1712  0.5059 -0.5470
 5056TIP3    H136803   6.459   1.739   0.344 -0.5306  1.5301 -1.5605
 5056TIP3    H236804   6.338   1.678   0.275 -0.9209  0.6494 -0.1359
 5057TIP3   OH236805   0.946   3.068   8.429 -0.5095 -0.4613  0.0259
 5057TIP3    H136806   0.943   3.078   8.334 -0.9345 -1.0700 -0.0304
 5057TIP3    H236807   1.012   3.000   8.444  0.2435  0.2888  0.2331
 5058TIP3   OH236808   0.298   2.752   2.415  0.3869 -0.0584  0.5945
 5058TIP3    H136809   0.230   2.746   2.483  2.2861  0.0871  2.5923
 5058TIP3    H236810   0.272   2.685   2.351 -1.9983  0.4550  0.9087
 5059TIP3   OH236811   1.817   0.366   1.658  0.2557  0.6023  0.0644
 5059TIP3    H136812   1.804   0.283   1.703  0.3692  0.7878  0.4369
 5059TIP3    H236813   1.899   0.400   1.693 -0.0581  1.1255  0.2925
 5060TIP3   OH236814   4.891   5.421   0.360  0.0116  0.0218  0.2732
 5060TIP3    H136815   4.849   5.495   0.318  1.4272  0.1034 -1.0835
 5060TIP3    H236816   4.832   5.347   0.344 -1.2149  0.7392  1.3064
 5061TIP3   OH236817   6.028   1.243   0.058 -0.2889  0.5613  0.2687
 5061TIP3    H136818   5.963   1.310   0.079 -1.7321 -0.6125 -0.2971
 5061TIP3    H236819   5.993   1.199  -0.019  1.6560  0.4889 -0.6165
 5062TIP3   OH236820   4.960   1.659   0.598 -0.4675  0.1687  0.0406
 5062TIP3    H136821   5.019   1.586   0.581  0.1328  0.6864 -0.1506
 5062TIP3    H236822   4.918   1.638   0.681 -1.0523 -0.8717 -0.5005
 5063TIP3   OH236823   1.525   6.209   7.942 -0.4413 -0.1470 -0.4415
 5063TIP3    H136824   1.521   6.130   7.889  0.8799 -0.9294  0.5525
 5063TIP3    H236825   1.523   6.178   8.033  2.3845  0.6737  0.0249
 5064TIP3   OH236826   6.273   0.944   2.187  0.0233 -0.5178  0.0541
 5064TIP3    H136827   6.254   1.008   2.118  0.6996 -0.7070 -0.3188
 5064TIP3    H236828   6.298   0.997   2.262 -1.9743 -0.2585  0.5854
 5065TIP3   OH236829   5.726   4.466   8.592 -0.3626 -0.0194 -0.0999
 5065TIP3    H136830   5.647   4.441   8.640  0.4536  0.5954  1.6534
 5065TIP3    H236831   5.737   4.398   8.525 -2.3265 -0.1379 -0.3560
 5066TIP3   OH236832   5.072   6.054   1.311  0.2883 -0.3419  0.6826
 5066TIP3    H136833   5.026   6.078   1.392 -0.3685 -0.4444  0.3485
 5066TIP3    H236834   5.163   6.076   1.328 -0.0751  1.1012  0.9022
 5067TIP3   OH236835   3.618   1.888   1.585 -0.2048 -0.6008  0.6697
 5067TIP3    H136836   3.584   1.947   1.518  2.6459  0.9572  0.4523
 5067TIP3    H236837   3.552   1.891   1.655 -0.3466  2.6836  0.5629
 5068TIP3   OH236838   0.286   1.576   6.229  0.1229  0.3890 -0.2135
 5068TIP3    H136839   0.305   1.669   6.215  1.7219  0.0264 -0.6386
 5068TIP3    H236840   0.298   1.564   6.323 -1.0842  0.7900  0.0201
 5069TIP3   OH236841   6.534   0.022   2.434  0.2682 -0.0377 -0.2261
 5069TIP3    H136842   6.600  -0.037   2.470 -1.1574 -0.4252  1.9544
 5069TIP3    H236843   6.521   0.088   2.501 -1.4772  0.0823 -0.6173
 5070TIP3   OH236844   3.857   1.893   2.020  0.1484 -0.3244 -0.2596
 5070TIP3    H136845   3.849   1.984   1.992 -1.4754 -0.4566 -0.2814
 5070TIP3    H236846   3.869   1.898   2.115  1.7636 -0.0451 -0.4496
 5071TIP3   OH236847   2.063   2.147   1.590 -0.0781 -0.5157  0.5713
 5071TIP3    H136848   2.113   2.099   1.524 -0.7603  1.3541 -1.4315
 5071TIP3    H236849   2.124   2.212   1.624 -0.9781  1.8680 -1.9824
 5072TIP3   OH236850   4.116   2.843   0.696 -0.3716 -0.1080  0.2186
 5072TIP3    H136851   4.028   2.833   0.733 -0.5525 -1.0241 -0.4142
 5072TIP3    H236852   4.172   2.792   0.754 -0.8351 -2.5744 -1.3182
 5073TIP3   OH236853   1.874   1.025   7.827  0.7152 -0.2222 -0.1197
 5073TIP3    H136854   1.876   1.002   7.920 -2.0649 -1.6846 -0.2976
 5073TIP3    H236855   1.844   0.945   7.784 -0.6064  1.1750 -1.9335
 5074TIP3   OH236856   6.583   0.311   1.021 -0.5078 -0.4856 -0.2484
 5074TIP3    H136857   6.561   0.403   1.036 -1.1713 -0.5641 -0.6863
 5074TIP3    H236858   6.632   0.285   1.099 -1.4340 -0.1179  0.4858
 5075TIP3   OH236859   3.283   3.536   2.371 -0.3175  0.5077 -0.2268
 5075TIP3    H136860   3.216   3.575   2.428 -0.0563 -0.5626  0.8511
 5075TIP3    H236861   3.249   3.449   2.350  0.0844  0.4947 -0.8493
 5076TIP3   OH236862   3.233   6.780   2.046  0.7077 -0.0832 -0.4086
 5076TIP3    H136863   3.266   6.760   1.958  2.0416  2.5184 -0.5891
 5076TIP3    H236864   3.297   6.740   2.104  1.0700  0.0907 -0.6787
 5077TIP3   OH236865   6.378   6.308   0.071 -0.0475 -0.1467  0.0895
 5077TIP3    H136866   6.363   6.273  -0.017 -2.2520 -1.8748  1.0459
 5077TIP3    H236867   6.310   6.374   0.082  0.7736  0.6991  0.2275
 5078TIP3   OH236868   1.929   3.921   2.128 -0.2147 -0.3774  0.1797
 5078TIP3    H136869   1.968   3.841   2.162  1.0000  0.4844  0.8747
 5078TIP3    H236870   1.884   3.960   2.202 -2.8793 -1.5617 -0.6965
 5079TIP3   OH236871   0.302   0.231   1.517 -0.0975  0.9438  0.4479
 5079TIP3    H136872   0.208   0.212   1.512  0.2394 -1.0057  0.8388
 5079TIP3    H236873   0.309   0.324   1.495 -1.9765  0.8068 -0.8995
 5080TIP3   OH236874   6.606   4.616   0.850  0.9563 -0.1920 -0.3184
 5080TIP3    H136875   6.597   4.711   0.849  0.3846 -0.2427 -0.3428
 5080TIP3    H236876   6.532   4.584   0.797  0.7530 -0.6754  0.2492
 5081TIP3   OH236877   6.041   5.752   8.012  0.0114  0.0522 -0.8713
 5081TIP3    H136878   6.010   5.661   8.019  1.5649 -0.4410  0.2558
 5081TIP3    H236879   6.006   5.795   8.090  1.0779 -0.2055 -0.2144
 5082TIP3   OH236880   2.600   1.353   1.775 -0.2089 -0.3341 -0.6259
 5082TIP3    H136881   2.542   1.326   1.703 -0.2348 -1.1638 -0.2985
 5082TIP3    H236882   2.667   1.286   1.779  0.7913  0.6139 -0.9880
 5083TIP3   OH236883   3.939   5.129   8.565  0.0841  0.2132  0.0713
 5083TIP3    H136884   4.011   5.176   8.523  1.5755 -2.1097 -0.2088
 5083TIP3    H236885   3.938   5.043   8.521 -2.0241 -0.3022  0.9810
 5084TIP3   OH236886   5.069   4.877   2.455 -0.0071  0.0616 -0.1384
 5084TIP3    H136887   5.114   4.870   2.539 -3.0939 -1.8158  1.5499
 5084TIP3    H236888   4.979   4.903   2.478 -0.8255  0.0033 -2.9283
 5085TIP3   OH236889   1.829   5.997   7.296  0.1730  0.4144 -0.1943
 5085TIP3    H136890   1.919   6.014   7.324 -0.1677 -0.4985  1.5620
 5085TIP3    H236891   1.821   6.043   7.212  1.8507  1.6186  0.2640
 5086TIP3   OH236892   3.535   5.639   0.568 -0.1464  0.1151 -0.7032
 5086TIP3    H136893   3.485   5.580   0.624  2.2118  0.7997  2.3713
 5086TIP3    H236894   3.512   5.727   0.599  0.2633  0.6132 -1.7397
 5087TIP3   OH236895   1.701   1.422   1.750 -0.2560  0.0109 -0.3843
 5087TIP3    H136896   1.672   1.400   1.838  0.4882 -1.6097 -0.5251
 5087TIP3    H236897   1.779   1.476   1.763 -0.1081 -0.2791 -0.0580
 5088TIP3   OH236898   5.572   5.451   8.231  0.1615  0.0774  0.3906
 5088TIP3    H136899   5.597   5.362   8.255 -1.6264 -0.0224  2.1541
 5088TIP3    H236900   5.481   5.460   8.260  0.5611  2.7726  1.1510
 5089TIP3   OH236901   4.174   5.482   1.037 -0.3606  0.5692 -0.1134
 5089TIP3    H136902   4.178   5.539   1.114  0.0871  0.7691 -0.2830
 5089TIP3    H236903   4.255   5.499   0.990 -0.2327 -0.1994 -0.1784
 5090TIP3   OH236904   2.859   6.609   1.211  0.1964  0.0949 -0.1709
 5090TIP3    H136905   2.896   6.521   1.207 -1.0042 -0.3941 -1.3350
 5090TIP3    H236906   2.766   6.596   1.192  0.0221  1.6226 -0.4372
 5091TIP3   OH236907   2.331   0.777   2.872  0.2198  0.1669  0.2458
 5091TIP3    H136908   2.349   0.686   2.898 -1.4414 -0.1691  0.3041
 5091TIP3    H236909   2.309   0.772   2.780 -0.2699  0.4569  0.3466
 5092TIP3   OH236910   1.891   2.937   7.329 -0.1287  0.3976  0.5929
 5092TIP3    H136911   1.921   2.978   7.248 -1.5130  1.1216  0.4154
 5092TIP3    H236912   1.918   2.997   7.398 -0.0514  0.4157  0.5466
 5093TIP3   OH236913   6.849   0.226   7.236  0.3910  0.1350  0.1880
 5093TIP3    H136914   6.911   0.218   7.163  0.9768 -0.9071  0.7674
 5093TIP3    H236915   6.827   0.135   7.258 -0.2560  0.4619  0.9045
 5094TIP3   OH236916   2.732   2.432   0.948  1.0736 -0.0271 -0.4723
 5094TIP3    H136917   2.707   2.498   1.012  0.7457 -0.3693 -0.2481
 5094TIP3    H236918   2.711   2.348   0.989 -1.4172 -0.2050 -1.9382
 5095TIP3   OH236919   1.822   3.106   1.861  0.0972  0.2105 -0.0528
 5095TIP3    H136920   1.897   3.051   1.882  1.1105  2.2947  2.3890
 5095TIP3    H236921   1.821   3.110   1.765  1.8435 -1.4988 -0.1976
 5096TIP3   OH236922   2.936   5.558   7.055 -0.1545 -0.1127  0.3720
 5096TIP3    H136923   2.899   5.470   7.063 -1.0060  0.1967  0.0045
 5096TIP3    H236924   2.901   5.606   7.130 -2.1710  0.7285 -0.9976
 5097TIP3   OH236925   0.643   1.753   0.451 -0.0094 -0.4079 -0.3206
 5097TIP3    H136926   0.668   1.769   0.360  0.4511 -0.4513 -0.2027
 5097TIP3    H236927   0.670   1.662   0.468  0.4114 -0.2236  0.0241
 5098TIP3   OH236928   1.039   6.006   8.163 -0.2677  0.5972  0.0865
 5098TIP3    H136929   0.970   5.995   8.228 -2.0682 -0.0687 -1.7916
 5098TIP3    H236930   1.004   6.072   8.103 -0.0676 -0.9289 -1.8283
 5099TIP3   OH236931   0.871   5.151   6.795  0.4242  0.1954 -0.3228
 5099TIP3    H136932   0.890   5.067   6.837  1.3075 -0.6211 -2.2076
 5099TIP3    H236933   0.776   5.149   6.780  0.4825 -0.6499 -0.6609
 5100TIP3   OH236934   6.554   5.179   0.693 -0.2582  0.4301  0.0385
 5100TIP3    H136935   6.622   5.158   0.629 -0.4952  1.6598 -0.6447
 5100TIP3    H236936   6.488   5.227   0.643  0.7082  3.6695  1.6115
 5101TIP3   OH236937   5.859   2.987   1.076  0.1660  0.0640 -0.0850
 5101TIP3    H136938   5.821   2.945   1.153  0.3657 -2.4317 -1.2186
 5101TIP3    H236939   5.795   2.970   1.007  1.6715 -1.1569 -1.2598
 5102TIP3   OH236940   1.025   6.298   7.768  0.0314 -0.0518 -0.0320
 5102TIP3    H136941   1.085   6.246   7.715 -0.1551 -1.8288  1.4041
 5102TIP3    H236942   1.079   6.369   7.803  0.5859  0.0397 -1.0479
 5103TIP3   OH236943   3.444   6.217   8.412  0.4499  0.0134 -0.1294
 5103TIP3    H136944   3.425   6.135   8.366  1.6883 -0.8465  0.8326
 5103TIP3    H236945   3.376   6.223   8.480 -0.4911  0.5377 -1.0794
 5104TIP3   OH236946   6.014   3.630   1.759  0.2583  0.1753 -0.0829
 5104TIP3    H136947   6.046   3.569   1.825 -0.1069  0.0333 -0.0389
 5104TIP3    H236948   6.094   3.672   1.726  0.4055  0.7107  0.9001
 5105TIP3   OH236949   4.359   4.528   0.190  0.3234 -0.6809  0.5587
 5105TIP3    H136950   4.325   4.543   0.278  1.0363  0.1448  0.7096
 5105TIP3    H236951   4.427   4.462   0.202 -0.7798 -1.9072  0.3403
 5106TIP3   OH236952   2.322   0.859   2.279 -0.4469 -0.5218 -0.2293
 5106TIP3    H136953   2.356   0.770   2.283  0.6838 -0.0680  1.0375
 5106TIP3    H236954   2.258   0.863   2.351  0.3486 -0.0084  0.4752
 5107TIP3   OH236955   3.042   0.573   8.369  0.0554  0.3277  0.3357
 5107TIP3    H136956   2.960   0.532   8.399  0.2020  0.2713  0.6655
 5107TIP3    H236957   3.024   0.667   8.374  0.2664  0.3381  1.1680
 5108TIP3   OH236958   6.443   5.866   0.726  0.1594  0.4465 -0.0521
 5108TIP3    H136959   6.461   5.871   0.821 -0.3601 -0.6906  0.1168
 5108TIP3    H236960   6.415   5.776   0.712 -0.9846  0.9547 -1.0922
 5109TIP3   OH236961   6.122   0.403   8.126 -1.1145 -0.0947 -0.1652
 5109TIP3    H136962   6.138   0.452   8.206 -0.7797  0.2038 -0.4105
 5109TIP3    H236963   6.156   0.315   8.145 -2.6038 -0.5466  0.6183
 5110TIP3   OH236964   0.612   2.457   6.541 -0.3205 -0.2471  0.5253
 5110TIP3    H136965   0.533   2.458   6.487 -1.0506 -0.8971  1.5534
 5110TIP3    H236966   0.654   2.541   6.524 -0.4953 -0.4534 -1.0898
 5111TIP3   OH236967   2.303   4.281   0.478  0.0495 -0.0642 -0.1844
 5111TIP3    H136968   2.350   4.226   0.415 -1.5444 -3.0756  1.0159
 5111TIP3    H236969   2.335   4.252   0.564  0.6342  2.4260  0.5106
 5112TIP3   OH236970   4.378   2.957   0.612  0.7181  0.3648 -0.1599
 5112TIP3    H136971   4.287   2.934   0.629  1.1281 -0.5470  0.9527
 5112TIP3    H236972   4.428   2.896   0.666  2.0119  0.2981 -1.3731
 5113TIP3   OH236973   5.609   2.052   0.759  0.0943 -0.1336 -0.2821
 5113TIP3    H136974   5.591   2.096   0.843 -2.2287 -0.4365 -0.5674
 5113TIP3    H236975   5.683   1.993   0.779 -0.5042 -0.3285  1.6182
 5114TIP3   OH236976   0.299   2.926   1.002  0.3186  0.3156  0.4739
 5114TIP3    H136977   0.219   2.957   1.045  0.1194 -0.6062  0.7902
 5114TIP3    H236978   0.370   2.955   1.059  0.0252 -1.4625  1.8469
 5115TIP3   OH236979   0.414   4.929   0.567  0.0167 -0.1250  0.7499
 5115TIP3    H136980   0.324   4.950   0.543 -0.1475 -0.6017  0.9442
 5115TIP3    H236981   0.408   4.895   0.656  0.1682 -1.7345  0.1853
 5116TIP3   OH236982   5.333   2.568   0.356 -0.1927  0.3246 -0.3215
 5116TIP3    H136983   5.269   2.536   0.292 -1.6664  0.3155  1.1177
 5116TIP3    H236984   5.313   2.520   0.436  2.5125 -0.6975 -0.1351
 5117TIP3   OH236985   4.967   6.326   1.354  0.4431 -0.0080 -0.6336
 5117TIP3    H136986   4.931   6.255   1.406  0.9951 -0.2997 -0.6411
 5117TIP3    H236987   4.940   6.307   1.264  1.3251 -0.6975 -0.7681
 5118TIP3   OH236988   4.179   0.256   0.560  0.1750  0.7739 -0.2234
 5118TIP3    H136989   4.129   0.333   0.586 -1.2305 -1.0598  3.1750
 5118TIP3    H236990   4.236   0.237   0.635  0.6717 -1.3310 -1.0500
 5119TIP3   OH236991   3.421   4.230   6.887 -0.5399  0.2816  0.1483
 5119TIP3    H136992   3.439   4.163   6.820  0.9279  1.7742 -1.0394
 5119TIP3    H236993   3.325   4.233   6.892 -0.8542  1.4880 -3.4546
 5120TIP3   OH236994   1.871   0.384   7.001 -0.1889 -0.6754 -0.2308
 5120TIP3    H136995   1.801   0.345   7.054 -0.1314 -0.8381 -0.2763
 5120TIP3    H236996   1.946   0.326   7.012  0.3447  0.1856  0.8500
 5121TIP3   OH236997   6.538   6.273   7.442  0.5505  0.7437 -0.7686
 5121TIP3    H136998   6.562   6.251   7.352  0.3154  1.8716 -1.1172
 5121TIP3    H236999   6.498   6.360   7.436 -2.5671 -0.5044 -0.0510
 5122TIP3   OH237000   1.116   4.884   2.024  0.3464 -0.1873  0.4414
 5122TIP3    H137001   1.067   4.962   2.050  1.7609  0.9607 -0.1436
 5122TIP3    H237002   1.170   4.863   2.100 -0.2888 -0.8300  0.7236
 5123TIP3   OH237003   0.466   6.688   1.246  0.7336 -0.4371  0.0619
 5123TIP3    H137004   0.545   6.698   1.192 -0.1678  1.4075 -1.0330
 5123TIP3    H237005   0.436   6.777   1.260 -0.3727 -1.0291  1.7072
 5124TIP3   OH237006   0.550   6.402   1.258  0.2945  0.4137 -0.4883
 5124TIP3    H137007   0.606   6.466   1.303  0.1451  0.7229 -0.7301
 5124TIP3    H237008   0.490   6.456   1.206 -2.1038  0.2074  1.8739
 5125TIP3   OH237009   5.886   6.741   6.980  0.5602 -0.4118  0.2579
 5125TIP3    H137010   5.831   6.771   6.907 -0.8697 -0.1034  1.4141
 5125TIP3    H237011   5.972   6.779   6.963 -0.0920  0.7171 -0.5965
 5126TIP3   OH237012   1.794   3.722   8.448  0.2743 -0.5641 -0.5017
 5126TIP3    H137013   1.731   3.788   8.477 -0.4878 -1.9235  1.1015
 5126TIP3    H237014   1.879   3.760   8.466 -0.1499  0.1302  0.0650
 5127TIP3   OH237015   0.627   3.785   0.875 -0.0404 -0.0767 -0.2424
 5127TIP3    H137016   0.608   3.856   0.936  0.5966 -0.0207 -0.1109
 5127TIP3    H237017   0.541   3.758   0.843 -0.3937 -0.1853  0.7669
 5128TIP3   OH237018   4.484   6.177   8.033 -0.3210  0.3046  0.2151
 5128TIP3    H137019   4.513   6.227   8.110  1.1824  0.7785 -0.6323
 5128TIP3    H237020   4.559   6.124   8.009 -0.0823  1.5605 -2.0615
 5129TIP3   OH237021   5.460   2.528   7.562  0.2303 -0.1079 -0.6615
 5129TIP3    H137022   5.482   2.503   7.472 -0.1977 -0.1695 -0.7534
 5129TIP3    H237023   5.478   2.449   7.614  0.2253 -0.1568 -0.7343
 5130TIP3   OH237024   2.844   5.586   7.475 -0.3196 -0.3902  0.0127
 5130TIP3    H137025   2.753   5.605   7.496 -0.4620 -0.9955 -0.0334
 5130TIP3    H237026   2.843   5.566   7.381 -0.0219  0.2994 -0.1395
 5131TIP3   OH237027   3.046   4.678   0.908 -0.1458  0.8013 -0.4586
 5131TIP3    H137028   2.979   4.744   0.890 -0.6875  0.2415 -0.4973
 5131TIP3    H237029   3.101   4.678   0.829 -1.4016 -0.2975 -1.3737
 5132TIP3   OH237030   4.604   1.429   0.772 -0.0540  0.0980  0.0071
 5132TIP3    H137031   4.569   1.341   0.792  2.5805 -0.8767  0.6576
 5132TIP3    H237032   4.541   1.465   0.709 -2.0205 -1.6369  0.8420
 5133TIP3   OH237033   1.064   0.206   0.304 -0.6554 -0.3334 -0.0985
 5133TIP3    H137034   1.008   0.141   0.262 -0.1627 -0.4985 -0.5080
 5133TIP3    H237035   1.017   0.229   0.384 -0.5628 -1.6576  0.3760
 5134TIP3   OH237036   4.152   0.066   1.484 -0.2083 -0.4315 -0.9649
 5134TIP3    H137037   4.099   0.034   1.411 -0.7683  0.7858 -1.1128
 5134TIP3    H237038   4.089   0.079   1.555 -0.3659  2.0906 -1.4798
 5135TIP3   OH237039   5.572   3.599   5.956  0.5253 -0.3728  0.1740
 5135TIP3    H137040   5.566   3.617   6.050 -1.4254 -0.3243  0.0789
 5135TIP3    H237041   5.564   3.504   5.949 -0.7752 -0.2644 -0.0069
 5136TIP3   OH237042   6.155   6.666   2.198  0.1928 -0.0609  0.3777
 5136TIP3    H137043   6.231   6.611   2.220  1.0317  0.5145 -0.9519
 5136TIP3    H237044   6.083   6.628   2.248  1.3517 -0.6175  1.6976
 5137TIP3   OH237045   6.873   2.538   7.385  0.2366 -0.7715 -0.0031
 5137TIP3    H137046   6.829   2.571   7.307 -0.0170  0.2925  0.5739
 5137TIP3    H237047   6.965   2.535   7.361  0.1991 -0.1566 -0.2408
 5138TIP3   OH237048   1.271   0.442   2.294  0.4840 -0.3818  0.6789
 5138TIP3    H137049   1.223   0.476   2.369 -1.5636 -0.5646 -0.4545
 5138TIP3    H237050   1.244   0.498   2.221  0.1037 -1.9614 -0.4625
 5139TIP3   OH237051   2.112   2.918   0.427  0.5873 -0.2167  0.5329
 5139TIP3    H137052   2.203   2.891   0.415  0.3529 -0.2483 -1.5529
 5139TIP3    H237053   2.111   3.010   0.404 -0.0629 -0.4604 -0.5048
 5140TIP3   OH237054   1.085   0.697   2.462 -0.3310  0.5936  0.5016
 5140TIP3    H137055   1.022   0.646   2.412 -0.4449  0.1341  1.1029
 5140TIP3    H237056   1.125   0.756   2.397 -1.2134  0.7470  0.0750
 5141TIP3   OH237057   3.648   0.961   1.567  1.0294 -0.2849 -0.1055
 5141TIP3    H137058   3.688   1.004   1.492  2.3115 -0.1792  0.6184
 5141TIP3    H237059   3.714   0.898   1.597  0.8288  0.1464  1.3389
 5142TIP3   OH237060   1.628   1.770   1.173  0.0607  0.1445  0.9507
 5142TIP3    H137061   1.552   1.814   1.210 -0.3078 -2.1801  3.2511
 5142TIP3    H237062   1.591   1.705   1.113  0.3986  0.4882  0.3533
 5143TIP3   OH237063   1.701   3.635   8.186  0.2364 -0.1718  0.0481
 5143TIP3    H137064   1.700   3.667   8.276 -2.1916  1.6890 -0.5239
 5143TIP3    H237065   1.609   3.624   8.164  0.8187 -1.9172 -1.8056
 5144TIP3   OH237066   3.105   1.913   7.400  0.2671  0.0310 -0.1828
 5144TIP3    H137067   3.047   1.942   7.470 -0.5403 -1.2261 -0.2845
 5144TIP3    H237068   3.067   1.830   7.370  2.6692 -1.3848  0.4132
 5145TIP3   OH237069   6.114   4.588   0.512 -0.8507 -0.3573  0.3146
 5145TIP3    H137070   6.142   4.673   0.545  0.2873 -0.6097  0.0350
 5145TIP3    H237071   6.034   4.568   0.561  0.5317 -0.5473  2.6297
 5146TIP3   OH237072   0.108   4.557   0.774 -0.1039  0.4460 -0.1915
 5146TIP3    H137073   0.078   4.641   0.807 -1.1668 -0.2781  0.7667
 5146TIP3    H237074   0.196   4.547   0.810  0.0243  1.1350 -0.3089
 5147TIP3   OH237075   2.355   5.441   1.589  0.1885  0.5042 -0.1704
 5147TIP3    H137076   2.285   5.377   1.594 -1.7620  2.4935 -0.6850
 5147TIP3    H237077   2.355   5.483   1.675  0.1430  1.1017 -0.4555
 5148TIP3   OH237078   4.054   0.157   8.215  0.2048  0.1483 -0.2267
 5148TIP3    H137079   3.977   0.150   8.272 -0.5914  0.6895 -1.2016
 5148TIP3    H237080   4.118   0.204   8.267 -0.5361  0.7003  0.2136
 5149TIP3   OH237081   0.136   5.510   2.094  0.0915 -0.5144 -0.9268
 5149TIP3    H137082   0.188   5.581   2.058  0.1582 -0.9591 -1.7340
 5149TIP3    H237083   0.169   5.499   2.183  1.7462 -1.0869 -1.5537
 5150TIP3   OH237084   4.422   2.445   7.895 -0.2844 -0.0182 -0.0384
 5150TIP3    H137085   4.399   2.352   7.894  0.4945 -0.3471  3.1086
 5150TIP3    H237086   4.491   2.453   7.828  1.9822 -2.4695  1.7779
 5151TIP3   OH237087   1.518   2.682   7.625 -0.7826  0.0798  0.4183
 5151TIP3    H137088   1.597   2.689   7.678 -0.2768  0.0365 -0.3110
 5151TIP3    H237089   1.515   2.763   7.575 -0.9481 -0.1120  0.1133
 5152TIP3   OH237090   1.045   0.881   0.722  0.5571  0.0313  0.0838
 5152TIP3    H137091   1.122   0.825   0.728 -1.4895 -3.0117  0.0363
 5152TIP3    H237092   1.064   0.954   0.781  3.3888 -0.6724  0.1582
 5153TIP3   OH237093   5.948   4.109   8.019 -0.5319 -0.1012 -0.3705
 5153TIP3    H137094   5.953   4.097   7.924 -0.6875  1.6804 -0.6356
 5153TIP3    H237095   6.039   4.120   8.047 -0.6641  2.5880 -0.8201
 5154TIP3   OH237096   6.708   3.671   7.916  0.9191  0.2292  0.3619
 5154TIP3    H137097   6.691   3.712   8.001  0.6197  0.8350  0.0186
 5154TIP3    H237098   6.741   3.584   7.937  0.4512  0.2228  1.0960
 5155TIP3   OH237099   0.286   5.686   8.019 -0.6390 -0.0942 -0.1348
 5155TIP3    H137100   0.224   5.681   7.946 -0.8837 -0.4930  0.0967
 5155TIP3    H237101   0.365   5.641   7.986 -0.4750  0.3966 -0.4209
 5156TIP3   OH237102   4.018   0.835   7.221 -0.0191  0.4482  0.1594
 5156TIP3    H137103   4.043   0.884   7.143 -0.6101  2.1744  1.0145
 5156TIP3    H237104   4.039   0.893   7.294  1.0567 -1.3505  1.3475
 5157TIP3   OH237105   5.645   2.794   0.370 -0.1671  0.2611 -0.4069
 5157TIP3    H137106   5.738   2.813   0.365  0.2989 -0.5914  2.8572
 5157TIP3    H237107   5.639   2.699   0.359 -0.7333  0.3587 -1.0524
 5158TIP3   OH237108   3.186   1.621   0.078  0.3676 -0.2324  0.0335
 5158TIP3    H137109   3.172   1.531   0.105 -1.1622 -0.1348 -0.3510
 5158TIP3    H237110   3.276   1.622   0.044  1.4242 -0.9269  2.5894
 5159TIP3   OH237111   5.051   3.920   1.184 -1.0362 -0.7466  0.2617
 5159TIP3    H137112   5.020   3.891   1.269  0.4555  2.0184  1.8924
 5159TIP3    H237113   5.147   3.912   1.189 -0.8197  0.8730 -0.5259
 5160TIP3   OH237114   3.199   3.460   0.822  0.1189 -0.3565 -0.4212
 5160TIP3    H137115   3.243   3.541   0.849  0.4409  0.4348 -3.0046
 5160TIP3    H237116   3.248   3.432   0.744 -1.2099 -1.9689 -0.7246
 5161TIP3   OH237117   3.697   6.910   8.624  0.1661  0.3536 -0.4302
 5161TIP3    H137118   3.792   6.914   8.612  0.1832  0.6448 -0.1855
 5161TIP3    H237119   3.663   6.988   8.581 -0.1086 -0.5088 -1.8756
 5162TIP3   OH237120   6.084   1.544   6.681  0.0440  0.1296 -0.0634
 5162TIP3    H137121   6.088   1.449   6.676 -1.0332 -0.0718  2.1247
 5162TIP3    H237122   6.175   1.572   6.671  0.7114 -1.2912  1.6800
 5163TIP3   OH237123   4.828   3.663   8.332  0.0495 -0.2901  0.8234
 5163TIP3    H137124   4.900   3.612   8.368  1.0936 -0.0527 -0.8343
 5163TIP3    H237125   4.856   3.754   8.340 -0.4518 -0.1400  0.9428
 5164TIP3   OH237126   5.494   6.156   0.008 -0.6545  0.1012  0.3027
 5164TIP3    H137127   5.480   6.107   0.089  0.2571 -0.7493 -0.0378
 5164TIP3    H237128   5.475   6.247   0.032  1.1114  0.1160  1.9103
 5165TIP3   OH237129   4.920   1.408   7.172 -0.0445 -0.1307  0.1320
 5165TIP3    H137130   4.891   1.319   7.194 -0.1699  0.0403  0.6699
 5165TIP3    H237131   4.996   1.422   7.229  0.7974 -0.3808 -0.8871
 5166TIP3   OH237132   6.674   3.439   0.869  0.0997 -0.1099 -0.4776
 5166TIP3    H137133   6.733   3.376   0.827  0.1992 -0.5263  0.2531
 5166TIP3    H237134   6.586   3.405   0.851  0.1465 -0.3515 -0.2677
 5167TIP3   OH237135   0.006   2.694   8.520 -0.0711  0.5133  0.5803
 5167TIP3    H137136  -0.048   2.771   8.503  1.9385  2.0533  0.6680
 5167TIP3    H237137   0.092   2.731   8.542  1.7928 -1.8064 -2.1697
 5168TIP3   OH237138   4.996   6.730   1.468 -0.3130  0.1198  0.6876
 5168TIP3    H137139   4.999   6.760   1.559  2.1054  0.0675  0.6906
 5168TIP3    H237140   5.077   6.681   1.456 -1.1177 -0.8548 -1.1955
 5169TIP3   OH237141   4.618   5.427   6.646 -0.4056 -0.6943 -0.4814
 5169TIP3    H137142   4.712   5.410   6.638 -0.4820 -1.5547  0.2954
 5169TIP3    H237143   4.577   5.354   6.599 -0.6998  0.8587 -2.8326
 5170TIP3   OH237144   6.858   0.986   1.474  0.0358 -0.1209 -0.0998
 5170TIP3    H137145   6.852   1.042   1.396  0.1990 -0.1172 -0.1091
 5170TIP3    H237146   6.770   0.951   1.484 -0.2488  0.6928  0.3209
 5171TIP3   OH237147   6.268   5.452   1.644  0.2005  0.1655 -0.0896
 5171TIP3    H137148   6.302   5.364   1.655 -0.9714 -0.0629  2.5694
 5171TIP3    H237149   6.250   5.460   1.551 -0.3162 -2.6555 -0.3182
 5172TIP3   OH237150   2.130   6.152   0.794  0.0775 -0.7359  0.0242
 5172TIP3    H137151   2.048   6.115   0.761 -0.7592  1.1403 -0.1013
 5172TIP3    H237152   2.193   6.138   0.723  0.0001 -2.5251  0.2692
 5173TIP3   OH237153   0.682   5.632   2.605 -0.8646 -0.2941  0.0759
 5173TIP3    H137154   0.600   5.609   2.648 -0.6090 -0.4130  0.5092
 5173TIP3    H237155   0.720   5.701   2.660 -1.5967  1.1758 -1.1684
 5174TIP3   OH237156   1.606   1.514   0.240 -0.3977 -0.1030 -0.5114
 5174TIP3    H137157   1.650   1.585   0.286 -0.0541 -1.1988  0.9489
 5174TIP3    H237158   1.522   1.551   0.213 -0.8305  0.5086  1.4598
 5175TIP3   OH237159   6.596   5.478   1.685 -0.4731 -0.2106 -0.0934
 5175TIP3    H137160   6.593   5.466   1.590  0.2187 -1.0398 -0.0147
 5175TIP3    H237161   6.629   5.567   1.697  2.8579 -1.2595 -0.6254
 5176TIP3   OH237162   6.531   3.120   1.937  0.1281 -0.2966 -0.2984
 5176TIP3    H137163   6.579   3.062   1.996  0.2552  0.2572  0.1410
 5176TIP3    H237164   6.478   3.060   1.883 -2.5706 -0.7278  2.5538
 5177TIP3   OH237165   5.303   1.367   2.199  0.2169 -0.8021  0.2893
 5177TIP3    H137166   5.208   1.378   2.196  0.2228 -0.6463  0.7012
 5177TIP3    H237167   5.315   1.272   2.208  0.1180 -0.8963 -0.4920
 5178TIP3   OH237168   0.398   3.468   7.454  0.0659  1.0641 -1.0902
 5178TIP3    H137169   0.460   3.404   7.487 -0.6146  0.3038 -1.2610
 5178TIP3    H237170   0.329   3.416   7.411 -2.4174  1.6137  1.8504
 5179TIP3   OH237171   4.119   2.704   0.463  0.3981 -0.8229  0.1782
 5179TIP3    H137172   4.145   2.617   0.493  2.0625 -0.5347 -0.2986
 5179TIP3    H237173   4.111   2.756   0.543 -0.2677 -1.3201  0.4406
 5180TIP3   OH237174   1.360   2.105   7.850  0.1256  0.3041 -0.8966
 5180TIP3    H137175   1.305   2.134   7.777 -0.7150 -0.3721 -0.5439
 5180TIP3    H237176   1.298   2.090   7.922  0.9926  1.4734  0.1313
 5181TIP3   OH237177   1.440   1.442   6.525  0.2841 -0.2758  0.6117
 5181TIP3    H137178   1.494   1.363   6.519  0.1471 -0.2812 -0.7433
 5181TIP3    H237179   1.381   1.437   6.450  0.1588  1.0277  0.6049
 5182TIP3   OH237180   0.498   6.779   7.925  0.2274 -0.1736  0.2411
 5182TIP3    H137181   0.510   6.872   7.903  0.5508  0.2744  2.1154
 5182TIP3    H237182   0.567   6.734   7.877  0.0664  0.5490 -0.6982
 5183TIP3   OH237183   1.656   2.153   8.544  0.1342 -0.0455  0.1913
 5183TIP3    H137184   1.615   2.221   8.491 -0.2513 -0.2847  0.1751
 5183TIP3    H237185   1.730   2.122   8.492  0.3154  0.3651  0.2027
 5184TIP3   OH237186   3.770   2.529   7.118 -0.4733  0.0514  0.2359
 5184TIP3    H137187   3.710   2.582   7.170  0.4828  1.9312 -0.4951
 5184TIP3    H237188   3.857   2.546   7.156  0.0331  0.1911 -0.9416
 5185TIP3   OH237189   1.912   5.397   8.353  0.3489 -0.0236 -0.0073
 5185TIP3    H137190   2.007   5.401   8.364  0.5118 -0.1240 -1.2195
 5185TIP3    H237191   1.894   5.459   8.281 -0.4835 -0.1124  0.1123
 5186TIP3   OH237192   3.996   2.778   0.228  0.5900 -0.0311  0.2017
 5186TIP3    H137193   4.051   2.733   0.165 -0.4411 -0.4246 -0.4239
 5186TIP3    H237194   4.035   2.757   0.313 -0.1146 -2.5203 -0.0083
 5187TIP3   OH237195   2.514   4.520   2.524 -0.0538  0.0695  0.4038
 5187TIP3    H137196   2.462   4.466   2.585 -0.6239  0.2988  0.1222
 5187TIP3    H237197   2.556   4.456   2.466  1.9351 -0.2872  2.1203
 5188TIP3   OH237198   2.962   3.224   7.196 -0.7159  0.6072 -0.5101
 5188TIP3    H137199   3.017   3.173   7.255 -1.9353 -0.7583 -0.4954
 5188TIP3    H237200   2.961   3.174   7.114 -0.2490  1.7040 -1.2074
 5189TIP3   OH237201   0.293   6.070   1.842 -0.0928  0.1103 -0.5151
 5189TIP3    H137202   0.222   6.109   1.893  0.2217  0.5546 -0.4176
 5189TIP3    H237203   0.277   6.100   1.752  0.6240  1.1792 -0.3095
 5190TIP3   OH237204   6.840   3.447   8.075  0.1338  0.2276 -0.1745
 5190TIP3    H137205   6.904   3.517   8.087 -0.6681  0.9495 -0.0121
 5190TIP3    H237206   6.791   3.444   8.157 -0.1806 -0.1744 -0.3708
 5191TIP3   OH237207   3.041   0.391   1.033 -0.5769  0.2121  0.1260
 5191TIP3    H137208   2.993   0.317   0.993 -0.6492 -0.4912  1.4563
 5191TIP3    H237209   2.981   0.425   1.099 -0.0324  0.6515  0.3997
 5192TIP3   OH237210   5.882   0.276   0.516 -0.2831  0.3150  0.7208
 5192TIP3    H137211   5.892   0.220   0.439  0.5296  1.0732  0.2540
 5192TIP3    H237212   5.795   0.255   0.550 -0.5790 -0.1694 -0.2924
 5193TIP3   OH237213   6.525   6.868   0.558  0.7501  0.9979 -0.1103
 5193TIP3    H137214   6.589   6.905   0.619  0.8249  1.3628 -0.4103
 5193TIP3    H237215   6.573   6.857   0.476  0.5259  0.9394 -0.2356
 5194TIP3   OH237216   4.725   1.357   8.193 -0.0667 -0.4366 -0.3982
 5194TIP3    H137217   4.820   1.351   8.181 -0.1663 -0.7972 -1.0723
 5194TIP3    H237218   4.714   1.367   8.287  0.6210 -0.9701 -0.2486
 5195TIP3   OH237219   3.894   4.171   1.527  0.4476  0.0016  0.0716
 5195TIP3    H137220   3.947   4.150   1.603 -1.6964  0.2257  1.7403
 5195TIP3    H237221   3.929   4.254   1.495  2.8266 -1.1982 -0.6712
 5196TIP3   OH237222   4.451   4.844   2.280 -0.2871 -0.3507  0.3012
 5196TIP3    H137223   4.446   4.749   2.289  2.0445 -0.4855  0.9037
 5196TIP3    H237224   4.523   4.869   2.337  0.1504  1.6131 -1.0211
 5197TIP3   OH237225   6.734   4.784   7.270  0.0456 -0.8871 -0.0299
 5197TIP3    H137226   6.651   4.735   7.274 -0.6923  0.3984  1.7040
 5197TIP3    H237227   6.784   4.753   7.345  0.9681 -1.2889 -0.7837
 5198TIP3   OH237228   4.559   3.887   8.501  0.5743 -0.3006  0.2207
 5198TIP3    H137229   4.560   3.854   8.411 -0.7623 -1.8281  0.7295
 5198TIP3    H237230   4.468   3.877   8.529  1.1643 -0.7697  2.0782
 5199TIP3   OH237231   3.341   4.604   6.557 -0.3917  0.1675  0.0569
 5199TIP3    H137232   3.281   4.646   6.619 -0.1945 -0.1023  0.4328
 5199TIP3    H237233   3.301   4.520   6.537  0.4714 -0.5715  1.2972
 5200TIP3   OH237234   0.650   1.672   1.533  0.1369  0.3777 -0.4803
 5200TIP3    H137235   0.563   1.687   1.569  0.4238 -0.3004  0.5341
 5200TIP3    H237236   0.691   1.758   1.531 -0.9556  0.9132 -2.1083
 5201TIP3   OH237237   6.116   1.349   8.310 -0.4694 -0.1646 -0.0142
 5201TIP3    H137238   6.173   1.275   8.333 -0.2711 -0.2870 -0.8734
 5201TIP3    H237239   6.057   1.357   8.385 -1.7592 -2.4381 -0.6894
 5202TIP3   OH237240   3.078   1.864   8.651 -0.5644  0.1275 -0.1796
 5202TIP3    H137241   3.081   1.866   8.556  0.2975 -0.1078 -0.1684
 5202TIP3    H237242   3.093   1.772   8.674  1.7126  0.5450  0.2169
 5203TIP3   OH237243   2.410   3.081   0.708  0.1452  0.6685 -0.1307
 5203TIP3    H137244   2.467   3.145   0.666 -0.6272  2.6005  1.5808
 5203TIP3    H237245   2.452   3.062   0.792 -1.4372  1.7598  0.9470
 5204TIP3   OH237246   4.721   6.705   7.915 -0.4359  0.3842  0.1597
 5204TIP3    H137247   4.806   6.669   7.891 -0.9188 -0.6589 -0.0496
 5204TIP3    H237248   4.713   6.786   7.864 -0.2823 -0.3812 -1.1102
 5205TIP3   OH237249   0.040   0.166   1.262  0.3222  0.1461 -0.2618
 5205TIP3    H137250   0.057   0.150   1.355 -0.5979  0.0330 -0.0945
 5205TIP3    H237251   0.012   0.081   1.228 -0.3154  0.4021 -0.3980
 5206TIP3   OH237252   2.105   5.063   0.681 -0.7516 -0.4630  0.1808
 5206TIP3    H137253   2.102   5.063   0.777 -1.5810  0.1901  0.1651
 5206TIP3    H237254   2.023   5.106   0.654 -0.4266 -0.4402 -0.8164
 5207TIP3   OH237255   3.104   3.925   0.104  0.0130  0.1482  0.1705
 5207TIP3    H137256   3.080   3.996   0.045  0.0511 -0.0617 -0.1033
 5207TIP3    H237257   3.158   3.966   0.172  1.7349  0.0802 -1.0714
 5208TIP3   OH237258   1.475   5.316   6.807  0.5701  0.0044 -0.2704
 5208TIP3    H137259   1.441   5.258   6.739 -2.3104  0.1887  0.8639
 5208TIP3    H237260   1.453   5.404   6.777 -0.9428  0.0749  0.9504
 5209TIP3   OH237261   5.424   3.598   7.859  0.1884  0.2025 -0.4855
 5209TIP3    H137262   5.372   3.590   7.939  1.3462 -1.0261  0.1972
 5209TIP3    H237263   5.512   3.568   7.885  0.9040  0.9751 -1.9090
 5210TIP3   OH237264   1.393   0.896   1.876 -0.1836 -0.4088  0.5630
 5210TIP3    H137265   1.447   0.822   1.901 -0.1287  0.0653  1.8931
 5210TIP3    H237266   1.453   0.971   1.878 -0.0986 -0.3755 -1.3256
 5211TIP3   OH237267   2.836   2.020   1.219  0.0707 -0.2161  0.3075
 5211TIP3    H137268   2.771   2.090   1.223  1.1246  0.7950  0.0745
 5211TIP3    H237269   2.888   2.039   1.141  1.4360 -0.2991  1.1679
 5212TIP3   OH237270   6.819   5.706   8.039 -0.9024 -0.3984 -0.2769
 5212TIP3    H137271   6.759   5.633   8.026  0.6905 -1.6739 -0.8257
 5212TIP3    H237272   6.806   5.762   7.963 -1.1080 -0.8929 -0.6111
 5213TIP3   OH237273   6.160   0.029   7.869 -0.5819  0.0688  0.2277
 5213TIP3    H137274   6.177  -0.055   7.913  0.4660 -0.8290 -1.7818
 5213TIP3    H237275   6.139   0.005   7.779  1.1113  2.0493 -0.7642
 5214TIP3   OH237276   6.660   0.591   1.469  0.3807  0.0588  0.4246
 5214TIP3    H137277   6.568   0.572   1.489  1.0075 -2.0567  1.5598
 5214TIP3    H237278   6.697   0.621   1.552  0.9860 -0.1841  0.2474
 5215TIP3   OH237279   2.294   2.509   0.564  0.2178  0.3957 -0.1812
 5215TIP3    H137280   2.348   2.442   0.522  0.1872  0.6699 -0.6716
 5215TIP3    H237281   2.253   2.464   0.637 -1.0509 -0.5716 -1.4220
 5216TIP3   OH237282   3.537   1.069   6.887 -0.1505  0.0459  0.5838
 5216TIP3    H137283   3.547   1.070   6.792 -2.1172 -0.1627  0.3295
 5216TIP3    H237284   3.626   1.063   6.921  0.5890  0.2171 -1.2372
 5217TIP3   OH237285   4.643   0.274   6.175 -0.3118 -0.1699  0.4831
 5217TIP3    H137286   4.708   0.265   6.245  0.4985  1.4960 -0.0054
 5217TIP3    H237287   4.574   0.327   6.213  1.4576  3.2577 -0.7191
 5218TIP3   OH237288   0.265   0.198   1.873 -0.0364 -0.4125  0.4260
 5218TIP3    H137289   0.325   0.132   1.837 -0.3670 -0.1446 -0.6457
 5218TIP3    H237290   0.309   0.281   1.858 -1.5623  0.0152 -2.4295
 5219TIP3   OH237291   5.357   2.409   0.565  0.1905  0.4388 -0.0857
 5219TIP3    H137292   5.428   2.435   0.624  1.1363 -1.4268 -0.3390
 5219TIP3    H237293   5.314   2.336   0.609 -0.7507  0.6917 -0.5531
 5220TIP3   OH237294   0.706   6.340   7.447 -0.0956  0.1241  0.1048
 5220TIP3    H137295   0.708   6.291   7.529  0.7642  0.7976  0.5028
 5220TIP3    H237296   0.789   6.319   7.404 -0.4293 -0.0239 -0.4875
 5221TIP3   OH237297   3.615   2.566   7.365 -0.7293 -0.5182 -0.3523
 5221TIP3    H137298   3.658   2.555   7.451 -0.4728  0.6249 -0.3169
 5221TIP3    H237299   3.533   2.518   7.374 -0.4281 -0.9449  0.3155
 5222TIP3   OH237300   6.729   1.804   1.728  0.7957  0.2314  0.8130
 5222TIP3    H137301   6.728   1.788   1.822  2.2479  0.3880  0.8721
 5222TIP3    H237302   6.637   1.793   1.701  0.1508  1.2767  2.4131
 5223TIP3   OH237303   1.506   4.431   6.545  0.3416  0.2632  0.0457
 5223TIP3    H137304   1.489   4.337   6.549 -0.0129  0.3525  0.7747
 5223TIP3    H237305   1.598   4.438   6.516  0.7272 -0.3342  1.0769
 5224TIP3   OH237306   4.790   0.403   8.451 -0.2154  0.4010  0.3357
 5224TIP3    H137307   4.803   0.497   8.466  0.9906  0.3997 -0.5550
 5224TIP3    H237308   4.877   0.371   8.426 -0.4888 -1.0596  1.1507
 5225TIP3   OH237309   0.926   4.971   0.761 -0.3715 -0.6806  0.6400
 5225TIP3    H137310   0.974   4.915   0.822  0.2319  0.9514  1.7343
 5225TIP3    H237311   0.971   4.960   0.677 -0.7047 -2.3247  0.6406
 5226TIP3   OH237312   6.678   5.070   8.110 -0.3273  0.1385  0.1206
 5226TIP3    H137313   6.755   5.125   8.118 -0.0536 -0.3396  0.9998
 5226TIP3    H237314   6.699   5.008   8.041 -0.4870  0.8814 -0.6075
 5227TIP3   OH237315   4.850   6.815   8.525  0.1480 -0.2370  0.1575
 5227TIP3    H137316   4.871   6.737   8.472  2.4682 -0.3192  1.0885
 5227TIP3    H237317   4.932   6.865   8.528 -1.0278  1.7818  0.3938
 5228TIP3   OH237318   6.086   0.967   0.409 -0.0698  0.3583 -0.0452
 5228TIP3    H137319   6.081   0.886   0.461  3.3304  0.4930  0.7045
 5228TIP3    H237320   6.113   0.937   0.322 -0.3052  0.5692 -0.1898
 5229TIP3   OH237321   1.250   1.881   8.251 -0.6880  0.1883  0.1827
 5229TIP3    H137322   1.318   1.827   8.213 -0.3415  0.2202  0.7428
 5229TIP3    H237323   1.187   1.819   8.287 -1.3386  0.1549 -0.9884
 5230TIP3   OH237324   4.825   2.005   1.187 -0.1514  0.1977 -0.0410
 5230TIP3    H137325   4.794   2.042   1.270 -0.2129  0.4044 -0.1534
 5230TIP3    H237326   4.818   2.078   1.125 -2.2614 -0.5525 -0.7634
 5231TIP3   OH237327   0.130   5.774   7.495 -0.4160 -0.5152 -0.6617
 5231TIP3    H137328   0.224   5.758   7.494 -0.4576 -0.9813  0.5389
 5231TIP3    H237329   0.092   5.698   7.452 -0.2787 -0.6466 -0.5509
 5232TIP3   OH237330   2.634   1.263   0.823 -0.2201 -0.1304  0.3356
 5232TIP3    H137331   2.707   1.322   0.802 -1.5679  0.9986 -1.4265
 5232TIP3    H237332   2.561   1.296   0.771 -1.6784 -1.9671  1.1243
 5233TIP3   OH237333   0.971   5.416   1.726 -0.4008  0.3611 -0.2132
 5233TIP3    H137334   0.899   5.440   1.667 -0.5744 -1.1430 -0.6738
 5233TIP3    H237335   1.039   5.481   1.709  1.2520 -2.1271 -5.1704
 5234TIP3   OH237336   5.822   3.370   1.898  0.0948  0.6071  0.7338
 5234TIP3    H137337   5.802   3.438   1.834  0.5083 -0.6256 -0.7932
 5234TIP3    H237338   5.738   3.327   1.914  0.4485 -1.1778 -1.6001
 5235TIP3   OH237339   4.402   0.486   2.066  0.3894  0.2439  0.0449
 5235TIP3    H137340   4.347   0.559   2.093 -0.3255 -0.4362  0.4542
 5235TIP3    H237341   4.342   0.413   2.053  1.1857 -0.5333  0.5532
 5236TIP3   OH237342   4.999   2.135   7.068  0.7507 -0.8492  0.6871
 5236TIP3    H137343   4.999   2.121   6.974  0.6632 -1.9948  0.8402
 5236TIP3    H237344   5.068   2.077   7.101  1.9184  0.7481  1.1759
 5237TIP3   OH237345   3.485   0.390   1.040 -0.6349  0.0690 -0.1541
 5237TIP3    H137346   3.403   0.403   1.087 -1.2346  0.3132 -1.2445
 5237TIP3    H237347   3.529   0.475   1.045 -1.2091  0.4280 -0.9731
 5238TIP3   OH237348   5.953   1.825   6.897 -0.2197  0.0012 -0.4945
 5238TIP3    H137349   6.033   1.772   6.902 -0.5116 -0.4794 -0.8139
 5238TIP3    H237350   5.912   1.814   6.983  0.6978  1.3056  0.1494
 5239TIP3   OH237351   1.809   0.977   2.046 -0.2037 -0.0292 -0.3787
 5239TIP3    H137352   1.794   0.902   2.103  0.0886 -0.0542 -0.3371
 5239TIP3    H237353   1.836   1.047   2.106 -0.5010  0.1196 -0.4133
 5240TIP3   OH237354   1.937   5.627   0.853 -0.4583  0.4947  0.0611
 5240TIP3    H137355   2.025   5.600   0.879 -0.7643  0.9608  1.7143
 5240TIP3    H237356   1.935   5.721   0.872 -1.3737  0.4434  0.2486
 5241TIP3   OH237357   3.915   0.001   7.751 -0.4606 -0.2253  0.1902
 5241TIP3    H137358   3.916   0.065   7.822  1.1342  0.9063 -0.7776
 5241TIP3    H237359   3.998  -0.046   7.759 -0.9640 -1.1719 -0.0000
 5242TIP3   OH237360   4.930   5.349   7.620  0.7576 -0.5121 -0.5081
 5242TIP3    H137361   4.876   5.356   7.699 -2.6577  0.1919 -2.7104
 5242TIP3    H237362   4.939   5.439   7.589  1.7558 -0.8131 -1.1135
 5243TIP3   OH237363   1.269   6.596   1.246 -0.0399  0.0900 -0.0361
 5243TIP3    H137364   1.250   6.576   1.338  1.2760 -1.3367 -0.0291
 5243TIP3    H237365   1.183   6.600   1.204 -0.6261 -3.7160  0.4176
 5244TIP3   OH237366   3.566   2.113   1.086 -0.2387  0.2830 -0.7469
 5244TIP3    H137367   3.534   2.046   1.146  0.6387  0.1639 -0.3852
 5244TIP3    H237368   3.547   2.078   0.999 -0.0148 -0.3352 -0.5578
 5245TIP3   OH237369   3.854   0.102   7.258  0.0176 -0.0181 -0.0662
 5245TIP3    H137370   3.894   0.189   7.258 -0.1745  0.0718  0.3685
 5245TIP3    H237371   3.761   0.118   7.275 -0.1187 -0.2633 -0.5772
 5246TIP3   OH237372   1.109   6.027   7.250 -0.5343 -0.4803  0.0037
 5246TIP3    H137373   1.124   6.047   7.157  0.4477 -0.4157  0.1604
 5246TIP3    H237374   1.014   6.028   7.260 -0.6316  0.0903 -0.8765
 5247TIP3   OH237375   4.781   4.262   1.406  0.1158 -0.7559 -0.1712
 5247TIP3    H137376   4.875   4.274   1.395  0.5416 -1.2448  2.3200
 5247TIP3    H237377   4.745   4.270   1.318  2.2461  1.4707 -0.9484
 5248TIP3   OH237378   0.269   1.513   0.435  0.2197 -0.4758  0.0779
 5248TIP3    H137379   0.304   1.503   0.524 -0.1783  2.1956  0.5986
 5248TIP3    H237380   0.186   1.466   0.437  0.5888 -1.1395  0.8415
 5249TIP3   OH237381   4.660   1.680   7.880  0.7487 -0.2303  0.3233
 5249TIP3    H137382   4.596   1.715   7.818 -0.3556  0.8644  1.9850
 5249TIP3    H237383   4.720   1.753   7.896 -0.3624  0.3218  2.2705
 5250TIP3   OH237384   6.558   3.999   7.952  0.1796 -0.4469  0.2774
 5250TIP3    H137385   6.609   3.927   7.914  1.2113  0.6653 -0.5175
 5250TIP3    H237386   6.621   4.069   7.965 -1.0399  0.8019 -0.2431
 5251TIP3   OH237387   3.859   4.064   7.475  0.0441 -0.0490  0.3596
 5251TIP3    H137388   3.859   3.991   7.412 -0.9807 -0.6290  0.9997
 5251TIP3    H237389   3.766   4.082   7.489  0.2692  2.2210 -0.7052
 5252TIP3   OH237390   5.886   1.818   1.129  0.1487 -0.2172  0.4542
 5252TIP3    H137391   5.942   1.828   1.205 -0.1859  1.2559  0.5436
 5252TIP3    H237392   5.810   1.874   1.148  0.1058  0.2498 -0.9860
 5253TIP3   OH237393   6.620   3.980   0.052  0.2400 -0.3930  0.3823
 5253TIP3    H137394   6.662   4.049   0.102 -0.7658  1.6643 -1.4600
 5253TIP3    H237395   6.526   3.992   0.069 -0.1437  0.4063 -1.8918
 5254TIP3   OH237396   0.801   6.669   8.060 -0.0569  0.2943  0.1135
 5254TIP3    H137397   0.881   6.709   8.026 -0.3429  0.6676 -0.1271
 5254TIP3    H237398   0.749   6.742   8.093  0.4947 -0.1033  1.9974
 5255TIP3   OH237399   6.186   1.077   7.116 -0.4820  0.0613  0.2285
 5255TIP3    H137400   6.263   1.042   7.071 -1.6569 -0.9130 -1.1468
 5255TIP3    H237401   6.116   1.070   7.051 -2.0185 -0.3350  1.8442
 5256TIP3   OH237402   6.277   3.647   2.043  0.0979  0.0131 -0.1860
 5256TIP3    H137403   6.369   3.660   2.018  0.6111 -1.3522  0.8756
 5256TIP3    H237404   6.252   3.565   2.001 -0.5070  0.1592 -0.1169
 5257TIP3   OH237405   0.222   1.817   8.221 -0.8587 -0.5539 -0.7743
 5257TIP3    H137406   0.276   1.739   8.236  0.6654  0.7752  1.0309
 5257TIP3    H237407   0.263   1.859   8.145  0.6379  0.3465  0.4669
 5258TIP3   OH237408   2.000   3.100   8.587 -0.0166  0.5987 -0.2631
 5258TIP3    H137409   2.086   3.062   8.605  0.0546  0.6726 -0.4469
 5258TIP3    H237410   1.973   3.058   8.505 -1.0731 -1.0123  0.8403
 5259TIP3   OH237411   1.571   4.099   8.229 -0.0962 -0.0204  0.0426
 5259TIP3    H137412   1.488   4.145   8.217  0.0212  0.3799  0.7481
 5259TIP3    H237413   1.570   4.031   8.162  0.1034  1.5150 -1.5765
 5260TIP3   OH237414   4.160   2.868   7.773  0.1344 -0.4658  0.0614
 5260TIP3    H137415   4.167   2.933   7.843  1.7190 -0.4753 -0.0725
 5260TIP3    H237416   4.070   2.835   7.781 -1.0567  2.3375 -0.4241
 5261TIP3   OH237417   1.440   4.752   2.414  0.2693  0.0134 -0.4439
 5261TIP3    H137418   1.527   4.744   2.374  0.7473  0.2414  0.5079
 5261TIP3    H237419   1.458   4.761   2.508 -0.6594  2.4675 -0.4236
 5262TIP3   OH237420   1.005   2.616   2.658  0.5791 -0.1320 -0.1378
 5262TIP3    H137421   0.921   2.624   2.613  0.4391 -0.9564 -0.0455
 5262TIP3    H237422   1.027   2.523   2.650 -0.0239 -0.5797  2.4668
 5263TIP3   OH237423   4.687   4.724   6.936  0.0505 -0.2163  0.2323
 5263TIP3    H137424   4.698   4.773   6.854 -0.0057 -1.0142 -0.2550
 5263TIP3    H237425   4.665   4.635   6.909 -1.4413 -0.1498  1.1351
 5264TIP3   OH237426   3.795   4.959   0.261  0.3972 -0.2583 -0.2856
 5264TIP3    H137427   3.879   4.977   0.218  0.7695 -1.2947 -0.0192
 5264TIP3    H237428   3.775   4.868   0.238 -1.4669  0.4584 -1.6829
 5265TIP3   OH237429   1.868   2.412   1.876 -0.2599 -0.5610  0.7250
 5265TIP3    H137430   1.893   2.377   1.790 -0.6944  0.2357  0.2602
 5265TIP3    H237431   1.951   2.431   1.919 -0.0308  0.4463 -0.1273
 5266TIP3   OH237432   1.033   2.919   7.685 -0.7401  0.4339  0.3885
 5266TIP3    H137433   1.059   2.859   7.754  1.4870  0.9376  0.0686
 5266TIP3    H237434   1.022   2.863   7.608 -0.7134  0.1804  0.5678
 5267TIP3   OH237435   1.755   1.069   1.296 -0.0287 -0.3552 -0.4342
 5267TIP3    H137436   1.705   0.991   1.273  0.0491 -1.3808  2.4645
 5267TIP3    H237437   1.846   1.046   1.278 -0.0158 -0.9477  0.3434
 5268TIP3   OH237438   1.617   4.056   1.352 -0.3974  0.0896  0.0080
 5268TIP3    H137439   1.635   4.051   1.258 -0.9555 -1.4095 -0.0345
 5268TIP3    H237440   1.703   4.067   1.393 -0.2467  2.2922 -0.7237
 5269TIP3   OH237441   6.904   6.765   0.813 -0.2940 -0.0467 -0.8539
 5269TIP3    H137442   6.903   6.673   0.786  2.1055 -0.2037 -0.6487
 5269TIP3    H237443   6.997   6.789   0.811 -0.5441  1.5270  1.8589
 5270TIP3   OH237444   4.667   5.097   7.604 -0.8248  0.2246 -0.1993
 5270TIP3    H137445   4.718   5.083   7.684 -1.1211 -0.5559 -0.1391
 5270TIP3    H237446   4.576   5.099   7.633 -0.9570 -0.4003 -0.5529
 5271TIP3   OH237447   5.937   1.141   6.649 -0.4738  0.2419  0.5284
 5271TIP3    H137448   6.003   1.201   6.615  3.2947 -2.8956  1.5379
 5271TIP3    H237449   5.900   1.098   6.572 -1.5609  2.0768 -0.0479
 5272TIP3   OH237450   6.277   2.481   7.706 -0.1821 -0.0783 -0.4182
 5272TIP3    H137451   6.204   2.433   7.668  1.0221 -1.0974 -1.5705
 5272TIP3    H237452   6.237   2.546   7.764 -1.9870 -0.3542 -1.3036
 5273TIP3   OH237453   6.338   6.293   0.360  0.3650  0.5586  0.4391
 5273TIP3    H137454   6.253   6.248   0.361  0.2805  0.6951 -0.0588
 5273TIP3    H237455   6.365   6.290   0.268  0.4457  1.3511  0.4297
 5274TIP3   OH237456   3.196   2.131   8.137  0.4517 -0.5872 -0.5294
 5274TIP3    H137457   3.288   2.110   8.125  0.3583 -1.4113  0.0431
 5274TIP3    H237458   3.187   2.148   8.231  0.1900  0.4134 -0.7249
 5275TIP3   OH237459   2.897   5.576   8.433 -0.2206  0.3979  0.1776
 5275TIP3    H137460   2.963   5.614   8.491  0.6711 -2.3118  1.0741
 5275TIP3    H237461   2.933   5.589   8.345  0.0225  1.5890  0.4270
 5276TIP3   OH237462   6.076   3.568   0.876  0.2800  0.2813  0.0378
 5276TIP3    H137463   6.104   3.502   0.813 -0.4663 -0.2008  0.1951
 5276TIP3    H237464   6.106   3.651   0.840 -0.6680  0.0819 -1.2686
 5277TIP3   OH237465   6.711   6.501   1.428  0.0001  0.3579 -0.6177
 5277TIP3    H137466   6.804   6.510   1.405  0.0048  2.9400  0.0323
 5277TIP3    H237467   6.664   6.515   1.346  0.1877  1.8062 -0.5159
 5278TIP3   OH237468   3.602   6.168   1.275  0.4054  0.6585 -0.0953
 5278TIP3    H137469   3.551   6.096   1.239 -0.8601  0.7304  1.4595
 5278TIP3    H237470   3.620   6.143   1.366 -0.0494  2.2545  0.4707
 5279TIP3   OH237471   1.253   0.281   6.906 -0.0333 -0.6070  0.2468
 5279TIP3    H137472   1.332   0.328   6.933 -0.1720  0.6259 -1.3286
 5279TIP3    H237473   1.227   0.231   6.983  1.0435  0.6716  1.4988
 5280TIP3   OH237474   2.286   0.486   7.407  0.4560  0.2527 -0.4589
 5280TIP3    H137475   2.283   0.483   7.503  0.5941 -0.3444 -0.4700
 5280TIP3    H237476   2.238   0.409   7.379  1.7255 -0.4171 -0.8483
 5281TIP3   OH237477   4.567   4.178   7.747 -0.0231 -0.0805  0.1849
 5281TIP3    H137478   4.618   4.097   7.748  2.0187  1.1438 -0.0369
 5281TIP3    H237479   4.626   4.245   7.781 -1.1453  1.6163 -0.9929
 5282TIP3   OH237480   1.398   1.153   7.713  0.1258 -0.0046  0.2009
 5282TIP3    H137481   1.397   1.248   7.701 -0.2626 -0.0118  0.1801
 5282TIP3    H237482   1.410   1.141   7.807  0.3361  0.0620  0.1844
 5283TIP3   OH237483   2.538   3.942   0.553 -0.1489  0.4486 -0.0165
 5283TIP3    H137484   2.546   3.893   0.635  0.5820  0.3255 -0.1568
 5283TIP3    H237485   2.468   4.005   0.570 -0.3586  0.0834  0.5279
 5284TIP3   OH237486   1.797   4.203   1.851 -0.0058 -0.4245  0.1553
 5284TIP3    H137487   1.889   4.191   1.873 -0.1501  0.6435  1.4262
 5284TIP3    H237488   1.749   4.147   1.913 -0.2802  0.1224  0.4377
 5285TIP3   OH237489   4.689   4.521   7.652 -0.3752  0.2749 -0.0823
 5285TIP3    H137490   4.750   4.452   7.628  0.3904  0.0316  2.2969
 5285TIP3    H237491   4.603   4.487   7.627 -0.0195 -1.5958  1.0883
 5286TIP3   OH237492   0.185   0.291   0.008  0.5947  0.2586  0.0448
 5286TIP3    H137493   0.147   0.370   0.046  0.9246  0.2261  0.4451
 5286TIP3    H237494   0.160   0.294  -0.084 -0.8084 -0.0024  0.3864
 5287TIP3   OH237495   5.006   2.466   0.602  0.1519  0.2585  0.1697
 5287TIP3    H137496   5.040   2.493   0.517  1.4150 -1.1136  0.1931
 5287TIP3    H237497   5.035   2.375   0.612 -1.5621 -0.2197  1.2663
 5288TIP3   OH237498   0.750   4.776   0.902  0.2070  0.3744 -0.2588
 5288TIP3    H137499   0.773   4.689   0.868  0.7085  0.2841  0.3061
 5288TIP3    H237500   0.806   4.836   0.852  0.9254  0.2439  0.3725
 5289TIP3   OH237501   3.778   6.230   1.949 -0.0427 -0.1091  0.0839
 5289TIP3    H137502   3.744   6.159   2.003  1.2747 -1.0265 -0.2574
 5289TIP3    H237503   3.872   6.215   1.945  0.1567  1.1800 -0.6953
 5290TIP3   OH237504   3.973   4.637   8.178  0.1425 -0.3105 -1.1374
 5290TIP3    H137505   3.934   4.550   8.175  0.2115 -0.5172  1.3701
 5290TIP3    H237506   4.044   4.629   8.242 -0.9200  1.9401  0.4526
 5291TIP3   OH237507   2.891   5.564   0.904  0.9067 -0.5766 -0.4394
 5291TIP3    H137508   2.874   5.594   0.993  0.9970  1.2949 -1.0047
 5291TIP3    H237509   2.808   5.524   0.876  0.1441  0.8062 -0.2457
 5292TIP3   OH237510   5.907   2.770   0.527 -0.4562 -0.1362 -0.0230
 5292TIP3    H137511   5.932   2.792   0.438  1.6032 -0.2249  0.4639
 5292TIP3    H237512   5.990   2.746   0.569 -1.2953  0.3371  2.0227
 5293TIP3   OH237513   1.076   4.811   8.052  0.8598  0.2309 -0.4788
 5293TIP3    H137514   1.021   4.815   7.974  0.8965  1.4590 -0.4606
 5293TIP3    H237515   1.123   4.894   8.053  0.8165  0.2634  0.8777
 5294TIP3   OH237516   2.302   1.850   6.869  0.0769  0.2929  0.0097
 5294TIP3    H137517   2.343   1.937   6.868  1.5927 -0.3651  0.9372
 5294TIP3    H237518   2.368   1.793   6.909 -0.6099 -1.4307 -1.1986
 5295TIP3   OH237519   4.507   1.665   8.268 -0.3800 -0.5089 -0.4242
 5295TIP3    H137520   4.540   1.596   8.325  1.0590  0.3039 -0.2398
 5295TIP3    H237521   4.525   1.746   8.314  0.1343  0.1218 -1.6986
 5296TIP3   OH237522   5.693   3.002   1.307  0.8229 -0.2145 -0.3046
 5296TIP3    H137523   5.733   2.918   1.329  2.6317 -0.0010 -2.4080
 5296TIP3    H237524   5.612   2.979   1.262  0.0893 -0.7335  1.2188
 5297TIP3   OH237525   1.525   6.124   1.833 -0.0606 -0.5285  0.1418
 5297TIP3    H137526   1.518   6.217   1.854  1.7454 -0.6710  1.5790
 5297TIP3    H237527   1.437   6.089   1.850 -0.2227  0.5184  1.6485
 5298TIP3   OH237528   4.670   4.351   2.335  0.0565 -0.3342  0.0362
 5298TIP3    H137529   4.674   4.445   2.323  1.3098 -0.3372  0.2187
 5298TIP3    H237530   4.741   4.317   2.280 -0.1666 -1.1363  0.2263
 5299TIP3   OH237531   5.129   6.068   0.044  0.0345  0.4703 -0.1520
 5299TIP3    H137532   5.066   6.086  -0.026  1.2505 -1.2376 -1.7867
 5299TIP3    H237533   5.180   6.149   0.052 -0.7627  1.0195 -0.5254
 5300TIP3   OH237534   6.368   4.398   8.545  0.2719  0.7133 -1.0045
 5300TIP3    H137535   6.352   4.312   8.506 -2.0380  0.3247  0.6210
 5300TIP3    H237536   6.438   4.383   8.608  0.5209  0.2492 -1.3771
 5301TIP3   OH237537   1.353   3.952   1.373  0.0453  0.5008  0.3373
 5301TIP3    H137538   1.448   3.943   1.381 -0.2835 -2.2311  3.2308
 5301TIP3    H237539   1.339   4.044   1.354  3.2545  0.9825 -0.2182
 5302TIP3   OH237540   0.094   3.502   0.029  0.1548 -0.1785 -0.0673
 5302TIP3    H137541   0.118   3.437  -0.037 -0.4899 -1.1188  0.5977
 5302TIP3    H237542   0.175   3.520   0.076  0.3438 -0.4561 -0.2871
 5303TIP3   OH237543   4.935   0.431   7.313 -0.1761  0.1045  0.2078
 5303TIP3    H137544   4.957   0.374   7.240  1.9325  0.1306  0.7831
 5303TIP3    H237545   4.897   0.509   7.271  0.3366 -0.1716 -0.7970
 5304TIP3   OH237546   0.277   3.744   8.500  0.7721  0.7395  0.7483
 5304TIP3    H137547   0.328   3.721   8.422  0.7632 -0.3127  1.0413
 5304TIP3    H237548   0.304   3.681   8.566 -0.3021  0.6862  1.1571
 5305TIP3   OH237549   6.116   1.493   8.631  0.0672  0.1225 -0.1989
 5305TIP3    H137550   6.106   1.468   8.723 -1.9070  1.4441  0.0025
 5305TIP3    H237551   6.189   1.440   8.600 -0.3415 -1.6498  1.6484
 5306TIP3   OH237552   2.011   2.441   0.498  0.6082  0.1403  0.4592
 5306TIP3    H137553   2.004   2.511   0.433  0.0020 -0.3772 -0.0403
 5306TIP3    H237554   2.093   2.396   0.476  0.2561 -0.2198 -0.1452
 5307TIP3   OH237555   0.654   0.054   1.258 -0.2508 -0.2597 -0.1750
 5307TIP3    H137556   0.686   0.132   1.303 -0.8769  0.1370 -0.4105
 5307TIP3    H237557   0.559   0.065   1.255 -0.5545 -1.9569  1.4987
 5308TIP3   OH237558   6.129   1.957   6.598 -0.3479 -0.0625 -0.1293
 5308TIP3    H137559   6.213   1.988   6.565 -0.4106  1.4983  1.0564
 5308TIP3    H237560   6.150   1.915   6.682 -0.7306  0.3459  0.1792
 5309TIP3   OH237561   2.526   5.405   2.077 -0.0803 -0.4410  0.1338
 5309TIP3    H137562   2.457   5.374   2.136  1.8475 -1.4212  2.0220
 5309TIP3    H237563   2.556   5.326   2.032 -0.9327  0.1642 -1.5672
 5310TIP3   OH237564   3.934   4.319   7.634 -0.2179  0.0649  0.3251
 5310TIP3    H137565   3.985   4.363   7.702 -0.1870  0.2517  0.1816
 5310TIP3    H237566   3.880   4.388   7.596 -2.0073 -0.4532  1.7533
 5311TIP3   OH237567   3.099   2.431   7.209  0.3025 -0.1282 -0.7067
 5311TIP3    H137568   3.074   2.374   7.137 -0.3956 -0.5116 -0.1635
 5311TIP3    H237569   3.063   2.390   7.287  1.1465  0.2263 -0.1184
 5312TIP3   OH237570   6.490   1.592   1.253  0.2255  0.0456  0.5491
 5312TIP3    H137571   6.541   1.653   1.306  1.0289 -0.7309  0.7000
 5312TIP3    H237572   6.478   1.637   1.169 -0.7458  1.1316  1.2402
 5313TIP3   OH237573   2.841   4.819   7.935  0.2813  0.2224 -0.2612
 5313TIP3    H137574   2.872   4.825   8.026  0.9250 -1.0044 -0.3878
 5313TIP3    H237575   2.904   4.871   7.885  1.2909 -1.0198 -0.3093
 5314TIP3   OH237576   2.926   6.762   1.769  0.5464  0.0993  0.1846
 5314TIP3    H137577   2.959   6.746   1.857  1.3931  0.2970 -0.0834
 5314TIP3    H237578   2.832   6.746   1.775  0.8398 -1.6603  0.7119
 5315TIP3   OH237579   4.289   3.251   8.656  0.0647  0.7140  0.0809
 5315TIP3    H137580   4.221   3.219   8.597 -0.8148 -0.1417  1.5026
 5315TIP3    H237581   4.254   3.237   8.743  2.2612 -0.2028  0.8951
 5316TIP3   OH237582   5.739   5.822   1.581  0.2552  0.3162  0.3022
 5316TIP3    H137583   5.662   5.804   1.635 -0.8706 -1.4093 -1.7176
 5316TIP3    H237584   5.813   5.786   1.630 -0.6793 -0.8583  0.8899
 5317TIP3   OH237585   2.549   0.955   1.203 -0.0812  0.3301  0.0717
 5317TIP3    H137586   2.554   1.048   1.181  1.5839  0.3413  0.3589
 5317TIP3    H237587   2.629   0.917   1.166  0.3895 -0.5353  1.8532
 5318TIP3   OH237588   2.246   6.772   0.506  0.4134  0.2690  0.8523
 5318TIP3    H137589   2.186   6.823   0.451 -0.7181 -0.3279  1.5056
 5318TIP3    H237590   2.235   6.682   0.476  0.2646  0.0279  1.6335
 5319TIP3   OH237591   2.321   3.779   7.011  0.3220 -0.3892  0.2199
 5319TIP3    H137592   2.400   3.819   7.048  1.0454 -1.4325 -0.1459
 5319TIP3    H237593   2.324   3.803   6.918  0.6407 -1.1009  0.0445
 5320TIP3   OH237594   4.257   0.267   8.372  0.5627 -0.0346  0.8199
 5320TIP3    H137595   4.310   0.332   8.419 -0.3957  2.2554 -1.0560
 5320TIP3    H237596   4.320   0.202   8.342  1.8033  0.7737  1.5444
 5321TIP3   OH237597   4.689   1.128   0.216 -0.7600  0.0046  0.1493
 5321TIP3    H137598   4.722   1.192   0.279  1.0125  0.3928 -1.0928
 5321TIP3    H237599   4.686   1.046   0.265 -1.6741  0.7293  1.3670
 5322TIP3   OH237600   1.375   5.413   1.507 -0.0551 -0.0766  0.0543
 5322TIP3    H137601   1.446   5.352   1.526  1.1926  1.0186 -0.8550
 5322TIP3    H237602   1.317   5.364   1.449  1.3981 -0.1726 -1.4039
 5323TIP3   OH237603   2.210   1.163   2.622  0.1459  0.4381  0.3443
 5323TIP3    H137604   2.263   1.210   2.557  1.8971 -1.7501  0.0648
 5323TIP3    H237605   2.265   1.161   2.700 -0.1268 -0.6053  0.5265
 5324TIP3   OH237606   1.373   2.314   6.643 -0.3795 -0.0189 -0.4114
 5324TIP3    H137607   1.387   2.321   6.549  2.3561 -1.4424 -0.2366
 5324TIP3    H237608   1.398   2.224   6.664  0.1272  0.5643  1.7930
 5325TIP3   OH237609   4.079   0.989   7.443  0.0766 -0.4794 -0.1011
 5325TIP3    H137610   4.118   0.916   7.491 -0.4893 -0.1870  0.8166
 5325TIP3    H237611   4.007   1.019   7.498  0.1668  0.6405 -0.5600
 5326TIP3   OH237612   2.197   1.618   8.390  0.0488  0.5296 -0.6861
 5326TIP3    H137613   2.187   1.582   8.478 -2.3534 -1.0213 -1.4871
 5326TIP3    H237614   2.124   1.679   8.380 -1.5146 -1.4533 -2.4802
 5327TIP3   OH237615   4.446   6.736   0.538  0.9194 -0.0508 -0.1527
 5327TIP3    H137616   4.479   6.823   0.515 -0.1089 -0.2479 -2.8120
 5327TIP3    H237617   4.367   6.753   0.589 -0.1407  0.6972 -1.9365
 5328TIP3   OH237618   2.132   0.221   8.388  0.2857  0.0500  0.2661
 5328TIP3    H137619   2.223   0.192   8.397  0.0681 -0.6023  0.4396
 5328TIP3    H237620   2.081   0.143   8.408 -0.2957  0.1376 -0.8177
 5329TIP3   OH237621   0.739   5.766   8.347  0.6939 -0.2309 -0.7691
 5329TIP3    H137622   0.716   5.674   8.356  2.7158 -0.6807  0.2482
 5329TIP3    H237623   0.752   5.797   8.437 -2.6415  1.8718 -0.8112
 5330TIP3   OH237624   1.065   5.962   2.179 -0.4983 -0.7991 -0.2957
 5330TIP3    H137625   0.986   5.922   2.144 -1.6337  0.6084  0.5345
 5330TIP3    H237626   1.049   5.968   2.274  0.4635 -0.2065 -0.1591
 5331TIP3   OH237627   5.386   4.694   1.095 -0.4643  0.2285  0.2599
 5331TIP3    H137628   5.449   4.639   1.047 -0.9416  0.5546 -0.7875
 5331TIP3    H237629   5.305   4.643   1.093 -0.9318  0.9652 -0.7904
 5332TIP3   OH237630   6.560   0.557   6.858  0.0322  0.2420  0.4942
 5332TIP3    H137631   6.606   0.601   6.787 -0.5966 -1.0451 -0.7487
 5332TIP3    H237632   6.497   0.622   6.890 -0.4081  0.4975 -0.8498
 5333TIP3   OH237633   1.386   1.097   1.072 -0.5710  0.8165 -0.1244
 5333TIP3    H137634   1.450   1.147   1.121  0.4456  1.0985 -1.6950
 5333TIP3    H237635   1.352   1.033   1.135 -0.2753  2.0074  1.2805
 5334TIP3   OH237636   4.187   5.890   7.922  0.0646  0.0876  0.6213
 5334TIP3    H137637   4.209   5.980   7.900 -0.7101  0.3421  0.8643
 5334TIP3    H237638   4.091   5.886   7.915  0.1496 -0.9239 -0.1979
 5335TIP3   OH237639   1.942   0.077   7.235  0.1295  1.1747 -0.0384
 5335TIP3    H137640   1.958  -0.004   7.187 -3.0934  2.2769 -3.4621
 5335TIP3    H237641   1.851   0.070   7.264 -0.5636  3.8439 -1.2717
 5336TIP3   OH237642   4.911   6.675   8.301 -0.0036  0.3102  0.3942
 5336TIP3    H137643   4.985   6.730   8.277 -0.1283  0.0895 -0.5155
 5336TIP3    H237644   4.907   6.609   8.233 -1.3130  0.5844  0.1774
 5337TIP3   OH237645   4.929   2.573   7.691  0.6701  0.1998 -0.0845
 5337TIP3    H137646   4.947   2.667   7.692  0.1650  0.3002  0.7723
 5337TIP3    H237647   4.998   2.536   7.636  1.3361  0.9827  0.2034
 5338TIP3   OH237648   4.231   2.202   6.524 -0.3585 -0.0344 -0.3161
 5338TIP3    H137649   4.213   2.130   6.464  0.1051  1.3386 -2.1908
 5338TIP3    H237650   4.276   2.160   6.598 -0.7312 -1.7520 -1.0040
 5339TIP3   OH237651   1.614   2.534   1.705  0.5814 -0.5871  0.7522
 5339TIP3    H137652   1.693   2.497   1.743  1.3395 -0.2446 -0.4674
 5339TIP3    H237653   1.597   2.613   1.757  0.4111 -1.2309  1.7023
 5340TIP3   OH237654   0.106   1.338   8.571  0.1233 -0.1191  0.3906
 5340TIP3    H137655   0.107   1.333   8.667 -2.5649  0.6796  0.5375
 5340TIP3    H237656   0.020   1.303   8.546  1.5430 -2.3202 -1.9384
 5341TIP3   OH237657   6.578   0.703   7.824  0.1164  0.1565  0.2642
 5341TIP3    H137658   6.599   0.764   7.753  1.9425 -0.2141  0.4457
 5341TIP3    H237659   6.510   0.747   7.874 -0.2696  0.9989 -0.9657
 5342TIP3   OH237660   0.955   4.733   0.024  0.8284  0.3971 -0.2517
 5342TIP3    H137661   0.887   4.732  -0.043  0.6051 -1.7900 -0.0353
 5342TIP3    H237662   0.913   4.775   0.100 -0.1723 -0.6076 -0.2342
 5343TIP3   OH237663   5.169   4.204   7.323  0.7957  0.1391  0.3550
 5343TIP3    H137664   5.081   4.240   7.316 -0.0242 -1.7975 -0.0994
 5343TIP3    H237665   5.199   4.230   7.410 -0.3975  0.4810  0.6764
 5344TIP3   OH237666   1.117   6.863   8.407  0.1022  0.0078  0.2243
 5344TIP3    H137667   1.168   6.882   8.329  1.0521 -2.0317  0.2934
 5344TIP3    H237668   1.055   6.936   8.413  1.1102  1.0765 -1.4599
 5345TIP3   OH237669   2.607   5.066   1.537 -0.7087  0.2076  0.0930
 5345TIP3    H137670   2.625   5.148   1.583 -2.2255  0.6385 -0.0486
 5345TIP3    H237671   2.512   5.060   1.534 -0.7037  0.1150 -2.8131
 5346TIP3   OH237672   6.576   3.239   8.004  0.2292  0.0807 -0.6262
 5346TIP3    H137673   6.533   3.318   8.038  0.4370 -0.0501 -0.0594
 5346TIP3    H237674   6.505   3.189   7.963  0.1164  0.6142 -1.0869
 5347TIP3   OH237675   2.180   3.593   7.213 -0.2488 -0.5044 -0.3452
 5347TIP3    H137676   2.238   3.583   7.288  1.0304 -0.4816 -1.3123
 5347TIP3    H237677   2.210   3.674   7.170 -3.4276  1.7445  1.2349
 5348TIP3   OH237678   4.094   3.260   1.139  0.0616  0.4005 -0.4070
 5348TIP3    H137679   4.079   3.344   1.182  0.1094 -0.2545  0.9611
 5348TIP3    H237680   4.057   3.196   1.200  0.4506 -0.5989 -1.2019
 5349TIP3   OH237681   1.347   4.181   7.265 -0.0045 -0.6100 -0.4602
 5349TIP3    H137682   1.421   4.201   7.322  0.4794 -0.5174 -1.1231
 5349TIP3    H237683   1.362   4.092   7.235  0.5290 -0.1460 -1.6294
 5350TIP3   OH237684   1.649   3.148   7.923  0.4058 -0.5626 -0.0820
 5350TIP3    H137685   1.568   3.145   7.975 -0.1846 -0.0451 -0.9349
 5350TIP3    H237686   1.636   3.081   7.855 -0.1124  0.7371 -1.3157
 5351TIP3   OH237687   6.366   2.476   8.289 -0.3299 -0.3679  0.4579
 5351TIP3    H137688   6.406   2.425   8.218  0.0087 -0.0186  0.3938
 5351TIP3    H237689   6.289   2.517   8.248  0.6814  1.0291 -0.1317
 5352TIP3   OH237690   5.947   6.612   8.322  0.3866 -0.0802  0.2864
 5352TIP3    H137691   5.853   6.623   8.312  0.1428  0.2316  2.3711
 5352TIP3    H237692   5.963   6.519   8.304  0.1115  0.3394 -2.4852
 5353TIP3   OH237693   2.201   0.758   0.579  0.0692 -0.4494  0.0517
 5353TIP3    H137694   2.152   0.689   0.534  0.0208  0.7067 -1.7875
 5353TIP3    H237695   2.288   0.756   0.539  0.2788  0.1243  0.4588
 5354TIP3   OH237696   1.247   2.447   1.363 -0.3233 -0.1199  0.0933
 5354TIP3    H137697   1.301   2.370   1.346  2.9997  2.0743 -0.1202
 5354TIP3    H237698   1.295   2.496   1.430 -0.3806  3.4014 -2.1557
 5355TIP3   OH237699   0.137   0.723   6.970  0.1084  0.1225  0.0935
 5355TIP3    H137700   0.163   0.795   6.913 -1.4526  0.3123 -0.4254
 5355TIP3    H237701   0.153   0.755   7.059  1.1291  0.3971 -0.1812
 5356TIP3   OH237702   5.540   0.856   1.649  0.2626 -0.4414  0.3179
 5356TIP3    H137703   5.516   0.783   1.705 -1.4711 -0.6570 -0.6356
 5356TIP3    H237704   5.570   0.924   1.709 -1.2097 -0.7825  1.4881
 5357TIP3   OH237705   4.824   5.346   7.880 -0.4205  0.1469 -0.2706
 5357TIP3    H137706   4.750   5.335   7.940  0.1428  0.8845  0.5762
 5357TIP3    H237707   4.900   5.354   7.937  0.3507 -0.7661 -1.1389
 5358TIP3   OH237708   5.422   0.123   0.244 -0.1516 -0.7285 -0.2558
 5358TIP3    H137709   5.442   0.069   0.320  0.1918 -0.8888 -0.4572
 5358TIP3    H237710   5.507   0.137   0.201  0.1521  1.7843  0.9739
 5359TIP3   OH237711   6.892   1.850   0.306  0.0156 -0.4157  0.5342
 5359TIP3    H137712   6.965   1.804   0.262  1.9046  0.8024  2.2388
 5359TIP3    H237713   6.930   1.932   0.337 -2.3828  0.7429  0.6585
 5360TIP3   OH237714   2.490   4.109   8.404  0.3141  0.0973 -0.3289
 5360TIP3    H137715   2.584   4.125   8.394  0.2376  0.5343 -0.3424
 5360TIP3    H237716   2.461   4.082   8.317  0.5617 -0.7436 -0.1599
 5361TIP3   OH237717   0.085   4.280   0.496 -0.2138  0.1242  0.2665
 5361TIP3    H137718   0.085   4.255   0.589 -0.3164 -1.4680 -0.1315
 5361TIP3    H237719  -0.007   4.275   0.470 -0.3089  1.4635  0.2804
 5362TIP3   OH237720   6.451   2.795   0.490  0.6511 -0.4443 -0.3217
 5362TIP3    H137721   6.467   2.701   0.492  0.7176 -0.4227  0.9849
 5362TIP3    H237722   6.538   2.834   0.500  0.6459 -0.2328 -1.0367
 5363TIP3   OH237723   5.882   5.318   6.908  0.2362  0.2948 -0.5205
 5363TIP3    H137724   5.917   5.235   6.941  1.0135  0.1115 -1.7541
 5363TIP3    H237725   5.958   5.366   6.876 -0.3997  0.7823 -1.3478
 5364TIP3   OH237726   0.093   0.849   1.975 -0.6976  0.1427  0.6121
 5364TIP3    H137727   0.031   0.787   1.935  0.0879 -0.9045  0.9856
 5364TIP3    H237728   0.104   0.818   2.064  0.5082  0.2074  0.4991
 5365TIP3   OH237729   4.044   2.548   8.049  0.2580  0.5910 -0.1838
 5365TIP3    H137730   4.045   2.564   7.955 -2.6517 -0.5085 -0.5058
 5365TIP3    H237731   4.083   2.461   8.058  0.9633  0.8874 -0.2906
 5366TIP3   OH237732   5.410   2.208   7.979 -0.2190 -0.5843  0.2782
 5366TIP3    H137733   5.353   2.141   8.016  0.0366 -0.9895 -0.0589
 5366TIP3    H237734   5.448   2.252   8.055 -1.3658  0.0391  0.5222
 5367TIP3   OH237735   1.623   2.728   0.084 -0.1957  0.5261 -0.3494
 5367TIP3    H137736   1.582   2.801   0.037 -1.3214 -1.0286 -1.8739
 5367TIP3    H237737   1.683   2.688   0.021 -1.9990 -1.8120 -0.7325
 5368TIP3   OH237738   5.775   0.248   7.019 -0.4241  0.5476 -0.5620
 5368TIP3    H137739   5.839   0.268   6.950 -0.3859  1.0333 -0.3904
 5368TIP3    H237740   5.802   0.302   7.093 -0.8319  0.4972 -0.3741
 5369TIP3   OH237741   5.967   5.662   1.462  0.1167 -0.1854  0.1920
 5369TIP3    H137742   5.987   5.664   1.556  0.1927 -0.6662  0.1881
 5369TIP3    H237743   5.898   5.729   1.451  0.4564  0.2217  0.5004
 5370TIP3   OH237744   3.485   6.394   0.698  0.1553  0.5719 -0.4603
 5370TIP3    H137745   3.456   6.485   0.689  0.3765  0.7565  0.5680
 5370TIP3    H237746   3.507   6.385   0.790  0.3827 -0.4612 -0.6034
 5371TIP3   OH237747   2.465   0.377   1.448  0.6234 -0.2813 -0.6994
 5371TIP3    H137748   2.478   0.437   1.521  0.7440  1.1486 -1.8479
 5371TIP3    H237749   2.373   0.387   1.425  0.5249 -0.9123 -0.5800
 5372TIP3   OH237750   2.928   3.554   0.735 -0.0866 -0.2297  0.3721
 5372TIP3    H137751   3.006   3.593   0.777  0.2442  0.2765 -0.6873
 5372TIP3    H237752   2.962   3.512   0.656 -0.7517 -0.9010  0.4356
 5373TIP3   OH237753   6.382   4.066   0.581 -0.2106  0.3315 -0.3937
 5373TIP3    H137754   6.323   4.075   0.506 -0.7831 -2.3101 -0.3600
 5373TIP3    H237755   6.457   4.017   0.547  0.9099  1.6176  0.1257
 5374TIP3   OH237756   4.013   2.483   7.495  0.0369 -0.5251 -0.4299
 5374TIP3    H137757   4.066   2.405   7.477  0.3094 -0.4427 -0.0226
 5374TIP3    H237758   4.003   2.525   7.410  1.2638 -0.1556 -0.4203
 5375TIP3   OH237759   0.077   4.699   0.517 -1.1562 -0.0123 -0.2773
 5375TIP3    H137760   0.092   4.633   0.584  0.6027 -3.4531 -3.6710
 5375TIP3    H237761   0.003   4.667   0.466 -1.7367  1.8806 -0.7241
 5376TIP3   OH237762   4.739   5.709   1.011 -0.1551 -0.0237 -0.1764
 5376TIP3    H137763   4.798   5.782   1.029  0.0237  0.0348 -0.9525
 5376TIP3    H237764   4.793   5.646   0.962 -0.9903  0.4959 -1.8393
 5377TIP3   OH237765   1.313   6.247   0.483  0.3114 -0.3195  0.3260
 5377TIP3    H137766   1.273   6.226   0.399  1.4564 -1.0275 -0.0744
 5377TIP3    H237767   1.329   6.341   0.479 -0.2589 -0.2347  0.0294
 5378TIP3   OH237768   1.419   2.338   0.179  0.2224 -0.6210  0.3316
 5378TIP3    H137769   1.514   2.323   0.176  0.5355  1.0311  0.9789
 5378TIP3    H237770   1.395   2.323   0.270 -0.5770 -3.1076 -0.1959
 5379TIP3   OH237771   4.505   3.760   7.981 -0.1309 -0.2372  0.8126
 5379TIP3    H137772   4.551   3.813   7.915  0.3002  0.0030  1.2970
 5379TIP3    H237773   4.520   3.670   7.955 -0.3883 -0.1314  0.2960
 5380TIP3   OH237774   6.569   5.385   0.886  0.5350 -0.2659  0.1946
 5380TIP3    H137775   6.637   5.424   0.940  1.1377  0.0072 -0.7257
 5380TIP3    H237776   6.610   5.306   0.851 -0.4851 -1.4748  1.6061
 5381TIP3   OH237777   3.181   0.559   2.065 -0.5156 -0.2943 -0.4024
 5381TIP3    H137778   3.158   0.487   2.006 -1.0981  0.9417 -1.7512
 5381TIP3    H237779   3.097   0.599   2.089 -0.3945 -1.3891  2.1887
 5382TIP3   OH237780   5.433   2.748   2.524  0.0723  0.7625 -0.2624
 5382TIP3    H137781   5.477   2.772   2.443 -0.1316  1.9469 -0.0439
 5382TIP3    H237782   5.495   2.772   2.593 -0.0734  0.4990 -0.0365
 5383TIP3   OH237783   5.199   2.188   1.745 -0.5464 -1.1318 -0.1111
 5383TIP3    H137784   5.217   2.096   1.727 -0.8126 -0.9216 -1.5033
 5383TIP3    H237785   5.264   2.212   1.812  1.8217 -1.4489 -2.1459
 5384TIP3   OH237786   5.239   6.263   0.854 -0.1816 -0.0892 -0.0545
 5384TIP3    H137787   5.220   6.181   0.808  0.4353 -0.9914  1.2480
 5384TIP3    H237788   5.225   6.331   0.788  1.3186 -1.3694 -1.8141
 5385TIP3   OH237789   2.287   6.196   7.113  0.0459  0.1426  0.4070
 5385TIP3    H137790   2.258   6.274   7.159 -1.8405 -0.5691  0.5037
 5385TIP3    H237791   2.247   6.203   7.026 -0.6453 -0.9745  0.6126
 5386TIP3   OH237792   1.652   2.177   1.197  0.6818  0.0994  0.2788
 5386TIP3    H137793   1.718   2.145   1.258  2.1222  0.9958 -0.7486
 5386TIP3    H237794   1.686   2.262   1.167 -0.3574  0.0464 -1.1562
 5387TIP3   OH237795   5.368   4.785   8.566 -0.0463 -0.2380 -0.0070
 5387TIP3    H137796   5.457   4.782   8.530  0.8083  1.1961  1.7868
 5387TIP3    H237797   5.341   4.694   8.570  1.9249 -0.8564  0.6473
 5388TIP3   OH237798   3.616   4.797   6.811 -0.5207  0.5041 -0.5998
 5388TIP3    H137799   3.671   4.719   6.808 -1.2782 -0.0721 -0.0817
 5388TIP3    H237800   3.574   4.800   6.725 -0.4790  0.3454 -0.6257
 5389TIP3   OH237801   5.106   5.749   0.817  0.5991 -0.2339 -0.2661
 5389TIP3    H137802   5.184   5.758   0.872  0.5690 -1.4596 -0.0158
 5389TIP3    H237803   5.139   5.711   0.735  0.2246 -1.0514 -0.0451
 5390TIP3   OH237804   0.740   0.951   1.359  0.0098  0.1938  0.1759
 5390TIP3    H137805   0.690   0.877   1.392 -0.5939 -0.2111 -1.5368
 5390TIP3    H237806   0.674   1.009   1.320  0.7168  0.4536 -0.6586
 5391TIP3   OH237807   1.570   3.085   8.423 -0.1062 -0.0327  0.2690
 5391TIP3    H137808   1.636   3.038   8.372 -0.3971  0.7788 -0.9053
 5391TIP3    H237809   1.516   3.128   8.357 -0.3740  1.2212  1.2796
 5392TIP3   OH237810   5.245   3.107   1.459  0.0683  0.0183  0.4011
 5392TIP3    H137811   5.231   3.028   1.406 -0.1642  1.6393 -2.1134
 5392TIP3    H237812   5.162   3.121   1.503  0.1050 -1.1055  0.8700
 5393TIP3   OH237813   6.324   0.626   0.106  0.3204 -0.4382  0.9060
 5393TIP3    H137814   6.297   0.576   0.028  0.8479 -0.1337  0.5193
 5393TIP3    H237815   6.285   0.579   0.179 -0.1294 -0.7707  0.4597
 5394TIP3   OH237816   4.935   1.945   1.570  0.3975  0.2020 -0.5929
 5394TIP3    H137817   4.924   1.985   1.656  3.6102  0.2705 -0.0824
 5394TIP3    H237818   5.027   1.920   1.567 -0.5035 -3.5288 -2.4938
 5395TIP3   OH237819   6.745   3.464   1.271  0.1563 -0.4269 -0.0615
 5395TIP3    H137820   6.694   3.529   1.222 -1.0398 -1.3126 -0.0454
 5395TIP3    H237821   6.785   3.513   1.342  1.0491  0.6916 -1.2893
 5396TIP3   OH237822   3.337   0.316   7.298 -0.2001 -0.7110  0.3191
 5396TIP3    H137823   3.293   0.258   7.236  1.0090  0.6364 -1.9610
 5396TIP3    H237824   3.373   0.387   7.244  0.5965  0.7996  2.6346
 5397TIP3   OH237825   1.186   6.325   7.119 -0.2453  0.6971  0.0220
 5397TIP3    H137826   1.148   6.247   7.079  0.4422  0.8296 -0.9267
 5397TIP3    H237827   1.194   6.388   7.047  0.4781  1.1533  0.4846
 5398TIP3   OH237828   5.366   3.831   1.776  0.2104 -0.1354  0.2504
 5398TIP3    H137829   5.378   3.775   1.699  0.3305 -1.8823  1.4698
 5398TIP3    H237830   5.272   3.831   1.792  0.4063 -2.2051  1.7488
 5399TIP3   OH237831   5.298   3.874   0.182 -0.3088 -0.6377 -0.2463
 5399TIP3    H137832   5.208   3.845   0.171 -0.2164 -1.1821  0.3892
 5399TIP3    H237833   5.295   3.969   0.166 -0.9611 -0.6748 -0.3720
 5400TIP3   OH237834   2.911   4.948   8.174  0.3462  0.3001  0.0812
 5400TIP3    H137835   2.913   5.038   8.139  0.4327 -0.0336 -0.8073
 5400TIP3    H237836   3.002   4.920   8.172  0.2408 -0.0261 -0.2473
 5401TIP3   OH237837   5.913   6.879   8.263 -0.6567  0.1855  0.3138
 5401TIP3    H137838   5.864   6.909   8.187 -0.4970 -0.1226  0.0862
 5401TIP3    H237839   5.869   6.797   8.289 -1.1415  0.6449  0.9789
 5402TIP3   OH237840   6.830   6.731   1.175  0.0288 -0.8660 -0.3850
 5402TIP3    H137841   6.825   6.825   1.158  3.1264 -0.1611  1.6767
 5402TIP3    H237842   6.869   6.694   1.096 -0.0749 -0.2310 -0.7399
 5403TIP3   OH237843   4.000   4.457   0.091 -0.5839  0.8610  0.3300
 5403TIP3    H137844   4.044   4.536   0.121 -0.9989  2.1719 -2.1812
 5403TIP3    H237845   4.034   4.387   0.146  2.5779  2.2172  0.2726
 5404TIP3   OH237846   6.619   2.363   8.648  0.4191  0.0855  0.1917
 5404TIP3    H137847   6.691   2.341   8.708  0.8750  1.7008  0.3048
 5404TIP3    H237848   6.659   2.358   8.561 -0.4138 -2.9172 -0.1213
 5405TIP3   OH237849   2.476   3.783   1.037  0.0127 -0.7561 -0.2228
 5405TIP3    H137850   2.389   3.818   1.016  0.6005  0.1928 -1.1967
 5405TIP3    H237851   2.515   3.849   1.094  0.7015 -0.3476 -1.1391
 5406TIP3   OH237852   3.769   4.288   8.044 -0.3674  0.3041 -0.1496
 5406TIP3    H137853   3.786   4.325   7.957  3.5177  0.4936  0.4800
 5406TIP3    H237854   3.774   4.363   8.103 -1.0286 -0.0844  0.4137
 5407TIP3   OH237855   4.560   3.555   0.725 -1.0920 -0.8533 -0.3898
 5407TIP3    H137856   4.544   3.588   0.813  2.6091 -0.1970  0.1720
 5407TIP3    H237857   4.504   3.608   0.669 -1.2349  0.8629  1.2727
 5408TIP3   OH237858   2.491   0.582   1.988  0.4074  0.0211  0.0485
 5408TIP3    H137859   2.546   0.643   2.038  0.4964  0.3951 -0.4976
 5408TIP3    H237860   2.540   0.567   1.907  0.4859 -0.9470  0.2602
 5409TIP3   OH237861   1.786   6.655   7.986 -0.0022  0.5242 -0.0098
 5409TIP3    H137862   1.713   6.611   7.943 -0.3043  1.6111 -0.6396
 5409TIP3    H237863   1.850   6.670   7.917  0.0975  1.0629  0.1935
 5410TIP3   OH237864   0.347   4.477   1.288  0.1580 -0.8597  0.3200
 5410TIP3    H137865   0.361   4.521   1.372 -0.0810  2.3141 -1.1757
 5410TIP3    H237866   0.271   4.420   1.304 -0.5481  0.4432  2.0097
 5411TIP3   OH237867   4.773   3.912   0.215 -0.2220 -0.5743  0.3656
 5411TIP3    H137868   4.733   3.839   0.263 -1.0060  0.0652  0.7041
 5411TIP3    H237869   4.848   3.937   0.269 -1.7599  0.9086  1.9696
 5412TIP3   OH237870   6.683   0.386   7.456 -0.2217 -0.2985 -0.1608
 5412TIP3    H137871   6.763   0.430   7.428 -1.4237  1.0912 -1.5724
 5412TIP3    H237872   6.663   0.325   7.386 -1.6518  1.0824 -1.0113
 5413TIP3   OH237873   1.652   5.213   0.955  0.2968 -0.4910 -0.3249
 5413TIP3    H137874   1.684   5.142   1.011 -0.4355  0.0168  0.7631
 5413TIP3    H237875   1.708   5.288   0.976 -0.1852 -0.2087 -0.0149
 5414TIP3   OH237876   4.530   0.657   1.321 -0.0765 -0.0561 -0.3255
 5414TIP3    H137877   4.616   0.675   1.357  0.4018 -1.7692 -0.5486
 5414TIP3    H237878   4.518   0.563   1.331 -0.2598 -0.5587 -3.7812
 5415TIP3   OH237879   1.640   2.695   1.034  0.3107  0.6522  1.0032
 5415TIP3    H137880   1.608   2.699   0.943  0.7475 -0.5283  0.7749
 5415TIP3    H237881   1.566   2.662   1.084  0.3450  0.4469  0.9202
 5416TIP3   OH237882   5.199   4.077   8.141 -0.5931  0.2960  0.1489
 5416TIP3    H137883   5.232   4.167   8.142 -1.1422  0.5226 -0.8342
 5416TIP3    H237884   5.273   4.024   8.169  0.0048  0.9689 -0.1252
 5417TIP3   OH237885   3.162   2.339   0.662  0.0796 -0.4859  0.1401
 5417TIP3    H137886   3.138   2.350   0.754 -1.0608 -1.7014  0.0292
 5417TIP3    H237887   3.253   2.311   0.663  0.4690  0.7686  0.8147
 5418TIP3   OH237888   5.082   2.392   1.944 -0.4678  0.2260 -0.2769
 5418TIP3    H137889   5.139   2.464   1.919  0.3473 -0.3078  0.0055
 5418TIP3    H237890   5.140   2.329   1.987 -1.0853 -0.7801 -0.8715
 5419TIP3   OH237891   0.599   3.803   2.170 -0.2080 -0.1144 -0.3127
 5419TIP3    H137892   0.661   3.793   2.243  0.2643  1.8442 -0.3775
 5419TIP3    H237893   0.536   3.732   2.182  0.3182 -0.3305  1.5432
 5420TIP3   OH237894   1.527   2.176   2.017 -0.2104  0.1774  0.6750
 5420TIP3    H137895   1.532   2.229   2.097 -2.1587  0.0236  0.9658
 5420TIP3    H237896   1.433   2.168   2.000  0.1532  0.1014 -1.5881
 5421TIP3   OH237897   0.631   0.054   2.121 -0.1524  0.0156 -0.3870
 5421TIP3    H137898   0.614   0.091   2.034  1.5155 -1.4899 -1.4267
 5421TIP3    H237899   0.719   0.086   2.144 -0.1403 -0.4626  0.2562
 5422TIP3   OH237900   1.975   1.811   0.335  0.1641  0.0350 -0.5635
 5422TIP3    H137901   2.020   1.727   0.325  1.5707  0.6318  0.3225
 5422TIP3    H237902   1.902   1.792   0.394 -1.1357 -1.0632 -2.4395
 5423TIP3   OH237903   5.276   4.886   6.655 -0.1668 -0.2288 -0.6914
 5423TIP3    H137904   5.207   4.847   6.709  1.0007 -0.6780  0.5497
 5423TIP3    H237905   5.257   4.979   6.656 -0.3026 -0.2505  0.3518
 5424TIP3   OH237906   1.750   3.091   1.587  0.4803 -0.5475  0.0659
 5424TIP3    H137907   1.826   3.055   1.542  0.0348 -0.9941 -0.3299
 5424TIP3    H237908   1.679   3.031   1.568  0.1028 -0.3296  0.7368
 5425TIP3   OH237909   4.498   2.479   0.940 -0.3774 -0.4854  0.1097
 5425TIP3    H137910   4.489   2.529   1.021 -0.2367 -1.2839  0.6238
 5425TIP3    H237911   4.589   2.449   0.940 -0.2704 -0.1863 -0.5283
 5426TIP3   OH237912   6.543   1.526   8.424 -0.2120  0.5023 -0.0130
 5426TIP3    H137913   6.600   1.508   8.350 -2.0520  0.7283 -1.5505
 5426TIP3    H237914   6.526   1.621   8.420 -0.0397  0.5850  0.9200
 5427TIP3   OH237915   0.916   3.109   6.905 -0.4418 -0.4404 -0.1031
 5427TIP3    H137916   0.954   3.055   6.836  0.1304 -0.5537  0.2973
 5427TIP3    H237917   0.821   3.099   6.894 -0.3554 -0.4012 -0.9127
 5428TIP3   OH237918   2.764   1.407   0.475  0.3535 -0.2421 -0.1496
 5428TIP3    H137919   2.835   1.361   0.519  0.3064  0.2174  0.4197
 5428TIP3    H237920   2.688   1.396   0.533  0.2004  0.0703 -0.2829
 5429TIP3   OH237921   5.839   2.449   1.628 -0.3789 -0.1496  0.0597
 5429TIP3    H137922   5.867   2.406   1.709 -1.4438 -1.9902 -0.4877
 5429TIP3    H237923   5.899   2.416   1.561  0.5962  1.4839  0.0584
 5430TIP3   OH237924   0.800   0.040   8.073 -0.0207 -0.1814  0.2591
 5430TIP3    H137925   0.868   0.104   8.052 -0.2731  0.3313  0.9791
 5430TIP3    H237926   0.730   0.092   8.113 -0.6780 -0.7569 -0.1275
 5431TIP3   OH237927   2.344   0.079   1.804 -0.3019  0.1539 -0.2005
 5431TIP3    H137928   2.439   0.087   1.804 -0.0655 -0.8761  3.7232
 5431TIP3    H237929   2.314   0.145   1.741  2.8880  2.0547  0.0835
 5432TIP3   OH237930   6.416   3.061   7.848 -0.0565 -0.0298 -0.4336
 5432TIP3    H137931   6.441   3.094   7.762  1.0903  0.6467  0.1355
 5432TIP3    H237932   6.458   2.976   7.855  0.9760  0.4993 -0.0299
 5433TIP3   OH237933   5.688   5.342   6.561 -0.3880  0.7218 -0.2910
 5433TIP3    H137934   5.725   5.257   6.585  0.1106  0.8598 -0.5542
 5433TIP3    H237935   5.593   5.331   6.574 -0.4244 -0.1510 -1.1763
 5434TIP3   OH237936   5.338   6.078   1.388  0.6478 -0.3105 -0.0863
 5434TIP3    H137937   5.318   6.062   1.480 -0.2341 -1.2929 -0.4197
 5434TIP3    H237938   5.411   6.140   1.389 -0.3315  0.8682  1.2429
 5435TIP3   OH237939   6.868   3.757   1.140 -0.4747 -0.5938  0.7256
 5435TIP3    H137940   6.914   3.783   1.060  1.2070 -0.6734  1.6276
 5435TIP3    H237941   6.800   3.697   1.110  1.0018 -1.7052 -0.5411
 5436TIP3   OH237942   1.945   4.983   7.353 -0.0532 -0.1211  0.8248
 5436TIP3    H137943   1.910   4.914   7.410 -1.8875  0.2578  0.2016
 5436TIP3    H237944   2.024   4.943   7.315 -0.1056 -1.2335  1.8029
 5437TIP3   OH237945   4.669   0.492   7.077  0.7974 -0.1178  0.7084
 5437TIP3    H137946   4.662   0.397   7.088  0.6926 -0.3532 -1.1175
 5437TIP3    H237947   4.587   0.517   7.033  1.4514  0.5761 -0.1649
 5438TIP3   OH237948   4.352   0.856   8.242 -0.3660  0.2790 -0.6233
 5438TIP3    H137949   4.316   0.835   8.328  0.8247 -1.2470 -0.4452
 5438TIP3    H237950   4.389   0.943   8.251  0.4082 -0.1585  0.6473
 5439TIP3   OH237951   6.312   4.653   0.995 -0.4299  0.5530  0.9064
 5439TIP3    H137952   6.313   4.573   1.048 -0.6986 -0.6651 -0.8459
 5439TIP3    H237953   6.383   4.642   0.933 -2.0933  0.4043 -1.0848
 5440TIP3   OH237954   2.842   3.065   7.457 -0.7955 -0.0185  0.7342
 5440TIP3    H137955   2.926   3.046   7.415 -1.2248 -1.6842  0.5746
 5440TIP3    H237956   2.864   3.121   7.531  0.0400  2.7649 -1.4231
 5441TIP3   OH237957   2.659   6.522   7.558  0.0505 -0.2331  0.3338
 5441TIP3    H137958   2.727   6.577   7.597  1.0962 -1.4494  0.2974
 5441TIP3    H237959   2.635   6.460   7.627  1.2779 -1.8224 -0.5701
 5442TIP3   OH237960   6.399   0.247   8.101  0.5414  0.4909  0.1818
 5442TIP3    H137961   6.405   0.169   8.047  0.2608  0.2341  0.5185
 5442TIP3    H237962   6.314   0.240   8.145  0.5850  0.8989  0.3441
 5443TIP3   OH237963   4.138   5.665   6.850  0.7028 -0.8747 -0.5311
 5443TIP3    H137964   4.114   5.707   6.767  2.0222 -1.1858 -1.0950
 5443TIP3    H237965   4.140   5.572   6.831  0.2201 -1.0192  0.0772
 5444TIP3   OH237966   5.367   2.269   1.951 -0.1907  0.1752 -0.3572
 5444TIP3    H137967   5.357   2.361   1.977  3.4504  0.5526  0.2083
 5444TIP3    H237968   5.348   2.219   2.031  1.9927  0.7791  0.6070
 5445TIP3   OH237969   2.487   2.049   7.324  0.2607 -1.0834  0.1916
 5445TIP3    H137970   2.552   2.111   7.290  1.4511 -1.5609  1.5003
 5445TIP3    H237971   2.431   2.030   7.249  1.3331 -0.2748 -0.8604
 5446TIP3   OH237972   4.009   0.715   8.619 -0.0437 -0.1784 -0.3014
 5446TIP3    H137973   4.013   0.756   8.706  1.9373  0.2980 -0.5604
 5446TIP3    H237974   3.951   0.772   8.569 -4.0410 -2.2574  1.5034
 5447TIP3   OH237975   1.117   4.185   7.893 -0.6924  0.5368 -0.9974
 5447TIP3    H137976   1.023   4.204   7.886 -0.8995 -0.4277 -0.9050
 5447TIP3    H237977   1.136   4.128   7.819 -0.4594 -0.3056 -0.3024
 5448TIP3   OH237978   6.857   0.491   7.284  0.1800  0.1064  0.0211
 5448TIP3    H137979   6.918   0.420   7.265 -1.4820 -1.0124 -1.4151
 5448TIP3    H237980   6.860   0.547   7.206 -1.2259 -0.4429 -0.4599
 5449TIP3   OH237981   0.437   0.668   6.861  0.1556 -0.1231  0.5998
 5449TIP3    H137982   0.491   0.671   6.782 -1.4994 -0.8885 -0.6210
 5449TIP3    H237983   0.405   0.757   6.872 -1.7079 -0.4980 -1.1852
 5450TIP3   OH237984   4.175   3.618   0.881  0.4288  0.1458  0.0946
 5450TIP3    H137985   4.199   3.531   0.850  0.8978  0.1639  0.3931
 5450TIP3    H237986   4.246   3.675   0.849 -0.2383  0.5387 -0.7047
 5451TIP3   OH237987   3.466   6.028   0.756 -0.2075 -0.3038  0.4552
 5451TIP3    H137988   3.463   5.937   0.788 -3.4377 -0.4076  0.2231
 5451TIP3    H237989   3.491   6.020   0.664 -0.3563 -0.9429  0.4668
 5452TIP3   OH237990   2.213   2.950   0.005 -0.2396  0.1265 -0.2184
 5452TIP3    H137991   2.232   3.000   0.084  0.9647  0.2622 -0.5829
 5452TIP3    H237992   2.285   2.887  -0.002 -0.4107  0.0198 -1.1281
 5453TIP3   OH237993   6.585   3.660   0.745 -0.2434  0.0196  0.2364
 5453TIP3    H137994   6.629   3.736   0.783 -0.9448  1.6115 -1.9311
 5453TIP3    H237995   6.596   3.591   0.810  2.3807  1.3171  1.3112
 5454TIP3   OH237996   6.702   4.653   1.100  0.0841  0.8648 -0.2633
 5454TIP3    H137997   6.663   4.621   1.019  0.8276  1.0159 -0.6937
 5454TIP3    H237998   6.629   4.659   1.162 -0.2114 -0.9775 -0.3720
 5455TIP3   OH237999   4.387   2.487   7.585 -0.2159  0.1721  0.0172
 5455TIP3    H138000   4.458   2.486   7.521 -0.2246  0.2344  0.0070
 5455TIP3    H238001   4.397   2.571   7.630  0.4994 -0.3558  0.8804
 5456TIP3   OH238002   0.620   0.921   0.538  0.2921  0.7157 -0.0586
 5456TIP3    H138003   0.667   0.921   0.455  0.2721 -0.9588 -0.0887
 5456TIP3    H238004   0.540   0.971   0.520 -0.7443 -1.3982 -1.6895
 5457TIP3   OH238005   5.120   1.764   6.668 -0.2797 -0.0774  0.0921
 5457TIP3    H138006   5.076   1.846   6.689  0.6876  0.5451 -0.2505
 5457TIP3    H238007   5.080   1.735   6.586  0.6874  1.0643 -0.8142
 5458TIP3   OH238008   5.783   1.787   7.820 -0.0196 -0.5359  0.2534
 5458TIP3    H138009   5.851   1.810   7.756 -0.0784  2.9240  1.2484
 5458TIP3    H238010   5.701   1.795   7.771 -0.1193  2.8366  0.7859
 5459TIP3   OH238011   0.912   6.532   7.637 -0.6026 -0.0742  0.0536
 5459TIP3    H138012   0.897   6.512   7.545  0.7386  1.9908 -0.6709
 5459TIP3    H238013   0.949   6.452   7.674 -3.7916 -1.9318 -0.4258
 5460TIP3   OH238014   0.847   5.918   1.046  0.6267 -0.8136  0.0779
 5460TIP3    H138015   0.912   5.976   1.006  1.0988 -1.6014 -0.3112
 5460TIP3    H238016   0.855   5.936   1.140 -0.1609  0.6966 -0.1077
 5461TIP3   OH238017   1.529   4.775   8.029 -0.4283  0.2446 -0.4093
 5461TIP3    H138018   1.587   4.806   8.099  3.9746 -3.2730 -1.9791
 5461TIP3    H238019   1.556   4.826   7.952 -2.7222  1.6068 -0.3997
 5462TIP3   OH238020   3.247   0.623   7.962 -0.1543  0.3208  0.2154
 5462TIP3    H138021   3.168   0.602   8.011  1.2334 -1.0957  1.9677
 5462TIP3    H238022   3.227   0.599   7.872 -2.0277  0.9384  0.4261
 5463TIP3   OH238023   2.298   0.398   1.706 -0.0211  0.6359 -0.6954
 5463TIP3    H138024   2.387   0.375   1.730 -0.6552 -0.2232  0.9900
 5463TIP3    H238025   2.279   0.478   1.755 -0.0336  1.0685 -1.3955
 5464TIP3   OH238026   3.862   6.818   8.043  0.1757  0.3640 -0.0906
 5464TIP3    H138027   3.791   6.832   7.981  0.3125  2.7280  0.2017
 5464TIP3    H238028   3.915   6.897   8.038  2.0568 -0.7753  0.6793
 5465TIP3   OH238029   2.516   4.346   1.608  0.3150  0.5232 -0.5944
 5465TIP3    H138030   2.504   4.401   1.531  0.9281  1.3059 -0.1431
 5465TIP3    H238031   2.430   4.304   1.621  0.6578 -0.9948 -2.7036
 5466TIP3   OH238032   1.279   3.383   8.425  0.0603  0.3185  0.1539
 5466TIP3    H138033   1.315   3.348   8.506  0.9291 -1.1072 -0.8028
 5466TIP3    H238034   1.356   3.406   8.372 -0.3538 -1.8503 -1.5333
 5467TIP3   OH238035   6.563   5.298   2.363 -0.4497 -0.3561  0.2512
 5467TIP3    H138036   6.634   5.327   2.306 -0.7924 -2.9870 -1.7153
 5467TIP3    H238037   6.587   5.208   2.387 -2.6811 -1.0347  0.1760
 5468TIP3   OH238038   3.178   0.303   8.150 -0.7108  0.4450 -0.2422
 5468TIP3    H138039   3.259   0.317   8.101 -0.7783  0.9356 -0.2146
 5468TIP3    H238040   3.205   0.310   8.242 -0.6187 -0.2894 -0.2082
 5469TIP3   OH238041   2.948   3.255   2.194 -0.1384 -0.0873  0.0191
 5469TIP3    H138042   2.912   3.185   2.140  0.2162 -0.0524 -0.2645
 5469TIP3    H238043   2.975   3.322   2.132  0.6964 -0.2432  0.1926
 5470TIP3   OH238044   3.245   3.101   1.762  0.4068 -0.2052  0.2340
 5470TIP3    H138045   3.209   3.012   1.760  2.2389 -0.9806 -1.2212
 5470TIP3    H238046   3.339   3.088   1.769  0.7258  1.6226 -0.3527
 5471TIP3   OH238047   3.088   2.946   8.587 -0.3885 -0.0099 -0.2911
 5471TIP3    H138048   3.155   2.887   8.552 -0.2892  0.4091 -0.8216
 5471TIP3    H238049   3.014   2.888   8.608  0.0627 -0.4444  0.1070
 5472TIP3   OH238050   5.216   2.720   0.868 -0.3301 -0.0768  0.1700
 5472TIP3    H138051   5.124   2.723   0.840 -0.6426  3.0643  1.1347
 5472TIP3    H238052   5.265   2.735   0.787 -0.6961 -0.5630 -0.1542
 5473TIP3   OH238053   3.030   3.440   0.516 -0.2266  0.4029  0.2601
 5473TIP3    H138054   3.049   3.527   0.483 -1.7787  1.4428  1.9270
 5473TIP3    H238055   3.052   3.381   0.443  0.1867  2.2144 -1.1474
 5474TIP3   OH238056   1.795   4.337   0.589 -0.0580 -0.3680 -0.7978
 5474TIP3    H138057   1.791   4.249   0.550 -0.3535 -0.2588 -1.0175
 5474TIP3    H238058   1.756   4.394   0.523 -2.4486 -0.4515  0.4149
 5475TIP3   OH238059   6.452   3.933   1.494  0.2865 -0.4616  0.1311
 5475TIP3    H138060   6.436   3.990   1.568  1.1536  0.8856 -0.6748
 5475TIP3    H238061   6.544   3.907   1.503  0.3934 -0.3050 -0.4369
 5476TIP3   OH238062   5.212   0.321   1.416  0.1378 -0.5062 -0.0356
 5476TIP3    H138063   5.237   0.263   1.488 -0.3944 -0.4083  0.2307
 5476TIP3    H238064   5.222   0.268   1.337 -2.6394 -1.7801  0.3552
 5477TIP3   OH238065   5.082   5.701   6.517  0.3330  0.3362 -0.2962
 5477TIP3    H138066   5.028   5.775   6.488 -0.7546 -0.3202  0.0174
 5477TIP3    H238067   5.157   5.742   6.560 -0.3471  1.2724  0.0365
 5478TIP3   OH238068   3.626   2.353   1.328  0.1102 -0.0209  0.0707
 5478TIP3    H138069   3.578   2.277   1.363  0.6105  0.1223  1.0929
 5478TIP3    H238070   3.652   2.403   1.405  1.5525  0.1331 -0.4945
 5479TIP3   OH238071   4.265   0.658   2.410 -0.6812  0.4542 -0.5199
 5479TIP3    H138072   4.218   0.693   2.486  1.2306  1.0522  0.4468
 5479TIP3    H238073   4.305   0.734   2.369  0.9612 -0.2052 -0.2105
 5480TIP3   OH238074   4.658   0.353   1.133  0.6545  0.2377  0.0173
 5480TIP3    H138075   4.586   0.355   1.196  0.7640  1.3311  0.1369
 5480TIP3    H238076   4.735   0.327   1.183  0.0266 -3.1299 -0.5184
 5481TIP3   OH238077   1.195   1.471   5.974 -0.0886 -0.0290 -0.2725
 5481TIP3    H138078   1.200   1.391   5.920  0.3393  0.1329 -0.4813
 5481TIP3    H238079   1.131   1.525   5.929 -0.4731 -0.3061 -0.0616
 5482TIP3   OH238080   2.207   6.222   1.181 -0.2901  0.0062 -0.4228
 5482TIP3    H138081   2.206   6.227   1.277  1.1699  1.6981 -0.4476
 5482TIP3    H238082   2.115   6.231   1.156 -0.6096  0.3398  0.7925
 5483TIP3   OH238083   6.558   5.648   2.385 -0.3191 -0.5041 -0.0837
 5483TIP3    H138084   6.483   5.630   2.329  0.9938 -2.0927 -1.4285
 5483TIP3    H238085   6.634   5.632   2.330  1.0636  1.4008  1.1182
 5484TIP3   OH238086   0.016   0.579   1.873  0.0160 -0.2855  0.5124
 5484TIP3    H138087   0.018   0.543   1.961  0.2692 -0.0802  0.5917
 5484TIP3    H238088   0.086   0.533   1.826 -0.0017 -0.2694  0.4697
 5485TIP3   OH238089   2.052   0.165   0.211 -0.5537 -0.6752  0.2217
 5485TIP3    H138090   2.140   0.172   0.248 -0.9638 -1.1784  1.3540
 5485TIP3    H238091   2.061   0.194   0.121  0.6110  0.0870  0.5616
 5486TIP3   OH238092   0.735   0.346   7.049  0.5364  0.7370  0.0693
 5486TIP3    H138093   0.723   0.276   6.985  1.0062  0.4031  0.3415
 5486TIP3    H238094   0.646   0.378   7.065  0.3032  0.1397  0.0080
 5487TIP3   OH238095   3.661   1.706   0.322 -0.3816  0.0236  0.8551
 5487TIP3    H138096   3.663   1.616   0.292  0.1845 -0.0268  1.0335
 5487TIP3    H238097   3.588   1.709   0.385  0.3893 -0.6202  1.8113
 5488TIP3   OH238098   4.672   4.086   7.480 -0.3345 -0.0120  0.3735
 5488TIP3    H138099   4.644   4.007   7.526  0.8559 -0.3758  0.4930
 5488TIP3    H238100   4.699   4.054   7.394 -4.5232  0.8941 -1.5162
 5489TIP3   OH238101   3.894   0.071   1.269  0.2835  0.2452  0.2955
 5489TIP3    H138102   3.946   0.069   1.188 -0.1210  1.2669  0.0005
 5489TIP3    H238103   3.816   0.121   1.246  0.4171  1.0209  1.4755
 5490TIP3   OH238104   5.710   5.167   1.478  0.7897 -0.2804 -0.2265
 5490TIP3    H138105   5.668   5.254   1.476 -0.8770 -1.0495 -1.1480
 5490TIP3    H238106   5.639   5.107   1.502  2.0188 -1.3579  0.8390
 5491TIP3   OH238107   4.703   1.160   1.586 -0.1462  0.1419  0.1337
 5491TIP3    H138108   4.655   1.078   1.576  0.0809  0.0248 -0.0189
 5491TIP3    H238109   4.678   1.212   1.510 -0.5526  0.3486  0.4098
 5492TIP3   OH238110   0.333   1.421   6.763 -0.5663  0.0701  0.3464
 5492TIP3    H138111   0.339   1.452   6.673 -0.5186 -0.4364  0.1747
 5492TIP3    H238112   0.362   1.330   6.759  2.8911  0.9646  1.4121
 5493TIP3   OH238113   4.130   3.942   1.563  0.4371 -0.0279  0.0092
 5493TIP3    H138114   4.087   3.884   1.625  3.2660 -2.0817  0.2544
 5493TIP3    H238115   4.152   4.020   1.613  0.5997 -0.6748  0.9634
 5494TIP3   OH238116   4.868   5.326   6.619  0.1568  0.3420 -0.4769
 5494TIP3    H138117   4.858   5.267   6.544 -0.4922  0.3413 -0.3918
 5494TIP3    H238118   4.915   5.274   6.684  0.2757  0.1740 -0.6947
 5495TIP3   OH238119   0.885   6.038   7.422 -0.8273 -0.2623 -0.7528
 5495TIP3    H138120   0.929   6.122   7.430  0.3611 -0.8215 -1.1856
 5495TIP3    H238121   0.894   5.997   7.508 -0.8535 -0.2152 -0.7275
 5496TIP3   OH238122   0.895   4.385   8.355 -0.4477  0.0529 -0.3762
 5496TIP3    H138123   0.919   4.315   8.295  1.8651 -0.0987  0.6512
 5496TIP3    H238124   0.933   4.464   8.316  1.7517 -0.1591  1.1803
 5497TIP3   OH238125   0.185   4.761   7.801 -0.2454 -0.0704 -0.5762
 5497TIP3    H138126   0.195   4.856   7.789  0.6549  0.0355  0.7880
 5497TIP3    H238127   0.235   4.742   7.880 -0.8207 -1.6203 -0.5592
 5498TIP3   OH238128   2.213   5.501   8.376 -0.1249 -0.2236  0.3467
 5498TIP3    H138129   2.234   5.436   8.309  0.2862 -0.7157  0.9362
 5498TIP3    H238130   2.277   5.571   8.362 -1.4443  0.7561 -1.1861
 5499TIP3   OH238131   4.374   6.522   7.865  0.4154  0.2207  0.0097
 5499TIP3    H138132   4.403   6.579   7.936 -0.6825  1.3781 -0.4131
 5499TIP3    H238133   4.296   6.478   7.899 -0.1294  0.7972 -0.4476
 5500TIP3   OH238134   3.239   6.453   1.226 -0.0849  0.7222  0.3812
 5500TIP3    H138135   3.196   6.473   1.143 -1.6463 -0.4140  0.8543
 5500TIP3    H238136   3.276   6.366   1.213 -1.4814 -0.0443  1.2315
 5501TIP3   OH238137   2.292   6.760   1.067 -0.3668  1.0415 -0.2265
 5501TIP3    H138138   2.279   6.667   1.083 -2.2720  1.5497  1.6138
 5501TIP3    H238139   2.250   6.776   0.982 -0.1916  0.2742 -0.4626
 5502TIP3   OH238140   1.142   3.377   6.297  0.4181  0.1412  0.3431
 5502TIP3    H138141   1.210   3.444   6.287  0.3303  0.1181 -0.4655
 5502TIP3    H238142   1.187   3.304   6.340  1.1627 -0.2461 -1.0432
 5503TIP3   OH238143   1.463   1.827   0.844 -0.1544  0.5989 -0.1552
 5503TIP3    H138144   1.462   1.734   0.866 -2.8276  0.7043  0.5199
 5503TIP3    H238145   1.518   1.833   0.767  0.5681 -1.4526  0.1543
 5504TIP3   OH238146   1.921   2.040   7.740  0.4041  0.2494 -0.6172
 5504TIP3    H138147   1.906   2.063   7.832 -1.6866  0.0243 -0.8511
 5504TIP3    H238148   1.924   2.124   7.695  0.4923  0.3282 -0.4653
 5505TIP3   OH238149   6.043   4.574   7.399  0.0532  0.0175 -0.8838
 5505TIP3    H138150   6.043   4.558   7.494  1.5300  1.5642 -0.5620
 5505TIP3    H238151   6.133   4.600   7.379 -0.3917  0.3793 -2.5959
 5506TIP3   OH238152   0.674   4.112   1.185 -1.0551 -0.0028 -0.7150
 5506TIP3    H138153   0.655   4.202   1.212  0.9623  0.0148  0.8805
 5506TIP3    H238154   0.739   4.120   1.115  0.2676 -0.1771  0.4380
 5507TIP3   OH238155   0.378   6.725   7.316  0.6080 -1.0221  0.6213
 5507TIP3    H138156   0.326   6.788   7.266  1.7680  0.2763  0.9706
 5507TIP3    H238157   0.346   6.733   7.406  1.6327  0.0942  0.9191
 5508TIP3   OH238158   3.786   2.305   8.043 -0.3610 -0.8992  0.4109
 5508TIP3    H138159   3.842   2.229   8.022 -0.3209 -0.6989 -0.2352
 5508TIP3    H238160   3.703   2.266   8.071  0.0525 -1.1989  1.2469
 5509TIP3   OH238161   4.176   5.802   7.351  0.6494 -0.1256 -0.9306
 5509TIP3    H138162   4.219   5.886   7.341 -0.3097  0.5965  0.7572
 5509TIP3    H238163   4.231   5.753   7.413  0.1829 -0.0124 -0.4257
 5510TIP3   OH238164   1.081   6.276   2.372  0.3047 -0.0946  0.6086
 5510TIP3    H138165   1.011   6.253   2.310 -0.0069 -0.4955  1.1047
 5510TIP3    H238166   1.097   6.195   2.421  2.9015 -0.8305 -1.2039
 5511TIP3   OH238167   3.869   4.725   7.003 -0.1689  0.0753  0.0099
 5511TIP3    H138168   3.944   4.715   7.062 -0.9651  1.4080  1.2999
 5511TIP3    H238169   3.898   4.791   6.939  0.4582 -0.8899 -0.7248
 5512TIP3   OH238170   1.562   3.912   2.442 -0.6464  0.0003  0.2716
 5512TIP3    H138171   1.647   3.882   2.473 -0.4912  0.4719  0.2990
 5512TIP3    H238172   1.499   3.857   2.489 -0.3280 -1.4336 -0.8993
 5513TIP3   OH238173   5.133   0.186   0.206 -0.3298 -0.0837 -0.0480
 5513TIP3    H138174   5.135   0.274   0.242  0.7897 -0.5581  1.1725
 5513TIP3    H238175   5.221   0.152   0.221 -0.1600 -0.7621 -2.2284
 5514TIP3   OH238176   6.264   4.562   8.352  0.1694 -0.1060 -0.2706
 5514TIP3    H138177   6.317   4.528   8.424 -2.0996 -0.0797  1.5106
 5514TIP3    H238178   6.322   4.559   8.276  2.4778 -0.6619  1.4232
 5515TIP3   OH238179   3.624   0.637   7.255  0.2343 -0.1935  0.4976
 5515TIP3    H138180   3.564   0.660   7.325 -0.1746  0.1502  0.0470
 5515TIP3    H238181   3.576   0.574   7.201  0.2402  0.1376  0.0929
 5516TIP3   OH238182   1.308   3.292   7.159 -0.3047 -0.2671 -0.3400
 5516TIP3    H138183   1.390   3.292   7.208 -0.9772  0.3173  0.8220
 5516TIP3    H238184   1.313   3.372   7.106 -0.0668 -0.3016 -0.3718
 5517TIP3   OH238185   1.243   0.622   1.658  0.4047  0.9216 -0.4767
 5517TIP3    H138186   1.325   0.644   1.613  1.2553 -1.9741 -0.5191
 5517TIP3    H238187   1.177   0.622   1.588  1.2294 -0.9248 -1.3235
 5518TIP3   OH238188   1.436   6.044   0.826  0.2688 -0.0458  0.4707
 5518TIP3    H138189   1.476   5.966   0.787 -0.5432  0.3479 -1.2528
 5518TIP3    H238190   1.342   6.030   0.814  0.1498  1.6956 -0.9171
 5519TIP3   OH238191   0.215   3.568   0.296  0.2335 -0.6044  0.4855
 5519TIP3    H138192   0.240   3.657   0.271  0.2794 -1.5622 -3.6213
 5519TIP3    H238193   0.283   3.541   0.358 -0.5953  2.5692  3.0720
 5520TIP3   OH238194   5.992   0.382   1.879 -0.5165  0.4973  0.1837
 5520TIP3    H138195   5.966   0.301   1.835  1.1441  0.2208 -0.3948
 5520TIP3    H238196   5.996   0.358   1.972 -1.6705  0.3933  0.2099
 5521TIP3   OH238197   6.771   3.351   1.716 -0.6366 -0.0144 -0.1969
 5521TIP3    H138198   6.707   3.290   1.680 -0.1076 -0.8723  0.2802
 5521TIP3    H238199   6.856   3.309   1.701 -0.4312 -1.0080  3.0625
 5522TIP3   OH238200   4.768   1.599   0.372 -0.8258 -0.0489 -0.1092
 5522TIP3    H138201   4.833   1.601   0.443 -1.3304  0.4376  0.3513
 5522TIP3    H238202   4.813   1.640   0.298  0.0986 -1.5873 -0.4414
 5523TIP3   OH238203   4.767   3.419   0.608  0.6598  0.3921  0.1890
 5523TIP3    H138204   4.831   3.434   0.677 -0.3083  1.4862  0.8798
 5523TIP3    H238205   4.684   3.448   0.645 -0.1721 -0.5736 -0.8476
 5524TIP3   OH238206   0.591   5.126   6.744 -0.4724  0.0680 -0.4403
 5524TIP3    H138207   0.517   5.138   6.804 -0.0898  0.6138 -0.0658
 5524TIP3    H238208   0.597   5.031   6.731 -1.7874  0.0541 -1.1820
 5525TIP3   OH238209   0.518   5.746   1.786 -0.1425 -0.7080  0.1690
 5525TIP3    H138210   0.552   5.656   1.781  1.1205 -0.2224 -0.2139
 5525TIP3    H238211   0.465   5.746   1.866  2.6959 -0.8847  2.2275
 5526TIP3   OH238212   6.098   6.830   7.626  0.0131 -0.6951  0.4341
 5526TIP3    H138213   6.030   6.763   7.622 -0.4131 -0.2783  0.5203
 5526TIP3    H238214   6.124   6.844   7.535 -0.9267  0.0464  0.2617
 5527TIP3   OH238215   1.671   1.126   8.038 -0.1568  0.0814  0.4703
 5527TIP3    H138216   1.727   1.053   8.013 -1.2152 -0.3586 -0.7238
 5527TIP3    H238217   1.731   1.197   8.059  0.8779 -0.9731  1.2120
 5528TIP3   OH238218   3.928   3.298   0.379 -0.2006 -0.2684 -0.2682
 5528TIP3    H138219   3.967   3.242   0.445  2.9644  1.1498 -0.7084
 5528TIP3    H238220   3.858   3.345   0.424  0.2318 -1.1383  1.3683
 5529TIP3   OH238221   3.336   6.792   1.002 -0.3788 -0.3365 -0.3595
 5529TIP3    H138222   3.390   6.738   1.060 -0.4661 -0.0393  0.0033
 5529TIP3    H238223   3.344   6.880   1.037  0.5912  0.0749 -1.5654
 5530TIP3   OH238224   3.413   6.210   0.471 -0.1467  0.5046  0.3859
 5530TIP3    H138225   3.473   6.225   0.399 -1.1899 -0.5470 -0.7451
 5530TIP3    H238226   3.444   6.268   0.541  1.7027  0.5422 -0.4120
 5531TIP3   OH238227   1.337   3.950   2.029  0.8485 -0.5250 -0.3679
 5531TIP3    H138228   1.415   3.916   2.073  0.3026 -0.2010  0.9004
 5531TIP3    H238229   1.285   3.872   2.010  1.4710 -0.7453 -1.2477
 5532TIP3   OH238230   6.208   2.859   8.637 -0.2756 -0.4138  0.6234
 5532TIP3    H138231   6.132   2.831   8.586  0.7598  0.1180 -1.2833
 5532TIP3    H238232   6.186   2.949   8.664  0.2305  0.3018 -1.1887
 5533TIP3   OH238233   6.521   3.945   1.900 -0.5623  0.0430 -0.7203
 5533TIP3    H138234   6.513   4.017   1.838  2.1341  0.3096 -0.8778
 5533TIP3    H238235   6.597   3.968   1.954  0.2769 -2.5787 -0.6597
 5534TIP3   OH238236   4.330   1.645   2.097  0.4845 -0.1491  0.3069
 5534TIP3    H138237   4.260   1.639   2.031 -0.2076  0.0619  1.0082
 5534TIP3    H238238   4.410   1.658   2.045  0.1355 -1.2508 -0.5545
 5535TIP3   OH238239   4.502   2.084   2.080  0.5884 -0.1341  0.1321
 5535TIP3    H138240   4.530   2.067   1.990  1.0705 -0.1921  0.2884
 5535TIP3    H238241   4.525   2.176   2.095 -0.2032  0.0967 -0.0593
 5536TIP3   OH238242   3.379   3.002   1.205  0.2956  0.5718 -0.4667
 5536TIP3    H138243   3.300   2.967   1.164 -0.4507 -0.1291  1.4475
 5536TIP3    H238244   3.443   2.932   1.198  0.2584  0.5575 -0.6627
 5537TIP3   OH238245   6.540   6.080   1.664  0.2134  0.2877 -0.2923
 5537TIP3    H138246   6.531   6.174   1.679  0.4556  0.3280 -0.3996
 5537TIP3    H238247   6.597   6.073   1.588 -0.6099  0.0763 -0.9040
 5538TIP3   OH238248   4.381   0.058   6.902 -0.2762  0.7750  0.6154
 5538TIP3    H138249   4.394   0.032   6.811 -1.6840  1.0754  0.3051
 5538TIP3    H238250   4.371   0.153   6.899 -0.8711  0.7320  1.0062
 5539TIP3   OH238251   0.160   1.000   7.813  0.3289  0.1168 -0.1023
 5539TIP3    H138252   0.199   1.075   7.859  0.9495  0.9854 -1.9543
 5539TIP3    H238253   0.134   0.940   7.883  1.3662  1.2971  1.3625
 5540TIP3   OH238254   2.595   0.972   7.809  0.6045  0.2845 -0.2779
 5540TIP3    H138255   2.545   0.896   7.839  1.8674 -1.3924 -2.1491
 5540TIP3    H238256   2.531   1.027   7.765 -0.0719 -0.4589 -0.2382
 5541TIP3   OH238257   4.623   0.216   6.937 -0.3230 -0.0350 -0.2086
 5541TIP3    H138258   4.570   0.268   6.877 -0.6553 -1.3497 -1.1062
 5541TIP3    H238259   4.712   0.249   6.924 -0.3855 -0.3072 -1.4681
 5542TIP3   OH238260   1.345   5.404   8.408  0.0984  0.1605  0.3255
 5542TIP3    H138261   1.262   5.450   8.421 -0.1681  0.3705 -1.7453
 5542TIP3    H238262   1.329   5.316   8.442 -1.1422  0.0724 -0.3989
 5543TIP3   OH238263   0.561   2.685   2.368 -0.1472  0.4389  0.2664
 5543TIP3    H138264   0.471   2.708   2.391 -0.2221  2.4955 -1.7526
 5543TIP3    H238265   0.576   2.729   2.285  1.5754 -2.7459 -1.2948
 5544TIP3   OH238266   6.607   4.405   8.337  0.2501 -0.5516 -0.5639
 5544TIP3    H138267   6.558   4.416   8.419  1.3823  0.1292  0.0388
 5544TIP3    H238268   6.695   4.437   8.357 -0.0804  1.9836 -2.7233
 5545TIP3   OH238269   4.421   2.193   8.041  0.2833 -0.3553  0.3400
 5545TIP3    H138270   4.432   2.101   8.017  1.3459 -0.7294  2.0989
 5545TIP3    H238271   4.332   2.197   8.078 -0.7398 -0.0991 -1.9623
 5546TIP3   OH238272   3.940   2.186   2.086 -0.0572 -0.2221  0.0738
 5546TIP3    H138273   3.945   2.214   2.177  0.4944  0.7547 -0.2338
 5546TIP3    H238274   3.917   2.266   2.038  1.9711 -0.1606 -0.8913
 5547TIP3   OH238275   0.542   3.289   7.628  0.3282  0.3233 -0.8826
 5547TIP3    H138276   0.601   3.342   7.681  0.3131  0.2653 -0.8077
 5547TIP3    H238277   0.464   3.279   7.681  0.9554 -1.1804 -0.1763
 5548TIP3   OH238278   2.135   1.303   6.912 -0.2125 -0.0508 -0.4567
 5548TIP3    H138279   2.066   1.368   6.929  1.2422  1.0737  1.6455
 5548TIP3    H238280   2.106   1.257   6.834 -2.1957  1.9515 -1.0111
 5549TIP3   OH238281   2.158   1.045   0.104 -0.4030 -0.3786  0.5365
 5549TIP3    H138282   2.205   1.125   0.080  0.1811 -0.9771 -0.3842
 5549TIP3    H238283   2.221   0.975   0.088 -0.9740 -1.0406  1.1421
 5550TIP3   OH238284   1.358   5.068   1.513  0.3727  0.0730 -0.1153
 5550TIP3    H138285   1.300   5.001   1.479  0.1784  0.1981 -0.0340
 5550TIP3    H238286   1.410   5.024   1.580  0.3707 -0.0395 -0.1890
 5551TIP3   OH238287   1.161   6.909   1.800  0.2628 -0.3823  0.3721
 5551TIP3    H138288   1.142   6.819   1.771  2.0386 -0.9429  0.8173
 5551TIP3    H238289   1.136   6.910   1.893 -1.8398  0.2798 -0.1578
 5552TIP3   OH238290   1.815   3.368   1.487  0.1671  0.0984 -0.6893
 5552TIP3    H138291   1.775   3.293   1.532 -1.2512  1.4147  0.3519
 5552TIP3    H238292   1.749   3.396   1.424  1.0698 -0.0883 -1.7365
 5553TIP3   OH238293   0.211   6.799   7.532 -0.0914 -0.4127 -0.4503
 5553TIP3    H138294   0.116   6.804   7.525 -0.1520 -0.8302  0.0251
 5553TIP3    H238295   0.242   6.883   7.499 -0.6753  0.1682  0.4354
 5554TIP3   OH238296   6.079   1.847   8.539  0.1176 -0.3537 -0.6962
 5554TIP3    H138297   6.119   1.766   8.508  0.7281  0.0545 -0.9840
 5554TIP3    H238298   6.017   1.818   8.606  0.6411 -1.0218 -0.4837
 5555TIP3   OH238299   0.423   6.463   1.010  0.4469 -0.3767 -0.0509
 5555TIP3    H138300   0.477   6.434   0.936 -0.4322 -0.1733 -0.7920
 5555TIP3    H238301   0.354   6.396   1.016  1.0498 -0.9140  1.2117
 5556TIP3   OH238302   5.402   5.875   8.003 -0.0075 -0.1167 -0.2011
 5556TIP3    H138303   5.411   5.889   8.097  0.0312 -0.1441 -0.2011
 5556TIP3    H238304   5.428   5.784   7.989  2.1087  0.4827 -0.5245
 5557TIP3   OH238305   3.467   0.955   8.001  0.3835  0.6744 -0.2633
 5557TIP3    H138306   3.440   1.046   7.989  3.8634  1.9127  0.3414
 5557TIP3    H238307   3.409   0.922   8.070  0.4175  3.1115  1.0441
 5558TIP3   OH238308   1.116   2.209   6.551  0.2851  0.0803  0.3302
 5558TIP3    H138309   1.156   2.183   6.468  1.0901  0.5009  0.5761
 5558TIP3    H238310   1.171   2.170   6.618  0.1083  0.4120  0.6756
 5559TIP3   OH238311   5.604   4.102   0.098 -0.1006 -0.2636  0.6155
 5559TIP3    H138312   5.558   4.186   0.093 -0.3664 -0.4435 -0.3307
 5559TIP3    H238313   5.607   4.081   0.191  0.4330  1.0425  0.9098
 5560TIP3   OH238314   2.694   3.784   7.683 -0.2720  0.4383 -0.1931
 5560TIP3    H138315   2.677   3.719   7.751  0.8028  0.2963 -0.0294
 5560TIP3    H238316   2.651   3.864   7.715  0.6956  0.5377  0.9732
 5561TIP3   OH238317   6.825   2.728   1.180  0.3455  0.5810  0.1454
 5561TIP3    H138318   6.905   2.694   1.219 -0.6863 -1.9725  0.2470
 5561TIP3    H238319   6.839   2.719   1.085  0.1445 -0.0544  0.1675
 5562TIP3   OH238320   2.615   3.359   8.059 -0.5502 -0.2811  0.1962
 5562TIP3    H138321   2.674   3.302   8.010  1.6691 -0.0532  2.3827
 5562TIP3    H238322   2.542   3.302   8.085 -2.3556 -0.2049 -3.9031
 5563TIP3   OH238323   4.576   4.407   1.194 -0.0839  0.8292  0.5228
 5563TIP3    H138324   4.620   4.492   1.203 -0.9141  1.1826  1.5012
 5563TIP3    H238325   4.507   4.410   1.260  2.6143 -2.3717  3.9497
 5564TIP3   OH238326   0.018   2.866   2.187 -0.1831 -0.0947 -0.3176
 5564TIP3    H138327   0.008   2.954   2.222 -2.2952  0.5110 -2.1866
 5564TIP3    H238328   0.108   2.841   2.209  0.3708  2.3907  0.5273
 5565TIP3   OH238329   5.568   3.887   1.983 -0.3134 -0.2557 -0.0706
 5565TIP3    H138330   5.517   3.896   2.063 -1.2408 -2.0132 -0.3949
 5565TIP3    H238331   5.504   3.858   1.918  0.9636 -1.9667 -0.6341
 5566TIP3   OH238332   0.115   6.455   2.107  0.2474 -0.0030 -0.5615
 5566TIP3    H138333   0.114   6.545   2.074  1.6164 -0.0272 -0.7360
 5566TIP3    H238334   0.206   6.427   2.095  0.8380 -0.0819  3.0335
 5567TIP3   OH238335   2.015   5.085   8.583 -0.1558  0.0299  0.6826
 5567TIP3    H138336   2.025   4.993   8.605  0.0327  0.2854  1.7282
 5567TIP3    H238337   2.105   5.119   8.582 -0.1537  0.0193 -0.5791
 5568TIP3   OH238338   1.916   3.505   6.741  0.1356 -0.0393 -0.3847
 5568TIP3    H138339   1.989   3.564   6.758  0.0024 -0.0096  0.1128
 5568TIP3    H238340   1.838   3.556   6.763 -0.0065 -0.2286 -0.4464
 5569TIP3   OH238341   2.031   6.334   2.273 -0.1887 -0.1334  0.3699
 5569TIP3    H138342   1.948   6.342   2.320 -0.5837 -0.5268 -0.2436
 5569TIP3    H238343   2.060   6.244   2.291 -0.8398 -0.6234 -0.9132
 5570TIP3   OH238344   3.926   6.117   6.860  0.0070 -0.1973 -0.5865
 5570TIP3    H138345   3.966   6.203   6.850 -1.6175  0.6074 -0.4856
 5570TIP3    H238346   3.835   6.129   6.831 -0.1394 -1.9876 -0.9833
 5571TIP3   OH238347   5.082   6.703   6.564 -0.0723  0.0391  0.6627
 5571TIP3    H138348   5.077   6.620   6.517  2.0629  0.0035  0.4078
 5571TIP3    H238349   5.108   6.678   6.653  2.3802  0.4595  0.1456
 5572TIP3   OH238350   6.515   6.072   0.325  0.0978  0.1850 -0.2004
 5572TIP3    H138351   6.480   6.129   0.393 -0.1748 -2.8282  2.4590
 5572TIP3    H238352   6.577   6.127   0.276 -1.3728  3.1180  0.9952
 5573TIP3   OH238353   2.468   4.789   7.499  0.1134  0.1838  0.5711
 5573TIP3    H138354   2.482   4.852   7.428  1.9622 -1.1080 -0.2844
 5573TIP3    H238355   2.437   4.842   7.573 -1.6459  1.6091 -1.0673
 5574TIP3   OH238356   4.990   3.924   7.257  0.0553 -0.0204  0.3392
 5574TIP3    H138357   5.062   3.979   7.291  0.0289  0.0992  0.2032
 5574TIP3    H238358   4.974   3.861   7.326 -1.2812  1.3902  1.3811
 5575TIP3   OH238359   4.823   1.373   6.776 -0.0443  0.2560  0.0435
 5575TIP3    H138360   4.864   1.405   6.696  0.8653  0.6382  0.6389
 5575TIP3    H238361   4.755   1.438   6.796 -0.4501  0.0175 -0.5504
 5576TIP3   OH238362   6.722   4.798   7.797  0.6659  0.0707 -0.1876
 5576TIP3    H138363   6.703   4.762   7.710 -1.7881 -0.4551  0.4898
 5576TIP3    H238364   6.772   4.729   7.841  2.2533  0.4884 -1.2424
 5577TIP3   OH238365   4.238   6.005   7.581  0.1638  0.3549 -0.2204
 5577TIP3    H138366   4.233   6.023   7.675  0.5994 -3.2928  0.6395
 5577TIP3    H238367   4.148   6.017   7.550 -0.6740 -1.2952  1.3685
 5578TIP3   OH238368   6.422   6.294   0.964  0.0932  0.0294  0.3958
 5578TIP3    H138369   6.470   6.275   1.044 -0.2280 -0.3653  0.4958
 5578TIP3    H238370   6.331   6.303   0.992  0.1325  1.0522  0.2527
 5579TIP3   OH238371   3.973   1.303   7.601  0.4583 -0.3207 -0.4829
 5579TIP3    H138372   3.935   1.220   7.630  0.0707 -0.0386 -0.1775
 5579TIP3    H238373   3.974   1.296   7.505 -1.8618  0.2922 -0.6180
 5580TIP3   OH238374   2.756   3.933   6.884  0.0863 -0.0694  0.2195
 5580TIP3    H138375   2.697   3.932   6.808  0.0049  0.3933  0.2773
 5580TIP3    H238376   2.813   4.008   6.871  0.8602 -0.6720  0.0269
 5581TIP3   OH238377   3.946   2.099   6.588  0.0378 -0.1889  0.0474
 5581TIP3    H138378   4.011   2.168   6.580 -0.2047 -0.1133 -1.8239
 5581TIP3    H238379   3.988   2.022   6.549 -1.0785 -0.0297 -1.6081
 5582TIP3   OH238380   0.040   2.899   0.725  0.1912  0.1205  0.1703
 5582TIP3    H138381  -0.033   2.953   0.755  0.3240 -0.1308  0.9447
 5582TIP3    H238382   0.078   2.949   0.652 -0.1275  0.7344  0.4192
 5583TIP3   OH238383   2.900   0.934   2.169  0.5669  0.3380 -0.4244
 5583TIP3    H138384   2.993   0.921   2.151  0.5706 -0.3772  0.0896
 5583TIP3    H238385   2.893   1.026   2.194  1.4166 -0.0269  1.2307
 5584TIP3   OH238386   6.664   5.775   1.785  0.1989  0.4429  0.5076
 5584TIP3    H138387   6.622   5.725   1.855  1.8174 -2.0566 -0.1864
 5584TIP3    H238388   6.596   5.835   1.754 -1.2673 -0.0190  2.6213
 5585TIP3   OH238389   5.099   4.266   1.323  0.3035  0.1601 -0.4560
 5585TIP3    H138390   5.071   4.344   1.373 -0.4872  0.1531 -0.8758
 5585TIP3    H238391   5.164   4.224   1.380  0.2910  0.7972  0.0479
 5586TIP3   OH238392   1.299   1.796   7.330 -0.5328 -0.0533 -0.4202
 5586TIP3    H138393   1.312   1.784   7.236  0.7091  0.0262 -0.2843
 5586TIP3    H238394   1.362   1.864   7.355 -0.9849  0.0715  0.4379
 5587TIP3   OH238395   3.746   1.803   1.056 -0.2920  0.4501 -0.1061
 5587TIP3    H138396   3.766   1.710   1.046 -1.4119  0.1719  0.0754
 5587TIP3    H238397   3.769   1.823   1.147  2.4169  1.0246 -0.8442
 5588TIP3   OH238398   0.888   6.826   2.054  0.6760  0.4252 -0.1029
 5588TIP3    H138399   0.899   6.742   2.099  0.8439 -0.3992 -1.6259
 5588TIP3    H238400   0.975   6.865   2.053  0.9362 -0.1478 -0.8113
 5589TIP3   OH238401   6.105   3.101   6.077  0.1810 -0.4368  0.3789
 5589TIP3    H138402   6.031   3.041   6.089  0.2487 -0.8241 -0.9131
 5589TIP3    H238403   6.067   3.179   6.038 -0.3895  1.6720  4.6052
 5590TIP3   OH238404   3.851   5.117   2.341 -0.1303 -0.7986  0.3711
 5590TIP3    H138405   3.780   5.174   2.310  0.3307 -0.3421  0.1443
 5590TIP3    H238406   3.806   5.041   2.378 -0.7708 -0.1712  0.9210
 5591TIP3   OH238407   5.849   0.107   0.789  0.0769  0.1201 -0.3140
 5591TIP3    H138408   5.755   0.122   0.790 -0.1448 -0.9330 -1.5778
 5591TIP3    H238409   5.882   0.151   0.867 -1.5157  0.1205  0.3940
 5592TIP3   OH238410   6.436   2.480   1.518  0.5449  0.1182  0.0262
 5592TIP3    H138411   6.406   2.427   1.592  0.2962 -0.4193 -0.4549
 5592TIP3    H238412   6.522   2.513   1.546  0.7333 -0.5927  0.3026
 5593TIP3   OH238413   3.101   6.245   0.944 -0.3252 -0.2689 -0.6581
 5593TIP3    H138414   3.182   6.194   0.951 -0.5872 -0.7426 -1.0063
 5593TIP3    H238415   3.118   6.309   0.875  0.8240  1.6946  1.3265
 5594TIP3   OH238416   0.007   3.629   7.645 -0.0702 -0.3765 -0.1855
 5594TIP3    H138417  -0.000   3.535   7.631 -0.3832 -0.4992  0.6997
 5594TIP3    H238418  -0.083   3.660   7.653  0.0471 -0.1195  0.2156
 5595TIP3   OH238419   2.586   4.016   0.863  0.2243  0.0965 -0.1913
 5595TIP3    H138420   2.548   3.940   0.909 -0.0569  0.4907  0.2319
 5595TIP3    H238421   2.680   4.001   0.867  0.3445  1.0647  2.2141
 5596TIP3   OH238422   3.957   5.800   0.687 -0.0198 -0.2400  0.1462
 5596TIP3    H138423   3.888   5.831   0.628  0.0348  3.7208  1.8910
 5596TIP3    H238424   4.024   5.868   0.684  0.9505 -0.9181  3.1361
 5597TIP3   OH238425   0.605   2.339   0.336 -0.5264  0.6614  0.3573
 5597TIP3    H138426   0.687   2.382   0.314  1.7783 -1.7147  3.3461
 5597TIP3    H238427   0.606   2.259   0.284 -0.8551  0.5523  0.5183
 5598TIP3   OH238428   3.910   0.668   2.327 -0.4505  0.4814  0.3732
 5598TIP3    H138429   3.980   0.680   2.262 -1.5025 -0.2257 -0.9442
 5598TIP3    H238430   3.891   0.757   2.358  1.0324  0.6796  0.7632
 5599TIP3   OH238431   5.262   3.170   8.423 -0.2251 -0.0255 -0.5733
 5599TIP3    H138432   5.254   3.086   8.469 -0.4888 -0.0939 -0.7415
 5599TIP3    H238433   5.228   3.234   8.486  0.7171  0.0606 -0.1386
 5600TIP3   OH238434   6.322   5.418   0.577 -0.6008 -0.0227  0.1076
 5600TIP3    H138435   6.302   5.340   0.525 -1.9055  0.9359 -0.9034
 5600TIP3    H238436   6.256   5.482   0.550  0.5560  1.5089  0.7575
 5601TIP3   OH238437   1.842   6.067   0.682  0.3836 -0.6086 -0.5785
 5601TIP3    H138438   1.883   5.987   0.648 -0.9795 -0.5796 -2.4861
 5601TIP3    H238439   1.791   6.100   0.608  1.6299  2.5512 -0.1592
 5602TIP3   OH238440   3.894   6.090   1.285 -0.6406 -0.5552 -0.7488
 5602TIP3    H138441   3.857   6.176   1.305  2.6726  0.6496  0.8743
 5602TIP3    H238442   3.900   6.046   1.369 -0.3399 -1.5482 -1.2759
 5603TIP3   OH238443   0.507   0.621   0.318  0.0044  0.0506 -0.3335
 5603TIP3    H138444   0.600   0.599   0.316 -0.3597 -1.5562 -1.7031
 5603TIP3    H238445   0.498   0.694   0.257  0.2751 -0.1907 -0.6669
 5604TIP3   OH238446   4.608   2.376   1.737 -0.1424  0.0512 -0.2835
 5604TIP3    H138447   4.561   2.297   1.712 -2.1488  0.4343  1.9358
 5604TIP3    H238448   4.699   2.349   1.743 -0.4485 -1.4674 -1.8308
 5605TIP3   OH238449   2.409   0.987   0.945  0.3886  0.4161 -0.3323
 5605TIP3    H138450   2.457   1.039   1.009  1.2138 -0.2683 -0.3875
 5605TIP3    H238451   2.468   0.981   0.869 -0.4354  0.9299 -1.0384
 5606TIP3   OH238452   1.431   6.866   1.324 -0.9247  0.4002 -0.1306
 5606TIP3    H138453   1.361   6.812   1.288  0.1044  0.1353 -1.8621
 5606TIP3    H238454   1.488   6.883   1.249 -0.5289  2.8125  0.6605
 5607TIP3   OH238455   2.868   3.796   1.474 -0.6691 -0.3034 -0.1725
 5607TIP3    H138456   2.776   3.773   1.489 -1.5005  2.2288 -0.8580
 5607TIP3    H238457   2.877   3.797   1.378  0.4962 -1.7988 -0.1250
 5608TIP3   OH238458   1.123   3.368   0.764  0.2078 -0.2075  0.0171
 5608TIP3    H138459   1.194   3.325   0.716  1.0030 -1.1755  1.9680
 5608TIP3    H238460   1.157   3.454   0.786 -0.5015  0.5980 -1.8608
 5609TIP3   OH238461   0.201   4.557   7.589  0.4128  0.8495 -0.2656
 5609TIP3    H138462   0.207   4.635   7.643  1.6725 -0.2490  1.2831
 5609TIP3    H238463   0.221   4.485   7.649  0.3444 -0.5678 -1.8695
 5610TIP3   OH238464   6.255   5.409   1.359  0.1699  0.3269 -1.0501
 5610TIP3    H138465   6.171   5.403   1.314  0.3637 -1.4055 -1.2620
 5610TIP3    H238466   6.320   5.405   1.289  0.4429 -0.3435 -0.7643
 5611TIP3   OH238467   1.139   2.477   8.234  0.1426 -0.5305  0.6038
 5611TIP3    H138468   1.059   2.435   8.265 -0.5743  0.1356 -0.2777
 5611TIP3    H238469   1.192   2.405   8.200  0.6958 -1.1972  2.7241
 5612TIP3   OH238470   4.672   3.881   1.292 -0.2709 -0.5948 -0.1872
 5612TIP3    H138471   4.643   3.968   1.263  0.1487  0.4659  2.2375
 5612TIP3    H238472   4.600   3.850   1.347  0.6698 -0.5505  1.1140
 5613TIP3   OH238473   6.470   5.073   1.871 -0.1214  0.3781 -0.0322
 5613TIP3    H138474   6.375   5.066   1.880 -0.0514  1.3165  2.0181
 5613TIP3    H238475   6.490   5.160   1.905  1.3836  0.6425 -1.4883
 5614TIP3   OH238476   1.486   3.517   6.873  0.3982  0.1313 -0.6286
 5614TIP3    H138477   1.475   3.505   6.967 -1.9529  0.5095 -0.7970
 5614TIP3    H238478   1.561   3.577   6.865  1.6038 -1.0846  0.8917
 5615TIP3   OH238479   3.442   3.538   8.520 -0.6880  0.3824 -0.1006
 5615TIP3    H138480   3.487   3.567   8.600 -0.8406 -1.1035  0.5568
 5615TIP3    H238481   3.414   3.619   8.477  2.5588  1.4257 -0.5406
 5616TIP3   OH238482   1.961   3.102   7.101  0.4565  0.6336  0.6664
 5616TIP3    H138483   1.881   3.113   7.049  1.1104  0.1622 -0.4660
 5616TIP3    H238484   2.025   3.160   7.059  0.9377  0.3979  1.0675
 5617TIP3   OH238485   6.640   4.727   8.365 -0.7865  0.4492 -0.1000
 5617TIP3    H138486   6.646   4.670   8.442 -0.9053  2.3056  1.3806
 5617TIP3    H238487   6.694   4.803   8.388  0.7539  0.2355 -2.6960
 5618TIP3   OH238488   0.872   3.635   6.632  0.5121  0.0925 -0.2258
 5618TIP3    H138489   0.840   3.672   6.715 -0.2961 -0.5139 -0.2590
 5618TIP3    H238490   0.911   3.551   6.657  1.6609  0.6008 -0.2578
 5619TIP3   OH238491   3.934   0.313   7.542 -0.4980  0.0211 -0.0666
 5619TIP3    H138492   3.964   0.383   7.483 -0.6019  0.7333  0.7160
 5619TIP3    H238493   3.851   0.285   7.505 -0.9019  0.9402  0.1075
 5620TIP3   OH238494   6.095   2.749   8.414  0.0516  0.3769 -0.5939
 5620TIP3    H138495   6.082   2.781   8.324  0.0423 -1.4501 -1.2804
 5620TIP3    H238496   6.187   2.723   8.417 -0.3766 -1.2574 -0.6858
 5621TIP3   OH238497   2.822   0.416   0.534 -0.1003 -0.6045  0.4540
 5621TIP3    H138498   2.758   0.349   0.509 -0.8844  0.3842 -0.2711
 5621TIP3    H238499   2.790   0.497   0.493 -0.8839  0.9367  3.7844
 5622TIP3   OH238500   2.874   6.820   1.489 -0.4750  0.0382 -0.0135
 5622TIP3    H138501   2.887   6.807   1.583 -0.0378  0.8600  0.0489
 5622TIP3    H238502   2.831   6.740   1.460  0.4414 -0.7329  0.6685
 5623TIP3   OH238503   1.013   5.609   0.262  0.5926  0.6513  0.0468
 5623TIP3    H138504   0.991   5.695   0.296  0.5635  0.7973 -0.3367
 5623TIP3    H238505   1.108   5.611   0.250  0.6970  0.3534  0.7906
 5624TIP3   OH238506   0.581   2.362   0.682 -0.0611 -0.0995  0.3971
 5624TIP3    H138507   0.511   2.304   0.709 -1.4115  0.9528 -0.7131
 5624TIP3    H238508   0.542   2.449   0.680  2.0426  1.0408  2.5843
 5625TIP3   OH238509   5.508   5.807   1.277 -0.2905  0.6756  0.6164
 5625TIP3    H138510   5.444   5.861   1.324  1.0685  1.5934  1.4738
 5625TIP3    H238511   5.593   5.840   1.306  0.6332  1.0556 -2.2238
 5626TIP3   OH238512   5.242   2.877   1.768 -0.1088 -0.3851  0.1959
 5626TIP3    H138513   5.319   2.856   1.714 -0.0029  0.7422 -0.1085
 5626TIP3    H238514   5.239   2.806   1.833  2.0510  0.2634  1.1213
 5627TIP3   OH238515   3.786   3.549   7.234 -1.2385  0.1410  0.1836
 5627TIP3    H138516   3.765   3.629   7.283  0.7907  0.2380  0.9943
 5627TIP3    H238517   3.822   3.582   7.151 -0.7893  0.0757  0.3493
 5628TIP3   OH238518   3.527   5.962   0.470  0.4162 -0.8857 -0.1535
 5628TIP3    H138519   3.498   5.912   0.394  1.5781 -1.0537 -0.5100
 5628TIP3    H238520   3.470   6.039   0.471 -0.1098 -1.2554 -0.7452
 5629TIP3   OH238521   6.091   1.351   0.756 -0.3925  0.2030  0.6133
 5629TIP3    H138522   6.101   1.445   0.773  0.6496  0.1294  0.4797
 5629TIP3    H238523   6.035   1.347   0.678  0.1606  0.7561  0.1721
 5630TIP3   OH238524   6.646   1.207   0.166  0.1063 -0.8127  0.1283
 5630TIP3    H138525   6.612   1.121   0.140 -1.8485 -0.0063 -0.1007
 5630TIP3    H238526   6.569   1.262   0.177  1.3376  1.0997 -0.2843
 5631TIP3   OH238527   4.330   3.535   0.211 -0.3745 -0.1092 -0.0041
 5631TIP3    H138528   4.236   3.523   0.220 -0.1922 -1.2506  0.5356
 5631TIP3    H238529   4.345   3.542   0.117 -0.9052 -0.8137 -0.1467
 5632TIP3   OH238530   2.337   1.651   1.327 -0.2467  0.1215 -0.4155
 5632TIP3    H138531   2.254   1.675   1.367 -0.0295  1.2793 -0.6170
 5632TIP3    H238532   2.401   1.660   1.397 -0.3891 -1.6918 -0.0016
 5633TIP3   OH238533   2.577   4.231   8.624 -0.5046 -0.4001 -0.4786
 5633TIP3    H138534   2.647   4.187   8.672  1.0535  1.9047 -0.4958
 5633TIP3    H238535   2.540   4.162   8.568  2.1762 -1.5919 -0.9620
 5634TIP3   OH238536   4.975   2.691   8.604 -0.0083 -0.6524 -0.1882
 5634TIP3    H138537   5.011   2.715   8.518 -1.0175  0.0417 -0.4327
 5634TIP3    H238538   4.880   2.691   8.591 -0.1553 -4.0133  0.0368
 5635TIP3   OH238539   0.964   1.456   0.568 -0.3076  0.0088 -0.1290
 5635TIP3    H138540   1.021   1.527   0.537  0.3606 -0.4089  0.1082
 5635TIP3    H238541   0.981   1.384   0.507 -1.0460  0.0744 -0.4205
 5636TIP3   OH238542   3.161   2.156   8.406 -0.2768 -0.1636  0.3026
 5636TIP3    H138543   3.195   2.170   8.494  0.0762 -2.1218  0.5141
 5636TIP3    H238544   3.102   2.081   8.414 -2.4390  1.3266 -0.6285
 5637TIP3   OH238545   2.300   1.397   8.099  0.2375  0.9548 -0.1919
 5637TIP3    H138546   2.289   1.473   8.043  3.5728  1.0139 -0.9592
 5637TIP3    H238547   2.313   1.324   8.039  0.6433  0.4340  0.5103
 5638TIP3   OH238548   3.718   0.910   7.378 -0.6711 -0.0513 -0.1445
 5638TIP3    H138549   3.629   0.882   7.357 -0.9288  0.8275 -0.2286
 5638TIP3    H238550   3.750   0.841   7.437 -0.6978 -1.4064 -1.6357
 5639TIP3   OH238551   1.083   4.034   0.550 -0.1053 -0.5010 -0.1526
 5639TIP3    H138552   1.044   4.035   0.462 -0.0679 -1.0797 -0.1825
 5639TIP3    H238553   1.114   4.124   0.564  1.1233 -0.7101 -1.2877
 5640TIP3   OH238554   3.720   1.131   1.351  0.1717 -0.6955 -0.7565
 5640TIP3    H138555   3.806   1.126   1.311  0.6028  0.0124  0.0346
 5640TIP3    H238556   3.660   1.098   1.284  0.9156 -0.0652 -1.7618
 5641TIP3   OH238557   3.600   2.280   0.023 -0.0144 -0.2408 -0.1565
 5641TIP3    H138558   3.572   2.300  -0.066 -0.4772 -0.4439 -0.0579
 5641TIP3    H238559   3.605   2.365   0.066 -0.3131 -0.1873 -0.2232
 5642TIP3   OH238560   6.140   1.712   7.452 -0.1489 -0.0369 -0.3686
 5642TIP3    H138561   6.117   1.755   7.369 -1.8239 -1.1649 -0.5486
 5642TIP3    H238562   6.134   1.619   7.432 -0.2277 -0.3238  0.9377
 5643TIP3   OH238563   6.533   3.288   1.554  0.7921  0.4801 -0.1569
 5643TIP3    H138564   6.493   3.375   1.557  0.7518  0.4713 -0.4129
 5643TIP3    H238565   6.499   3.249   1.473  1.9789  0.7904 -0.8286
 5644TIP3   OH238566   3.030   4.084   6.219 -0.0677  0.2170  0.1402
 5644TIP3    H138567   2.985   4.041   6.146 -2.3081  0.4802  1.2950
 5644TIP3    H238568   3.047   4.014   6.282  0.4438  0.2724  0.0746
 5645TIP3   OH238569   1.994   3.416   7.071  0.0671  0.0433 -0.3800
 5645TIP3    H138570   2.041   3.342   7.031  1.2870  1.0452 -0.8703
 5645TIP3    H238571   2.063   3.479   7.092 -1.1385  2.2345 -2.5210
 5646TIP3   OH238572   4.977   2.924   0.910 -0.0023 -0.1302 -0.6822
 5646TIP3    H138573   4.966   2.850   0.849  0.5715 -1.1404  0.3980
 5646TIP3    H238574   4.894   2.970   0.907 -1.0827 -1.9228  0.0054
 5647TIP3   OH238575   6.336   0.155   0.952  0.1781  0.1077 -0.2872
 5647TIP3    H138576   6.390   0.222   0.910  0.0243 -0.0890 -0.8177
 5647TIP3    H238577   6.398   0.105   1.005  0.2355  0.8689  0.3810
 5648TIP3   OH238578   3.696   0.729   0.762 -0.1516  0.1122  0.1705
 5648TIP3    H138579   3.706   0.653   0.820 -0.8303  0.8400  1.2745
 5648TIP3    H238580   3.605   0.725   0.732  0.0866 -0.0435 -0.5588
 5649TIP3   OH238581   1.010   6.052   1.534  0.4753 -0.3394  0.2899
 5649TIP3    H138582   1.096   6.017   1.558  0.2361 -0.0458  1.6700
 5649TIP3    H238583   0.952   6.020   1.603 -0.2261  0.6791  0.1834
 5650TIP3   OH238584   6.356   5.720   2.224 -0.4838  0.2401 -0.6952
 5650TIP3    H138585   6.296   5.704   2.151  0.0182  0.9361 -1.2743
 5650TIP3    H238586   6.309   5.783   2.280 -0.2763  0.8342 -1.1808
 5651TIP3   OH238587   0.156   3.613   7.081 -0.6840  0.2298 -0.1180
 5651TIP3    H138588   0.089   3.599   7.014 -3.5730  2.3062  2.1414
 5651TIP3    H238589   0.119   3.575   7.160  1.3896  0.3774  0.9793
 5652TIP3   OH238590   6.110   1.794   8.096  0.0650  0.2513 -0.0553
 5652TIP3    H138591   6.160   1.749   8.028  0.8652  0.0297  0.6588
 5652TIP3    H238592   6.167   1.866   8.124 -0.4054  0.5566  0.1291
 5653TIP3   OH238593   4.663   4.656   1.206 -0.4635 -0.0229 -0.1220
 5653TIP3    H138594   4.641   4.669   1.298  0.7794 -1.3768  0.3948
 5653TIP3    H238595   4.641   4.740   1.164 -0.0103  0.9991  1.5864
 5654TIP3   OH238596   0.788   2.588   2.494 -0.1912  0.1978  0.8335
 5654TIP3    H138597   0.693   2.601   2.498 -0.0390  2.6800 -0.9849
 5654TIP3    H238598   0.801   2.527   2.422 -0.3888  1.1155 -0.0059
 5655TIP3   OH238599   4.994   2.918   0.120  0.3931 -0.0599  0.4332
 5655TIP3    H138600   5.001   2.852   0.051  0.2559  2.8209 -2.5726
 5655TIP3    H238601   4.904   2.913   0.150  1.1053 -3.0967  2.4509
 5656TIP3   OH238602   1.298   5.937   8.060  0.4125  0.2264 -0.0211
 5656TIP3    H138603   1.275   5.929   7.967  0.6904 -0.0886 -0.0635
 5656TIP3    H238604   1.216   5.961   8.103 -0.6269 -3.1080  0.1497
 5657TIP3   OH238605   1.293   6.025   6.786 -0.0596  0.0072 -0.6807
 5657TIP3    H138606   1.234   6.060   6.719 -0.3142  0.5145 -0.2011
 5657TIP3    H238607   1.321   5.940   6.752 -0.3643  0.1603 -1.3248
 5658TIP3   OH238608   5.804   4.173   0.810 -0.1846  0.2557  0.6842
 5658TIP3    H138609   5.887   4.134   0.836  0.4995  0.8915 -0.4514
 5658TIP3    H238610   5.824   4.266   0.796 -1.5311  0.8352  2.2745
 5659TIP3   OH238611   6.616   2.679   0.170 -1.1319 -0.1744 -0.1778
 5659TIP3    H138612   6.682   2.623   0.211 -0.2507  0.8964 -0.0753
 5659TIP3    H238613   6.663   2.760   0.150 -1.9374 -0.1002 -1.9053
 5660TIP3   OH238614   3.704   5.784   7.206  0.3873  0.0471 -0.1753
 5660TIP3    H138615   3.646   5.852   7.239  0.8669  0.8731 -0.9904
 5660TIP3    H238616   3.761   5.763   7.280  1.1346  1.5184 -0.3192
 5661TIP3   OH238617   6.360   0.546   8.499 -0.1217 -0.2212  0.3632
 5661TIP3    H138618   6.278   0.532   8.453 -0.1040  1.8230 -0.4168
 5661TIP3    H238619   6.416   0.474   8.471 -0.3271  0.5553 -2.4008
 5662TIP3   OH238620   5.882   4.650   1.733  0.4316  0.1040 -0.2021
 5662TIP3    H138621   5.833   4.652   1.651  0.2023 -1.7745 -0.1570
 5662TIP3    H238622   5.968   4.685   1.711 -0.0750  0.9736 -0.8867
 5663TIP3   OH238623   3.468   2.851   7.449  0.2917  0.2112 -0.6578
 5663TIP3    H138624   3.399   2.887   7.394  0.5357 -1.5482 -2.2541
 5663TIP3    H238625   3.505   2.779   7.396  0.3732 -1.7695  1.9084
 5664TIP3   OH238626   6.862   1.189   1.284  1.2876 -0.1321  0.0247
 5664TIP3    H138627   6.868   1.284   1.280 -0.3620 -0.0464 -0.9561
 5664TIP3    H238628   6.915   1.158   1.211  1.0109  0.0710 -0.2612
 5665TIP3   OH238629   1.711   2.652   0.483  0.4043 -0.5871  0.6390
 5665TIP3    H138630   1.652   2.599   0.537 -3.3470 -0.3033 -2.7632
 5665TIP3    H238631   1.734   2.595   0.409 -1.2609  1.3949 -1.5442
 5666TIP3   OH238632   2.099   6.706   7.114  0.2710  0.7261  0.2126
 5666TIP3    H138633   2.033   6.718   7.046 -0.7250  0.9676  1.2049
 5666TIP3    H238634   2.165   6.651   7.073 -2.3686 -2.8752  0.3377
 5667TIP3   OH238635   2.941   5.885   8.165  0.4212 -0.0768 -0.3803
 5667TIP3    H138636   2.855   5.925   8.172  0.3777  0.2386 -2.2846
 5667TIP3    H238637   3.002   5.958   8.167  0.4266  0.0076 -2.3856
 5668TIP3   OH238638   1.814   1.286   7.721  0.2385 -0.8756  0.0941
 5668TIP3    H138639   1.837   1.199   7.753  0.7905 -1.3793 -1.5551
 5668TIP3    H238640   1.898   1.327   7.701  0.0373  0.4765  1.8712
 5669TIP3   OH238641   5.979   6.870   8.524  0.0345 -0.3938  0.1381
 5669TIP3    H138642   6.063   6.917   8.524 -1.1700  1.9612  0.8317
 5669TIP3    H238643   5.970   6.837   8.435  1.1398  0.4460 -0.3160
 5670TIP3   OH238644   4.611   1.248   1.900 -0.1121  0.7717 -0.6533
 5670TIP3    H138645   4.644   1.161   1.876 -0.7465  0.1953  0.4691
 5670TIP3    H238646   4.664   1.274   1.976  0.2521  1.5025 -1.1387
 5671TIP3   OH238647   0.581   1.066   1.054 -0.4374  0.2858  0.5532
 5671TIP3    H138648   0.579   0.973   1.035  0.9122  0.0119  1.6694
 5671TIP3    H238649   0.583   1.072   1.149  1.5122  1.3791  0.4953
 5672TIP3   OH238650   5.274   6.782   2.137  0.3338  0.1021  0.0587
 5672TIP3    H138651   5.322   6.751   2.213  2.9049 -0.9072 -1.8387
 5672TIP3    H238652   5.245   6.702   2.093 -1.6827  0.6741  0.2370
 5673TIP3   OH238653   1.241   1.283   2.508  0.8037  0.0080 -0.0551
 5673TIP3    H138654   1.231   1.191   2.484 -2.4384  1.1609 -4.2452
 5673TIP3    H238655   1.322   1.311   2.465  2.1111 -0.8600  1.7008
 5674TIP3   OH238656   1.767   2.284   6.190 -0.1493 -0.1240  0.4344
 5674TIP3    H138657   1.826   2.344   6.235  1.3199 -0.0140 -1.5111
 5674TIP3    H238658   1.798   2.197   6.215 -0.3246 -0.0703  0.8404
 5675TIP3   OH238659   6.555   1.744   8.064  0.7394 -0.4443 -0.6207
 5675TIP3    H138660   6.637   1.698   8.085  1.6520  0.3729 -2.2021
 5675TIP3    H238661   6.510   1.751   8.148  2.1101 -1.2523  0.2381
 5676TIP3   OH238662   0.441   3.667   8.259 -0.6195 -0.3146 -0.8702
 5676TIP3    H138663   0.374   3.608   8.224  1.0010 -1.1427 -2.7804
 5676TIP3    H238664   0.432   3.746   8.206  0.9028 -1.0356 -2.2923
 5677TIP3   OH238665   1.512   3.043   0.330 -0.4582 -0.7645  0.0446
 5677TIP3    H138666   1.473   3.016   0.247 -0.8250 -0.2056  0.0291
 5677TIP3    H238667   1.603   3.063   0.309 -1.0998  1.6569 -0.7389
 5678TIP3   OH238668   3.813   2.244   7.082 -0.0205 -0.3606  0.1536
 5678TIP3    H138669   3.817   2.336   7.054 -1.2107 -0.6530 -1.0539
 5678TIP3    H238670   3.899   2.209   7.060  0.5993  0.5544  1.0210
 5679TIP3   OH238671   1.578   4.735   0.456 -0.7531 -0.0886  0.3076
 5679TIP3    H138672   1.494   4.741   0.411  0.1143 -3.0489 -2.0430
 5679TIP3    H238673   1.617   4.655   0.423  3.5579  1.7148  0.3679
 5680TIP3   OH238674   5.069   4.361   8.152  0.0852 -0.1081  0.2871
 5680TIP3    H138675   4.984   4.382   8.113  0.2220  2.3667  1.1873
 5680TIP3    H238676   5.048   4.300   8.222 -0.9512  0.3546  0.4034
 5681TIP3   OH238677   5.931   2.694   6.352 -0.1848  0.4494 -0.1505
 5681TIP3    H138678   6.007   2.752   6.361 -0.0224  0.6535 -2.2452
 5681TIP3    H238679   5.965   2.607   6.373  0.9748  0.3647 -2.1207
 5682TIP3   OH238680   0.065   1.763   1.660 -0.4519  0.0107 -0.0467
 5682TIP3    H138681  -0.021   1.796   1.685 -0.3610  0.1498  0.0803
 5682TIP3    H238682   0.060   1.753   1.565 -0.7884 -0.5008  0.0202
 5683TIP3   OH238683   3.192   5.271   1.282  0.5681 -0.0927  0.0186
 5683TIP3    H138684   3.282   5.293   1.304  0.4608 -0.1099  0.4938
 5683TIP3    H238685   3.196   5.240   1.192  0.9958  0.1557 -0.0489
 5684TIP3   OH238686   3.451   0.712   1.481 -0.4226 -0.1140  0.2173
 5684TIP3    H138687   3.454   0.791   1.534 -0.5566 -1.2506  2.0288
 5684TIP3    H238688   3.543   0.692   1.461 -0.4569  1.4394 -1.8582
 5685TIP3   OH238689   1.345   3.683   1.445 -0.3906 -0.5210  0.3495
 5685TIP3    H138690   1.420   3.688   1.503 -0.1332 -1.1190  0.0755
 5685TIP3    H238691   1.308   3.772   1.446 -0.3229 -0.4959  1.3193
 5686TIP3   OH238692   5.756   4.785   2.586 -0.0736 -0.9267 -0.3332
 5686TIP3    H138693   5.790   4.790   2.496  4.1708 -0.0535  1.1085
 5686TIP3    H238694   5.732   4.875   2.608 -0.9835 -1.1181 -0.5073
 5687TIP3   OH238695   1.957   6.382   0.619  0.1534 -0.1978 -0.4740
 5687TIP3    H138696   1.963   6.476   0.606 -0.3007 -0.2147 -0.8127
 5687TIP3    H238697   1.955   6.371   0.714  0.5105  0.1125 -0.4277
 5688TIP3   OH238698   2.066   0.070   1.912  0.0036 -0.1714  0.1959
 5688TIP3    H138699   2.124   0.064   1.835  1.5672  0.0089  1.3142
 5688TIP3    H238700   2.074  -0.015   1.954  1.5468  0.6727  1.7578
 5689TIP3   OH238701   4.463   5.052   7.843 -0.2664 -0.6376  0.7462
 5689TIP3    H138702   4.434   5.011   7.761  2.5854 -0.4407 -0.4858
 5689TIP3    H238703   4.515   4.984   7.886  0.5648  0.1572  1.0161
 5690TIP3   OH238704   4.858   1.512   0.804 -0.2362 -0.2752  0.1335
 5690TIP3    H138705   4.871   1.545   0.893 -0.0636 -0.3668  0.1432
 5690TIP3    H238706   4.764   1.499   0.796 -0.3313  0.3736  0.0793
 5691TIP3   OH238707   6.463   3.502   1.841 -0.1464 -0.3247  0.4592
 5691TIP3    H138708   6.472   3.486   1.747 -1.9412  0.2468  0.1425
 5691TIP3    H238709   6.547   3.540   1.867  1.2806 -2.7414 -0.3661
 5692TIP3   OH238710   6.684   0.930   0.388  0.0752 -0.1916  0.2489
 5692TIP3    H138711   6.649   1.015   0.414 -0.3784 -0.2661 -0.1010
 5692TIP3    H238712   6.611   0.886   0.344  0.3134 -0.7452  0.3849
 5693TIP3   OH238713   0.594   1.135   7.390  0.0789  0.4975 -0.3160
 5693TIP3    H138714   0.571   1.133   7.482  0.2362  1.8171 -0.2405
 5693TIP3    H238715   0.654   1.208   7.381 -0.5258  0.8682 -1.5938
 5694TIP3   OH238716   3.610   5.492   8.196 -0.1854 -0.3747  0.1859
 5694TIP3    H138717   3.545   5.422   8.202  1.9321 -2.4685  0.9834
 5694TIP3    H238718   3.693   5.447   8.214  1.1869  2.6094  2.0963
 5695TIP3   OH238719   6.644   6.046   1.389 -0.3710  0.1137  0.8013
 5695TIP3    H138720   6.731   6.084   1.399  0.8048 -2.6543  2.1132
 5695TIP3    H238721   6.659   5.952   1.377 -3.1094 -0.1953 -1.2953
 5696TIP3   OH238722   6.868   3.280   1.091 -0.4156 -0.3015  0.1867
 5696TIP3    H138723   6.943   3.282   1.031 -1.5783 -0.9771 -1.3415
 5696TIP3    H238724   6.850   3.372   1.109  0.0138 -0.0918 -0.4141
 5697TIP3   OH238725   4.467   2.198   0.190  0.8780 -0.1880  0.2486
 5697TIP3    H138726   4.395   2.194   0.253  1.4900  1.6988  1.1297
 5697TIP3    H238727   4.470   2.289   0.163  0.4032 -0.9706 -2.8629
 5698TIP3   OH238728   2.222   5.013   1.803  0.4923  0.5326  0.1462
 5698TIP3    H138729   2.241   4.989   1.894  1.1118  0.5671  0.0250
 5698TIP3    H238730   2.281   5.086   1.784  1.6488 -0.6305 -0.8610
 5699TIP3   OH238731   3.374   6.019   8.233 -0.1349 -0.6474 -0.1830
 5699TIP3    H138732   3.402   5.932   8.259  0.6004  0.2380  2.2264
 5699TIP3    H238733   3.282   6.024   8.260  1.0337  0.8457  4.4242
 5700TIP3   OH238734   4.025   0.487   8.478  0.0465 -0.0560 -0.2872
 5700TIP3    H138735   4.115   0.457   8.470 -0.0252 -0.2226 -0.4821
 5700TIP3    H238736   4.032   0.577   8.511  0.2159 -0.6548  1.3697
 5701TIP3   OH238737   5.018   5.119   7.086  0.1897  0.6389  0.0835
 5701TIP3    H138738   4.995   5.072   7.007  0.9784  0.0134  0.2186
 5701TIP3    H238739   4.933   5.143   7.125 -0.2020  0.8665 -0.8764
 5702TIP3   OH238740   0.772   2.201   8.063 -0.9769  0.2814 -0.2117
 5702TIP3    H138741   0.836   2.130   8.059 -1.7238 -0.5815  1.8527
 5702TIP3    H238742   0.818   2.272   8.108  0.1544  1.6755 -3.2562
 5703TIP3   OH238743   0.595   6.239   8.211  0.7842 -0.5454 -0.5190
 5703TIP3    H138744   0.649   6.305   8.257  0.5088 -0.1716 -0.7240
 5703TIP3    H238745   0.591   6.270   8.121  0.5643 -0.7873 -0.5939
 5704TIP3   OH238746   4.918   5.649   7.487  0.0544  0.2566 -0.3673
 5704TIP3    H138747   4.979   5.642   7.413 -0.6964  0.0984 -0.9745
 5704TIP3    H238748   4.923   5.741   7.513 -0.2929  0.5014 -1.1503
 5705TIP3   OH238749   0.017   6.151   1.656 -0.4825 -0.5651  0.1251
 5705TIP3    H138750  -0.036   6.108   1.723 -1.1594  0.2393  0.1325
 5705TIP3    H238751   0.086   6.197   1.704 -0.6941 -0.3662  0.2402
 5706TIP3   OH238752   4.825   6.665   2.433  0.5499 -0.0294  0.0889
 5706TIP3    H138753   4.893   6.727   2.459 -0.8536  2.0468 -0.8551
 5706TIP3    H238754   4.770   6.714   2.372 -0.5655 -2.2977 -0.8755
 5707TIP3   OH238755   0.676   0.283   0.587 -0.2194  0.9523 -0.1341
 5707TIP3    H138756   0.652   0.220   0.519  1.0775  0.1283  0.1337
 5707TIP3    H238757   0.628   0.254   0.665  1.0997 -0.3462  0.2513
 5708TIP3   OH238758   1.122   5.638   7.727 -0.5575 -0.4803 -0.4506
 5708TIP3    H138759   1.159   5.592   7.652  0.3878 -0.7828  0.1785
 5708TIP3    H238760   1.048   5.584   7.754  0.5057 -1.6496  0.2454
 5709TIP3   OH238761   4.881   4.913   0.047  0.5525 -0.6308  0.1111
 5709TIP3    H138762   4.868   4.878   0.135 -1.2765  1.0272  0.5882
 5709TIP3    H238763   4.975   4.905   0.031  0.7497 -2.0572  1.7192
 5710TIP3   OH238764   6.777   4.921   1.006  0.2325 -0.3878  0.5376
 5710TIP3    H138765   6.788   4.828   0.984  2.1411 -0.8152  2.9260
 5710TIP3    H238766   6.863   4.950   1.034 -0.3821  2.0855  0.1196
 5711TIP3   OH238767   5.379   6.073   7.834  0.4048  0.1477 -0.8008
 5711TIP3    H138768   5.379   6.016   7.911 -0.4325  1.1834 -0.0134
 5711TIP3    H238769   5.310   6.038   7.778  0.4285 -0.0880 -0.6839
 5712TIP3   OH238770   2.682   6.213   2.075  0.1693 -0.4376 -0.4483
 5712TIP3    H138771   2.712   6.266   2.150  0.5684 -1.2846  0.0032
 5712TIP3    H238772   2.614   6.157   2.111  0.1736 -0.6579 -0.7847
 5713TIP3   OH238773   5.254   3.964   0.480 -0.0911 -0.9055  0.3271
 5713TIP3    H138774   5.264   3.869   0.475 -0.1898 -0.8961 -0.0958
 5713TIP3    H238775   5.190   3.985   0.412  0.3807 -0.4704  0.0088
 5714TIP3   OH238776   5.716   4.414   1.596 -0.0803  0.0163  0.1892
 5714TIP3    H138777   5.775   4.473   1.550  1.3376 -2.4009 -1.2980
 5714TIP3    H238778   5.689   4.463   1.673  0.5527  2.7738 -1.1974
 5715TIP3   OH238779   6.067   2.577   7.876  0.2270  0.8504  0.6949
 5715TIP3    H138780   6.081   2.670   7.858 -0.3016  0.7949 -0.0614
 5715TIP3    H238781   5.980   2.558   7.840  0.9204 -0.2679 -0.5205
 5716TIP3   OH238782   4.139   2.291   8.591  0.9035  0.3425 -0.3052
 5716TIP3    H138783   4.071   2.332   8.644  0.3896 -1.3395  0.3955
 5716TIP3    H238784   4.117   2.315   8.501 -0.6323 -0.1457 -0.0840
 5717TIP3   OH238785   5.664   5.052   2.631 -0.0769  0.4573  0.1838
 5717TIP3    H138786   5.605   5.050   2.706 -2.2492 -1.4874 -1.4322
 5717TIP3    H238787   5.614   5.098   2.563  0.4148 -0.8054 -1.0769
 5718TIP3   OH238788   1.649   5.278   1.473 -0.2245  0.0370 -0.0306
 5718TIP3    H138789   1.695   5.349   1.429 -0.2173  0.6486  0.9391
 5718TIP3    H238790   1.572   5.262   1.418  0.5344 -0.2473 -1.0658
 5719TIP3   OH238791   5.822   4.628   7.713  0.2442 -0.4209  0.1766
 5719TIP3    H138792   5.798   4.693   7.648  2.7330  1.4637  0.9689
 5719TIP3    H238793   5.761   4.642   7.785 -0.0170  0.2005 -0.1629
 5720TIP3   OH238794   3.435   5.108   6.473 -0.4495 -0.0045  0.6007
 5720TIP3    H138795   3.358   5.166   6.480 -0.8865 -0.2777 -1.2459
 5720TIP3    H238796   3.509   5.168   6.470 -0.8401  0.4588 -0.5301
 5721TIP3   OH238797   6.162   2.279   0.910 -0.0803  0.4696  0.3633
 5721TIP3    H138798   6.143   2.365   0.946 -2.2032  0.7925 -1.3401
 5721TIP3    H238799   6.081   2.230   0.921  0.3579 -0.5487 -0.7498
 5722TIP3   OH238800   3.261   1.743   0.298  0.1852 -0.5354  0.4639
 5722TIP3    H138801   3.279   1.656   0.334 -1.6555 -0.7161  1.0444
 5722TIP3    H238802   3.197   1.728   0.228  1.2565  0.1803 -0.7118
 5723TIP3   OH238803   0.112   1.366   0.790 -0.4034  0.0827  0.2028
 5723TIP3    H138804   0.092   1.403   0.876 -0.9679 -1.3903  0.7442
 5723TIP3    H238805   0.030   1.373   0.742  0.1871  1.8715 -0.6332
 5724TIP3   OH238806   1.886   3.232   6.819 -0.0485 -0.1417 -0.8398
 5724TIP3    H138807   1.967   3.196   6.856 -0.6200 -0.5030  0.1020
 5724TIP3    H238808   1.890   3.326   6.837 -0.4156 -0.3393  0.3774
 5725TIP3   OH238809   5.909   2.381   8.055 -0.3464  0.5921  0.5973
 5725TIP3    H138810   5.969   2.307   8.055 -0.6242  0.3637  0.4678
 5725TIP3    H238811   5.927   2.427   8.136 -0.3537  0.2312  0.8052
 5726TIP3   OH238812   6.707   3.158   2.577  0.8257 -0.3119 -0.2921
 5726TIP3    H138813   6.781   3.099   2.589  0.4588 -0.5261  1.1353
 5726TIP3    H238814   6.741   3.244   2.601  0.4729 -0.5191  1.0945
 5727TIP3   OH238815   6.015   5.956   1.415 -0.1747  0.9206 -0.1404
 5727TIP3    H138816   5.968   5.986   1.493  0.7370  0.0817  0.7585
 5727TIP3    H238817   6.107   5.953   1.442  0.1779  0.8158 -1.3115
 5728TIP3   OH238818   6.184   2.645   8.137 -0.0226 -0.1079 -0.2619
 5728TIP3    H138819   6.262   2.670   8.089 -0.7428 -0.3691 -1.6227
 5728TIP3    H238820   6.123   2.613   8.070 -0.6204 -1.6802  0.9460
 5729TIP3   OH238821   0.115   5.261   7.523 -0.5926  0.4005 -0.2208
 5729TIP3    H138822   0.132   5.263   7.429 -0.3533  0.9402 -0.1657
 5729TIP3    H238823   0.021   5.280   7.531 -0.5933  0.4510 -0.3451
 5730TIP3   OH238824   2.101   5.684   1.554 -0.0957  0.2374  0.5119
 5730TIP3    H138825   2.029   5.621   1.562 -1.2072  1.1027 -1.8628
 5730TIP3    H238826   2.149   5.656   1.477 -1.1154  2.6780 -1.1255
 5731TIP3   OH238827   6.883   4.100   6.501 -0.5459 -0.3576  0.2662
 5731TIP3    H138828   6.808   4.043   6.484 -2.8709  1.8859  2.2119
 5731TIP3    H238829   6.863   4.181   6.454  0.0780  0.6745  1.7054
 5732TIP3   OH238830   3.921   5.994   8.614  0.3504  0.2698  0.2215
 5732TIP3    H138831   3.964   6.044   8.544 -1.4248 -2.6392 -3.3398
 5732TIP3    H238832   3.983   5.923   8.633 -0.6253 -1.0171 -1.1915
 5733TIP3   OH238833   6.425   5.299   8.313  0.0216 -0.1909 -0.2054
 5733TIP3    H138834   6.366   5.251   8.371 -0.3408 -0.4805 -0.8065
 5733TIP3    H238835   6.444   5.380   8.360 -0.9233 -0.0516 -0.0373
 5734TIP3   OH238836   5.318   2.010   0.262 -0.0748  0.1385 -0.0514
 5734TIP3    H138837   5.352   1.920   0.261  1.1261  0.5372 -2.8175
 5734TIP3    H238838   5.381   2.058   0.316 -0.5927 -0.5760  1.2475
 5735TIP3   OH238839   5.714   2.099   0.356  0.3163  0.1495  0.3273
 5735TIP3    H138840   5.622   2.074   0.365  0.2471  0.5741  0.8573
 5735TIP3    H238841   5.748   2.041   0.288 -0.3874  0.1049  0.0053
 5736TIP3   OH238842   0.521   4.087   0.336 -0.2435 -0.3994 -0.4505
 5736TIP3    H138843   0.432   4.117   0.315 -0.6769 -2.1084 -1.2339
 5736TIP3    H238844   0.516   3.991   0.330  1.2377 -0.6256  1.2226
 5737TIP3   OH238845   4.465   3.027   2.291  0.3818  0.4908 -0.3554
 5737TIP3    H138846   4.439   2.967   2.221  3.1341 -0.9503 -0.3087
 5737TIP3    H238847   4.540   3.074   2.254 -0.8539  2.9984  0.1178
 5738TIP3   OH238848   6.435   5.900   0.108  0.3817  0.4804  0.1444
 5738TIP3    H138849   6.490   5.927   0.034 -0.6981  2.1558 -0.0838
 5738TIP3    H238850   6.462   5.957   0.180 -0.9635  1.2696  0.0555
 5739TIP3   OH238851   2.500   3.107   0.244  0.8064 -0.2957  0.1276
 5739TIP3    H138852   2.462   3.183   0.199 -0.6668 -0.6231  0.7552
 5739TIP3    H238853   2.575   3.143   0.291  1.8849  0.2035 -1.8844
 5740TIP3   OH238854   2.024   0.966   7.069  0.2847 -0.6390 -0.2656
 5740TIP3    H138855   1.972   1.043   7.046  2.1148  0.1481 -2.0920
 5740TIP3    H238856   1.997   0.945   7.158 -0.8414  1.6555  0.0152
 5741TIP3   OH238857   0.618   6.739   0.974 -0.1747  0.0961  0.3386
 5741TIP3    H138858   0.678   6.809   1.001 -0.4110 -0.0705  1.3320
 5741TIP3    H238859   0.649   6.662   1.022 -0.9709 -0.0705  0.5916
 5742TIP3   OH238860   0.533   1.914   2.034 -0.0648  0.6392  0.4800
 5742TIP3    H138861   0.446   1.954   2.031 -0.0295  0.6850 -0.0416
 5742TIP3    H238862   0.518   1.821   2.015  0.2021  0.9953 -1.8533
 5743TIP3   OH238863   5.318   6.046   1.023  0.4366 -0.4450 -0.1148
 5743TIP3    H138864   5.301   6.090   1.106 -3.2364 -1.1056 -0.3468
 5743TIP3    H238865   5.296   6.111   0.956 -1.2822 -1.3311 -0.4699
 5744TIP3   OH238866   4.327   1.322   7.893 -0.3617  0.5598 -0.2088
 5744TIP3    H138867   4.421   1.339   7.897 -0.1795 -0.2329 -1.0388
 5744TIP3    H238868   4.302   1.345   7.804 -1.3903  2.8351  0.5895
 5745TIP3   OH238869   2.115   2.367   0.116  0.4575 -0.1641  0.2500
 5745TIP3    H138870   2.197   2.395   0.076  0.7739 -1.0376  0.2718
 5745TIP3    H238871   2.058   2.444   0.110  0.6218 -0.1338 -1.5000
 5746TIP3   OH238872   0.183   3.045   0.531  0.3420 -0.5796 -0.4498
 5746TIP3    H138873   0.251   3.093   0.483  0.3228  1.4553  1.3631
 5746TIP3    H238874   0.207   3.057   0.623 -3.0845  1.3572  0.3635
 5747TIP3   OH238875   4.431   3.934   7.193 -0.3179  0.6101 -0.4765
 5747TIP3    H138876   4.420   3.886   7.275 -0.1891 -1.0100 -1.3545
 5747TIP3    H238877   4.524   3.953   7.188 -0.0681 -0.6284 -0.9221
 5748TIP3   OH238878   1.310   1.262   7.280 -0.4307  0.0114 -0.4229
 5748TIP3    H138879   1.308   1.321   7.355 -1.2513 -1.6624  0.9272
 5748TIP3    H238880   1.219   1.240   7.263 -0.2425  0.1633 -1.7761
 5749TIP3   OH238881   1.908   3.992   6.619  0.5956 -0.0776 -0.1790
 5749TIP3    H138882   1.828   4.026   6.579 -0.1920 -1.0213  0.5470
 5749TIP3    H238883   1.979   4.034   6.571 -0.3336  1.3010 -0.3890
 5750TIP3   OH238884   2.490   1.935   0.459 -0.0559 -0.5414  0.6639
 5750TIP3    H138885   2.554   1.870   0.488  0.1472 -0.1210  1.1726
 5750TIP3    H238886   2.543   2.011   0.434 -0.3139 -0.4374  0.4301
 5751TIP3   OH238887   3.929   6.089   0.356  0.1269  1.0006 -0.2203
 5751TIP3    H138888   3.892   6.146   0.424 -1.6887  0.9518 -1.1227
 5751TIP3    H238889   3.857   6.074   0.295  1.6780  1.0282 -2.1783
 5752TIP3   OH238890   3.803   3.942   1.098  0.1260 -0.0199 -0.2554
 5752TIP3    H138891   3.871   3.876   1.087 -0.5686 -0.5908 -1.4011
 5752TIP3    H238892   3.755   3.940   1.015 -0.7444  0.9802  0.2012
 5753TIP3   OH238893   6.731   2.920   1.691  0.0792 -0.2078  0.3589
 5753TIP3    H138894   6.770   2.912   1.604 -0.2460 -0.5308  0.2380
 5753TIP3    H238895   6.642   2.950   1.675  0.3110  0.6704  0.6425
 5754TIP3   OH238896   1.323   2.768   7.827  0.1274  0.6695  0.5625
 5754TIP3    H138897   1.329   2.725   7.741 -0.3176  0.5301  0.5950
 5754TIP3    H238898   1.412   2.768   7.860  0.2468  0.3945  0.2536
 5755TIP3   OH238899   3.293   0.269   7.579 -0.0766 -0.2552 -0.7410
 5755TIP3    H138900   3.305   0.304   7.491  1.0942  0.5023 -0.3017
 5755TIP3    H238901   3.313   0.175   7.569  0.5281 -0.0895 -1.2005
 5756TIP3   OH238902   1.726   3.322   1.071  0.4519 -0.1545 -0.3364
 5756TIP3    H138903   1.779   3.268   1.013 -0.1874 -1.5770  0.3504
 5756TIP3    H238904   1.644   3.336   1.024  0.8763  0.8606 -0.8109
 5757TIP3   OH238905   6.483   5.997   7.897 -0.4872  0.1147  0.3032
 5757TIP3    H138906   6.453   5.907   7.893  1.0768 -0.4060 -1.3595
 5757TIP3    H238907   6.461   6.034   7.811  0.4140  0.7600  0.3245
 5758TIP3   OH238908   1.599   1.869   6.930  0.0335  0.3883 -0.0921
 5758TIP3    H138909   1.587   1.785   6.974  1.6286  0.6973  1.0199
 5758TIP3    H238910   1.540   1.866   6.855 -0.7678 -1.2574  0.5701
 5759TIP3   OH238911   0.056   6.786   0.414 -0.2359  0.1594 -0.4168
 5759TIP3    H138912   0.081   6.851   0.481 -0.4976 -0.1204 -0.0420
 5759TIP3    H238913  -0.038   6.800   0.402 -1.0598 -2.3095  2.1005
 5760TIP3   OH238914   3.073   0.160   7.743 -0.3789  0.1177  0.2762
 5760TIP3    H138915   3.147   0.205   7.702 -0.4523 -1.2570 -1.4815
 5760TIP3    H238916   3.065   0.201   7.829  0.7926  2.0506 -0.4716
 5761TIP3   OH238917   2.815   3.116   1.501 -0.0236  0.8205  0.0807
 5761TIP3    H138918   2.843   3.063   1.426  0.0653  0.5872  0.2775
 5761TIP3    H238919   2.879   3.096   1.570  0.1884  1.4159  0.0639
 5762TIP3   OH238920   2.627   4.476   0.614 -0.3231 -0.7033  0.0137
 5762TIP3    H138921   2.663   4.390   0.591  0.2870 -0.7873  1.1835
 5762TIP3    H238922   2.674   4.500   0.694 -1.0853  0.3464  0.1579
 5763TIP3   OH238923   2.528   1.579   7.388  0.6273 -0.4513  0.2289
 5763TIP3    H138924   2.555   1.547   7.302 -1.3624 -1.7962  0.0306
 5763TIP3    H238925   2.444   1.622   7.373 -1.2611 -3.2562  1.8028
 5764TIP3   OH238926   1.286   3.555   6.621  0.3600  0.0017  0.0561
 5764TIP3    H138927   1.253   3.525   6.536  0.5233  0.0473 -0.0233
 5764TIP3    H238928   1.370   3.510   6.632 -0.6907 -1.8001  1.2391
 5765TIP3   OH238929   5.402   0.813   1.398  0.1072 -0.3809 -0.2025
 5765TIP3    H138930   5.479   0.827   1.454  1.4445  1.5534 -2.3087
 5765TIP3    H238931   5.374   0.724   1.417  0.5141  0.0904  3.3783
 5766TIP3   OH238932   4.535   6.191   7.591  0.1672  0.3379  0.1247
 5766TIP3    H138933   4.445   6.158   7.587  0.1850  0.1456  1.0773
 5766TIP3    H238934   4.541   6.234   7.677  1.1868 -0.2794  0.3855
 5767TIP3   OH238935   6.872   4.192   1.027 -0.2294  0.0947 -0.2449
 5767TIP3    H138936   6.809   4.125   1.053 -0.7573  1.2547  1.6641
 5767TIP3    H238937   6.907   4.225   1.109 -0.1502  2.3077 -1.0952
 5768TIP3   OH238938   1.373   4.436   8.431  0.2248  0.1377 -0.2392
 5768TIP3    H138939   1.443   4.497   8.453 -0.1964  0.2961  0.6940
 5768TIP3    H238940   1.352   4.392   8.513 -1.2038  0.5565 -0.3491
 5769TIP3   OH238941   3.026   3.766   7.306  0.2282  0.3395  0.4007
 5769TIP3    H138942   3.046   3.672   7.306 -0.5135  0.1682  1.2687
 5769TIP3    H238943   2.992   3.783   7.393 -0.5912  1.2230 -0.0754
 5770TIP3   OH238944   1.067   1.473   8.520  0.3810  0.4133 -0.2128
 5770TIP3    H138945   1.073   1.429   8.435 -0.3605  1.1506 -0.6653
 5770TIP3    H238946   1.097   1.408   8.583  0.2033 -0.4132 -0.9606
 5771TIP3   OH238947   3.092   5.985   7.622 -0.2336  0.6890 -0.2425
 5771TIP3    H138948   3.051   5.957   7.704 -0.3853 -3.3979 -1.4457
 5771TIP3    H238949   3.185   5.963   7.633 -0.0974  0.9491 -0.8457
 5772TIP3   OH238950   2.988   6.709   8.064  0.8056 -0.0449  0.0815
 5772TIP3    H138951   2.927   6.746   7.999  0.7578 -2.2819 -1.2641
 5772TIP3    H238952   3.073   6.745   8.039  0.3096  1.8994  1.0281
 5773TIP3   OH238953   6.865   2.163   8.229 -0.2309  0.4450 -0.7325
 5773TIP3    H138954   6.885   2.106   8.303 -2.5605  0.3012 -0.1114
 5773TIP3    H238955   6.849   2.103   8.156  0.1055  0.4717 -0.8285
 5774TIP3   OH238956   4.656   6.321   1.610  0.1278 -0.6541  0.3192
 5774TIP3    H138957   4.725   6.289   1.668 -1.5942 -0.7499  2.4500
 5774TIP3    H238958   4.608   6.242   1.583  0.4316 -0.5308 -0.6163
 5775TIP3   OH238959   2.636   2.311   8.260 -0.4763  0.1632 -0.1075
 5775TIP3    H138960   2.669   2.321   8.349 -0.1037 -0.0159 -0.2272
 5775TIP3    H238961   2.610   2.400   8.234  1.3007  0.5814 -0.5620
 5776TIP3   OH238962   5.965   3.568   7.030 -0.1461  0.3637 -0.6770
 5776TIP3    H138963   5.951   3.485   7.077 -1.0703  0.2718 -1.0930
 5776TIP3    H238964   6.057   3.590   7.047  0.2619 -1.0193 -1.0062
 5777TIP3   OH238965   1.959   1.873   0.016  0.1328  0.2224 -0.2086
 5777TIP3    H138966   1.973   1.895   0.108 -0.1882 -0.3515 -0.0158
 5777TIP3    H238967   2.032   1.912  -0.030 -0.4473  1.7513  0.1112
 5778TIP3   OH238968   4.120   0.056   1.113  0.1433  0.1642 -0.3096
 5778TIP3    H138969   4.118   0.146   1.081  1.6808  0.3982  0.1430
 5778TIP3    H238970   4.212   0.041   1.135 -0.4777 -0.6303  2.0814
 5779TIP3   OH238971   5.947   5.870   6.570 -0.7222  0.1395 -0.0146
 5779TIP3    H138972   6.029   5.834   6.604 -0.7597  0.9642  0.9893
 5779TIP3    H238973   5.918   5.806   6.504  0.1506 -0.7142  0.4092
 5780TIP3   OH238974   2.964   0.772   7.133 -0.2141  0.0229  0.2143
 5780TIP3    H138975   2.922   0.707   7.189  1.1258 -1.2953 -0.2396
 5780TIP3    H238976   2.973   0.729   7.048 -0.1742  1.1664 -0.3818
 5781TIP3   OH238977   3.906   5.505   7.753  0.4657  0.1309 -0.4143
 5781TIP3    H138978   3.842   5.537   7.689  0.3883  0.4224 -0.1959
 5781TIP3    H238979   3.854   5.491   7.833  0.7317  0.6914 -0.1357
 5782TIP3   OH238980   6.437   2.931   1.681 -0.0577  0.0690 -0.1204
 5782TIP3    H138981   6.467   2.841   1.693  0.1587  0.3020  1.1967
 5782TIP3    H238982   6.353   2.923   1.635  0.7018 -0.7083 -1.4240
 5783TIP3   OH238983   2.449   6.018   0.561  0.1372 -0.3347 -0.2137
 5783TIP3    H138984   2.456   5.923   0.552  0.0886 -0.2560 -1.1558
 5783TIP3    H238985   2.361   6.039   0.529  0.8709  0.2325 -1.9993
 5784TIP3   OH238986   2.821   6.179   2.429  0.3358  0.4605 -0.2825
 5784TIP3    H138987   2.888   6.192   2.497 -0.2420  0.4230  0.3041
 5784TIP3    H238988   2.755   6.245   2.449  0.3322  0.6885 -1.0363
 5785TIP3   OH238989   1.581   5.316   7.342  0.3094 -0.4997 -0.2247
 5785TIP3    H138990   1.539   5.350   7.262 -1.2012 -1.7494 -0.0233
 5785TIP3    H238991   1.642   5.250   7.310 -1.4537 -2.1716 -0.3571
 5786TIP3   OH238992   1.806   3.225   0.500 -0.1258 -0.0548  0.0164
 5786TIP3    H138993   1.718   3.211   0.465 -1.0518 -1.1196  2.5804
 5786TIP3    H238994   1.793   3.280   0.577  1.7854  1.8712 -0.9302
 5787TIP3   OH238995   6.109   0.612   2.319 -0.9943  0.1205  0.0911
 5787TIP3    H138996   6.098   0.525   2.358  2.2994  0.0815  1.2684
 5787TIP3    H238997   6.075   0.672   2.385  0.9292 -0.1423  1.4010
 5788TIP3   OH238998   4.246   0.678   1.435 -0.0978  0.3397 -0.2901
 5788TIP3    H138999   4.204   0.594   1.418  1.5721 -0.1114 -2.7330
 5788TIP3    H239000   4.332   0.670   1.394  1.5612  1.9851  2.5644
 5789TIP3   OH239001   0.367   0.034   1.295 -0.2828  0.3349  0.3622
 5789TIP3    H139002   0.368   0.122   1.258 -1.3780 -0.2270 -1.0817
 5789TIP3    H239003   0.290   0.032   1.352 -0.1588  0.3549  0.5328
 5790TIP3   OH239004   0.854   0.580   2.301  0.5196 -0.0071  0.2131
 5790TIP3    H139005   0.857   0.546   2.212  0.5324 -0.8461  0.5233
 5790TIP3    H239006   0.764   0.611   2.311  0.4226 -0.2175  0.0168
 5791TIP3   OH239007   2.487   4.988   0.177  0.3564  0.0871 -0.5791
 5791TIP3    H139008   2.512   4.979   0.270 -1.1712 -0.6991 -0.2212
 5791TIP3    H239009   2.449   4.903   0.154 -0.1900  0.6105 -1.6553
 5792TIP3   OH239010   6.610   4.562   7.550  0.0637 -0.3614  0.2843
 5792TIP3    H139011   6.670   4.512   7.603  0.2569  0.0675  0.4768
 5792TIP3    H239012   6.549   4.498   7.514  0.7378 -0.8215 -0.0534
 5793TIP3   OH239013   2.874   1.971   0.657  0.6689 -0.6998  0.7409
 5793TIP3    H139014   2.806   2.021   0.611  0.8406 -0.1502  1.0692
 5793TIP3    H239015   2.934   1.942   0.588  0.6457 -0.3214  0.5604
 5794TIP3   OH239016   1.205   0.936   1.686 -0.0338 -0.5252  0.4545
 5794TIP3    H139017   1.137   0.898   1.741  0.0359  3.0384  3.4097
 5794TIP3    H239018   1.286   0.921   1.735  0.5390 -0.1415 -0.3552
 5795TIP3   OH239019   4.057   1.406   0.301  0.4816  0.1502  1.3837
 5795TIP3    H139020   3.973   1.421   0.258  0.4815  0.4787  1.4939
 5795TIP3    H239021   4.119   1.392   0.229  0.2369 -0.6289  1.3163
 5796TIP3   OH239022   6.635   5.187   1.680 -0.2366 -0.3356 -0.0146
 5796TIP3    H139023   6.544   5.162   1.695 -0.0070 -0.5867  1.0397
 5796TIP3    H239024   6.645   5.269   1.729  0.0778 -0.2585 -0.2085
 5797TIP3   OH239025   0.623   5.096   0.494  0.0922  0.1051 -0.3284
 5797TIP3    H139026   0.553   5.032   0.500  2.6693 -2.8799  0.2931
 5797TIP3    H239027   0.639   5.123   0.585  1.0958 -0.8786 -0.1913
 5798TIP3   OH239028   3.418   4.341   1.194  0.1415 -0.1591 -0.0218
 5798TIP3    H139029   3.328   4.309   1.206 -0.2744  0.5028 -1.1679
 5798TIP3    H239030   3.446   4.368   1.282 -1.3170  0.9571  0.1448
 5799TIP3   OH239031   2.713   5.557   6.401  0.1730  0.3681 -0.2625
 5799TIP3    H139032   2.678   5.645   6.414  1.2531  0.8419 -0.4829
 5799TIP3    H239033   2.674   5.505   6.472 -0.6911  0.9528 -0.3013
 5800TIP3   OH239034   1.505   4.154   8.631 -0.3360  0.4664  0.7025
 5800TIP3    H139035   1.413   4.175   8.614 -0.2966  1.5500  1.7113
 5800TIP3    H239036   1.518   4.174   8.723  0.4090 -1.6766  1.1195
 5801TIP3   OH239037   4.466   3.097   8.132  0.3426  0.2373  0.1681
 5801TIP3    H139038   4.422   3.065   8.211  0.9565 -0.3850  0.2730
 5801TIP3    H239039   4.550   3.052   8.132  0.3176  0.1711 -0.8955
 5802TIP3   OH239040   0.695   2.974   1.343  0.6147  0.4913  0.2152
 5802TIP3    H139041   0.645   2.993   1.422 -0.5229 -0.1951 -0.3165
 5802TIP3    H239042   0.720   2.882   1.352  0.8042  0.5176 -0.0419
 5803TIP3   OH239043   1.528   3.712   7.318  0.5292 -0.9238  0.6156
 5803TIP3    H139044   1.570   3.792   7.286  0.5453 -0.5679  1.4922
 5803TIP3    H239045   1.592   3.673   7.378 -0.4375 -0.2394  2.1659
 5804TIP3   OH239046   6.836   5.381   1.931  0.0546  0.8738  0.6634
 5804TIP3    H139047   6.899   5.400   2.000 -0.1759  0.4012  1.0088
 5804TIP3    H239048   6.832   5.461   1.879  0.3004  1.2002  1.1450
 5805TIP3   OH239049   2.446   2.586   1.914  0.7860 -0.2668  0.6169
 5805TIP3    H139050   2.505   2.646   1.959  1.3080 -0.9456  0.8382
 5805TIP3    H239051   2.374   2.572   1.976 -0.6201  2.0261 -0.3481
 5806TIP3   OH239052   1.708   1.643   6.738  0.0921 -0.2847 -0.4436
 5806TIP3    H139053   1.748   1.720   6.698  0.1879 -0.7927 -1.3595
 5806TIP3    H239054   1.769   1.616   6.806  0.9706 -0.6298 -1.3499
 5807TIP3   OH239055   5.504   1.974   0.485  0.9849 -0.6236 -0.2436
 5807TIP3    H139056   5.567   1.961   0.556  0.9484 -0.0242 -0.1042
 5807TIP3    H239057   5.435   1.911   0.502  1.0246 -0.5488  0.1962
 5808TIP3   OH239058   2.301   3.797   7.740  0.1449 -0.1956 -0.3851
 5808TIP3    H139059   2.337   3.782   7.827 -0.4877 -1.0670 -0.2559
 5808TIP3    H239060   2.341   3.729   7.686  0.4033  0.2370 -0.7454
 5809TIP3   OH239061   0.068   6.626   1.378 -0.0204 -0.1350 -0.0755
 5809TIP3    H139062   0.020   6.645   1.297 -1.8218  0.5776  1.0934
 5809TIP3    H239063   0.103   6.711   1.406 -1.9861  0.2900  1.3958
 5810TIP3   OH239064   6.256   2.940   2.453  0.1712 -0.1419  0.4501
 5810TIP3    H139065   6.244   2.850   2.486  2.8157 -0.5522  0.4911
 5810TIP3    H239066   6.193   2.948   2.382 -1.0538 -1.5530  1.3155
 5811TIP3   OH239067   3.713   2.020   0.305 -0.2630 -0.2285 -0.5137
 5811TIP3    H139068   3.723   1.971   0.387  0.9675  2.3743  1.0157
 5811TIP3    H239069   3.622   2.050   0.306 -0.0031  0.6135  0.4700
 5812TIP3   OH239070   2.778   6.592   7.176 -0.7236 -0.0196  0.6655
 5812TIP3    H139071   2.859   6.635   7.204  0.8388 -2.3967  0.0831
 5812TIP3    H239072   2.736   6.657   7.119 -0.1149  1.9034  2.2881
 5813TIP3   OH239073   0.144   4.972   0.494  0.1302  0.3082  0.1531
 5813TIP3    H139074   0.087   4.911   0.541 -1.2154 -0.2124 -2.0141
 5813TIP3    H239075   0.121   4.960   0.402  4.1910 -0.3744 -0.9694
 5814TIP3   OH239076   4.845   5.604   6.656 -0.3964 -0.3139 -0.3409
 5814TIP3    H139077   4.853   5.514   6.687 -1.3427  0.1237  1.2903
 5814TIP3    H239078   4.928   5.621   6.611  0.9243 -1.1548  1.6157
 5815TIP3   OH239079   2.714   0.329   6.918 -0.0397  0.3618 -0.4728
 5815TIP3    H139080   2.793   0.285   6.888 -0.7195 -0.4616 -1.1088
 5815TIP3    H239081   2.647   0.305   6.854 -1.2589 -0.4994  1.0493
 5816TIP3   OH239082   1.674   6.072   1.582  0.1689 -0.1728 -0.3497
 5816TIP3    H139083   1.755   6.042   1.623 -0.6831 -3.7076 -0.9340
 5816TIP3    H239084   1.608   6.068   1.651 -0.2611 -1.2605 -0.7951
 5817TIP3   OH239085   2.992   3.066   1.025 -0.0224 -0.1194  0.0925
 5817TIP3    H139086   3.068   3.124   1.023  0.3050 -0.5377 -1.0963
 5817TIP3    H239087   2.935   3.099   0.955 -0.9140  0.1529  0.9327
 5818TIP3   OH239088   5.245   0.968   1.612 -0.4946 -0.2713  0.3577
 5818TIP3    H139089   5.288   0.993   1.694  1.3992 -1.3771 -0.2299
 5818TIP3    H239090   5.314   0.927   1.561 -0.8045  2.8605 -3.0095
 5819TIP3   OH239091   1.259   6.043   1.242  0.2941 -0.4620  0.3143
 5819TIP3    H139092   1.285   5.966   1.192  1.5869  0.2056 -0.0702
 5819TIP3    H239093   1.227   6.008   1.325 -0.7045 -1.5018 -0.4767
 5820TIP3   OH239094   1.889   3.898   1.289  0.4227  0.3560  0.5362
 5820TIP3    H139095   1.965   3.878   1.235  0.2610  0.7933  0.1420
 5820TIP3    H239096   1.827   3.938   1.229 -0.3241 -0.4609  0.7456
 5821TIP3   OH239097   5.907   3.583   6.048 -0.3302 -0.1059  0.2319
 5821TIP3    H139098   5.886   3.597   6.141 -1.0770 -0.4681  0.1283
 5821TIP3    H239099   5.887   3.666   6.006  0.9547  0.3759  0.5412
 5822TIP3   OH239100   2.293   4.823   0.427  0.0875 -0.0279  0.3983
 5822TIP3    H139101   2.376   4.868   0.443  0.0117 -0.1696  1.2358
 5822TIP3    H239102   2.288   4.757   0.497 -0.7829  0.0555  0.4271
 5823TIP3   OH239103   6.556   3.166   6.928  0.2301  0.1375  0.2791
 5823TIP3    H139104   6.651   3.153   6.932  0.0588 -1.0357  1.0254
 5823TIP3    H239105   6.521   3.079   6.907 -0.7488  0.2701  1.2907
 5824TIP3   OH239106   3.179   3.348   1.104 -0.2251  0.0127  0.2456
 5824TIP3    H139107   3.241   3.418   1.122 -0.5425  1.0400 -2.2123
 5824TIP3    H239108   3.168   3.350   1.009 -0.8001 -2.9347  0.1504
 5825TIP3   OH239109   4.140   0.611   1.132  0.3900  0.0675 -0.0450
 5825TIP3    H139110   4.160   0.666   1.056  0.0106 -0.6827 -0.7008
 5825TIP3    H239111   4.045   0.611   1.138  0.4228  0.2944  0.5680
 5826TIP3   OH239112   0.338   3.872   7.805 -0.3442 -0.8172  0.4565
 5826TIP3    H139113   0.318   3.801   7.866 -0.8211 -0.9529  0.1486
 5826TIP3    H239114   0.326   3.952   7.857 -0.8986 -0.9256  0.5032
 5827TIP3   OH239115   1.675   1.478   8.652 -0.5468  0.4498 -0.1184
 5827TIP3    H139116   1.719   1.467   8.737  1.3561  0.2992 -1.0781
 5827TIP3    H239117   1.665   1.573   8.643  1.4890  0.6423 -0.7703
 5828TIP3   OH239118   2.397   1.331   1.581 -0.1859 -0.5556  0.3478
 5828TIP3    H139119   2.330   1.388   1.620 -0.2653  0.0607 -0.6827
 5828TIP3    H239120   2.357   1.299   1.501  0.4585 -0.8330  0.1346
 5829TIP3   OH239121   3.531   3.623   1.753  0.2527  0.0836  0.2445
 5829TIP3    H139122   3.479   3.552   1.791  1.1485  0.0412  1.4657
 5829TIP3    H239123   3.489   3.703   1.786 -0.0879  0.1033 -0.2239
 5830TIP3   OH239124   4.978   4.775   1.618  0.2565 -0.6516  0.2569
 5830TIP3    H139125   5.058   4.791   1.668 -0.3180  0.1565  0.9514
 5830TIP3    H239126   5.008   4.760   1.529  1.0727  1.8064  0.0350
 5831TIP3   OH239127   6.739   0.728   1.703 -0.4623 -0.2716 -0.0251
 5831TIP3    H139128   6.785   0.664   1.758 -1.9226 -0.2089  1.3299
 5831TIP3    H239129   6.688   0.780   1.765  1.0960  2.6352 -1.0020
 5832TIP3   OH239130   1.274   1.081   2.060 -0.2682  0.1494 -0.1026
 5832TIP3    H139131   1.297   1.009   2.000 -1.0760  1.1837 -1.7332
 5832TIP3    H239132   1.207   1.044   2.118  0.2225 -0.7586 -0.0936
 5833TIP3   OH239133   5.012   1.344   8.140 -0.6013 -0.2234  0.0139
 5833TIP3    H139134   5.061   1.332   8.221 -0.9238  0.5724  0.3449
 5833TIP3    H239135   5.070   1.395   8.084  0.2691 -2.1501 -0.9042
 5834TIP3   OH239136   3.594   6.763   7.304 -0.0084 -0.0443  0.6532
 5834TIP3    H139137   3.655   6.714   7.358 -0.7072 -1.4642  0.1906
 5834TIP3    H239138   3.614   6.855   7.323  2.6931 -0.4383  0.0316
 5835TIP3   OH239139   1.779   1.695   7.870 -0.1849 -0.1260  0.0239
 5835TIP3    H139140   1.856   1.639   7.870  0.4209  0.6718 -0.3390
 5835TIP3    H239141   1.761   1.710   7.777  0.4263  1.2533  0.0986
 5836TIP3   OH239142   0.762   0.437   2.067 -0.6868  0.0530 -0.3160
 5836TIP3    H139143   0.674   0.439   2.105 -1.2489  0.0488 -1.5641
 5836TIP3    H239144   0.747   0.436   1.972  0.6695  0.4829 -0.5548
 5837TIP3   OH239145   2.938   4.847   2.537 -0.4789  0.4318 -0.0957
 5837TIP3    H139146   2.949   4.784   2.465  0.5401  1.1590 -0.6113
 5837TIP3    H239147   2.848   4.877   2.529 -0.4229  0.4018 -1.0043
 5838TIP3   OH239148   3.647   0.424   0.569 -0.3937 -0.1004  0.1473
 5838TIP3    H139149   3.661   0.394   0.479 -0.1104 -1.0163  0.4765
 5838TIP3    H239150   3.589   0.358   0.607 -0.9986  0.6039  0.4650
 5839TIP3   OH239151   5.806   2.597   7.746 -0.0494  0.1709  0.3764
 5839TIP3    H139152   5.742   2.541   7.790  0.0565  0.8753  1.4788
 5839TIP3    H239153   5.765   2.683   7.743  0.6264  0.5130  0.6393
 5840TIP3   OH239154   2.447   4.665   8.422 -0.3840 -0.0644  0.3095
 5840TIP3    H139155   2.418   4.636   8.336 -0.0877 -0.6241  0.3970
 5840TIP3    H239156   2.490   4.589   8.460 -1.0769 -0.0173  1.2109
 5841TIP3   OH239157   1.499   1.073   0.534 -0.1959  0.3631  0.0515
 5841TIP3    H139158   1.439   1.035   0.470 -2.1466  1.2540  1.2345
 5841TIP3    H239159   1.508   1.006   0.602 -0.4572  0.5071  0.2300
 5842TIP3   OH239160   6.316   2.745   6.838 -0.3798  0.1412 -0.6787
 5842TIP3    H139161   6.308   2.770   6.746  0.6854  0.2147 -0.7664
 5842TIP3    H239162   6.347   2.654   6.835 -2.1658 -0.5180 -0.3681
 5843TIP3   OH239163   5.483   0.193   7.031  0.0973 -0.4147 -0.0941
 5843TIP3    H139164   5.463   0.232   7.116 -0.5846  0.4875 -0.6382
 5843TIP3    H239165   5.578   0.180   7.031 -0.0272 -1.4952  1.2265
 5844TIP3   OH239166   4.035   2.362   2.742  0.2100 -0.8166  0.5128
 5844TIP3    H139167   4.019   2.271   2.766  0.0767 -0.9791 -0.1819
 5844TIP3    H239168   3.969   2.381   2.676  0.0896 -0.1441  0.8233
 5845TIP3   OH239169   1.026   1.728   2.213  0.3715  0.1575  0.6256
 5845TIP3    H139170   1.053   1.789   2.281 -0.5199  0.5416  0.6570
 5845TIP3    H239171   0.960   1.776   2.163  0.8501 -0.1985 -0.3753
 5846TIP3   OH239172   6.000   5.048   7.072  0.1529 -0.5572 -0.3459
 5846TIP3    H139173   6.057   5.109   7.026 -2.1797  1.1125 -1.1698
 5846TIP3    H239174   5.976   4.983   7.006 -1.7734  0.8316 -1.0665
 5847TIP3   OH239175   4.726   3.950   6.841  0.1247  0.2708 -0.0354
 5847TIP3    H139176   4.749   3.859   6.820 -0.2788  0.1150  0.1621
 5847TIP3    H239177   4.749   3.959   6.933 -0.4697  0.1445  0.1362
 5848TIP3   OH239178   6.832   0.107   7.742 -0.5961 -0.5026 -0.6388
 5848TIP3    H139179   6.755   0.163   7.738  1.0503  1.8991 -0.4453
 5848TIP3    H239180   6.862   0.112   7.833  0.9566  0.3375 -1.1582
 5849TIP3   OH239181   6.362   1.205   0.107  0.5089  0.3247 -0.3491
 5849TIP3    H139182   6.323   1.268   0.046 -0.0771  0.1625 -0.1507
 5849TIP3    H239183   6.293   1.188   0.171  0.4867 -0.8588 -0.6484
 5850TIP3   OH239184   5.343   0.789   0.471  0.8953  0.3969  0.8586
 5850TIP3    H139185   5.312   0.868   0.425  0.9302 -0.3354 -0.4907
 5850TIP3    H239186   5.271   0.765   0.529  0.5521  0.9603  0.6750
 5851TIP3   OH239187   4.671   5.484   7.082 -0.3481  0.4563 -0.6485
 5851TIP3    H139188   4.747   5.531   7.048 -0.6216  0.5705 -1.1178
 5851TIP3    H239189   4.603   5.551   7.088 -1.0184 -0.0382 -2.1963
 5852TIP3   OH239190   2.833   5.722   7.226 -0.2549  0.3508  0.0935
 5852TIP3    H139191   2.786   5.763   7.299  1.3541 -0.3840  1.5998
 5852TIP3    H239192   2.887   5.792   7.190 -2.1924  1.1296 -1.4716
 5853TIP3   OH239193   4.258   6.168   0.982 -0.1915  0.2249 -0.0947
 5853TIP3    H139194   4.265   6.216   0.900 -1.5317  1.8646  0.6838
 5853TIP3    H239195   4.290   6.229   1.048  0.2221 -0.8177  0.6867
 5854TIP3   OH239196   3.867   6.656   2.703  0.0323 -0.6337  0.0707
 5854TIP3    H139197   3.950   6.661   2.751  0.8674 -1.3022 -1.2416
 5854TIP3    H239198   3.810   6.603   2.759  0.8532 -1.0769  0.5109
 5855TIP3   OH239199   0.423   4.341   2.353 -0.2247 -0.0834  0.2020
 5855TIP3    H139200   0.431   4.435   2.370  0.2870  0.2071 -1.4315
 5855TIP3    H239201   0.344   4.333   2.300 -0.3089 -0.5852  0.3962
 5856TIP3   OH239202   0.134   3.735   0.608 -0.2034 -1.1046 -0.6007
 5856TIP3    H139203   0.041   3.718   0.594 -0.5887 -1.2583  1.7123
 5856TIP3    H239204   0.152   3.814   0.558 -1.2898 -1.7019 -1.9947
 5857TIP3   OH239205   4.345   4.886   0.562  0.4657 -0.3433 -0.2132
 5857TIP3    H139206   4.341   4.908   0.655  0.6480  1.3007 -0.5680
 5857TIP3    H239207   4.418   4.938   0.527 -0.2407 -0.1473 -1.4718
 5858TIP3   OH239208   3.267   3.447   7.517 -0.1981 -0.4340  0.2283
 5858TIP3    H139209   3.294   3.360   7.487 -2.8977 -2.4042  2.9007
 5858TIP3    H239210   3.188   3.465   7.467  0.3810  0.5877 -0.3523
 5859TIP3   OH239211   2.724   0.913   8.222  0.5684 -0.1419  0.1442
 5859TIP3    H139212   2.736   0.821   8.200  1.6907 -0.1233  0.6101
 5859TIP3    H239213   2.805   0.955   8.194  0.9398  0.3256  1.8309
 5860TIP3   OH239214   3.439   0.672   3.143  0.5685  0.1478 -0.1408
 5860TIP3    H139215   3.412   0.670   3.235 -1.8108  0.6415 -0.7820
 5860TIP3    H239216   3.480   0.758   3.132  1.6931 -0.2611  0.6334
 5861TIP3   OH239217   5.354   5.315   8.020  0.6034 -0.0344  0.0335
 5861TIP3    H139218   5.448   5.327   8.032  0.5581  0.3084  0.0489
 5861TIP3    H239219   5.346   5.232   7.973  0.9235  0.0786 -0.2173
 5862TIP3   OH239220   0.832   5.492   1.498  0.2366  0.7071  0.3097
 5862TIP3    H139221   0.791   5.578   1.501 -0.7002  0.4515 -2.3423
 5862TIP3    H239222   0.846   5.475   1.404  2.3317 -1.1481  0.8584
 5863TIP3   OH239223   1.174   6.870   2.065  0.3135  0.2332  0.1046
 5863TIP3    H139224   1.174   6.952   2.114  0.9769 -0.4093  1.2342
 5863TIP3    H239225   1.254   6.826   2.094  0.5571 -0.3163 -1.3441
 5864TIP3   OH239226   0.219   4.138   7.911 -0.4786 -0.1357 -0.0621
 5864TIP3    H139227   0.282   4.191   7.959  0.8843 -1.7685  0.0175
 5864TIP3    H239228   0.211   4.182   7.826 -0.9031  1.2727  0.6648
 5865TIP3   OH239229   6.759   1.276   6.956 -0.2871  0.1061  0.0392
 5865TIP3    H139230   6.844   1.318   6.941 -0.1829 -0.2832 -0.4799
 5865TIP3    H239231   6.763   1.242   7.045  0.0175  0.2761  0.0896
 5866TIP3   OH239232   6.285   3.183   7.061 -0.2164 -0.4377 -0.3961
 5866TIP3    H139233   6.261   3.094   7.085 -1.8833  0.4758  1.5866
 5866TIP3    H239234   6.381   3.183   7.062 -0.1996 -1.9617  0.6067
 5867TIP3   OH239235   1.250   4.876   2.251 -0.2306 -0.1472  0.3221
 5867TIP3    H139236   1.303   4.834   2.319 -0.4930  0.6114  1.0205
 5867TIP3    H239237   1.183   4.924   2.300  0.0061  0.9912 -0.4358
 5868TIP3   OH239238   1.112   1.606   6.223 -0.3704 -0.3232 -0.1770
 5868TIP3    H139239   1.021   1.575   6.217 -0.1226 -0.9146 -1.0099
 5868TIP3    H239240   1.155   1.569   6.146  0.9862 -1.4099  1.0544
 5869TIP3   OH239241   6.238   5.532   2.993 -0.1414 -0.4799  0.1410
 5869TIP3    H139242   6.144   5.514   2.993 -0.2155 -0.2145 -1.2186
 5869TIP3    H239243   6.279   5.451   3.023 -0.8174 -0.4664  1.1334
 5870TIP3   OH239244   6.148   4.005   1.181 -0.1211 -0.4867 -0.5449
 5870TIP3    H139245   6.056   3.977   1.181  0.5395 -2.9188 -1.2277
 5870TIP3    H239246   6.181   3.980   1.094  1.1924  0.3315 -0.3117
 5871TIP3   OH239247   5.895   3.342   7.152  0.5461  0.1413 -0.6850
 5871TIP3    H139248   5.886   3.329   7.246 -1.5285 -0.6630 -0.9413
 5871TIP3    H239249   5.864   3.260   7.113  0.8889  0.6411 -2.0959
 5872TIP3   OH239250   6.121   5.353   7.753  0.2212 -0.0068 -0.2753
 5872TIP3    H139251   6.039   5.354   7.703  0.5811 -0.3011 -0.8866
 5872TIP3    H239252   6.114   5.276   7.810  0.2682 -0.3063 -0.6686
 5873TIP3   OH239253   1.885   3.274   2.701  0.1358 -0.0619 -0.0405
 5873TIP3    H139254   1.895   3.314   2.788  0.9799  1.4030 -0.7648
 5873TIP3    H239255   1.796   3.296   2.674 -0.6410 -1.7408  0.9968
 5874TIP3   OH239256   4.949   3.085   1.486 -0.6146  0.3384 -0.1911
 5874TIP3    H139257   4.890   3.136   1.431  0.2199  1.0675 -0.4217
 5874TIP3    H239258   4.905   3.000   1.495 -1.5315  0.7517 -0.6322
 5875TIP3   OH239259   4.143   3.999   8.045 -0.0926 -0.1920  0.2689
 5875TIP3    H139260   4.135   3.989   8.140  0.1811 -1.2588  0.1992
 5875TIP3    H239261   4.230   4.036   8.031 -0.8371  1.7560  0.5092
 5876TIP3   OH239262   1.734   3.105   6.607  0.7163  0.3495  0.2485
 5876TIP3    H139263   1.780   3.141   6.683 -0.1850  1.1889  0.4203
 5876TIP3    H239264   1.730   3.178   6.545 -0.1383  0.2201  0.1382
 5877TIP3   OH239265   2.730   1.162   7.965 -0.6282 -0.3047  0.4191
 5877TIP3    H139266   2.704   1.086   7.913 -0.4108 -0.1285  0.0418
 5877TIP3    H239267   2.688   1.236   7.920  1.0442  0.0707 -0.6136
 5878TIP3   OH239268   0.077   5.309   7.263 -0.1242 -0.3207 -0.0399
 5878TIP3    H139269  -0.009   5.325   7.224  1.0650 -0.9968 -3.2288
 5878TIP3    H239270   0.124   5.392   7.253  0.2331 -0.5287 -0.1133
 5879TIP3   OH239271   6.539   2.689   7.120  0.5378 -0.4927 -0.0759
 5879TIP3    H139272   6.467   2.732   7.165  0.1173 -1.1276 -0.1305
 5879TIP3    H239273   6.540   2.729   7.032 -0.4298 -1.2191 -0.4341
 5880TIP3   OH239274   2.798   2.430   6.936 -0.0394  0.7456 -0.5890
 5880TIP3    H139275   2.889   2.403   6.950 -0.6272 -0.5098  1.0398
 5880TIP3    H239276   2.747   2.351   6.948 -1.4409  1.6262 -0.5218
 5881TIP3   OH239277   1.319   0.510   2.595 -0.0130 -0.3483  0.1975
 5881TIP3    H139278   1.256   0.574   2.561 -0.5282 -1.0399 -0.1919
 5881TIP3    H239279   1.349   0.547   2.678  1.0547  1.2510 -0.8417
 5882TIP3   OH239280   0.977   3.434   1.411 -0.5553  0.5580 -0.4208
 5882TIP3    H139281   0.931   3.511   1.444 -0.4020  0.2627  0.5136
 5882TIP3    H239282   0.910   3.365   1.413 -0.4276  0.4377 -0.3138
 5883TIP3   OH239283   5.341   1.012   1.873  0.1437  0.3162  0.2793
 5883TIP3    H139284   5.293   1.061   1.940 -0.3221  1.7669 -1.0378
 5883TIP3    H239285   5.416   1.067   1.852  0.1617 -0.0016 -0.5255
 5884TIP3   OH239286   3.072   6.062   1.288 -0.1904 -0.6111  0.1392
 5884TIP3    H139287   3.151   6.008   1.280  0.6675  0.6240 -0.0678
 5884TIP3    H239288   3.008   6.020   1.232  1.3325  0.0922 -2.2866
 5885TIP3   OH239289   3.163   3.443   7.982  0.6744 -0.2928  0.2221
 5885TIP3    H139290   3.233   3.469   8.042 -0.1149 -0.5651  1.2760
 5885TIP3    H239291   3.205   3.443   7.896  2.0090 -0.6022  0.8455
 5886TIP3   OH239292   0.679   0.261   1.858 -0.1207 -0.0704 -0.1509
 5886TIP3    H139293   0.766   0.248   1.818 -0.0882  1.9493 -0.8673
 5886TIP3    H239294   0.618   0.228   1.792  0.0709 -0.7164 -0.0105
 5887TIP3   OH239295   6.879   3.991   1.438 -0.0914 -0.2950  0.0464
 5887TIP3    H139296   6.885   4.083   1.414 -1.5669 -0.1134  0.2914
 5887TIP3    H239297   6.956   3.950   1.398 -0.3156  0.7354 -1.5172
 5888TIP3   OH239298   2.496   5.585   6.609 -0.1214  0.0012 -0.2047
 5888TIP3    H139299   2.491   5.655   6.544 -2.4083  0.6162  0.5679
 5888TIP3    H239300   2.430   5.607   6.674 -0.1968 -2.3540  0.6039
 5889TIP3   OH239301   3.920   2.925   6.968 -0.6290  0.1826 -0.1040
 5889TIP3    H139302   3.930   2.832   6.951  0.3112  0.6305 -2.4967
 5889TIP3    H239303   3.826   2.938   6.982 -0.7478 -1.1230  0.3691
 5890TIP3   OH239304   1.751   6.367   0.290  0.0556  0.2348 -0.3180
 5890TIP3    H139305   1.733   6.405   0.204 -1.2204  0.3233 -0.0195
 5890TIP3    H239306   1.819   6.424   0.327 -1.1991  1.7594 -0.2342
 5891TIP3   OH239307   0.260   6.180   0.212 -0.5153 -0.1947 -0.2558
 5891TIP3    H139308   0.256   6.212   0.122 -1.5248  0.6386  0.0706
 5891TIP3    H239309   0.171   6.191   0.246 -0.1454 -0.4780  0.8496
 5892TIP3   OH239310   1.940   2.238   8.621 -0.0561 -0.5158 -0.1095
 5892TIP3    H139311   1.887   2.286   8.556  0.9763 -1.0379 -1.3721
 5892TIP3    H239312   2.003   2.303   8.653 -1.1481 -0.0033  1.1013
 5893TIP3   OH239313   4.334   0.446   8.582  0.3134 -0.0735 -0.6074
 5893TIP3    H139314   4.317   0.515   8.646 -0.1900 -0.3075 -0.4849
 5893TIP3    H239315   4.394   0.386   8.626 -1.7250 -1.4093  0.4914
 5894TIP3   OH239316   5.647   3.599   0.394  0.3775 -0.3041  0.0181
 5894TIP3    H139317   5.716   3.623   0.456 -0.3703 -0.4594  0.9300
 5894TIP3    H239318   5.597   3.531   0.439  0.2009 -0.8736 -1.0187
 5895TIP3   OH239319   6.809   6.013   7.622 -0.3517 -0.1440  0.1760
 5895TIP3    H139320   6.897   6.014   7.584 -0.6242 -0.5895 -0.4569
 5895TIP3    H239321   6.755   5.964   7.560 -1.4525  1.6094 -0.3407
 5896TIP3   OH239322   0.234   2.146   7.418 -0.0051 -0.0521  0.0931
 5896TIP3    H139323   0.168   2.176   7.481 -0.1149 -2.0323  0.9936
 5896TIP3    H239324   0.203   2.060   7.390  0.1837  0.6383 -2.5222
 5897TIP3   OH239325   3.407   0.055   0.579  0.0630  0.2937  0.6817
 5897TIP3    H139326   3.320   0.067   0.615 -1.3443 -2.4651 -1.3926
 5897TIP3    H239327   3.404   0.099   0.494  0.7554  0.3204  0.6658
 5898TIP3   OH239328   0.396   6.749   6.329 -0.5939  0.2782  0.0725
 5898TIP3    H139329   0.461   6.679   6.328 -1.4855 -0.5773  0.4543
 5898TIP3    H239330   0.411   6.795   6.412  0.2195  0.7775 -0.3382
 5899TIP3   OH239331   4.452   0.996   0.077  0.4061 -0.3448  0.2618
 5899TIP3    H139332   4.519   1.061   0.057 -0.9390  0.7316 -1.0765
 5899TIP3    H239333   4.403   1.033   0.150 -0.6331  0.4234 -0.7814
 5900TIP3   OH239334   3.332   3.192   7.448 -0.2386  0.0497  0.0430
 5900TIP3    H139335   3.424   3.186   7.473 -0.7473 -0.5661  1.9338
 5900TIP3    H239336   3.334   3.218   7.356  1.8207 -0.9935 -0.2620
 5901TIP3   OH239337   3.101   0.948   8.438  0.0647 -0.3207  0.1834
 5901TIP3    H139338   3.125   1.040   8.442  0.1643 -0.3045 -0.6667
 5901TIP3    H239339   3.080   0.932   8.346 -1.1344 -0.8498  0.5226
 5902TIP3   OH239340   0.938   1.465   1.013 -0.3561 -0.0792 -0.4998
 5902TIP3    H139341   0.929   1.370   1.021  1.8900 -0.2464  0.8203
 5902TIP3    H239342   0.949   1.496   1.103 -1.1856  1.4742 -0.8960
 5903TIP3   OH239343   3.141   3.219   0.327  0.1309 -0.1299 -0.4543
 5903TIP3    H139344   3.216   3.161   0.329  0.9921  0.9418 -0.7222
 5903TIP3    H239345   3.139   3.253   0.238 -1.8204 -1.5675 -1.0235
 5904TIP3   OH239346   2.525   0.347   8.150 -0.7316 -0.1898 -0.0060
 5904TIP3    H139347   2.545   0.413   8.083 -1.1682 -1.1200 -1.0919
 5904TIP3    H239348   2.472   0.393   8.214 -1.2003  0.4696 -0.8493
 5905TIP3   OH239349   1.049   0.439   0.731 -0.2549 -0.0959 -0.4196
 5905TIP3    H139350   1.083   0.490   0.805 -0.9063 -1.4664  0.9006
 5905TIP3    H239351   1.047   0.500   0.658  0.2240  1.3857  0.7488
 5906TIP3   OH239352   3.766   0.876   1.071 -0.2520 -0.2121 -0.4579
 5906TIP3    H139353   3.769   0.893   0.977 -2.0947 -1.8307 -0.8713
 5906TIP3    H239354   3.693   0.930   1.103  1.1395  1.2906  0.3201
 5907TIP3   OH239355   5.254   0.894   8.468  0.7673  0.2258  0.0939
 5907TIP3    H139356   5.238   0.805   8.498  2.8066  0.1406  1.1070
 5907TIP3    H239357   5.261   0.887   8.373  0.1690 -0.5542  0.1007
 5908TIP3   OH239358   5.442   3.759   0.545  0.1956  0.4291 -0.1620
 5908TIP3    H139359   5.419   3.783   0.635  0.1731 -0.0548 -0.0378
 5908TIP3    H239360   5.380   3.690   0.522  0.1629  0.5961 -0.5718
 5909TIP3   OH239361   2.520   0.282   2.721  0.4483 -0.1440 -0.4983
 5909TIP3    H139362   2.494   0.361   2.675  0.8826 -1.1248 -2.5533
 5909TIP3    H239363   2.616   0.280   2.713  0.5181 -0.4296  0.3125
 5910TIP3   OH239364   6.234   2.900   7.614  0.4553  0.3351 -0.2808
 5910TIP3    H139365   6.223   2.845   7.536 -0.6912  0.0852  0.0255
 5910TIP3    H239366   6.220   2.989   7.583  0.2247  0.2550 -0.4118
 5911TIP3   OH239367   3.625   6.910   0.967 -0.0646 -0.0802  0.2357
 5911TIP3    H139368   3.635   6.966   1.044 -0.9700  1.1317 -0.4848
 5911TIP3    H239369   3.588   6.968   0.900  0.6091 -1.1167 -1.0926
 5912TIP3   OH239370   2.321   1.509   6.714  0.3781  0.3292 -0.1764
 5912TIP3    H139371   2.338   1.576   6.648  0.1864  1.5340  0.9515
 5912TIP3    H239372   2.380   1.437   6.691  0.2506  0.6760 -1.6887
 5913TIP3   OH239373   5.999   3.013   1.478 -0.2431 -0.2932  0.2708
 5913TIP3    H139374   5.967   3.059   1.555 -2.1017 -1.4817  0.2811
 5913TIP3    H239375   5.939   3.039   1.408  0.5964 -0.2762 -0.4528
 5914TIP3   OH239376   5.860   2.234   0.559  0.0287 -0.0166 -0.0840
 5914TIP3    H139377   5.811   2.186   0.492  1.5996 -0.2764 -1.1036
 5914TIP3    H239378   5.806   2.311   0.578  0.5174  1.3582 -3.4281
 5915TIP3   OH239379   6.081   6.219   7.956  0.1656 -0.4227 -0.7520
 5915TIP3    H139380   6.075   6.161   7.881  1.3504 -1.0775 -0.3565
 5915TIP3    H239381   6.135   6.172   8.020  0.8338  0.9306 -0.2683
 5916TIP3   OH239382   4.125   4.345   6.562 -0.0208  0.5272 -0.7826
 5916TIP3    H139383   4.089   4.298   6.486  0.7236 -1.5315  0.0515
 5916TIP3    H239384   4.066   4.323   6.634  1.1620 -0.3761 -0.0599
 5917TIP3   OH239385   2.087   3.545   7.809  0.3384  0.2139  0.6937
 5917TIP3    H139386   2.070   3.635   7.835  1.2393  0.1788  1.4592
 5917TIP3    H239387   2.171   3.524   7.849 -0.4470 -1.3964  1.6004
 5918TIP3   OH239388   3.188   2.587   7.018 -0.2049 -0.1504 -0.0926
 5918TIP3    H139389   3.190   2.502   7.062  1.1435 -1.0995 -1.8437
 5918TIP3    H239390   3.124   2.576   6.948  0.9346 -0.1802 -1.1450
 5919TIP3   OH239391   5.903   1.157   1.075 -0.1519 -0.3471  0.1081
 5919TIP3    H139392   5.860   1.206   1.005  1.4101  1.5534  0.3697
 5919TIP3    H239393   5.986   1.129   1.036  0.5883  0.4508  1.0607
 5920TIP3   OH239394   5.666   5.097   7.241 -0.5482 -0.0600 -0.5857
 5920TIP3    H139395   5.740   5.042   7.264 -0.1823  0.6805  0.0802
 5920TIP3    H239396   5.668   5.102   7.145  0.1136 -0.2470 -0.5858
 5921TIP3   OH239397   2.156   4.838   7.263 -0.1766  0.2534  0.5010
 5921TIP3    H139398   2.174   4.753   7.305  0.9396  1.3786  2.4314
 5921TIP3    H239399   2.233   4.853   7.207 -0.4426 -0.0625  0.0465
 5922TIP3   OH239400   3.730   0.507   2.192 -0.2794 -0.0898 -0.4092
 5922TIP3    H139401   3.778   0.425   2.180  1.1776  0.8239 -1.0625
 5922TIP3    H239402   3.767   0.545   2.271 -0.9264 -0.0242 -0.1299
 5923TIP3   OH239403   6.704   4.249   0.475  0.5475  0.7195  0.1436
 5923TIP3    H139404   6.732   4.268   0.565 -0.3621  0.9769  0.3836
 5923TIP3    H239405   6.623   4.299   0.465 -1.6886 -2.5063  0.6140
 5924TIP3   OH239406   1.947   5.904   6.807 -0.2664  0.4842 -0.3583
 5924TIP3    H139407   1.915   5.834   6.750 -0.7814 -0.1647  0.6894
 5924TIP3    H239408   2.033   5.874   6.835 -0.1051  0.6975 -0.6324
 5925TIP3   OH239409   0.933   0.500   2.862 -0.3503  0.7562  0.4266
 5925TIP3    H139410   0.909   0.431   2.924  3.1627 -1.9248 -0.8611
 5925TIP3    H239411   0.999   0.552   2.908  0.6868  0.0778 -0.2431
 5926TIP3   OH239412   3.639   2.527   0.492  0.4575 -0.3902 -0.4348
 5926TIP3    H139413   3.691   2.605   0.476 -0.4079  0.0323 -1.2862
 5926TIP3    H239414   3.702   2.455   0.486  0.9090  0.0783 -1.7326
 5927TIP3   OH239415   2.198   4.808   7.736  1.1378  0.3756 -0.0488
 5927TIP3    H139416   2.267   4.859   7.696  2.6444 -1.4736  0.0454
 5927TIP3    H239417   2.234   4.779   7.820 -0.2289  0.4078  0.5874
 5928TIP3   OH239418   1.216   6.214   7.542  0.3277 -0.6254  0.2304
 5928TIP3    H139419   1.291   6.248   7.591 -0.0966  1.5926 -0.5471
 5928TIP3    H239420   1.255   6.164   7.470  1.0293 -0.4490  0.4774
 5929TIP3   OH239421   1.099   6.353   0.803  0.5902  0.1034  0.2763
 5929TIP3    H139422   1.118   6.289   0.734  1.6780 -0.0785  0.7093
 5929TIP3    H239423   1.015   6.326   0.838  0.9310 -0.9887  0.3148
 5930TIP3   OH239424   3.697   1.999   6.953 -0.2267  0.2106  0.0100
 5930TIP3    H139425   3.752   1.933   6.911  0.3838  1.9242 -2.0787
 5930TIP3    H239426   3.723   1.997   7.045  1.1604 -1.0870 -0.3686
 5931TIP3   OH239427   6.006   3.725   7.909 -0.2677  0.5707  0.0015
 5931TIP3    H139428   5.985   3.783   7.836 -0.7299 -0.4400 -0.6917
 5931TIP3    H239429   5.943   3.749   7.977 -0.5795  0.7449 -0.3464
 5932TIP3   OH239430   6.675   3.067   7.453  0.5085 -1.0051  0.3552
 5932TIP3    H139431   6.758   3.020   7.442 -0.9843 -3.9171  0.6750
 5932TIP3    H239432   6.674   3.092   7.546  1.4697  0.0256  0.1051
 5933TIP3   OH239433   5.893   1.440   1.349 -1.3471  0.5619  0.7953
 5933TIP3    H139434   5.984   1.450   1.320 -1.6462 -0.0387 -0.3891
 5933TIP3    H239435   5.845   1.509   1.303 -1.9528 -0.8594 -0.7961
 5934TIP3   OH239436   2.393   0.981   1.533  0.0629  0.0745  0.4189
 5934TIP3    H139437   2.430   0.937   1.456  0.4890  1.0205  0.0638
 5934TIP3    H239438   2.356   1.062   1.498 -0.4271  0.1464  1.0992
 5935TIP3   OH239439   6.363   1.666   7.666 -0.1671 -0.2458 -0.2624
 5935TIP3    H139440   6.435   1.618   7.626 -1.8133 -1.6292 -1.7718
 5935TIP3    H239441   6.306   1.689   7.592 -1.8293 -0.2136  0.9747
 5936TIP3   OH239442   4.682   3.142   1.905  0.1836 -0.0911  0.3854
 5936TIP3    H139443   4.646   3.054   1.912  1.5345 -0.5988  1.5268
 5936TIP3    H239444   4.702   3.167   1.996 -0.3095  1.4644  0.1070
 5937TIP3   OH239445   6.739   5.891   7.860 -0.6340 -0.2659  0.3448
 5937TIP3    H139446   6.663   5.943   7.885 -0.2531  0.9198 -0.7900
 5937TIP3    H239447   6.756   5.916   7.769 -0.3375 -2.3095 -0.2199
 5938TIP3   OH239448   5.029   3.426   1.623 -0.4369 -0.3139 -0.4456
 5938TIP3    H139449   4.953   3.455   1.571 -0.5424  1.0598  0.4135
 5938TIP3    H239450   5.002   3.343   1.661 -1.2771 -0.1498 -0.6644
 5939TIP3   OH239451   4.246   5.606   7.162  0.0021 -0.0314  0.8858
 5939TIP3    H139452   4.192   5.609   7.241  0.1138 -0.2033  0.9687
 5939TIP3    H239453   4.192   5.560   7.098  0.6017 -1.4928  1.3986
 5940TIP3   OH239454   0.273   3.025   1.576 -0.4565  0.5320  0.4347
 5940TIP3    H139455   0.283   2.990   1.487 -1.4891 -1.7311  1.1462
 5940TIP3    H239456   0.299   2.953   1.633 -0.2544  1.7976  1.9953
 5941TIP3   OH239457   3.182   1.137   6.410 -0.8147  0.8269 -0.8192
 5941TIP3    H139458   3.174   1.049   6.447 -1.9414  0.9471 -0.7353
 5941TIP3    H239459   3.268   1.167   6.438 -1.1122  0.4246  0.6253
 5942TIP3   OH239460   3.569   1.861   7.659 -0.4173  0.5745 -0.4679
 5942TIP3    H139461   3.661   1.871   7.635  0.3025  1.0939  2.2510
 5942TIP3    H239462   3.523   1.859   7.575  1.8529  2.2701 -1.8757
 5943TIP3   OH239463   0.766   5.496   7.234  0.2531 -0.6570 -0.4251
 5943TIP3    H139464   0.797   5.424   7.179 -1.0071 -3.9604  2.7476
 5943TIP3    H239465   0.844   5.526   7.281  0.3496 -2.3157  0.5627
 5944TIP3   OH239466   6.098   6.098   0.825 -0.4990  0.4858  0.1902
 5944TIP3    H139467   6.044   6.080   0.747 -1.0975 -1.6406  1.0273
 5944TIP3    H239468   6.065   6.037   0.891  2.2238 -0.1124  1.0960
 5945TIP3   OH239469   4.881   4.760   0.295  0.1425 -0.4727 -0.1973
 5945TIP3    H139470   4.936   4.761   0.373  0.8123 -0.3162 -0.6654
 5945TIP3    H239471   4.937   4.725   0.226 -0.3365 -0.2962 -0.6843
 5946TIP3   OH239472   2.556   5.350   1.344  0.4175 -0.4913 -0.5246
 5946TIP3    H139473   2.475   5.384   1.382 -1.1489 -2.1933 -2.1619
 5946TIP3    H239474   2.588   5.286   1.407 -0.5269 -1.1347 -0.6861
 5947TIP3   OH239475   1.164   5.059   7.334  0.5157  0.3759  0.4394
 5947TIP3    H139476   1.092   5.056   7.396  0.6946  2.0175  0.7736
 5947TIP3    H239477   1.231   5.002   7.372 -1.2847 -2.8715 -0.8941
 5948TIP3   OH239478   6.749   5.458   2.549 -0.1703 -0.3025  0.6929
 5948TIP3    H139479   6.809   5.505   2.491  0.0060 -0.4308  0.7721
 5948TIP3    H239480   6.782   5.368   2.551 -1.5526 -0.8864 -0.8950
 5949TIP3   OH239481   5.791   3.131   7.014 -0.2577 -0.4211  0.1171
 5949TIP3    H139482   5.696   3.125   7.002 -0.3407  1.1768 -0.3452
 5949TIP3    H239483   5.827   3.110   6.928 -0.4727  3.2638 -1.0527
 5950TIP3   OH239484   0.455   4.458   7.479  0.1101 -0.3891  0.0405
 5950TIP3    H139485   0.407   4.536   7.507 -1.5951 -1.5574  0.5302
 5950TIP3    H239486   0.502   4.429   7.557  1.5401  0.6482 -0.3911
 5951TIP3   OH239487   4.993   5.506   1.258  0.0065 -0.1511 -0.2583
 5951TIP3    H139488   5.041   5.467   1.184  0.5633  1.2956 -0.6891
 5951TIP3    H239489   5.041   5.586   1.277 -1.0119  0.2417  0.7172
 5952TIP3   OH239490   5.058   4.299   0.496  0.4146  0.2151  0.6816
 5952TIP3    H139491   5.084   4.388   0.472  2.6472  0.0585  2.2541
 5952TIP3    H239492   5.134   4.263   0.542 -1.0440 -1.9351  1.5667
 5953TIP3   OH239493   6.274   5.891   2.683  0.1956  0.1227  0.3522
 5953TIP3    H139494   6.193   5.943   2.684  0.8214  1.1598  2.2585
 5953TIP3    H239495   6.344   5.956   2.671  0.9165 -0.3820  1.6127
 5954TIP3   OH239496   1.993   3.814   7.876  0.6935  0.3161 -0.1239
 5954TIP3    H139497   1.917   3.821   7.818  1.3116 -3.0101 -1.5650
 5954TIP3    H239498   1.957   3.815   7.964 -0.7926  0.7285 -0.7114
 5955TIP3   OH239499   4.502   4.344   2.084 -0.2653 -0.8103 -0.3073
 5955TIP3    H139500   4.462   4.264   2.052 -0.9082 -1.3807  1.7559
 5955TIP3    H239501   4.527   4.324   2.175  0.4702  1.0044 -0.0550
 5956TIP3   OH239502   0.569   2.467   8.333 -0.3742 -0.1711 -0.3386
 5956TIP3    H139503   0.532   2.511   8.256  1.5903  0.5170 -0.9428
 5956TIP3    H239504   0.505   2.483   8.403 -1.3161  0.7589 -1.3730
 5957TIP3   OH239505   4.433   4.665   1.795  0.5200 -0.1712 -0.6448
 5957TIP3    H139506   4.511   4.623   1.830  0.0952 -0.9788 -0.6278
 5957TIP3    H239507   4.361   4.625   1.844 -0.1807 -2.0339 -2.9626
 5958TIP3   OH239508   1.843   4.319   0.853 -0.3858  0.3011  0.7275
 5958TIP3    H139509   1.843   4.348   0.762 -1.6713  1.1814  0.9837
 5958TIP3    H239510   1.931   4.337   0.884 -0.1187  0.5700 -0.1603
 5959TIP3   OH239511   6.111   5.265   8.186  0.9269 -0.3495 -0.2130
 5959TIP3    H139512   6.132   5.264   8.093 -0.6704  0.3164 -0.6093
 5959TIP3    H239513   6.080   5.177   8.205 -0.4860  0.0030 -0.7662
 5960TIP3   OH239514   0.680   1.649   0.109  0.6630  0.3980  0.0803
 5960TIP3    H139515   0.696   1.609   0.023  0.7953 -1.8158  1.0486
 5960TIP3    H239516   0.587   1.672   0.107  0.8799  1.2810 -0.9772
 5961TIP3   OH239517   0.610   0.064   0.077 -0.3732  0.0047 -0.2963
 5961TIP3    H139518   0.537   0.121   0.102 -1.4835 -1.0167 -1.0716
 5961TIP3    H239519   0.575  -0.025   0.088  0.5831 -0.4980 -1.1990
 5962TIP3   OH239520   4.306   4.384   1.894  0.2640 -0.2870  0.0958
 5962TIP3    H139521   4.361   4.389   1.972  0.5458  1.0751 -0.1728
 5962TIP3    H239522   4.217   4.372   1.928  0.3987  0.1616  0.6211
 5963TIP3   OH239523   3.809   0.683   0.532 -0.4814  0.2434 -0.0747
 5963TIP3    H139524   3.786   0.706   0.622  1.3465  1.0219  0.2387
 5963TIP3    H239525   3.760   0.603   0.515 -0.9383  0.1259  1.5982
 5964TIP3   OH239526   1.588   1.480   1.313  0.2618  0.0313 -0.6262
 5964TIP3    H139527   1.579   1.438   1.399 -0.6475 -0.9037 -1.1479
 5964TIP3    H239528   1.499   1.505   1.289  0.7532  2.0094 -0.4861
 5965TIP3   OH239529   6.884   3.390   2.576  0.3146  0.8754  0.2569
 5965TIP3    H139530   6.900   3.380   2.482  0.5999  0.5100  0.3416
 5965TIP3    H239531   6.957   3.344   2.618 -0.2519  0.3121  0.6497
 5966TIP3   OH239532   5.550   0.248   2.083 -0.3467  0.6432  0.6794
 5966TIP3    H139533   5.467   0.200   2.079 -1.0178  1.8130 -2.3161
 5966TIP3    H239534   5.617   0.180   2.074 -1.0211 -0.1692  1.5321
 5967TIP3   OH239535   6.724   2.917   8.223 -0.1227 -0.1744  0.4060
 5967TIP3    H139536   6.751   2.954   8.307 -0.3590 -1.7099  1.1919
 5967TIP3    H239537   6.636   2.883   8.239  0.4763 -1.9923  0.0560
 5968TIP3   OH239538   1.965   1.306   7.142 -1.0738 -0.0783  0.2083
 5968TIP3    H139539   1.872   1.321   7.161 -0.9695 -0.7191  1.3202
 5968TIP3    H239540   1.965   1.242   7.071 -1.4781  0.5904 -0.4087
 5969TIP3   OH239541   1.369   0.481   0.211  0.1754  0.1912  0.4507
 5969TIP3    H139542   1.384   0.517   0.299  2.4391  0.0168  0.2006
 5969TIP3    H239543   1.363   0.558   0.155 -2.2676  0.3500  0.8112
 5970TIP3   OH239544   6.610   3.948   7.360  0.1856  0.0363 -0.5938
 5970TIP3    H139545   6.640   3.858   7.350  1.3707  0.1571  1.2954
 5970TIP3    H239546   6.630   3.990   7.276  1.9264 -0.8514 -0.6730
 5971TIP3   OH239547   2.374   3.005   1.123 -0.3526 -0.2681 -0.2810
 5971TIP3    H139548   2.433   3.080   1.118  0.0449 -0.6160 -1.2058
 5971TIP3    H239549   2.303   3.033   1.180  0.1733  0.5382 -0.0123
 5972TIP3   OH239550   3.943   6.772   8.351  0.1134 -0.4812 -0.1310
 5972TIP3    H139551   3.914   6.862   8.369 -1.0196 -0.9307  0.3382
 5972TIP3    H239552   3.931   6.762   8.257 -0.6991 -0.4576 -0.0374
 5973TIP3   OH239553   3.194   4.261   1.886 -0.0599  0.2077 -0.1474
 5973TIP3    H139554   3.173   4.236   1.976  1.0108 -0.3895 -0.0402
 5973TIP3    H239555   3.269   4.206   1.863 -0.9999 -0.4606 -1.8083
 5974TIP3   OH239556   1.763   2.546   0.234  0.4735  0.1192 -0.8673
 5974TIP3    H139557   1.839   2.577   0.186  0.1709  0.5695 -1.0586
 5974TIP3    H239558   1.689   2.595   0.198 -0.0612 -1.0292 -1.3797
 5975TIP3   OH239559   3.700   0.297   7.760  0.8235 -0.0956  0.3437
 5975TIP3    H139560   3.742   0.357   7.822  1.7327 -1.2604  0.8948
 5975TIP3    H239561   3.746   0.214   7.772  1.3894 -0.2342 -2.2777
 5976TIP3   OH239562   4.763   5.198   7.156  0.5164  0.1839  0.1711
 5976TIP3    H139563   4.689   5.142   7.180  0.4190 -0.3451 -1.2871
 5976TIP3    H239564   4.723   5.280   7.126  0.5761  0.3058  0.4189
 5977TIP3   OH239565   0.321   1.755   2.236 -0.5815 -0.2428 -0.2835
 5977TIP3    H139566   0.334   1.834   2.288  0.5792  0.0498 -1.0011
 5977TIP3    H239567   0.258   1.780   2.169  0.1672  0.2241 -0.8195
 5978TIP3   OH239568   0.411   2.254   7.144 -0.3213 -0.1555 -0.4700
 5978TIP3    H139569   0.504   2.231   7.143  0.5940  2.8048  1.6373
 5978TIP3    H239570   0.373   2.200   7.214  0.3635  0.2158  0.2044
 5979TIP3   OH239571   6.170   3.367   7.299 -0.1606 -0.2671  0.5353
 5979TIP3    H139572   6.256   3.408   7.292 -0.3292 -0.0553 -0.4104
 5979TIP3    H239573   6.157   3.325   7.214 -1.6263  0.9692  0.1233
 5980TIP3   OH239574   2.087   1.721   1.380 -0.1623 -0.1447  0.1176
 5980TIP3    H139575   2.068   1.785   1.311 -0.4188 -0.4164 -0.0664
 5980TIP3    H239576   2.004   1.674   1.392  0.0428 -0.4819  0.2114
 5981TIP3   OH239577   0.230   5.639   0.400 -0.6031 -0.3525  0.3771
 5981TIP3    H139578   0.209   5.644   0.493  0.6469  0.9453  0.6305
 5981TIP3    H239579   0.215   5.727   0.367  1.9382  0.0397  0.0737
 5982TIP3   OH239580   1.611   5.802   7.959  0.4690 -0.4982 -0.1081
 5982TIP3    H139581   1.568   5.764   8.036 -0.8931 -0.2780 -0.7217
 5982TIP3    H239582   1.628   5.728   7.902  0.3268 -0.5102 -0.1349
 5983TIP3   OH239583   2.253   6.538   6.964 -0.5604  0.2444  0.3967
 5983TIP3    H139584   2.282   6.453   6.997  0.4233  0.2792 -0.3329
 5983TIP3    H239585   2.275   6.536   6.871 -0.5337  1.3047  0.3741
 5984TIP3   OH239586   1.791   4.900   0.232  0.0743  0.3985 -0.0948
 5984TIP3    H139587   1.857   4.889   0.300  0.8675  0.2007 -0.8703
 5984TIP3    H239588   1.712   4.929   0.278  0.4775 -0.1183  0.9437
 5985TIP3   OH239589   6.692   2.923   0.528 -0.3396  0.3053 -0.7115
 5985TIP3    H139590   6.777   2.909   0.487 -0.0928 -0.3644  0.0042
 5985TIP3    H239591   6.701   3.007   0.574 -0.1086  0.3032 -0.7512
 5986TIP3   OH239592   0.469   0.769   0.104  0.1703  0.3288  0.9099
 5986TIP3    H139593   0.508   0.845   0.061 -1.9272  1.1513  0.3598
 5986TIP3    H239594   0.376   0.774   0.083 -0.2103 -1.7929  1.7955
 5987TIP3   OH239595   4.087   3.146   0.894  0.3952  0.8440 -0.4865
 5987TIP3    H139596   4.106   3.192   0.976  0.1669  0.5495 -0.2657
 5987TIP3    H239597   4.039   3.068   0.921  1.8910 -0.2210 -0.7275
 5988TIP3   OH239598   6.010   4.676   0.974  0.1860 -0.3412  0.4517
 5988TIP3    H139599   6.099   4.647   0.998 -0.1814 -1.6673  0.3104
 5988TIP3    H239600   6.013   4.771   0.982  1.4287 -0.4097  1.1268
 5989TIP3   OH239601   1.600   1.340   2.001  0.0652  0.2061  0.0190
 5989TIP3    H139602   1.508   1.343   2.028  0.1888 -0.7222  0.6097
 5989TIP3    H239603   1.648   1.375   2.076  0.1098  2.4183 -0.9671
 5990TIP3   OH239604   1.348   6.088   7.333 -0.1094  0.5119 -0.0664
 5990TIP3    H139605   1.364   5.997   7.357  1.6490  1.0273  0.9195
 5990TIP3    H239606   1.284   6.083   7.262 -0.3881 -1.4551  0.2586
 5991TIP3   OH239607   3.242   0.472   2.552 -0.4992  0.1372  0.4662
 5991TIP3    H139608   3.309   0.531   2.587 -1.3760  0.7358  1.1845
 5991TIP3    H239609   3.278   0.384   2.565  0.5215  0.4669  0.0241
 5992TIP3   OH239610   1.369   5.831   1.092  0.6040  0.1723 -0.4586
 5992TIP3    H139611   1.457   5.853   1.121  1.0621 -1.3494 -0.6212
 5992TIP3    H239612   1.380   5.803   1.001 -0.3751  1.9966 -1.1820
 5993TIP3   OH239613   2.199   5.845   8.560  0.9752  0.7001 -0.1839
 5993TIP3    H139614   2.282   5.800   8.577  1.5996  1.6625 -0.5718
 5993TIP3    H239615   2.132   5.786   8.594  1.8708  0.3435  1.0316
 5994TIP3   OH239616   1.273   3.181   8.186  0.2862  0.4165 -0.1566
 5994TIP3    H139617   1.299   3.271   8.205 -2.8389  1.2844  0.6667
 5994TIP3    H239618   1.287   3.172   8.092  1.1476  1.5968 -0.1636
 5995TIP3   OH239619   0.239   0.487   7.216  0.8519 -0.3118  0.8789
 5995TIP3    H139620   0.203   0.403   7.188  0.2087  0.1836  0.1748
 5995TIP3    H239621   0.301   0.511   7.147 -0.3140  0.6408  0.1163
 5996TIP3   OH239622   2.943   3.990   8.303  0.2960 -0.2118 -0.4452
 5996TIP3    H139623   2.918   3.949   8.386  0.5993  0.9277  0.2480
 5996TIP3    H239624   2.885   3.952   8.238  1.4695 -2.7376 -0.1148
 5997TIP3   OH239625   0.172   6.575   6.288  0.2297  0.4955 -0.1305
 5997TIP3    H139626   0.250   6.631   6.290  0.0360  0.9563 -2.6297
 5997TIP3    H239627   0.099   6.635   6.299  0.0862  0.5809 -1.4287
 5998TIP3   OH239628   5.003   0.555   0.529  0.1942 -0.3625 -0.0922
 5998TIP3    H139629   4.989   0.494   0.601  2.5386 -0.9198 -0.0088
 5998TIP3    H239630   5.059   0.624   0.567  1.2843 -0.5470 -1.2865
 5999TIP3   OH239631   2.908   6.710   0.387 -0.6725 -1.1420 -0.2651
 5999TIP3    H139632   2.972   6.645   0.416  0.7063  0.2311 -0.1354
 5999TIP3    H239633   2.828   6.687   0.435 -0.2356 -2.7344 -0.2385
 6000TIP3   OH239634   5.766   6.908   7.477 -0.4918  0.7787  0.0527
 6000TIP3    H139635   5.775   6.924   7.383 -1.0229 -0.2158 -0.1736
 6000TIP3    H239636   5.674   6.885   7.489 -0.5200  1.2667  0.8828
 6001TIP3   OH239637   0.774   2.943   7.370 -0.1006  0.2527  0.8878
 6001TIP3    H139638   0.751   3.034   7.388 -0.4183  0.1064  1.2220
 6001TIP3    H239639   0.691   2.901   7.349  0.1477  0.2278 -0.1075
 6002TIP3   OH239640   2.212   1.987   8.644 -0.3628 -0.3055 -0.0830
 6002TIP3    H139641   2.306   1.969   8.654 -0.4790 -1.6555 -1.1074
 6002TIP3    H239642   2.209   2.071   8.598  0.3052  0.3728  1.0741
 6003TIP3   OH239643   3.893   5.130   8.039 -0.1543 -0.1932  0.9122
 6003TIP3    H139644   3.819   5.152   7.983 -0.0512 -0.8772  0.5067
 6003TIP3    H239645   3.911   5.038   8.021  1.7914  0.3495 -0.1638
 6004TIP3   OH239646   1.016   0.683   8.018  0.4361 -0.0055  0.6055
 6004TIP3    H139647   0.948   0.704   7.954 -0.4634  0.2196  1.6191
 6004TIP3    H239648   1.092   0.734   7.990  0.2431 -0.3471 -0.6001
 6005TIP3   OH239649   2.952   2.052   0.914 -0.0179  0.1717  0.4944
 6005TIP3    H139650   2.916   2.036   0.827 -1.0836  0.3139  0.8886
 6005TIP3    H239651   2.972   2.145   0.915 -1.7006  0.5799  0.9590
 6006TIP3   OH239652   5.558   2.700   7.937 -0.2211  0.2418 -0.0685
 6006TIP3    H139653   5.577   2.732   7.849  0.3167  0.2012  0.0320
 6006TIP3    H239654   5.471   2.660   7.930  0.5895 -1.4807 -1.0476
 6007TIP3   OH239655   2.726   3.235   0.332 -0.0915  0.4915 -0.4556
 6007TIP3    H139656   2.775   3.231   0.414  0.4752  1.9750 -0.6762
 6007TIP3    H239657   2.760   3.314   0.288 -1.3810  0.5203 -1.4607
 6008TIP3   OH239658   0.294   6.251   2.307 -0.7670 -0.0317  0.1797
 6008TIP3    H139659   0.238   6.173   2.307 -0.9048  0.0683  0.1204
 6008TIP3    H239660   0.384   6.216   2.308 -0.8011 -0.2102 -1.0889
 6009TIP3   OH239661   4.106   2.527   7.740 -0.1544 -0.1786 -0.4867
 6009TIP3    H139662   4.072   2.514   7.652 -2.3584  0.6395  0.1706
 6009TIP3    H239663   4.193   2.564   7.727 -0.5362  0.1715 -2.3092
 6010TIP3   OH239664   4.370   1.703   1.330 -0.1962  0.2035  0.1799
 6010TIP3    H139665   4.295   1.728   1.275  1.7741  0.9457 -2.3337
 6010TIP3    H239666   4.424   1.781   1.334  1.3631 -0.8488  0.3189
 6011TIP3   OH239667   6.306   1.980   8.083  0.0786  0.0750  0.7349
 6011TIP3    H139668   6.344   1.969   7.996 -0.1940  0.1234  0.6104
 6011TIP3    H239669   6.344   2.062   8.116  2.1601 -1.1639  1.6828
 6012TIP3   OH239670   3.471   4.433   0.201 -0.0644  0.0857 -0.0405
 6012TIP3    H139671   3.452   4.402   0.113  0.0827  0.1038 -0.0783
 6012TIP3    H239672   3.563   4.458   0.199  0.2324 -0.9394  0.4240
 6013TIP3   OH239673   6.510   6.746   1.803 -0.1674 -0.1539  0.3387
 6013TIP3    H139674   6.600   6.718   1.789 -0.1923 -0.9238  1.5671
 6013TIP3    H239675   6.492   6.724   1.895 -2.3120 -2.0471 -0.4438
 6014TIP3   OH239676   3.523   3.155   2.344 -0.7144 -0.5061  0.4638
 6014TIP3    H139677   3.446   3.100   2.357 -1.3953  0.2271 -0.2717
 6014TIP3    H239678   3.596   3.094   2.333 -1.3528 -1.2376  0.2247
 6015TIP3   OH239679   3.112   6.697   0.081  0.3357  0.6617  0.2555
 6015TIP3    H139680   3.047   6.767   0.069  0.4277  0.5382 -1.0733
 6015TIP3    H239681   3.189   6.742   0.114 -0.2833  0.8601  1.5233
 6016TIP3   OH239682   5.357   1.571   7.139  0.0422  0.4817  0.0833
 6016TIP3    H139683   5.416   1.601   7.070 -0.7325  1.9906  0.0342
 6016TIP3    H239684   5.414   1.548   7.212  0.9630 -2.1225 -1.3348
 6017TIP3   OH239685   1.944   6.887   0.966 -0.1269 -0.4263 -0.1216
 6017TIP3    H139686   1.966   6.921   1.053 -3.2143 -0.3728  0.7908
 6017TIP3    H239687   1.883   6.815   0.984  1.3352 -2.3170 -2.2122
 6018TIP3   OH239688   3.134   0.114   1.402 -0.0035  0.3135 -0.0331
 6018TIP3    H139689   3.226   0.099   1.425  0.2807  2.0975  0.1330
 6018TIP3    H239690   3.134   0.125   1.307 -0.0326  0.3942 -0.0239
 6019TIP3   OH239691   2.597   6.078   0.347  0.0132  0.4258  0.6863
 6019TIP3    H139692   2.523   6.029   0.382 -1.5955  1.3234 -1.2519
 6019TIP3    H239693   2.615   6.146   0.412  1.4350 -1.7875  2.7932
 6020TIP3   OH239694   0.345   0.448   1.801  0.3469 -0.1083 -0.7011
 6020TIP3    H139695   0.401   0.511   1.847  1.9542 -0.5457 -1.9476
 6020TIP3    H239696   0.391   0.432   1.718 -1.9434 -0.0748 -2.0569
 6021TIP3   OH239697   3.467   2.183   7.995 -0.0491  0.1535  0.3333
 6021TIP3    H139698   3.503   2.102   7.959  0.9884  0.1574  1.2757
 6021TIP3    H239699   3.452   2.239   7.919 -0.6906 -0.8798 -0.3216
 6022TIP3   OH239700   3.047   3.959   1.709 -0.2252 -0.2103 -0.0716
 6022TIP3    H139701   2.985   3.923   1.644 -2.6500  0.8079  1.5317
 6022TIP3    H239702   3.010   3.935   1.793  0.4477  2.1873  0.9999
 6023TIP3   OH239703   4.522   2.818   1.540  0.5981 -1.1160  0.5931
 6023TIP3    H139704   4.450   2.880   1.544  2.4603  1.2878 -0.3839
 6023TIP3    H239705   4.481   2.732   1.547 -2.4717  0.0487 -1.3410
 6024TIP3   OH239706   1.301   0.158   0.182  0.1357 -0.0706  0.5520
 6024TIP3    H139707   1.215   0.156   0.225 -1.1541 -0.2644 -1.8326
 6024TIP3    H239708   1.318   0.251   0.169  0.6700  0.0039  1.6590
 6025TIP3   OH239709   6.733   3.554   1.887  0.0553  0.6721  0.2385
 6025TIP3    H139710   6.760   3.474   1.842 -1.9888  0.2474 -0.3476
 6025TIP3    H239711   6.792   3.621   1.853  0.9764 -0.3300 -0.2266
 6026TIP3   OH239712   5.482   4.366   6.667 -0.7087 -0.2014  0.1685
 6026TIP3    H139713   5.499   4.441   6.609  0.0647  0.7093  1.5028
 6026TIP3    H239714   5.490   4.290   6.611 -0.0454  0.6543 -0.9420
 6027TIP3   OH239715   2.251   3.919   0.087 -0.3470  0.5211 -0.4452
 6027TIP3    H139716   2.308   3.843   0.071 -1.0132 -0.4262  1.3980
 6027TIP3    H239717   2.214   3.939   0.001  0.1112 -1.0546 -1.0486
 6028TIP3   OH239718   0.048   3.734   7.397  0.1622 -0.3029  0.6369
 6028TIP3    H139719   0.121   3.796   7.395 -1.0354  1.1588 -0.4189
 6028TIP3    H239720   0.039   3.709   7.489  1.8027 -0.3185  0.8150
 6029TIP3   OH239721   0.208   6.325   8.635  0.2680  0.2554 -0.5959
 6029TIP3    H139722   0.190   6.418   8.649  1.1842  0.5089 -1.0409
 6029TIP3    H239723   0.260   6.322   8.555  0.5998 -0.6141 -0.3600
 6030TIP3   OH239724   2.733   0.471   2.216 -0.1912  0.2170 -0.2067
 6030TIP3    H139725   2.735   0.498   2.308  0.9117 -0.1100 -0.1227
 6030TIP3    H239726   2.643   0.490   2.188 -0.2569  1.2814  0.6470
 6031TIP3   OH239727   2.318   5.505   1.857  0.3949 -0.0578  0.3283
 6031TIP3    H139728   2.335   5.412   1.873 -1.9089 -0.3971  1.2662
 6031TIP3    H239729   2.243   5.526   1.914  0.6217  2.2955 -0.1120
 6032TIP3   OH239730   5.916   2.611   1.090 -0.3441 -0.2249 -0.7528
 6032TIP3    H139731   5.953   2.549   1.153  0.1507  0.3435 -0.4733
 6032TIP3    H239732   5.963   2.592   1.008 -2.2055 -2.1589 -1.4737
 6033TIP3   OH239733   6.073   1.400   7.014  0.4493 -0.3632 -0.8889
 6033TIP3    H139734   6.114   1.353   6.941  0.2012  1.6992 -2.4652
 6033TIP3    H239735   6.128   1.478   7.026 -1.1196  0.7724 -0.8271
 6034TIP3   OH239736   1.113   5.198   0.899  0.8248 -0.4933  0.0310
 6034TIP3    H139737   1.077   5.133   0.959 -1.8107  0.9336  0.1423
 6034TIP3    H239738   1.038   5.228   0.848  2.5461  0.1099 -2.3280
 6035TIP3   OH239739   0.365   2.369   7.776 -0.6659  0.7837  0.3479
 6035TIP3    H139740   0.294   2.308   7.754  0.6290 -0.3125 -1.0861
 6035TIP3    H239741   0.333   2.455   7.750 -1.2298  0.2076 -0.9233
 6036TIP3   OH239742   4.112   1.933   7.467  0.1991  0.4032 -0.3201
 6036TIP3    H139743   4.205   1.941   7.485 -0.1353  0.3835  1.6152
 6036TIP3    H239744   4.076   2.019   7.488 -0.5113 -0.2142  1.1197
 6037TIP3   OH239745   3.444   4.843   0.936 -0.0923 -0.2161  0.3608
 6037TIP3    H139746   3.407   4.766   0.894  1.5353 -0.9387  0.1580
 6037TIP3    H239747   3.428   4.914   0.874  0.2472 -0.8228 -0.4411
 6038TIP3   OH239748   1.569   0.842   1.279  0.5678  0.3433  0.1694
 6038TIP3    H139749   1.551   0.788   1.202  0.8680 -3.1360  2.3550
 6038TIP3    H239750   1.487   0.840   1.329  1.6126 -1.1193  1.9364
 6039TIP3   OH239751   5.127   3.610   1.947  0.4714 -0.2636 -0.2874
 6039TIP3    H139752   5.121   3.653   1.862  1.9259 -0.2961 -0.4327
 6039TIP3    H239753   5.178   3.670   2.001  2.0261 -1.4925 -0.3147
 6040TIP3   OH239754   4.041   6.110   1.908 -0.5333 -0.5521 -0.0975
 6040TIP3    H139755   4.077   6.131   1.994  0.5090 -1.0867 -0.3877
 6040TIP3    H239756   4.058   6.016   1.898  0.3072 -0.2828 -1.3200
 6041TIP3   OH239757   2.650   6.721   6.977 -0.0985 -0.0256 -0.1028
 6041TIP3    H139758   2.561   6.756   6.973  0.4556  1.5844  0.6773
 6041TIP3    H239759   2.659   6.671   6.896 -2.4364 -2.1509  0.8197
 6042TIP3   OH239760   5.167   0.228   7.249 -0.3155 -0.2724 -0.1107
 6042TIP3    H139761   5.108   0.249   7.177  1.2482  0.5775 -1.2024
 6042TIP3    H239762   5.116   0.171   7.306 -1.9673 -0.0605 -1.3142
 6043TIP3   OH239763   4.253   3.604   1.320 -0.4666 -0.3930 -0.5817
 6043TIP3    H139764   4.289   3.542   1.257  1.8337 -0.7736  0.9678
 6043TIP3    H239765   4.161   3.579   1.329 -0.2843 -1.7528 -2.0809
 6044TIP3   OH239766   0.848   4.378   6.570  0.1820  0.3404 -0.3115
 6044TIP3    H139767   0.797   4.297   6.576 -0.3820  0.8060  2.6716
 6044TIP3    H239768   0.928   4.359   6.619 -0.3467  1.7877  1.1955
 6045TIP3   OH239769   3.217   5.296   6.472  0.2413  0.2225  0.0389
 6045TIP3    H139770   3.157   5.314   6.399 -0.1353  1.8789  0.6984
 6045TIP3    H239771   3.270   5.376   6.479  0.6863 -0.1518  1.1788
 6046TIP3   OH239772   1.776   2.085   1.908 -0.1673  0.2996 -0.1440
 6046TIP3    H139773   1.695   2.122   1.945  0.0151 -0.1346  0.7102
 6046TIP3    H239774   1.745   2.018   1.847 -0.4753 -1.2480  1.6184
 6047TIP3   OH239775   5.128   3.387   7.703  0.1862  0.0064 -0.0150
 6047TIP3    H139776   5.210   3.338   7.690  0.0730  0.2802 -2.0300
 6047TIP3    H239777   5.148   3.476   7.675  0.2114  1.0909  3.0553
 6048TIP3   OH239778   2.463   1.015   8.076 -0.2615  0.2769  0.0083
 6048TIP3    H139779   2.555   1.015   8.100 -0.3200  1.8523  0.3190
 6048TIP3    H239780   2.445   1.104   8.047 -1.9951  0.3983  1.2580
 6049TIP3   OH239781   5.234   4.317   1.073  0.5068  0.9715 -0.1434
 6049TIP3    H139782   5.322   4.281   1.060  0.9817  1.3512  1.6388
 6049TIP3    H239783   5.212   4.293   1.164 -0.7910  1.8116 -0.2081
 6050TIP3   OH239784   2.845   6.858   2.202 -0.5667  0.4107  0.0001
 6050TIP3    H139785   2.825   6.785   2.262 -1.0562 -0.0281 -0.6789
 6050TIP3    H239786   2.940   6.867   2.206 -0.4390 -0.6741 -0.3686
 6051TIP3   OH239787   0.255   4.047   0.808  0.2995 -0.1392 -0.1057
 6051TIP3    H139788   0.217   4.122   0.761 -0.8641  0.3548  1.5379
 6051TIP3    H239789   0.318   4.010   0.746 -1.5127  0.1474 -2.2445
 6052TIP3   OH239790   2.998   2.928   2.137 -0.1184 -0.1488 -0.3521
 6052TIP3    H139791   2.912   2.930   2.180 -0.8502  0.1032 -1.7591
 6052TIP3    H239792   2.982   2.882   2.055  1.6529 -2.3864  0.4423
 6053TIP3   OH239793   1.053   3.256   7.214  0.2380  0.0445  0.4693
 6053TIP3    H139794   1.147   3.275   7.218  0.3852 -0.7444  1.0609
 6053TIP3    H239795   1.038   3.196   7.287 -0.3645 -1.3389 -0.7340
 6054TIP3   OH239796   4.850   5.675   0.343 -0.3983  0.2066 -0.0987
 6054TIP3    H139797   4.840   5.688   0.437 -0.4251 -0.5411  0.0070
 6054TIP3    H239798   4.920   5.736   0.317 -1.6718  1.7919  0.0530
 6055TIP3   OH239799   2.087   4.129   2.296 -0.9025 -0.1943  1.0038
 6055TIP3    H139800   1.997   4.116   2.326 -0.6503 -0.5170  1.6443
 6055TIP3    H239801   2.115   4.211   2.337 -1.1291  0.2649  0.2518
 6056TIP3   OH239802   2.673   3.830   8.299  0.1445 -0.0576  0.5741
 6056TIP3    H139803   2.587   3.862   8.273 -0.0851  1.5121  2.9486
 6056TIP3    H239804   2.727   3.839   8.221 -1.5204  0.1372 -0.6053
 6057TIP3   OH239805   5.707   3.678   7.482 -0.1965 -0.4637 -0.7299
 6057TIP3    H139806   5.687   3.690   7.575 -2.4904  0.2308 -1.2667
 6057TIP3    H239807   5.715   3.767   7.447  0.0727 -0.7170 -1.3398
 6058TIP3   OH239808   6.409   5.344   2.665  0.0603  0.0798 -0.4118
 6058TIP3    H139809   6.317   5.324   2.650 -0.0631 -0.6627  1.1619
 6058TIP3    H239810   6.450   5.258   2.680  0.6648  0.5352  0.6336
 6059TIP3   OH239811   1.305   6.127   6.412  0.1045  0.1157  0.1668
 6059TIP3    H139812   1.382   6.130   6.469  1.2524  0.9230 -1.3501
 6059TIP3    H239813   1.323   6.057   6.350 -0.2565  0.4867 -0.3685
 6060TIP3   OH239814   4.806   3.977   8.396  0.6949  0.6069  0.0893
 6060TIP3    H139815   4.746   3.934   8.457 -0.0464  1.7565  0.2049
 6060TIP3    H239816   4.810   4.068   8.427  1.9236  0.7284 -0.3634
 6061TIP3   OH239817   5.347   5.175   8.538 -0.2777 -0.3538  0.0142
 6061TIP3    H139818   5.398   5.169   8.457 -0.5694 -2.6665 -0.0634
 6061TIP3    H239819   5.258   5.151   8.513 -0.8807  1.1037  0.6395
 6062TIP3   OH239820   1.247   6.693   8.008  0.2138 -0.5915 -0.8310
 6062TIP3    H139821   1.307   6.703   8.082 -2.3542  0.4661  1.3023
 6062TIP3    H239822   1.177   6.636   8.041 -0.6477 -0.7151 -2.7180
 6063TIP3   OH239823   2.998   6.289   7.832 -0.0193  0.7149  0.6122
 6063TIP3    H139824   2.984   6.213   7.775 -2.5788  1.6316 -0.1325
 6063TIP3    H239825   3.032   6.252   7.913  0.0588 -1.0694 -0.1813
 6064TIP3   OH239826   1.518   3.596   2.247  0.1037 -0.2629  0.3162
 6064TIP3    H139827   1.558   3.579   2.332  1.8163  3.4692  0.4288
 6064TIP3    H239828   1.426   3.613   2.267  0.5417  0.8415  1.5129
 6065TIP3   OH239829   5.889   5.098   0.281 -0.2748  0.7066  0.4787
 6065TIP3    H139830   5.947   5.054   0.343 -1.1461 -1.0308  0.1060
 6065TIP3    H239831   5.916   5.065   0.195 -0.6821  1.2082  0.1499
 6066TIP3   OH239832   3.187   2.863   1.081  0.3620  0.4674 -0.1148
 6066TIP3    H139833   3.113   2.922   1.068  0.7549  0.7571 -1.1555
 6066TIP3    H239834   3.197   2.819   0.996  0.6591 -0.4174  0.3649
 6067TIP3   OH239835   1.113   1.192   2.813  0.3149 -0.3130  0.2708
 6067TIP3    H139836   1.183   1.132   2.839  0.9754  0.6427  0.7671
 6067TIP3    H239837   1.057   1.140   2.755 -1.1967 -2.5618  3.4297
 6068TIP3   OH239838   6.709   3.751   0.124 -0.2468  0.2228 -0.2819
 6068TIP3    H139839   6.709   3.709   0.038 -3.9184  0.7765 -0.7291
 6068TIP3    H239840   6.671   3.837   0.109 -1.2011  0.2477  1.8970
 6069TIP3   OH239841   6.684   5.618   0.531 -0.0699  0.0257 -0.2002
 6069TIP3    H139842   6.670   5.707   0.499 -0.3313 -0.4264 -1.3583
 6069TIP3    H239843   6.719   5.570   0.456 -1.7089 -1.3201 -0.1545
 6070TIP3   OH239844   6.574   5.157   0.294 -0.0842  0.0554  0.0796
 6070TIP3    H139845   6.567   5.146   0.199  0.6375 -0.6409  0.0965
 6070TIP3    H239846   6.643   5.221   0.306 -0.9548  1.0122  0.1181
 6071TIP3   OH239847   1.720   4.815   0.678  0.3704  0.5260 -0.0799
 6071TIP3    H139848   1.685   4.780   0.597  0.5494 -0.1357  0.1200
 6071TIP3    H239849   1.699   4.908   0.676  0.1228  0.4557 -0.7478
 6072TIP3   OH239850   5.307   5.766   2.634 -0.3460  0.0231  0.3291
 6072TIP3    H139851   5.349   5.800   2.713  0.3107  1.2861 -0.5210
 6072TIP3    H239852   5.258   5.689   2.664  1.5976 -0.8151  1.5767
 6073TIP3   OH239853   3.732   3.344   0.991  0.2650  0.3351 -0.5029
 6073TIP3    H139854   3.719   3.437   0.976  2.1916  0.8283  0.6109
 6073TIP3    H239855   3.656   3.317   1.043 -0.2711  1.2574 -0.7778
 6074TIP3   OH239856   4.882   1.529   7.761 -0.0884  0.0420  0.4522
 6074TIP3    H139857   4.822   1.557   7.830 -0.6277 -2.4801  1.1025
 6074TIP3    H239858   4.929   1.455   7.799 -0.3465 -1.4009 -1.8324
 6075TIP3   OH239859   0.269   3.116   7.060  0.1773  0.1147 -0.0883
 6075TIP3    H139860   0.232   3.029   7.046 -2.0243  1.0958 -0.8372
 6075TIP3    H239861   0.300   3.143   6.974  0.0580  0.4073 -0.0417
 6076TIP3   OH239862   0.898   3.467   7.415  0.0097 -0.1289 -0.6864
 6076TIP3    H139863   0.907   3.514   7.333 -1.1525  1.4510  0.0201
 6076TIP3    H239864   0.856   3.530   7.474 -0.7584 -1.7608  0.6096
 6077TIP3   OH239865   2.388   1.392   6.964 -0.7292 -0.1456  0.0594
 6077TIP3    H139866   2.415   1.466   6.909 -0.8685  0.8649  1.2992
 6077TIP3    H239867   2.302   1.368   6.931 -0.9971  0.7265  0.0880
 6078TIP3   OH239868   4.930   4.314   7.247  0.4111  0.2568  0.1585
 6078TIP3    H139869   4.878   4.277   7.176  0.6152  1.0838 -0.4291
 6078TIP3    H239870   4.959   4.399   7.214  0.0569  0.8961  1.4256
 6079TIP3   OH239871   3.434   5.419   1.304  0.3331  0.1672 -0.2964
 6079TIP3    H139872   3.483   5.466   1.371  1.6596 -0.5792 -0.6945
 6079TIP3    H239873   3.501   5.371   1.255 -0.8688 -1.4672 -0.4320
 6080TIP3   OH239874   5.320   4.616   1.881 -1.0210  0.1589  0.2593
 6080TIP3    H139875   5.294   4.588   1.969 -2.7187  0.4750 -0.1039
 6080TIP3    H239876   5.276   4.700   1.869  1.1529  1.3402  0.0026
 6081TIP3   OH239877   4.422   0.899   0.782 -0.0383  0.0770 -0.0862
 6081TIP3    H139878   4.406   0.899   0.876  0.3795  0.1099 -0.0111
 6081TIP3    H239879   4.470   0.817   0.767  1.4184  0.8807  0.0072
 6082TIP3   OH239880   5.621   3.667   7.093  0.2428  0.4532 -0.1618
 6082TIP3    H139881   5.651   3.595   7.036  0.4473  0.8272 -0.5312
 6082TIP3    H239882   5.562   3.625   7.155 -2.2824  0.4386 -2.3871
 6083TIP3   OH239883   6.448   2.185   0.920 -0.2637  0.0995 -0.2041
 6083TIP3    H139884   6.366   2.232   0.931 -0.4520  0.0324 -1.2169
 6083TIP3    H239885   6.436   2.103   0.968 -0.9926 -0.1365 -0.7656
 6084TIP3   OH239886   3.822   2.865   7.369  0.4043  0.4320 -0.2335
 6084TIP3    H139887   3.759   2.854   7.298 -1.9053  0.9831  1.5766
 6084TIP3    H239888   3.868   2.782   7.374 -1.1594 -0.5044 -0.8081
 6085TIP3   OH239889   0.749   4.225   0.283 -0.6022  0.8386 -0.2529
 6085TIP3    H139890   0.665   4.182   0.296 -0.2585  0.4276  0.6754
 6085TIP3    H239891   0.791   4.174   0.214 -0.1425 -0.4451  0.9299
 6086TIP3   OH239892   1.835   0.755   1.023  0.0979  0.3416  0.5033
 6086TIP3    H139893   1.843   0.677   0.967  0.3425  0.0062  0.9971
 6086TIP3    H239894   1.745   0.752   1.054 -0.3717  1.1234 -0.7209
 6087TIP3   OH239895   1.051   6.304   1.430  0.0444 -0.1958 -0.3334
 6087TIP3    H139896   1.022   6.215   1.447  1.3364 -0.4210  0.9008
 6087TIP3    H239897   1.125   6.317   1.490  0.1516  1.5552 -0.7872
 6088TIP3   OH239898   1.514   0.054   1.720  0.8799  0.0736 -0.2019
 6088TIP3    H139899   1.572   0.089   1.652  0.3567  0.3492 -0.5136
 6088TIP3    H239900   1.457  -0.007   1.674 -1.0417  1.9602 -0.5333
 6089TIP3   OH239901   0.911   6.619   2.227  0.0904  0.5271  0.3965
 6089TIP3    H139902   0.993   6.666   2.239  1.6027 -1.7505 -0.2721
 6089TIP3    H239903   0.904   6.562   2.304 -0.4210  0.0908  0.0377
 6090TIP3   OH239904   6.843   4.869   8.481  0.5041 -0.0319  0.5892
 6090TIP3    H139905   6.856   4.958   8.449  1.0171 -0.6913 -1.1113
 6090TIP3    H239906   6.918   4.853   8.539 -0.5941  1.2743  2.5093
 6091TIP3   OH239907   0.157   2.610   1.613 -0.7808 -0.0040  0.0403
 6091TIP3    H139908   0.207   2.531   1.590 -0.1228  0.1696  0.8006
 6091TIP3    H239909   0.079   2.577   1.657 -0.5134 -0.2473  0.3456
 6092TIP3   OH239910   4.747   1.850   2.525  0.7264  0.1970 -0.1618
 6092TIP3    H139911   4.763   1.777   2.585  0.4325 -1.0601 -1.5419
 6092TIP3    H239912   4.655   1.874   2.540  0.8836  0.4345  0.4437
 6093TIP3   OH239913   2.856   6.353   7.067 -0.4834 -0.1211  0.1537
 6093TIP3    H139914   2.820   6.323   6.984 -1.0983 -1.5140  0.8867
 6093TIP3    H239915   2.830   6.445   7.073 -2.0341 -0.5090 -0.3485
 6094TIP3   OH239916   2.318   0.480   0.365 -0.1609  0.0482  0.1583
 6094TIP3    H139917   2.335   0.429   0.444 -1.9801  0.5302  0.9113
 6094TIP3    H239918   2.372   0.559   0.374  2.7111 -1.6502 -1.0405
 6095TIP3   OH239919   2.085   5.868   7.889 -0.5361 -0.0333  0.6765
 6095TIP3    H139920   2.134   5.804   7.941  0.3389 -0.1686 -0.2946
 6095TIP3    H239921   2.030   5.914   7.953  0.6263 -0.0871  1.7380
 6096TIP3   OH239922   5.303   1.604   1.243 -0.3736 -0.5949 -0.1971
 6096TIP3    H139923   5.333   1.622   1.331 -2.3747 -0.0627  0.4414
 6096TIP3    H239924   5.315   1.509   1.232  0.7291 -0.5222  0.2812
 6097TIP3   OH239925   6.131   3.403   0.677  0.1374  0.3436 -0.5012
 6097TIP3    H139926   6.201   3.338   0.669  0.1647  0.4378 -1.0304
 6097TIP3    H239927   6.052   3.352   0.694  0.6033  0.3018  2.0814
 6098TIP3   OH239928   3.601   1.194   1.702  0.0183 -0.0085  0.3048
 6098TIP3    H139929   3.616   1.114   1.652 -0.9410  0.2827 -0.4716
 6098TIP3    H239930   3.527   1.174   1.759  0.8249 -0.1937  1.3251
 6099TIP3   OH239931   5.011   0.062   0.588  0.6468 -0.2108  0.0848
 6099TIP3    H139932   4.968  -0.004   0.533 -1.2103  0.7427  0.3181
 6099TIP3    H239933   5.013   0.023   0.675  1.2156 -0.6630 -0.1211
 6100TIP3   OH239934   3.022   2.996   8.238  0.4080 -0.3713  0.1713
 6100TIP3    H139935   3.029   2.905   8.209 -0.6090 -0.6953  0.8753
 6100TIP3    H239936   3.113   3.024   8.251  0.7580 -1.0964 -0.5986
 6101TIP3   OH239937   5.728   0.093   8.499 -0.1563  0.2580 -0.4467
 6101TIP3    H139938   5.715   0.080   8.405  0.9879  0.9239 -0.7281
 6101TIP3    H239939   5.803   0.037   8.520 -2.5258 -2.6780  0.8672
 6102TIP3   OH239940   1.854   4.049   7.565 -0.3616  0.0493 -0.5049
 6102TIP3    H139941   1.864   3.963   7.606  0.9648  0.1391 -0.5921
 6102TIP3    H239942   1.869   4.033   7.472 -0.0172  0.3749 -0.5108
 6103TIP3   OH239943   4.657   1.405   2.415  0.2896  0.3228  0.6802
 6103TIP3    H139944   4.659   1.485   2.361 -1.0869 -0.4387 -0.5841
 6103TIP3    H239945   4.734   1.356   2.387 -0.1894  0.1217 -0.3557
 6104TIP3   OH239946   3.771   4.513   7.530  1.0483 -0.4988  0.3047
 6104TIP3    H139947   3.680   4.522   7.504  0.5688  3.6692  2.6374
 6104TIP3    H239948   3.816   4.586   7.488  4.2912 -4.0300 -3.3043
 6105TIP3   OH239949   5.306   3.420   8.612 -0.0693 -0.0582 -0.2160
 6105TIP3    H139950   5.226   3.403   8.662  1.4141  0.7606  2.6364
 6105TIP3    H239951   5.369   3.357   8.645  0.9186  0.3415 -1.2875
 6106TIP3   OH239952   5.135   0.895   1.365 -0.5805  0.5957 -0.3562
 6106TIP3    H139953   5.212   0.847   1.334 -1.0441  0.6987 -1.7238
 6106TIP3    H239954   5.149   0.905   1.459  0.3777 -0.6568 -0.3419
 6107TIP3   OH239955   6.245   1.551   0.875  0.5371  0.1282  0.0300
 6107TIP3    H139956   6.226   1.606   0.951  1.6178  0.1325  0.3089
 6107TIP3    H239957   6.295   1.607   0.816  2.1265 -0.6773  0.5554
 6108TIP3   OH239958   3.019   1.901   8.371 -0.3088 -0.7596 -0.1711
 6108TIP3    H139959   2.930   1.892   8.337 -0.3331  1.2050 -0.7211
 6108TIP3    H239960   3.072   1.844   8.315 -1.1804 -1.9426  0.1627
 6109TIP3   OH239961   2.298   1.986   1.815 -0.3064 -0.0686  0.5171
 6109TIP3    H139962   2.354   2.015   1.887  1.1545 -0.6674 -0.3529
 6109TIP3    H239963   2.257   1.906   1.846  0.4044 -0.3833  0.6491
 6110TIP3   OH239964   1.961   6.284   1.089  0.0496  0.4019 -0.0832
 6110TIP3    H139965   1.872   6.311   1.111  0.8959  2.5752  1.0787
 6110TIP3    H239966   1.960   6.274   0.994 -1.6578 -0.6598  0.0051
 6111TIP3   OH239967   4.298   6.073   8.326 -0.0324  0.2049  0.5543
 6111TIP3    H139968   4.354   6.150   8.318  0.8691 -0.3604  1.2557
 6111TIP3    H239969   4.347   6.004   8.280 -1.2518  0.2461 -0.8726
 6112TIP3   OH239970   4.537   1.570   2.647 -0.3136  0.1856  0.0194
 6112TIP3    H139971   4.487   1.492   2.624  0.6445 -0.8058  1.1305
 6112TIP3    H239972   4.471   1.638   2.662 -1.1075  0.1038 -2.5477
 6113TIP3   OH239973   2.321   0.326   0.886 -0.0267  0.0277 -0.6917
 6113TIP3    H139974   2.237   0.360   0.915 -0.8432 -0.9471 -1.8147
 6113TIP3    H239975   2.350   0.268   0.956 -0.3396  0.2701 -0.3587
 6114TIP3   OH239976   4.337   3.433   2.302 -0.0714 -0.3063 -0.2906
 6114TIP3    H139977   4.323   3.528   2.303 -0.9942 -0.4241  1.6693
 6114TIP3    H239978   4.331   3.409   2.210 -0.6554  1.4168 -0.7379
 6115TIP3   OH239979   0.989   0.765   2.096  0.2346 -0.1720  0.1985
 6115TIP3    H139980   1.056   0.704   2.127 -1.1032 -0.4066  2.8756
 6115TIP3    H239981   1.002   0.844   2.148  0.2809  0.9409 -1.4048
 6116TIP3   OH239982   4.497   2.926   0.372 -0.0897 -0.3278  0.4969
 6116TIP3    H139983   4.479   3.013   0.336 -1.7648 -1.3335 -1.3081
 6116TIP3    H239984   4.438   2.919   0.447 -2.6862 -1.1400 -1.4766
 6117TIP3   OH239985   0.576   2.627   1.888  0.1416  0.2102  0.0713
 6117TIP3    H139986   0.559   2.557   1.951  2.1061 -1.0598 -0.6934
 6117TIP3    H239987   0.655   2.670   1.921 -0.5853  1.5611  0.0939
 6118TIP3   OH239988   4.966   0.247   7.072  0.3422 -0.4638 -0.0233
 6118TIP3    H139989   4.966   0.324   7.015  3.2569 -0.0253  0.4268
 6118TIP3    H239990   4.999   0.176   7.017 -0.8558 -1.0761  0.0047
 6119TIP3   OH239991   4.586   2.166   6.637  0.1051 -0.0780  0.4618
 6119TIP3    H139992   4.673   2.201   6.613 -0.1702  0.7985  0.7000
 6119TIP3    H239993   4.580   2.084   6.589  0.1171  0.9833 -1.4571
 6120TIP3   OH239994   3.586   0.442   1.658 -0.5133 -0.1850  0.5086
 6120TIP3    H139995   3.502   0.463   1.699  0.4988  3.3503  1.0488
 6120TIP3    H239996   3.620   0.525   1.627  2.1408 -1.7141 -1.1105
 6121TIP3   OH239997   3.648   5.598   1.774 -0.1369  0.2821 -0.6847
 6121TIP3    H139998   3.584   5.598   1.845  1.3027  0.3779  0.6473
 6121TIP3    H239999   3.689   5.685   1.777  0.3814  0.0681 -1.2186
 6122TIP3   OH240000   1.132   5.712   1.203 -0.3589 -0.1609  0.3065
 6122TIP3    H140001   1.180   5.643   1.249  0.3510  0.1090 -0.0162
 6122TIP3    H240002   1.199   5.759   1.154 -0.6424  1.4735  1.3977
 6123TIP3   OH240003   4.482   5.991   0.532  0.1210  0.2441  0.0787
 6123TIP3    H140004   4.434   6.072   0.513  0.8792  0.5085 -0.8242
 6123TIP3    H240005   4.499   5.953   0.446  2.6206  0.8378  0.2232
 6124TIP3   OH240006   1.931   1.036   1.034  0.6113  0.4283  0.4968
 6124TIP3    H140007   2.008   1.058   0.981 -0.4611  0.5504 -1.0690
 6124TIP3    H240008   1.955   0.955   1.079  1.4999  0.2331 -0.2997
 6125TIP3   OH240009   1.395   5.303   7.779  0.1918  0.1449  0.4876
 6125TIP3    H140010   1.305   5.303   7.748  0.6842  0.3146 -0.9912
 6125TIP3    H240011   1.443   5.249   7.716  0.9927 -0.6070  1.6948
 6126TIP3   OH240012   0.423   4.369   8.501  0.1410  0.4035 -0.5164
 6126TIP3    H140013   0.504   4.411   8.528 -0.1180  0.9137 -0.5230
 6126TIP3    H240014   0.449   4.308   8.433  0.5377  0.4577 -0.4168
 6127TIP3   OH240015   2.866   3.856   8.095  0.1527  1.0432 -0.4838
 6127TIP3    H140016   2.921   3.778   8.084 -0.6428  0.0899  1.7597
 6127TIP3    H240017   2.859   3.892   8.006 -1.0901 -2.5486 -2.0665
 6128TIP3   OH240018   3.634   4.172   8.603 -0.1526  0.8441 -0.6171
 6128TIP3    H140019   3.573   4.193   8.674  0.0342  0.7533 -0.4284
 6128TIP3    H240020   3.608   4.085   8.574  1.1892 -0.1104  0.8730
 6129TIP3   OH240021   3.185   5.096   2.439  0.7374  0.2828 -0.1093
 6129TIP3    H140022   3.204   5.159   2.369  0.6238 -0.2339 -0.6131
 6129TIP3    H240023   3.139   5.025   2.395  0.5431  0.0164  0.5218
 6130TIP3   OH240024   3.546   6.240   7.834  0.4822 -0.6458  0.7275
 6130TIP3    H140025   3.480   6.249   7.902  0.5776  0.7242  0.6826
 6130TIP3    H240026   3.503   6.275   7.755  0.5694 -1.6666  0.2175
 6131TIP3   OH240027   4.873   6.410   0.496 -0.6889  0.0560  0.2690
 6131TIP3    H140028   4.880   6.421   0.401  1.8406  0.4290  0.4290
 6131TIP3    H240029   4.943   6.348   0.518  1.0583  2.4783  2.1905
 6132TIP3   OH240030   1.583   4.925   1.688  0.2311  0.5134 -0.0306
 6132TIP3    H140031   1.511   4.863   1.685  2.3888 -2.2065  0.0245
 6132TIP3    H240032   1.632   4.909   1.607 -0.3891  3.9362 -1.2320
 6133TIP3   OH240033   3.650   4.086   1.685  0.0038 -0.5436  0.1728
 6133TIP3    H140034   3.718   4.055   1.625  1.6081  1.1044  1.0249
 6133TIP3    H240035   3.669   4.179   1.697 -1.4699 -0.3847  1.6598
 6134TIP3   OH240036   5.707   6.858   7.984  0.4998 -0.1574 -0.1872
 6134TIP3    H140037   5.725   6.936   7.931 -0.7852 -0.6731 -1.4597
 6134TIP3    H240038   5.739   6.785   7.931  1.6320 -0.5413  0.9651
 6135TIP3   OH240039   5.389   4.815   0.826  0.4807  0.9356  0.2193
 6135TIP3    H140040   5.478   4.849   0.823  0.2518  1.6256  0.8591
 6135TIP3    H240041   5.361   4.830   0.917  0.3933 -1.0407  0.5682
 6136TIP3   OH240042   6.825   0.464   2.184 -0.8093 -0.3242  0.3364
 6136TIP3    H140043   6.912   0.462   2.225 -0.4836 -1.2145 -0.3519
 6136TIP3    H240044   6.764   0.447   2.256 -0.4146  0.2871  0.8249
 6137TIP3   OH240045   1.813   2.814   1.210  0.6333 -0.0295  0.3566
 6137TIP3    H140046   1.761   2.778   1.138  2.4911 -0.7256 -0.7135
 6137TIP3    H240047   1.804   2.750   1.280  0.3577 -0.3327  0.0483
 6138TIP3   OH240048   5.027   5.625   7.244 -0.5089  0.2742 -0.1927
 6138TIP3    H140049   5.087   5.570   7.194 -0.5908  1.5050 -1.7221
 6138TIP3    H240050   4.983   5.679   7.178  1.1854  3.7764  1.2705
 6139TIP3   OH240051   0.800   5.415   8.449 -0.0375  0.2015  0.4732
 6139TIP3    H140052   0.812   5.330   8.407  0.4502  0.8287 -0.7187
 6139TIP3    H240053   0.880   5.464   8.428  0.2404  0.5434  2.1958
 6140TIP3   OH240054   6.822   3.304   7.803  0.1510  0.5432  0.6467
 6140TIP3    H140055   6.898   3.308   7.745 -1.3737 -0.7686 -1.5977
 6140TIP3    H240056   6.859   3.301   7.891  2.6632  0.4580 -0.3352
 6141TIP3   OH240057   3.499   2.111   0.509 -0.3746  0.2234 -0.1423
 6141TIP3    H140058   3.566   2.143   0.569  0.2777 -0.3959 -0.5215
 6141TIP3    H240059   3.416   2.136   0.549  0.0331 -0.6501  1.3060
 6142TIP3   OH240060   0.472   3.341   0.168 -0.3015  0.0949  0.4637
 6142TIP3    H140061   0.435   3.325   0.255 -1.3890  1.4193  0.2684
 6142TIP3    H240062   0.551   3.391   0.184  0.9006 -1.8100  0.8131
 6143TIP3   OH240063   1.744   4.131   7.055  0.1137  0.5693  0.4906
 6143TIP3    H140064   1.693   4.138   6.974  2.8390 -0.6930 -1.4781
 6143TIP3    H240065   1.800   4.209   7.055 -0.0738  0.7137  1.3446
 6144TIP3   OH240066   5.495   0.463   0.938 -0.0124  0.2759 -0.0579
 6144TIP3    H140067   5.458   0.432   1.020  1.2061 -1.4377 -0.0882
 6144TIP3    H240068   5.427   0.447   0.873 -0.2546 -0.2254  0.3136
 6145TIP3   OH240069   3.720   4.637   0.264 -0.4994  0.1553  0.6833
 6145TIP3    H140070   3.719   4.700   0.191 -0.5226  0.1653  0.6923
 6145TIP3    H240071   3.743   4.553   0.223  0.3856  0.3342  0.8078
 6146TIP3   OH240072   0.437   3.578   2.204  0.8685  0.2930 -0.5533
 6146TIP3    H140073   0.436   3.488   2.174 -0.5421 -0.3588  1.2542
 6146TIP3    H240074   0.345   3.603   2.209  0.8597  0.1001  3.5635
 6147TIP3   OH240075   6.216   1.817   1.544  0.6323  0.1340 -0.1842
 6147TIP3    H140076   6.299   1.840   1.586  0.1260 -1.1194  1.6266
 6147TIP3    H240077   6.168   1.770   1.611 -1.7990  1.2854 -1.0210
 6148TIP3   OH240078   5.434   2.829   0.017 -0.3339 -0.0858  0.2726
 6148TIP3    H140079   5.408   2.859  -0.070  1.9114  0.1691 -0.3916
 6148TIP3    H240080   5.379   2.753   0.034 -0.9272 -0.0558 -1.3160
 6149TIP3   OH240081   4.694   5.770   7.729  0.6111  0.6590  0.4023
 6149TIP3    H140082   4.684   5.705   7.659  1.9406  1.0043 -0.1458
 6149TIP3    H240083   4.611   5.817   7.731 -0.3329 -0.9485  0.7219
 6150TIP3   OH240084   3.622   0.588   1.939  0.5291 -0.0731 -0.0461
 6150TIP3    H140085   3.667   0.548   2.014  0.9728 -0.2508 -0.4066
 6150TIP3    H240086   3.683   0.654   1.906 -0.3215  1.1466  0.7345
 6151TIP3   OH240087   4.041   6.589   0.805  0.4936 -0.2962  0.2254
 6151TIP3    H140088   3.977   6.518   0.811 -0.2376  0.3769  0.5877
 6151TIP3    H240089   3.988   6.669   0.797  1.2290  0.4100  1.8516
 6152TIP3   OH240090   3.676   4.802   0.063 -0.1792 -0.0158 -0.1877
 6152TIP3    H140091   3.734   4.779  -0.010 -0.3677 -0.3350 -0.2374
 6152TIP3    H240092   3.621   4.872   0.028 -0.7042 -0.6049 -0.5675
 6153TIP3   OH240093   6.279   3.668   7.669  0.4317  0.0182 -0.3698
 6153TIP3    H140094   6.288   3.695   7.761  0.4092  1.4981 -0.7856
 6153TIP3    H240095   6.205   3.719   7.636  0.1466 -0.8497 -1.0952
 6154TIP3   OH240096   6.566   6.153   8.244  0.7893 -0.0670  0.3933
 6154TIP3    H140097   6.571   6.179   8.152 -2.3582 -0.5242 -0.0316
 6154TIP3    H240098   6.634   6.087   8.254  1.8151  0.6537 -1.3324
 6155TIP3   OH240099   1.946   1.252   2.663 -0.6078 -0.0497 -0.3092
 6155TIP3    H140100   1.960   1.297   2.747  1.5409 -0.7047 -0.2526
 6155TIP3    H240101   2.034   1.230   2.633 -1.3028  0.3907 -2.8987
 6156TIP3   OH240102   1.024   0.474   6.446  0.1196  0.2452  0.4482
 6156TIP3    H140103   0.961   0.467   6.374  3.0006 -2.1228 -2.1840
 6156TIP3    H240104   1.093   0.532   6.412  0.8503  0.2642  1.8971
 6157TIP3   OH240105   1.453   0.026   7.948  0.1796 -0.4886 -0.4203
 6157TIP3    H140106   1.428   0.085   7.877  0.3803 -0.7019 -0.6718
 6157TIP3    H240107   1.473  -0.057   7.904  2.6815  0.0388 -0.4222
 6158TIP3   OH240108   3.650   4.761   8.264  0.1583  0.0908 -0.6930
 6158TIP3    H140109   3.680   4.848   8.289  2.2650 -0.5027 -0.9722
 6158TIP3    H240110   3.622   4.770   8.173 -0.9906  0.7437 -0.3039
 6159TIP3   OH240111   3.997   1.064   1.878 -0.1763  0.1819  0.1377
 6159TIP3    H140112   4.019   1.014   1.800  1.0890 -1.5323  1.5075
 6159TIP3    H240113   4.042   1.147   1.866 -0.1646  0.0282 -1.0265
 6160TIP3   OH240114   1.859   5.865   1.167  0.5799  0.2968 -0.2615
 6160TIP3    H140115   1.812   5.861   1.250  1.2061  0.1428  0.0924
 6160TIP3    H240116   1.793   5.894   1.104 -0.5683 -1.9966 -0.2247
 6161TIP3   OH240117   1.819   3.650   1.579 -0.0452  0.1241 -0.1062
 6161TIP3    H140118   1.905   3.682   1.607 -1.2759  2.0373  1.8185
 6161TIP3    H240119   1.821   3.556   1.599  1.1313  0.3942  1.2056
 6162TIP3   OH240120   5.220   0.224   0.611 -0.0176 -0.5319  0.3385
 6162TIP3    H140121   5.158   0.152   0.611  1.6908 -2.0957  1.1107
 6162TIP3    H240122   5.301   0.186   0.574 -0.0706  2.0147 -2.9072
 6163TIP3   OH240123   3.661   5.146   0.841 -0.2633 -0.1159 -0.3002
 6163TIP3    H140124   3.651   5.065   0.892  1.5037 -0.7334 -0.8466
 6163TIP3    H240125   3.714   5.203   0.898 -1.3201  0.5999 -0.0073
 6164TIP3   OH240126   3.586   3.148   0.691 -0.3876 -0.2470  0.1471
 6164TIP3    H140127   3.606   3.124   0.601 -0.8424 -0.6639  0.1496
 6164TIP3    H240128   3.494   3.125   0.702 -0.1692 -0.7983  0.9070
 6165TIP3   OH240129   4.157   5.315   0.284  0.1216  0.0678 -0.4116
 6165TIP3    H140130   4.153   5.403   0.247 -0.4409  1.3095  2.3379
 6165TIP3    H240131   4.242   5.312   0.330 -0.1239 -0.6054  0.0237
 6166TIP3   OH240132   3.247   2.391   0.173 -0.0408  0.6385  0.5849
 6166TIP3    H140133   3.308   2.420   0.241  1.9713  0.6768 -1.1081
 6166TIP3    H240134   3.243   2.463   0.111 -1.3417  0.3711  0.3241
 6167TIP3   OH240135   1.398   0.278   1.450 -0.1922 -0.4646 -0.1674
 6167TIP3    H140136   1.305   0.283   1.476  0.2340  0.3362  1.3524
 6167TIP3    H240137   1.411   0.353   1.392 -1.1290 -2.1942 -2.7815
 6168TIP3   OH240138   2.135   0.925   2.457  0.1075 -0.2238 -0.2609
 6168TIP3    H140139   2.129   1.017   2.480 -0.0059 -0.2116 -0.3384
 6168TIP3    H240140   2.048   0.889   2.474  0.3932 -0.5156  0.6032
 6169TIP3   OH240141   0.384   1.702   0.166 -0.0846  0.0222 -0.1193
 6169TIP3    H140142   0.381   1.659   0.251  1.3892  0.2195  0.0731
 6169TIP3    H240143   0.366   1.633   0.103  0.5457 -0.5171  0.2768
 6170TIP3   OH240144   5.546   2.263   1.754  0.1280 -0.4225  0.5354
 6170TIP3    H140145   5.530   2.175   1.721 -0.4314  0.1177 -0.7068
 6170TIP3    H240146   5.499   2.267   1.837  0.7833 -1.5199  0.9801
 6171TIP3   OH240147   0.707   0.655   8.402  0.6295 -0.1929  0.1705
 6171TIP3    H140148   0.742   0.738   8.434 -0.4504  0.1386  0.5480
 6171TIP3    H240149   0.667   0.614   8.479  0.8504 -0.9042 -0.0821
 6172TIP3   OH240150   6.575   1.554   7.572 -0.4314 -0.3910  0.0316
 6172TIP3    H140151   6.601   1.505   7.651 -1.6505 -1.9842 -0.4969
 6172TIP3    H240152   6.567   1.486   7.505  1.5593  1.0409 -1.7631
 6173TIP3   OH240153   4.693   6.486   6.524 -0.6903 -0.0225 -0.0358
 6173TIP3    H140154   4.654   6.429   6.590  0.4439  1.3102  1.9433
 6173TIP3    H240155   4.776   6.443   6.501 -0.8160 -0.2090 -0.1381
 6174TIP3   OH240156   2.951   3.175   7.678  0.5446 -0.4085 -0.1716
 6174TIP3    H140157   2.892   3.136   7.743 -1.2830  1.2963 -0.7082
 6174TIP3    H240158   3.036   3.175   7.721 -0.3631 -0.4551  1.7532
 6175TIP3   OH240159   4.060   2.302   1.304  0.0428  0.2843  0.1639
 6175TIP3    H140160   3.975   2.270   1.333  1.2623 -1.6297  1.9783
 6175TIP3    H240161   4.082   2.247   1.228 -0.0844  0.3734  0.0625
 6176TIP3   OH240162   2.898   5.921   1.485 -0.4325 -0.3190  0.0243
 6176TIP3    H140163   2.880   5.933   1.392  0.9118  1.1183 -0.0986
 6176TIP3    H240164   2.912   6.010   1.518  0.6143 -0.9071  1.2525
 6177TIP3   OH240165   2.463   2.776   8.326  0.4383  0.4587  0.0699
 6177TIP3    H140166   2.373   2.771   8.294  0.7270 -0.1226 -0.6808
 6177TIP3    H240167   2.455   2.759   8.420 -0.3344  1.4179  0.1935
 6178TIP3   OH240168   3.376   5.159   7.594  0.2288  0.7686  0.1484
 6178TIP3    H140169   3.459   5.128   7.559  0.0481 -0.7253  0.9662
 6178TIP3    H240170   3.357   5.100   7.667 -3.3560 -1.3338 -2.1729
 6179TIP3   OH240171   2.573   4.594   7.994 -0.1891  0.6885  0.0740
 6179TIP3    H140172   2.592   4.681   8.031  1.0104  0.1458  0.7742
 6179TIP3    H240173   2.658   4.560   7.966 -0.8698  0.4626 -1.8964
 6180TIP3   OH240174   1.842   3.286   0.031 -0.4864  0.5800 -0.4174
 6180TIP3    H140175   1.914   3.230   0.000 -0.9342  0.3250 -1.0313
 6180TIP3    H240176   1.813   3.333  -0.047  0.5875  2.5277  0.2823
 6181TIP3   OH240177   3.949   6.488   2.031  0.5791  0.2335  0.3940
 6181TIP3    H140178   4.030   6.521   2.071  1.1806 -0.2504 -0.3903
 6181TIP3    H240179   3.890   6.564   2.031  1.9597  1.3883 -1.4668
 6182TIP3   OH240180   1.238   4.679   1.120  0.0983  0.2723 -0.1600
 6182TIP3    H140181   1.304   4.659   1.186  2.1957  1.0015 -1.9111
 6182TIP3    H240182   1.281   4.658   1.037 -1.8892  0.8234 -1.3880
 6183TIP3   OH240183   0.757   3.931   7.462 -0.5432  0.6774 -0.0276
 6183TIP3    H140184   0.742   3.871   7.388 -1.9298  0.3253  0.5126
 6183TIP3    H240185   0.845   3.909   7.493 -0.3382  0.1378 -0.9413
 6184TIP3   OH240186   5.205   6.255   0.363 -0.1461  0.2199  0.7952
 6184TIP3    H140187   5.129   6.211   0.401 -0.6493  0.5892  0.2297
 6184TIP3    H240188   5.277   6.233   0.422 -0.0854 -2.4053 -0.0833
 6185TIP3   OH240189   1.518   0.195   7.309  0.5455 -0.4020  0.0866
 6185TIP3    H140190   1.536   0.288   7.294 -0.2525 -0.3944 -0.9243
 6185TIP3    H240191   1.603   0.158   7.332  1.0813  0.3768 -0.5780
 6186TIP3   OH240192   0.579   4.830   7.504  0.0409 -0.6350 -0.4091
 6186TIP3    H140193   0.581   4.814   7.409 -0.5030 -1.0461 -0.3603
 6186TIP3    H240194   0.502   4.887   7.517  1.2459  1.0763 -0.4320
 6187TIP3   OH240195   5.718   1.848   7.375 -0.6726 -0.0858  0.2070
 6187TIP3    H140196   5.732   1.937   7.344  3.0193 -0.5355  0.1309
 6187TIP3    H240197   5.740   1.850   7.468  1.1938 -1.1664 -0.1592
 6188TIP3   OH240198   1.950   4.960   7.769 -0.3532  0.7006 -0.2217
 6188TIP3    H140199   2.033   4.914   7.765 -0.8004 -0.0294 -2.7231
 6188TIP3    H240200   1.970   5.049   7.738 -0.4401  0.5736 -0.6587
 6189TIP3   OH240201   1.536   0.401   6.947 -0.0283  0.1601  0.6497
 6189TIP3    H140202   1.561   0.424   6.857  0.5596 -0.4325  0.6565
 6189TIP3    H240203   1.581   0.319   6.965 -0.5124  0.0310  1.3320
 6190TIP3   OH240204   0.753   6.693   7.771  0.0001  0.1598  0.6483
 6190TIP3    H140205   0.826   6.723   7.825 -0.0236 -0.1802  0.8693
 6190TIP3    H240206   0.794   6.646   7.699  0.0604  1.0676  0.0680
 6191TIP3   OH240207   3.335   2.511   7.365  0.5809  0.0089  0.3540
 6191TIP3    H140208   3.309   2.458   7.439  0.6269  1.3822  1.4040
 6191TIP3    H240209   3.258   2.513   7.308  0.5425 -1.0530  0.3578
 6192TIP3   OH240210   2.773   3.793   0.057  0.0485 -0.4689  0.6545
 6192TIP3    H140211   2.785   3.816   0.149 -0.2133 -2.1423  1.1314
 6192TIP3    H240212   2.819   3.710   0.046  0.2174 -0.2133 -0.7784
 6193TIP3   OH240213   2.916   3.360   1.490  0.3885  0.0799 -0.3556
 6193TIP3    H140214   2.872   3.276   1.491 -0.5423  0.5518  1.1762
 6193TIP3    H240215   2.856   3.418   1.443 -0.3127  0.5328  1.0432
 6194TIP3   OH240216   2.986   0.504   8.049  0.2810 -0.1765 -0.3493
 6194TIP3    H140217   2.976   0.445   7.975 -0.1282 -0.3977 -0.1159
 6194TIP3    H240218   3.037   0.454   8.113  0.0491 -0.2248 -0.2050
 6195TIP3   OH240219   5.007   3.868   8.283  0.3699 -0.4916  0.6859
 6195TIP3    H140220   5.045   3.922   8.214 -0.1055 -0.6998  0.2566
 6195TIP3    H240221   4.952   3.927   8.333 -1.2861 -0.8244 -0.6345
 6196TIP3   OH240222   1.370   3.895   7.233 -0.1989  0.2197 -0.8482
 6196TIP3    H140223   1.327   3.860   7.155  2.8209 -1.2386 -2.0299
 6196TIP3    H240224   1.366   3.824   7.297 -1.6824  1.0171  0.0118
 6197TIP3   OH240225   6.580   1.025   1.416 -0.1192 -0.0956 -0.3850
 6197TIP3    H140226   6.600   1.084   1.343  0.6231 -1.9362 -1.7559
 6197TIP3    H240227   6.551   1.083   1.486 -0.4744  1.8010 -1.9934
 6198TIP3   OH240228   2.894   5.315   7.469  0.3884  0.0417 -0.4625
 6198TIP3    H140229   2.901   5.407   7.492  1.1097 -0.1632  0.1840
 6198TIP3    H240230   2.968   5.273   7.512  1.0152 -0.5927 -2.0483
 6199TIP3   OH240231   6.671   3.386   6.478  0.0177  0.4655 -0.6547
 6199TIP3    H140232   6.710   3.306   6.443 -1.8821 -1.3660  1.1634
 6199TIP3    H240233   6.734   3.417   6.543  0.1192 -0.3677 -0.3477
 6200TIP3   OH240234   1.152   4.941   0.139  0.0589  0.7089 -0.5247
 6200TIP3    H140235   1.193   5.012   0.189  0.8547 -0.4499  0.5296
 6200TIP3    H240236   1.079   4.982   0.094  1.2435  2.4703 -0.9509
 6201TIP3   OH240237   5.908   1.741   7.580 -0.4658  0.1862  0.1536
 6201TIP3    H140238   5.884   1.652   7.556 -0.4912  0.6332 -1.6269
 6201TIP3    H240239   5.995   1.754   7.540 -0.7160  1.1387 -0.1178
 6202TIP3   OH240240   5.629   2.409   2.433  0.1874 -0.3389 -0.1544
 6202TIP3    H140241   5.553   2.423   2.489  0.4913  0.6725  0.0178
 6202TIP3    H240242   5.593   2.371   2.353 -0.5313  0.3967 -0.1915
 6203TIP3   OH240243   5.245   3.303   7.056  0.3574 -0.0880 -0.6232
 6203TIP3    H140244   5.327   3.266   7.088  0.6714  0.5969 -0.6180
 6203TIP3    H240245   5.181   3.232   7.066  0.7185 -0.2974  0.3528
 6204TIP3   OH240246   6.027   1.671   0.260  0.3743 -0.0688 -0.3343
 6204TIP3    H140247   6.094   1.739   0.259  1.1543 -0.7836  0.6753
 6204TIP3    H240248   5.964   1.700   0.325  0.5386 -0.1533 -0.1367
 6205TIP3   OH240249   5.338   0.456   2.328  0.0458  0.9701 -0.4602
 6205TIP3    H140250   5.298   0.381   2.373  1.1798  0.6879  0.1177
 6205TIP3    H240251   5.400   0.416   2.267  1.3349  1.4397  0.5014
 6206TIP3   OH240252   2.161   4.337   2.078  0.2887  0.2971 -0.6305
 6206TIP3    H140253   2.252   4.343   2.049  0.2225  1.5327 -0.6370
 6206TIP3    H240254   2.165   4.359   2.171 -0.0585  0.7778 -0.7301
 6207TIP3   OH240255   1.266   5.984   0.588 -0.3896 -0.1167 -0.1427
 6207TIP3    H140256   1.315   5.914   0.545 -0.5626 -0.2140 -0.1824
 6207TIP3    H240257   1.307   6.065   0.557  1.3372 -0.2294  1.6915
 6208TIP3   OH240258   1.915   5.205   7.983  0.6425 -0.5845 -0.2174
 6208TIP3    H140259   1.967   5.271   7.937  2.6744 -1.8287  0.1806
 6208TIP3    H240260   1.976   5.164   8.043 -1.0958 -1.4131  1.0688
 6209TIP3   OH240261   5.204   6.105   8.144 -0.1116  0.3121 -0.0489
 6209TIP3    H140262   5.184   6.018   8.178  2.8354 -1.0456 -1.4184
 6209TIP3    H240263   5.182   6.099   8.051  1.8033  0.3687 -0.5322
 6210TIP3   OH240264   1.498   0.449   1.216  0.4677 -0.1574 -0.2731
 6210TIP3    H140265   1.549   0.419   1.291 -0.0661 -1.5544 -0.4325
 6210TIP3    H240266   1.482   0.370   1.165  1.4693  0.8561 -2.2772
 6211TIP3   OH240267   2.926   0.267   2.193 -0.4709  0.4605  0.2810
 6211TIP3    H140268   2.962   0.257   2.281  0.4167  2.4180  0.1792
 6211TIP3    H240269   2.858   0.333   2.202 -2.2737 -1.2470 -0.0503
 6212TIP3   OH240270   6.659   6.454   0.891 -0.1585 -0.7888 -0.2101
 6212TIP3    H140271   6.720   6.401   0.839 -0.6759 -0.4140 -1.2196
 6212TIP3    H240272   6.574   6.412   0.878 -0.7244  0.7103 -1.6779
 6213TIP3   OH240273   1.663   0.017   6.510  0.1692 -0.2296 -0.3107
 6213TIP3    H140274   1.754   0.043   6.522  0.4799 -0.4110 -2.0998
 6213TIP3    H240275   1.667  -0.067   6.465 -0.8458  0.6211 -2.1219
 6214TIP3   OH240276   1.013   3.243   8.642  0.6403  0.0357 -0.0693
 6214TIP3    H140277   0.996   3.185   8.567  0.8491  0.6243 -0.5788
 6214TIP3    H240278   1.102   3.222   8.669  1.2985  1.1865 -1.2405
 6215TIP3   OH240279   3.498   6.449   7.586  0.1000  0.1142  0.7885
 6215TIP3    H140280   3.480   6.541   7.568  0.3605 -0.0922 -0.7049
 6215TIP3    H240281   3.411   6.409   7.594 -0.1365 -0.0133 -1.5840
 6216TIP3   OH240282   6.909   4.820   1.457 -0.4632  0.0291  0.0584
 6216TIP3    H140283   6.955   4.854   1.380 -0.0344 -1.4254 -0.3563
 6216TIP3    H240284   6.911   4.892   1.520  1.1253  0.4761 -0.4671
 6217TIP3   OH240285   1.804   6.108   1.844 -0.1375  0.3164 -0.1396
 6217TIP3    H140286   1.716   6.143   1.863  0.5123  0.6806  2.6596
 6217TIP3    H240287   1.862   6.157   1.903  1.5556 -1.8058  0.0656
 6218TIP3   OH240288   6.678   3.941   1.627  0.6999 -0.1254 -0.0025
 6218TIP3    H140289   6.739   3.962   1.556  1.4815 -0.7394  0.4658
 6218TIP3    H240290   6.729   3.885   1.686  0.3019  0.9639  1.4258
 6219TIP3   OH240291   0.912   1.774   8.205  0.0050 -0.1307  0.0816
 6219TIP3    H140292   0.957   1.759   8.288 -1.6877  0.0545  1.0694
 6219TIP3    H240293   0.844   1.706   8.201  0.2711 -0.3571 -1.3309
 6220TIP3   OH240294   4.719   2.263   7.196 -0.0743 -0.1093  0.1744
 6220TIP3    H140295   4.763   2.320   7.133  0.2041 -1.4404 -0.8656
 6220TIP3    H240296   4.790   2.230   7.252  0.0481 -0.9885 -0.4862
 6221TIP3   OH240297   4.242   1.791   8.220 -0.0619 -0.0118 -0.2454
 6221TIP3    H140298   4.330   1.763   8.246  1.0811  2.4427 -1.1494
 6221TIP3    H240299   4.194   1.798   8.302  1.5218  1.4113  0.6369
 6222TIP3   OH240300   3.405   3.264   8.556 -0.1922 -0.2240  0.1976
 6222TIP3    H140301   3.317   3.238   8.529 -0.6076 -1.1786  2.2417
 6222TIP3    H240302   3.409   3.358   8.536 -1.4263 -0.3069 -0.5460
 6223TIP3   OH240303   3.638   5.921   6.915 -0.6803 -0.1196 -0.2222
 6223TIP3    H140304   3.615   6.013   6.904 -1.9673 -0.3918  0.0354
 6223TIP3    H240305   3.625   5.883   6.828  2.4107  0.4104 -1.0407
 6224TIP3   OH240306   4.305   4.613   2.186 -0.1348  0.4853 -0.0279
 6224TIP3    H140307   4.270   4.537   2.138  0.8462 -0.5339  0.8072
 6224TIP3    H240308   4.242   4.683   2.169 -1.1272 -0.5401 -0.7533
 6225TIP3   OH240309   3.031   0.649   0.948 -0.1558  0.3506  0.2287
 6225TIP3    H140310   3.023   0.555   0.962 -1.4908  0.0379 -2.0171
 6225TIP3    H240311   3.122   0.663   0.924 -0.4482 -0.8206 -1.7898
 6226TIP3   OH240312   3.793   4.904   0.979 -0.0890  0.1260 -0.9535
 6226TIP3    H140313   3.881   4.872   0.959  0.4087 -0.9531  2.4221
 6226TIP3    H240314   3.806   4.997   0.999  0.1584  0.1452 -1.1965
 6227TIP3   OH240315   3.050   3.872   0.897 -0.3668  0.5621  0.2395
 6227TIP3    H140316   3.033   3.801   0.959 -0.9938 -0.8555 -1.4726
 6227TIP3    H240317   3.126   3.918   0.934  0.7851 -1.6907  0.8598
 6228TIP3   OH240318   3.697   4.642   1.391  0.3001 -0.0470  0.2724
 6228TIP3    H140319   3.752   4.575   1.350  1.1413  1.2782 -0.8238
 6228TIP3    H240320   3.648   4.680   1.318 -0.7873 -0.0005  1.0035
 6229TIP3   OH240321   4.053   5.775   6.595 -0.0048  0.2786 -0.0771
 6229TIP3    H140322   4.028   5.688   6.565  1.6031  0.1631 -1.2224
 6229TIP3    H240323   4.093   5.816   6.518 -0.6452  2.0037  0.4727
 6230TIP3   OH240324   6.067   4.518   7.672  0.2511  0.1494  0.0065
 6230TIP3    H140325   6.078   4.459   7.747 -2.5187 -1.4758 -0.7127
 6230TIP3    H240326   5.976   4.549   7.679  0.5714  1.6066 -1.5787
 6231TIP3   OH240327   6.616   5.916   2.429 -0.6137  0.2013 -0.4834
 6231TIP3    H140328   6.585   5.826   2.418  0.7902 -0.7937  2.6357
 6231TIP3    H240329   6.701   5.918   2.387 -1.0335  0.3783 -1.3498
 6232TIP3   OH240330   6.223   3.689   1.250 -0.7806  0.4105 -0.7356
 6232TIP3    H140331   6.182   3.755   1.306 -1.5728 -0.6702 -0.0117
 6232TIP3    H240332   6.184   3.606   1.277  1.8092 -0.7013 -0.0264
 6233TIP3   OH240333   2.034   1.305   2.371  0.2411 -0.9686  0.3869
 6233TIP3    H140334   2.003   1.286   2.459  0.9508 -0.7455  0.6915
 6233TIP3    H240335   2.124   1.333   2.383  0.1973 -0.4850 -0.3669
 6234TIP3   OH240336   6.211   6.528   0.050  0.5493 -0.0336  0.0662
 6234TIP3    H140337   6.234   6.599   0.110 -0.2772  0.6405 -0.3872
 6234TIP3    H240338   6.202   6.570  -0.035 -2.4444 -0.1336  0.2098
 6235TIP3   OH240339   1.720   2.008   2.194 -0.1883 -0.5563 -0.4103
 6235TIP3    H140340   1.811   1.982   2.181 -0.1059 -0.9285  0.7701
 6235TIP3    H240341   1.710   2.088   2.142  0.6978 -0.7230 -0.8568
 6236TIP3   OH240342   4.175   6.473   0.273 -0.4304  0.4299 -0.0305
 6236TIP3    H140343   4.154   6.410   0.204  0.7565  0.2457 -0.2359
 6236TIP3    H240344   4.185   6.557   0.227  2.1847 -0.0099 -0.4101
 6237TIP3   OH240345   4.177   2.677   0.043  0.2058 -1.0061  0.0880
 6237TIP3    H140346   4.194   2.635  -0.041  1.2751  2.1701 -1.4239
 6237TIP3    H240347   4.239   2.750   0.046 -0.6890 -0.2414  3.0885
 6238TIP3   OH240348   4.442   0.815   1.092  0.4468  0.1968  0.0060
 6238TIP3    H140349   4.424   0.904   1.124 -0.1464  0.6254 -1.3967
 6238TIP3    H240350   4.480   0.769   1.166 -0.2067  1.3271  1.0744
 6239TIP3   OH240351   0.727   3.912   7.104  0.4381 -0.2327 -0.2960
 6239TIP3    H140352   0.700   3.837   7.157  0.2420  0.8908  1.2499
 6239TIP3    H240353   0.652   3.971   7.106  0.4729 -0.1134 -1.7632
 6240TIP3   OH240354   2.272   3.010   8.248 -0.2671 -0.4135  0.2863
 6240TIP3    H140355   2.183   2.982   8.268 -0.2979  0.2795  1.1967
 6240TIP3    H240356   2.309   3.037   8.332  1.2183 -1.7929  0.1285
 6241TIP3   OH240357   0.250   1.683   7.132 -0.2578 -0.9184 -0.9249
 6241TIP3    H140358   0.329   1.692   7.079 -0.8922 -0.0605 -1.7591
 6241TIP3    H240359   0.196   1.620   7.083  0.2934 -2.2792  0.1488
 6242TIP3   OH240360   6.080   5.719   8.481 -0.3875 -0.4772 -0.2482
 6242TIP3    H140361   6.035   5.677   8.554  2.4056 -2.0763  0.6981
 6242TIP3    H240362   6.126   5.794   8.520  0.0396 -0.5416 -0.6129
 6243TIP3   OH240363   5.320   2.568   7.091 -0.0692  0.0036  0.5723
 6243TIP3    H140364   5.245   2.511   7.106 -2.2102  1.8709 -1.9264
 6243TIP3    H240365   5.318   2.586   6.996  2.6357  1.3545  0.6690
 6244TIP3   OH240366   1.168   0.190   6.393  0.2742 -0.1851 -0.3408
 6244TIP3    H140367   1.078   0.187   6.361  0.3045 -1.2728 -0.3778
 6244TIP3    H240368   1.206   0.267   6.352  0.0574 -1.0563 -2.2680
 6245TIP3   OH240369   5.521   6.368   7.585 -0.3189  0.1135  0.4810
 6245TIP3    H140370   5.493   6.415   7.506  0.0320 -0.9148 -0.2784
 6245TIP3    H240371   5.461   6.398   7.653 -1.2637  0.2872 -0.3991
 6246TIP3   OH240372   6.210   5.134   7.313 -0.6020 -0.2827  0.0813
 6246TIP3    H140373   6.170   5.166   7.232  0.1826  2.2955  0.6315
 6246TIP3    H240374   6.143   5.150   7.380  0.8166  3.3603  0.8777
 6247TIP3   OH240375   1.984   1.542   0.641  0.0364 -1.0069 -0.2526
 6247TIP3    H140376   1.944   1.464   0.678 -0.5434 -2.0799 -2.9203
 6247TIP3    H240377   1.914   1.607   0.639 -0.4326 -1.5233 -1.0548
 6248TIP3   OH240378   3.251   4.460   0.818  0.6868 -0.0421 -0.3871
 6248TIP3    H140379   3.210   4.539   0.783  0.0662  0.2928  1.0055
 6248TIP3    H240380   3.313   4.492   0.884  0.6476 -0.7072 -0.0172
 6249TIP3   OH240381   4.991   2.076   2.519 -0.1721  0.2692  0.2076
 6249TIP3    H140382   5.044   2.147   2.555 -1.5414  2.1031 -1.2194
 6249TIP3    H240383   5.054   2.019   2.476  0.8579  1.2583  0.3534
 6250TIP3   OH240384   3.710   0.032   0.404  0.3708  0.4236 -0.0721
 6250TIP3    H140385   3.773   0.077   0.460  1.7176 -0.6872 -0.6410
 6250TIP3    H240386   3.763  -0.018   0.343 -1.0694  0.3117 -1.3054
 6251TIP3   OH240387   1.637   4.475   1.566  0.4163 -0.0235 -0.7797
 6251TIP3    H140388   1.592   4.397   1.535  2.1084 -1.3471 -0.0398
 6251TIP3    H240389   1.572   4.520   1.621 -0.8496 -0.4308 -1.8992
 6252TIP3   OH240390   0.203   3.963   2.275 -1.1554 -0.5893 -0.1896
 6252TIP3    H140391   0.268   3.959   2.346  0.5411 -0.4640 -1.6671
 6252TIP3    H240392   0.150   4.040   2.296  0.4091  0.4640  0.0718
 6253TIP3   OH240393   3.910   0.913   1.475 -0.2334  0.6102 -0.6877
 6253TIP3    H140394   3.932   0.921   1.382  0.3123  0.1751 -0.6003
 6253TIP3    H240395   3.863   0.830   1.481 -1.7165  1.4147 -0.8333
 6254TIP3   OH240396   1.189   5.023   7.812  1.1902  0.0748  0.6768
 6254TIP3    H140397   1.274   4.997   7.847  1.4586 -0.5164 -0.3766
 6254TIP3    H240398   1.141   5.056   7.888  1.2087 -2.5515  1.9239
 6255TIP3   OH240399   6.538   4.755   0.054 -0.1772 -0.4383  0.3020
 6255TIP3    H140400   6.565   4.680   0.002 -0.0930 -0.5900  0.5667
 6255TIP3    H240401   6.510   4.820  -0.011  1.4544 -0.0082 -0.0196
 6256TIP3   OH240402   4.950   5.425   6.944 -0.4184 -0.1843 -0.0756
 6256TIP3    H140403   4.938   5.519   6.934  0.2643  0.0379  1.0429
 6256TIP3    H240404   4.862   5.391   6.961 -0.6291  0.2803 -0.2241
 6257TIP3   OH240405   5.504   2.981   1.871  0.7535  0.9185  0.7438
 6257TIP3    H140406   5.590   2.945   1.852 -0.4120 -1.6596 -0.1562
 6257TIP3    H240407   5.478   3.026   1.790  0.6143  0.3188  0.4552
 6258TIP3   OH240408   0.836   6.212   6.990  0.5849  0.2895  0.1406
 6258TIP3    H140409   0.860   6.128   6.950 -1.9120 -0.1853 -0.5225
 6258TIP3    H240410   0.884   6.277   6.939  1.6054 -0.6359 -0.1229
 6259TIP3   OH240411   4.545   0.927   1.528  0.6540 -0.2067 -0.9553
 6259TIP3    H140412   4.533   0.845   1.479 -1.2393 -0.2117 -0.5579
 6259TIP3    H240413   4.463   0.975   1.515  0.1886 -0.0480  1.9136
 6260TIP3   OH240414   2.598   4.955   8.024  0.1270 -0.4125 -0.0101
 6260TIP3    H140415   2.587   5.047   7.999  0.6097  0.4627  2.5754
 6260TIP3    H240416   2.665   4.922   7.965 -1.5505  0.2106 -2.3951
 6261TIP3   OH240417   4.693   0.490   0.647  0.0192 -0.1870 -0.4147
 6261TIP3    H140418   4.773   0.445   0.620  2.9973  1.9219  3.7848
 6261TIP3    H240419   4.651   0.429   0.708  1.1271  0.5339  1.1088
 6262TIP3   OH240420   6.202   0.828   1.163 -0.1582  0.3315  0.1238
 6262TIP3    H140421   6.185   0.806   1.254  1.5978 -1.0906  0.1530
 6262TIP3    H240422   6.248   0.912   1.166  0.8419 -0.2179  0.6490
 6263TIP3   OH240423   4.294   3.909   0.259  0.3055 -0.4619 -0.4421
 6263TIP3    H140424   4.295   4.000   0.290  1.3297 -0.3972 -0.6284
 6263TIP3    H240425   4.278   3.857   0.337  1.0579 -0.1955 -0.1039
 6264TIP3   OH240426   2.008   1.830   7.118  0.5722  0.5562 -0.0416
 6264TIP3    H140427   1.924   1.787   7.138  0.5397  0.3406 -0.6148
 6264TIP3    H240428   1.989   1.924   7.125 -0.2154  0.5804 -1.9726
 6265TIP3   OH240429   6.738   4.018   2.349  0.2236  0.8972 -0.0526
 6265TIP3    H140430   6.701   4.056   2.428 -0.9777 -0.8464  0.2909
 6265TIP3    H240431   6.824   4.058   2.341  0.0873  1.6342  1.7429
 6266TIP3   OH240432   5.290   4.741   6.404  0.2545  0.1898 -0.6555
 6266TIP3    H140433   5.288   4.781   6.492  1.0400  1.5586 -1.2209
 6266TIP3    H240434   5.383   4.726   6.387  0.1885  0.8084 -1.6274
 6267TIP3   OH240435   4.732   0.141   7.189 -0.6224  0.0592  0.5204
 6267TIP3    H140436   4.811   0.193   7.172 -0.6563 -0.1456 -0.3558
 6267TIP3    H240437   4.720   0.145   7.283 -0.5717  1.5603  0.4873
 6268TIP3   OH240438   3.219   3.878   8.235 -0.1285 -0.3399 -0.2574
 6268TIP3    H140439   3.156   3.950   8.230 -0.2550 -0.4239  0.0863
 6268TIP3    H240440   3.270   3.884   8.154 -0.2506  0.0318 -0.3059
 6269TIP3   OH240441   5.516   4.932   1.353  0.5959 -0.3736  0.0218
 6269TIP3    H140442   5.572   4.950   1.278 -2.3715  0.9361 -2.0558
 6269TIP3    H240443   5.490   5.018   1.385 -1.1024 -0.9250  0.1868
 6270TIP3   OH240444   2.772   6.178   0.015 -0.6258 -0.2941 -0.1260
 6270TIP3    H140445   2.784   6.128  -0.065  0.0384 -0.5195  0.1072
 6270TIP3    H240446   2.861   6.196   0.046 -0.8622  0.5505  0.0897
 6271TIP3   OH240447   4.244   2.995   8.333 -0.1378  0.6648  0.4348
 6271TIP3    H140448   4.190   2.919   8.310  0.3950  0.0989  1.0401
 6271TIP3    H240449   4.329   2.958   8.356  0.8692  1.6061 -1.4905
 6272TIP3   OH240450   2.837   3.956   6.549  0.3658  0.0110 -0.4420
 6272TIP3    H140451   2.748   3.979   6.576  1.0862  0.4669  1.8228
 6272TIP3    H240452   2.826   3.909   6.466 -2.0245 -0.5364  0.1004
 6273TIP3   OH240453   3.071   0.738   1.546 -0.4736 -0.4436 -0.2370
 6273TIP3    H140454   3.017   0.796   1.492 -1.5218 -1.5648 -0.4420
 6273TIP3    H240455   3.096   0.792   1.621  0.8697  1.0980 -1.7062
 6274TIP3   OH240456   4.085   3.443   7.077 -0.2508 -0.3764 -0.4046
 6274TIP3    H140457   4.148   3.374   7.057 -3.1195 -2.8905 -1.5194
 6274TIP3    H240458   4.079   3.495   6.996  0.2445 -0.2349 -0.3505
 6275TIP3   OH240459   1.911   1.633   7.390  0.2073  0.8146  0.2143
 6275TIP3    H140460   1.955   1.717   7.401  0.4160  0.7351 -0.0240
 6275TIP3    H240461   1.859   1.623   7.470  0.9821  0.6883  0.7190
 6276TIP3   OH240462   5.870   4.279   1.952  0.2424  0.0153  0.2193
 6276TIP3    H140463   5.838   4.203   1.999  0.3116  0.3994  0.9050
 6276TIP3    H240464   5.816   4.352   1.983 -0.0603  0.1838 -0.6938
 6277TIP3   OH240465   6.666   1.034   1.077 -0.5922 -0.0028 -0.3125
 6277TIP3    H140466   6.672   1.128   1.095 -1.4794  0.1344 -0.6988
 6277TIP3    H240467   6.655   1.030   0.982 -0.4533 -0.5073 -0.3060
 6278TIP3   OH240468   4.205   2.267   7.450  0.0559  0.0631 -0.6096
 6278TIP3    H140469   4.226   2.272   7.544 -1.4712 -0.6490 -0.1950
 6278TIP3    H240470   4.289   2.254   7.407  0.7478  0.0500  0.7037
 6279TIP3   OH240471   5.420   5.554   1.263  0.4007 -0.3420  0.3240
 6279TIP3    H140472   5.416   5.649   1.250 -1.0018 -0.3348  0.6295
 6279TIP3    H240473   5.510   5.530   1.240  0.8613  1.0971  0.5397
 6280TIP3   OH240474   0.642   0.253   2.387 -0.0015  0.0312  0.3212
 6280TIP3    H140475   0.704   0.265   2.314 -0.8604 -0.0306 -0.4355
 6280TIP3    H240476   0.626   0.341   2.419 -0.9930  0.2763 -0.7542
 6281TIP3   OH240477   4.590   1.683   7.381  0.0489 -0.1512  0.3198
 6281TIP3    H140478   4.561   1.592   7.369 -1.0933  0.1326  0.8202
 6281TIP3    H240479   4.647   1.680   7.458 -0.1004 -0.4203  0.4204
 6282TIP3   OH240480   6.423   3.433   7.207  0.4590  0.4803  0.2771
 6282TIP3    H140481   6.454   3.343   7.216 -1.8155 -0.3076  0.8404
 6282TIP3    H240482   6.456   3.462   7.122  1.1273 -0.9094  0.0379
 6283TIP3   OH240483   1.224   1.400   7.497  0.5570  0.1183  0.7234
 6283TIP3    H140484   1.212   1.492   7.473 -1.2509  0.2109  1.7636
 6283TIP3    H240485   1.230   1.402   7.593 -0.3895 -0.8938  0.8243
 6284TIP3   OH240486   2.023   0.507   8.363  0.3602 -0.7120  0.0782
 6284TIP3    H140487   1.946   0.523   8.309 -0.5028  0.4974  1.5781
 6284TIP3    H240488   2.017   0.415   8.389 -1.5614 -0.2232  1.5758
 6285TIP3   OH240489   3.064   2.288   1.534 -0.1681  0.0937 -0.4279
 6285TIP3    H140490   3.106   2.223   1.590 -1.8037 -1.3206 -0.7295
 6285TIP3    H240491   2.990   2.320   1.586  0.2927  1.3165 -0.5067
 6286TIP3   OH240492   2.579   1.305   7.755 -0.3530  0.1658 -0.5550
 6286TIP3    H140493   2.672   1.323   7.742  0.0703 -1.2141  0.3262
 6286TIP3    H240494   2.551   1.262   7.675  0.3089 -1.3047 -0.0262
 6287TIP3   OH240495   0.940   3.446   0.139  0.2312  0.1830 -0.3189
 6287TIP3    H140496   0.973   3.376   0.082  1.0196  0.6181 -0.4108
 6287TIP3    H240497   0.975   3.526   0.101  0.2873  0.5285  0.4459
 6288TIP3   OH240498   1.942   6.410   7.981 -0.1039  0.0238 -0.2839
 6288TIP3    H140499   1.985   6.326   7.966  2.1224  1.3495 -1.9054
 6288TIP3    H240500   1.916   6.440   7.894 -1.4171  0.7887  0.3252
 6289TIP3   OH240501   3.867   3.727   1.526  0.8828  0.1014 -0.3222
 6289TIP3    H140502   3.783   3.766   1.505  1.0397  0.6815  0.1177
 6289TIP3    H240503   3.871   3.726   1.621 -0.3403 -3.6304 -0.1542
 6290TIP3   OH240504   6.852   0.610   1.255  0.3199 -0.5013 -0.5184
 6290TIP3    H140505   6.787   0.636   1.321 -0.4534 -0.6830 -1.1913
 6290TIP3    H240506   6.884   0.692   1.219  0.4476 -0.4115 -0.2060
 6291TIP3   OH240507   4.248   2.602   8.473 -0.2728 -0.7479  0.0790
 6291TIP3    H140508   4.166   2.566   8.440  0.2257 -1.4554 -0.4154
 6291TIP3    H240509   4.295   2.630   8.395  0.4325 -1.3799  0.2690
 6292TIP3   OH240510   5.538   4.615   7.944 -0.4267 -0.2077  0.1428
 6292TIP3    H140511   5.589   4.535   7.931  1.3630  0.7303  1.0048
 6292TIP3    H240512   5.501   4.605   8.032 -0.6841 -0.3313  0.0216
 6293TIP3   OH240513   5.091   2.833   8.089  0.2029 -0.7246 -0.8304
 6293TIP3    H140514   5.015   2.890   8.097  2.3520  2.0621  1.9441
 6293TIP3    H240515   5.147   2.876   8.024  0.9578 -0.7729 -0.2227
 6294TIP3   OH240516   6.322   4.603   1.480 -0.3156  0.1312  0.1978
 6294TIP3    H140517   6.298   4.627   1.569  0.0334  1.0894  0.0497
 6294TIP3    H240518   6.386   4.669   1.454 -0.6688  0.0740 -0.8837
 6295TIP3   OH240519   2.009   2.720   8.510  0.1624 -0.2560 -0.2755
 6295TIP3    H140520   1.977   2.774   8.437  2.3150 -1.5718 -2.3673
 6295TIP3    H240521   2.081   2.772   8.547 -0.2903 -0.0169  0.2699
 6296TIP3   OH240522   0.365   4.075   2.471 -0.5038  0.0535  0.1491
 6296TIP3    H140523   0.379   4.163   2.437  1.0443 -0.3189 -0.2264
 6296TIP3    H240524   0.369   4.086   2.566 -0.1358  0.3549  0.1011
 6297TIP3   OH240525   0.557   6.371   0.707  0.9497  0.0091  0.4299
 6297TIP3    H140526   0.486   6.307   0.703  0.3485  0.4674  2.4213
 6297TIP3    H240527   0.636   6.319   0.693  0.3936 -0.9536  0.7166
 6298TIP3   OH240528   1.406   0.205   7.761 -0.0208 -0.2644 -0.1214
 6298TIP3    H140529   1.394   0.220   7.667 -0.2724  0.3338  0.0003
 6298TIP3    H240530   1.356   0.276   7.803 -0.1644 -0.7056  0.4653
 6299TIP3   OH240531   1.669   6.834   2.016 -0.1754  0.0933 -0.2139
 6299TIP3    H140532   1.636   6.923   2.029 -1.7286 -0.3238 -1.0468
 6299TIP3    H240533   1.616   6.780   2.075 -0.4784 -0.5131 -1.0333
 6300TIP3   OH240534   2.541   4.519   6.694 -0.0312  0.3320 -0.2830
 6300TIP3    H140535   2.452   4.497   6.667 -0.7862  2.2784  0.4333
 6300TIP3    H240536   2.597   4.476   6.629 -1.5277 -0.1568 -1.3082
 6301TIP3   OH240537   0.230   0.804   8.571  0.0360 -0.3633 -0.2226
 6301TIP3    H140538   0.210   0.792   8.664 -0.6664 -1.8762 -0.5441
 6301TIP3    H240539   0.173   0.877   8.544  0.6413  0.4472  0.6385
 6302TIP3   OH240540   5.702   1.577   1.515  0.0130  0.0151 -0.6919
 6302TIP3    H140541   5.737   1.664   1.534 -0.3532  0.2158 -0.9206
 6302TIP3    H240542   5.671   1.583   1.425 -0.1056 -0.3219 -0.6738
 6303TIP3   OH240543   4.219   5.197   1.602  0.0355 -0.0773  0.2670
 6303TIP3    H140544   4.134   5.240   1.597  0.1152 -0.0346 -1.3528
 6303TIP3    H240545   4.200   5.109   1.636 -0.7451 -0.2605 -0.6090
 6304TIP3   OH240546   3.127   4.937   1.407  0.0947  0.0828  0.2175
 6304TIP3    H140547   3.124   4.884   1.327 -2.1087 -0.9800  0.9252
 6304TIP3    H240548   3.219   4.957   1.419  0.7435 -1.6528 -1.3690
 6305TIP3   OH240549   4.034   6.464   7.190  0.0617 -0.2017  0.1101
 6305TIP3    H140550   4.078   6.548   7.179 -0.2678  0.1376  1.2425
 6305TIP3    H240551   4.103   6.405   7.220  0.0079  0.0296  0.7070
 6306TIP3   OH240552   5.864   4.622   0.103 -0.2809 -0.6153  0.0240
 6306TIP3    H140553   5.952   4.585   0.092 -0.4329 -1.8040  2.2526
 6306TIP3    H240554   5.809   4.570   0.044  0.1846 -1.3214  0.1916
 6307TIP3   OH240555   5.539   1.924   6.443  0.2252 -0.6580 -0.5159
 6307TIP3    H140556   5.515   1.861   6.511  1.8283 -1.9465 -1.0830
 6307TIP3    H240557   5.620   1.965   6.475 -0.5173  0.7795 -0.3954
 6308TIP3   OH240558   4.813   0.931   7.228 -0.0593  0.0067  0.7023
 6308TIP3    H140559   4.848   0.949   7.315  2.7659 -1.2690 -0.0514
 6308TIP3    H240560   4.798   1.018   7.190 -0.6190  0.5785  2.1639
 6309TIP3   OH240561   4.725   4.635   2.219 -0.8508 -0.6050  0.1811
 6309TIP3    H140562   4.802   4.686   2.244 -0.0099 -0.9937 -1.5019
 6309TIP3    H240563   4.709   4.657   2.127 -1.5364 -2.0349 -0.0783
 6310TIP3   OH240564   3.258   1.112   8.222 -0.1076 -0.1310 -0.3545
 6310TIP3    H140565   3.281   1.024   8.249  1.2120 -0.0303 -1.0947
 6310TIP3    H240566   3.236   1.157   8.304  0.2973 -0.8288  0.1513
 6311TIP3   OH240567   2.415   5.722   1.727  0.3742 -0.6539  0.2366
 6311TIP3    H140568   2.330   5.765   1.714  0.3605  0.8092  3.9784
 6311TIP3    H240569   2.394   5.641   1.773  0.9762  0.1850  2.0751
 6312TIP3   OH240570   1.985   3.857   1.665 -0.2027 -0.2654  0.2459
 6312TIP3    H140571   1.907   3.912   1.664  0.7661  1.2312 -2.1964
 6312TIP3    H240572   2.051   3.909   1.621  1.2840 -2.7399 -0.6178
 6313TIP3   OH240573   4.225   0.862   8.485 -0.3144  0.3131  0.3220
 6313TIP3    H140574   4.209   0.788   8.544 -1.5593  0.5592  0.3111
 6313TIP3    H240575   4.190   0.938   8.532 -0.0083  0.7388 -0.1305
 6314TIP3   OH240576   3.024   0.262   2.466 -0.0657  0.2259 -0.3167
 6314TIP3    H140577   3.019   0.219   2.551  2.7791 -1.8078 -1.0364
 6314TIP3    H240578   3.043   0.354   2.487  1.2140 -0.3522  1.2845
 6315TIP3   OH240579   6.095   0.024   0.427 -0.3361  0.3513 -0.3735
 6315TIP3    H140580   6.119   0.047   0.517  0.2294 -2.7858  0.4191
 6315TIP3    H240581   5.999   0.024   0.427 -0.3723 -0.9199  0.7048
 6316TIP3   OH240582   0.942   0.857   0.439 -0.2527 -0.4896  0.5566
 6316TIP3    H140583   0.853   0.826   0.457  0.0917 -2.8115 -1.2633
 6316TIP3    H240584   0.978   0.877   0.526 -2.7921  1.4925  1.2941
 6317TIP3   OH240585   4.405   1.647   0.727 -0.2770 -0.1353 -0.2758
 6317TIP3    H140586   4.412   1.657   0.632  1.5864 -0.0534 -0.1656
 6317TIP3    H240587   4.313   1.628   0.742 -0.6077 -0.1847 -2.1049
 6318TIP3   OH240588   2.772   6.458   1.753  0.3327  0.0127  0.1028
 6318TIP3    H140589   2.750   6.365   1.758 -0.9631  0.3797  1.8325
 6318TIP3    H240590   2.793   6.483   1.842  0.9989  1.3261 -0.3952
 6319TIP3   OH240591   6.043   5.190   7.499  0.1371  0.4585  0.2558
 6319TIP3    H140592   5.985   5.265   7.513 -1.6916 -0.4386 -1.8700
 6319TIP3    H240593   6.018   5.127   7.567 -1.3394  0.1514 -0.5270
 6320TIP3   OH240594   0.946   5.639   7.409  0.7357  0.6686  0.4422
 6320TIP3    H140595   1.031   5.682   7.410  0.4305  1.2938  0.0654
 6320TIP3    H240596   0.883   5.710   7.426  0.3913 -0.0345  2.3041
 6321TIP3   OH240597   2.561   3.886   7.077 -0.4539  0.7412  0.1523
 6321TIP3    H140598   2.591   3.810   7.126 -0.9889  0.8818  0.7230
 6321TIP3    H240599   2.613   3.886   6.997  0.4048  0.4656  0.6907
 6322TIP3   OH240600   1.466   3.532   7.141  0.2025 -0.4720 -0.1080
 6322TIP3    H140601   1.482   3.611   7.192 -0.0926 -1.2486  1.2329
 6322TIP3    H240602   1.531   3.470   7.172 -0.4428 -1.1904 -0.1582
 6323TIP3   OH240603   4.214   4.726   1.055 -0.1981  0.4296 -0.0178
 6323TIP3    H140604   4.284   4.767   1.105 -1.3872  1.1082  1.1895
 6323TIP3    H240605   4.254   4.700   0.973  1.5694  0.3385  0.8249
 6324TIP3   OH240606   3.669   4.118   0.625 -0.3955  0.4798 -0.0074
 6324TIP3    H140607   3.700   4.195   0.672  1.1643 -0.5524  0.7425
 6324TIP3    H240608   3.748   4.081   0.585 -1.2236 -0.3565 -0.9117
 6325TIP3   OH240609   5.207   4.864   8.292 -0.0222 -0.1348 -0.6154
 6325TIP3    H140610   5.184   4.866   8.199 -0.9981  1.4885 -0.3679
 6325TIP3    H240611   5.172   4.780   8.324 -5.0942  1.6802 -0.4844
 6326TIP3   OH240612   2.645   3.705   2.348  0.2646 -0.5667  0.3514
 6326TIP3    H140613   2.626   3.752   2.267  2.6597 -0.1971 -0.0574
 6326TIP3    H240614   2.568   3.720   2.403 -0.6517  0.6595 -1.1865
 6327TIP3   OH240615   2.711   5.899   7.388  0.2247  0.3487 -0.2899
 6327TIP3    H140616   2.756   5.892   7.472  0.2176 -0.3933 -0.3332
 6327TIP3    H240617   2.618   5.897   7.411  0.2148 -0.6329 -0.3463
 6328TIP3   OH240618   3.555   5.126   0.209 -0.3483  0.3880  0.5945
 6328TIP3    H140619   3.641   5.096   0.238 -0.3075  1.4310  1.6345
 6328TIP3    H240620   3.556   5.114   0.114 -0.2273 -2.5226  0.8610
 6329TIP3   OH240621   3.422   3.335   1.565  0.1241  0.2404  0.6257
 6329TIP3    H140622   3.416   3.425   1.532 -1.0787 -0.7450 -2.1296
 6329TIP3    H240623   3.348   3.290   1.524 -0.4325 -1.6222  3.4014
 6330TIP3   OH240624   0.935   1.679   7.229  0.0076 -0.1653 -0.6868
 6330TIP3    H140625   1.022   1.688   7.268 -0.9006 -0.0626  1.4734
 6330TIP3    H240626   0.941   1.602   7.173  1.6978  0.3395 -1.2401
 6331TIP3   OH240627   6.515   1.118   0.451 -0.3297 -0.5595 -0.6049
 6331TIP3    H140628   6.537   1.123   0.544  0.0293 -1.5282 -0.6263
 6331TIP3    H240629   6.453   1.190   0.437 -0.2457 -0.2896  0.3367
 6332TIP3   OH240630   0.693   5.359   8.097 -0.0940 -0.2932 -0.4302
 6332TIP3    H140631   0.703   5.302   8.021 -1.0323 -1.2770  0.1574
 6332TIP3    H240632   0.727   5.308   8.171  0.3695  0.4651 -0.1023
 6333TIP3   OH240633   4.494   4.184   8.431  0.1930  0.4753 -0.0957
 6333TIP3    H140634   4.485   4.252   8.365  0.1278  1.5976  1.0223
 6333TIP3    H240635   4.514   4.105   8.382  0.2774  1.3010 -1.4371
 6334TIP3   OH240636   6.679   3.065   7.727  0.3837 -0.2954 -0.4316
 6334TIP3    H140637   6.725   2.995   7.772 -1.0892 -1.3797 -0.5183
 6334TIP3    H240638   6.688   3.141   7.785  0.2197 -1.1335  0.7253
 6335TIP3   OH240639   4.718   6.481   6.880  0.1602 -0.0082  0.1279
 6335TIP3    H140640   4.713   6.443   6.968 -1.2712  0.0286  0.0983
 6335TIP3    H240641   4.798   6.446   6.843  0.2558 -0.8475  1.0821
 6336TIP3   OH240642   3.768   5.356   1.777 -0.0545 -0.0088  0.3719
 6336TIP3    H140643   3.740   5.447   1.780 -1.4711 -0.4335  1.8604
 6336TIP3    H240644   3.799   5.338   1.866  0.5927 -0.8678 -0.0123
 6337TIP3   OH240645   5.556   6.791   0.361  0.0932 -0.4669  0.0351
 6337TIP3    H140646   5.629   6.742   0.396  0.0642  0.1369  0.9815
 6337TIP3    H240647   5.542   6.755   0.273  1.3093 -0.8004 -0.0380
 6338TIP3   OH240648   4.385   2.850   6.676 -0.1170 -0.6100  0.0371
 6338TIP3    H140649   4.389   2.788   6.749  1.4971 -0.3106  0.2469
 6338TIP3    H240650   4.477   2.865   6.652 -0.2729  2.9008  1.0479
 6339TIP3   OH240651   5.478   2.412   1.483  0.0274 -0.4006  0.1757
 6339TIP3    H140652   5.435   2.327   1.467 -1.4552  0.9054 -4.0219
 6339TIP3    H240653   5.425   2.452   1.553  1.1915 -3.0289  2.7872
 6340TIP3   OH240654   0.150   6.071   7.518 -0.1491  0.5829 -0.2544
 6340TIP3    H140655   0.202   6.085   7.597 -1.8558 -0.3072  1.0989
 6340TIP3    H240656   0.160   5.977   7.499 -0.2150  0.6735 -0.7474
 6341TIP3   OH240657   0.439   4.892   7.051 -0.3428  0.5480  0.1147
 6341TIP3    H140658   0.357   4.913   7.006 -1.1302 -0.7995  0.8732
 6341TIP3    H240659   0.483   4.977   7.060 -1.0928  1.1427 -1.3361
 6342TIP3   OH240660   3.816   2.264   6.789  0.3149 -0.2476  0.1410
 6342TIP3    H140661   3.889   2.246   6.729  0.7512  0.0986  0.5549
 6342TIP3    H240662   3.793   2.178   6.825  1.2097 -0.2369  0.7774
 6343TIP3   OH240663   0.958   1.974   7.995 -0.5196 -0.1918  0.2865
 6343TIP3    H140664   1.047   2.004   8.012 -0.5512  0.4781 -0.6608
 6343TIP3    H240665   0.941   1.909   8.063  0.7551 -0.4665  0.3674
 6344TIP3   OH240666   5.941   6.060   0.595  0.1561 -0.0329  1.0638
 6344TIP3    H140667   5.862   6.006   0.596  0.6035 -0.9400 -2.2111
 6344TIP3    H240668   5.909   6.150   0.594 -1.2000 -0.3402 -3.0735
 6345TIP3   OH240669   5.490   0.087   6.669 -0.5572 -0.4099 -0.1508
 6345TIP3    H140670   5.502   0.052   6.581 -0.1017 -1.0037  0.1428
 6345TIP3    H240671   5.400   0.064   6.692 -0.1666 -1.6788  0.1600
 6346TIP3   OH240672   1.523   5.436   2.256  0.2376  0.1468 -0.7035
 6346TIP3    H140673   1.546   5.528   2.245  1.0183  0.4563  2.4629
 6346TIP3    H240674   1.428   5.436   2.264  0.1151  0.4768 -1.9865
 6347TIP3   OH240675   3.448   4.062   8.350 -0.3894 -0.1804  0.6086
 6347TIP3    H140676   3.519   4.098   8.297 -1.1085 -1.5549 -1.4555
 6347TIP3    H240677   3.482   3.979   8.383 -0.3251  0.1639  1.4316
 6348TIP3   OH240678   0.719   4.056   2.250 -0.4139 -0.1042  0.0496
 6348TIP3    H140679   0.732   3.978   2.303  2.0804 -0.3226 -0.7807
 6348TIP3    H240680   0.648   4.032   2.190 -0.3353 -1.3907  0.4448
 6349TIP3   OH240681   1.483   2.468   7.945 -0.4393  0.5154 -0.5292
 6349TIP3    H140682   1.556   2.423   7.902 -1.1277  0.3659 -1.5988
 6349TIP3    H240683   1.405   2.420   7.917 -0.8561 -0.4316  2.0174
 6350TIP3   OH240684   5.130   0.786   0.650  0.0414  0.2516  0.4055
 6350TIP3    H140685   5.103   0.864   0.601 -1.2776 -0.4965 -0.1108
 6350TIP3    H240686   5.106   0.804   0.740 -1.1686  0.0738  0.1342
 6351TIP3   OH240687   4.413   6.547   8.495 -0.1375  0.2520 -0.4415
 6351TIP3    H140688   4.431   6.578   8.584  1.1066 -1.7432  0.0595
 6351TIP3    H240689   4.333   6.594   8.470  0.0056  1.5782  1.3385
 6352TIP3   OH240690   4.774   6.124   7.072  0.4060  0.0479  0.2602
 6352TIP3    H140691   4.842   6.062   7.048  0.4768  0.2499 -0.0585
 6352TIP3    H240692   4.709   6.118   7.002 -0.0435 -0.3456  0.7029
 6353TIP3   OH240693   6.004   1.024   6.890 -0.4467 -0.0550  0.4765
 6353TIP3    H140694   5.974   1.054   6.804  0.4903 -0.6649 -0.0750
 6353TIP3    H240695   5.935   0.964   6.919 -1.9769  1.9395  1.2681
 6354TIP3   OH240696   4.745   3.080   7.618  0.5809 -0.7211 -0.3353
 6354TIP3    H140697   4.754   3.048   7.528  1.8011 -1.4276  0.0097
 6354TIP3    H240698   4.653   3.064   7.639  0.1174  0.0257 -1.6531
 6355TIP3   OH240699   1.307   4.694   7.909 -0.0196 -0.0418  0.4164
 6355TIP3    H140700   1.229   4.726   7.955  0.2459 -0.5865  1.2687
 6355TIP3    H240701   1.379   4.710   7.969  0.8900  2.3234 -1.1610
 6356TIP3   OH240702   5.237   2.745   6.588 -0.0973  0.4890  0.3647
 6356TIP3    H140703   5.255   2.839   6.587 -2.8943  1.1191  1.4166
 6356TIP3    H240704   5.238   2.721   6.681  0.0156 -0.4099  0.1452
 6357TIP3   OH240705   4.876   1.608   1.603  0.4091  0.2663  0.8375
 6357TIP3    H140706   4.796   1.560   1.624 -0.7482  2.1570  1.0248
 6357TIP3    H240707   4.865   1.692   1.647  1.7475  1.1966 -0.5227
 6358TIP3   OH240708   0.612   1.694   8.338  0.2707 -0.3475 -0.1178
 6358TIP3    H140709   0.650   1.669   8.254  1.5988  1.0963  0.0097
 6358TIP3    H240710   0.634   1.622   8.397  0.0635 -0.9701 -0.7871
 6359TIP3   OH240711   0.513   4.159   8.646  0.2176  0.7879  0.1970
 6359TIP3    H140712   0.480   4.240   8.605 -0.3241  1.0319  1.0749
 6359TIP3    H240713   0.436   4.103   8.651  0.2900  0.7446  0.8324
 6360TIP3   OH240714   5.585   6.048   0.261  0.1167  0.4721  0.3349
 6360TIP3    H140715   5.609   5.989   0.189  0.7792  0.3937  0.6162
 6360TIP3    H240716   5.648   6.029   0.330  1.6184  2.8566 -0.2501
 6361TIP3   OH240717   0.964   0.274   6.623 -0.2911  0.6690  0.6321
 6361TIP3    H140718   0.982   0.320   6.541 -0.6105 -3.6597 -2.1863
 6361TIP3    H240719   0.870   0.284   6.636 -0.3589  0.7726  0.0717
 6362TIP3   OH240720   3.119   0.291   2.981  0.0667  0.3240 -0.2952
 6362TIP3    H140721   3.080   0.360   3.035  0.2998  0.1275  0.1323
 6362TIP3    H240722   3.213   0.297   2.999 -0.0373 -1.1147  0.9711
 6363TIP3   OH240723   0.448   3.341   2.071 -0.5267  0.0746 -0.2664
 6363TIP3    H140724   0.542   3.334   2.084 -0.5167  0.7814  0.0492
 6363TIP3    H240725   0.426   3.264   2.018 -0.1931 -1.5406  1.8120
 6364TIP3   OH240726   4.937   6.671   2.094 -0.2245  0.2525 -0.3224
 6364TIP3    H140727   4.972   6.760   2.084  2.0079 -0.5677 -0.4309
 6364TIP3    H240728   4.896   6.652   2.010  1.2713  0.4031 -1.1268
 6365TIP3   OH240729   3.388   3.588   1.489 -0.0924 -0.5188 -0.0032
 6365TIP3    H140730   3.337   3.659   1.449  1.2756 -0.9473 -2.6815
 6365TIP3    H240731   3.446   3.633   1.551  0.3661  0.6584 -1.2393
 6366TIP3   OH240732   0.949   6.458   0.177 -0.0077 -0.0205 -0.4938
 6366TIP3    H140733   0.958   6.471   0.083  2.7046  1.8767 -0.0677
 6366TIP3    H240734   0.924   6.544   0.211 -0.0127 -0.4491  0.6383
 6367TIP3   OH240735   1.605   1.973   1.690 -0.0615  0.5171 -0.0675
 6367TIP3    H140736   1.571   1.888   1.664 -1.3999  1.0611 -0.1641
 6367TIP3    H240737   1.683   1.985   1.635 -0.1254 -0.4265 -0.3809
 6368TIP3   OH240738   2.042   3.592   1.286  0.4156 -0.4936 -0.5052
 6368TIP3    H140739   1.988   3.653   1.337  0.2008  0.9978 -2.3654
 6368TIP3    H240740   2.060   3.520   1.346  1.5179  1.8247  2.1994
 6369TIP3   OH240741   3.489   0.900   7.217 -0.2895 -0.5920 -0.0765
 6369TIP3    H140742   3.527   0.844   7.150  0.1738  1.0897 -1.2989
 6369TIP3    H240743   3.394   0.889   7.206 -0.2198 -0.3723 -1.0078
 6370TIP3   OH240744   0.006   4.625   0.043 -0.2048 -0.0710  0.0223
 6370TIP3    H140745   0.089   4.669   0.061  0.3605 -1.0286 -0.1621
 6370TIP3    H240746  -0.052   4.694   0.009  0.8045  0.4309 -0.7127
 6371TIP3   OH240747   1.447   5.351   7.100  0.0906 -0.1980 -0.1801
 6371TIP3    H140748   1.484   5.332   7.013  0.3448 -2.4572  0.3475
 6371TIP3    H240749   1.354   5.330   7.091 -0.0904  0.5955 -0.1764
 6372TIP3   OH240750   5.721   1.154   0.822  0.3186  0.4519 -0.1366
 6372TIP3    H140751   5.772   1.136   0.743 -0.9406  0.3297 -0.9616
 6372TIP3    H240752   5.668   1.230   0.800 -0.1818  0.3110  0.5251
 6373TIP3   OH240753   4.929   6.354   1.696  0.0382  0.4460  0.3544
 6373TIP3    H140754   4.983   6.299   1.753 -0.2875 -0.9058 -0.5693
 6373TIP3    H240755   4.975   6.353   1.612 -1.2173 -0.4664 -0.3639
 6374TIP3   OH240756   4.168   4.534   1.655  0.5217  0.3467 -0.8359
 6374TIP3    H140757   4.101   4.500   1.715 -1.0952  1.1464 -2.1004
 6374TIP3    H240758   4.249   4.491   1.682  0.3114  2.0389  3.1154
 6375TIP3   OH240759   5.389   6.746   1.365 -0.3989 -0.3081  0.1168
 6375TIP3    H140760   5.402   6.718   1.274  0.5775 -1.0633  0.4615
 6375TIP3    H240761   5.321   6.687   1.399 -1.9764  1.0487 -0.5649
 6376TIP3   OH240762   0.949   0.851   8.245  0.4119  0.3511  0.0313
 6376TIP3    H140763   1.008   0.869   8.172  0.0884 -0.4859 -0.4633
 6376TIP3    H240764   0.900   0.773   8.216 -0.4972  0.6735  0.6784
 6377TIP3   OH240765   5.281   4.207   1.900 -0.1957  0.2168  0.6374
 6377TIP3    H140766   5.319   4.217   1.987  1.4969 -2.1547  0.2792
 6377TIP3    H240767   5.356   4.199   1.841 -1.2110 -1.7945 -0.5005
 6378TIP3   OH240768   5.415   4.719   0.464  0.5857 -0.0356 -0.5670
 6378TIP3    H140769   5.443   4.705   0.554 -0.2157  0.8295 -0.1616
 6378TIP3    H240770   5.449   4.806   0.441 -2.7906  1.7563  0.4632
 6379TIP3   OH240771   0.207   6.177   7.219  0.1829  0.6477  0.2855
 6379TIP3    H140772   0.129   6.187   7.274  0.4090  1.5189  0.4597
 6379TIP3    H240773   0.276   6.224   7.266  1.8788 -3.1639  2.0926
 6380TIP3   OH240774   5.298   2.285   7.398  0.0292  0.7763  0.0282
 6380TIP3    H140775   5.362   2.223   7.365 -0.3631 -0.7775  1.9994
 6380TIP3    H240776   5.284   2.346   7.326  1.7294 -0.3905 -1.3663
 6381TIP3   OH240777   0.199   2.150   2.304 -0.1098  0.0212  0.4218
 6381TIP3    H140778   0.154   2.083   2.356 -1.2144 -0.4206 -1.0266
 6381TIP3    H240779   0.130   2.214   2.284  0.4352  0.4877  0.0077
 6382TIP3   OH240780   1.751   3.809   1.933 -0.0634 -0.3207  0.3720
 6382TIP3    H140781   1.815   3.876   1.957 -1.2317  0.0809  2.6355
 6382TIP3    H240782   1.697   3.798   2.011 -4.0121  0.7564 -1.9356
 6383TIP3   OH240783   2.362   3.199   8.071 -0.4525 -0.1441 -0.3321
 6383TIP3    H140784   2.346   3.130   8.135  1.7744  1.9635  2.7557
 6383TIP3    H240785   2.282   3.251   8.071 -0.2883  0.1364  1.1997
 6384TIP3   OH240786   2.181   6.792   2.072  0.1015  0.0508 -0.6112
 6384TIP3    H140787   2.169   6.713   2.125 -1.4840  0.4671 -0.3255
 6384TIP3    H240788   2.274   6.789   2.047  0.8472 -0.3170  1.9194
 6385TIP3   OH240789   1.525   6.862   7.023  0.2789  0.1304  0.4036
 6385TIP3    H140790   1.528   6.902   6.936 -0.5601  2.6145  1.3985
 6385TIP3    H240791   1.462   6.791   7.014  1.4555 -0.7752 -1.3644
 6386TIP3   OH240792   2.511   1.655   2.233 -0.1610 -0.3765 -0.6051
 6386TIP3    H140793   2.452   1.720   2.195  0.6848  1.3373  0.8354
 6386TIP3    H240794   2.486   1.651   2.325 -0.1525 -2.0966 -0.6483
 6387TIP3   OH240795   2.106   3.890   2.448 -0.2965 -0.2670 -0.1566
 6387TIP3    H140796   2.016   3.888   2.479 -1.4843 -0.3590 -3.2883
 6387TIP3    H240797   2.108   3.960   2.382  1.6282 -0.9669 -0.9413
 6388TIP3   OH240798   3.116   4.656   1.988  0.1400 -0.0466  0.3291
 6388TIP3    H140799   3.122   4.749   1.964 -1.0796  0.1109  0.5622
 6388TIP3    H240800   3.193   4.641   2.044  0.0049  0.9871  0.8141
 6389TIP3   OH240801   6.865   2.419   6.957 -0.1182  0.5951  0.1032
 6389TIP3    H140802   6.902   2.433   6.870 -0.0329 -2.5254 -0.4820
 6389TIP3    H240803   6.929   2.365   7.002 -0.4673  1.6277  1.9372
 6390TIP3   OH240804   6.339   6.120   0.673 -0.6325  0.3566  0.2470
 6390TIP3    H140805   6.340   6.024   0.677 -0.9855  0.3850  1.5321
 6390TIP3    H240806   6.267   6.146   0.731  0.0863  1.4206  0.6993
 6391TIP3   OH240807   5.219   0.487   7.347 -0.1011  0.3233 -0.5404
 6391TIP3    H140808   5.301   0.509   7.392  0.2245  0.8845 -1.3886
 6391TIP3    H240809   5.223   0.392   7.336  0.8850  0.4508 -1.4124
 6392TIP3   OH240810   5.019   3.251   6.601 -0.0397 -0.1496  0.0924
 6392TIP3    H140811   5.114   3.244   6.611 -0.0662  0.9525  1.4503
 6392TIP3    H240812   5.001   3.215   6.514  1.5547 -0.8023 -0.0073
 6393TIP3   OH240813   0.378   5.761   6.574 -0.0665  0.0893  0.2144
 6393TIP3    H140814   0.375   5.674   6.535 -1.8981 -0.0720  0.6588
 6393TIP3    H240815   0.420   5.748   6.659  1.4126 -0.0116 -0.5033
 6394TIP3   OH240816   1.205   6.485   7.838  0.6442  1.0122 -0.4592
 6394TIP3    H140817   1.232   6.539   7.763  1.4544  1.4599  0.1433
 6394TIP3    H240818   1.205   6.545   7.912  2.0101  0.1015  0.3104
 6395TIP3   OH240819   2.628   1.877   1.005 -0.1790  0.2714  0.1910
 6395TIP3    H140820   2.683   1.852   0.931  2.6413  1.3934  1.7581
 6395TIP3    H240821   2.634   1.803   1.065 -0.3788  0.4079  0.3803
 6396TIP3   OH240822   5.117   6.862   1.691 -0.7279 -0.1119  0.2424
 6396TIP3    H140823   5.169   6.805   1.747  0.2849  2.8978  2.6459
 6396TIP3    H240824   5.050   6.897   1.749 -1.4836  0.9251 -1.2061
 6397TIP3   OH240825   2.841   0.233   0.004  0.3309  0.0765  0.4314
 6397TIP3    H140826   2.837   0.153  -0.048  1.4744  0.2986 -0.0224
 6397TIP3    H240827   2.779   0.218   0.075  0.4130 -1.1562  0.2681
 6398TIP3   OH240828   5.766   6.752   0.967  0.2101 -0.5040  0.0959
 6398TIP3    H140829   5.838   6.744   1.029  0.2799 -1.1863 -0.0635
 6398TIP3    H240830   5.690   6.719   1.014  0.4380 -1.9047 -0.4646
 6399TIP3   OH240831   1.238   3.609   2.304 -0.3620 -0.2943  0.4526
 6399TIP3    H140832   1.228   3.631   2.212  0.3626  2.1190  0.8772
 6399TIP3    H240833   1.157   3.638   2.345  0.1289  0.5607  0.8518
 6400TIP3   OH240834   3.077   3.914   0.621 -0.3405  0.2403  0.6251
 6400TIP3    H140835   3.077   3.861   0.701  0.8336  0.1992  0.6161
 6400TIP3    H240836   3.115   3.998   0.649  0.8707 -0.0628 -0.0507
 6401TIP3   OH240837   3.269   5.545   1.699  0.0189  0.7461  0.5751
 6401TIP3    H140838   3.299   5.582   1.783  0.0534  0.9035  0.4942
 6401TIP3    H240839   3.319   5.464   1.689  2.1049  2.0848 -0.6394
 6402TIP3   OH240840   4.748   6.137   7.439  0.3594 -0.1998  0.0236
 6402TIP3    H140841   4.679   6.150   7.504  0.0328  1.2153 -0.5856
 6402TIP3    H240842   4.701   6.114   7.358  0.7136 -1.0437  0.0475
 6403TIP3   OH240843   2.129   2.234   6.495 -1.0012  0.4363 -0.0030
 6403TIP3    H140844   2.141   2.170   6.425 -0.8764  1.9183 -1.4142
 6403TIP3    H240845   2.069   2.193   6.557 -1.1506 -0.9024 -1.0095
 6404TIP3   OH240846   3.356   4.614   8.255  0.3901 -0.1368  0.0095
 6404TIP3    H140847   3.366   4.577   8.167 -1.6820 -1.7758  0.3990
 6404TIP3    H240848   3.405   4.555   8.311  0.5637  0.1310  0.1425
 6405TIP3   OH240849   0.369   1.290   7.306  0.7818  0.2532 -0.4819
 6405TIP3    H140850   0.433   1.237   7.354  0.6361  1.5893  1.2647
 6405TIP3    H240851   0.287   1.241   7.313  1.3021 -0.8397 -1.6525
 6406TIP3   OH240852   6.084   6.550   1.837  0.4398  0.0588  0.7494
 6406TIP3    H140853   6.030   6.472   1.824 -0.4195  0.8621 -0.8827
 6406TIP3    H240854   6.165   6.533   1.788 -0.8752  1.1900 -2.1040
 6407TIP3   OH240855   4.359   0.098   7.730 -0.2773  0.1357  0.3189
 6407TIP3    H140856   4.409   0.048   7.666  1.0468 -0.0841  1.4569
 6407TIP3    H240857   4.285   0.134   7.682 -0.6201 -1.9443 -0.7899
 6408TIP3   OH240858   1.394   1.648   8.524  0.0208 -0.7201  0.2152
 6408TIP3    H140859   1.317   1.699   8.499 -0.3822 -1.6776 -0.5335
 6408TIP3    H240860   1.465   1.713   8.529 -0.7428  0.1057  0.5246
 6409TIP3   OH240861   0.666   0.086   2.860  0.0447  0.3098 -0.8488
 6409TIP3    H140862   0.653   0.025   2.788 -0.9253 -0.3776 -0.1416
 6409TIP3    H240863   0.614   0.163   2.836 -0.8715 -0.2046 -0.5824
 6410TIP3   OH240864   1.568   6.574   2.181 -0.7035  0.2262  0.5960
 6410TIP3    H140865   1.543   6.491   2.142 -1.5373  0.8366 -0.2125
 6410TIP3    H240866   1.663   6.569   2.190 -0.5728 -0.2398 -0.8151
 6411TIP3   OH240867   5.427   6.172   0.481 -0.3770  0.1450 -0.1181
 6411TIP3    H140868   5.456   6.131   0.399 -0.1590 -0.4422  0.2481
 6411TIP3    H240869   5.508   6.191   0.528 -0.5402 -0.9419  0.6402
 6412TIP3   OH240870   4.317   1.718   6.972  0.0908  0.3126 -0.5856
 6412TIP3    H140871   4.290   1.664   7.045  1.8364 -0.6848 -0.6320
 6412TIP3    H240872   4.293   1.667   6.894 -1.1526  1.0766 -0.7490
 6413TIP3   OH240873   3.575   5.073   7.459  0.3187  0.8571  0.2265
 6413TIP3    H140874   3.507   5.015   7.425  2.0127 -1.0492 -0.0905
 6413TIP3    H240875   3.642   5.074   7.392  0.6842  2.6654  0.5596
 6414TIP3   OH240876   5.936   6.777   0.692 -0.4543  0.2953 -0.1503
 6414TIP3    H140877   5.898   6.856   0.731 -2.9414 -0.7460 -0.2772
 6414TIP3    H240878   5.924   6.709   0.759  0.2122 -0.3369 -0.6559
 6415TIP3   OH240879   5.188   5.996   6.931 -0.0531  0.6102  0.3085
 6415TIP3    H140880   5.253   6.064   6.915  1.6513 -1.0326 -0.1006
 6415TIP3    H240881   5.230   5.937   6.994 -1.3583 -0.2315  0.4289
 6416TIP3   OH240882   2.477   3.752   0.074 -0.7098 -0.9569  0.2647
 6416TIP3    H140883   2.493   3.764   0.168  0.2565 -1.1950  0.1398
 6416TIP3    H240884   2.551   3.795   0.032 -1.0576 -0.9915 -0.3872
 6417TIP3   OH240885   4.896   6.643   7.068 -0.1209  0.5494  0.0380
 6417TIP3    H140886   4.935   6.655   7.154  0.0067 -0.2499  0.0926
 6417TIP3    H240887   4.866   6.553   7.067  1.1584  0.1023 -1.2660
 6418TIP3   OH240888   6.294   2.211   7.870  0.6684 -0.2168 -0.0317
 6418TIP3    H140889   6.293   2.269   7.794 -0.9012 -1.5018 -1.0407
 6418TIP3    H240890   6.311   2.124   7.833  0.7426 -0.7387  1.1921
 6419TIP3   OH240891   6.776   0.827   7.304  0.3401 -0.5841 -0.7508
 6419TIP3    H140892   6.845   0.880   7.264  0.4950 -1.2250 -1.3600
 6419TIP3    H240893   6.713   0.814   7.233  1.3007 -2.9292 -1.2820
 6420TIP3   OH240894   5.287   3.245   7.378 -0.5355  0.3341 -0.2587
 6420TIP3    H140895   5.340   3.288   7.446 -0.8678  0.2113  0.0794
 6420TIP3    H240896   5.334   3.165   7.358 -0.1721  0.6119 -0.5352
 6421TIP3   OH240897   0.803   4.775   0.253 -0.1238  0.0387 -0.1357
 6421TIP3    H140898   0.804   4.717   0.329  0.9052 -1.4175 -1.2156
 6421TIP3    H240899   0.752   4.851   0.282  1.2397  0.0870  2.4114
 6422TIP3   OH240900   3.266   0.395   1.196 -0.2010 -0.2870 -0.5476
 6422TIP3    H140901   3.239   0.469   1.250  0.7685 -1.1686  1.2188
 6422TIP3    H240902   3.200   0.391   1.127  0.0753  2.5897 -1.0858
 6423TIP3   OH240903   1.560   2.955   2.282 -0.6725 -0.1224 -0.0450
 6423TIP3    H140904   1.477   2.921   2.249 -1.2548  1.2787 -0.1175
 6423TIP3    H240905   1.566   2.920   2.371 -0.4169 -1.7179 -0.6593
 6424TIP3   OH240906   1.982   4.538   1.146 -0.0174  0.0195  0.4812
 6424TIP3    H140907   1.934   4.608   1.102  1.9577  0.3665 -1.2844
 6424TIP3    H240908   1.933   4.522   1.226 -0.9051  2.9555  0.6403
 6425TIP3   OH240909   6.134   2.576   0.547  0.4498 -0.1365 -0.5016
 6425TIP3    H140910   6.133   2.480   0.543 -0.8447 -0.4051  3.0204
 6425TIP3    H240911   6.198   2.597   0.615  1.3249  1.5919 -1.7947
 6426TIP3   OH240912   0.283   6.769   0.867  0.2466  0.0455 -0.4793
 6426TIP3    H140913   0.346   6.727   0.925  0.5928  0.1392 -0.7771
 6426TIP3    H240914   0.336   6.798   0.792  0.2100  1.9057  0.1723
 6427TIP3   OH240915   0.756   1.880   7.140  0.3538  0.7375  0.2183
 6427TIP3    H140916   0.728   1.809   7.082  0.9885 -0.0353  0.8421
 6427TIP3    H240917   0.841   1.852   7.173  0.0821  1.2374  1.3972
 6428TIP3   OH240918   2.597   4.481   7.582 -0.1162 -0.0171  0.1484
 6428TIP3    H140919   2.582   4.388   7.563  2.1850 -0.3422 -0.4559
 6428TIP3    H240920   2.615   4.482   7.676 -0.9867 -0.0316  0.3243
 6429TIP3   OH240921   5.716   5.912   0.480 -0.0287 -0.1285  0.3099
 6429TIP3    H140922   5.695   5.948   0.567 -2.7674 -0.6081 -0.0685
 6429TIP3    H240923   5.711   5.817   0.492 -0.5864 -0.1940 -0.3989
 6430TIP3   OH240924   2.870   4.930   1.208 -0.8320 -0.2270  0.2581
 6430TIP3    H140925   2.958   4.961   1.230 -0.0002 -1.3149 -1.3473
 6430TIP3    H240926   2.840   4.884   1.287  2.0519 -4.0853 -0.5996
 6431TIP3   OH240927   4.648   2.499   8.438 -0.2303  0.1086 -0.6252
 6431TIP3    H140928   4.724   2.458   8.398  0.2638  1.5096 -1.1948
 6431TIP3    H240929   4.581   2.431   8.440  0.1671 -0.3801 -2.5977
 6432TIP3   OH240930   4.680   1.718   1.792  0.8453  0.0132  0.3004
 6432TIP3    H140931   4.678   1.680   1.879  0.1354  0.3013  0.4159
 6432TIP3    H240932   4.608   1.676   1.745  0.3745  0.8064  0.2753
 6433TIP3   OH240933   1.534   0.456   2.411  0.0867 -0.2718 -0.5378
 6433TIP3    H140934   1.510   0.493   2.496 -0.3822 -3.2325  0.7520
 6433TIP3    H240935   1.452   0.455   2.361 -0.2129 -0.8847 -0.0403
 6434TIP3   OH240936   1.423   1.326   0.604 -1.4224  0.6771  0.0731
 6434TIP3    H140937   1.411   1.350   0.512 -1.1914  0.8187  0.0786
 6434TIP3    H240938   1.476   1.247   0.601 -2.4861 -0.0549  0.0424
 6435TIP3   OH240939   3.137   4.239   1.212 -0.2076  0.4446  0.1111
 6435TIP3    H140940   3.110   4.307   1.150 -1.7288 -0.7983 -0.6563
 6435TIP3    H240941   3.104   4.269   1.297  0.3467  1.3048  0.0341
 6436TIP3   OH240942   6.101   0.044   6.822  0.4341  0.0778 -0.0188
 6436TIP3    H140943   6.097  -0.015   6.746  1.8005  0.9782 -0.8439
 6436TIP3    H240944   6.051   0.121   6.794 -0.9527 -0.4506  0.8815
 6437TIP3   OH240945   1.940   5.137   0.299  0.2276 -0.4851 -0.1114
 6437TIP3    H140946   2.012   5.094   0.346  0.0277  0.2270  0.8783
 6437TIP3    H240947   1.861   5.112   0.347  0.1190  1.0403  0.5596
 6438TIP3   OH240948   2.625   6.261   7.743  0.2770  0.6474 -0.3198
 6438TIP3    H140949   2.677   6.209   7.681 -0.8533  2.4278 -2.9691
 6438TIP3    H240950   2.534   6.242   7.719 -0.2191  1.0570  1.1525
 6439TIP3   OH240951   3.514   0.707   7.497  0.1880 -0.5083 -0.6086
 6439TIP3    H140952   3.435   0.654   7.483  1.2237 -1.7424 -2.0494
 6439TIP3    H240953   3.480   0.793   7.522 -1.5932 -1.2511 -0.2912
 6440TIP3   OH240954   6.122   0.514   8.363  0.5941  0.2688 -0.3009
 6440TIP3    H140955   6.099   0.607   8.366  1.6847  0.5524 -0.2747
 6440TIP3    H240956   6.069   0.474   8.432  1.2138  1.1355  0.7104
 6441TIP3   OH240957   5.024   3.485   8.433  0.4103  0.2100  0.3369
 6441TIP3    H140958   5.112   3.519   8.449  0.3613  0.0388  1.0301
 6441TIP3    H240959   4.997   3.448   8.518 -0.4125  0.4588  0.1972
 6442TIP3   OH240960   3.394   0.600   1.799 -0.0803 -0.4425  0.0562
 6442TIP3    H140961   3.375   0.692   1.778  0.0925 -0.3596  0.2589
 6442TIP3    H240962   3.480   0.602   1.839 -0.8396 -0.4660  1.7587
 6443TIP3   OH240963   3.440   3.914   2.279  0.2166  0.4352  0.0913
 6443TIP3    H140964   3.530   3.946   2.276  0.5870 -0.1672  2.4607
 6443TIP3    H240965   3.400   3.962   2.352 -0.2161 -1.9060  1.4923
 6444TIP3   OH240966   4.163   6.850   0.517 -0.4434 -0.0325 -0.2461
 6444TIP3    H140967   4.178   6.776   0.458  2.8032  0.4737 -0.2258
 6444TIP3    H240968   4.222   6.918   0.486 -0.0236  0.9365  2.4124
 6445TIP3   OH240969   5.260   2.769   7.773  0.3254  0.0678  0.4262
 6445TIP3    H140970   5.218   2.845   7.814  0.9994  0.8323 -0.2390
 6445TIP3    H240971   5.267   2.704   7.843 -0.5808  0.4930  0.9189
 6446TIP3   OH240972   4.840   5.544   0.021 -0.5845  0.2915  0.6061
 6446TIP3    H140973   4.774   5.584  -0.036 -0.2772  1.4696  1.0435
 6446TIP3    H240974   4.821   5.450   0.017 -0.9813  0.4075 -0.9013
 6447TIP3   OH240975   6.440   6.649   7.584 -0.1758  0.0705 -0.2627
 6447TIP3    H140976   6.460   6.712   7.514 -2.0384  1.4652  0.3728
 6447TIP3    H240977   6.386   6.699   7.645 -1.4639 -2.0840  0.4445
 6448TIP3   OH240978   2.265   1.662   0.691 -0.1264  0.4847 -0.1028
 6448TIP3    H140979   2.188   1.617   0.655  0.7776 -0.6714 -0.6584
 6448TIP3    H240980   2.297   1.716   0.619 -0.1787  0.6426 -0.0071
 6449TIP3   OH240981   5.701   3.775   5.788  0.5633 -0.2485  0.8030
 6449TIP3    H140982   5.656   3.710   5.842  2.1744 -1.9268  0.2061
 6449TIP3    H240983   5.748   3.830   5.851  4.2835 -3.5483  1.2643
 6450TIP3   OH240984   0.471   6.020   8.547 -0.4119 -0.2628 -0.3891
 6450TIP3    H140985   0.392   5.976   8.515 -0.3137  0.5384 -1.8633
 6450TIP3    H240986   0.476   6.100   8.494  1.1831 -0.1220 -0.0678
 6451TIP3   OH240987   0.729   6.645   7.267  0.4431  0.1291 -0.4153
 6451TIP3    H140988   0.816   6.670   7.236  0.4157  1.3588  0.4418
 6451TIP3    H240989   0.715   6.697   7.347 -1.7670  1.2558 -1.4392
 6452TIP3   OH240990   3.935   1.456   0.667 -0.0141  0.2852 -0.1364
 6452TIP3    H140991   3.932   1.360   0.674  0.8231  0.3522  1.7567
 6452TIP3    H240992   4.017   1.474   0.622 -0.2104  0.1221 -0.5667
 6453TIP3   OH240993   5.868   6.669   7.568 -0.6408  0.4203 -0.3045
 6453TIP3    H140994   5.800   6.601   7.568  0.1529 -0.3980  0.4846
 6453TIP3    H240995   5.825   6.745   7.528 -2.0715 -0.0412  0.2536
 6454TIP3   OH240996   0.988   3.764   0.122 -0.3741  0.3017  0.4098
 6454TIP3    H140997   0.924   3.758   0.050  0.3300  1.8517 -0.3840
 6454TIP3    H240998   1.037   3.844   0.104  1.4370 -0.5579  1.3127
 6455TIP3   OH240999   5.758   3.293   8.339 -0.2665  0.1834  0.0664
 6455TIP3    H141000   5.809   3.313   8.260 -0.5160 -0.1068 -0.1726
 6455TIP3    H241001   5.667   3.297   8.309 -0.3414 -1.6709 -0.1021
 6456TIP3   OH241002   4.227   0.937   1.327  0.0034 -0.5670 -0.5285
 6456TIP3    H141003   4.213   0.853   1.372 -1.6531  0.9722  2.1242
 6456TIP3    H241004   4.191   0.923   1.239 -1.6243 -2.2213  0.3245
 6457TIP3   OH241005   3.593   0.176   7.059  0.1982 -0.1499 -0.0159
 6457TIP3    H141006   3.504   0.140   7.055  0.2764 -0.2960 -0.5401
 6457TIP3    H241007   3.595   0.242   6.990  0.2989  0.3094  0.4272
 6458TIP3   OH241008   6.900   2.768   1.848 -0.0736 -0.1041  0.3686
 6458TIP3    H141009   6.841   2.818   1.792  0.3812  1.4383  1.2165
 6458TIP3    H241010   6.845   2.738   1.921 -0.3464 -0.8967 -0.1433
 6459TIP3   OH241011   3.759   0.250   1.741 -0.0890 -0.0007  0.9008
 6459TIP3    H141012   3.729   0.217   1.826  1.0827 -1.8123  0.6398
 6459TIP3    H241013   3.711   0.333   1.730 -4.0334 -2.0246  1.0983
 6460TIP3   OH241014   3.513   0.659   1.048 -0.3335  0.1772 -0.1458
 6460TIP3    H141015   3.534   0.676   1.140  0.3542  0.1209 -0.2863
 6460TIP3    H241016   3.531   0.743   1.004  1.2065 -0.3141 -0.5297
 6461TIP3   OH241017   0.644   4.629   0.044 -0.2147 -0.7468 -0.3042
 6461TIP3    H141018   0.698   4.685   0.101 -0.8480 -0.8257  0.3899
 6461TIP3    H241019   0.612   4.561   0.102 -1.5478 -0.3622 -0.5720
 6462TIP3   OH241020   1.523   4.574   0.686  0.4936  0.0037 -0.1995
 6462TIP3    H141021   1.490   4.645   0.630  1.7743 -0.6525 -1.8808
 6462TIP3    H241022   1.560   4.511   0.625 -0.4728 -2.0808  1.2674
 6463TIP3   OH241023   6.093   5.792   7.515 -1.5001  0.2989 -0.3464
 6463TIP3    H141024   5.999   5.806   7.498 -1.8886  0.6116  1.7442
 6463TIP3    H241025   6.094   5.728   7.586 -0.1636  0.9764  0.2743
 6464TIP3   OH241026   3.919   5.806   7.886  0.2054  0.7991  0.6181
 6464TIP3    H141027   3.874   5.762   7.958  1.4435  0.6354  1.3045
 6464TIP3    H241028   3.854   5.868   7.852 -0.5545  0.5402  1.5510
 6465TIP3   OH241029   3.408   2.211   6.479 -0.6685 -0.5181  0.3610
 6465TIP3    H141030   3.431   2.256   6.398 -1.4083 -1.8418 -0.6275
 6465TIP3    H241031   3.472   2.241   6.543 -0.2054  0.7193 -0.6574
 6466TIP3   OH241032   3.861   2.824   0.813 -0.5634 -0.0791 -0.0298
 6466TIP3    H141033   3.852   2.756   0.879 -1.3136  1.1489  1.1780
 6466TIP3    H241034   3.802   2.894   0.842 -1.0220  0.4460 -2.0689
 6467TIP3   OH241035   0.979   1.245   1.300  0.4026  0.0925 -0.2279
 6467TIP3    H141036   1.000   1.210   1.387 -2.4118  0.0808  0.5362
 6467TIP3    H241037   1.010   1.335   1.303 -0.4950  0.3909  1.1814
 6468TIP3   OH241038   5.382   6.347   7.838  0.8453 -0.1461 -0.1499
 6468TIP3    H141039   5.461   6.389   7.871  2.0475 -3.5710  1.9041
 6468TIP3    H241040   5.400   6.253   7.845 -3.1766 -1.1060 -0.1554
 6469TIP3   OH241041   5.043   2.119   0.838  0.0580  0.0212 -0.2455
 6469TIP3    H141042   4.983   2.050   0.808  1.0508 -1.0763  0.2489
 6469TIP3    H241043   5.090   2.145   0.758  0.3158 -0.5202 -0.2766
 6470TIP3   OH241044   2.383   5.541   7.872 -0.6535 -0.4236 -0.2999
 6470TIP3    H141045   2.357   5.628   7.900 -0.4525 -0.0589 -1.2326
 6470TIP3    H241046   2.458   5.519   7.928  0.4276  0.7354 -1.2545
 6471TIP3   OH241047   3.711   5.565   7.499 -0.2403 -0.0552  0.2477
 6471TIP3    H141048   3.776   5.497   7.510 -0.3584  0.0602  1.8733
 6471TIP3    H241049   3.762   5.645   7.485 -0.0274 -0.0271  1.1334
 6472TIP3   OH241050   5.176   2.863   2.512 -0.4332  0.0050  0.0002
 6472TIP3    H141051   5.263   2.826   2.528 -0.7725 -0.6728  0.3031
 6472TIP3    H241052   5.183   2.903   2.425 -0.0698 -0.8293 -0.3658
 6473TIP3   OH241053   5.771   2.265   6.874 -0.6810 -0.2707 -0.5254
 6473TIP3    H141054   5.835   2.295   6.809 -0.5336  0.5572 -0.0219
 6473TIP3    H241055   5.787   2.171   6.883  0.0833 -0.1752 -0.8292
 6474TIP3   OH241056   2.120   1.518   7.252 -0.1572 -0.5521  0.2859
 6474TIP3    H141057   2.091   1.431   7.224  0.0468 -0.6824  0.4787
 6474TIP3    H241058   2.053   1.546   7.315 -0.7636 -0.1429 -0.5247
 6475TIP3   OH241059   0.638   5.967   2.052  0.2184 -0.5341  0.0405
 6475TIP3    H141060   0.630   5.910   1.975  2.0783 -0.4307 -0.2599
 6475TIP3    H241061   0.701   5.923   2.109  0.7336  0.5917  0.3745
 6476TIP3   OH241062   5.416   4.071   7.318 -0.3376  0.0873 -0.0763
 6476TIP3    H141063   5.421   4.126   7.396 -0.6301 -0.7553  0.5495
 6476TIP3    H241064   5.334   4.098   7.275  0.2080  1.0820 -0.5110
 6477TIP3   OH241065   4.320   5.925   0.880  0.1804  0.0392  0.1013
 6477TIP3    H141066   4.266   5.924   0.801 -0.6592 -2.0533  0.6214
 6477TIP3    H241067   4.297   6.006   0.924 -0.8203  0.2784 -0.8211
 6478TIP3   OH241068   5.249   3.550   8.098  0.1112 -0.3726  0.5787
 6478TIP3    H141069   5.280   3.463   8.122 -0.7281 -0.5419  1.1056
 6478TIP3    H241070   5.244   3.597   8.182  1.9228  0.6680  0.1648
 6479TIP3   OH241071   4.691   3.352   7.273 -0.2625 -0.5665 -0.6227
 6479TIP3    H141072   4.682   3.419   7.206 -3.8687  0.6355  0.8194
 6479TIP3    H241073   4.682   3.269   7.226 -2.5381  0.2355 -1.7463
 6480TIP3   OH241074   3.196   6.134   0.311  0.5460  0.4735 -0.9002
 6480TIP3    H141075   3.136   6.123   0.385  1.0476 -2.2157 -0.8080
 6480TIP3    H241076   3.277   6.167   0.351  0.3918  0.3022 -0.4318
 6481TIP3   OH241077   6.494   1.102   0.748  0.3455  0.2955  0.0978
 6481TIP3    H141078   6.426   1.048   0.788  0.0114  1.2542  0.8802
 6481TIP3    H241079   6.477   1.190   0.781  1.5189  0.6941 -0.2940
 6482TIP3   OH241080   5.727   4.424   6.914 -0.1572 -0.3299 -0.2658
 6482TIP3    H141081   5.768   4.509   6.902 -0.8587  0.0216 -0.2272
 6482TIP3    H241082   5.790   4.361   6.878 -0.1425  0.3070 -1.3944
 6483TIP3   OH241083   5.878   5.112   8.418  0.4846  0.1185 -0.4934
 6483TIP3    H141084   5.953   5.096   8.360  1.1106 -1.0597  0.5875
 6483TIP3    H241085   5.875   5.035   8.475 -1.7730 -0.0202 -0.7117
 6484TIP3   OH241086   0.745   2.723   0.827  0.2903  0.4905  0.3287
 6484TIP3    H141087   0.796   2.796   0.792  0.3818  1.0397  1.5380
 6484TIP3    H241088   0.811   2.661   0.859  0.2569  1.3113  2.1182
 6485TIP3   OH241089   0.070   3.107   8.515 -0.6760 -0.3113 -0.0486
 6485TIP3    H141090   0.104   3.077   8.600 -0.7762  0.8829  0.4311
 6485TIP3    H241091  -0.025   3.101   8.523 -0.7088  0.3344  0.1472
 6486TIP3   OH241092   1.042   1.660   0.762  0.1937 -0.1041  0.0880
 6486TIP3    H141093   1.003   1.580   0.796  0.6878 -0.1973  0.4441
 6486TIP3    H241094   0.990   1.681   0.685 -0.5507 -0.2260  0.5508
 6487TIP3   OH241095   0.873   6.172   7.962  0.4250 -0.0807 -0.5618
 6487TIP3    H141096   0.934   6.227   7.913 -0.4713  2.0771  0.5976
 6487TIP3    H241097   0.819   6.234   8.012  0.0743 -2.0633  1.7239
 6488TIP3   OH241098   0.572   6.100   0.637 -1.4639 -0.0272  0.1657
 6488TIP3    H141099   0.636   6.051   0.689 -1.5716 -0.8186 -0.4310
 6488TIP3    H241100   0.622   6.134   0.563 -2.0881 -2.5187 -1.5310
 6489TIP3   OH241101   5.820   0.026   0.370  0.0347  0.1848 -0.1969
 6489TIP3    H141102   5.732  -0.011   0.365 -0.0423  0.4903 -1.4202
 6489TIP3    H241103   5.854   0.020   0.281  1.5263 -0.5505  0.3991
 6490TIP3   OH241104   4.084   3.645   7.527 -0.1021 -0.0985  0.1427
 6490TIP3    H141105   4.142   3.614   7.458  0.3949  1.5271 -0.2146
 6490TIP3    H241106   4.074   3.570   7.585 -0.2775 -1.4110 -1.5000
 6491TIP3   OH241107   6.431   1.911   0.093  0.2066 -0.0124  0.5371
 6491TIP3    H141108   6.367   1.975   0.122  0.6103  0.4492  0.4193
 6491TIP3    H241109   6.385   1.827   0.097 -0.7950  0.4589 -0.7615
 6492TIP3   OH241110   4.276   6.763   0.789 -0.3849 -0.2749 -0.9107
 6492TIP3    H141111   4.239   6.675   0.788  1.2140 -1.0210 -3.5580
 6492TIP3    H241112   4.201   6.821   0.778 -1.5372 -1.1615  1.4528
 6493TIP3   OH241113   6.802   6.882   2.481 -0.2432  0.2649 -0.1468
 6493TIP3    H141114   6.769   6.972   2.489 -0.1977  0.3483 -0.8925
 6493TIP3    H241115   6.863   6.873   2.554  0.1161  1.0033 -0.3456
 6494TIP3   OH241116   2.978   6.304   8.366 -0.3134 -0.1638 -0.5155
 6494TIP3    H141117   2.898   6.341   8.401  0.0878  0.2054  0.0273
 6494TIP3    H241118   2.981   6.334   8.275 -2.2206 -2.5200 -1.4730
 6495TIP3   OH241119   5.915   2.898   6.127 -0.0433 -0.1110  0.3927
 6495TIP3    H141120   5.834   2.875   6.081  0.5159 -0.9984 -0.1603
 6495TIP3    H241121   5.934   2.822   6.182  0.4001  0.1127  0.5505
 6496TIP3   OH241122   3.205   0.934   7.481 -0.1531  0.2377 -0.6850
 6496TIP3    H141123   3.174   1.020   7.507 -0.8577 -0.3730  0.5708
 6496TIP3    H241124   3.301   0.940   7.487 -0.1025  1.3429 -2.0416
 6497TIP3   OH241125   0.069   4.557   1.094 -0.0142  0.1592  0.1982
 6497TIP3    H141126  -0.024   4.580   1.099 -0.1781 -0.5418  0.4680
 6497TIP3    H241127   0.087   4.548   1.000  0.0488  1.3480  0.0883
 6498TIP3   OH241128   2.496   2.328   1.793  0.0782 -0.1407  0.6572
 6498TIP3    H141129   2.558   2.302   1.862 -0.9239  1.4741  2.2777
 6498TIP3    H241130   2.459   2.411   1.825 -0.1778  0.8857 -2.0274
 6499TIP3   OH241131   5.407   6.136   7.351 -0.2852 -0.1766  0.1363
 6499TIP3    H141132   5.436   6.191   7.279 -1.1220 -0.7175 -0.6287
 6499TIP3    H241133   5.360   6.196   7.410  1.7813  0.5942  1.1034
 6500TIP3   OH241134   0.718   2.142   7.157  0.2916  0.6123  0.4896
 6500TIP3    H141135   0.730   2.048   7.148  1.6159  0.5986  1.9210
 6500TIP3    H241136   0.790   2.180   7.106 -0.9968  0.9218 -1.1777
 6501TIP3   OH241137   1.107   5.384   0.566 -0.2249 -0.7333 -0.3770
 6501TIP3    H141138   1.174   5.381   0.498 -1.1355 -0.1776 -1.3245
 6501TIP3    H241139   1.025   5.363   0.521 -0.6690 -1.6962  0.8161
 6502TIP3   OH241140   4.173   6.637   8.441  0.0912  0.3743 -0.2948
 6502TIP3    H141141   4.139   6.709   8.389 -0.5443  0.0006 -0.4119
 6502TIP3    H241142   4.182   6.565   8.379 -3.1704 -0.9080  0.5056
 6503TIP3   OH241143   1.362   6.546   0.479  0.2629  0.5160 -0.3058
 6503TIP3    H141144   1.273   6.573   0.505  0.3456  1.7381 -1.1831
 6503TIP3    H241145   1.417   6.620   0.503  1.0040 -0.0887 -0.1018
 6504TIP3   OH241146   1.979   1.352   1.390 -0.2224  0.1309  0.4413
 6504TIP3    H141147   1.913   1.347   1.321 -0.4103 -2.8951  0.6744
 6504TIP3    H241148   2.061   1.369   1.344 -0.4262 -1.3411 -0.5299
 6505TIP3   OH241149   1.330   1.500   1.831 -0.2444 -0.4232 -0.0648
 6505TIP3    H141150   1.335   1.449   1.912  1.5412 -0.7005 -0.3083
 6505TIP3    H241151   1.238   1.525   1.824 -0.6361 -1.3013  1.4845
 6506TIP3   OH241152   6.012   0.754   2.536  0.5241 -0.1905  0.4137
 6506TIP3    H141153   6.018   0.834   2.589  0.0662 -1.2792  2.1817
 6506TIP3    H241154   5.971   0.690   2.594 -0.6178 -1.2734 -1.5015
 6507TIP3   OH241155   1.772   3.579   7.027  0.2095 -0.0556  0.0118
 6507TIP3    H141156   1.858   3.541   7.009 -0.2335 -0.5743 -1.0898
 6507TIP3    H241157   1.785   3.674   7.018  0.4484 -0.1885 -1.1507
 6508TIP3   OH241158   2.614   5.641   1.964  0.1272 -0.1852  0.1163
 6508TIP3    H141159   2.565   5.685   1.894  0.2377  0.7302  0.5945
 6508TIP3    H241160   2.558   5.567   1.989 -0.8991  0.6645  0.4421
 6509TIP3   OH241161   1.270   1.358   6.346 -0.6434  0.3327 -0.0526
 6509TIP3    H141162   1.311   1.374   6.261  1.2558  1.4310  1.0164
 6509TIP3    H241163   1.256   1.263   6.347 -0.6689  0.2857 -1.5580
 6510TIP3   OH241164   1.393   4.916   7.453  0.5270 -0.2525  0.1713
 6510TIP3    H141165   1.471   4.863   7.463  1.2830  0.5642 -1.1021
 6510TIP3    H241166   1.409   4.993   7.508 -0.5954 -1.2831  2.0702
 6511TIP3   OH241167   6.005   0.973   7.829 -0.2704  0.0220 -0.0816
 6511TIP3    H141168   5.936   0.924   7.873 -0.7867  0.4874 -0.3628
 6511TIP3    H241169   5.976   0.980   7.738  0.3908 -0.2160 -0.3192
 6512TIP3   OH241170   1.331   2.168   7.238 -0.1915 -0.0875  0.3796
 6512TIP3    H141171   1.363   2.108   7.305 -0.9498  0.8706  1.6357
 6512TIP3    H241172   1.378   2.143   7.159 -1.0402 -2.8724  0.6447
 6513TIP3   OH241173   5.636   3.160   0.518  0.1215 -0.5273  0.3842
 6513TIP3    H141174   5.650   3.116   0.434  0.3375  0.6266 -0.2024
 6513TIP3    H241175   5.617   3.089   0.579  0.1668 -1.4062 -0.5930
 6514TIP3   OH241176   5.768   6.012   6.736 -0.1179  0.8972  0.0503
 6514TIP3    H141177   5.832   6.027   6.805  1.9050  1.3937 -1.8193
 6514TIP3    H241178   5.808   5.945   6.680 -3.7336 -3.1549  1.7532
 6515TIP3   OH241179   2.677   1.289   7.493 -0.1612 -0.2107 -0.4401
 6515TIP3    H141180   2.710   1.234   7.422  0.9439 -0.7731  0.4672
 6515TIP3    H241181   2.726   1.370   7.487  0.0781 -0.3349 -0.2184
 6516TIP3   OH241182   5.656   0.538   2.093 -0.0437  0.2251 -0.0363
 6516TIP3    H141183   5.718   0.594   2.141 -1.5004  0.9268  1.1115
 6516TIP3    H241184   5.648   0.460   2.148  1.4889 -0.8837 -1.3110
 6517TIP3   OH241185   4.589   3.309   1.154  0.0519 -0.8783 -0.2356
 6517TIP3    H141186   4.523   3.245   1.129 -1.3469 -0.1772  1.4438
 6517TIP3    H241187   4.561   3.391   1.113  2.2828 -1.3662 -3.0776
 6518TIP3   OH241188   2.025   2.336   0.939 -0.2922  0.0019 -0.4567
 6518TIP3    H141189   1.961   2.396   0.980 -1.2185  0.9971 -3.1204
 6518TIP3    H241190   1.983   2.250   0.944 -0.4682  0.1249  0.4535
 6519TIP3   OH241191   3.330   2.929   7.210  0.3103  0.6244  0.4475
 6519TIP3    H141192   3.260   2.956   7.152 -0.1904  1.2574  1.3163
 6519TIP3    H241193   3.410   2.945   7.161 -0.1407  0.1830 -0.4382
 6520TIP3   OH241194   1.476   0.131   0.413 -0.3437  0.4523  0.5690
 6520TIP3    H141195   1.409   0.112   0.347  0.0890 -1.4921  0.6166
 6520TIP3    H241196   1.496   0.224   0.401 -0.4293  0.2245 -1.9184
 6521TIP3   OH241197   3.153   3.194   8.503  0.1804  0.2423  0.3907
 6521TIP3    H141198   3.125   3.114   8.546 -0.2768  1.1430  1.8458
 6521TIP3    H241199   3.083   3.214   8.441  0.7831 -0.9935 -0.7569
 6522TIP3   OH241200   2.233   4.673   1.138  0.2084 -0.0142  0.3410
 6522TIP3    H141201   2.149   4.629   1.131  1.4271 -2.5046  0.1771
 6522TIP3    H241202   2.298   4.604   1.125  2.3229  1.5340  1.8202
 6523TIP3   OH241203   4.040   4.276   1.313  0.3191  0.2920  0.4170
 6523TIP3    H141204   4.083   4.190   1.315  0.5601  0.4184  2.4668
 6523TIP3    H241205   4.110   4.337   1.289  0.5609  0.1162  0.6630
 6524TIP3   OH241206   2.365   2.126   1.588 -0.0135 -0.2777 -0.2331
 6524TIP3    H141207   2.325   2.087   1.667 -1.0055  0.0713 -0.5446
 6524TIP3    H241208   2.421   2.195   1.622 -0.3770 -0.1767  0.1832
 6525TIP3   OH241209   3.886   2.406   8.649  0.9190  0.1344 -0.0938
 6525TIP3    H141210   3.826   2.332   8.662  0.8900 -0.0695 -1.2953
 6525TIP3    H241211   3.884   2.452   8.733  1.8099 -1.8332  1.0908
 6526TIP3   OH241212   3.351   6.211   7.575  0.1457  0.3042  0.3195
 6526TIP3    H141213   3.338   6.125   7.615 -0.4969  0.4463  0.4309
 6526TIP3    H241214   3.359   6.194   7.482 -0.5722  0.1671  0.2744
 6527TIP3   OH241215   1.896   0.789   0.673 -0.0741 -0.6708  0.2349
 6527TIP3    H141216   1.890   0.873   0.629  0.5848 -0.5815  0.3137
 6527TIP3    H241217   1.981   0.790   0.717  1.2171 -2.4809 -2.0210
 6528TIP3   OH241218   1.774   4.284   7.345 -0.0213  0.5728  0.2441
 6528TIP3    H141219   1.866   4.271   7.320 -0.5587 -2.9005 -0.3858
 6528TIP3    H241220   1.725   4.263   7.265 -1.4434  2.8032  0.4428
 6529TIP3   OH241221   1.016   2.737   0.779  0.0403  0.1217  0.0521
 6529TIP3    H141222   1.047   2.690   0.701  0.3326 -0.9434  0.7784
 6529TIP3    H241223   1.024   2.673   0.850 -1.6087  0.5742  0.6977
 6530TIP3   OH241224   0.967   4.622   8.214  0.1918  0.2399 -0.1785
 6530TIP3    H141225   1.010   4.693   8.167  1.9911 -1.6487 -1.6066
 6530TIP3    H241226   0.926   4.569   8.146 -0.4716 -0.5057  0.7629
 6531TIP3   OH241227   2.238   0.337   1.283 -0.4893 -0.1330  0.0261
 6531TIP3    H141228   2.276   0.254   1.252 -1.0503 -0.4370  0.1358
 6531TIP3    H241229   2.276   0.403   1.225 -1.3992 -0.6758 -1.2417
 6532TIP3   OH241230   3.102   3.314   1.692  0.1691  0.1259  0.2363
 6532TIP3    H141231   3.056   3.305   1.609  0.9309 -0.3271 -0.1527
 6532TIP3    H241232   3.160   3.238   1.695  0.3947  0.3255  1.0194
 6533TIP3   OH241233   1.636   2.613   6.915  0.7156 -0.1124  0.2330
 6533TIP3    H141234   1.589   2.530   6.915  0.5851 -0.0423 -0.2413
 6533TIP3    H241235   1.703   2.603   6.847  1.0877 -0.0448  0.5838
 6534TIP3   OH241236   2.120   0.780   0.850  0.2016  0.0834  0.7506
 6534TIP3    H141237   2.152   0.760   0.761  0.9275 -0.2742  1.0851
 6534TIP3    H241238   2.179   0.848   0.882 -0.2999  0.4921  0.8242
 6535TIP3   OH241239   1.162   1.097   0.891  0.7998  0.2126 -0.0633
 6535TIP3    H141240   1.170   1.176   0.838  2.1979  1.7081  2.1501
 6535TIP3    H241241   1.221   1.113   0.966 -1.7326 -1.2619  2.4574
 6536TIP3   OH241242   4.625   6.270   1.116 -0.4184 -0.2422  0.0019
 6536TIP3    H141243   4.529   6.271   1.125 -0.8059  1.6254 -2.8205
 6536TIP3    H241244   4.640   6.223   1.033  1.1955 -0.9680  0.6597
 6537TIP3   OH241245   5.330   6.696   7.028 -0.5755 -0.5451  0.0088
 6537TIP3    H141246   5.323   6.699   7.123 -2.8026 -0.9323 -0.0891
 6537TIP3    H241247   5.307   6.605   7.005 -0.8605 -0.2487 -0.9384
 6538TIP3   OH241248   6.546   1.313   8.070  0.2453  0.0300 -0.1462
 6538TIP3    H141249   6.454   1.327   8.092  0.6298  1.0347  0.9492
 6538TIP3    H241250   6.574   1.240   8.126  0.1706 -0.1637 -0.3576
 6539TIP3   OH241251   3.803   3.962   0.103 -0.4998  0.8906  0.5306
 6539TIP3    H141252   3.721   3.915   0.091  0.3188 -0.9077  1.6401
 6539TIP3    H241253   3.822   3.999   0.016 -1.1126 -0.9722 -0.4456
 6540TIP3   OH241254   0.288   4.507   0.174 -0.5171 -0.4403  0.6915
 6540TIP3    H141255   0.316   4.561   0.248  2.5240 -0.6953 -0.1148
 6540TIP3    H241256   0.370   4.482   0.131 -2.0866 -1.5060 -1.9179
 6541TIP3   OH241257   2.633   5.341   7.343  0.0657 -0.3082 -0.1269
 6541TIP3    H141258   2.712   5.316   7.391 -0.7777 -0.1796  1.4017
 6541TIP3    H241259   2.569   5.360   7.411 -1.5659 -1.2597 -1.3127
 6542TIP3   OH241260   3.214   1.282   1.801 -0.0539 -0.5666  0.5453
 6542TIP3    H141261   3.281   1.224   1.837  0.4035  0.8098  2.0259
 6542TIP3    H241262   3.262   1.360   1.773 -1.0217  0.6187  2.0110
 6543TIP3   OH241263   6.045   4.322   7.229 -0.5271  0.3405 -0.1107
 6543TIP3    H141264   6.087   4.250   7.276 -0.2810 -0.2886 -1.2369
 6543TIP3    H241265   6.045   4.395   7.291  0.2639 -0.2881  0.6630
 6544TIP3   OH241266   3.324   0.178   0.034 -0.0013  0.3977  0.3239
 6544TIP3    H141267   3.234   0.158   0.058 -0.2822  0.3487 -0.7331
 6544TIP3    H241268   3.375   0.154   0.111 -0.8403  0.0591  0.7887
 6545TIP3   OH241269   2.747   2.038   8.633  0.2967 -0.6058  0.1144
 6545TIP3    H141270   2.735   1.957   8.583 -0.6847 -1.0960  1.1160
 6545TIP3    H241271   2.790   2.010   8.714  0.5645 -0.0223  0.1811
 6546TIP3   OH241272   0.864   3.619   0.950 -0.2606 -0.3737 -0.0878
 6546TIP3    H141273   0.916   3.614   0.870 -1.1430  0.1574 -0.7080
 6546TIP3    H241274   0.779   3.652   0.921  0.4291  3.3404  1.5083
 6547TIP3   OH241275   3.626   6.612   1.481  0.0282 -0.1707  0.3435
 6547TIP3    H141276   3.635   6.559   1.402  0.0805 -0.0623  0.2760
 6547TIP3    H241277   3.693   6.680   1.472  1.3648 -1.2620  1.3713
 6548TIP3   OH241278   5.189   0.412   0.372 -0.2584  0.0665  0.3387
 6548TIP3    H141279   5.112   0.454   0.409 -0.1766  0.0952  0.4778
 6548TIP3    H241280   5.204   0.335   0.427  0.5704  0.7560  1.1205
 6549TIP3   OH241281   1.590   6.428   0.836 -0.1974  0.2531  0.4398
 6549TIP3    H141282   1.499   6.433   0.864 -0.3775 -0.2644 -0.0460
 6549TIP3    H241283   1.591   6.470   0.750  0.0820  0.5248  0.5719
 6550TIP3   OH241284   0.059   0.070   1.519  0.0461 -0.4305 -0.2926
 6550TIP3    H141285  -0.027   0.083   1.560  0.6689 -0.0624  0.9575
 6550TIP3    H241286   0.099  -0.001   1.569  1.0936  0.4880  0.2343
 6551TIP3   OH241287   2.701   2.617   7.653  0.2048 -0.2525  0.1613
 6551TIP3    H141288   2.654   2.546   7.609 -0.5561 -0.5384  1.4015
 6551TIP3    H241289   2.683   2.694   7.599  0.2088 -0.7970 -0.6387
 6552TIP3   OH241290   4.600   4.359   7.332 -0.5027  0.2341  0.0305
 6552TIP3    H141291   4.678   4.306   7.319  0.2573  1.4695 -0.6815
 6552TIP3    H241292   4.575   4.386   7.243  0.1219  2.3813  0.4500
 6553TIP3   OH241293   2.772   4.523   7.820 -0.5800  0.0746  0.2674
 6553TIP3    H141294   2.864   4.503   7.802 -0.4450  0.3267  0.6776
 6553TIP3    H241295   2.772   4.613   7.853 -0.8564 -0.2640  1.2363
 6554TIP3   OH241296   3.334   1.804   7.837 -0.3841  0.2300 -0.4434
 6554TIP3    H141297   3.352   1.765   7.923 -2.7437 -3.1941 -1.3201
 6554TIP3    H241298   3.420   1.819   7.799  0.6878  0.4839  1.9156
 6555TIP3   OH241299   4.044   4.489   8.467  0.3312  0.4510 -0.6055
 6555TIP3    H141300   4.098   4.468   8.543 -2.3566 -1.4788  0.9612
 6555TIP3    H241301   3.955   4.492   8.502 -0.9430  0.2420 -3.5728
 6556TIP3   OH241302   2.602   1.656   7.645 -0.1557 -0.0231  0.1948
 6556TIP3    H141303   2.549   1.702   7.581  0.2837  0.6450  0.3030
 6556TIP3    H241304   2.597   1.564   7.619  0.7468  0.3332 -1.3303
 6557TIP3   OH241305   4.321   1.595   2.362  0.1053  0.4384 -0.2117
 6557TIP3    H141306   4.382   1.666   2.384  1.1518 -0.2757 -0.7169
 6557TIP3    H241307   4.306   1.605   2.268 -0.2036  0.3374 -0.1744
 6558TIP3   OH241308   4.017   3.318   8.222  0.3114  0.4456 -0.0445
 6558TIP3    H141309   4.110   3.316   8.200  0.1815 -1.0277 -0.5938
 6558TIP3    H241310   4.013   3.289   8.314  0.6414  4.1190  1.2863
 6559TIP3   OH241311   4.141   1.144   0.366 -0.1527 -0.6477  0.3512
 6559TIP3    H141312   4.176   1.130   0.453 -0.1401  0.3734  0.5238
 6559TIP3    H241313   4.099   1.230   0.370  1.6168  0.3561 -1.1836
 6560TIP3   OH241314   5.164   2.939   0.555 -0.1911 -0.4136  0.1377
 6560TIP3    H141315   5.210   2.866   0.596 -0.7627 -0.2351  1.1380
 6560TIP3    H241316   5.137   2.905   0.470 -1.0060 -1.6153  0.8341
 6561TIP3   OH241317   2.570   1.597   1.469 -0.0441 -0.1556 -0.0586
 6561TIP3    H141318   2.618   1.533   1.522  1.2349 -1.0738 -2.1647
 6561TIP3    H241319   2.639   1.644   1.421 -1.0405  1.9479  0.4504
 6562TIP3   OH241320   4.399   1.156   6.508  0.0931  0.3103 -0.4179
 6562TIP3    H141321   4.427   1.194   6.425 -0.6401  0.2788 -0.6861
 6562TIP3    H241322   4.378   1.231   6.563  0.8097  0.3370 -0.1737
 6563TIP3   OH241323   4.818   2.919   0.621 -0.1292 -0.0338  0.3359
 6563TIP3    H141324   4.848   2.866   0.548  1.7663 -1.5104  2.0913
 6563TIP3    H241325   4.820   3.009   0.588  1.3041 -0.5935 -1.2186
 6564TIP3   OH241326   0.841   1.374   0.224  0.3818  0.4407 -0.2475
 6564TIP3    H141327   0.858   1.317   0.149  0.4637  0.6802 -0.4095
 6564TIP3    H241328   0.750   1.400   0.214 -0.1953 -1.0306  0.7461
 6565TIP3   OH241329   2.831   4.395   8.318 -0.4548  0.5680  0.3653
 6565TIP3    H141330   2.886   4.319   8.338 -1.7811 -0.0193  2.0142
 6565TIP3    H241331   2.885   4.448   8.259  0.0951 -2.1557 -1.7753
 6566TIP3   OH241332   6.646   3.644   1.054  0.5401  0.4790 -0.2835
 6566TIP3    H141333   6.645   3.549   1.046  1.1709  0.1019  2.9195
 6566TIP3    H241334   6.553   3.668   1.062  0.4744 -0.1806  1.2389
 6567TIP3   OH241335   1.108   1.421   8.235  0.1999  0.2858 -0.0320
 6567TIP3    H141336   1.098   1.493   8.173  0.1549 -0.1414 -0.5292
 6567TIP3    H241337   1.196   1.386   8.218  0.7967  1.1254  1.1922
 6568TIP3   OH241338   2.945   2.049   1.881 -0.3155  0.4771  0.2810
 6568TIP3    H141339   2.932   2.141   1.855 -1.2320  0.0721 -0.7982
 6568TIP3    H241340   2.864   2.027   1.928 -1.4180 -0.5794 -1.9710
 6569TIP3   OH241341   1.888   2.793   1.751  0.1207 -0.5996  0.2737
 6569TIP3    H141342   1.957   2.741   1.791 -0.0689 -0.8300  0.3037
 6569TIP3    H241343   1.934   2.861   1.701  0.3610  0.9326  2.4530
 6570TIP3   OH241344   3.560   3.653   0.089 -0.8929  0.5582  0.1953
 6570TIP3    H141345   3.644   3.634   0.047 -0.9412 -0.5170  0.5527
 6570TIP3    H241346   3.570   3.742   0.123  0.2718  0.2783  0.6363
 6571TIP3   OH241347   3.973   3.242   1.816  0.5616 -0.7122  0.4831
 6571TIP3    H141348   3.988   3.246   1.910 -0.6324 -0.4766  0.6815
 6571TIP3    H241349   3.903   3.306   1.800  0.2191 -1.2972 -0.4471
 6572TIP3   OH241350   0.190   4.156   7.016 -0.0870 -0.4223  0.1901
 6572TIP3    H141351   0.150   4.069   7.018 -0.5685 -0.2242 -0.5950
 6572TIP3    H241352   0.179   4.186   6.926  1.1509 -0.0398  0.1466
 6573TIP3   OH241353   3.993   1.649   1.507 -0.3343 -0.0771  0.1894
 6573TIP3    H141354   3.903   1.617   1.512 -0.0778 -0.9249 -0.3235
 6573TIP3    H241355   3.992   1.732   1.554 -1.6360  0.4898 -0.7964
 6574TIP3   OH241356   4.910   3.652   6.493 -0.6445 -0.0193  0.4766
 6574TIP3    H141357   4.946   3.626   6.578  1.0301  3.1170  0.8918
 6574TIP3    H241358   4.923   3.576   6.437  0.6280 -1.2898  2.3784
 6575TIP3   OH241359   1.473   1.735   1.633  0.6411 -0.4289 -0.1354
 6575TIP3    H141360   1.465   1.642   1.609  0.6658 -0.7964  1.2017
 6575TIP3    H241361   1.387   1.772   1.612  0.6015 -0.7744 -0.5961
 6576TIP3   OH241362   3.834   1.068   8.066 -0.5295  0.8157 -0.1787
 6576TIP3    H141363   3.837   0.972   8.070 -1.2571  0.8148  1.1115
 6576TIP3    H241364   3.873   1.090   7.982 -1.1549 -0.6581 -0.8929
 6577TIP3   OH241365   0.421   0.809   7.402  0.2040  0.4945  0.4457
 6577TIP3    H141366   0.490   0.743   7.401 -0.2319  0.0315 -0.3537
 6577TIP3    H241367   0.421   0.843   7.491  0.8064 -0.1993  0.7181
 6578TIP3   OH241368   4.888   0.869   2.100  0.4227  0.3053 -0.9756
 6578TIP3    H141369   4.799   0.846   2.127  0.7670 -0.4651 -0.4761
 6578TIP3    H241370   4.891   0.964   2.108  0.7531  0.1362  2.5777
 6579TIP3   OH241371   6.178   2.875   0.465 -0.0745  0.4201  0.1228
 6579TIP3    H141372   6.164   2.967   0.442  1.7064  0.8118  0.4940
 6579TIP3    H241373   6.271   2.860   0.449 -0.3612 -1.3703 -0.0659
 6580TIP3   OH241374   0.356   4.371   7.808 -0.1726 -0.2383  0.2752
 6580TIP3    H141375   0.430   4.323   7.844  0.7627  0.5269 -0.5842
 6580TIP3    H241376   0.308   4.402   7.885  0.6014 -0.4362  0.8476
 6581TIP3   OH241377   6.303   3.084   6.284 -0.4649  0.6467 -0.3552
 6581TIP3    H141378   6.260   3.112   6.203 -2.4819  3.2282  1.4343
 6581TIP3    H241379   6.235   3.037   6.332  0.2135  0.4999  0.4897
 6582TIP3   OH241380   1.623   3.591   0.498 -0.3740 -0.5354 -0.2739
 6582TIP3    H141381   1.640   3.527   0.567 -0.0818 -0.9959 -0.7585
 6582TIP3    H241382   1.527   3.596   0.493 -0.4405 -1.9556 -1.1145
 6583TIP3   OH241383   5.623   4.215   1.412  0.0773 -0.2585  0.1418
 6583TIP3    H141384   5.648   4.278   1.480  1.5433  0.2207 -0.8004
 6583TIP3    H241385   5.635   4.262   1.330  1.1461 -1.7298 -0.5893
 6584TIP3   OH241386   0.204   5.568   7.254 -0.4014  0.1722  0.1127
 6584TIP3    H141387   0.272   5.578   7.320 -0.0514 -1.8253  0.1250
 6584TIP3    H241388   0.237   5.615   7.177 -0.0116  1.0325  0.7980
 6585TIP3   OH241389   0.093   3.692   7.897  0.1267 -0.0275 -0.6970
 6585TIP3    H141390   0.088   3.656   7.808 -0.2913  0.1973 -0.7656
 6585TIP3    H241391   0.035   3.769   7.895 -1.0013 -0.8261  0.1569
 6586TIP3   OH241392   4.220   0.590   1.720  0.9518  0.6692  0.3926
 6586TIP3    H141393   4.220   0.590   1.624 -0.1413 -1.2317  0.3408
 6586TIP3    H241394   4.312   0.597   1.744  1.4014 -0.6225 -0.8443
 6587TIP3   OH241395   0.398   4.322   7.003 -0.0619 -0.3381  0.5115
 6587TIP3    H141396   0.441   4.332   7.088  0.6415  0.0294  0.1218
 6587TIP3    H241397   0.363   4.233   7.005  2.3021 -1.3691  0.1632
 6588TIP3   OH241398   5.301   5.611   1.941 -0.0462  0.4077 -0.7219
 6588TIP3    H141399   5.368   5.556   1.980  1.7657  3.1622  0.3810
 6588TIP3    H241400   5.246   5.638   2.015 -0.5637  0.5395 -1.1459
 6589TIP3   OH241401   1.212   0.218   1.632 -0.1446 -0.1235 -0.4503
 6589TIP3    H141402   1.306   0.233   1.646 -0.1041  0.0837 -0.9015
 6589TIP3    H241403   1.186   0.157   1.701 -0.0173  1.0277  0.6504
 6590TIP3   OH241404   1.755   6.678   8.355 -0.0624 -0.1171 -0.0613
 6590TIP3    H141405   1.773   6.600   8.303  2.9577  1.1951 -1.2331
 6590TIP3    H241406   1.717   6.741   8.293 -0.9798 -0.1020  0.4945
 6591TIP3   OH241407   3.451   5.086   6.783 -0.0673  0.3411 -0.4281
 6591TIP3    H141408   3.529   5.077   6.727 -0.4697 -0.2769 -0.8956
 6591TIP3    H241409   3.433   5.180   6.784  0.6694  0.4869 -0.3355
 6592TIP3   OH241410   5.531   5.617   8.543 -0.1976  0.1656  0.2074
 6592TIP3    H141411   5.537   5.535   8.593  0.7224 -0.4780 -0.9174
 6592TIP3    H241412   5.437   5.635   8.539 -0.4771 -1.2200 -0.1281
 6593TIP3   OH241413   5.021   3.425   6.352 -0.2342  0.6169 -0.4735
 6593TIP3    H141414   4.994   3.336   6.326  0.2415  0.5617 -0.8048
 6593TIP3    H241415   5.109   3.414   6.387 -0.6166  0.7959  0.5848
 6594TIP3   OH241416   3.862   0.636   1.194  0.0586  0.3208 -0.1676
 6594TIP3    H141417   3.852   0.720   1.150 -1.1360 -0.0818 -0.7193
 6594TIP3    H241418   3.816   0.646   1.277  0.5612  0.4510  0.0924
 6595TIP3   OH241419   0.259   0.319   0.747 -0.1317 -0.5649 -0.1870
 6595TIP3    H141420   0.331   0.337   0.686 -0.9660 -0.2950 -1.1077
 6595TIP3    H241421   0.242   0.404   0.788 -0.7038 -0.3546 -0.8402
 6596TIP3   OH241422   2.846   5.499   1.358 -0.0490 -0.3616  0.5130
 6596TIP3    H141423   2.929   5.478   1.401  0.9419  0.2163 -1.0445
 6596TIP3    H241424   2.788   5.523   1.430  1.3017 -0.2341  1.6074
 6597TIP3   OH241425   4.734   1.044   0.942 -0.6964  0.4257 -0.2700
 6597TIP3    H141426   4.649   1.084   0.921 -0.7557  0.0196 -0.8455
 6597TIP3    H241427   4.721   0.951   0.922 -0.3777  0.2178  0.4682
 6598TIP3   OH241428   3.166   5.852   6.795  0.0591  0.3470 -0.1392
 6598TIP3    H141429   3.101   5.866   6.727 -1.8107 -0.6738  1.3585
 6598TIP3    H241430   3.148   5.764   6.828  0.6869  0.9142  1.8740
 6599TIP3   OH241431   1.740   1.719   7.171  0.8211 -0.3403  0.3081
 6599TIP3    H141432   1.777   1.672   7.246  0.9608 -1.8013 -0.6271
 6599TIP3    H241433   1.657   1.674   7.153  0.4869  0.3957 -0.0275
 6600TIP3   OH241434   5.456   0.962   0.653 -0.0076  0.1599  0.3744
 6600TIP3    H141435   5.488   0.968   0.563 -0.5318 -0.3655  0.1428
 6600TIP3    H241436   5.469   0.870   0.677  0.0948  0.2899  0.8215
 6601TIP3   OH241437   1.973   1.214   0.706  0.0562  0.0643  0.2135
 6601TIP3    H141438   1.907   1.161   0.751 -0.6962  1.0670  0.3233
 6601TIP3    H241439   1.998   1.161   0.630  0.6687 -1.2415  1.2795
 6602TIP3   OH241440   3.626   4.798   8.010  0.2219  0.3834  0.3679
 6602TIP3    H141441   3.595   4.745   7.937 -1.2494  0.8250  0.6430
 6602TIP3    H241442   3.704   4.842   7.976  0.5780 -0.7439 -0.3512
 6603TIP3   OH241443   3.394   1.904   1.768 -0.3499 -0.2028  0.8417
 6603TIP3    H141444   3.431   1.834   1.823 -0.0446  0.0359  0.9427
 6603TIP3    H241445   3.312   1.867   1.736 -0.4193 -0.4378  1.2699
 6604TIP3   OH241446   3.901   1.199   0.108 -0.1404 -0.2309 -0.3314
 6604TIP3    H141447   3.883   1.115   0.065  1.5458 -0.8798  0.1330
 6604TIP3    H241448   3.983   1.184   0.156 -0.5930  1.2401  0.9902
 6605TIP3   OH241449   4.805   4.200   7.012  0.0714  0.2322  0.3524
 6605TIP3    H141450   4.728   4.222   6.961  0.0030  0.0563  0.3790
 6605TIP3    H241451   4.875   4.190   6.947  0.1924  0.9072  0.3738
 6606TIP3   OH241452   1.980   2.170   7.124 -0.5949  0.1242 -0.1359
 6606TIP3    H141453   1.933   2.117   7.060  0.1664 -1.4227  0.5454
 6606TIP3    H241454   2.035   2.229   7.072 -0.4746 -0.6539 -0.9023
 6607TIP3   OH241455   6.620   5.731   1.068 -0.5371  0.4979 -0.6619
 6607TIP3    H141456   6.567   5.804   1.037 -0.6096  0.5721 -0.3683
 6607TIP3    H241457   6.669   5.702   0.991 -0.8918  0.5253 -0.8972
 6608TIP3   OH241458   1.879   4.626   0.212  0.0566  0.0564  0.2764
 6608TIP3    H141459   1.815   4.696   0.226 -1.0746 -1.0021  0.6855
 6608TIP3    H241460   1.960   4.670   0.190 -1.2036  1.4597 -1.9520
 6609TIP3   OH241461   2.587   6.545   0.670 -0.2906  0.6161 -0.0617
 6609TIP3    H141462   2.642   6.620   0.690  0.1182 -0.0404  1.3755
 6609TIP3    H241463   2.584   6.542   0.574  1.6104  1.0742 -0.1685
 6610TIP3   OH241464   0.111   6.151   6.958  0.2742  0.2952 -0.1489
 6610TIP3    H141465   0.043   6.204   6.917 -0.8836 -1.7651 -1.0282
 6610TIP3    H241466   0.099   6.166   7.052 -0.8530  0.6210 -0.3307
 6611TIP3   OH241467   0.570   3.546   1.376 -0.0531  0.4353 -0.3324
 6611TIP3    H141468   0.585   3.451   1.378 -0.0904  0.4294  1.6470
 6611TIP3    H241469   0.656   3.583   1.354  0.0934 -0.0384 -0.5713
 6612TIP3   OH241470   1.251   0.688   2.164  0.1746 -0.4124 -0.0015
 6612TIP3    H141471   1.268   0.664   2.073  0.5111  0.6809 -0.2423
 6612TIP3    H241472   1.333   0.725   2.195 -0.6996  1.7981 -0.1294
 6613TIP3   OH241473   3.539   4.591   7.840 -0.0110  0.1263  0.3964
 6613TIP3    H141474   3.485   4.597   7.761 -1.4589 -3.5735  0.9021
 6613TIP3    H241475   3.477   4.572   7.910  1.4839  1.1543  2.0883
 6614TIP3   OH241476   5.424   3.476   8.356  0.3909 -0.6393  0.7616
 6614TIP3    H141477   5.373   3.465   8.435 -1.2815  0.3844 -0.1199
 6614TIP3    H241478   5.406   3.397   8.304  0.5859 -0.7809  0.9070
 6615TIP3   OH241479   6.348   5.738   0.383 -0.6164  0.1717  0.7799
 6615TIP3    H141480   6.291   5.813   0.402 -0.0118  0.5617  1.0754
 6615TIP3    H241481   6.428   5.756   0.432  0.4946  0.5515 -1.0884
 6616TIP3   OH241482   1.011   5.437   8.011  0.1826 -0.2043 -0.3236
 6616TIP3    H141483   1.011   5.517   8.062 -0.4723 -0.7747  0.5986
 6616TIP3    H241484   0.921   5.429   7.979  0.6620  0.3252 -1.8775
 6617TIP3   OH241485   4.401   0.493   7.882 -0.1054 -0.9714  0.6330
 6617TIP3    H141486   4.367   0.552   7.949 -1.4911 -0.8616 -0.1346
 6617TIP3    H241487   4.460   0.548   7.830  1.6637 -1.2672  2.2172
 6618TIP3   OH241488   1.500   0.123   6.731  0.2033  0.1886  0.2524
 6618TIP3    H141489   1.571   0.097   6.672  0.8454  1.2025  0.5555
 6618TIP3    H241490   1.474   0.210   6.700 -1.5939 -0.5415 -0.4638
 6619TIP3   OH241491   1.171   5.801   7.398 -0.0165  0.6327 -0.4175
 6619TIP3    H141492   1.158   5.881   7.348 -0.9198 -1.2243 -3.4042
 6619TIP3    H241493   1.254   5.815   7.444  0.1778  3.0031 -1.3558
 6620TIP3   OH241494   4.330   1.664   7.473  0.2005  0.3063 -0.0244
 6620TIP3    H141495   4.278   1.741   7.497  1.2676  0.5919  1.5488
 6620TIP3    H241496   4.418   1.699   7.458  0.6834 -0.5828  0.6462
 6621TIP3   OH241497   4.077   2.136   1.071 -0.3843  0.0434 -0.2671
 6621TIP3    H141498   4.154   2.081   1.085 -0.2813 -0.1818 -1.5652
 6621TIP3    H241499   4.091   2.176   0.985 -1.1239  0.9964  0.0394
 6622TIP3   OH241500   5.330   5.246   0.780  0.4871  0.0362 -0.0728
 6622TIP3    H141501   5.311   5.202   0.697  1.2268 -1.7003  0.6274
 6622TIP3    H241502   5.375   5.327   0.754  0.2535 -0.2260 -1.3672
 6623TIP3   OH241503   0.359   4.659   7.994  0.3051 -0.2732 -0.7182
 6623TIP3    H141504   0.343   4.565   7.987  1.4114 -0.4446 -1.1589
 6623TIP3    H241505   0.341   4.680   8.086  0.1284 -0.9272 -0.5987
 6624TIP3   OH241506   2.281   6.281   8.535  0.1944 -0.1242 -0.2003
 6624TIP3    H141507   2.194   6.303   8.500  0.3141  1.0649  0.2210
 6624TIP3    H241508   2.265   6.261   8.627  0.3205 -0.2211 -0.1995
 6625TIP3   OH241509   5.647   3.928   6.969 -0.6070  0.3302  0.0029
 6625TIP3    H141510   5.727   3.895   6.929 -0.0114  0.5788  0.9429
 6625TIP3    H241511   5.614   3.854   7.021 -0.5775  0.4661  0.2149
 6626TIP3   OH241512   2.449   6.708   2.008  0.1159 -0.0882 -0.2856
 6626TIP3    H141513   2.485   6.621   2.026  0.5252 -0.3253 -2.0216
 6626TIP3    H241514   2.525   6.760   1.981 -0.3250  0.3986 -0.6243
 6627TIP3   OH241515   2.205   3.737   8.220  0.6348  0.4432 -0.1179
 6627TIP3    H141516   2.183   3.760   8.310 -0.0223  1.9403 -0.6354
 6627TIP3    H241517   2.125   3.752   8.170  0.8698 -0.7662 -0.9042
 6628TIP3   OH241518   1.789   3.807   7.687 -0.2777  0.0677 -0.0492
 6628TIP3    H141519   1.742   3.761   7.618  1.7481 -1.1215 -0.7226
 6628TIP3    H241520   1.747   3.778   7.768 -0.6362 -1.0531 -0.6166
 6629TIP3   OH241521   6.702   6.836   0.343  0.1387  0.2412 -0.0519
 6629TIP3    H141522   6.656   6.785   0.277 -1.1252  0.6655  0.4537
 6629TIP3    H241523   6.716   6.922   0.302  0.7423  0.0237 -0.3059
 6630TIP3   OH241524   1.776   5.151   7.208  0.3388  0.3658 -0.2453
 6630TIP3    H141525   1.783   5.116   7.119  2.8071  0.5362 -0.2022
 6630TIP3    H241526   1.847   5.108   7.256 -0.7782  0.4873  1.5887
 6631TIP3   OH241527   4.477   4.853   8.491 -0.5956 -0.1190 -0.2005
 6631TIP3    H141528   4.536   4.893   8.555  1.3911  0.2283 -2.1458
 6631TIP3    H241529   4.439   4.778   8.537  0.9840 -0.0512  1.2982
 6632TIP3   OH241530   4.479   1.665   8.560  0.4299 -0.1233  0.4518
 6632TIP3    H141531   4.566   1.704   8.547  0.3093 -0.2887 -1.1318
 6632TIP3    H241532   4.421   1.741   8.570  0.3789  0.1361 -1.3667
 6633TIP3   OH241533   1.399   2.102   1.547  0.4679  0.6227 -0.1084
 6633TIP3    H141534   1.310   2.090   1.581  0.8200 -1.6285  0.1695
 6633TIP3    H241535   1.455   2.095   1.624  1.0389 -0.8939 -0.6246
 6634TIP3   OH241536   6.772   5.489   1.457 -0.0535  0.5842  0.0369
 6634TIP3    H141537   6.837   5.482   1.387 -0.8062 -1.1315 -0.5387
 6634TIP3    H241538   6.719   5.410   1.449 -1.1734  1.1293  1.5507
 6635TIP3   OH241539   0.463   0.992   7.798  0.8811 -0.1034 -0.6624
 6635TIP3    H141540   0.483   1.022   7.887  1.3841  1.1481 -1.1703
 6635TIP3    H241541   0.379   0.948   7.806  1.2679 -0.6667  0.5579
 6636TIP3   OH241542   0.249   4.175   8.271 -0.4145  0.1230  0.2152
 6636TIP3    H141543   0.284   4.109   8.211 -1.2986 -2.0293  1.9626
 6636TIP3    H241544   0.292   4.157   8.354  0.4219  2.7523  0.4349
 6637TIP3   OH241545   6.374   4.569   0.726 -0.1084  0.9119  0.2746
 6637TIP3    H141546   6.304   4.504   0.728  0.4934  0.1056 -1.7538
 6637TIP3    H241547   6.331   4.652   0.706 -0.5007  0.4230 -0.9513
 6638TIP3   OH241548   0.605   3.553   0.530  0.3742 -0.1169 -0.0516
 6638TIP3    H141549   0.644   3.634   0.497 -2.1780  1.6311  0.9144
 6638TIP3    H241550   0.674   3.512   0.581  0.8613  3.3263  2.4427
 6639TIP3   OH241551   3.840   5.268   2.022  0.2441  0.0662 -0.0972
 6639TIP3    H141552   3.932   5.278   2.046 -0.1490 -0.9213  2.0260
 6639TIP3    H241553   3.793   5.267   2.106 -1.7489  0.7996 -1.1301
 6640TIP3   OH241554   5.256   5.039   1.721  0.3079 -0.1256 -0.4515
 6640TIP3    H141555   5.198   5.114   1.732  1.6560  1.0057 -0.6812
 6640TIP3    H241556   5.246   5.015   1.629  0.4662  0.3049 -0.5853
 6641TIP3   OH241557   1.885   1.549   6.914  0.2939 -0.4233  0.1101
 6641TIP3    H141558   1.972   1.584   6.894 -0.6653  1.7123 -0.5522
 6641TIP3    H241559   1.874   1.565   7.008  0.7129 -1.0153  0.2721
 6642TIP3   OH241560   3.499   3.273   1.160 -0.0056  0.6782  0.2667
 6642TIP3    H141561   3.469   3.182   1.164  1.2642  0.2121 -0.2510
 6642TIP3    H241562   3.461   3.308   1.079  0.9170  0.0517 -0.4602
 6643TIP3   OH241563   6.569   2.524   0.506 -0.1826 -0.2786 -0.2025
 6643TIP3    H141564   6.638   2.569   0.555 -0.7311  0.3925 -0.0273
 6643TIP3    H241565   6.530   2.464   0.570 -1.0770  0.7914  0.2822
 6644TIP3   OH241566   4.501   4.698   0.810 -0.2744 -0.2208 -0.1959
 6644TIP3    H141567   4.567   4.633   0.786  1.7982  2.2690 -1.8553
 6644TIP3    H241568   4.548   4.781   0.807 -3.3345  1.6317 -0.6643
 6645TIP3   OH241569   4.301   1.667   7.966 -0.9235 -0.2599 -0.5012
 6645TIP3    H141570   4.295   1.706   8.054 -1.7237 -1.0954 -0.1696
 6645TIP3    H241571   4.256   1.583   7.974  1.6191 -1.7489 -0.9520
 6646TIP3   OH241572   5.965   3.554   7.501  0.1905  0.4682  0.3558
 6646TIP3    H141573   5.882   3.600   7.486  0.2138  0.4216  0.0873
 6646TIP3    H241574   5.959   3.476   7.447  0.0031 -0.0357  1.0791
 6647TIP3   OH241575   4.704   5.988   8.046 -0.7929  0.2103 -0.0683
 6647TIP3    H141576   4.771   5.973   8.114 -0.1988  0.7719 -0.5155
 6647TIP3    H241577   4.680   5.900   8.017  0.4172  0.0009 -0.5252
 6648TIP3   OH241578   4.505   0.061   1.682 -0.2055  0.0064 -0.4321
 6648TIP3    H141579   4.482   0.076   1.590 -0.0824  0.4874 -0.3859
 6648TIP3    H241580   4.550  -0.024   1.682  1.7535  0.9852 -1.1592
 6649TIP3   OH241581   5.577   6.107   7.659 -0.0472 -0.4527 -0.0800
 6649TIP3    H141582   5.509   6.091   7.725 -3.0372  0.9754 -2.5237
 6649TIP3    H241583   5.561   6.197   7.630  2.3208 -0.4091 -1.4887
 6650TIP3   OH241584   3.688   1.530   7.548  0.3537  0.2971 -0.2417
 6650TIP3    H141585   3.707   1.437   7.557  0.5643  0.3890  0.3686
 6650TIP3    H241586   3.732   1.570   7.624  0.6167  0.9404 -0.7271
 6651TIP3   OH241587   6.457   5.271   8.021 -0.0984 -0.1268  0.8976
 6651TIP3    H141588   6.444   5.275   8.115 -0.7403  0.6826  0.7843
 6651TIP3    H241589   6.495   5.185   8.005  1.2465  0.2219  2.0366
 6652TIP3   OH241590   2.147   4.729   2.242 -0.6778  0.2439  0.0244
 6652TIP3    H141591   2.177   4.689   2.324 -0.8672 -0.9116 -0.4486
 6652TIP3    H241592   2.097   4.806   2.270 -0.6212 -0.0526  0.9909
 6653TIP3   OH241593   6.151   6.816   1.949  1.0192 -0.2687  0.8693
 6653TIP3    H141594   6.124   6.730   1.916  1.5592  0.2620 -1.1092
 6653TIP3    H241595   6.205   6.797   2.025 -0.7997 -1.5521  1.9242
 6654TIP3   OH241596   1.955   1.852   1.752 -0.5757  0.5562 -0.1018
 6654TIP3    H141597   1.967   1.926   1.692 -1.8980  1.0143  0.1654
 6654TIP3    H241598   2.031   1.855   1.809  0.1553  0.7808 -1.0617
 6655TIP3   OH241599   4.459   6.352   7.052 -0.6597  0.4966  0.6275
 6655TIP3    H141600   4.445   6.415   7.122 -1.5445  1.7551 -0.6244
 6655TIP3    H241601   4.377   6.303   7.046 -0.2747 -0.2237  1.0289
 6656TIP3   OH241602   3.979   3.341   7.812 -0.1534  0.2662 -0.1413
 6656TIP3    H141603   3.981   3.250   7.842  0.9648  0.3709  0.1531
 6656TIP3    H241604   3.964   3.335   7.718  0.1199 -0.2326 -0.1568
 6657TIP3   OH241605   0.391   5.168   1.639  0.0980  0.3001  0.1710
 6657TIP3    H141606   0.367   5.138   1.727  1.5222 -1.6948 -0.0609
 6657TIP3    H241607   0.408   5.262   1.650 -0.0964  0.1644  1.9564
 6658TIP3   OH241608   3.217   0.163   6.472  0.2047  0.0169 -0.1038
 6658TIP3    H141609   3.280   0.141   6.540  0.5787  1.2110 -0.0507
 6658TIP3    H241610   3.270   0.192   6.398 -0.2715  1.4716  0.0972
 6659TIP3   OH241611   1.678   4.244   6.796 -0.0713 -0.1449  0.0659
 6659TIP3    H141612   1.699   4.210   6.709 -0.0559  0.3145 -0.1130
 6659TIP3    H241613   1.763   4.259   6.837 -0.0125  1.7425 -0.6685
 6660TIP3   OH241614   6.309   4.667   1.786  0.3575  0.7043  0.6368
 6660TIP3    H141615   6.304   4.572   1.796  0.1201  0.7199  0.6660
 6660TIP3    H241616   6.220   4.697   1.798  0.1598  0.7875 -0.8575
 6661TIP3   OH241617   5.168   6.509   1.402  0.4622 -0.4320  0.0048
 6661TIP3    H141618   5.231   6.437   1.395  0.1787 -0.7377  0.4968
 6661TIP3    H241619   5.083   6.465   1.406  0.2683 -0.0534 -0.0098
 6662TIP3   OH241620   0.390   4.666   1.019 -0.0089 -0.5360 -0.3790
 6662TIP3    H141621   0.388   4.579   0.979  0.2432 -1.3525  1.3084
 6662TIP3    H241622   0.423   4.651   1.107  0.8450  1.3980 -0.3146
 6663TIP3   OH241623   6.641   4.695   1.570  0.0453  0.0274  0.4065
 6663TIP3    H141624   6.715   4.746   1.537  3.5372 -3.4864  1.9702
 6663TIP3    H241625   6.622   4.735   1.655  0.1792  0.9287  0.0274
 6664TIP3   OH241626   5.960   0.626   1.306 -0.8949  0.0899 -0.0181
 6664TIP3    H141627   5.883   0.590   1.350  0.0641 -0.0478  1.6406
 6664TIP3    H241628   5.963   0.717   1.334 -1.6815  0.7392 -1.8908
 6665TIP3   OH241629   0.226   5.863   1.323 -0.3200 -0.6821 -0.2713
 6665TIP3    H141630   0.163   5.863   1.251 -1.4541 -0.7118  0.6807
 6665TIP3    H241631   0.268   5.949   1.318  0.2623 -1.0174 -1.4812
 6666TIP3   OH241632   0.194   5.922   6.440  0.2602 -0.1181  0.1211
 6666TIP3    H141633   0.107   5.889   6.463 -0.9313  1.2180 -2.0532
 6666TIP3    H241634   0.255   5.869   6.491 -1.8173 -1.1766  1.6362
 6667TIP3   OH241635   4.875   3.007   8.355  0.2546 -0.3904  0.0291
 6667TIP3    H141636   4.931   2.929   8.350 -0.0294 -0.5231 -2.1975
 6667TIP3    H241637   4.788   2.972   8.377  0.4274 -0.5161  0.5288
 6668TIP3   OH241638   3.209   3.906   7.781 -0.0670 -0.4801  0.6950
 6668TIP3    H141639   3.244   3.961   7.710 -0.9599  1.3919  1.6242
 6668TIP3    H241640   3.172   3.830   7.736 -1.5740  1.1625 -1.0293
 6669TIP3   OH241641   1.008   5.722   1.435 -0.4765  0.2737  0.1831
 6669TIP3    H141642   1.066   5.744   1.362 -0.8539 -1.2189 -0.5928
 6669TIP3    H241643   0.926   5.766   1.415 -0.2201  0.8138  0.3053
 6670TIP3   OH241644   6.256   2.997   2.057 -0.6904  0.2411  0.1335
 6670TIP3    H141645   6.166   3.005   2.089 -0.6518  0.4377  0.2003
 6670TIP3    H241646   6.291   3.087   2.062 -0.6996  0.2817 -0.5169
 6671TIP3   OH241647   2.096   2.330   2.207 -0.4537 -0.0332  0.3259
 6671TIP3    H141648   2.062   2.250   2.167 -0.7054  0.9617 -1.5758
 6671TIP3    H241649   2.034   2.350   2.277 -2.0711  0.0466 -1.0648
 6672TIP3   OH241650   3.177   6.804   7.753  0.0012  0.0265 -0.4892
 6672TIP3    H141651   3.111   6.874   7.752  1.9476  2.0814  1.9393
 6672TIP3    H241652   3.233   6.825   7.828  2.8561 -2.1395 -1.8426
 6673TIP3   OH241653   0.062   3.052   7.327 -0.0349 -0.4181 -0.3490
 6673TIP3    H141654   0.084   2.962   7.307 -0.6659 -0.0962 -2.7382
 6673TIP3    H241655   0.034   3.090   7.244 -1.0255  1.6329  0.8243
 6674TIP3   OH241656   0.825   0.241   7.650  0.4078 -0.4939 -0.6434
 6674TIP3    H141657   0.766   0.224   7.724  0.4664  3.5808  0.6243
 6674TIP3    H241658   0.911   0.212   7.681 -0.0043 -1.3210 -0.2406
 6675TIP3   OH241659   5.587   0.307   0.398 -0.0992 -0.3444  0.1287
 6675TIP3    H141660   5.524   0.293   0.328 -0.4040 -1.3305  0.5808
 6675TIP3    H241661   5.555   0.385   0.443  0.7528  1.0192 -1.5056
 6676TIP3   OH241662   3.946   6.676   0.392 -0.2420 -0.3181  0.0076
 6676TIP3    H141663   4.035   6.666   0.358 -0.6433 -3.6662 -0.4394
 6676TIP3    H241664   3.897   6.717   0.321  0.4257 -0.7895 -0.7329
 6677TIP3   OH241665   6.174   5.897   7.786 -0.4528 -0.4189 -0.2906
 6677TIP3    H141666   6.165   5.872   7.878 -1.2789  2.6019  0.5578
 6677TIP3    H241667   6.089   5.875   7.747 -0.6644 -0.2215  0.0589
 6678TIP3   OH241668   1.862   3.194   0.871  0.0925  0.3980  0.3674
 6678TIP3    H141669   1.928   3.183   0.939 -0.3908 -0.8836  0.6695
 6678TIP3    H241670   1.885   3.129   0.805 -1.7273 -1.2138  1.2195
 6679TIP3   OH241671   4.159   1.784   0.216  0.3841  0.1602 -0.5246
 6679TIP3    H141672   4.079   1.782   0.163  0.5206 -0.9405 -0.7283
 6679TIP3    H241673   4.212   1.712   0.181  0.7462 -0.1930  0.6880
 6680TIP3   OH241674   4.606   0.222   2.177 -0.4276 -0.1421 -0.5544
 6680TIP3    H141675   4.542   0.158   2.206 -1.4906  0.4478 -1.5144
 6680TIP3    H241676   4.678   0.170   2.141 -0.2088 -0.8113  0.8183
 6681TIP3   OH241677   4.221   5.902   1.267  0.1248 -0.1622 -0.1459
 6681TIP3    H141678   4.181   5.964   1.328  0.1456 -0.4117  0.1232
 6681TIP3    H241679   4.228   5.950   1.185  1.7519  0.7825  0.4971
 6682TIP3   OH241680   0.205   1.283   7.009 -0.3039  0.4545 -0.4042
 6682TIP3    H141681   0.281   1.341   7.014 -0.3146  0.3791  1.1807
 6682TIP3    H241682   0.240   1.199   6.979  0.1070  0.6251 -0.4022
 6683TIP3   OH241683   4.939   5.266   1.393  0.0539 -0.1238 -0.4057
 6683TIP3    H141684   4.929   5.228   1.306 -1.1853  0.2035 -0.4277
 6683TIP3    H241685   4.980   5.351   1.377 -0.3072  0.0001 -0.6949
 6684TIP3   OH241686   5.507   0.550   7.850  0.3818  0.3589 -0.6031
 6684TIP3    H141687   5.529   0.477   7.791 -0.1825  0.3410 -0.7965
 6684TIP3    H241688   5.558   0.624   7.817  2.7446 -0.4611  0.9321
 6685TIP3   OH241689   5.410   2.580   1.707 -0.2977  0.3181  0.2777
 6685TIP3    H141690   5.392   2.638   1.782 -1.2972  1.2493 -0.6494
 6685TIP3    H241691   5.324   2.549   1.679 -0.0025  0.4640 -0.8474
 6686TIP3   OH241692   4.489   5.709   7.078  0.0179  0.5453 -0.5096
 6686TIP3    H141693   4.469   5.793   7.035 -1.4066  0.6130  0.2226
 6686TIP3    H241694   4.404   5.677   7.107  0.7987 -0.0970  1.1751
 6687TIP3   OH241695   4.424   1.347   1.727  0.4887 -0.2189  0.6311
 6687TIP3    H141696   4.464   1.292   1.795  0.9746 -0.5648  0.0745
 6687TIP3    H241697   4.463   1.433   1.741 -1.0520  0.2878  2.1726
 6688TIP3   OH241698   4.532   1.923   6.562  0.3559 -0.2286  0.2558
 6688TIP3    H141699   4.500   1.881   6.482 -0.4924 -0.1858  0.5685
 6688TIP3    H241700   4.459   1.917   6.623  1.2689 -0.9963  1.3174
 6689TIP3   OH241701   0.822   6.828   0.741 -0.1133  0.4039 -0.3751
 6689TIP3    H141702   0.856   6.815   0.829  0.8802  0.4728 -0.7392
 6689TIP3    H241703   0.783   6.744   0.717  1.8385 -0.4108 -0.8141
 6690TIP3   OH241704   4.794   5.727   0.622  0.3679 -0.5257  0.0408
 6690TIP3    H141705   4.873   5.710   0.675  0.2903  0.6800  0.5868
 6690TIP3    H241706   4.728   5.752   0.687  0.9312  3.4544 -0.6902
 6691TIP3   OH241707   5.689   5.532   1.236  0.4147  0.1799 -0.2659
 6691TIP3    H141708   5.702   5.626   1.221 -3.0344  0.8763  0.3400
 6691TIP3    H241709   5.746   5.490   1.172  0.5096  2.7176 -1.9923
 6692TIP3   OH241710   0.420   6.538   2.311  0.0957  0.5046  0.3547
 6692TIP3    H141711   0.496   6.588   2.281  0.0397  0.1999 -0.3292
 6692TIP3    H241712   0.398   6.483   2.236  0.7736 -1.2758  1.4064
 6693TIP3   OH241713   1.671   6.233   2.297 -0.1924  0.3558 -0.2934
 6693TIP3    H141714   1.583   6.269   2.311 -1.0007 -1.6498  0.0918
 6693TIP3    H241715   1.725   6.276   2.364 -0.8817  1.5686 -0.4939
 6694TIP3   OH241716   0.658   3.527   0.111 -0.1365 -0.4903  0.6434
 6694TIP3    H141717   0.743   3.485   0.101  0.0464  0.2577 -1.9233
 6694TIP3    H241718   0.677   3.610   0.154  0.7843  0.3838 -1.2864
 6695TIP3   OH241719   4.435   3.966   8.253 -0.4764 -0.4076  0.3570
 6695TIP3    H141720   4.423   3.940   8.161 -1.5482 -2.2106  0.9396
 6695TIP3    H241721   4.352   3.943   8.295  0.2419 -0.2707  1.9109
 6696TIP3   OH241722   0.619   6.555   0.402 -0.0689 -0.4778 -0.3445
 6696TIP3    H141723   0.534   6.573   0.443 -0.0415 -1.7657  0.3094
 6696TIP3    H241724   0.666   6.639   0.406 -0.5221 -0.2730  1.1712
 6697TIP3   OH241725   2.531   4.981   0.474  0.4555 -0.3305  0.0664
 6697TIP3    H141726   2.573   5.067   0.475  0.5076 -0.3510  1.5425
 6697TIP3    H241727   2.547   4.945   0.561 -1.6980 -0.7861  0.3430
 6698TIP3   OH241728   2.770   2.259   0.506  0.9428  0.4336  0.0222
 6698TIP3    H141729   2.822   2.327   0.464 -0.9898  1.3706 -1.0211
 6698TIP3    H241730   2.794   2.264   0.599  2.0106  1.4224 -0.2889
 6699TIP3   OH241731   2.727   3.270   8.480  0.0152 -0.1611  0.3922
 6699TIP3    H141732   2.757   3.185   8.450 -0.3283  0.4513 -1.8987
 6699TIP3    H241733   2.783   3.333   8.434  0.2081  0.8709  1.9626
 6700TIP3   OH241734   2.140   2.922   6.257  0.0653 -0.4201 -0.0063
 6700TIP3    H141735   2.168   2.872   6.334 -4.0628 -0.5228  1.6755
 6700TIP3    H241736   2.109   2.856   6.195  2.3300 -0.2624 -1.4069
 6701TIP3   OH241737   5.990   3.560   0.358  0.6053  0.3114  0.3655
 6701TIP3    H141738   5.929   3.572   0.430 -0.1082  1.6065 -0.3992
 6701TIP3    H241739   5.957   3.619   0.289  2.3439  0.5600 -0.3044
 6702TIP3   OH241740   5.087   1.605   6.921 -0.2069 -0.0349  0.6842
 6702TIP3    H141741   5.128   1.646   6.845 -0.5838  1.1156  1.0749
 6702TIP3    H241742   5.121   1.655   6.996 -0.3422 -0.7317  1.2188
 6703TIP3   OH241743   0.699   6.684   8.491  0.9583 -0.5277 -0.5287
 6703TIP3    H141744   0.686   6.755   8.428  1.0241 -0.0506 -0.0210
 6703TIP3    H241745   0.613   6.642   8.498  0.9758 -0.6465 -1.0041
 6704TIP3   OH241746   0.140   6.754   1.622  0.5468  0.1327  0.1027
 6704TIP3    H141747   0.229   6.723   1.639  0.1969 -0.5613  0.7537
 6704TIP3    H241748   0.084   6.685   1.657 -0.2647  1.3506  1.3135
 6705TIP3   OH241749   4.450   4.340   0.880  0.1121 -0.2096 -0.5306
 6705TIP3    H141750   4.413   4.252   0.877 -0.6499  0.0886 -0.3628
 6705TIP3    H241751   4.454   4.361   0.974  1.6100 -0.5916 -0.4984
 6706TIP3   OH241752   3.077   2.413   8.280  0.2237  0.2684  0.5494
 6706TIP3    H141753   3.133   2.346   8.319 -2.3974 -2.0663  0.5688
 6706TIP3    H241754   3.039   2.371   8.203 -1.5362  1.7355  0.5646
 6707TIP3   OH241755   4.055   2.790   8.233 -0.5161  0.6916  0.0025
 6707TIP3    H141756   4.071   2.710   8.182 -0.8176  1.6437 -1.6250
 6707TIP3    H241757   3.997   2.762   8.303  0.1792 -0.7190  0.0572
 6708TIP3   OH241758   6.581   0.043   0.041 -0.5812  0.4384 -0.1014
 6708TIP3    H141759   6.623  -0.035   0.076 -0.3455 -0.1314 -1.5872
 6708TIP3    H241760   6.653   0.096   0.007 -0.9007  0.2847 -1.0528
 6709TIP3   OH241761   6.349   6.791   0.007 -0.3355  0.7221  0.4158
 6709TIP3    H141762   6.296   6.817   0.082 -2.3067  0.9967 -1.0011
 6709TIP3    H241763   6.404   6.867  -0.011 -0.3432  0.9092  1.1528
 6710TIP3   OH241764   6.131   2.204   2.026  0.3613 -0.6338  0.3725
 6710TIP3    H141765   6.151   2.145   2.098 -0.9578 -1.9395 -0.2572
 6710TIP3    H241766   6.208   2.199   1.969  0.3108 -1.7150  0.3748
 6711TIP3   OH241767   3.725   3.906   1.993  0.1075  0.4144 -0.1476
 6711TIP3    H141768   3.746   3.909   2.087  1.0502 -2.7934 -0.1068
 6711TIP3    H241769   3.631   3.924   1.989 -0.1780 -0.4060  1.5838
 6712TIP3   OH241770   4.756   4.584   0.700  0.2421  0.3060  0.1367
 6712TIP3    H141771   4.762   4.582   0.796  1.7362 -0.0919  0.0691
 6712TIP3    H241772   4.772   4.494   0.673  2.3220  0.8219 -0.5509
 6713TIP3   OH241773   5.384   1.584   1.800 -0.4713  0.0040 -0.3292
 6713TIP3    H141774   5.428   1.501   1.819  0.2478 -0.6898 -4.1904
 6713TIP3    H241775   5.430   1.648   1.855 -0.4092 -1.9240  2.0474
 6714TIP3   OH241776   2.792   3.693   0.372 -0.2503 -0.1127 -0.0254
 6714TIP3    H141777   2.887   3.689   0.365 -0.2467 -1.8297  0.4883
 6714TIP3    H241778   2.774   3.693   0.466 -0.7644 -2.3804 -0.0642
 6715TIP3   OH241779   6.275   3.924   8.664 -0.4733 -0.1790 -0.0422
 6715TIP3    H141780   6.205   3.881   8.714 -1.1714  1.3686  0.3616
 6715TIP3    H241781   6.294   3.863   8.592 -1.0953 -1.3589  0.7545
 6716TIP3   OH241782   0.273   2.659   7.742  0.2611 -0.2170 -0.2267
 6716TIP3    H141783   0.247   2.667   7.651 -0.8927  0.8163  0.1661
 6716TIP3    H241784   0.310   2.745   7.764  0.1860 -0.3331  0.3711
 6717TIP3   OH241785   0.479   6.554   2.557  0.3805  0.1085 -0.2554
 6717TIP3    H141786   0.538   6.478   2.560 -0.4285 -0.5053  1.3519
 6717TIP3    H241787   0.442   6.552   2.469  2.0982  0.0166 -1.0212
 6718TIP3   OH241788   6.154   6.006   1.135 -0.0014 -0.2824  0.2364
 6718TIP3    H141789   6.164   6.083   1.078  0.8505 -0.5182  0.0604
 6718TIP3    H241790   6.230   6.008   1.192  1.0927 -2.0580 -1.0507
 6719TIP3   OH241791   4.146   1.534   7.129 -0.4280 -0.2280  0.3675
 6719TIP3    H141792   4.117   1.583   7.207 -1.0990 -1.4494  0.9169
 6719TIP3    H241793   4.065   1.499   7.092  0.0683 -1.1715  0.1641
 6720TIP3   OH241794   0.533   2.804   7.201 -0.0725  0.1964  0.4171
 6720TIP3    H141795   0.458   2.861   7.185  0.1068  0.3455  0.0897
 6720TIP3    H241796   0.498   2.731   7.252 -0.2742  0.6764  0.9735
 6721TIP3   OH241797   4.930   5.027   6.622  0.2748 -0.1896  0.8328
 6721TIP3    H141798   4.995   5.070   6.678 -0.1695  1.7623 -0.0562
 6721TIP3    H241799   4.954   5.053   6.533 -0.4828 -1.2041  0.3096
 6722TIP3   OH241800   2.070   4.347   0.970  0.1021 -0.0113 -0.0697
 6722TIP3    H141801   2.155   4.319   0.935  0.2477  2.0091 -1.4646
 6722TIP3    H241802   2.089   4.427   1.018 -0.8729 -0.0701  0.4225
 6723TIP3   OH241803   4.949   3.345   0.810 -0.0253 -0.3448  1.0544
 6723TIP3    H141804   4.987   3.308   0.890  0.3656 -1.5726  0.3278
 6723TIP3    H241805   4.960   3.277   0.744 -0.6165  0.5255  0.0146
 6724TIP3   OH241806   2.963   4.125   8.602  1.1538 -0.6698 -0.1788
 6724TIP3    H141807   2.969   4.213   8.565  1.6375 -0.3481  0.6446
 6724TIP3    H241808   2.877   4.093   8.574  0.7876  0.2385 -0.1101
 6725TIP3   OH241809   3.059   0.198   0.159  0.9456  0.5211  0.4229
 6725TIP3    H141810   3.027   0.150   0.236  0.6109  0.7196  0.4094
 6725TIP3    H241811   2.979   0.226   0.113  1.1391 -0.4558 -0.5415
 6726TIP3   OH241812   6.338   5.726   7.985  0.3183 -0.2073 -0.5820
 6726TIP3    H141813   6.367   5.673   8.059 -0.1775 -0.3019 -0.4529
 6726TIP3    H241814   6.243   5.725   7.990  0.2901  1.4552 -0.0170
 6727TIP3   OH241815   3.869   2.527   0.236 -0.2169  0.6865  0.0547
 6727TIP3    H141816   3.894   2.618   0.253  0.6905  0.1528  1.7799
 6727TIP3    H241817   3.891   2.480   0.317 -2.5803 -0.7085 -0.0035
 6728TIP3   OH241818   2.177   3.596   2.335  0.0166 -0.1050 -0.9275
 6728TIP3    H141819   2.083   3.603   2.352  0.3897  0.8644  1.0883
 6728TIP3    H241820   2.207   3.526   2.394  0.7753  0.6998 -0.3121
 6729TIP3   OH241821   4.512   4.401   7.096  0.2920  0.1476  0.0987
 6729TIP3    H141822   4.457   4.477   7.077 -3.4164 -2.6784 -1.8153
 6729TIP3    H241823   4.551   4.378   7.012 -1.5912 -2.0138 -0.2827
 6730TIP3   OH241824   1.657   3.845   0.206  0.4317 -0.2558 -0.0650
 6730TIP3    H141825   1.692   3.923   0.163 -0.0718 -0.5173 -0.9806
 6730TIP3    H241826   1.729   3.812   0.259  0.7262  0.6934  0.1469
 6731TIP3   OH241827   5.994   6.291   0.182 -0.4080  0.7069  0.0045
 6731TIP3    H141828   6.043   6.239   0.246 -1.7264 -1.9877 -1.0120
 6731TIP3    H241829   5.904   6.259   0.188 -0.9272  1.6236 -1.9187
 6732TIP3   OH241830   2.995   2.025   7.947 -0.7945  0.4629  0.3377
 6732TIP3    H141831   2.976   1.933   7.965  1.1969 -0.2612 -0.9668
 6732TIP3    H241832   3.061   2.050   8.012  1.3844 -0.1761 -1.5099
 6733TIP3   OH241833   3.739   0.996   0.677 -0.2740 -0.0593 -0.2705
 6733TIP3    H141834   3.729   0.997   0.582 -0.6925 -0.8999 -0.2367
 6733TIP3    H241835   3.745   0.904   0.700 -2.8478 -0.0561  0.7789
 6734TIP3   OH241836   0.598   3.341   8.205 -0.7944  0.7549 -0.3766
 6734TIP3    H141837   0.674   3.353   8.262  0.0237 -2.2142 -0.6436
 6734TIP3    H241838   0.524   3.333   8.266 -0.1363 -0.9575  0.2811
 6735TIP3   OH241839   2.210   4.013   1.743 -0.2974 -0.7169  0.3747
 6735TIP3    H141840   2.241   4.102   1.726  0.3297 -1.1535 -0.8362
 6735TIP3    H241841   2.145   4.024   1.812  0.6604  0.5331  1.1253
 6736TIP3   OH241842   5.890   3.202   2.367  0.1472 -0.8422  0.6979
 6736TIP3    H141843   5.923   3.251   2.442  1.1809  1.1700 -0.9777
 6736TIP3    H241844   5.795   3.217   2.368  0.4750  1.5996  0.0101
 6737TIP3   OH241845   4.897   2.646   6.684  0.3025  0.2825 -0.1083
 6737TIP3    H141846   4.954   2.616   6.755 -2.4888  0.3516  2.3457
 6737TIP3    H241847   4.895   2.741   6.692  1.2729  0.4636 -1.4736
 6738TIP3   OH241848   3.050   1.565   1.747  0.0521 -0.4766 -0.3143
 6738TIP3    H141849   3.079   1.561   1.656 -0.4343  1.8096 -0.6489
 6738TIP3    H241850   3.062   1.657   1.772 -1.1398 -0.7453  1.4711
 6739TIP3   OH241851   2.855   4.062   0.765 -0.0469  0.0921 -1.0512
 6739TIP3    H141852   2.861   3.978   0.720 -1.4670 -0.9333  0.5587
 6739TIP3    H241853   2.946   4.088   0.778  0.4685 -1.9102 -0.3164
 6740TIP3   OH241854   0.527   0.933   1.718  0.2363  0.8798  0.2769
 6740TIP3    H141855   0.614   0.895   1.731  0.7857  1.5502 -1.2399
 6740TIP3    H241856   0.527   1.011   1.774  0.4856  0.7033  0.5267
 6741TIP3   OH241857   1.714   5.204   7.755 -0.1462 -0.0352 -0.0017
 6741TIP3    H141858   1.731   5.151   7.834 -1.8400  1.6684  1.6188
 6741TIP3    H241859   1.738   5.293   7.780 -2.7050  0.9166 -0.5997
 6742TIP3   OH241860   4.794   1.313   0.411 -0.5172 -0.3630  0.0572
 6742TIP3    H141861   4.827   1.279   0.494 -3.4727 -2.3237  0.5772
 6742TIP3    H241862   4.780   1.406   0.426 -1.7751 -0.8292  2.0762
 6743TIP3   OH241863   1.020   3.854   7.754  0.4460  0.3724 -0.4117
 6743TIP3    H141864   1.062   3.898   7.829  0.2262 -0.5300  0.2555
 6743TIP3    H241865   1.031   3.916   7.682  2.1378  0.5642 -0.0511
 6744TIP3   OH241866   4.162   5.970   0.664  0.0360  0.3396  0.0680
 6744TIP3    H141867   4.162   6.058   0.701 -0.0320  0.0987  0.6439
 6744TIP3    H241868   4.166   5.984   0.569  1.8785  0.9435  0.1913
 6745TIP3   OH241869   2.432   2.838   7.680 -0.2188  0.6545  0.0934
 6745TIP3    H141870   2.370   2.768   7.660 -1.2050  1.7961 -1.0815
 6745TIP3    H241871   2.423   2.851   7.774 -2.6042  1.4542 -0.1574
 6746TIP3   OH241872   5.298   6.731   0.493  0.3296  0.6433  0.5731
 6746TIP3    H141873   5.387   6.759   0.471 -0.1542  1.8516  0.0155
 6746TIP3    H241874   5.302   6.707   0.585  1.1770  0.9475  0.6219
 6747TIP3   OH241875   0.536   0.969   8.289  0.2017 -1.0355 -0.0492
 6747TIP3    H141876   0.441   0.973   8.291  0.1423 -1.9803 -0.5003
 6747TIP3    H241877   0.560   0.997   8.200  0.4086  0.0136  0.3175
 6748TIP3   OH241878   3.891   4.728   8.538  0.3636  0.3063  0.1348
 6748TIP3    H141879   3.973   4.760   8.576  1.1010 -0.3046 -0.9030
 6748TIP3    H241880   3.880   4.779   8.458  0.3138 -0.3756 -0.2973
 6749TIP3   OH241881   1.831   0.083   0.427  0.1883 -0.3983 -0.3057
 6749TIP3    H141882   1.854   0.010   0.484  0.5178 -1.1323 -1.3478
 6749TIP3    H241883   1.761   0.048   0.371 -0.5809  0.5059  0.0634
 6750TIP3   OH241884   4.547   5.844   0.740  0.5445 -0.4863  0.2147
 6750TIP3    H141885   4.535   5.903   0.666  0.6508  0.3024  0.8194
 6750TIP3    H241886   4.463   5.846   0.786  1.3071  1.1830  1.6517
 6751TIP3   OH241887   1.521   1.546   0.968  0.5184  0.3556  0.7326
 6751TIP3    H141888   1.564   1.469   0.931 -1.3245 -1.3358  1.8865
 6751TIP3    H241889   1.428   1.523   0.970  0.1225  1.8054  2.9170
 6752TIP3   OH241890   3.601   2.357   6.631  0.1486 -0.0527  0.0280
 6752TIP3    H141891   3.646   2.439   6.612 -0.4176  0.3125  0.2380
 6752TIP3    H241892   3.666   2.304   6.677 -0.1402  1.1568  1.9786
 6753TIP3   OH241893   6.476   1.753   2.075 -0.1159 -0.0856  0.0260
 6753TIP3    H141894   6.571   1.746   2.066 -0.2526  0.1740 -1.9198
 6753TIP3    H241895   6.453   1.680   2.134  1.1817 -0.7585 -0.2559
 6754TIP3   OH241896   1.565   2.309   8.320 -0.2507 -0.0772 -0.2222
 6754TIP3    H141897   1.646   2.264   8.295  0.7115  0.1906  2.1752
 6754TIP3    H241898   1.592   2.398   8.342 -0.8670 -0.3575  1.9779
 6755TIP3   OH241899   2.119   5.043   8.122  0.0423  0.3946 -0.2785
 6755TIP3    H141900   2.200   5.076   8.161 -0.2933  1.3564 -0.3652
 6755TIP3    H241901   2.144   5.019   8.033  0.3489  0.1809 -0.1360
 6756TIP3   OH241902   1.908   6.732   1.920 -0.1368 -0.0421  0.3214
 6756TIP3    H141903   1.839   6.787   1.958  1.4747  1.2861  1.5316
 6756TIP3    H241904   1.880   6.717   1.830 -2.0264  0.3533  0.7885
 6757TIP3   OH241905   3.612   0.103   1.530 -0.1508 -0.3578 -0.1929
 6757TIP3    H141906   3.548   0.163   1.489 -0.6748 -0.3325  0.6476
 6757TIP3    H241907   3.671   0.160   1.578 -0.3704 -0.4851  0.2274
 6758TIP3   OH241908   5.154   5.366   0.398  0.0572  0.1811  0.4778
 6758TIP3    H141909   5.074   5.414   0.376  0.9356  1.4925 -0.0105
 6758TIP3    H241910   5.184   5.330   0.315  0.4212  0.4117  0.5076
 6759TIP3   OH241911   2.814   3.817   1.196 -0.1276  0.5254 -0.1072
 6759TIP3    H141912   2.857   3.755   1.137 -0.9388 -0.8993  0.7347
 6759TIP3    H241913   2.810   3.899   1.147  1.6988  0.1578 -0.9663
 6760TIP3   OH241914   5.142   6.409   7.741  0.2776 -0.2505  0.0790
 6760TIP3    H141915   5.233   6.411   7.770  0.1292 -1.3925  0.6524
 6760TIP3    H241916   5.139   6.343   7.673 -0.0735 -0.0317 -0.1228
 6761TIP3   OH241917   0.825   0.663   0.661  0.1011  0.0919 -0.2406
 6761TIP3    H141918   0.775   0.653   0.742  0.3687 -1.2556 -0.2161
 6761TIP3    H241919   0.889   0.731   0.680  1.5103 -1.5851  1.4087
 6762TIP3   OH241920   6.448   2.675   8.007 -0.2364 -0.2511  0.2479
 6762TIP3    H141921   6.448   2.713   7.919 -1.2558 -0.8513 -0.0249
 6762TIP3    H241922   6.533   2.632   8.015 -0.2286 -0.3977 -0.5375
 6763TIP3   OH241923   6.664   3.861   8.461  0.6819 -0.3602 -0.4612
 6763TIP3    H141924   6.758   3.841   8.466  0.6933 -0.5706 -1.3572
 6763TIP3    H241925   6.646   3.907   8.543  1.5717 -0.3022 -0.2781
 6764TIP3   OH241926   6.755   0.052   1.710 -0.5295  0.5709  0.3940
 6764TIP3    H141927   6.665   0.081   1.695 -0.7354 -0.1825  0.1078
 6764TIP3    H241928   6.753  -0.042   1.693  0.1805  0.4357  1.0015
 6765TIP3   OH241929   4.195   3.548   7.294  0.0867 -0.5503 -0.0529
 6765TIP3    H141930   4.269   3.489   7.287  0.2824 -0.2183 -0.9392
 6765TIP3    H241931   4.131   3.515   7.230  0.6147  0.7558 -1.3315
 6766TIP3   OH241932   1.611   6.204   7.199 -0.1972 -0.0609  0.5830
 6766TIP3    H141933   1.594   6.136   7.133  1.1854  0.9887 -0.9444
 6766TIP3    H241934   1.537   6.199   7.259 -1.1139 -1.5880 -0.6075
 6767TIP3   OH241935   5.923   2.123   0.921  0.1252 -0.7007  0.2042
 6767TIP3    H141936   5.870   2.044   0.912  0.5703 -1.1127  1.0132
 6767TIP3    H241937   5.896   2.161   1.005  0.3231 -0.3079  0.0958
 6768TIP3   OH241938   3.368   4.473   7.594 -0.2750  0.2081 -0.7796
 6768TIP3    H141939   3.333   4.385   7.578  1.1283 -0.6680  0.6743
 6768TIP3    H241940   3.445   4.479   7.537  0.9841 -0.4595  0.7609
 6769TIP3   OH241941   0.733   6.838   0.485 -0.5115  0.2903  0.4711
 6769TIP3    H141942   0.670   6.869   0.550 -0.4180 -1.7604  1.6353
 6769TIP3    H241943   0.819   6.861   0.522 -0.4756 -0.4310  0.8579
 6770TIP3   OH241944   0.919   4.427   0.321 -0.3389  0.0809  0.0873
 6770TIP3    H141945   0.944   4.365   0.388 -0.6790 -0.1751 -0.0191
 6770TIP3    H241946   0.830   4.401   0.296 -1.0955  1.5269  1.1274
 6771TIP3   OH241947   3.240   5.717   0.989 -0.2244  0.4553  0.2131
 6771TIP3    H141948   3.200   5.802   1.005 -2.0258 -0.5789  1.5449
 6771TIP3    H241949   3.259   5.683   1.076  0.1521 -0.6534 -0.2892
 6772TIP3   OH241950   0.804   0.954   7.090 -0.2670 -0.2478  0.5051
 6772TIP3    H141951   0.711   0.952   7.112 -0.7426 -1.0896 -1.3089
 6772TIP3    H241952   0.832   1.044   7.108 -1.1122 -0.2952  2.1916
 6773TIP3   OH241953   5.417   6.502   2.573  0.0400 -0.1062  0.2945
 6773TIP3    H141954   5.393   6.482   2.663  1.1597  1.9186  1.0961
 6773TIP3    H241955   5.414   6.597   2.567  1.7878 -0.0822 -1.2449
 6774TIP3   OH241956   1.563   0.672   1.866  0.4311  0.3616 -0.1471
 6774TIP3    H141957   1.522   0.588   1.888  2.6965 -0.5944  0.6827
 6774TIP3    H241958   1.552   0.679   1.771 -0.6323 -0.3927 -0.0998
 6775TIP3   OH241959   1.136   1.873   8.660 -0.0678 -0.6938  0.3961
 6775TIP3    H141960   1.196   1.947   8.667  0.6854 -0.8155 -3.0438
 6775TIP3    H241961   1.151   1.823   8.740  0.3351  2.1203  2.2252
 6776TIP3   OH241962   0.878   3.908   8.245  0.2956 -0.3011 -0.3562
 6776TIP3    H141963   0.806   3.890   8.305  0.9661  0.0078  0.5660
 6776TIP3    H241964   0.882   3.830   8.189 -1.1384 -0.0542 -0.8318
 6777TIP3   OH241965   6.305   1.686   0.633 -0.5667  0.7925 -0.1349
 6777TIP3    H141966   6.384   1.713   0.680 -0.8514 -0.4163  1.0957
 6777TIP3    H241967   6.334   1.675   0.543  0.1758  2.3837 -0.1248
 6778TIP3   OH241968   0.814   0.538   6.298 -0.1836  0.2079 -0.2184
 6778TIP3    H141969   0.843   0.625   6.322 -0.6446  0.5259 -0.7951
 6778TIP3    H241970   0.719   0.545   6.289 -0.4853 -0.8133  1.6411
 6779TIP3   OH241971   0.340   5.095   1.931 -0.4388  0.0407 -0.3459
 6779TIP3    H141972   0.368   5.163   1.992 -2.1790  1.6592 -1.2540
 6779TIP3    H241973   0.402   5.023   1.945 -0.3810  0.5479  2.8747
 6780TIP3   OH241974   6.537   3.899   0.425 -0.0638 -0.0366  0.4915
 6780TIP3    H141975   6.489   3.931   0.348  0.8979  1.1007  0.3412
 6780TIP3    H241976   6.543   3.804   0.411  1.0828  0.2628 -1.4465
 6781TIP3   OH241977   5.193   0.771   7.476 -0.6548  0.0457  0.2363
 6781TIP3    H141978   5.262   0.802   7.536  1.9667 -0.8664 -2.1025
 6781TIP3    H241979   5.177   0.846   7.418  1.8552 -1.0367 -2.0864
 6782TIP3   OH241980   6.458   2.573   8.524 -0.3223 -1.0507 -0.3456
 6782TIP3    H141981   6.541   2.593   8.481 -0.1988 -1.2093 -0.1819
 6782TIP3    H241982   6.406   2.531   8.456 -1.1631  1.1561 -1.1724
 6783TIP3   OH241983   6.343   6.839   7.064 -0.4041 -0.3402  0.0291
 6783TIP3    H141984   6.350   6.931   7.039  1.0205 -0.8544 -1.7140
 6783TIP3    H241985   6.269   6.806   7.014  0.0024 -0.4620 -0.5026
 6784TIP3   OH241986   5.836   3.825   8.105  0.7310  0.3412 -0.1979
 6784TIP3    H141987   5.744   3.803   8.119  0.7866 -0.2399 -0.7062
 6784TIP3    H241988   5.840   3.920   8.115  0.0382  0.3904 -0.3734
 6785TIP3   OH241989   2.403   5.127   8.348 -0.5484 -0.0347 -0.3261
 6785TIP3    H141990   2.348   5.190   8.394  0.0689 -0.4414  1.0588
 6785TIP3    H241991   2.387   5.044   8.394  0.6766 -0.2984 -0.3424
 6786TIP3   OH241992   4.742   2.587   1.550  0.1562 -0.1757 -0.0701
 6786TIP3    H141993   4.668   2.636   1.516  0.0656 -1.1897 -1.4251
 6786TIP3    H241994   4.751   2.616   1.640 -0.6962  1.3496 -0.4421
 6787TIP3   OH241995   6.178   1.088   8.009 -0.2431 -0.0664 -0.1459
 6787TIP3    H141996   6.113   1.064   7.944 -0.1770  0.5872 -0.4608
 6787TIP3    H241997   6.158   1.179   8.031 -0.3734 -0.3294  0.8769
 6788TIP3   OH241998   2.450   1.889   2.486 -0.1856 -0.4202  0.0511
 6788TIP3    H141999   2.409   1.916   2.404  1.1841 -1.7933 -1.1471
 6788TIP3    H242000   2.409   1.805   2.506  0.3152 -0.6534  0.1157
 6789TIP3   OH242001   2.677   5.265   1.031 -0.4943 -1.0198 -0.4041
 6789TIP3    H142002   2.754   5.274   1.088 -0.4405  0.2579 -0.6606
 6789TIP3    H242003   2.657   5.354   1.003 -2.8317 -1.1289  0.6473
 6790TIP3   OH242004   3.813   3.385   1.416 -0.1809 -0.2901 -0.1449
 6790TIP3    H142005   3.738   3.440   1.393  0.5130  2.1437  2.7652
 6790TIP3    H242006   3.782   3.331   1.488  0.7331  0.6747  1.0273
 6791TIP3   OH242007   1.237   5.088   6.883 -0.0667 -0.4180 -0.1253
 6791TIP3    H142008   1.191   5.005   6.892 -1.8012  0.4904 -0.1210
 6791TIP3    H242009   1.276   5.085   6.796 -1.6708 -0.5379 -0.8771
 6792TIP3   OH242010   6.113   1.839   7.192 -0.1925 -0.4680 -0.3982
 6792TIP3    H142011   6.150   1.784   7.123  1.3060 -1.3781  1.0704
 6792TIP3    H242012   6.019   1.824   7.186 -0.1129 -0.5164 -2.2197
 6793TIP3   OH242013   4.203   3.251   0.248  0.0817  0.1877 -0.1487
 6793TIP3    H142014   4.165   3.336   0.270  1.0688  0.1146  2.1104
 6793TIP3    H242015   4.127   3.196   0.229 -0.5988  1.4023 -1.1433
 6794TIP3   OH242016   3.429   2.243   0.744  0.2950  0.1253  0.1891
 6794TIP3    H142017   3.522   2.224   0.735  0.0869 -0.4388 -1.0524
 6794TIP3    H242018   3.423   2.305   0.817  1.3890 -1.7613  1.9891
 6795TIP3   OH242019   3.769   2.537   7.880  0.0306  0.2926  0.0606
 6795TIP3    H142020   3.716   2.592   7.938 -1.9214  0.5192 -1.8166
 6795TIP3    H242021   3.800   2.466   7.937  0.1588  1.7250  1.8680
 6796TIP3   OH242022   3.672   1.701   2.029  0.2684  0.2871 -0.1889
 6796TIP3    H142023   3.720   1.650   2.094 -0.9252 -0.8527 -0.1519
 6796TIP3    H242024   3.730   1.774   2.008  1.1333  0.0877  1.3520
 6797TIP3   OH242025   5.516   4.517   0.926 -0.0615 -0.3749  0.7239
 6797TIP3    H142026   5.550   4.429   0.937  1.4253 -0.1339 -1.2760
 6797TIP3    H242027   5.430   4.505   0.885  0.4711 -0.9057 -0.2703
 6798TIP3   OH242028   5.973   0.496   7.789  0.1192  0.2253 -0.2638
 6798TIP3    H142029   5.935   0.424   7.739 -0.1001  0.0442  0.1590
 6798TIP3    H242030   6.057   0.513   7.748  0.3037 -0.4666 -0.1811
 6799TIP3   OH242031   0.781   0.634   1.473 -0.5005 -0.1124  0.1707
 6799TIP3    H142032   0.693   0.671   1.463 -0.5184 -0.4232 -1.0374
 6799TIP3    H242033   0.807   0.610   1.384  1.9945  2.6899 -0.0385
 6800TIP3   OH242034   4.454   0.054   1.420 -0.1982 -0.3266 -0.2821
 6800TIP3    H142035   4.389  -0.010   1.390  0.2957 -0.5831 -0.8265
 6800TIP3    H242036   4.484   0.096   1.340 -0.7014  0.7779  0.0941
 6801TIP3   OH242037   4.721   5.071   1.472  0.3277  0.4695  0.2236
 6801TIP3    H142038   4.719   5.055   1.566  0.4225  0.4968  0.2313
 6801TIP3    H242039   4.814   5.089   1.454  0.2709  0.7048  0.1666
 6802TIP3   OH242040   4.268   0.207   2.218  0.1160  0.0363 -0.4432
 6802TIP3    H142041   4.320   0.215   2.138 -1.5641  0.3672 -1.5501
 6802TIP3    H242042   4.194   0.152   2.192  0.1865 -0.9293  1.2510
 6803TIP3   OH242043   5.326   1.112   8.058 -0.1953  0.2086  0.0450
 6803TIP3    H142044   5.274   1.173   8.005  1.6244  1.6477 -0.2044
 6803TIP3    H242045   5.370   1.168   8.121  0.5622 -1.0308  0.6484
 6804TIP3   OH242046   2.808   3.337   0.818 -0.0533 -0.0887  0.8740
 6804TIP3    H142047   2.837   3.425   0.796 -0.2641  0.4066  2.4059
 6804TIP3    H242048   2.888   3.292   0.847  0.4105 -1.0548 -1.6742
 6805TIP3   OH242049   4.122   0.981   2.161  0.3928  0.1692  1.2101
 6805TIP3    H142050   4.045   0.997   2.216  0.0998  0.1857  0.8069
 6805TIP3    H242051   4.087   0.981   2.072  1.0176  1.1534  0.9521
 6806TIP3   OH242052   3.443   2.629   7.111  0.4180 -0.2854  0.1714
 6806TIP3    H142053   3.349   2.635   7.095  0.3059  1.1875  1.2216
 6806TIP3    H242054   3.451   2.586   7.195  0.6623 -0.0431  0.2738
 6807TIP3   OH242055   1.020   3.850   0.724  0.2888 -0.1398 -0.1996
 6807TIP3    H142056   1.019   3.890   0.811  3.0557  0.0523 -0.1530
 6807TIP3    H242057   1.047   3.922   0.666 -3.1037  0.1867 -1.5841
 6808TIP3   OH242058   2.709   2.557   8.523 -0.0745  0.5659 -0.0323
 6808TIP3    H142059   2.766   2.583   8.450 -0.3572  1.6184  0.1152
 6808TIP3    H242060   2.738   2.468   8.545  0.8149  0.6968 -0.6348
 6809TIP3   OH242061   2.942   1.457   7.590 -0.5346  0.4350 -0.1117
 6809TIP3    H142062   2.904   1.466   7.503 -1.9279 -1.1504  0.2784
 6809TIP3    H242063   2.972   1.545   7.613 -1.9394  1.2875 -1.3811
 6810TIP3   OH242064   5.136   1.935   6.326  0.2337 -0.0286 -0.5366
 6810TIP3    H142065   5.210   1.996   6.333  1.0910 -1.1829  1.2990
 6810TIP3    H242066   5.079   1.958   6.399 -0.4539 -0.1600 -1.0164
 6811TIP3   OH242067   3.478   1.816   1.230 -0.1196  0.5536 -0.3921
 6811TIP3    H142068   3.550   1.815   1.166  0.5335 -1.0821  0.3267
 6811TIP3    H242069   3.403   1.782   1.181  0.6768 -1.9173 -0.0327
 6812TIP3   OH242070   0.623   3.459   7.112  0.5778  0.1269  0.6311
 6812TIP3    H142071   0.530   3.439   7.103  0.4228  1.2782 -0.8475
 6812TIP3    H242072   0.667   3.376   7.094 -0.1406  0.0107 -0.7838
 6813TIP3   OH242073   4.673   4.943   1.225  0.5129 -0.0313  0.3834
 6813TIP3    H142074   4.744   5.000   1.196 -0.9748  2.5246  1.4258
 6813TIP3    H242075   4.689   4.928   1.318 -0.0234  0.1604  0.5145
 6814TIP3   OH242076   3.729   2.144   1.708 -0.2582  0.4798  0.3693
 6814TIP3    H142077   3.786   2.068   1.699  1.3065  1.7674 -1.2062
 6814TIP3    H242078   3.663   2.133   1.639  0.6242  1.0603 -0.5920
 6815TIP3   OH242079   0.754   1.522   8.503 -0.4218  0.0831 -0.2525
 6815TIP3    H142080   0.738   1.441   8.456 -1.8732 -0.3545  0.9127
 6815TIP3    H242081   0.848   1.521   8.523  0.3873  0.5648 -3.4999
 6816TIP3   OH242082   0.967   6.364   6.815  0.0244 -0.0828  0.1195
 6816TIP3    H142083   1.034   6.429   6.835 -1.5289  1.9445 -0.9474
 6816TIP3    H242084   1.004   6.315   6.741  0.3807  0.9899 -0.4430
 6817TIP3   OH242085   0.189   4.620   2.484  0.2536 -0.5062  0.2677
 6817TIP3    H142086   0.158   4.534   2.512 -0.9130  0.3402  1.6798
 6817TIP3    H242087   0.283   4.608   2.471 -0.0124 -2.1895 -0.4102
 6818TIP3   OH242088   1.276   5.710   0.472  0.0132  0.5025 -0.3885
 6818TIP3    H142089   1.292   5.626   0.428  0.1943  0.4869 -0.2950
 6818TIP3    H242090   1.239   5.766   0.404 -2.3781 -0.3647  0.0868
 6819TIP3   OH242091   1.782   3.367   6.554  0.0969 -0.3283  0.4577
 6819TIP3    H142092   1.827   3.392   6.635 -1.5721  2.1662  0.7196
 6819TIP3    H242093   1.843   3.390   6.485  0.4714  0.0696  0.9127
 6820TIP3   OH242094   4.604   3.642   0.015  0.1532  0.1925 -0.7745
 6820TIP3    H142095   4.535   3.594  -0.031 -0.0662  0.1027 -0.3510
 6820TIP3    H242096   4.606   3.728  -0.028 -1.0918  0.6479  0.0326
 6821TIP3   OH242097   2.555   0.453   7.353  0.2637 -0.0081  0.8007
 6821TIP3    H142098   2.551   0.491   7.265 -1.5836 -0.7433  0.5281
 6821TIP3    H242099   2.480   0.489   7.398  1.4456  0.7120  2.2728
 6822TIP3   OH242100   3.384   3.370   0.618 -0.0912 -0.1670 -0.4570
 6822TIP3    H142101   3.396   3.295   0.558  0.0036  0.3834 -1.1358
 6822TIP3    H242102   3.359   3.442   0.561  1.0561  0.6414  0.0419
 6823TIP3   OH242103   2.101   6.105   8.316  0.0138  0.5660 -0.3786
 6823TIP3    H142104   2.143   6.083   8.233 -0.0383  1.0620 -0.5419
 6823TIP3    H242105   2.167   6.084   8.382 -0.7392 -1.9863 -0.3389
 6824TIP3   OH242106   1.053   6.543   8.110 -0.6929 -0.2669 -0.0367
 6824TIP3    H142107   1.063   6.483   8.184  1.3962  1.5617  1.2960
 6824TIP3    H242108   0.962   6.574   8.117 -0.0161  1.5387  3.2969
 6825TIP3   OH242109   3.038   0.176   2.722  0.3554  0.6304 -0.1655
 6825TIP3    H142110   3.061   0.208   2.809 -1.6444 -2.1378  1.5667
 6825TIP3    H242111   3.101   0.105   2.706 -0.2135  0.1369 -0.2567
 6826TIP3   OH242112   3.794   5.688   6.806  0.2116  0.4850 -0.1419
 6826TIP3    H142113   3.762   5.600   6.787  0.6817  0.1638  0.4972
 6826TIP3    H242114   3.835   5.716   6.725 -0.3821  0.3209 -0.5088
 6827TIP3   OH242115   5.877   3.948   7.644  0.0858 -0.2324 -0.1168
 6827TIP3    H142116   5.917   3.909   7.566  0.5821  2.5105 -1.3758
 6827TIP3    H242117   5.787   3.917   7.643  0.7985 -2.4952 -0.1117
 6828TIP3   OH242118   6.419   3.043   0.364  0.1650  0.3121  0.6097
 6828TIP3    H142119   6.445   2.952   0.382 -1.3680 -0.0085  1.3651
 6828TIP3    H242120   6.502   3.088   0.347  1.2043 -0.7191  2.5328
 6829TIP3   OH242121   1.551   4.214   7.530  0.3318  0.5144 -0.4190
 6829TIP3    H142122   1.572   4.196   7.622 -0.5670 -0.5485 -0.4047
 6829TIP3    H242123   1.634   4.200   7.484  0.5605  0.0511  0.1107
 6830TIP3   OH242124   2.359   5.311   8.163 -0.1481  0.2168  0.6628
 6830TIP3    H142125   2.391   5.225   8.191 -0.1204  0.0657  0.1750
 6830TIP3    H242126   2.438   5.364   8.155 -0.1232  0.1608  0.5351
 6831TIP3   OH242127   4.081   0.738   0.585 -0.3740  0.1155 -0.4049
 6831TIP3    H142128   4.091   0.832   0.567 -1.5537  0.4395  0.5143
 6831TIP3    H242129   3.987   0.722   0.579 -0.4640 -0.4752  1.7714
 6832TIP3   OH242130   4.284   3.312   7.748  0.0205 -0.1682  0.3326
 6832TIP3    H142131   4.229   3.326   7.671  0.8105 -0.0325 -0.2166
 6832TIP3    H242132   4.278   3.219   7.765 -0.5226 -0.1257  0.3875
 6833TIP3   OH242133   2.377   0.656   1.578  0.0049 -0.2508 -0.3164
 6833TIP3    H142134   2.371   0.701   1.494 -0.3646  1.8923  0.7858
 6833TIP3    H242135   2.457   0.690   1.619  0.0197 -1.0247  0.3286
 6834TIP3   OH242136   4.182   2.478   0.595 -0.4109 -0.8382  0.2068
 6834TIP3    H142137   4.138   2.398   0.566  0.1261 -1.1897  0.3427
 6834TIP3    H242138   4.258   2.447   0.644 -1.3952 -0.2693  2.2095
 6835TIP3   OH242139   6.859   3.756   2.169 -0.1151  0.6608  0.2259
 6835TIP3    H142140   6.833   3.833   2.119 -0.8407  0.2227 -0.0883
 6835TIP3    H242141   6.865   3.787   2.260 -0.2401  1.1230  0.0780
 6836TIP3   OH242142   4.934   4.521   7.884 -0.6258  0.1612 -0.0953
 6836TIP3    H142143   4.907   4.429   7.878  2.3056 -1.0880  2.4570
 6836TIP3    H242144   4.874   4.559   7.948  0.1349 -1.0394  1.4328
 6837TIP3   OH242145   0.566   0.154   0.807 -0.2269  0.7951 -0.2554
 6837TIP3    H142146   0.484   0.141   0.856 -0.2954 -0.4776 -0.6565
 6837TIP3    H242147   0.632   0.109   0.859 -0.0892  0.4330 -0.7334
 6838TIP3   OH242148   1.223   1.764   1.457  0.1627 -0.3437 -0.0998
 6838TIP3    H142149   1.170   1.832   1.415  0.9725  1.8109  2.0813
 6838TIP3    H242150   1.165   1.724   1.521  0.6409  0.9792  1.2339
 6839TIP3   OH242151   0.737   5.591   0.676  0.2792 -0.2092  0.3007
 6839TIP3    H142152   0.660   5.630   0.717  1.7930  1.2791  1.9307
 6839TIP3    H242153   0.772   5.532   0.743  1.2639  0.1537  0.1257
 6840TIP3   OH242154   4.116   2.363   1.791 -0.3334  0.1994 -0.1843
 6840TIP3    H142155   4.107   2.429   1.722  2.3774  1.3057  0.3987
 6840TIP3    H242156   4.119   2.414   1.872 -0.7708 -0.8879  0.5440
 6841TIP3   OH242157   5.766   2.028   7.990 -0.0496  0.4022 -0.0992
 6841TIP3    H142158   5.771   1.933   7.976  2.1031  0.5987 -1.1164
 6841TIP3    H242159   5.698   2.057   7.929  0.0328 -0.3672 -0.5787
 6842TIP3   OH242160   2.592   2.379   7.533 -0.4237  0.1108  0.5871
 6842TIP3    H142161   2.653   2.310   7.560 -0.0441 -0.4676 -1.5971
 6842TIP3    H242162   2.506   2.338   7.537 -0.2522 -0.3361 -0.1914
 6843TIP3   OH242163   6.824   4.168   8.564 -0.1261  0.1174  0.2970
 6843TIP3    H142164   6.865   4.202   8.485  0.9723 -0.7560  0.4698
 6843TIP3    H242165   6.856   4.226   8.634 -1.4237  1.1428  0.0673
 6844TIP3   OH242166   2.122   5.307   1.985 -0.0074 -0.6256 -0.3347
 6844TIP3    H142167   2.067   5.240   1.945 -0.6905  0.0021 -0.4739
 6844TIP3    H242168   2.212   5.281   1.964  0.0497 -3.4235  2.4999
 6845TIP3   OH242169   5.256   6.003   1.668 -0.0028 -0.2989 -0.0820
 6845TIP3    H142170   5.317   6.054   1.721  0.3515 -0.7181 -0.0880
 6845TIP3    H242171   5.246   5.920   1.715 -1.2903  0.1066  0.4194
 6846TIP3   OH242172   2.675   2.869   6.479  0.0188  0.4783  0.0446
 6846TIP3    H142173   2.590   2.846   6.516 -0.0342 -0.7487 -0.7575
 6846TIP3    H242174   2.703   2.789   6.433  2.5522  0.0905  1.9947
 6847TIP3   OH242175   0.562   4.394   1.107  0.3255 -0.1279 -0.2799
 6847TIP3    H142176   0.618   4.470   1.121  0.7029 -0.0831 -1.7816
 6847TIP3    H242177   0.481   4.415   1.152  0.7863  0.7147  0.1833
 6848TIP3   OH242178   6.653   6.270   0.507  0.3275 -0.4288  0.6331
 6848TIP3    H142179   6.589   6.340   0.518  0.4005 -0.3072  0.2956
 6848TIP3    H242180   6.674   6.243   0.596 -0.2721 -0.5433  0.7438
 6849TIP3   OH242181   5.495   0.674   8.131 -0.1560 -0.2312 -0.3303
 6849TIP3    H142182   5.499   0.642   8.042 -0.2219  1.4742 -0.9850
 6849TIP3    H242183   5.533   0.604   8.184 -0.4044 -1.3958 -1.6445
 6850TIP3   OH242184   4.254   2.464   2.862 -0.1063 -0.6149 -0.3490
 6850TIP3    H142185   4.186   2.401   2.841 -0.3577 -0.4818  0.0542
 6850TIP3    H242186   4.313   2.462   2.787 -1.1897  0.1473 -1.2484
 6851TIP3   OH242187   1.635   2.785   1.836 -0.3643  0.0963  0.1905
 6851TIP3    H142188   1.725   2.799   1.808 -0.9387 -0.8806 -2.3860
 6851TIP3    H242189   1.604   2.872   1.860  0.2082  1.1153 -2.4057
 6852TIP3   OH242190   3.000   5.600   6.659  0.5972 -0.4679  0.4219
 6852TIP3    H142191   3.048   5.523   6.628 -0.2259 -0.2215 -1.6197
 6852TIP3    H242192   3.028   5.671   6.602  0.3967  0.4745  1.4624
 6853TIP3   OH242193   0.608   0.493   1.643  0.3174 -0.3052  0.3452
 6853TIP3    H142194   0.674   0.517   1.578 -0.3416  1.7367  0.3546
 6853TIP3    H242195   0.620   0.556   1.715 -0.3265 -1.1891  1.2611
 6854TIP3   OH242196   1.030   2.137   0.190 -0.4687  0.5188 -0.2401
 6854TIP3    H142197   1.105   2.079   0.176  0.2446  1.4167 -0.2349
 6854TIP3    H242198   0.961   2.102   0.134 -0.8755 -1.7734  1.5680
 6855TIP3   OH242199   5.441   3.031   7.365  0.0484 -1.1821  0.4147
 6855TIP3    H142200   5.535   3.025   7.349  0.0324 -0.7633  0.1359
 6855TIP3    H242201   5.403   2.961   7.311 -0.0795  0.7625 -2.2028
 6856TIP3   OH242202   5.039   4.545   6.534  0.2846  0.2348 -0.0628
 6856TIP3    H142203   5.108   4.545   6.468 -0.0886  0.7470 -0.4590
 6856TIP3    H242204   4.973   4.605   6.500  0.5986  1.4287  1.3302
 6857TIP3   OH242205   5.210   2.019   7.194 -0.2627  0.1092  0.2466
 6857TIP3    H142206   5.274   2.087   7.175 -1.4346  0.8690 -1.2651
 6857TIP3    H242207   5.251   1.964   7.260  1.9200  0.5822 -0.6409
 6858TIP3   OH242208   1.398   3.452   1.668  0.2954  0.5616 -0.6927
 6858TIP3    H142209   1.360   3.366   1.685  1.2146  0.1425 -0.6922
 6858TIP3    H242210   1.346   3.513   1.722 -0.5831  0.0647 -0.9648
 6859TIP3   OH242211   6.363   2.489   1.190  0.0988 -0.1021  0.4084
 6859TIP3    H142212   6.373   2.558   1.255  1.8369  0.3987 -0.3294
 6859TIP3    H242213   6.447   2.487   1.145 -0.9997 -0.5337 -1.7274
 6860TIP3   OH242214   0.124   3.463   0.581 -0.5847  0.6579 -0.0879
 6860TIP3    H142215   0.172   3.415   0.513 -1.2367  0.5789 -0.5024
 6860TIP3    H242216   0.166   3.549   0.584  1.2873 -0.2407  1.3941
 6861TIP3   OH242217   0.055   2.420   8.487  0.0376  0.3363  0.5104
 6861TIP3    H142218   0.042   2.513   8.505  2.6474  0.6137  1.4473
 6861TIP3    H242219   0.075   2.382   8.573 -0.3029 -0.9629  0.0337
 6862TIP3   OH242220   4.674   5.399   1.927  0.2851 -0.2999 -0.7849
 6862TIP3    H142221   4.624   5.324   1.957  2.1397 -1.2834  0.0022
 6862TIP3    H242222   4.663   5.399   1.832 -0.3879 -1.0808 -0.7103
 6863TIP3   OH242223   2.063   2.025   1.019  0.2522  0.0573 -0.4329
 6863TIP3    H142224   2.115   2.080   1.077 -0.6687  0.4740  0.0193
 6863TIP3    H242225   2.054   1.942   1.066 -0.1336  0.2494 -0.1611
 6864TIP3   OH242226   3.379   0.688   6.771 -0.2614 -0.4104 -0.6668
 6864TIP3    H142227   3.304   0.642   6.732  0.3966 -1.2872 -0.9112
 6864TIP3    H242228   3.455   0.657   6.722  0.1983  1.0093 -0.8930
 6865TIP3   OH242229   6.654   0.180   8.234 -0.0376  0.1948  0.3006
 6865TIP3    H142230   6.746   0.203   8.221  0.0863  0.5741  1.7225
 6865TIP3    H242231   6.609   0.265   8.242 -0.5813  0.0208 -0.6989
 6866TIP3   OH242232   0.951   4.681   1.983  0.7654 -0.4655  0.0730
 6866TIP3    H142233   1.005   4.760   1.989  0.2351 -0.0773 -0.1689
 6866TIP3    H242234   0.967   4.634   2.065 -0.0559  0.6331  0.9012
 6867TIP3   OH242235   4.711   6.780   1.071 -0.1972 -0.2330 -0.6477
 6867TIP3    H142236   4.634   6.827   1.040  0.7985  0.4295 -2.2756
 6867TIP3    H242237   4.679   6.692   1.089 -1.5794  0.3650 -0.0318
 6868TIP3   OH242238   3.194   4.661   7.695 -0.0641 -0.0542  0.5059
 6868TIP3    H142239   3.212   4.744   7.651 -0.2321 -0.2852 -0.0074
 6868TIP3    H242240   3.271   4.607   7.676 -0.6094 -0.5244 -0.4230
 6869TIP3   OH242241   4.435   1.498   0.085 -0.2386 -0.9059 -0.4281
 6869TIP3    H142242   4.435   1.548   0.004  0.0642 -0.6283 -0.2575
 6869TIP3    H242243   4.355   1.444   0.080 -0.2895 -0.7911 -0.8444
 6870TIP3   OH242244   3.020   2.926   6.681 -0.1049 -0.0274  0.0561
 6870TIP3    H142245   2.939   2.977   6.678 -0.5150 -0.6570  0.1970
 6870TIP3    H242246   3.090   2.992   6.680 -0.5815  0.4851 -1.4448
 6871TIP3   OH242247   5.474   5.401   1.053 -0.5993 -0.1962  0.3785
 6871TIP3    H142248   5.496   5.421   0.963 -1.2487  0.3675  0.3366
 6871TIP3    H242249   5.432   5.480   1.086 -2.2437 -1.0886  0.5416
 6872TIP3   OH242250   3.098   0.105   7.351  0.1901 -0.7688  0.4436
 6872TIP3    H142251   3.112   0.150   7.267  0.6051 -0.2462  0.7858
 6872TIP3    H242252   3.186   0.093   7.386 -0.0615  2.2925  2.5086
 6873TIP3   OH242253   5.927   4.132   0.109  0.1547 -0.0711 -0.3181
 6873TIP3    H142254   5.832   4.131   0.105 -0.0051 -1.1285  1.8567
 6873TIP3    H242255   5.948   4.204   0.169  0.8226  0.7987 -1.5363
 6874TIP3   OH242256   6.477   1.177   1.608  0.1301 -0.3699 -0.0923
 6874TIP3    H142257   6.446   1.147   1.693  3.4032 -2.0421  0.6882
 6874TIP3    H242258   6.487   1.272   1.619  0.0390 -0.4945  1.2354
 6875TIP3   OH242259   1.346   3.867   1.704  0.0278  0.1966 -0.0887
 6875TIP3    H142260   1.436   3.840   1.686 -0.1548 -0.3685 -0.1594
 6875TIP3    H242261   1.355   3.956   1.740  0.5789  0.2997 -0.4716
 6876TIP3   OH242262   3.224   4.195   7.608 -0.1667 -0.0475  0.6190
 6876TIP3    H142263   3.129   4.191   7.612 -0.1722 -0.2274  0.2825
 6876TIP3    H242264   3.247   4.153   7.525  0.2711 -1.0212  1.2176
 6877TIP3   OH242265   4.797   0.675   1.038  0.1023 -0.2228  0.0667
 6877TIP3    H142266   4.847   0.596   1.019  2.4396  1.4350 -1.1936
 6877TIP3    H242267   4.847   0.719   1.107  0.6932  1.6578 -1.4720
 6878TIP3   OH242268   5.346   1.926   1.867 -0.3863 -0.7267 -0.1855
 6878TIP3    H142269   5.271   1.925   1.927  0.7257  1.0109  1.3390
 6878TIP3    H242270   5.413   1.875   1.912  0.1456 -0.2151 -0.3951
 6879TIP3   OH242271   4.884   0.915   1.613  0.1684  0.2889 -0.7173
 6879TIP3    H142272   4.857   1.007   1.610  0.5484  0.5224  1.3881
 6879TIP3    H242273   4.979   0.917   1.617  0.1527 -0.1504  0.1174
 6880TIP3   OH242274   0.830   3.113   1.680 -0.0571  0.4256  0.6559
 6880TIP3    H142275   0.822   3.034   1.626  0.6859  1.6502 -1.3424
 6880TIP3    H242276   0.758   3.106   1.743 -0.1410 -1.7183  0.4115
 6881TIP3   OH242277   4.515   5.204   8.349  0.2380  0.2020  0.1565
 6881TIP3    H142278   4.495   5.118   8.312  1.8101  0.2789 -0.9673
 6881TIP3    H242279   4.507   5.192   8.444  0.0140 -1.0633 -0.0032
 6882TIP3   OH242280   5.275   4.491   8.016  0.6356  0.2324  0.0325
 6882TIP3    H142281   5.326   4.437   8.076 -0.2609  0.3704  0.9457
 6882TIP3    H242282   5.184   4.463   8.030  0.3412  0.7449 -0.7687
 6883TIP3   OH242283   5.031   5.256   8.603 -0.7734  0.5473  0.0903
 6883TIP3    H142284   4.943   5.232   8.630 -0.9121 -0.0813 -0.8920
 6883TIP3    H242285   5.056   5.191   8.538  0.7962  0.1477  1.0291
 6884TIP3   OH242286   1.239   2.407   7.705  0.3827 -0.3957  0.0189
 6884TIP3    H142287   1.215   2.362   7.624  0.5198  0.6958 -0.6499
 6884TIP3    H242288   1.245   2.499   7.680  0.9304 -0.1063  1.1614
 6885TIP3   OH242289   1.624   5.507   0.244  0.1528 -0.2541  0.2030
 6885TIP3    H142290   1.616   5.579   0.181 -1.8440 -0.7620 -0.1805
 6885TIP3    H242291   1.648   5.550   0.326  1.1882  0.5889 -0.5078
 6886TIP3   OH242292   3.022   5.702   1.594  0.3973  0.4170  0.3405
 6886TIP3    H142293   2.964   5.773   1.566 -0.0585  0.4255  1.2746
 6886TIP3    H242294   3.110   5.734   1.576  0.2253  1.4408  1.2313
 6887TIP3   OH242295   6.389   5.401   2.133 -0.0894 -0.4078 -0.9040
 6887TIP3    H142296   6.403   5.368   2.044  0.1960 -0.3507 -0.8799
 6887TIP3    H242297   6.440   5.343   2.189  0.7359  0.3018 -0.8981
 6888TIP3   OH242298   3.606   5.941   7.495 -0.5977  0.2059  0.2058
 6888TIP3    H142299   3.563   5.965   7.412 -1.3352 -0.1664  0.4737
 6888TIP3    H242300   3.648   6.022   7.524 -0.8271  0.4902 -0.2408
 6889TIP3   OH242301   4.100   5.591   8.040 -0.2900 -0.1289 -0.2635
 6889TIP3    H142302   4.006   5.576   8.050 -0.6247  2.4690  1.5267
 6889TIP3    H242303   4.107   5.677   8.000  1.3282  0.0878  0.3885
 6890TIP3   OH242304   4.114   6.738   7.112 -0.1792 -0.6740 -0.5004
 6890TIP3    H142305   4.173   6.733   7.036  0.7838 -0.2287  0.1951
 6890TIP3    H242306   4.114   6.830   7.136 -0.7997 -0.7482 -0.2045
 6891TIP3   OH242307   5.293   0.216   2.430  0.0338  0.1181 -0.3861
 6891TIP3    H142308   5.374   0.179   2.464  0.0721  1.8258  1.5420
 6891TIP3    H242309   5.224   0.175   2.482 -0.3252 -0.6081 -1.3773
 6892TIP3   OH242310   0.638   5.209   8.610  0.4080  0.2253 -0.2147
 6892TIP3    H142311   0.568   5.274   8.608 -0.6081 -0.8283 -0.6554
 6892TIP3    H242312   0.712   5.252   8.568 -0.7052  0.6180 -1.8889
 6893TIP3   OH242313   2.285   1.817   1.110 -1.0254  0.5950  0.2504
 6893TIP3    H142314   2.284   1.766   1.190 -0.1402 -0.2018 -0.2219
 6893TIP3    H242315   2.213   1.784   1.058  0.7757 -1.7433 -0.9516
 6894TIP3   OH242316   2.165   0.475   7.705  0.3526 -0.2670  0.1960
 6894TIP3    H142317   2.154   0.400   7.763  0.3861  0.7775  1.6146
 6894TIP3    H242318   2.211   0.539   7.759  1.4614  0.3132 -1.3853
 6895TIP3   OH242319   4.922   5.802   1.776 -0.8119 -0.1438 -0.2927
 6895TIP3    H142320   5.006   5.829   1.739  1.1430 -3.7468  1.0073
 6895TIP3    H242321   4.871   5.771   1.701 -1.6599  3.2804 -1.2764
 6896TIP3   OH242322   6.015   4.358   1.723  0.0071  0.5971  0.0266
 6896TIP3    H142323   5.979   4.300   1.791 -0.7641  1.2273  0.1646
 6896TIP3    H242324   5.953   4.351   1.651  0.0424  1.0679 -0.0479
 6897TIP3   OH242325   5.918   2.621   6.723 -0.5188 -0.0520 -0.6116
 6897TIP3    H142326   5.965   2.699   6.695 -1.7971  0.2975 -1.8772
 6897TIP3    H242327   5.971   2.586   6.795  0.4331  1.5840 -0.4632
 6898TIP3   OH242328   3.531   2.690   7.926 -0.3377 -0.6312 -0.0383
 6898TIP3    H142329   3.472   2.733   7.865 -0.3422  0.2954  0.5908
 6898TIP3    H242330   3.512   2.731   8.011  2.0732  0.6615 -0.0214
 6899TIP3   OH242331   6.222   6.753   0.928 -0.4097  0.5344 -0.5525
 6899TIP3    H142332   6.214   6.833   0.979  0.8860  0.6037 -0.4198
 6899TIP3    H242333   6.188   6.775   0.841  0.0968  1.2899 -0.5663
 6900TIP3   OH242334   1.600   4.150   7.799  0.5529  0.1288 -0.1906
 6900TIP3    H142335   1.693   4.127   7.809  0.0535 -1.2693  2.0170
 6900TIP3    H242336   1.586   4.219   7.863  0.4759  1.8677 -2.0004
 6901TIP3   OH242337   3.115   2.915   0.666  0.0745  0.0282 -0.1681
 6901TIP3    H142338   3.108   2.862   0.587  0.4802 -0.1605 -0.0858
 6901TIP3    H242339   3.026   2.920   0.700 -0.1265  0.2407 -0.7173
 6902TIP3   OH242340   5.083   3.697   1.701 -0.3389  0.1662  0.6498
 6902TIP3    H142341   5.035   3.746   1.633  2.1987  1.2041 -0.5101
 6902TIP3    H242342   5.061   3.606   1.684 -1.9498  0.5951  0.2412
 6903TIP3   OH242343   4.909   2.014   1.849  0.0944 -0.5823 -0.5609
 6903TIP3    H142344   4.852   1.964   1.908  0.9025 -3.0109 -1.7164
 6903TIP3    H242345   4.995   2.009   1.891  0.5171 -1.6751 -1.5045
 6904TIP3   OH242346   0.408   1.117   0.503  0.3379 -0.2014  0.0211
 6904TIP3    H142347   0.338   1.061   0.536 -0.3074  1.0949  0.9337
 6904TIP3    H242348   0.388   1.204   0.537  2.3390  0.2391  0.2112
 6905TIP3   OH242349   0.134   0.326   8.402 -0.3329  0.1881 -0.1934
 6905TIP3    H142350   0.050   0.338   8.356  0.2487  0.8006 -1.1402
 6905TIP3    H242351   0.185   0.403   8.377 -0.8243  1.9424  3.5156
 6906TIP3   OH242352   1.204   0.745   7.831  0.3240 -0.3325 -0.8260
 6906TIP3    H142353   1.215   0.783   7.744 -2.1657 -0.7020 -1.3729
 6906TIP3    H242354   1.183   0.653   7.816  1.1555 -0.7325  0.2599
 6907TIP3   OH242355   4.119   0.325   1.030  0.3613  0.0547 -0.1450
 6907TIP3    H142356   4.153   0.375   0.956 -0.3814 -2.0212 -1.9747
 6907TIP3    H242357   4.138   0.380   1.106  2.3771  1.6625 -1.6889
 6908TIP3   OH242358   0.074   3.562   8.316 -0.1201 -0.0366  0.1763
 6908TIP3    H142359   0.082   3.482   8.368 -1.1516 -0.0999  0.2623
 6908TIP3    H242360   0.164   3.588   8.297  0.2293 -1.0909  0.3450
 6909TIP3   OH242361   2.227   3.194   7.318 -0.4169  0.6008  0.4037
 6909TIP3    H142362   2.176   3.142   7.256 -1.7522  1.3367  0.8498
 6909TIP3    H242363   2.282   3.250   7.263 -2.0388  1.6952 -0.1731
 6910TIP3   OH242364   4.375   3.616   1.908  0.2350 -0.2918 -0.0237
 6910TIP3    H142365   4.423   3.565   1.973  1.8824 -1.2145 -1.8742
 6910TIP3    H242366   4.303   3.559   1.882  0.4434 -0.5372 -0.0694
 6911TIP3   OH242367   4.489   6.327   8.666  0.6030 -0.0870  0.5269
 6911TIP3    H142368   4.396   6.307   8.674  0.2355  1.7253  1.4291
 6911TIP3    H242369   4.499   6.365   8.579  0.5626 -0.5319  0.3259
 6912TIP3   OH242370   3.240   5.552   7.630 -0.3235 -0.1486 -0.0755
 6912TIP3    H142371   3.324   5.594   7.612  1.2502 -2.3594  1.4516
 6912TIP3    H242372   3.200   5.604   7.699  0.6752 -0.0488  0.4433
 6913TIP3   OH242373   2.648   2.865   8.163  0.5725 -0.5134  0.6733
 6913TIP3    H142374   2.582   2.864   8.232 -0.2269  2.2008  0.0915
 6913TIP3    H242375   2.719   2.919   8.199 -0.1641  1.5704 -0.7425
 6914TIP3   OH242376   1.046   1.557   1.567 -0.1584 -0.5336 -0.1363
 6914TIP3    H142377   1.121   1.498   1.554 -0.3648 -0.5914 -1.1220
 6914TIP3    H242378   0.976   1.500   1.597  0.0833 -0.5380  0.4336
 6915TIP3   OH242379   6.103   3.303   0.354  0.0012  0.0549  1.1760
 6915TIP3    H142380   6.098   3.397   0.336 -0.0923  0.3071  2.4219
 6915TIP3    H242381   6.175   3.272   0.300 -0.3539  0.7222  0.2840
 6916TIP3   OH242382   6.090   3.986   1.792 -0.2585 -0.7304 -0.2161
 6916TIP3    H142383   6.107   3.926   1.864  2.3966  0.9884  0.7267
 6916TIP3    H242384   6.006   4.026   1.813  0.0244 -0.9539  1.4696
 6917TIP3   OH242385   3.816   5.503   0.021  0.7875  0.3474 -0.9386
 6917TIP3    H142386   3.762   5.425   0.010  0.3307  0.4885  0.1582
 6917TIP3    H242387   3.843   5.526  -0.067 -1.2837  0.5089 -1.5787
 6918TIP3   OH242388   1.634   3.039   2.613  0.5004  0.9370 -0.1011
 6918TIP3    H142389   1.727   3.063   2.621  0.6621  0.3029 -0.0165
 6918TIP3    H242390   1.620   2.975   2.684 -0.2400  1.7351  0.4938
 6919TIP3   OH242391   5.484   2.070   7.270  0.1543  0.1064  0.1008
 6919TIP3    H142392   5.576   2.085   7.293  0.0013  0.4401  0.5006
 6919TIP3    H242393   5.479   2.095   7.178  0.2715  0.9611  0.3139
 6920TIP3   OH242394   0.654   6.052   2.619  0.3794 -0.4961 -0.0468
 6920TIP3    H142395   0.700   6.008   2.690 -0.2272  0.1661  0.7762
 6920TIP3    H242396   0.717   6.054   2.547  1.1491 -0.8249  0.6041
 6921TIP3   OH242397   0.271   1.979   7.167  0.0536 -0.4591 -0.4695
 6921TIP3    H142398   0.301   1.925   7.094  0.1232 -1.1897  0.0819
 6921TIP3    H242399   0.259   1.917   7.239  2.0221  0.5017  0.7763
 6922TIP3   OH242400   1.020   4.578   0.819  0.4574  0.0436  0.7395
 6922TIP3    H142401   1.078   4.582   0.744  0.8482 -2.6360  0.8247
 6922TIP3    H242402   0.975   4.494   0.812 -0.4558  0.2727  2.8151
 6923TIP3   OH242403   3.282   3.497   1.831  0.0169 -0.4360  0.2446
 6923TIP3    H142404   3.310   3.423   1.885 -2.0220 -0.9091  0.7291
 6923TIP3    H242405   3.217   3.460   1.771  0.9568  0.4420 -1.3927
 6924TIP3   OH242406   2.895   0.116   0.609 -0.0543 -0.0448 -0.1191
 6924TIP3    H142407   2.889   0.121   0.513  0.2272  0.3981 -0.1156
 6924TIP3    H242408   2.805   0.101   0.637 -0.4414  1.6043 -0.3540
 6925TIP3   OH242409   5.417   4.992   7.283 -0.0084 -0.5762 -0.0026
 6925TIP3    H142410   5.343   5.051   7.295 -0.3388 -0.9819 -0.0125
 6925TIP3    H242411   5.493   5.050   7.273 -0.1053 -0.1857  1.3796
 6926TIP3   OH242412   6.198   1.457   7.384  0.6681  0.4243  0.5191
 6926TIP3    H142413   6.153   1.382   7.345  1.0480  0.7318 -0.5487
 6926TIP3    H242414   6.290   1.444   7.360  0.6183  1.7080 -0.5258
 6927TIP3   OH242415   1.787   5.961   8.541 -0.2457  0.3177 -0.2451
 6927TIP3    H142416   1.809   5.870   8.559 -0.1603  0.4483  0.3534
 6927TIP3    H242417   1.720   5.983   8.606  0.8500  1.1268  0.6831
 6928TIP3   OH242418   3.652   2.949   6.893 -0.0290 -0.3328 -0.3470
 6928TIP3    H142419   3.673   2.894   6.818  0.7753 -0.6162  0.0807
 6928TIP3    H242420   3.571   2.994   6.867 -1.4457 -2.6303 -0.2244
 6929TIP3   OH242421   2.658   0.901   0.484 -0.1508  0.3951 -0.4487
 6929TIP3    H142422   2.632   0.967   0.421 -0.3046  1.1303  0.3766
 6929TIP3    H242423   2.631   0.935   0.569 -1.6160 -1.3981 -0.1126
 6930TIP3   OH242424   5.722   5.657   0.571  0.1564 -0.1863  0.2571
 6930TIP3    H142425   5.637   5.614   0.566  0.4608 -0.9807  1.5928
 6930TIP3    H242426   5.779   5.603   0.516 -0.0694  0.0316 -0.1951
 6931TIP3   OH242427   2.862   4.417   7.448  0.5368  0.4287 -0.0320
 6931TIP3    H142428   2.772   4.447   7.455  0.2115 -0.4737 -0.2175
 6931TIP3    H242429   2.867   4.373   7.362  0.9051 -0.3020  0.3508
 6932TIP3   OH242430   2.267   6.253   0.150 -0.3548 -0.3325  0.6448
 6932TIP3    H142431   2.336   6.306   0.191 -1.0722  0.3075  1.0414
 6932TIP3    H242432   2.214   6.222   0.224 -1.2891  0.2995  0.2476
 6933TIP3   OH242433   4.768   2.465   0.891 -0.6257  0.4383 -0.1371
 6933TIP3    H142434   4.773   2.426   0.804 -0.4655  0.0260  0.0553
 6933TIP3    H242435   4.855   2.454   0.928 -1.0616 -0.6619  0.6093
 6934TIP3   OH242436   5.726   0.114   1.320  0.2665 -0.3386  0.1507
 6934TIP3    H142437   5.670   0.062   1.379 -1.2044  1.4362  0.4128
 6934TIP3    H242438   5.805   0.132   1.371 -0.0579 -0.6415  0.7786
 6935TIP3   OH242439   5.115   0.441   1.151  0.2264  0.6881 -0.0880
 6935TIP3    H142440   5.117   0.526   1.107  0.7810  0.9890  0.5100
 6935TIP3    H242441   5.107   0.463   1.244 -0.5203  0.0669  0.0044
 6936TIP3   OH242442   3.405   6.816   1.400 -0.8208  0.1641  0.4941
 6936TIP3    H142443   3.448   6.766   1.330  0.4147 -1.0179  1.9975
 6936TIP3    H242444   3.467   6.886   1.420 -1.2151  0.5580  0.3311
 6937TIP3   OH242445   4.086   4.042   1.934  0.0928 -0.3203 -0.7641
 6937TIP3    H142446   4.146   3.979   1.975 -0.0695 -0.3107 -0.5179
 6937TIP3    H242447   4.025   4.067   2.003 -1.8851 -2.3675 -1.6437
 6938TIP3   OH242448   4.485   2.217   7.379  0.2190 -0.0737 -0.4580
 6938TIP3    H142449   4.556   2.213   7.315 -0.0956 -2.1075 -0.7335
 6938TIP3    H242450   4.522   2.267   7.452  0.4568  2.6244 -2.2845
 6939TIP3   OH242451   5.864   1.097   8.263 -0.3032 -0.2181 -0.2656
 6939TIP3    H142452   5.914   1.127   8.338  1.9329  0.8517 -2.0624
 6939TIP3    H242453   5.851   1.003   8.278  0.1065 -0.0398  1.3926
 6940TIP3   OH242454   4.944   5.022   1.714  0.0365 -0.0137 -0.1739
 6940TIP3    H142455   4.867   5.019   1.771  0.5383 -0.5063  0.4866
 6940TIP3    H242456   4.953   4.932   1.683 -0.6761  0.3834 -1.6596
 6941TIP3   OH242457   4.066   6.434   0.544  0.2330  0.4065  0.3842
 6941TIP3    H142458   4.054   6.524   0.573 -2.1422  0.5916 -0.8988
 6941TIP3    H242459   4.106   6.442   0.457  0.2912  0.2072  0.3928
 6942TIP3   OH242460   4.387   4.132   7.408 -0.6683  0.2384 -0.0714
 6942TIP3    H142461   4.480   4.157   7.402 -0.4239 -0.0874  1.8445
 6942TIP3    H242462   4.378   4.059   7.347  0.2176  0.5677 -0.6212
 6943TIP3   OH242463   1.910   4.464   7.793  0.2203 -0.1656  0.1102
 6943TIP3    H142464   1.841   4.466   7.727 -0.1047 -0.5414  0.4359
 6943TIP3    H242465   1.956   4.381   7.777 -1.3295 -1.4439  1.8246
 6944TIP3   OH242466   0.525   5.970   1.294  0.4935 -0.0378  0.5819
 6944TIP3    H142467   0.457   5.941   1.234  1.8298 -1.4056 -0.3405
 6944TIP3    H242468   0.570   6.040   1.248  0.9303 -0.4532  0.3755
 6945TIP3   OH242469   2.713   0.652   1.442 -0.4110  0.3252  0.3928
 6945TIP3    H142470   2.652   0.676   1.373 -2.3032 -0.2921  1.7768
 6945TIP3    H242471   2.687   0.706   1.517  1.0721  0.3918  0.8888
 6946TIP3   OH242472   1.831   5.533   2.516 -0.8161  0.1550 -0.5405
 6946TIP3    H142473   1.878   5.600   2.566 -0.2621  0.2095 -1.1232
 6946TIP3    H242474   1.822   5.460   2.577  1.5916 -0.5418 -0.9517
 6947TIP3   OH242475   5.369   4.354   0.442  0.1071  0.3176 -0.2187
 6947TIP3    H142476   5.383   4.355   0.348 -2.3314  0.8188 -0.6450
 6947TIP3    H242477   5.437   4.296   0.476  0.8586 -0.0998 -2.2952
 6948TIP3   OH242478   5.809   5.499   1.876 -0.0731  0.3633 -0.3378
 6948TIP3    H142479   5.874   5.466   1.814 -0.1590 -1.5684  0.5390
 6948TIP3    H242480   5.729   5.507   1.825  0.4261  1.1298 -1.0258
 6949TIP3   OH242481   6.505   0.837   1.993 -0.3318 -0.0435 -0.0580
 6949TIP3    H142482   6.571   0.811   2.058  1.1393 -0.5628 -1.6836
 6949TIP3    H242483   6.476   0.923   2.021 -0.7260 -0.7939  2.0029
 6950TIP3   OH242484   0.278   2.450   2.219 -0.4189 -0.0199 -0.0386
 6950TIP3    H142485   0.235   2.479   2.138 -0.7160  2.3795  0.9025
 6950TIP3    H242486   0.209   2.403   2.266 -0.2873 -1.2985 -1.0761
 6951TIP3   OH242487   6.678   1.805   8.359  0.3592 -0.3752 -0.4723
 6951TIP3    H142488   6.704   1.886   8.404  0.6033 -1.1724  0.8907
 6951TIP3    H242489   6.585   1.817   8.341  0.0295 -0.3548  1.0671
 6952TIP3   OH242490   6.762   0.353   1.246 -0.0408  0.0570 -0.5625
 6952TIP3    H142491   6.834   0.290   1.242 -0.8379 -1.1506  1.8838
 6952TIP3    H242492   6.805   0.438   1.241  1.2472 -0.6256 -2.0849
 6953TIP3   OH242493   1.738   6.666   0.874  0.1910 -0.0115  0.2219
 6953TIP3    H142494   1.794   6.656   0.952  0.3872 -1.0381 -0.0302
 6953TIP3    H242495   1.714   6.576   0.851  2.4400 -0.0633 -2.5772
 6954TIP3   OH242496   1.558   3.923   7.998  0.2131  0.1677  0.2358
 6954TIP3    H142497   1.473   3.922   7.954  0.0327 -0.3862  0.5894
 6954TIP3    H242498   1.607   3.850   7.960 -0.1401 -0.6596  1.3015
 6955TIP3   OH242499   0.491   2.903   8.567 -0.6541  0.3591  0.1556
 6955TIP3    H142500   0.505   2.941   8.654 -3.6879  0.4203  0.7365
 6955TIP3    H242501   0.473   2.978   8.511 -2.0935  0.1526  0.2928
 6956TIP3   OH242502   5.436   2.121   6.994 -0.1579  0.0721  0.4171
 6956TIP3    H142503   5.409   2.206   6.959 -1.0761 -0.3351  0.1084
 6956TIP3    H242504   5.451   2.067   6.916 -2.0219 -0.7815  0.6051
 6957TIP3   OH242505   5.575   6.568   8.553 -0.3883 -0.0633  0.4848
 6957TIP3    H142506   5.618   6.483   8.540 -1.3939 -0.4344 -0.6023
 6957TIP3    H242507   5.603   6.620   8.478 -1.0330  0.0193  0.2972
 6958TIP3   OH242508   0.634   4.632   8.238 -0.2841  0.2279  0.5365
 6958TIP3    H142509   0.601   4.544   8.219 -1.3018  0.1756  2.3036
 6958TIP3    H242510   0.675   4.624   8.325 -0.0213  1.4110  0.5402
 6959TIP3   OH242511   3.994   2.515   8.391  0.1677 -0.0778 -0.2294
 6959TIP3    H142512   3.928   2.528   8.323  0.5244 -0.0363 -0.5689
 6959TIP3    H242513   3.945   2.484   8.467 -0.0402 -1.8175 -1.0118
 6960TIP3   OH242514   0.832   3.755   8.571 -0.1609  0.5750 -0.3574
 6960TIP3    H142515   0.791   3.830   8.528 -0.4266  0.7226  0.1532
 6960TIP3    H242516   0.779   3.680   8.544 -1.6124  0.9264  1.3691
 6961TIP3   OH242517   5.122   5.440   1.020 -0.5208 -0.2212  0.5283
 6961TIP3    H142518   5.110   5.367   0.959 -0.4693  1.4755 -1.6711
 6961TIP3    H242519   5.203   5.483   0.990 -0.9057  1.1060  1.3031
 6962TIP3   OH242520   1.585   0.458   8.418  0.2796 -0.0466 -0.5093
 6962TIP3    H142521   1.510   0.517   8.429  1.7860  1.7245  0.9348
 6962TIP3    H242522   1.631   0.493   8.341  0.1201 -0.5654 -0.8408
 6963TIP3   OH242523   4.463   4.078   2.037  0.4394  0.5675 -0.1613
 6963TIP3    H142524   4.546   4.034   2.053 -0.0638  0.0661  1.2285
 6963TIP3    H242525   4.396   4.012   2.058 -0.3287  1.7294  1.2292
 6964TIP3   OH242526   4.053   4.642   7.500 -0.0966 -0.6497 -0.0394
 6964TIP3    H142527   4.024   4.695   7.574 -1.0941 -0.2799 -0.6677
 6964TIP3    H242528   4.148   4.652   7.499  0.0480 -1.4491  1.7614
 6965TIP3   OH242529   5.374   5.334   1.658 -0.1291 -0.6412  0.1690
 6965TIP3    H142530   5.387   5.426   1.682 -2.1130  0.6085 -2.9728
 6965TIP3    H242531   5.281   5.318   1.672  0.2067 -2.2574  0.7886
 6966TIP3   OH242532   3.693   0.950   0.388 -0.5446  0.4135  1.1075
 6966TIP3    H142533   3.611   0.998   0.384 -0.8967 -0.2512 -0.7342
 6966TIP3    H242534   3.745   0.985   0.315 -0.8768 -1.9840 -0.4266
 6967TIP3   OH242535   2.987   0.495   1.646 -0.1651  0.1490 -0.8006
 6967TIP3    H142536   3.079   0.479   1.667 -0.2117  0.5977 -0.2268
 6967TIP3    H242537   2.987   0.578   1.599 -0.3581  0.6022 -0.0237
 6968TIP3   OH242538   4.000   0.874   7.863 -0.4954  0.0345 -0.0398
 6968TIP3    H142539   4.058   0.811   7.820  1.8053  0.2802  2.4503
 6968TIP3    H242540   4.051   0.907   7.936 -3.3333  1.3549  1.4911
 6969TIP3   OH242541   6.030   2.160   1.516  0.1748  0.2365  0.3991
 6969TIP3    H142542   6.021   2.255   1.504 -1.2512  0.4816  2.8634
 6969TIP3    H242543   6.097   2.150   1.583 -1.1729 -0.3334  1.7221
 6970TIP3   OH242544   3.522   2.155   8.361 -0.2748  0.3018 -0.4744
 6970TIP3    H142545   3.455   2.099   8.323  0.3153  0.5199 -1.9208
 6970TIP3    H242546   3.605   2.118   8.329  0.2559  0.5450  0.5690
 6971TIP3   OH242547   1.843   4.024   8.291  0.0179  0.8741 -0.3929
 6971TIP3    H142548   1.848   3.994   8.382  0.1836  0.2029 -0.6165
 6971TIP3    H242549   1.762   4.075   8.288 -0.5464  0.0277 -0.1108
 6972TIP3   OH242550   3.730   0.049   6.344 -0.1133 -0.1029  0.1287
 6972TIP3    H142551   3.648   0.005   6.325 -0.5136  1.2517 -1.5352
 6972TIP3    H242552   3.708   0.142   6.348  1.1460  0.1943  0.8375
 6973TIP3   OH242553   2.396   2.747   1.677  0.0799 -0.2252  0.1080
 6973TIP3    H142554   2.470   2.808   1.679 -0.6567  0.7889 -1.4680
 6973TIP3    H242555   2.411   2.689   1.752  3.2773 -0.9996 -0.9373
 6974TIP3   OH242556   1.747   1.083   7.439  0.2051  0.5143  0.3508
 6974TIP3    H142557   1.704   1.014   7.489 -0.5509  1.5661  1.2297
 6974TIP3    H242558   1.690   1.097   7.363  0.5563 -0.0709 -0.0233
 6975TIP3   OH242559   1.369   4.524   0.176  0.8542  0.2925 -0.0614
 6975TIP3    H142560   1.392   4.446   0.226 -0.3373  1.5791  2.7218
 6975TIP3    H242561   1.294   4.498   0.124  1.1697 -0.7031 -0.0387
 6976TIP3   OH242562   0.147   6.570   1.042  0.9582 -0.3765  0.5168
 6976TIP3    H142563   0.118   6.641   0.985  1.1727  0.4175  1.3692
 6976TIP3    H242564   0.242   6.579   1.047  1.0530 -1.0916  0.1653
 6977TIP3   OH242565   2.962   0.195   8.035  0.2961  0.6438  0.0517
 6977TIP3    H142566   3.053   0.208   8.062  0.7738 -1.3017 -0.5121
 6977TIP3    H242567   2.914   0.184   8.116  1.1311 -1.5358  0.3164
 6978TIP3   OH242568   0.571   0.001   2.424 -0.1901 -0.1216  0.6351
 6978TIP3    H142569   0.573  -0.071   2.361  2.4476 -0.3829  0.9108
 6978TIP3    H242570   0.581   0.080   2.371  0.7626 -0.2609  0.5797
 6979TIP3   OH242571   3.624   0.651   0.192  0.2884  0.1468  0.2855
 6979TIP3    H142572   3.568   0.729   0.189  1.1967  0.7979 -2.0097
 6979TIP3    H242573   3.713   0.686   0.197  0.6575 -0.7563  0.2074
 6980TIP3   OH242574   1.735   1.754   8.555 -0.1196  0.1127 -0.7590
 6980TIP3    H142575   1.742   1.774   8.462 -0.5978  2.6014 -0.3121
 6980TIP3    H242576   1.812   1.795   8.594 -1.4295  1.6972  0.2847
 6981TIP3   OH242577   5.270   3.382   1.715  0.1863  0.4690 -0.0606
 6981TIP3    H142578   5.199   3.433   1.677 -1.4967 -0.5375  1.5788
 6981TIP3    H242579   5.233   3.296   1.732  1.5790  0.0922  1.4285
 6982TIP3   OH242580   1.869   0.239   0.900  0.0141  0.1530 -0.8650
 6982TIP3    H142581   1.889   0.257   0.992 -2.7935  1.9208 -0.4693
 6982TIP3    H242582   1.880   0.145   0.891 -0.7938 -0.2740  1.6502
 6983TIP3   OH242583   3.955   0.448   0.659 -0.4818 -0.2158  0.1583
 6983TIP3    H142584   4.013   0.510   0.703  0.2551 -0.6600 -0.1674
 6983TIP3    H242585   3.873   0.453   0.708  0.4889 -1.1398  1.9922
 6984TIP3   OH242586   4.654   1.800   1.101  0.3368 -0.0372 -0.6086
 6984TIP3    H142587   4.660   1.872   1.038  0.6897  1.4172  1.0180
 6984TIP3    H242588   4.611   1.839   1.177  0.2916 -1.6438  0.2153
 6985TIP3   OH242589   2.717   6.510   2.028 -0.1261  0.0775  0.1944
 6985TIP3    H142590   2.632   6.485   1.992  0.6909  0.3265 -2.1500
 6985TIP3    H242591   2.699   6.539   2.117 -1.7856 -4.4253  1.5707
 6986TIP3   OH242592   0.007   1.204   7.506  0.4885 -0.0063  0.7478
 6986TIP3    H142593   0.080   1.250   7.547  1.6528 -0.6701 -0.5162
 6986TIP3    H242594   0.047   1.129   7.461 -0.5869  0.9684 -2.0552
 6987TIP3   OH242595   1.302   5.390   6.530 -0.4585 -0.5104 -0.2781
 6987TIP3    H142596   1.339   5.438   6.604  0.3667 -0.9332 -0.4049
 6987TIP3    H242597   1.239   5.330   6.570  0.6049 -1.3487  0.1919
 6988TIP3   OH242598   1.538   5.517   7.945 -0.4000  0.2208 -0.0660
 6988TIP3    H142599   1.482   5.477   7.879  0.6253  2.1590 -2.2477
 6988TIP3    H242600   1.490   5.504   8.027 -4.1899  1.7991 -1.7415
 6989TIP3   OH242601   0.021   6.862   8.521  0.5210  0.3609 -0.3367
 6989TIP3    H142602   0.105   6.897   8.549 -0.6292  2.6063  0.6138
 6989TIP3    H242603  -0.043   6.929   8.547 -1.7944 -2.0781  0.7603
 6990TIP3   OH242604   3.716   0.180   2.014 -0.2667  0.0732  0.1742
 6990TIP3    H142605   3.770   0.212   2.087  0.4098 -0.9411  0.1429
 6990TIP3    H242606   3.662   0.112   2.053  0.4069 -0.7755 -0.3456
 6991TIP3   OH242607   0.773   0.491   7.518 -0.5619 -0.4305  0.1083
 6991TIP3    H142608   0.769   0.403   7.555 -0.9263  0.6298  2.8431
 6991TIP3    H242609   0.683   0.521   7.517 -0.5229 -0.2954 -1.4497
 6992TIP3   OH242610   0.776   5.002   7.649  0.2861  0.5456  0.3970
 6992TIP3    H142611   0.706   4.947   7.614 -0.6392  2.3616 -0.7607
 6992TIP3    H242612   0.731   5.082   7.678  1.8905  1.9111 -0.6800
 6993TIP3   OH242613   2.547   4.396   8.189  0.2383 -0.6160 -0.2032
 6993TIP3    H142614   2.636   4.379   8.221  0.7461  0.0903 -1.1621
 6993TIP3    H242615   2.558   4.468   8.127 -0.9278 -0.9027 -0.7657
 6994TIP3   OH242616   2.812   5.256   7.756  0.2014  0.1660 -0.0831
 6994TIP3    H142617   2.905   5.277   7.744  0.2109  0.6811  0.7824
 6994TIP3    H242618   2.769   5.342   7.759 -0.4378 -0.0822 -1.3864
 6995TIP3   OH242619   0.706   6.387   8.005  0.5605  0.2827  0.4863
 6995TIP3    H142620   0.673   6.391   7.916 -1.1283  1.2800  1.1013
 6995TIP3    H242621   0.749   6.472   8.019  3.8452 -1.0883 -0.3903
 6996TIP3   OH242622   6.154   1.197   0.311  0.1451 -0.0817 -0.4110
 6996TIP3    H142623   6.133   1.113   0.351  1.9605  0.1843  1.2526
 6996TIP3    H242624   6.080   1.215   0.253 -1.2664 -1.8459  0.7224
 6997TIP3   OH242625   4.397   0.871   7.806  0.2063 -0.8627 -0.4445
 6997TIP3    H142626   4.450   0.945   7.835  1.1430 -1.7766  0.2285
 6997TIP3    H242627   4.326   0.865   7.871 -0.3767 -0.0293 -0.9922
 6998TIP3   OH242628   6.193   5.244   6.549 -0.4043  0.2018 -0.3340
 6998TIP3    H142629   6.117   5.200   6.588 -1.2023  1.0516 -0.8922
 6998TIP3    H242630   6.251   5.172   6.523  0.4997 -0.4295  2.9467
 6999TIP3   OH242631   5.286   0.767   1.945 -0.3719 -0.0824 -0.0257
 6999TIP3    H142632   5.363   0.711   1.956 -0.5442 -0.5864 -1.2666
 6999TIP3    H242633   5.321   0.852   1.919  0.1046  1.3442  4.4649
 7000TIP3   OH242634   4.327   3.305   6.954 -0.3078 -0.5715  0.1554
 7000TIP3    H142635   4.352   3.345   7.038 -1.9222 -1.4071  1.0895
 7000TIP3    H242636   4.343   3.374   6.890 -2.1443  1.3250  1.5885
 7001TIP3   OH242637   0.247   4.375   8.060  0.2511 -0.4342  0.3563
 7001TIP3    H142638   0.277   4.352   8.148 -1.1940  0.0121  0.9992
 7001TIP3    H242639   0.155   4.349   8.058  0.4171 -1.0228 -1.2555
 7002TIP3   OH242640   3.878   5.768   1.672 -0.1356 -0.1361 -0.4367
 7002TIP3    H142641   3.823   5.778   1.595 -1.8211  0.1373  0.7378
 7002TIP3    H242642   3.886   5.673   1.683  0.8727 -0.1767 -1.4461
 7003TIP3   OH242643   3.439   5.831   0.253  0.0179 -0.4681  0.2666
 7003TIP3    H142644   3.357   5.844   0.206 -0.1604 -1.2045  0.3599
 7003TIP3    H242645   3.485   5.764   0.202  1.1659  0.8680 -0.5488
 7004TIP3   OH242646   2.000   4.820   1.073 -0.0578 -0.1481 -0.8948
 7004TIP3    H142647   2.039   4.814   0.986  0.1863  0.1974 -0.8090
 7004TIP3    H242648   2.069   4.791   1.132 -0.1641 -0.2114 -0.8005
 7005TIP3   OH242649   5.888   6.118   1.168  0.0518 -0.0247  0.6952
 7005TIP3    H142650   5.830   6.143   1.241 -0.6140  0.7273 -0.0616
 7005TIP3    H242651   5.944   6.050   1.204 -2.8598 -2.5713  0.8668
 7006TIP3   OH242652   5.147   6.011   7.697  0.6130 -0.1482 -0.3985
 7006TIP3    H142653   5.066   5.972   7.663  1.1265 -1.5346 -0.0598
 7006TIP3    H242654   5.116   6.079   7.758 -0.3115  1.5962 -2.6392
 7007TIP3   OH242655   5.871   0.587   0.324 -0.4148 -0.3208  0.6548
 7007TIP3    H142656   5.882   0.492   0.332 -1.6147 -0.3864  1.8053
 7007TIP3    H242657   5.832   0.599   0.238 -1.3653 -0.9813  0.9834
 7008TIP3   OH242658   0.365   1.060   7.568  0.4594 -0.0864  0.6470
 7008TIP3    H142659   0.376   1.014   7.651  0.4299 -0.3189  0.5231
 7008TIP3    H242660   0.379   1.153   7.590  0.4404 -0.1447  0.9123
 7009TIP3   OH242661   1.596   0.777   7.919 -0.0582  0.2712  0.0925
 7009TIP3    H142662   1.672   0.720   7.907  0.7136  1.2287  0.3161
 7009TIP3    H242663   1.587   0.784   8.014 -0.3978  0.1982  0.0648
 7010TIP3   OH242664   4.931   6.369   1.074  0.6994 -0.3591  0.2514
 7010TIP3    H142665   4.836   6.379   1.070  0.6494 -1.1626 -2.5820
 7010TIP3    H242666   4.966   6.453   1.044  0.8735 -0.3391  0.5048
 7011TIP3   OH242667   4.710   2.766   2.342  0.6090 -0.1436 -0.1894
 7011TIP3    H142668   4.698   2.858   2.363 -0.1784 -0.5448  1.2507
 7011TIP3    H242669   4.698   2.720   2.425  2.0897 -1.4716 -0.6605
 7012TIP3   OH242670   4.896   1.158   7.391  0.2203 -0.7839 -0.0085
 7012TIP3    H142671   4.920   1.237   7.440 -0.3729 -0.7243  0.1948
 7012TIP3    H242672   4.807   1.139   7.419 -0.5456 -0.1329 -1.8400
 7013TIP3   OH242673   6.016   5.391   1.692  0.1444 -0.0387 -0.1890
 7013TIP3    H142674   6.110   5.397   1.679  0.0465 -0.3467 -1.1273
 7013TIP3    H242675   5.981   5.370   1.605 -0.6973 -0.8649  0.3239
 7014TIP3   OH242676   5.600   3.800   0.072 -0.2026  0.1184  0.1157
 7014TIP3    H142677   5.648   3.878   0.043  0.3279 -0.7679 -1.5859
 7014TIP3    H242678   5.548   3.775  -0.005 -0.0751 -1.4063  0.5084
 7015TIP3   OH242679   5.766   0.437   7.245  0.4344  0.2728 -0.0790
 7015TIP3    H142680   5.803   0.457   7.331 -0.8243  2.1575  0.0882
 7015TIP3    H242681   5.745   0.523   7.208  0.0922 -0.5563 -1.8908
 7016TIP3   OH242682   5.473   6.340   1.082  0.0121 -0.0191  0.1249
 7016TIP3    H142683   5.378   6.347   1.070  0.1357 -0.2223 -1.1537
 7016TIP3    H242684   5.485   6.332   1.176 -1.1653  1.0898  0.4017
 7017TIP3   OH242685   1.195   2.777   1.100  0.1008 -0.5561 -0.2419
 7017TIP3    H142686   1.259   2.848   1.109 -1.0913  0.4832  0.3856
 7017TIP3    H242687   1.246   2.697   1.111  1.1551  0.2584  1.1880
 7018TIP3   OH242688   6.353   4.256   8.217  0.0126  0.0061 -0.0578
 7018TIP3    H142689   6.379   4.183   8.274  1.2104  0.0328 -0.5538
 7018TIP3    H242690   6.435   4.301   8.197 -0.6748  1.3191 -0.0158
 7019TIP3   OH242691   6.411   4.017   0.203 -0.8993  0.2640  0.3580
 7019TIP3    H142692   6.367   3.983   0.125  0.3969  0.4599 -0.4939
 7019TIP3    H242693   6.354   4.087   0.235 -1.4157  0.2202 -0.4489
 7020TIP3   OH242694   2.546   3.125   7.672  0.5265  0.7633  0.3783
 7020TIP3    H142695   2.465   3.134   7.724 -0.2475  2.6489 -1.0497
 7020TIP3    H242696   2.607   3.079   7.731 -1.6436 -1.0613  1.3784
 7021TIP3   OH242697   1.701   2.287   0.158 -0.0105  0.2129  0.7031
 7021TIP3    H142698   1.743   2.266   0.075 -0.6322  0.1789  0.3969
 7021TIP3    H242699   1.697   2.382   0.160 -0.4034  0.2031  0.4865
 7022TIP3   OH242700   6.439   1.410   7.232 -0.0499 -0.0196  0.4704
 7022TIP3    H142701   6.428   1.432   7.139  1.6222 -1.9277 -0.2649
 7022TIP3    H242702   6.467   1.318   7.231 -1.3707 -0.5381  2.9633
 7023TIP3   OH242703   6.327   0.433   2.101  0.4236 -0.3787 -0.2064
 7023TIP3    H142704   6.351   0.398   2.187 -0.1779 -0.9906 -0.2846
 7023TIP3    H242705   6.232   0.424   2.096  0.5353 -1.1459 -1.2796
 7024TIP3   OH242706   0.932   0.480   8.192 -0.3413 -0.4671  0.1656
 7024TIP3    H142707   0.836   0.474   8.194 -0.4985  1.4765  0.4634
 7024TIP3    H242708   0.950   0.554   8.134  0.8920  0.3059  1.4625
 7025TIP3   OH242709   5.638   3.244   0.910 -0.3826 -0.5080  0.3051
 7025TIP3    H142710   5.648   3.156   0.946 -0.0551 -0.1255  1.1638
 7025TIP3    H242711   5.550   3.245   0.872 -0.5235 -1.0921  0.6161
 7026TIP3   OH242712   1.017   1.914   1.270 -0.2198 -0.3879  0.2083
 7026TIP3    H142713   1.002   1.877   1.183 -1.6921 -1.1478  0.7490
 7026TIP3    H242714   0.933   1.953   1.294 -0.4507 -1.8973  2.0593
 7027TIP3   OH242715   6.631   1.816   0.287 -0.3505  0.3636  0.2345
 7027TIP3    H142716   6.597   1.844   0.202 -1.7117 -0.5494  0.4630
 7027TIP3    H242717   6.726   1.827   0.278 -0.4186 -0.1166 -1.5480
 7028TIP3   OH242718   1.701   3.958   0.476 -0.2041  0.1683 -0.7803
 7028TIP3    H142719   1.790   3.952   0.441  0.1469  0.6964 -0.0072
 7028TIP3    H242720   1.645   3.966   0.399  0.5082  0.7738 -1.2499
 7029TIP3   OH242721   3.767   3.467   1.775 -0.0406  0.1384  0.1626
 7029TIP3    H142722   3.705   3.539   1.763 -1.1926 -0.6567  1.1297
 7029TIP3    H242723   3.838   3.504   1.826  0.3841  1.1005 -1.0702
 7030TIP3   OH242724   2.502   1.619   7.910 -0.1000 -0.0945  0.6154
 7030TIP3    H142725   2.555   1.635   7.832 -0.7960 -1.5597 -0.1966
 7030TIP3    H242726   2.522   1.692   7.969  0.9848  0.6436 -0.6384
 7031TIP3   OH242727   1.872   2.133   1.390  0.3828 -0.3060  0.1888
 7031TIP3    H142728   1.943   2.147   1.453  0.3505  0.7025  0.0053
 7031TIP3    H242729   1.823   2.058   1.426  1.2682 -0.7280  0.5455
 7032TIP3   OH242730   6.716   3.081   0.761  1.1059  0.0040 -0.1710
 7032TIP3    H142731   6.684   3.075   0.851  0.9711  0.6737 -0.1637
 7032TIP3    H242732   6.770   3.160   0.761  3.2006 -1.3511 -0.0602
 7033TIP3   OH242733   5.457   4.988   8.292 -0.2125  0.0568 -0.2042
 7033TIP3    H142734   5.373   4.954   8.323  0.1274  0.0623  0.7493
 7033TIP3    H242735   5.513   4.911   8.284 -0.0471  0.1512  0.0195
 7034TIP3   OH242736   6.836   0.659   0.746 -0.1187  0.3561 -0.8505
 7034TIP3    H142737   6.824   0.571   0.709 -1.5157  0.5684 -0.9698
 7034TIP3    H242738   6.848   0.715   0.670  0.7157  0.2884 -0.7767
 7035TIP3   OH242739   4.040   0.272   0.213 -0.4038 -0.0717 -0.1345
 7035TIP3    H142740   4.125   0.241   0.243 -1.1162 -1.7654  0.2304
 7035TIP3    H242741   4.026   0.355   0.260  0.9920  0.1966 -0.1666
 7036TIP3   OH242742   3.001   4.330   1.695 -0.1625 -0.2376 -0.6763
 7036TIP3    H142743   3.059   4.327   1.771 -1.3549 -0.1476  0.2737
 7036TIP3    H242744   3.023   4.251   1.645  0.5045 -0.4010 -0.1341
 7037TIP3   OH242745   5.245   5.272   0.157 -0.2943  0.1674  0.4356
 7037TIP3    H142746   5.183   5.261   0.085  0.6900  0.5429 -0.5066
 7037TIP3    H242747   5.329   5.241   0.121  0.1822  0.2195  1.4741
 7038TIP3   OH242748   3.564   6.884   2.064 -0.6512  0.0894 -0.1477
 7038TIP3    H142749   3.494   6.835   2.107 -1.5456  1.2790 -0.1995
 7038TIP3    H242750   3.540   6.885   1.971 -0.0915 -0.2286 -0.3082
 7039TIP3   OH242751   5.209   1.899   1.627  0.5850 -0.3497 -0.2119
 7039TIP3    H142752   5.267   1.911   1.701  1.0125 -1.0494 -0.4238
 7039TIP3    H242753   5.237   1.817   1.587 -1.1323 -1.1948  0.2225
 7040TIP3   OH242754   5.230   6.806   0.201  0.1762  0.1549  0.2615
 7040TIP3    H142755   5.257   6.805   0.293 -0.3429 -2.2143  0.4688
 7040TIP3    H242756   5.145   6.850   0.202  0.1979  0.1996  0.9177
 7041TIP3   OH242757   2.241   2.782   1.069  0.8630 -0.3279  0.1736
 7041TIP3    H142758   2.300   2.857   1.082 -0.5626  1.0968 -1.0249
 7041TIP3    H242759   2.270   2.744   0.986  0.2117  0.2962 -0.3524
 7042TIP3   OH242760   6.676   3.981   7.108  0.4913  0.2600  0.4784
 7042TIP3    H142761   6.769   3.957   7.106  0.6681  0.5846  2.3489
 7042TIP3    H242762   6.633   3.915   7.054  1.7328 -0.2794  0.1140
 7043TIP3   OH242763   1.751   0.475   1.988  0.6267 -0.5923 -0.0720
 7043TIP3    H142764   1.798   0.513   1.914  1.6203 -0.0604  0.8005
 7043TIP3    H242765   1.815   0.477   2.060 -0.9634  0.8166  1.3725
 7044TIP3   OH242766   4.632   3.899   2.273  0.5592  0.0307 -0.4522
 7044TIP3    H142767   4.595   3.960   2.337  0.6181 -1.2404  0.8468
 7044TIP3    H242768   4.720   3.933   2.255  0.7146  0.1709  0.5150
 7045TIP3   OH242769   0.600   1.423   0.996 -0.3336  0.5017 -0.0390
 7045TIP3    H142770   0.592   1.519   0.997 -0.4518  0.5031 -0.6793
 7045TIP3    H242771   0.577   1.397   1.085  2.7355  1.2863  1.1048
 7046TIP3   OH242772   0.559   5.423   1.585 -0.0195  0.1767  0.9159
 7046TIP3    H142773   0.515   5.409   1.502  0.1910 -0.9497  0.9788
 7046TIP3    H242774   0.651   5.435   1.561  0.0048  0.1013  0.9725
 7047TIP3   OH242775   1.810   0.049   7.811 -0.5687  0.2086 -0.1913
 7047TIP3    H142776   1.819   0.007   7.725  1.7644  2.9038 -1.4037
 7047TIP3    H242777   1.799  -0.024   7.872  3.3804 -2.3507 -2.0926
 7048TIP3   OH242778   4.035   2.279   7.844  0.0898  0.6064  0.1644
 7048TIP3    H142779   4.049   2.372   7.824 -0.1837  0.7150  0.4548
 7048TIP3    H242780   3.958   2.255   7.793  0.6744  0.3051 -0.5816
 7049TIP3   OH242781   5.816   2.997   8.018  0.0529 -0.4607 -0.1953
 7049TIP3    H142782   5.892   3.010   8.075 -1.8772  1.2561  2.2006
 7049TIP3    H242783   5.789   2.907   8.036 -0.6694  0.1213  1.9359
 7050TIP3   OH242784   1.798   4.486   1.341  0.0268 -0.6731 -0.0959
 7050TIP3    H142785   1.764   4.431   1.411 -1.3633 -0.9260 -0.9425
 7050TIP3    H242786   1.736   4.475   1.269  1.9276 -1.1875 -1.7310
 7051TIP3   OH242787   5.796   1.868   0.869  0.6318 -0.0736 -0.5970
 7051TIP3    H142788   5.754   1.791   0.831 -0.4033  0.1507  0.0471
 7051TIP3    H242789   5.843   1.835   0.946  2.8359 -0.5493 -2.0633
 7052TIP3   OH242790   0.437   1.187   6.816 -0.3738  0.6008  0.0674
 7052TIP3    H142791   0.421   1.120   6.750 -1.3604  0.5135  0.3788
 7052TIP3    H242792   0.532   1.192   6.823 -0.2802 -0.1420 -0.5920
 7053TIP3   OH242793   1.901   0.821   2.449 -0.3307 -0.0483 -0.0661
 7053TIP3    H142794   1.860   0.804   2.364  0.9772  1.4157 -1.0427
 7053TIP3    H242795   1.905   0.736   2.492 -3.6920 -0.4031 -0.1755
 7054TIP3   OH242796   0.582   1.366   1.257 -0.1138  0.5252  0.4985
 7054TIP3    H142797   0.656   1.380   1.316  0.4506  1.2029 -0.3422
 7054TIP3    H242798   0.529   1.445   1.267  0.0796  0.7272 -0.0122
 7055TIP3   OH242799   6.307   4.481   6.916  0.5121 -0.0116  0.3163
 7055TIP3    H142800   6.367   4.482   6.991 -0.3064  2.4886  1.0535
 7055TIP3    H242801   6.221   4.495   6.955 -0.2594 -1.1005 -0.9253
 7056TIP3   OH242802   5.371   2.848   7.193 -0.1249  0.3478  0.5243
 7056TIP3    H142803   5.337   2.759   7.189  1.4195 -0.2513 -0.4136
 7056TIP3    H242804   5.326   2.893   7.121  2.6221 -1.1128 -2.4061
 7057TIP3   OH242805   2.849   1.393   7.836  0.1473 -0.1047 -0.1502
 7057TIP3    H142806   2.894   1.334   7.896 -0.1049  1.0272  1.1809
 7057TIP3    H242807   2.906   1.396   7.759  2.0346  0.7479  1.2111
 7058TIP3   OH242808   5.717   1.526   1.960 -0.2700 -0.6543 -0.3013
 7058TIP3    H142809   5.629   1.562   1.950  0.1749  1.0499  1.3640
 7058TIP3    H242810   5.764   1.592   2.010  2.6966 -0.3627 -3.1186
 7059TIP3   OH242811   0.471   3.197   0.580 -0.3541 -0.3595  0.1338
 7059TIP3    H142812   0.538   3.255   0.616  1.2249 -1.5589 -0.7510
 7059TIP3    H242813   0.424   3.163   0.657 -0.0788  0.6247  0.7496
 7060TIP3   OH242814   1.496   6.201   1.391 -0.3152 -0.2956 -0.1521
 7060TIP3    H142815   1.555   6.150   1.446 -0.3092 -2.6465 -2.1760
 7060TIP3    H242816   1.423   6.142   1.372  0.2850 -0.1410 -3.6437
 7061TIP3   OH242817   0.235   2.799   0.229  0.3292  0.0336  0.1583
 7061TIP3    H142818   0.287   2.849   0.291  0.5710  1.3794 -1.0720
 7061TIP3    H242819   0.279   2.714   0.224  0.8236  0.2191  1.1266
 7062TIP3   OH242820   1.204   0.819   2.674 -0.1641  0.2639 -0.0910
 7062TIP3    H142821   1.122   0.774   2.652 -0.2629 -0.2516  1.2373
 7062TIP3    H242822   1.254   0.756   2.725  0.4307  1.0796  0.3704
 7063TIP3   OH242823   3.735   2.381   2.066 -0.1131  0.7601  0.5230
 7063TIP3    H142824   3.652   2.427   2.054  0.1744  1.4714  1.1003
 7063TIP3    H242825   3.759   2.401   2.157  1.4439  1.8769 -0.0942
 7064TIP3   OH242826   0.136   5.174   2.740  0.5385 -0.6246 -0.6220
 7064TIP3    H142827   0.077   5.221   2.799 -0.6270 -2.1838 -0.4748
 7064TIP3    H242828   0.165   5.098   2.792  1.7790 -0.4969 -1.0974
 7065TIP3   OH242829   0.230   5.892   8.426 -0.3776  0.1576 -0.1689
 7065TIP3    H142830   0.256   5.802   8.406 -0.6926  0.0863 -0.2555
 7065TIP3    H242831   0.193   5.925   8.345  0.3035  0.5733 -0.3161
 7066TIP3   OH242832   4.280   3.837   7.413 -0.0456  0.6032 -0.2943
 7066TIP3    H142833   4.235   3.824   7.496  1.4911 -0.6571  0.3791
 7066TIP3    H242834   4.254   3.763   7.359  0.7565  0.1800 -0.1070
 7067TIP3   OH242835   5.627   6.672   1.629  0.3519 -0.2276  0.3785
 7067TIP3    H142836   5.609   6.752   1.579 -2.0050 -0.5662  0.5496
 7067TIP3    H242837   5.588   6.688   1.715  0.8857 -1.1181  0.8012
 7068TIP3   OH242838   3.663   5.871   1.901 -0.3673  0.0327 -0.1977
 7068TIP3    H142839   3.603   5.869   1.975 -1.0371  0.3571 -0.7193
 7068TIP3    H242840   3.750   5.873   1.941 -0.7288  1.1745  0.6027
 7069TIP3   OH242841   3.374   2.497   1.176 -0.8295  0.2518  0.9534
 7069TIP3    H142842   3.432   2.443   1.229 -2.0982 -1.5751  0.5828
 7069TIP3    H242843   3.287   2.481   1.213 -1.3765  1.2404  0.1515
 7070TIP3   OH242844   4.196   3.915   8.357  0.1488 -0.1496  0.2479
 7070TIP3    H142845   4.208   3.921   8.452 -0.7219 -2.9687  0.6132
 7070TIP3    H242846   4.103   3.929   8.343  0.5972  2.9513 -0.6052
 7071TIP3   OH242847   3.063   2.662   7.572 -0.2670 -0.0930 -0.3208
 7071TIP3    H142848   3.036   2.683   7.483 -0.6500 -3.0803 -1.0350
 7071TIP3    H242849   3.030   2.733   7.625 -0.5402  1.4909 -2.4735
 7072TIP3   OH242850   0.665   1.925   6.771 -0.7126 -0.0611 -0.2003
 7072TIP3    H142851   0.700   1.911   6.682 -0.6078 -0.6142 -0.0770
 7072TIP3    H242852   0.735   1.894   6.829 -1.4064 -1.2304  0.0533
 7073TIP3   OH242853   5.224   0.324   8.616  0.2153  0.8304  0.2640
 7073TIP3    H142854   5.186   0.409   8.640  0.5029  0.9128  0.4271
 7073TIP3    H242855   5.184   0.262   8.676  0.2589  0.9018  0.3678
 7074TIP3   OH242856   4.526   5.830   7.351  0.1010 -0.1092 -0.2512
 7074TIP3    H142857   4.509   5.779   7.272 -0.6593 -0.1498 -0.0698
 7074TIP3    H242858   4.573   5.770   7.409 -0.3342 -0.4410 -0.2372
 7075TIP3   OH242859   3.646   3.247   2.002 -0.1701  0.6112 -0.3531
 7075TIP3    H142860   3.653   3.220   1.911  0.6215 -1.1819  0.1754
 7075TIP3    H242861   3.732   3.228   2.040 -0.7967  0.2733  0.9967
 7076TIP3   OH242862   1.844   0.286   7.964 -0.1508 -0.3347 -0.2474
 7076TIP3    H142863   1.935   0.294   7.936 -0.2509  1.2747 -0.2196
 7076TIP3    H242864   1.816   0.201   7.932  1.3758 -0.8745 -0.2086
 7077TIP3   OH242865   1.712   2.922   0.762  0.6297 -1.1184 -0.3003
 7077TIP3    H142866   1.775   2.917   0.690  0.5141  0.3895 -0.5441
 7077TIP3    H242867   1.766   2.932   0.840  0.7233 -0.7850 -0.4041
 7078TIP3   OH242868   6.350   3.348   8.169  0.4908 -0.1481  0.7303
 7078TIP3    H142869   6.293   3.406   8.118 -0.6507 -1.8581 -0.0230
 7078TIP3    H242870   6.324   3.363   8.260 -0.4063 -0.0939  0.4761
 7079TIP3   OH242871   5.633   3.946   0.371  0.2291  0.1951  0.2981
 7079TIP3    H142872   5.573   3.987   0.432  0.2420  0.1115  0.3671
 7079TIP3    H242873   5.712   3.928   0.422  0.8208  1.5198 -0.1172
 7080TIP3   OH242874   1.547   0.902   7.099  0.0646  0.3914  0.4574
 7080TIP3    H142875   1.614   0.847   7.059  0.1044 -0.5913  1.8490
 7080TIP3    H242876   1.516   0.853   7.174 -3.1493  0.2165 -0.8167
 7081TIP3   OH242877   5.180   4.210   7.038  0.4491 -0.0564  0.3807
 7081TIP3    H142878   5.137   4.227   7.122  0.3600 -1.0108  0.5354
 7081TIP3    H242879   5.264   4.254   7.045 -0.3473  1.5897  0.1876
 7082TIP3   OH242880   3.476   5.771   0.851 -0.3300 -0.1255  0.0006
 7082TIP3    H142881   3.555   5.722   0.877  0.4490  0.6530 -0.8404
 7082TIP3    H242882   3.406   5.732   0.903  1.3326  2.5096  4.8557
 7083TIP3   OH242883   4.309   6.465   0.887 -0.0859  0.2765 -0.0250
 7083TIP3    H142884   4.315   6.489   0.979 -0.3850 -0.5307  0.2121
 7083TIP3    H242885   4.215   6.452   0.872  0.0285 -0.2624 -0.2698
 7084TIP3   OH242886   0.648   3.680   7.259 -0.1420  0.0756 -0.2369
 7084TIP3    H142887   0.655   3.601   7.205  1.6782 -0.1558  0.2754
 7084TIP3    H242888   0.559   3.679   7.292 -0.1302 -1.8293 -0.1657
 7085TIP3   OH242889   4.955   6.877   1.195 -0.0814 -0.1555 -0.5365
 7085TIP3    H142890   4.863   6.851   1.187 -0.5302  0.6887  1.3968
 7085TIP3    H242891   4.987   6.828   1.271  1.3933 -1.2089 -1.7690
 7086TIP3   OH242892   5.454   6.397   0.111 -0.1225 -0.1967 -0.0858
 7086TIP3    H142893   5.487   6.474   0.064  0.5859 -0.9689 -0.8736
 7086TIP3    H242894   5.426   6.431   0.196  2.0845  0.6028  0.3716
 7087TIP3   OH242895   6.407   3.197   7.590 -0.1886  0.0396 -0.1706
 7087TIP3    H142896   6.326   3.217   7.544  0.5403 -1.4650 -2.2503
 7087TIP3    H242897   6.465   3.162   7.522  1.8773  0.1714  1.4342
 7088TIP3   OH242898   2.138   5.625   0.314  0.1874  0.3043  0.4768
 7088TIP3    H142899   2.126   5.602   0.407  1.3931  1.8966  1.0839
 7088TIP3    H242900   2.174   5.714   0.316  2.0202 -0.2974 -1.4244
 7089TIP3   OH242901   2.285   3.541   1.869 -0.1660 -0.2820  0.6608
 7089TIP3    H142902   2.273   3.463   1.924 -0.9233 -0.3835  0.3674
 7089TIP3    H242903   2.197   3.579   1.862 -0.0672 -0.2102 -0.3714
 7090TIP3   OH242904   2.418   6.063   1.922  0.1999 -0.4520  0.3527
 7090TIP3    H142905   2.347   6.044   1.982 -0.2103 -2.3180 -0.6470
 7090TIP3    H242906   2.480   5.991   1.934  0.0150 -0.9740 -1.5515
 7091TIP3   OH242907   2.601   6.887   1.081 -0.1673  0.8469 -0.4804
 7091TIP3    H142908   2.507   6.897   1.064  0.0336  0.1848 -2.2661
 7091TIP3    H242909   2.615   6.792   1.085  0.3821  0.9434 -0.0137
 7092TIP3   OH242910   0.707   1.232   0.485  0.4571  0.0776  1.0515
 7092TIP3    H142911   0.695   1.137   0.493  0.2160  0.0383  0.2835
 7092TIP3    H242912   0.659   1.256   0.406 -1.6321  1.2367  2.5855
 7093TIP3   OH242913   4.729   2.862   0.196  0.5984 -0.2088  0.5589
 7093TIP3    H142914   4.697   2.911   0.121  1.7202  0.2236  0.3516
 7093TIP3    H242915   4.651   2.846   0.249 -0.3666 -1.2438 -1.0816
 7094TIP3   OH242916   3.309   1.150   7.710  0.2474 -0.3569 -0.1072
 7094TIP3    H142917   3.280   1.226   7.659  0.2433 -0.9547 -1.0238
 7094TIP3    H242918   3.269   1.162   7.796  1.7426  1.6392  0.3903
 7095TIP3   OH242919   5.444   5.603   0.199 -0.1326  0.2614 -0.3852
 7095TIP3    H142920   5.536   5.627   0.207  0.4862 -2.3424  1.8065
 7095TIP3    H242921   5.443   5.534   0.133 -0.4697  0.0864 -0.2004
 7096TIP3   OH242922   5.282   4.510   8.623  0.4584  0.5635  0.4017
 7096TIP3    H142923   5.258   4.419   8.604 -0.3268  0.5984  1.1600
 7096TIP3    H242924   5.338   4.504   8.700  1.2931  0.6454 -0.1889
 7097TIP3   OH242925   5.429   0.818   2.653  0.3043  0.3351 -0.3846
 7097TIP3    H142926   5.460   0.897   2.608 -1.8101  1.0824 -0.6419
 7097TIP3    H242927   5.398   0.761   2.583  2.6184 -1.1801 -0.2780
 7098TIP3   OH242928   5.593   4.568   1.808 -0.0101 -0.6524 -0.3479
 7098TIP3    H142929   5.646   4.648   1.805  0.1261 -0.7721 -1.4855
 7098TIP3    H242930   5.503   4.599   1.815  0.0077 -0.3842 -1.2309
 7099TIP3   OH242931   4.531   6.632   8.101  0.0648 -0.3855  0.4904
 7099TIP3    H142932   4.578   6.596   8.176  0.1476 -1.4722 -0.0534
 7099TIP3    H242933   4.600   6.655   8.039 -0.0732 -1.4614 -0.0838
 7100TIP3   OH242934   1.821   6.389   2.447  0.6120  0.3959 -0.1295
 7100TIP3    H142935   1.769   6.455   2.492 -0.5026  0.4387 -1.4344
 7100TIP3    H242936   1.893   6.371   2.507  1.0876  2.9407  0.1791
 7101TIP3   OH242937   0.993   1.771   1.896  0.4161 -0.9563  0.0645
 7101TIP3    H142938   1.008   1.677   1.909  2.5140 -0.8726 -1.3467
 7101TIP3    H242939   0.916   1.776   1.840  0.8445 -1.8845 -0.6209
 7102TIP3   OH242940   0.057   2.634   8.020 -0.2764  0.6542  0.3293
 7102TIP3    H142941   0.111   2.622   7.941 -0.6749  1.1001 -0.0192
 7102TIP3    H242942   0.074   2.556   8.073 -0.4266  0.0681 -0.4549
 7103TIP3   OH242943   5.643   4.390   7.761  0.3019  0.0611 -0.5666
 7103TIP3    H142944   5.677   4.305   7.790 -3.7674 -1.0521  1.7396
 7103TIP3    H242945   5.647   4.385   7.665 -0.9927 -3.4355 -0.6005
 7104TIP3   OH242946   5.964   0.231   6.674 -0.1941 -0.5480 -0.6413
 7104TIP3    H142947   5.917   0.296   6.725  0.1171 -1.5497  1.0066
 7104TIP3    H242948   6.049   0.272   6.656 -0.5527  0.0741 -0.9342
 7105TIP3   OH242949   0.899   1.708   0.249 -0.5029 -0.5524 -0.0596
 7105TIP3    H142950   0.956   1.655   0.192  0.8890 -0.8329  1.4883
 7105TIP3    H242951   0.818   1.657   0.256  0.5547 -2.2256  0.8546
 7106TIP3   OH242952   0.747   3.732   1.909 -0.3839 -0.4552  0.0064
 7106TIP3    H142953   0.738   3.739   2.004  0.7299  1.0897  0.0339
 7106TIP3    H242954   0.708   3.812   1.876  1.7414  0.3741 -0.6241
 7107TIP3   OH242955   1.450   2.104   6.985  0.2363  0.5876 -0.6028
 7107TIP3    H142956   1.480   2.015   6.969  5.3313  1.1989  3.0972
 7107TIP3    H242957   1.494   2.156   6.918  0.3830  0.7017 -0.4163
 7108TIP3   OH242958   2.281   5.723   2.078 -0.1351 -0.1955  0.1694
 7108TIP3    H142959   2.239   5.741   1.994  1.0337 -0.0938 -0.4117
 7108TIP3    H242960   2.251   5.794   2.135 -0.5269  0.0277 -0.3003
 7109TIP3   OH242961   5.393   5.095   2.723  0.0817  0.5852  0.5275
 7109TIP3    H142962   5.425   5.171   2.675  0.1406 -0.4556 -1.1599
 7109TIP3    H242963   5.302   5.084   2.694  0.2453 -0.3068  0.3065
 7110TIP3   OH242964   3.299   1.849   6.992  0.0120 -0.0786  0.1120
 7110TIP3    H142965   3.231   1.916   7.002 -1.4819 -1.6586  0.9535
 7110TIP3    H242966   3.290   1.819   6.902  0.6633  0.8018 -0.2571
 7111TIP3   OH242967   4.422   2.406   8.284 -0.1672 -0.1980 -0.4773
 7111TIP3    H142968   4.399   2.499   8.280 -0.6238 -0.1803  1.4108
 7111TIP3    H242969   4.422   2.377   8.193 -2.3556  1.1099 -0.9799
 7112TIP3   OH242970   1.387   5.022   2.498  0.0586 -0.1069 -0.4212
 7112TIP3    H142971   1.369   5.096   2.440  0.4874 -0.1682 -0.6383
 7112TIP3    H242972   1.419   4.954   2.440  0.5385 -0.1556 -0.1067
 7113TIP3   OH242973   2.391   3.506   7.866  0.2306  0.4750 -0.0741
 7113TIP3    H142974   2.383   3.507   7.961  0.3760 -1.0310 -0.0318
 7113TIP3    H242975   2.484   3.494   7.849  0.0601 -0.5501 -0.3727
 7114TIP3   OH242976   1.822   0.778   1.863  0.1862  0.2056  0.3148
 7114TIP3    H142977   1.827   0.830   1.943 -0.0444 -1.6342  1.5892
 7114TIP3    H242978   1.729   0.754   1.855  0.4173 -0.6803  0.2074
 7115TIP3   OH242979   1.610   3.410   7.810  0.0449  0.7408  0.4797
 7115TIP3    H142980   1.679   3.424   7.745 -1.6842  1.1117 -1.3956
 7115TIP3    H242981   1.623   3.320   7.839  0.1573  0.1095 -1.3562
 7116TIP3   OH242982   4.027   1.508   1.248 -0.1598 -0.4327 -0.3311
 7116TIP3    H142983   4.099   1.449   1.223 -0.0624  0.1473 -1.4687
 7116TIP3    H242984   4.050   1.537   1.337  0.2200 -1.4322 -0.0853
 7117TIP3   OH242985   4.775   4.236   8.499  0.4982  0.1806  0.3101
 7117TIP3    H142986   4.789   4.183   8.577  0.1788 -0.5669 -0.1311
 7117TIP3    H242987   4.681   4.230   8.483  0.5056  0.6372  0.0768
 7118TIP3   OH242988   2.299   5.228   7.456 -0.0388 -0.3187  0.0282
 7118TIP3    H142989   2.264   5.290   7.521 -0.7221  0.2620 -0.8784
 7118TIP3    H242990   2.364   5.178   7.505  1.2827  1.7709  0.5568
 7119TIP3   OH242991   3.847   5.782   7.436 -0.3002  0.6758 -0.1538
 7119TIP3    H142992   3.813   5.845   7.500 -0.8700  0.0426  0.1782
 7119TIP3    H242993   3.940   5.802   7.430  0.4818 -1.1804  3.2115
 7120TIP3   OH242994   5.604   0.920   0.384 -0.0775 -0.9907  0.5139
 7120TIP3    H142995   5.584   0.893   0.294  1.5585 -0.1941 -0.1214
 7120TIP3    H242996   5.653   0.846   0.421 -0.8484 -1.3660  0.8142
 7121TIP3   OH242997   2.191   2.310   1.856 -0.4964  0.1729 -0.3268
 7121TIP3    H142998   2.284   2.294   1.874 -0.3402 -0.4884 -1.5531
 7121TIP3    H242999   2.145   2.245   1.909 -0.1620 -0.4416 -0.7629
 7122TIP3   OH243000   0.757   4.950   2.485  0.1586  0.0767 -0.0073
 7122TIP3    H143001   0.740   5.023   2.544 -0.7932 -0.2309  0.1025
 7122TIP3    H243002   0.712   4.876   2.524  0.4191 -0.3806 -0.5576
 7123TIP3   OH243003   1.844   5.796   1.641 -0.2102 -0.3017 -0.0242
 7123TIP3    H143004   1.930   5.763   1.615  0.4790  1.0481  0.4741
 7123TIP3    H243005   1.797   5.809   1.559  1.1140  1.7057 -0.5090
 7124TIP3   OH243006   1.108   1.662   7.453  0.3884 -0.1692 -0.7660
 7124TIP3    H143007   1.065   1.698   7.531 -1.4509 -2.0702 -0.8166
 7124TIP3    H243008   1.170   1.730   7.427 -1.1966  1.8996  0.4873
 7125TIP3   OH243009   0.507   5.434   7.171 -0.1009  0.1123 -0.3433
 7125TIP3    H143010   0.591   5.478   7.182  0.6738 -1.1122 -1.0572
 7125TIP3    H243011   0.453   5.496   7.122  0.7084  0.5460 -0.7007
 7126TIP3   OH243012   5.176   4.790   8.031 -0.2183 -0.0981  0.0087
 7126TIP3    H143013   5.201   4.697   8.032 -0.5040 -0.1754  0.1497
 7126TIP3    H243014   5.226   4.827   7.958  1.7913  0.1880  1.4548
 7127TIP3   OH243015   1.688   4.487   0.386  0.0268  0.0591 -0.4393
 7127TIP3    H143016   1.634   4.419   0.345  0.5333 -1.7103  1.6743
 7127TIP3    H243017   1.751   4.511   0.318  0.3214 -2.1730 -1.0318
 7128TIP3   OH243018   3.626   2.761   8.198 -0.1291 -0.4737 -0.3083
 7128TIP3    H143019   3.637   2.841   8.146 -0.3429 -0.5607 -0.4911
 7128TIP3    H243020   3.703   2.708   8.177 -0.1739 -0.4736 -0.4788
 7129TIP3   OH243021   6.583   4.989   1.179 -0.0198  0.0755  0.6696
 7129TIP3    H143022   6.661   4.967   1.128  1.2236  2.7611  1.2526
 7129TIP3    H243023   6.617   5.033   1.257 -2.1006  2.3913  0.4035
 7130TIP3   OH243024   4.498   3.276   2.479 -0.3928 -0.4288 -0.1595
 7130TIP3    H143025   4.462   3.195   2.444 -0.0481 -0.8706  0.4904
 7130TIP3    H243026   4.476   3.342   2.413 -0.3120 -1.1174 -0.8972
 7131TIP3   OH243027   5.886   3.805   6.888  0.6226  0.4259 -0.0833
 7131TIP3    H143028   5.964   3.803   6.833 -0.4355 -2.0662 -1.6727
 7131TIP3    H243029   5.897   3.732   6.949  0.3728  1.2545  0.9901
 7132TIP3   OH243030   5.254   1.349   1.179  0.0398  0.2525 -0.2414
 7132TIP3    H143031   5.178   1.336   1.122 -0.7441  0.8483  0.6341
 7132TIP3    H243032   5.241   1.288   1.251  0.3086  0.4683 -0.0078
 7133TIP3   OH243033   5.901   2.700   2.081 -0.2169  0.0924  0.8734
 7133TIP3    H143034   5.853   2.780   2.103 -1.3138 -0.3760  0.2401
 7133TIP3    H243035   5.907   2.702   1.985  2.8794  1.1891  0.9816
 7134TIP3   OH243036   4.118   3.057   7.085  0.2487  0.2225 -0.1779
 7134TIP3    H143037   4.068   3.003   7.025 -0.1716  1.1355 -0.6678
 7134TIP3    H243038   4.055   3.084   7.152  0.4924 -0.0146  0.1509
 7135TIP3   OH243039   0.789   1.454   1.475 -0.5682  0.1386  0.0344
 7135TIP3    H143040   0.741   1.381   1.515 -0.7306  1.1233  1.7504
 7135TIP3    H243041   0.727   1.526   1.473  0.1005  0.7259 -0.0134
 7136TIP3   OH243042   2.014   2.637   0.099 -0.0310 -0.4395  0.2620
 7136TIP3    H143043   2.016   2.671   0.009 -1.2830  0.1243  0.4276
 7136TIP3    H243044   2.106   2.629   0.123  0.3231 -0.1525 -0.9053
 7137TIP3   OH243045   3.728   4.485   8.232  0.2693  0.0645  0.5320
 7137TIP3    H143046   3.714   4.574   8.199 -2.6206 -0.3137  0.5136
 7137TIP3    H243047   3.737   4.496   8.327  3.7848  0.6586  0.2646
 7138TIP3   OH243048   2.379   2.457   8.337 -0.1599  0.0555 -0.0673
 7138TIP3    H143049   2.382   2.378   8.284 -0.9834 -0.5573  0.7625
 7138TIP3    H243050   2.343   2.524   8.279 -0.4428 -0.4383 -0.4698
 7139TIP3   OH243051   4.810   2.236   8.183  0.3118 -0.3922  0.3930
 7139TIP3    H143052   4.814   2.253   8.277 -2.3955 -1.4936  0.8115
 7139TIP3    H243053   4.849   2.150   8.172  1.2106  0.0069  0.3837
 7140TIP3   OH243054   1.554   4.970   6.887  0.2019 -0.2350  0.3544
 7140TIP3    H143055   1.623   5.036   6.896  2.1961 -1.5641 -3.0562
 7140TIP3    H243056   1.480   5.006   6.934  2.5879  2.2137  2.5878
 7141TIP3   OH243057   6.355   4.455   7.605 -0.7050 -0.0404 -0.2699
 7141TIP3    H143058   6.358   4.421   7.695 -1.9994 -0.3795 -0.3259
 7141TIP3    H243059   6.263   4.479   7.593 -0.5331  0.0278 -1.4947
 7142TIP3   OH243060   4.466   1.290   2.570 -0.1207 -0.7165 -0.0898
 7142TIP3    H143061   4.529   1.335   2.514 -0.6047 -1.5291 -1.3128
 7142TIP3    H243062   4.520   1.247   2.636  0.7468 -2.2296 -1.7071
 7143TIP3   OH243063   1.090   4.141   0.269  0.0388 -0.5120 -0.6745
 7143TIP3    H143064   1.115   4.074   0.206  1.2841 -1.0881  0.3890
 7143TIP3    H243065   1.096   4.223   0.219  2.1639 -0.8244 -1.0360
 7144TIP3   OH243066   3.880   6.705   1.802 -0.0225 -0.1767 -0.8296
 7144TIP3    H143067   3.920   6.780   1.758  0.9029  0.7401  1.4275
 7144TIP3    H243068   3.888   6.725   1.895 -2.1459 -1.8846 -0.2084
 7145TIP3   OH243069   4.585   0.393   0.861 -0.0689  0.3003  0.2127
 7145TIP3    H143070   4.523   0.459   0.891  0.7065  0.1449  2.3043
 7145TIP3    H243071   4.624   0.359   0.941  0.3695 -1.9112 -0.8649
 7146TIP3   OH243072   6.663   2.614   8.350  0.0902 -0.5552 -0.5997
 7146TIP3    H143073   6.642   2.681   8.284  2.3860 -0.9878 -1.8549
 7146TIP3    H243074   6.758   2.605   8.346  0.1763 -1.5147  1.9409
 7147TIP3   OH243075   5.238   1.349   7.013  0.1147  0.1211 -0.6053
 7147TIP3    H143076   5.275   1.277   7.064  1.2189  0.7511 -0.4730
 7147TIP3    H243077   5.272   1.428   7.056 -1.1681  0.7261 -0.6704
 7148TIP3   OH243078   0.109   1.156   6.759  0.0031 -0.1130  0.3785
 7148TIP3    H143079   0.159   1.078   6.783 -0.4646 -0.2529  0.9323
 7148TIP3    H243080   0.118   1.214   6.834 -1.4290 -0.5278  0.9076
 7149TIP3   OH243081   5.764   5.378   0.696 -0.2356 -0.2840 -0.0785
 7149TIP3    H143082   5.756   5.356   0.603  0.1524  2.1436 -0.7424
 7149TIP3    H243083   5.850   5.420   0.703  0.2745 -1.4833  1.6599
 7150TIP3   OH243084   6.294   3.712   1.767 -0.3933  0.0346 -0.5308
 7150TIP3    H143085   6.351   3.777   1.807  0.0283 -0.5898 -0.1049
 7150TIP3    H243086   6.314   3.630   1.813  1.2157 -1.0720 -2.9967
 7151TIP3   OH243087   0.897   2.975   0.788 -0.3420  0.1955  0.2599
 7151TIP3    H143088   0.909   3.007   0.698 -0.7457  0.3204  0.2477
 7151TIP3    H243089   0.965   2.909   0.799 -0.7897 -0.3995 -0.4186
 7152TIP3   OH243090   5.497   2.388   6.906  0.2278  0.3693  0.7009
 7152TIP3    H143091   5.591   2.379   6.889 -0.0221  2.0971 -2.4270
 7152TIP3    H243092   5.485   2.481   6.929 -0.9029  0.7259 -1.1261
 7153TIP3   OH243093   2.497   3.399   8.365  1.0073 -0.0981 -0.2654
 7153TIP3    H143094   2.573   3.386   8.422  1.1195  1.5975  0.0312
 7153TIP3    H243095   2.458   3.312   8.357  2.2849 -0.7833  0.5585
 7154TIP3   OH243096   2.385   4.680   6.854 -0.3400 -0.0285  0.5151
 7154TIP3    H143097   2.335   4.734   6.792 -0.7831 -0.1054  0.7977
 7154TIP3    H243098   2.443   4.628   6.800 -1.6865 -1.1064  0.0384
 7155TIP3   OH243099   1.349   0.067   8.507 -0.1875  0.0713  0.4418
 7155TIP3    H143100   1.297   0.134   8.461 -0.5658 -1.4848 -1.5265
 7155TIP3    H243101   1.288  -0.004   8.523  0.7100 -0.6903  0.5525
 7156TIP3   OH243102   2.642   5.008   8.294  0.4069  0.4440 -0.0172
 7156TIP3    H143103   2.552   5.039   8.308 -0.2948 -0.9978 -1.0985
 7156TIP3    H243104   2.652   5.007   8.199  1.3627  0.0094  0.0805
 7157TIP3   OH243105   1.848   1.587   2.063  0.2467 -0.4597 -0.5301
 7157TIP3    H143106   1.927   1.639   2.076 -0.4326  0.5320 -0.1356
 7157TIP3    H243107   1.838   1.537   2.143 -0.3704  0.6386  0.1079
 7158TIP3   OH243108   4.490   1.175   0.769  0.3008  0.0964  0.3878
 7158TIP3    H143109   4.458   1.215   0.688  2.2966  0.0320 -0.5000
 7158TIP3    H243110   4.462   1.084   0.763  0.5752  0.0507 -0.3180
 7159TIP3   OH243111   2.053   3.356   8.381  0.6070  0.0663 -0.6574
 7159TIP3    H143112   2.132   3.362   8.435  1.0071  0.2419 -1.2589
 7159TIP3    H243113   2.039   3.262   8.370  0.3710  0.0201 -0.0402
 7160TIP3   OH243114   5.041   3.731   7.441  0.4961 -0.2339  0.1883
 7160TIP3    H143115   5.044   3.644   7.401  0.0874  0.2991 -1.0684
 7160TIP3    H243116   5.010   3.715   7.530  0.4300 -1.3800 -0.0191
 7161TIP3   OH243117   5.225   4.965   1.234  0.1041  0.4785 -0.1246
 7161TIP3    H143118   5.285   5.008   1.173 -0.0684 -0.3488 -0.8910
 7161TIP3    H243119   5.280   4.901   1.280  0.1278  0.7651  0.2557
 7162TIP3   OH243120   2.218   1.012   7.334  0.3783 -0.7647  0.4580
 7162TIP3    H143121   2.219   1.062   7.252  0.2051  1.1274  1.5598
 7162TIP3    H243122   2.150   1.054   7.387  1.5075 -0.9689  2.1352
 7163TIP3   OH243123   0.225   3.728   2.130  0.4414 -0.0348  0.8252
 7163TIP3    H143124   0.241   3.813   2.170 -2.0583  0.6203  0.5654
 7163TIP3    H243125   0.130   3.721   2.123  0.6360 -1.5247 -1.9738
 7164TIP3   OH243126   5.464   2.974   0.263 -0.2437  0.9686 -0.0503
 7164TIP3    H143127   5.461   2.932   0.177 -1.6364  1.0292 -0.0627
 7164TIP3    H243128   5.522   2.919   0.315  0.4322  0.8011 -0.9605
 7165TIP3   OH243129   2.191   5.903   1.684  0.3033 -0.2548 -0.2422
 7165TIP3    H143130   2.170   5.822   1.637 -1.5858  0.9708 -1.6457
 7165TIP3    H243131   2.167   5.884   1.775 -1.1764 -0.9252 -0.7426
 7166TIP3   OH243132   0.521   0.307   2.759 -0.2476  0.1163  0.5237
 7166TIP3    H143133   0.487   0.382   2.807  0.9378  1.6496 -0.9504
 7166TIP3    H243134   0.571   0.344   2.687 -0.8291 -2.0800 -1.1416
 7167TIP3   OH243135   1.995   2.956   1.572  0.1644  0.3264 -0.1197
 7167TIP3    H143136   2.085   2.975   1.600  0.1007 -0.3557  0.5951
 7167TIP3    H243137   2.003   2.934   1.479  0.9373 -0.9153  0.2110
 7168TIP3   OH243138   3.873   2.682   1.256 -0.0596  0.1569 -0.1921
 7168TIP3    H143139   3.942   2.739   1.290 -0.0079  1.6240 -2.5386
 7168TIP3    H243140   3.802   2.689   1.320  0.9271  0.7863  0.8720
 7169TIP3   OH243141   2.716   6.039   8.187 -0.1234 -0.8187 -0.0672
 7169TIP3    H143142   2.643   5.978   8.178 -1.7993  0.8280  1.3735
 7169TIP3    H243143   2.675   6.126   8.181  2.0679  0.2003 -1.4076
 7170TIP3   OH243144   4.483   1.606   1.033 -0.0601  0.0517  0.6213
 7170TIP3    H143145   4.556   1.667   1.046  1.5348 -1.4210 -0.8684
 7170TIP3    H243146   4.437   1.639   0.957  1.8531 -1.4098 -1.3003
 7171TIP3   OH243147   4.995   2.737   1.129  0.4608 -0.1284  0.1261
 7171TIP3    H143148   4.982   2.648   1.096 -0.0900 -0.1877  0.4952
 7171TIP3    H243149   4.983   2.792   1.051  1.0716 -0.3842 -0.1609
 7172TIP3   OH243150   5.708   5.952   7.921  0.6759 -0.4371  0.2577
 7172TIP3    H143151   5.707   5.866   7.963 -1.4242 -0.4594  0.2723
 7172TIP3    H243152   5.634   5.951   7.861  0.7695  1.2713  0.0477
 7173TIP3   OH243153   1.503   6.784   0.513 -0.0193  0.7602 -0.0521
 7173TIP3    H143154   1.528   6.804   0.603 -1.1796  2.6699 -0.0947
 7173TIP3    H243155   1.526   6.863   0.464  0.4569 -0.1863 -1.4370
 7174TIP3   OH243156   3.978   3.137   1.356  0.0821 -0.0078 -0.7762
 7174TIP3    H143157   3.967   3.043   1.371  0.8771  0.0584  0.2879
 7174TIP3    H243158   3.889   3.171   1.350 -0.2545 -0.4970  1.0498
 7175TIP3   OH243159   4.264   6.618   8.135 -0.0109 -0.2106  0.4370
 7175TIP3    H143160   4.359   6.617   8.150  0.2953 -0.3760 -1.3308
 7175TIP3    H243161   4.245   6.707   8.106 -0.2200 -0.4357 -0.1420
 7176TIP3   OH243162   1.902   0.725   0.011 -0.7701  0.0571 -0.4744
 7176TIP3    H143163   1.997   0.725  -0.004 -0.2247  0.0742  2.2745
 7176TIP3    H243164   1.878   0.817   0.007 -0.3296  0.2219  0.3251
 7177LIG     O143165   4.406   4.783   5.825 -0.2895 -0.5079 -0.3681
 7177LIG     O243166   4.333   4.718   6.278  0.1175 -0.7757  0.7178
 7177LIG     N143167   4.149   4.784   6.153 -0.3223 -0.2671  0.0381
 7177LIG     N243168   4.103   4.835   5.805  0.1722  0.2719 -0.5172
 7177LIG     N343169   4.371   4.758   6.050  0.0669 -0.4362 -0.4802
 7177LIG     N443170   3.978   4.834   5.996 -0.4641 -0.0371  0.0335
 7177LIG     C143171   4.186   4.809   5.910 -0.5811 -0.1665  0.0824
 7177LIG     C243172   4.105   4.805   6.023  0.8271  0.4929 -0.1959
 7177LIG     C343173   4.328   4.785   5.919  1.0275  0.1134  0.0442
 7177LIG     C443174   4.289   4.752   6.167  0.7000 -0.2147 -0.3571
 7177LIG     C543175   3.977   4.843   5.864 -0.6781 -0.5075 -0.1562
 7177LIG     C643176   4.067   4.770   6.277  0.0495 -0.1180  0.3806
 7177LIG     C743177   4.122   4.842   5.664 -0.5048  0.1523  0.2375
 7177LIG     C843178   4.509   4.727   6.066  0.2938 -0.0057  0.1819
 7177LIG     H143179   3.887   4.849   5.803  0.4077  2.1401 -1.6302
 7177LIG     H243180   4.082   4.673   6.329 -0.3177 -1.4191 -1.8090
 7177LIG     H343181   3.958   4.766   6.256 -0.0287 -0.1330  0.7770
 7177LIG     H443182   4.096   4.854   6.343  1.6978  0.3791 -0.9204
 7177LIG     H543183   4.170   4.938   5.636 -1.4418  0.3778 -0.6577
 7177LIG     H643184   4.024   4.848   5.612 -0.2340  2.7054 -0.0962
 7177LIG     H743185   4.188   4.761   5.626 -1.7418 -0.8284  0.1045
 7177LIG     H843186   4.586   4.758   5.992  0.4501 -0.3095  0.2136
 7177LIG     H943187   4.523   4.617   6.064  2.0692  0.1865  0.4887
 7177LIG    H1043188   4.538   4.761   6.167  0.1845  0.8838 -0.0822
   6.91106   6.91106   8.67151
