Title
43170
    1CHL1    C3    1   0.809   0.254   5.525 -0.6516 -0.8006 -0.6618
    1CHL1    H3    2   0.909   0.232   5.482  0.1551  1.6642 -0.1904
    1CHL1    O3    3   0.812   0.267   5.667  0.5828  0.0653  0.4239
    1CHL1   H3'    4   0.734   0.318   5.689 -1.6417 -1.8864 -2.1700
    1CHL1    C4    5   0.773   0.387   5.457 -0.3568 -0.3196  0.1198
    1CHL1   H4A    6   0.680   0.437   5.494 -0.2925 -1.6772  2.2927
    1CHL1   H4B    7   0.853   0.459   5.484  1.0819 -1.4747 -0.9110
    1CHL1    C5    8   0.760   0.364   5.305 -0.8973 -0.2632  0.5587
    1CHL1    C6    9   0.836   0.428   5.213 -0.2271 -0.4033 -0.0828
    1CHL1    H6   10   0.903   0.510   5.243 -1.9773  0.5794  1.3343
    1CHL1    C7   11   0.839   0.407   5.062  0.2513 -0.6050 -0.3286
    1CHL1   H7A   12   0.826   0.500   5.004 -0.1934 -0.6360 -0.2825
    1CHL1   H7B   13   0.933   0.353   5.038  1.7923  1.5157  0.5906
    1CHL1    C8   14   0.714   0.329   5.018  0.0362 -0.3322  0.3317
    1CHL1    H8   15   0.628   0.399   5.030 -0.1714 -0.5513  0.1332
    1CHL1   C14   16   0.727   0.277   4.879 -0.2027 -0.6049 -0.6911
    1CHL1   H14   17   0.808   0.201   4.881 -1.5949 -2.1417 -0.2868
    1CHL1   C15   18   0.753   0.389   4.773  1.0330 -0.0359  0.1120
    1CHL1  H15A   19   0.684   0.473   4.792  0.2326 -0.0420 -2.3506
    1CHL1  H15B   20   0.855   0.427   4.792  1.5108 -1.1128 -0.2253
    1CHL1   C16   21   0.723   0.318   4.638  0.2599  0.5214 -1.2519
    1CHL1  H16A   22   0.668   0.396   4.581 -0.8935  1.2596  0.7464
    1CHL1  H16B   23   0.816   0.283   4.589  1.7184  1.7875  0.4732
    1CHL1   C17   24   0.638   0.191   4.673  0.5939 -0.3872 -0.5171
    1CHL1   H17   25   0.708   0.106   4.659 -0.7935 -1.6477 -0.0539
    1CHL1   C13   26   0.608   0.195   4.827  0.9201 -0.0359 -0.2864
    1CHL1   C18   27   0.473   0.262   4.846  0.5723 -0.7872  0.2815
    1CHL1  H18A   28   0.393   0.190   4.820 -2.0488  2.1160 -0.2193
    1CHL1  H18B   29   0.444   0.296   4.948  0.8519  2.5872 -0.6292
    1CHL1  H18C   30   0.470   0.352   4.782  2.2305 -0.1636  0.9951
    1CHL1   C12   31   0.611   0.061   4.909 -0.1560  0.3004 -0.5189
    1CHL1  H12A   32   0.525  -0.004   4.881  0.4397 -1.3123  1.1945
    1CHL1  H12B   33   0.697   0.002   4.872 -0.0792  0.6013 -0.8335
    1CHL1   C11   34   0.599   0.091   5.061  0.2631  0.4111  0.1099
    1CHL1  H11A   35   0.495   0.131   5.066  0.1767  0.7920 -2.8603
    1CHL1  H11B   36   0.605  -0.002   5.121  0.1337 -0.5155 -1.2667
    1CHL1    C9   37   0.698   0.204   5.110 -0.5132  0.2877  0.0210
    1CHL1    H9   38   0.794   0.148   5.106  0.1073  1.3779 -0.9928
    1CHL1   C10   39   0.680   0.236   5.262  1.0295 -0.4359  0.0442
    1CHL1   C19   40   0.528   0.271   5.288  0.1436 -0.0646 -0.2814
    1CHL1  H19A   41   0.503   0.305   5.391 -0.8395 -0.0275 -0.5205
    1CHL1  H19B   42   0.490   0.350   5.221  0.5751  0.2128 -0.1983
    1CHL1  H19C   43   0.462   0.183   5.271 -0.6399  0.3238  0.6292
    1CHL1    C1   44   0.729   0.107   5.343  0.0069  0.4732  0.1632
    1CHL1   H1A   45   0.671   0.012   5.330 -0.1417  0.5018  0.6074
    1CHL1   H1B   46   0.827   0.072   5.304 -0.9818 -2.2579 -0.1050
    1CHL1    C2   47   0.724   0.134   5.493 -0.2918  0.3043  0.3368
    1CHL1   H2A   48   0.751   0.043   5.550 -1.5578 -0.6922 -0.5749
    1CHL1   H2B   49   0.620   0.149   5.530 -1.1599 -2.1172 -0.8696
    1CHL1   C20   50   0.520   0.157   4.577 -0.4049  0.3790 -0.5974
    1CHL1   H20   51   0.445   0.235   4.603 -1.5171 -0.7938 -0.1898
    1CHL1   C21   52   0.457   0.020   4.607  0.2818  0.2291 -0.6092
    1CHL1  H21A   53   0.403   0.030   4.703 -2.4327 -1.1269 -1.8573
    1CHL1  H21B   54   0.530  -0.064   4.601  1.0434  0.9502 -1.8354
    1CHL1  H21C   55   0.380  -0.004   4.530  0.1750 -1.3103 -0.0641
    1CHL1   C22   56   0.577   0.161   4.433 -0.7200  0.1343 -0.4854
    1CHL1  H22A   57   0.636   0.254   4.417  0.1413 -0.2176  0.5037
    1CHL1  H22B   58   0.668   0.097   4.423  0.8396  2.3131 -0.9505
    1CHL1   C23   59   0.483   0.157   4.305 -0.0142  0.3709  0.1494
    1CHL1  H23A   60   0.553   0.161   4.220  0.1314 -1.5358  0.1408
    1CHL1  H23B   61   0.434   0.057   4.307  0.9005 -0.0830  0.5076
    1CHL1   C24   62   0.394   0.277   4.314 -0.4177  0.3114 -0.7416
    1CHL1  H24A   63   0.329   0.261   4.402  1.6690 -1.6022  0.5713
    1CHL1  H24B   64   0.460   0.364   4.337  1.2024 -0.7893 -1.0490
    1CHL1   C25   65   0.309   0.317   4.194  1.4914 -0.8294 -0.7317
    1CHL1   H25   66   0.234   0.237   4.176  0.0357  0.3061  0.0967
    1CHL1   C26   67   0.223   0.445   4.220  0.8330 -0.1078  0.6348
    1CHL1  H26A   68   0.173   0.443   4.319  2.0869 -0.2663  1.2869
    1CHL1  H26B   69   0.285   0.537   4.212 -1.7277  1.7937  1.3486
    1CHL1  H26C   70   0.150   0.450   4.136  1.7150 -0.6895 -0.1915
    1CHL1   C27   71   0.386   0.330   4.062 -0.1443 -0.2038 -0.0668
    1CHL1  H27A   72   0.310   0.343   3.982 -0.5466 -0.9480  0.1844
    1CHL1  H27B   73   0.433   0.429   4.077 -0.1712 -0.4157  1.5797
    1CHL1  H27C   74   0.452   0.247   4.027 -0.6919  0.1342 -2.0198
    2CHL1    C3   75   1.774   1.337   5.610  0.0139 -0.4057 -0.1109
    2CHL1    H3   76   1.700   1.255   5.620 -2.7253  1.8561 -0.5357
    2CHL1    O3   77   1.776   1.407   5.735 -0.1433 -0.1587 -0.0112
    2CHL1   H3'   78   1.856   1.373   5.774 -0.9711 -0.2303  1.7193
    2CHL1    C4   79   1.914   1.290   5.576 -0.0647 -0.4614 -0.0531
    2CHL1   H4A   80   1.986   1.371   5.599 -1.3427  0.5934  0.3338
    2CHL1   H4B   81   1.937   1.216   5.655 -0.5160  2.0822  2.6061
    2CHL1    C5   82   1.926   1.235   5.432 -0.1069 -0.0417 -0.2842
    2CHL1    C6   83   1.973   1.106   5.413 -0.1079  0.1463 -0.8701
    2CHL1    H6   84   2.000   1.044   5.500  1.0460  1.4583 -0.2470
    2CHL1    C7   85   2.002   1.059   5.273 -0.4853 -0.4589 -0.1085
    2CHL1   H7A   86   2.098   1.004   5.278 -0.7586 -0.8933  0.7199
    2CHL1   H7B   87   1.930   0.981   5.241  0.8328 -0.5497 -3.1656
    2CHL1    C8   88   2.004   1.169   5.159  0.0884  0.0614 -0.1620
    2CHL1    H8   89   2.102   1.221   5.157 -0.2261  0.6807  0.1332
    2CHL1   C14   90   1.988   1.110   5.015  0.1533 -0.9471  0.3820
    2CHL1   H14   91   1.892   1.054   5.015  0.0093 -0.7063  0.9799
    2CHL1   C15   92   2.099   1.015   4.964 -0.5661 -0.1792 -0.3331
    2CHL1  H15A   93   2.201   1.055   4.981 -1.3720  1.2192  1.5336
    2CHL1  H15B   94   2.086   0.916   5.013 -1.5045 -0.0857 -0.3725
    2CHL1   C16   95   2.082   1.003   4.816 -0.4586  0.0303  0.8883
    2CHL1  H16A   96   2.171   1.041   4.762 -0.9340 -0.0857  0.0180
    2CHL1  H16B   97   2.070   0.901   4.774 -0.8749 -0.2268  1.6009
    2CHL1   C17   98   1.968   1.105   4.774 -0.6444  0.1076  0.0326
    2CHL1   H17   99   1.867   1.058   4.781 -1.8293  2.6783  1.8551
    2CHL1   C13  100   1.972   1.206   4.888  0.5275  0.2309 -0.0663
    2CHL1   C18  101   2.097   1.300   4.875  0.0220 -0.5838 -0.6324
    2CHL1  H18A  102   2.083   1.375   4.795  0.8233 -0.4759 -0.6788
    2CHL1  H18B  103   2.117   1.369   4.960  0.4708 -3.4091  1.7167
    2CHL1  H18C  104   2.189   1.246   4.844  1.0810  1.1670 -0.6316
    2CHL1   C12  105   1.844   1.287   4.915 -0.7516 -0.0506  0.2313
    2CHL1  H12A  106   1.832   1.371   4.844 -4.1259  0.8720  1.6758
    2CHL1  H12B  107   1.754   1.224   4.898 -0.2949 -0.3713 -1.0907
    2CHL1   C11  108   1.860   1.353   5.054  0.5170 -0.4922  0.7037
    2CHL1  H11A  109   1.933   1.437   5.044 -0.1025 -0.2308 -2.8536
    2CHL1  H11B  110   1.766   1.412   5.063  0.0693 -0.5989 -2.3227
    2CHL1    C9  111   1.882   1.260   5.179 -0.2271 -0.2219  0.6540
    2CHL1    H9  112   1.791   1.196   5.184 -1.4798  1.3033 -1.2203
    2CHL1   C10  113   1.886   1.327   5.320  0.6501 -0.6314  0.0553
    2CHL1   C19  114   1.987   1.447   5.315  0.1996  0.8694 -0.6425
    2CHL1  H19A  115   1.993   1.506   5.409 -1.4324  0.2448 -0.1160
    2CHL1  H19B  116   2.091   1.410   5.302  0.8072  1.9941  0.7644
    2CHL1  H19C  117   1.959   1.520   5.236 -0.2256  0.3074 -1.0200
    2CHL1    C1  118   1.739   1.374   5.358 -0.1686  0.3111 -0.1476
    2CHL1   H1A  119   1.708   1.453   5.286 -1.5943 -1.4847 -1.5811
    2CHL1   H1B  120   1.673   1.285   5.348  1.6391 -0.9555 -1.5165
    2CHL1    C2  121   1.729   1.439   5.503  0.1280 -0.1414  0.2557
    2CHL1   H2A  122   1.627   1.484   5.512 -0.1540 -0.8601  0.7823
    2CHL1   H2B  123   1.798   1.526   5.510  1.8937 -1.5588  1.2938
    2CHL1   C20  124   1.977   1.153   4.624  0.4032 -0.7887 -0.5024
    2CHL1   H20  125   2.065   1.220   4.610  0.1575 -0.6782 -1.6424
    2CHL1   C21  126   1.852   1.247   4.582 -0.4523 -0.3353  0.4899
    2CHL1  H21A  127   1.875   1.344   4.631 -0.7407 -0.2471  0.4548
    2CHL1  H21B  128   1.765   1.198   4.631  1.0684 -0.8262  2.8505
    2CHL1  H21C  129   1.841   1.251   4.471 -0.4285  1.6692  0.5218
    2CHL1   C22  130   1.992   1.039   4.526  0.0136 -0.2088 -0.1014
    2CHL1  H22A  131   2.015   1.086   4.428  2.7278  1.5369  1.2190
    2CHL1  H22B  132   2.089   0.987   4.543 -0.6180 -2.4461 -2.6787
    2CHL1   C23  133   1.886   0.935   4.526 -0.1086  0.1895  0.3155
    2CHL1  H23A  134   1.863   0.894   4.626  0.2893  1.1691  0.8228
    2CHL1  H23B  135   1.788   0.975   4.494 -0.0978 -0.8122 -1.0422
    2CHL1   C24  136   1.922   0.825   4.423  0.2393 -0.1243  0.0966
    2CHL1  H24A  137   2.029   0.801   4.437  1.0820  2.7163 -0.8490
    2CHL1  H24B  138   1.859   0.734   4.438  0.6772 -0.4160  0.1731
    2CHL1   C25  139   1.907   0.867   4.270  0.6609  0.1889 -0.3524
    2CHL1   H25  140   1.927   0.976   4.275  0.3605  0.3300 -1.7717
    2CHL1   C26  141   2.003   0.804   4.175  0.1188 -0.6428 -0.2200
    2CHL1  H26A  142   1.995   0.841   4.070  0.4180 -1.7569 -0.6568
    2CHL1  H26B  143   2.105   0.821   4.217 -0.1065  0.4557 -0.0894
    2CHL1  H26C  144   1.979   0.696   4.166 -1.2732 -0.2483 -1.6749
    2CHL1   C27  145   1.761   0.839   4.214 -0.0866 -0.2451 -0.2989
    2CHL1  H27A  146   1.725   0.739   4.245  2.1613 -0.5243  1.7173
    2CHL1  H27B  147   1.691   0.917   4.251 -0.5646 -0.5321 -0.5837
    2CHL1  H27C  148   1.758   0.852   4.104 -0.7800  1.8449 -0.0765
    3CHL1    C3  149   1.937   0.755   5.762  0.1058 -0.3277  0.4309
    3CHL1    H3  150   1.845   0.809   5.732 -0.7102  0.0997  3.3778
    3CHL1    O3  151   1.952   0.786   5.897 -0.4965  0.2123 -0.4132
    3CHL1   H3'  152   2.007   0.716   5.932 -0.1258  0.2450 -0.9087
    3CHL1    C4  153   1.941   0.602   5.746  0.5967  0.6003 -0.3686
    3CHL1   H4A  154   2.040   0.576   5.789  0.6127 -0.0407 -0.7752
    3CHL1   H4B  155   1.865   0.556   5.812  1.0013 -1.2607 -1.1255
    3CHL1    C5  156   1.919   0.564   5.600 -0.3315  0.7644  0.3559
    3CHL1    C6  157   1.814   0.495   5.558  0.7471  0.2108 -0.2435
    3CHL1    H6  158   1.745   0.461   5.637 -1.0115  1.3392 -1.2236
    3CHL1    C7  159   1.783   0.441   5.421 -0.4888 -0.0613  0.6366
    3CHL1   H7A  160   1.760   0.332   5.418  1.5603 -0.5298 -0.0803
    3CHL1   H7B  161   1.695   0.496   5.381 -1.3046 -1.8986 -0.2224
    3CHL1    C8  162   1.900   0.472   5.320 -0.4177  0.3599 -0.0186
    3CHL1    H8  163   1.971   0.387   5.333 -0.1847  0.7176  1.1856
    3CHL1   C14  164   1.850   0.489   5.185  0.5714  0.4929 -0.3609
    3CHL1   H14  165   1.788   0.581   5.175  0.3502  0.6451  1.8670
    3CHL1   C15  166   1.752   0.383   5.134  0.1382  0.2021 -0.1462
    3CHL1  H15A  167   1.779   0.281   5.168 -1.4492 -0.0281  0.5030
    3CHL1  H15B  168   1.648   0.413   5.158  0.1351  0.9030 -0.9636
    3CHL1   C16  169   1.765   0.387   4.982 -0.1269 -0.7569 -0.2275
    3CHL1  H16A  170   1.807   0.291   4.945  2.7125  0.0115  0.7470
    3CHL1  H16B  171   1.666   0.408   4.938  1.5959  2.9876 -2.9286
    3CHL1   C17  172   1.870   0.493   4.946  0.0701 -0.3462 -0.0657
    3CHL1   H17  173   1.816   0.590   4.950 -1.4730 -0.9950 -2.8246
    3CHL1   C13  174   1.957   0.497   5.078  0.2211 -0.2795  0.0582
    3CHL1   C18  175   2.049   0.371   5.077  0.0340 -0.2136 -0.1756
    3CHL1  H18A  176   2.127   0.381   4.999 -0.5396  1.5657 -0.5669
    3CHL1  H18B  177   2.097   0.366   5.177 -1.0531  3.5392  0.7230
    3CHL1  H18C  178   1.990   0.279   5.056  0.1646  0.3210 -3.3784
    3CHL1   C12  179   2.047   0.620   5.116 -0.4469  0.0666  0.2148
    3CHL1  H12A  180   2.123   0.643   5.039  0.9735  3.1209  2.3127
    3CHL1  H12B  181   1.983   0.711   5.109  0.2517  0.6014  0.7051
    3CHL1   C11  182   2.100   0.622   5.255 -0.2312 -0.2041  0.7344
    3CHL1  H11A  183   2.179   0.545   5.263 -2.0447 -2.1561  0.6707
    3CHL1  H11B  184   2.153   0.719   5.269  0.3748 -0.1667 -1.4774
    3CHL1    C9  185   1.980   0.600   5.350 -0.3987 -0.3403 -0.2071
    3CHL1    H9  186   1.918   0.689   5.325 -1.1676 -0.1014  2.2911
    3CHL1   C10  187   2.029   0.619   5.503  0.2353 -0.3784  0.4836
    3CHL1   C19  188   2.150   0.533   5.525  0.0392  0.4984  0.5077
    3CHL1  H19A  189   2.237   0.578   5.473  0.9448 -1.0457  0.6110
    3CHL1  H19B  190   2.190   0.525   5.629  1.5788  1.0964 -0.0142
    3CHL1  H19C  191   2.125   0.431   5.489 -0.3704  0.3963  1.0584
    3CHL1    C1  192   2.054   0.769   5.531 -0.0869  0.4891 -0.7612
    3CHL1   H1A  193   2.154   0.783   5.486  0.8023  0.4047  1.1148
    3CHL1   H1B  194   1.977   0.825   5.474  0.4706  3.2278  0.9914
    3CHL1    C2  195   2.058   0.818   5.679  0.8084  0.2939 -0.1767
    3CHL1   H2A  196   2.054   0.929   5.684  2.5195  0.3142  2.5464
    3CHL1   H2B  197   2.143   0.765   5.727  0.3416 -1.7641 -1.4788
    3CHL1   C20  198   1.939   0.479   4.811 -0.6321 -0.0491  0.1327
    3CHL1   H20  199   2.026   0.412   4.827 -0.6348  0.0651  0.6646
    3CHL1   C21  200   1.984   0.612   4.764 -0.5547  0.3422  0.4947
    3CHL1  H21A  201   1.907   0.693   4.759  1.6848  2.5443 -0.1484
    3CHL1  H21B  202   2.032   0.608   4.664  1.8640 -2.9697  1.6297
    3CHL1  H21C  203   2.067   0.644   4.831  1.3235  0.1868 -1.6543
    3CHL1   C22  204   1.852   0.409   4.701 -0.3625  0.2463  0.1367
    3CHL1  H22A  205   1.817   0.314   4.746 -2.0351  1.5124  1.6829
    3CHL1  H22B  206   1.760   0.466   4.674 -1.3713  0.4640  3.5989
    3CHL1   C23  207   1.926   0.367   4.572 -0.5498  0.2013 -1.0235
    3CHL1  H23A  208   1.984   0.447   4.521  0.5203 -0.8704 -1.5262
    3CHL1  H23B  209   1.998   0.286   4.597  1.4544  1.7624 -1.4545
    3CHL1   C24  210   1.831   0.294   4.476 -0.5253 -0.2132  1.0047
    3CHL1  H24A  211   1.800   0.205   4.534 -0.5639 -1.6129 -1.0598
    3CHL1  H24B  212   1.739   0.351   4.449  0.3011 -0.1793 -2.1426
    3CHL1   C25  213   1.900   0.240   4.346  0.5912  0.8499 -0.4604
    3CHL1   H25  214   1.999   0.197   4.374 -0.4807 -1.2245  0.3563
    3CHL1   C26  215   1.820   0.127   4.273  0.3704 -0.1388 -0.3279
    3CHL1  H26A  216   1.817   0.034   4.335 -0.4357 -0.0477 -0.2106
    3CHL1  H26B  217   1.715   0.147   4.242  0.4926  0.2952 -0.4628
    3CHL1  H26C  218   1.872   0.085   4.185 -0.0460 -1.4981  0.0461
    3CHL1   C27  219   1.927   0.361   4.242  0.3406 -0.6199 -0.4040
    3CHL1  H27A  220   1.980   0.445   4.292 -0.4739 -0.8143  0.8150
    3CHL1  H27B  221   1.983   0.332   4.150 -2.0517 -3.3703 -1.1246
    3CHL1  H27C  222   1.829   0.403   4.211  0.2048 -2.2299 -2.4072
    4CHL1    C3  223   2.507   0.212   5.655  0.9793  0.0510 -0.1967
    4CHL1    H3  224   2.418   0.146   5.646 -1.8655  3.7161 -1.1274
    4CHL1    O3  225   2.528   0.234   5.797  0.2392  0.9187  0.0402
    4CHL1   H3'  226   2.553   0.151   5.839  1.8641 -0.1063 -2.7212
    4CHL1    C4  227   2.631   0.145   5.590 -0.6601 -0.1935 -1.0870
    4CHL1   H4A  228   2.718   0.211   5.611 -1.0930  1.2462 -3.4313
    4CHL1   H4B  229   2.625   0.041   5.628  1.5176  0.5802  1.7149
    4CHL1    C5  230   2.610   0.151   5.440  0.5559  0.5208 -0.2574
    4CHL1    C6  231   2.644   0.036   5.372 -0.9237 -0.4708  0.2575
    4CHL1    H6  232   2.683  -0.048   5.432  0.6475 -0.1105 -0.2116
    4CHL1    C7  233   2.631   0.020   5.221 -0.0895  0.0605  0.3917
    4CHL1   H7A  234   2.725  -0.024   5.182 -0.8273 -0.2581 -1.0715
    4CHL1   H7B  235   2.553  -0.057   5.204 -0.2185 -0.2358  2.0860
    4CHL1    C8  236   2.589   0.147   5.147  0.7358  0.3211  0.6649
    4CHL1    H8  237   2.685   0.202   5.138  0.0322  1.4569 -0.2218
    4CHL1   C14  238   2.527   0.116   5.013 -0.0442 -0.2219 -0.2988
    4CHL1   H14  239   2.428   0.069   5.027 -0.2442  0.1488 -0.4398
    4CHL1   C15  240   2.602   0.012   4.930  0.0259 -0.0121 -0.1623
    4CHL1  H15A  241   2.711   0.024   4.943  0.3717 -0.6288 -2.1532
    4CHL1  H15B  242   2.575  -0.091   4.962  1.5408 -0.1086  0.8956
    4CHL1   C16  243   2.562   0.042   4.778 -0.1555 -0.5197 -0.1049
    4CHL1  H16A  244   2.648   0.084   4.722  1.8410 -0.3452  2.8169
    4CHL1  H16B  245   2.522  -0.048   4.728  0.5534  0.1778 -2.0210
    4CHL1   C17  246   2.459   0.158   4.796  1.0354  0.9157  0.9290
    4CHL1   H17  247   2.362   0.111   4.824  1.0449  1.3270  1.6873
    4CHL1   C13  248   2.498   0.235   4.928  0.5526  0.2296 -0.4166
    4CHL1   C18  249   2.617   0.318   4.908 -0.5505 -0.0425  0.2631
    4CHL1  H18A  250   2.710   0.269   4.871  1.4572  4.2346 -0.9848
    4CHL1  H18B  251   2.599   0.404   4.840 -0.0725 -1.1389 -1.3182
    4CHL1  H18C  252   2.655   0.358   5.004  3.1554  4.2840 -2.5821
    4CHL1   C12  253   2.391   0.320   4.994 -0.1553  0.3152 -0.2521
    4CHL1  H12A  254   2.387   0.415   4.937  3.0863  0.9820  0.4077
    4CHL1  H12B  255   2.287   0.281   4.998  0.4065 -1.1229  1.9960
    4CHL1   C11  256   2.430   0.346   5.136  0.0149 -0.0277 -0.7392
    4CHL1  H11A  257   2.516   0.416   5.125  0.5060 -0.8462 -2.3650
    4CHL1  H11B  258   2.352   0.399   5.194  0.9109 -0.6436  1.1089
    4CHL1    C9  259   2.488   0.230   5.224 -0.1983  0.4096  0.5221
    4CHL1    H9  260   2.403   0.168   5.256  1.5105 -1.8187  0.9955
    4CHL1   C10  261   2.551   0.274   5.362  0.1624  0.1667 -0.1457
    4CHL1   C19  262   2.659   0.383   5.346  0.0180 -0.0736 -0.1173
    4CHL1  H19A  263   2.610   0.480   5.323  1.2139  1.5312  3.4249
    4CHL1  H19B  264   2.726   0.396   5.433  0.4978 -0.4435 -0.4305
    4CHL1  H19C  265   2.734   0.348   5.272 -1.3084 -1.7163 -0.7320
    4CHL1    C1  266   2.442   0.333   5.452 -0.0532  0.7238  0.3567
    4CHL1   H1A  267   2.420   0.433   5.408 -0.9875  0.6506  0.6354
    4CHL1   H1B  268   2.357   0.267   5.424  1.4596 -0.1395 -2.6573
    4CHL1    C2  269   2.473   0.350   5.596 -0.1452 -0.2771 -0.6963
    4CHL1   H2A  270   2.376   0.384   5.638  0.3905 -0.2174  0.5382
    4CHL1   H2B  271   2.558   0.421   5.603 -0.8163  0.3926  2.8273
    4CHL1   C20  272   2.415   0.237   4.670  0.0817 -0.5389 -0.7543
    4CHL1   H20  273   2.468   0.334   4.655  0.0596 -0.6663 -1.7244
    4CHL1   C21  274   2.269   0.271   4.678  0.3833 -0.4218 -0.0683
    4CHL1  H21A  275   2.206   0.183   4.706 -0.8789 -0.6764 -3.3237
    4CHL1  H21B  276   2.228   0.327   4.592  0.7138  1.3908  0.8962
    4CHL1  H21C  277   2.256   0.344   4.761  0.7769  0.3874 -0.7086
    4CHL1   C22  278   2.434   0.160   4.542 -0.8629  1.7749  0.2895
    4CHL1  H22A  279   2.543   0.138   4.542 -0.6784  2.5722 -1.2839
    4CHL1  H22B  280   2.394   0.057   4.528  1.8145  0.8865 -1.6183
    4CHL1   C23  281   2.415   0.239   4.416  0.1012 -0.6422  0.8810
    4CHL1  H23A  282   2.305   0.249   4.407  0.4016  1.5303 -1.5598
    4CHL1  H23B  283   2.459   0.340   4.432 -0.4282 -0.8097  4.1783
    4CHL1   C24  284   2.470   0.160   4.291 -0.5899 -0.8009 -0.1495
    4CHL1  H24A  285   2.580   0.146   4.294 -0.6973 -2.2572 -1.8663
    4CHL1  H24B  286   2.409   0.068   4.303 -1.6371  0.1584  2.9131
    4CHL1   C25  287   2.442   0.233   4.155 -0.1785 -1.8627 -0.0890
    4CHL1   H25  288   2.449   0.342   4.177 -0.1910 -1.9472  0.3361
    4CHL1   C26  289   2.538   0.199   4.047 -0.1495 -0.1637 -0.0624
    4CHL1  H26A  290   2.641   0.225   4.082  1.3601 -2.1731 -2.5912
    4CHL1  H26B  291   2.541   0.091   4.023  0.9845 -0.1420 -0.0746
    4CHL1  H26C  292   2.521   0.251   3.950  0.9093 -0.7603 -0.5881
    4CHL1   C27  293   2.296   0.216   4.108  0.3889  0.3998 -0.0940
    4CHL1  H27A  294   2.270   0.108   4.101 -1.4489  0.6874  1.3070
    4CHL1  H27B  295   2.224   0.253   4.185 -0.4286 -3.8223  1.4818
    4CHL1  H27C  296   2.278   0.277   4.018  1.1611 -0.3039 -0.7345
    5CHL1    C3  297   2.518   2.471   5.630 -0.3633 -0.5535  0.0546
    5CHL1    H3  298   2.426   2.412   5.606 -0.2210 -0.8561  0.2493
    5CHL1    O3  299   2.520   2.471   5.775  0.5148  0.2077  0.5640
    5CHL1   H3'  300   2.589   2.530   5.805 -0.9658  2.2481  0.1185
    5CHL1    C4  301   2.646   2.405   5.580 -0.0114 -0.0520 -0.0482
    5CHL1   H4A  302   2.734   2.449   5.632  0.3832  0.4043 -1.0682
    5CHL1   H4B  303   2.651   2.300   5.616  1.7435 -0.0506 -0.1941
    5CHL1    C5  304   2.679   2.417   5.430 -0.2173  0.8912 -0.2259
    5CHL1    C6  305   2.709   2.307   5.359  0.5613  0.2416  0.2448
    5CHL1    H6  306   2.719   2.209   5.409 -1.7191 -0.5877 -0.8262
    5CHL1    C7  307   2.733   2.310   5.211  0.2562  0.0294 -0.2447
    5CHL1   H7A  308   2.824   2.251   5.186 -0.0257 -1.3785  1.7841
    5CHL1   H7B  309   2.647   2.257   5.163  1.4137 -1.4053 -0.8228
    5CHL1    C8  310   2.741   2.449   5.146  0.2777  0.2743  0.1492
    5CHL1    H8  311   2.844   2.487   5.161  0.1832 -0.4577  3.2712
    5CHL1   C14  312   2.719   2.453   4.993  0.6085  1.2210  0.3106
    5CHL1   H14  313   2.610   2.430   4.987  1.0802 -1.2579  0.3408
    5CHL1   C15  314   2.802   2.355   4.911  1.3839 -0.0037  0.2196
    5CHL1  H15A  315   2.911   2.355   4.931  1.5427  1.4185 -0.4711
    5CHL1  H15B  316   2.759   2.253   4.914  0.3805  0.2353 -2.6824
    5CHL1   C16  317   2.774   2.412   4.767  1.2178  0.4154  0.1669
    5CHL1  H16A  318   2.871   2.406   4.712  1.8309  0.4368  1.2035
    5CHL1  H16B  319   2.706   2.346   4.710 -2.1199  1.3575  2.7154
    5CHL1   C17  320   2.715   2.557   4.777 -0.2851  0.8703  0.2971
    5CHL1   H17  321   2.607   2.536   4.763 -0.0877 -0.7645  1.0120
    5CHL1   C13  322   2.736   2.590   4.925  0.3482 -0.2905 -0.4235
    5CHL1   C18  323   2.877   2.656   4.940  0.5259 -0.0207  0.2154
    5CHL1  H18A  324   2.889   2.679   5.048  4.3037 -1.5438  0.2887
    5CHL1  H18B  325   2.963   2.588   4.924  1.4825  0.9071  1.2373
    5CHL1  H18C  326   2.893   2.753   4.890  3.0468 -0.3957  0.1432
    5CHL1   C12  327   2.627   2.681   4.988  0.0575  0.2630  0.6698
    5CHL1  H12A  328   2.637   2.786   4.952  1.9570  0.6247  2.0655
    5CHL1  H12B  329   2.523   2.655   4.960 -0.9499  3.0311  1.4966
    5CHL1   C11  330   2.636   2.684   5.135  0.7789  0.5313  0.1603
    5CHL1  H11A  331   2.731   2.737   5.156  1.9154 -1.3289 -0.1184
    5CHL1  H11B  332   2.551   2.743   5.176 -1.0204 -2.1075  0.4483
    5CHL1    C9  333   2.637   2.544   5.208 -0.2091 -0.3616 -0.8615
    5CHL1    H9  334   2.543   2.491   5.183 -0.7762  0.5950 -0.8138
    5CHL1   C10  335   2.654   2.552   5.364 -0.0066 -0.1376  0.4015
    5CHL1   C19  336   2.765   2.650   5.400 -0.0512 -0.0948 -0.4580
    5CHL1  H19A  337   2.750   2.758   5.380 -2.0438 -0.4672 -1.2927
    5CHL1  H19B  338   2.780   2.650   5.510  0.2527 -0.1068 -0.4998
    5CHL1  H19C  339   2.859   2.609   5.356  0.4408  0.6259 -0.0880
    5CHL1    C1  340   2.517   2.614   5.419 -0.4780  0.4982  0.6593
    5CHL1   H1A  341   2.511   2.720   5.388 -0.3232  0.3024 -0.0695
    5CHL1   H1B  342   2.434   2.560   5.369  1.1879 -0.1090 -1.6238
    5CHL1    C2  343   2.501   2.615   5.570 -0.2126 -0.0914 -0.2725
    5CHL1   H2A  344   2.404   2.655   5.606  0.9087  2.6132  0.0049
    5CHL1   H2B  345   2.582   2.680   5.611 -0.0566 -0.5413  0.1472
    5CHL1   C20  346   2.758   2.656   4.667  0.5749  0.9093 -0.0993
    5CHL1   H20  347   2.862   2.689   4.686  1.4891 -0.4239 -2.3511
    5CHL1   C21  348   2.662   2.781   4.687 -0.5421  0.6966  0.2078
    5CHL1  H21A  349   2.567   2.733   4.717 -0.1390  0.0480  0.4709
    5CHL1  H21B  350   2.646   2.841   4.595 -0.7928 -1.1553 -1.0167
    5CHL1  H21C  351   2.696   2.843   4.773 -1.8007 -0.4193  1.5658
    5CHL1   C22  352   2.741   2.593   4.521 -0.2768 -0.1975 -0.2076
    5CHL1  H22A  353   2.777   2.488   4.524 -3.0107 -1.2486 -1.1432
    5CHL1  H22B  354   2.633   2.587   4.497  0.1641  0.0353 -2.4862
    5CHL1   C23  355   2.788   2.685   4.404 -0.6650  0.0210 -0.0266
    5CHL1  H23A  356   2.722   2.774   4.401 -0.7887 -0.0382  0.8757
    5CHL1  H23B  357   2.897   2.703   4.418 -1.0669  0.1535  4.3575
    5CHL1   C24  358   2.761   2.602   4.281  0.2917  0.7512 -0.6844
    5CHL1  H24A  359   2.799   2.500   4.302 -0.0826  0.8062  0.3255
    5CHL1  H24B  360   2.653   2.591   4.257  0.4760  0.9238 -1.6269
    5CHL1   C25  361   2.819   2.663   4.154  0.1890 -0.5782  0.5114
    5CHL1   H25  362   2.928   2.675   4.175  0.2180 -1.0218  0.6317
    5CHL1   C26  363   2.812   2.575   4.031  0.0436 -0.2067  0.0609
    5CHL1  H26A  364   2.849   2.622   3.937  0.4923 -0.9458 -0.1352
    5CHL1  H26B  365   2.848   2.470   4.033 -0.5262 -0.4869 -1.9258
    5CHL1  H26C  366   2.705   2.545   4.025  0.5136 -2.2277  0.9490
    5CHL1   C27  367   2.758   2.810   4.129 -0.2929 -0.3944 -0.0230
    5CHL1  H27A  368   2.797   2.861   4.219  2.0957 -2.1518  0.0528
    5CHL1  H27B  369   2.801   2.849   4.034  0.2366 -2.6313 -0.7900
    5CHL1  H27C  370   2.647   2.814   4.127 -0.3400 -1.3641 -0.0252
    6CHL1    C3  371   1.730   6.646   5.545 -0.2534 -0.9683 -0.8961
    6CHL1    H3  372   1.834   6.660   5.510 -0.9410 -0.2308 -2.8223
    6CHL1    O3  373   1.711   6.643   5.688  0.6379 -0.2442 -0.4297
    6CHL1   H3'  374   1.621   6.677   5.695  0.8653  0.0126  2.1980
    6CHL1    C4  375   1.645   6.766   5.489 -0.5724 -0.5454 -0.0802
    6CHL1   H4A  376   1.540   6.766   5.526  0.1054  1.4282  2.0990
    6CHL1   H4B  377   1.691   6.861   5.524 -2.0829  0.1143  0.1945
    6CHL1    C5  378   1.645   6.757   5.339 -0.2156  0.2377  0.1175
    6CHL1    C6  379   1.682   6.856   5.262 -0.3050 -0.2915  0.4787
    6CHL1    H6  380   1.709   6.953   5.306  1.4644 -0.1342 -0.8316
    6CHL1    C7  381   1.670   6.878   5.107  0.1462 -0.0251  0.0429
    6CHL1   H7A  382   1.609   6.969   5.087 -0.0826  0.1283  1.3620
    6CHL1   H7B  383   1.769   6.898   5.061  0.1047  0.8645  0.3270
    6CHL1    C8  384   1.594   6.753   5.049 -0.0515 -0.1375  0.1240
    6CHL1    H8  385   1.488   6.787   5.054  0.1725  0.4736  0.8295
    6CHL1   C14  386   1.624   6.730   4.904 -0.0137 -0.5990 -0.3644
    6CHL1   H14  387   1.731   6.702   4.897  0.4822  0.8351  0.7869
    6CHL1   C15  388   1.605   6.853   4.808 -0.0537 -0.1740  0.0927
    6CHL1  H15A  389   1.508   6.905   4.824 -0.2820 -0.9470  1.3215
    6CHL1  H15B  390   1.685   6.929   4.815  0.3372 -0.5388 -0.3139
    6CHL1   C16  391   1.593   6.791   4.673  1.3329  0.1094  0.0277
    6CHL1  H16A  392   1.490   6.804   4.633  0.6834 -3.1937  0.3134
    6CHL1  H16B  393   1.668   6.826   4.598 -0.2035 -0.4257 -1.8609
    6CHL1   C17  394   1.589   6.639   4.691 -0.0506  0.0949  0.0935
    6CHL1   H17  395   1.692   6.600   4.676 -0.1570 -1.2017  2.3894
    6CHL1   C13  396   1.546   6.615   4.833  0.4470  0.5445 -0.2908
    6CHL1   C18  397   1.390   6.635   4.837  0.1991 -0.5308  0.4039
    6CHL1  H18A  398   1.349   6.712   4.768 -2.2000 -0.2937  1.9576
    6CHL1  H18B  399   1.339   6.543   4.801  2.3452 -1.4449 -0.4633
    6CHL1  H18C  400   1.354   6.667   4.938  0.5472  1.0584  0.0445
    6CHL1   C12  401   1.591   6.483   4.894  0.0573  0.0521 -0.5060
    6CHL1  H12A  402   1.569   6.387   4.842  1.3339 -1.2787  1.2593
    6CHL1  H12B  403   1.701   6.485   4.878  0.0821  1.4668 -0.2753
    6CHL1   C11  404   1.560   6.495   5.047 -0.1389 -0.3997  1.0404
    6CHL1  H11A  405   1.450   6.510   5.058 -0.1101 -0.1985  1.0608
    6CHL1  H11B  406   1.597   6.406   5.102  1.2453  1.2963  3.0079
    6CHL1    C9  407   1.620   6.617   5.121 -0.5752  0.6151 -0.4203
    6CHL1    H9  408   1.729   6.600   5.111 -1.1077 -2.4522 -2.4001
    6CHL1   C10  409   1.587   6.627   5.276 -0.2825  0.0099 -0.6143
    6CHL1   C19  410   1.436   6.623   5.300  0.4664  0.0639 -0.0701
    6CHL1  H19A  411   1.394   6.529   5.256 -0.7181  0.0703  0.9847
    6CHL1  H19B  412   1.409   6.618   5.408 -1.8395  0.6609 -0.5734
    6CHL1  H19C  413   1.389   6.711   5.251  2.3002  0.8632 -0.4878
    6CHL1    C1  414   1.659   6.506   5.345 -1.1703  0.2264  0.2330
    6CHL1   H1A  415   1.600   6.413   5.329  1.6069 -1.9710  1.8840
    6CHL1   H1B  416   1.755   6.489   5.293 -1.4662 -0.4873 -0.0982
    6CHL1    C2  417   1.672   6.517   5.499 -0.0661  0.0735  0.3280
    6CHL1   H2A  418   1.736   6.438   5.546 -0.1681  0.2388  0.7439
    6CHL1   H2B  419   1.571   6.512   5.545 -0.9527 -0.6205 -1.6001
    6CHL1   C20  420   1.514   6.570   4.574 -0.3634  0.2085  0.0223
    6CHL1   H20  421   1.414   6.617   4.567  0.1452  1.4011  0.5034
    6CHL1   C21  422   1.493   6.413   4.589  0.0202 -0.7400 -0.4593
    6CHL1  H21A  423   1.594   6.368   4.598 -0.0201 -0.4346  2.3945
    6CHL1  H21B  424   1.433   6.375   4.504 -0.9093 -1.4651  0.4988
    6CHL1  H21C  425   1.435   6.386   4.680 -0.8457  0.1198 -0.7418
    6CHL1   C22  426   1.581   6.591   4.437 -0.0931  0.5030 -0.1537
    6CHL1  H22A  427   1.624   6.693   4.430  2.3175 -0.3176  1.5540
    6CHL1  H22B  428   1.668   6.523   4.426 -0.4073 -0.0706  0.7968
    6CHL1   C23  429   1.499   6.562   4.305  0.0516  0.8087 -0.1406
    6CHL1  H23A  430   1.473   6.455   4.288 -1.2662  0.8783  1.2923
    6CHL1  H23B  431   1.414   6.633   4.303  0.5553  1.5030  1.5175
    6CHL1   C24  432   1.579   6.589   4.172 -0.5069 -0.3047 -0.3570
    6CHL1  H24A  433   1.628   6.688   4.186  1.5065 -1.1426 -1.0680
    6CHL1  H24B  434   1.669   6.524   4.164  0.5252  1.0629 -0.4391
    6CHL1   C25  435   1.501   6.582   4.045  0.0528  0.7126 -0.0340
    6CHL1   H25  436   1.447   6.485   4.042  1.6080 -0.1811 -0.3670
    6CHL1   C26  437   1.386   6.692   4.028 -1.1501  0.1955  0.0829
    6CHL1  H26A  438   1.339   6.673   3.929 -0.3088  0.8309 -0.4573
    6CHL1  H26B  439   1.317   6.693   4.115  0.5890 -2.9678  1.7131
    6CHL1  H26C  440   1.434   6.792   4.033  1.3241 -0.7570 -2.0785
    6CHL1   C27  441   1.605   6.566   3.935  0.0139  0.8509 -0.6435
    6CHL1  H27A  442   1.676   6.651   3.942  1.3788  0.2538 -4.5964
    6CHL1  H27B  443   1.657   6.468   3.929 -2.5703 -0.6203 -0.5322
    6CHL1  H27C  444   1.550   6.573   3.838 -0.3817  2.2574 -0.3345
    7CHL1    C3  445   1.633   0.973   5.530  0.4399 -0.1548  0.5342
    7CHL1    H3  446   1.714   1.041   5.495 -0.4245  0.1609 -0.9609
    7CHL1    O3  447   1.634   0.962   5.672 -0.1241 -0.1337  0.3048
    7CHL1   H3'  448   1.558   0.908   5.694 -1.5464  1.5867 -0.1806
    7CHL1    C4  449   1.501   1.036   5.483 -0.7427 -0.3703  0.7999
    7CHL1   H4A  450   1.414   0.993   5.536 -0.6021 -0.0951  1.2507
    7CHL1   H4B  451   1.508   1.139   5.521 -3.1294  0.4690 -0.7951
    7CHL1    C5  452   1.472   1.018   5.336 -0.3045  0.5549  0.0922
    7CHL1    C6  453   1.427   1.125   5.269  0.2851 -1.3058  0.4038
    7CHL1    H6  454   1.405   1.216   5.326  1.5594 -0.6874 -0.0365
    7CHL1    C7  455   1.420   1.139   5.115 -0.5452  0.4006 -0.3103
    7CHL1   H7A  456   1.319   1.173   5.082 -0.4425  0.7387 -0.2809
    7CHL1   H7B  457   1.500   1.203   5.073  2.0009 -1.9428  0.6796
    7CHL1    C8  458   1.437   0.997   5.045  0.4135 -1.0869  0.1669
    7CHL1    H8  459   1.342   0.941   5.059 -0.6587  0.9704  1.6931
    7CHL1   C14  460   1.469   1.009   4.891 -0.0063 -0.1375  0.0915
    7CHL1   H14  461   1.563   1.064   4.870 -1.3387  1.7066 -1.3777
    7CHL1   C15  462   1.367   1.100   4.818 -0.3388  0.9522 -0.1312
    7CHL1  H15A  463   1.265   1.085   4.861  1.2940 -0.0357  3.7515
    7CHL1  H15B  464   1.400   1.203   4.844 -2.2979  0.9314  2.9847
    7CHL1   C16  465   1.383   1.053   4.668  0.6072 -0.4245 -1.5603
    7CHL1  H16A  466   1.281   1.030   4.630  0.0320  0.8885 -0.8972
    7CHL1  H16B  467   1.415   1.142   4.610 -1.5026  1.6650  0.2709
    7CHL1   C17  468   1.480   0.932   4.670  1.0159  0.2623 -0.5491
    7CHL1   H17  469   1.582   0.970   4.649  1.5470 -1.5985 -1.5196
    7CHL1   C13  470   1.483   0.882   4.816  0.0285  0.6058 -0.2604
    7CHL1   C18  471   1.357   0.794   4.847 -0.0021  0.1032 -0.0906
    7CHL1  H18A  472   1.389   0.704   4.791 -0.7959 -0.1479 -0.1530
    7CHL1  H18B  473   1.342   0.765   4.953  1.7695  0.4592  0.2810
    7CHL1  H18C  474   1.267   0.844   4.804  0.9774  1.0330 -1.1470
    7CHL1   C12  475   1.607   0.805   4.871  0.0833 -0.1320  0.5123
    7CHL1  H12A  476   1.607   0.704   4.824  0.5663  0.6534 -1.2553
    7CHL1  H12B  477   1.708   0.847   4.852  0.3865 -1.7095 -1.6558
    7CHL1   C11  478   1.600   0.784   5.027 -0.2026  0.1724 -0.0355
    7CHL1  H11A  479   1.540   0.694   5.051 -0.3787  0.3159  0.0677
    7CHL1  H11B  480   1.703   0.763   5.062 -0.2384  2.9004  2.1219
    7CHL1    C9  481   1.545   0.914   5.106 -0.0770  0.0082 -0.1302
    7CHL1    H9  482   1.636   0.975   5.087  1.8597 -2.6569  0.1444
    7CHL1   C10  483   1.522   0.892   5.260  0.2731  0.4205  0.6524
    7CHL1   C19  484   1.416   0.773   5.281 -0.6484 -0.4611  0.7216
    7CHL1  H19A  485   1.388   0.754   5.387 -0.8299 -2.9313  0.2883
    7CHL1  H19B  486   1.319   0.775   5.226  0.1464 -0.4041 -0.7292
    7CHL1  H19C  487   1.470   0.676   5.271 -0.1740 -0.3987  2.4129
    7CHL1    C1  488   1.659   0.845   5.320  0.6924  0.4420  0.1733
    7CHL1   H1A  489   1.695   0.747   5.283  0.9147  0.2785  0.8185
    7CHL1   H1B  490   1.732   0.916   5.275 -0.3042  1.2625 -0.2078
    7CHL1    C2  491   1.655   0.831   5.471 -0.3144  0.1733 -0.1563
    7CHL1   H2A  492   1.752   0.791   5.506 -0.5147  1.1802  1.6616
    7CHL1   H2B  493   1.572   0.765   5.507 -0.1961  1.5777  3.0182
    7CHL1   C20  494   1.442   0.830   4.560  0.6570 -0.1217 -0.5586
    7CHL1   H20  495   1.343   0.786   4.583 -0.5383  0.9040 -3.3640
    7CHL1   C21  496   1.548   0.721   4.559 -0.1929 -0.1230  0.4718
    7CHL1  H21A  497   1.648   0.757   4.592 -0.1708 -1.4374  1.9645
    7CHL1  H21B  498   1.569   0.679   4.459 -0.4509  0.0585  0.3414
    7CHL1  H21C  499   1.520   0.636   4.625  1.8586 -0.1693  1.3696
    7CHL1   C22  500   1.428   0.893   4.421  0.5785 -0.5396 -0.2752
    7CHL1  H22A  501   1.350   0.971   4.424 -0.2432 -1.3491 -0.0922
    7CHL1  H22B  502   1.531   0.927   4.396  0.4960 -0.9790 -1.2725
    7CHL1   C23  503   1.375   0.803   4.309 -0.4156  0.0047  0.3134
    7CHL1  H23A  504   1.419   0.701   4.316 -2.9346 -1.3412 -1.6041
    7CHL1  H23B  505   1.266   0.783   4.323 -1.5307  2.4112 -3.4098
    7CHL1   C24  506   1.390   0.873   4.169  0.1682 -0.2207  0.1518
    7CHL1  H24A  507   1.352   0.977   4.170 -0.5638 -0.4212 -1.9747
    7CHL1  H24B  508   1.494   0.864   4.130 -0.0701  2.5383 -1.3962
    7CHL1   C25  509   1.305   0.793   4.061 -0.0767 -0.6673 -0.2420
    7CHL1   H25  510   1.201   0.789   4.098  0.5348 -0.2702  1.6120
    7CHL1   C26  511   1.320   0.878   3.932 -0.6589  0.2804 -0.5291
    7CHL1  H26A  512   1.424   0.865   3.896 -1.7906 -3.7069 -3.0444
    7CHL1  H26B  513   1.256   0.841   3.849  0.3115 -1.1875 -0.6617
    7CHL1  H26C  514   1.316   0.988   3.951  0.4751  0.1535  0.5462
    7CHL1   C27  515   1.349   0.652   4.039  0.3104  0.7744 -0.1698
    7CHL1  H27A  516   1.457   0.632   4.027 -0.0070 -1.3668  0.1503
    7CHL1  H27B  517   1.333   0.598   4.135  0.0715 -0.1313 -0.7133
    7CHL1  H27C  518   1.295   0.604   3.955  1.3835  0.2282 -0.5648
    8CHL1    C3  519   6.591   0.283   5.715  0.3614 -0.6309 -0.7202
    8CHL1    H3  520   6.540   0.381   5.731  3.0666  0.3673  3.1319
    8CHL1    O3  521   6.642   0.252   5.841  0.2292 -0.4648 -0.0986
    8CHL1   H3'  522   6.687   0.335   5.854  0.3828 -0.3296 -1.3666
    8CHL1    C4  523   6.482   0.182   5.684  0.1239  0.2310 -0.4658
    8CHL1   H4A  524   6.520   0.082   5.712  2.6415  0.7314 -1.8028
    8CHL1   H4B  525   6.398   0.209   5.751 -2.1476 -3.2059 -1.6779
    8CHL1    C5  526   6.432   0.192   5.540 -0.0841 -0.1477 -0.6202
    8CHL1    C6  527   6.299   0.212   5.513 -0.4502 -0.1530  0.7718
    8CHL1    H6  528   6.230   0.208   5.598 -2.0426  0.2399 -0.4576
    8CHL1    C7  529   6.254   0.228   5.371  0.2506  0.2093  0.0845
    8CHL1   H7A  530   6.161   0.169   5.362 -0.2949  1.2798 -1.8538
    8CHL1   H7B  531   6.226   0.334   5.354  0.8994  0.6836  1.8335
    8CHL1    C8  532   6.347   0.177   5.264 -0.0333  0.1775 -1.0210
    8CHL1    H8  533   6.346   0.066   5.270  1.2930  0.0940 -1.9714
    8CHL1   C14  534   6.296   0.237   5.138 -0.4339  0.1419  0.5734
    8CHL1   H14  535   6.298   0.348   5.148 -0.6202  0.4093 -1.7650
    8CHL1   C15  536   6.151   0.208   5.093 -0.1765  0.3013 -0.2245
    8CHL1  H15A  537   6.143   0.097   5.090  0.5304  0.2673 -2.0513
    8CHL1  H15B  538   6.077   0.253   5.162 -0.1447  0.1270 -0.0762
    8CHL1   C16  539   6.147   0.252   4.947 -0.2848  0.0159  1.1018
    8CHL1  H16A  540   6.104   0.172   4.883  0.1624  0.9577 -0.4318
    8CHL1  H16B  541   6.108   0.355   4.931  0.7110  0.1551 -0.6179
    8CHL1   C17  542   6.296   0.275   4.906 -0.9309  0.1910 -0.0574
    8CHL1   H17  543   6.312   0.384   4.914 -1.9120  0.3120  0.3888
    8CHL1   C13  544   6.386   0.210   5.012 -0.8797 -0.1685 -0.2462
    8CHL1   C18  545   6.390   0.057   4.977 -0.3509  0.2709  0.0603
    8CHL1  H18A  546   6.286   0.022   4.961 -0.5215  0.8375 -0.0972
    8CHL1  H18B  547   6.464   0.034   4.897 -0.7459 -2.3122  0.3643
    8CHL1  H18C  548   6.417  -0.003   5.067  2.0483  0.7491 -0.2557
    8CHL1   C12  549   6.527   0.260   5.041  0.0140 -0.1352 -0.2433
    8CHL1  H12A  550   6.604   0.238   4.964 -0.3032 -1.1202 -0.2860
    8CHL1  H12B  551   6.532   0.370   5.057  0.5484  0.0244 -1.3822
    8CHL1   C11  552   6.583   0.202   5.166  0.4571  0.1799 -0.2673
    8CHL1  H11A  553   6.606   0.093   5.162 -2.1311 -0.3932 -1.8969
    8CHL1  H11B  554   6.675   0.261   5.187  0.9774 -0.5021 -0.5877
    8CHL1    C9  555   6.485   0.232   5.291 -0.2515  0.1465 -0.1267
    8CHL1    H9  556   6.461   0.340   5.291  2.1026  0.7543  1.9866
    8CHL1   C10  557   6.541   0.203   5.434 -0.1509  0.1512 -0.6353
    8CHL1   C19  558   6.610   0.064   5.436 -0.7588  0.8881  0.1209
    8CHL1  H19A  559   6.693   0.060   5.362 -1.7563  2.9887 -1.1997
    8CHL1  H19B  560   6.660   0.061   5.535  1.1906  0.9715 -0.8186
    8CHL1  H19C  561   6.536  -0.019   5.424 -1.2740  1.4671 -0.8468
    8CHL1    C1  562   6.641   0.310   5.474  0.5895 -0.0393  0.0094
    8CHL1   H1A  563   6.727   0.295   5.405 -0.1603  0.2772 -1.0138
    8CHL1   H1B  564   6.592   0.408   5.455 -0.5385 -0.4222  0.8224
    8CHL1    C2  565   6.703   0.299   5.611 -0.2767  0.2672 -0.5697
    8CHL1   H2A  566   6.778   0.379   5.628  0.2430  0.0771 -1.8398
    8CHL1   H2B  567   6.760   0.204   5.611  1.1526  1.0500  1.8237
    8CHL1   C20  568   6.315   0.244   4.753 -0.3556  0.2616 -0.3947
    8CHL1   H20  569   6.316   0.134   4.739  2.2641  0.3438 -1.3525
    8CHL1   C21  570   6.446   0.301   4.701  0.3420  0.2928  0.6697
    8CHL1  H21A  571   6.532   0.266   4.762  0.5466 -1.3148 -0.5034
    8CHL1  H21B  572   6.447   0.412   4.696  1.6570  0.3059  0.7250
    8CHL1  H21C  573   6.467   0.264   4.599 -0.7273 -1.8221  1.1728
    8CHL1   C22  574   6.190   0.287   4.658  0.3691 -0.3667 -0.4100
    8CHL1  H22A  575   6.091   0.263   4.701 -0.1784  2.4044  0.0222
    8CHL1  H22B  576   6.205   0.397   4.658 -0.8607 -0.1441 -2.3675
    8CHL1   C23  577   6.198   0.242   4.511  0.3028 -0.1628  0.5046
    8CHL1  H23A  578   6.275   0.309   4.469 -0.4247  2.8239  3.4442
    8CHL1  H23B  579   6.242   0.140   4.515  1.2666  0.2323  0.1320
    8CHL1   C24  580   6.069   0.265   4.430  0.2399  0.1703  0.1661
    8CHL1  H24A  581   5.980   0.226   4.484 -2.2320  3.7208 -1.0241
    8CHL1  H24B  582   6.061   0.374   4.411 -2.6018 -0.1936 -1.2892
    8CHL1   C25  583   6.081   0.200   4.286  0.2382  0.0044 -0.3495
    8CHL1   H25  584   6.083   0.091   4.306 -2.4125  0.2613  2.1333
    8CHL1   C26  585   5.947   0.231   4.219 -0.1710  0.0185  0.6423
    8CHL1  H26A  586   5.859   0.203   4.280 -0.7700  0.3907 -0.0354
    8CHL1  H26B  587   5.937   0.338   4.189  3.1094  0.2726  0.0350
    8CHL1  H26C  588   5.942   0.166   4.130 -0.7382  2.3155 -1.1060
    8CHL1   C27  589   6.193   0.266   4.199 -0.2355  0.3264 -0.3936
    8CHL1  H27A  590   6.168   0.369   4.166  0.7867  1.3985  1.9814
    8CHL1  H27B  591   6.293   0.266   4.246 -0.6538 -0.0883  0.5119
    8CHL1  H27C  592   6.191   0.193   4.115 -0.9935  1.3917 -1.3473
    9CHL1    C3  593   3.007   6.432   5.373 -0.2342  0.4089 -0.3582
    9CHL1    H3  594   3.006   6.328   5.334  1.6135 -0.2112  1.1151
    9CHL1    O3  595   3.009   6.427   5.516 -0.1357  0.3967  0.0995
    9CHL1   H3'  596   3.103   6.428   5.534 -0.1454 -0.4619  0.2485
    9CHL1    C4  597   3.149   6.496   5.335 -0.1109  0.0997  1.1992
    9CHL1   H4A  598   3.149   6.591   5.392 -1.8064  0.2387  1.0167
    9CHL1   H4B  599   3.231   6.426   5.364  0.6768  0.5192  0.0697
    9CHL1    C5  600   3.150   6.527   5.188  0.1650  0.5357  0.1951
    9CHL1    C6  601   3.258   6.481   5.118  0.1978  0.0150  0.0948
    9CHL1    H6  602   3.339   6.429   5.171 -0.5468 -0.6931  0.5763
    9CHL1    C7  603   3.271   6.528   4.974 -0.2302  1.2074  0.3638
    9CHL1   H7A  604   3.366   6.585   4.980 -0.9375  2.5143 -0.2601
    9CHL1   H7B  605   3.277   6.440   4.907  2.1743  0.8688  0.9384
    9CHL1    C8  606   3.172   6.631   4.918  0.3618 -0.1839 -0.3043
    9CHL1    H8  607   3.199   6.732   4.956  1.5563 -1.4016  2.3649
    9CHL1   C14  608   3.165   6.641   4.766  0.6573  0.0147  0.3246
    9CHL1   H14  609   3.124   6.542   4.738 -1.4026  0.9678 -0.1860
    9CHL1   C15  610   3.296   6.638   4.697  0.3828 -0.0134  0.4369
    9CHL1  H15A  611   3.369   6.715   4.731 -0.5025  0.7170  0.7341
    9CHL1  H15B  612   3.342   6.537   4.705 -0.1019 -0.3000 -0.3301
    9CHL1   C16  613   3.259   6.658   4.549  0.3288 -0.2440  0.9635
    9CHL1  H16A  614   3.313   6.746   4.508 -0.9824 -0.1581 -0.6991
    9CHL1  H16B  615   3.269   6.569   4.484  0.5958  0.0554  0.5974
    9CHL1   C17  616   3.110   6.706   4.541 -0.3986 -0.4810 -0.8803
    9CHL1   H17  617   3.042   6.618   4.529 -0.2347 -0.7688  0.1549
    9CHL1   C13  618   3.071   6.747   4.694  0.1023  1.0822 -0.4669
    9CHL1   C18  619   3.113   6.896   4.728 -1.0708 -0.1307  0.2901
    9CHL1  H18A  620   3.216   6.911   4.688 -1.4575  2.0607 -0.0371
    9CHL1  H18B  621   3.043   6.970   4.684 -0.4624 -0.4185 -1.2309
    9CHL1  H18C  622   3.123   6.899   4.839 -0.5185 -0.4139  0.2535
    9CHL1   C12  623   2.933   6.723   4.750  0.4767 -0.4599  0.1717
    9CHL1  H12A  624   2.865   6.807   4.722  0.4847 -1.3572 -2.8588
    9CHL1  H12B  625   2.897   6.626   4.710  0.8505 -1.0681  1.2815
    9CHL1   C11  626   2.935   6.720   4.906  0.2966 -0.1449 -0.3027
    9CHL1  H11A  627   2.970   6.818   4.946  3.5020 -0.9655 -0.7419
    9CHL1  H11B  628   2.834   6.688   4.938  0.8708 -0.7709  0.9781
    9CHL1    C9  629   3.029   6.610   4.973  0.8070 -0.8107  0.3941
    9CHL1    H9  630   3.000   6.510   4.932  3.4948 -1.1064 -0.9987
    9CHL1   C10  631   3.029   6.608   5.131 -0.8217  0.4902  0.3419
    9CHL1   C19  632   3.029   6.750   5.192 -0.5910 -0.4571 -0.0192
    9CHL1  H19A  633   2.935   6.808   5.178  1.0777  2.4155 -0.1564
    9CHL1  H19B  634   3.031   6.735   5.302  2.0299  1.9741  0.3888
    9CHL1  H19C  635   3.124   6.804   5.169  0.6884 -1.6346  2.1418
    9CHL1    C1  636   2.890   6.537   5.166 -0.8482 -0.5621 -0.0295
    9CHL1   H1A  637   2.796   6.587   5.135 -0.3483  0.7902  0.5644
    9CHL1   H1B  638   2.897   6.437   5.117 -0.6647 -0.4516 -0.2299
    9CHL1    C2  639   2.887   6.501   5.315  0.4683  0.1617 -0.3912
    9CHL1   H2A  640   2.801   6.435   5.339  2.1506 -1.8078  0.4979
    9CHL1   H2B  641   2.854   6.599   5.357  1.5134  0.5513 -0.4622
    9CHL1   C20  642   3.070   6.811   4.440 -0.2411 -0.5841  0.3851
    9CHL1   H20  643   3.132   6.901   4.465  1.3360 -1.7044  0.6827
    9CHL1   C21  644   2.920   6.847   4.438 -0.0693 -0.2816  0.2156
    9CHL1  H21A  645   2.893   6.904   4.529 -1.8057 -1.6130  0.5914
    9CHL1  H21B  646   2.856   6.757   4.428  0.3621 -0.5865  0.1792
    9CHL1  H21C  647   2.904   6.897   4.339 -1.4663 -3.9371 -1.6099
    9CHL1   C22  648   3.115   6.773   4.297  0.1517  0.1336  0.1212
    9CHL1  H22A  649   3.103   6.863   4.233  0.5179 -0.8915 -1.4644
    9CHL1  H22B  650   3.224   6.753   4.300  0.3273  0.6638 -1.5756
    9CHL1   C23  651   3.038   6.651   4.229 -0.2081 -0.1908 -0.1920
    9CHL1  H23A  652   3.076   6.561   4.282 -0.1413  0.4067  0.8221
    9CHL1  H23B  653   2.927   6.656   4.242 -0.2197  0.0283 -0.3681
    9CHL1   C24  654   3.074   6.643   4.077 -0.0366  0.1455 -0.7236
    9CHL1  H24A  655   3.067   6.742   4.026 -2.3429 -1.0048 -2.8231
    9CHL1  H24B  656   3.177   6.603   4.076 -0.1026 -0.0734 -2.6924
    9CHL1   C25  657   2.991   6.543   3.996  0.0736  0.2941  0.6213
    9CHL1   H25  658   2.887   6.579   4.010 -0.5206 -0.8207 -0.6507
    9CHL1   C26  659   3.006   6.568   3.847  0.3724  0.4900  0.5269
    9CHL1  H26A  660   3.102   6.529   3.808 -0.8193 -0.8948 -1.1886
    9CHL1  H26B  661   2.916   6.521   3.801  1.0987 -1.2645  0.8127
    9CHL1  H26C  662   2.999   6.676   3.821  3.8180  0.9148  0.9543
    9CHL1   C27  663   3.004   6.395   4.040 -0.4829 -0.2145  0.3822
    9CHL1  H27A  664   3.112   6.368   4.040  0.5106  3.2546  0.3060
    9CHL1  H27B  665   2.949   6.387   4.137 -1.6807 -0.9066 -0.3388
    9CHL1  H27C  666   2.947   6.325   3.975 -1.1741 -0.4568  1.2288
   10CHL1    C3  667   1.860   1.935   5.513  0.3970 -0.2997  0.2838
   10CHL1    H3  668   1.962   1.980   5.508  0.9731 -1.7022 -1.5010
   10CHL1    O3  669   1.830   1.887   5.643 -0.2103  0.0181 -0.8134
   10CHL1   H3'  670   1.877   1.945   5.704 -0.4872 -1.8178  1.2771
   10CHL1    C4  671   1.755   2.041   5.475  0.1373 -0.1825  0.1414
   10CHL1   H4A  672   1.658   1.987   5.472  1.3454 -2.4892  0.4713
   10CHL1   H4B  673   1.761   2.121   5.552  0.6857  0.2458 -0.3418
   10CHL1    C5  674   1.771   2.106   5.339  0.1198 -0.1943  0.3316
   10CHL1    C6  675   1.756   2.240   5.325 -0.4598 -0.2956 -0.3927
   10CHL1    H6  676   1.735   2.305   5.412  1.0760 -0.4881  0.1470
   10CHL1    C7  677   1.777   2.303   5.185  0.1303  0.3628 -0.3210
   10CHL1   H7A  678   1.696   2.377   5.167  1.1551  1.4949 -0.3925
   10CHL1   H7B  679   1.874   2.356   5.180  0.5900 -0.5487 -1.5630
   10CHL1    C8  680   1.777   2.194   5.067 -0.1760 -1.1222  0.0668
   10CHL1    H8  681   1.670   2.170   5.048 -0.0796 -1.4137 -0.1233
   10CHL1   C14  682   1.831   2.259   4.936  0.5466 -1.0972 -0.0939
   10CHL1   H14  683   1.931   2.300   4.959  0.4117 -0.5977 -0.3869
   10CHL1   C15  684   1.748   2.370   4.881 -0.5928  0.4928  0.3913
   10CHL1  H15A  685   1.643   2.335   4.879 -0.1907 -1.0989  3.0207
   10CHL1  H15B  686   1.750   2.461   4.945  7.0316  0.7340  0.7148
   10CHL1   C16  687   1.820   2.401   4.744 -0.1404  0.6668  0.1402
   10CHL1  H16A  688   1.757   2.455   4.671  1.5115  0.6050 -1.3979
   10CHL1  H16B  689   1.905   2.467   4.770  0.7041 -0.9956  1.8554
   10CHL1   C17  690   1.894   2.269   4.705  0.0430 -0.2182  0.0104
   10CHL1   H17  691   2.002   2.276   4.728 -0.0451  0.6970  0.2062
   10CHL1   C13  692   1.853   2.162   4.821  0.4115 -0.8616  0.1179
   10CHL1   C18  693   1.718   2.096   4.779 -0.0807 -0.2189 -0.5646
   10CHL1  H18A  694   1.648   2.171   4.736 -0.9280  0.2799  1.5770
   10CHL1  H18B  695   1.739   2.018   4.703 -0.3099 -1.1743  0.3398
   10CHL1  H18C  696   1.668   2.060   4.871 -0.9487  1.2953 -0.4008
   10CHL1   C12  697   1.947   2.059   4.863 -0.2253  0.1790 -0.4349
   10CHL1  H12A  698   1.943   1.979   4.786 -1.8665 -0.7764  0.5708
   10CHL1  H12B  699   2.047   2.105   4.880  0.2896 -0.1330 -2.3416
   10CHL1   C11  700   1.900   1.989   4.989  0.7142  1.0307 -0.3253
   10CHL1  H11A  701   1.806   1.935   4.966  0.1503  1.1467  1.5926
   10CHL1  H11B  702   1.964   1.904   5.022  0.9518  0.3006 -2.4451
   10CHL1    C9  703   1.871   2.081   5.101 -0.1923  0.2064 -1.0419
   10CHL1    H9  704   1.962   2.135   5.136 -0.4035 -0.0075 -0.1277
   10CHL1   C10  705   1.814   2.006   5.229  0.2091  0.3244 -0.2355
   10CHL1   C19  706   1.692   1.923   5.199 -0.3334  0.1390  0.0040
   10CHL1  H19A  707   1.705   1.835   5.132 -0.7007 -1.6470  2.1423
   10CHL1  H19B  708   1.642   1.881   5.289 -2.5535  3.1812  0.3394
   10CHL1  H19C  709   1.621   1.986   5.142 -0.8463 -1.8347 -1.6914
   10CHL1    C1  710   1.917   1.907   5.287 -0.1734  0.1437 -0.4995
   10CHL1   H1A  711   1.949   1.832   5.211  1.6470  0.1544  0.2146
   10CHL1   H1B  712   2.003   1.974   5.306 -1.4364  1.1613  2.1401
   10CHL1    C2  713   1.874   1.825   5.414  1.0766 -0.8044  0.2791
   10CHL1   H2A  714   1.969   1.772   5.436  1.5953 -0.0085  0.0284
   10CHL1   H2B  715   1.791   1.753   5.404  1.6010 -1.4434  0.4513
   10CHL1   C20  716   1.874   2.233   4.556  0.5403  0.0303  0.3884
   10CHL1   H20  717   1.770   2.204   4.530  0.4090  1.3824 -0.7195
   10CHL1   C21  718   1.967   2.115   4.519  0.1811  0.5986  0.4852
   10CHL1  H21A  719   2.072   2.147   4.534  1.1205 -2.7001  1.7394
   10CHL1  H21B  720   1.960   2.091   4.411 -0.5650 -0.5489  0.7769
   10CHL1  H21C  721   1.950   2.024   4.579 -3.5287  0.5383 -0.3821
   10CHL1   C22  722   1.896   2.350   4.457  0.7748  0.4413  0.3099
   10CHL1  H22A  723   1.862   2.446   4.502 -0.2313  0.8721 -1.2924
   10CHL1  H22B  724   2.004   2.363   4.438  1.0496  0.4330  1.7275
   10CHL1   C23  725   1.824   2.319   4.319 -0.4043 -0.4055  0.4579
   10CHL1  H23A  726   1.840   2.212   4.293  1.3817  0.0123 -0.2741
   10CHL1  H23B  727   1.715   2.338   4.333 -0.3235 -0.1663  0.7959
   10CHL1   C24  728   1.845   2.412   4.196  0.1009  0.6996  0.0008
   10CHL1  H24A  729   1.793   2.360   4.113  1.2904 -1.0405  0.2665
   10CHL1  H24B  730   1.792   2.507   4.217 -0.8299  0.0701  0.5588
   10CHL1   C25  731   1.993   2.430   4.147 -0.4505 -0.2551  0.4438
   10CHL1   H25  732   2.060   2.475   4.223 -1.1953  0.9449  0.4308
   10CHL1   C26  733   2.053   2.300   4.108 -0.5426  0.9062 -0.2032
   10CHL1  H26A  734   2.091   2.246   4.198  0.5389  0.7280 -0.7556
   10CHL1  H26B  735   1.983   2.234   4.053 -0.2497 -0.2564  0.7751
   10CHL1  H26C  736   2.135   2.310   4.033 -1.1309  1.8988 -0.7271
   10CHL1   C27  737   1.998   2.519   4.028 -0.3659  0.3715  0.0122
   10CHL1  H27A  738   1.939   2.613   4.034 -0.3931  0.4342 -1.0356
   10CHL1  H27B  739   2.102   2.552   4.005 -0.7774  1.9513  0.2702
   10CHL1  H27C  740   1.960   2.472   3.935 -0.5967 -1.2945  0.9236
   11CHL1    C3  741   6.437   6.055   5.740 -0.4547 -0.8794  0.2571
   11CHL1    H3  742   6.448   5.944   5.749  1.9444 -0.6349  0.8598
   11CHL1    O3  743   6.421   6.107   5.870  0.0924 -0.2808 -0.2346
   11CHL1   H3'  744   6.345   6.063   5.909 -0.8119 -0.4996 -2.1254
   11CHL1    C4  745   6.567   6.121   5.682 -0.5523  0.5267  0.3397
   11CHL1   H4A  746   6.564   6.231   5.703 -2.0014  0.9138 -1.6562
   11CHL1   H4B  747   6.636   6.064   5.747 -0.2246  0.4121 -0.1026
   11CHL1    C5  748   6.579   6.084   5.537  0.5799 -0.1146  0.4983
   11CHL1    C6  749   6.690   6.020   5.487 -0.1125 -0.4969 -0.5185
   11CHL1    H6  750   6.768   5.982   5.554 -0.6453 -0.6185  0.0344
   11CHL1    C7  751   6.716   5.988   5.340  0.2191 -0.4991 -0.5449
   11CHL1   H7A  752   6.825   6.005   5.325  0.2402  1.5781  1.3800
   11CHL1   H7B  753   6.699   5.879   5.331  1.2463 -0.5877 -1.6105
   11CHL1    C8  754   6.629   6.073   5.249 -0.1389 -0.0880 -0.5501
   11CHL1    H8  755   6.664   6.178   5.253  2.5669 -0.7816 -2.5038
   11CHL1   C14  756   6.643   6.020   5.111 -0.0127 -0.0604 -0.5692
   11CHL1   H14  757   6.607   5.919   5.138  1.3191 -0.2341  0.7086
   11CHL1   C15  758   6.782   5.983   5.053 -0.3173  0.6586  0.6834
   11CHL1  H15A  759   6.851   6.068   5.075 -0.1522  0.2752  1.6953
   11CHL1  H15B  760   6.821   5.886   5.090 -1.4847 -0.6433 -1.3389
   11CHL1   C16  761   6.760   5.980   4.901 -0.0281  0.5598  0.2689
   11CHL1  H16A  762   6.821   6.066   4.866  2.5710 -0.9764  0.7202
   11CHL1  H16B  763   6.798   5.887   4.854 -1.4476 -0.7250  1.5543
   11CHL1   C17  764   6.606   6.015   4.880 -1.1405  0.0929 -0.2293
   11CHL1   H17  765   6.557   5.916   4.877  0.6616 -0.8400  0.0820
   11CHL1   C13  766   6.566   6.091   5.003  0.5304  0.9657 -0.2578
   11CHL1   C18  767   6.615   6.239   4.995 -0.4295  0.8301 -0.1548
   11CHL1  H18A  768   6.561   6.295   4.915  0.1890  1.6294 -0.0287
   11CHL1  H18B  769   6.586   6.295   5.087  0.9363 -0.5706  1.1707
   11CHL1  H18C  770   6.724   6.243   4.977 -0.1209  0.8631  1.5041
   11CHL1   C12  771   6.414   6.069   5.050 -0.1393  0.3717  0.2116
   11CHL1  H12A  772   6.347   6.121   4.978 -1.6750  0.7283  1.8448
   11CHL1  H12B  773   6.400   5.958   5.054  1.1812  0.2260  1.6207
   11CHL1   C11  774   6.389   6.124   5.186 -0.7661  0.0941 -0.1917
   11CHL1  H11A  775   6.379   6.234   5.192  1.3592  0.2287  2.9806
   11CHL1  H11B  776   6.282   6.099   5.203 -0.2650 -0.4239  2.7884
   11CHL1    C9  777   6.480   6.065   5.294  0.5016  0.4662  0.3992
   11CHL1    H9  778   6.459   5.957   5.309  1.2298  0.3392  0.5391
   11CHL1   C10  779   6.465   6.120   5.443  0.6956 -0.6070  0.5734
   11CHL1   C19  780   6.468   6.278   5.445  0.3863  0.3197  0.6719
   11CHL1  H19A  781   6.372   6.318   5.406  0.5891 -0.1234 -0.3141
   11CHL1  H19B  782   6.476   6.333   5.541  3.3333 -0.2675  0.8767
   11CHL1  H19C  783   6.556   6.316   5.389  0.2317  0.7477  0.7148
   11CHL1    C1  784   6.333   6.065   5.505  0.1380  0.3325 -0.0516
   11CHL1   H1A  785   6.246   6.101   5.446 -0.0213 -1.5088 -1.0460
   11CHL1   H1B  786   6.333   5.957   5.478 -0.4144  0.1825  0.5350
   11CHL1    C2  787   6.305   6.083   5.654 -0.4539  0.2217  0.4834
   11CHL1   H2A  788   6.232   6.010   5.695 -0.8227  0.0975 -0.3763
   11CHL1   H2B  789   6.268   6.186   5.670  0.0817  0.5442 -0.3193
   11CHL1   C20  790   6.587   6.078   4.738  0.3871 -0.1473 -0.0236
   11CHL1   H20  791   6.645   6.173   4.737 -1.1918  0.9320  2.2087
   11CHL1   C21  792   6.440   6.114   4.706  0.0382  1.1528  0.1640
   11CHL1  H21A  793   6.438   6.138   4.598  1.1553 -0.1348 -0.1762
   11CHL1  H21B  794   6.392   6.199   4.758 -3.5053 -0.7909  0.4028
   11CHL1  H21C  795   6.383   6.021   4.728 -1.1647  2.0637  1.0375
   11CHL1   C22  796   6.655   6.000   4.621 -0.4784  0.6189 -0.1796
   11CHL1  H22A  797   6.652   6.067   4.532 -3.6274  2.3638  1.0894
   11CHL1  H22B  798   6.760   5.971   4.646 -0.6977  1.4130  1.7602
   11CHL1   C23  799   6.579   5.874   4.579 -0.3189 -0.0705 -0.6441
   11CHL1  H23A  800   6.578   5.816   4.674  2.0818 -1.6312 -1.4917
   11CHL1  H23B  801   6.473   5.897   4.557 -1.3674 -0.9044  2.8936
   11CHL1   C24  802   6.647   5.786   4.471  0.7268  0.6216  0.0793
   11CHL1  H24A  803   6.738   5.735   4.510  0.6759  0.5794  0.1431
   11CHL1  H24B  804   6.576   5.704   4.448  0.2390  1.1582 -0.3454
   11CHL1   C25  805   6.678   5.857   4.339  0.0477  0.5690 -0.2402
   11CHL1   H25  806   6.743   5.945   4.358  0.9339  0.2855 -1.7666
   11CHL1   C26  807   6.738   5.758   4.242 -0.5669  0.2869 -0.5156
   11CHL1  H26A  808   6.773   5.805   4.148 -1.3508 -2.2748 -2.2181
   11CHL1  H26B  809   6.820   5.706   4.296  1.3841  0.7516 -2.8927
   11CHL1  H26C  810   6.657   5.693   4.201  1.2440 -1.3592 -1.6873
   11CHL1   C27  811   6.556   5.924   4.278 -0.4759  0.2587  0.4922
   11CHL1  H27A  812   6.481   5.845   4.254  0.7447 -0.8263  0.1022
   11CHL1  H27B  813   6.514   5.995   4.352  0.1326  1.6444 -0.4440
   11CHL1  H27C  814   6.593   5.974   4.186  2.5666  1.0126  1.9906
   12CHL1    C3  815   1.427   4.653   5.621 -0.3166  0.3726 -0.5915
   12CHL1    H3  816   1.531   4.638   5.587 -0.2545  1.0715 -0.7198
   12CHL1    O3  817   1.420   4.693   5.766  0.1498  0.0196  0.5504
   12CHL1   H3'  818   1.486   4.760   5.786  0.8290 -1.0261  2.0455
   12CHL1    C4  819   1.371   4.775   5.532 -0.1576 -0.3511 -0.1503
   12CHL1   H4A  820   1.280   4.798   5.590  1.0576 -2.7477  3.0190
   12CHL1   H4B  821   1.445   4.856   5.551  1.2175 -1.8326  1.0774
   12CHL1    C5  822   1.356   4.748   5.383 -0.2942  0.0608 -0.7894
   12CHL1    C6  823   1.419   4.832   5.304  0.3776 -0.3959 -0.1255
   12CHL1    H6  824   1.474   4.917   5.346 -0.3418  0.4750 -0.8985
   12CHL1    C7  825   1.433   4.812   5.156 -0.3552  0.0235  0.3870
   12CHL1   H7A  826   1.412   4.908   5.105  0.0217  0.3354  0.8054
   12CHL1   H7B  827   1.538   4.784   5.134  0.1101  1.1805  1.0713
   12CHL1    C8  828   1.326   4.708   5.106 -0.0575  0.0265 -0.2324
   12CHL1    H8  829   1.231   4.764   5.122  0.0666  0.2023 -0.1038
   12CHL1   C14  830   1.360   4.674   4.964  0.1127  0.1276  0.4453
   12CHL1   H14  831   1.455   4.616   4.964 -0.8369 -1.5649  2.8177
   12CHL1   C15  832   1.368   4.780   4.859  0.9470 -0.2061 -0.0801
   12CHL1  H15A  833   1.283   4.851   4.871  1.5816  1.0752 -2.4233
   12CHL1  H15B  834   1.459   4.841   4.880  0.0504  1.1908 -0.1233
   12CHL1   C16  835   1.368   4.705   4.728  0.1422  0.2063 -0.4518
   12CHL1  H16A  836   1.320   4.764   4.647  0.1671  0.1223 -0.5281
   12CHL1  H16B  837   1.476   4.701   4.701  0.6009 -1.0875  1.3794
   12CHL1   C17  838   1.309   4.562   4.757 -0.7244 -0.1003  0.3287
   12CHL1   H17  839   1.393   4.490   4.760  0.1440  0.9169  2.4094
   12CHL1   C13  840   1.256   4.573   4.907 -0.4586  0.0745  0.0977
   12CHL1   C18  841   1.108   4.624   4.907 -0.6749 -0.0770 -0.3207
   12CHL1  H18A  842   1.093   4.701   4.828 -1.2974 -0.6998 -0.8184
   12CHL1  H18B  843   1.042   4.541   4.873  2.5640 -2.5920 -0.9609
   12CHL1  H18C  844   1.077   4.663   5.006 -0.2194 -0.5913  0.0274
   12CHL1   C12  845   1.278   4.444   4.995 -0.4798 -0.0191  0.3146
   12CHL1  H12A  846   1.219   4.360   4.952  0.1193  0.7945 -2.2713
   12CHL1  H12B  847   1.384   4.410   4.987 -0.7109 -0.5589 -0.6065
   12CHL1   C11  848   1.245   4.466   5.142  0.8024 -0.5777  0.1782
   12CHL1  H11A  849   1.134   4.479   5.146  0.5082 -2.8988  1.6628
   12CHL1  H11B  850   1.269   4.382   5.211  1.0214 -1.5800 -1.0752
   12CHL1    C9  851   1.321   4.583   5.196  0.0537 -0.5141 -0.4211
   12CHL1    H9  852   1.427   4.552   5.188  0.2414  0.1556 -0.5809
   12CHL1   C10  853   1.289   4.620   5.347  0.6784  0.6706  0.7056
   12CHL1   C19  854   1.136   4.639   5.361  0.5782 -0.0745  0.2559
   12CHL1  H19A  855   1.087   4.689   5.274  1.0446 -0.9609 -0.5373
   12CHL1  H19B  856   1.085   4.543   5.383 -1.2822  0.8944  0.3615
   12CHL1  H19C  857   1.102   4.698   5.448  1.2039 -0.6151  0.8834
   12CHL1    C1  858   1.339   4.499   5.439 -0.4874 -0.1285  0.7429
   12CHL1   H1A  859   1.273   4.416   5.405  0.5943 -0.3700 -0.8640
   12CHL1   H1B  860   1.443   4.471   5.411 -0.9365  1.3549 -2.8650
   12CHL1    C2  861   1.340   4.529   5.587 -0.7859 -0.4250 -0.4367
   12CHL1   H2A  862   1.387   4.441   5.636 -2.0666 -1.1878 -0.5193
   12CHL1   H2B  863   1.238   4.546   5.629 -1.0160 -0.7097 -0.8743
   12CHL1   C20  864   1.207   4.519   4.655  0.7661  0.8974 -0.1512
   12CHL1   H20  865   1.116   4.581   4.659  0.4452  0.3968  0.6355
   12CHL1   C21  866   1.172   4.364   4.682  0.1717  0.0722  0.4721
   12CHL1  H21A  867   1.115   4.328   4.593  2.4072 -0.8666 -0.6454
   12CHL1  H21B  868   1.116   4.349   4.777  0.7945 -0.7877  0.7112
   12CHL1  H21C  869   1.260   4.298   4.675 -0.5840 -0.9284  0.2485
   12CHL1   C22  870   1.244   4.529   4.496 -0.7394 -0.0705 -0.4624
   12CHL1  H22A  871   1.161   4.479   4.441 -3.7799  2.4034  1.5201
   12CHL1  H22B  872   1.242   4.638   4.477 -2.9231  0.5899  2.7365
   12CHL1   C23  873   1.385   4.486   4.452  0.3861  0.1126 -0.3761
   12CHL1  H23A  874   1.461   4.563   4.478  1.6360 -1.3276  0.4539
   12CHL1  H23B  875   1.417   4.392   4.502 -2.0566 -0.3531  0.4091
   12CHL1   C24  876   1.391   4.477   4.301 -0.2124  0.4820  0.5672
   12CHL1  H24A  877   1.322   4.392   4.283  1.3630 -0.3764 -2.0748
   12CHL1  H24B  878   1.350   4.573   4.263  3.0008  2.2347  1.1055
   12CHL1   C25  879   1.531   4.446   4.237 -0.5359  0.0123  0.2436
   12CHL1   H25  880   1.589   4.532   4.275 -1.0119  0.1511  0.6728
   12CHL1   C26  881   1.605   4.315   4.278 -1.0850  0.1061  0.0835
   12CHL1  H26A  882   1.633   4.319   4.385 -1.0172  0.0137  0.0692
   12CHL1  H26B  883   1.551   4.222   4.252  0.3839 -0.4565 -1.1104
   12CHL1  H26C  884   1.704   4.307   4.229 -0.2135  1.1141  1.5937
   12CHL1   C27  885   1.527   4.457   4.083  0.5324  1.1830  0.2046
   12CHL1  H27A  886   1.496   4.360   4.039 -2.1410  2.8977 -2.1617
   12CHL1  H27B  887   1.451   4.528   4.044 -0.3255  0.6985  0.9511
   12CHL1  H27C  888   1.632   4.479   4.054  0.8088 -0.5537 -0.1968
   13CHL1    C3  889   6.839   5.100   5.314 -0.3823  0.0225  0.1264
   13CHL1    H3  890   6.838   4.990   5.301 -3.3629 -0.0517  0.1983
   13CHL1    O3  891   6.850   5.137   5.449 -0.2543  0.2990 -0.3239
   13CHL1   H3'  892   6.811   5.225   5.454  0.6777  0.7892 -1.1426
   13CHL1    C4  893   6.955   5.173   5.240 -0.3857 -0.1993  0.8026
   13CHL1   H4A  894   6.975   5.276   5.278 -0.2587  0.3432 -0.6541
   13CHL1   H4B  895   7.045   5.117   5.275  0.1846  1.0247  1.3485
   13CHL1    C5  896   6.942   5.167   5.087 -0.0356  0.1833  0.7266
   13CHL1    C6  897   7.037   5.115   5.006  0.1457  0.4808 -0.2814
   13CHL1    H6  898   7.123   5.063   5.052  1.3032  0.1616 -2.6298
   13CHL1    C7  899   7.031   5.119   4.857  0.3104  1.1115 -0.1430
   13CHL1   H7A  900   7.131   5.147   4.818 -0.5551  0.9690 -2.6574
   13CHL1   H7B  901   7.011   5.020   4.811 -0.2426  0.4787  1.3918
   13CHL1    C8  902   6.921   5.221   4.810  0.5428  0.7272  0.4661
   13CHL1    H8  903   6.963   5.320   4.837  0.9483  0.3039  1.4360
   13CHL1   C14  904   6.900   5.210   4.662  0.6561 -0.1161 -0.1700
   13CHL1   H14  905   6.851   5.112   4.643 -0.8795  0.3580  1.1507
   13CHL1   C15  906   7.028   5.213   4.574  0.6466 -0.3822  0.2222
   13CHL1  H15A  907   7.103   5.289   4.606  1.4924 -0.6277 -1.1062
   13CHL1  H15B  908   7.073   5.112   4.568 -1.5115 -1.4036  0.3274
   13CHL1   C16  909   6.968   5.252   4.436  0.3531  0.4130  0.6768
   13CHL1  H16A  910   7.017   5.348   4.411 -0.1253  0.2576 -1.0075
   13CHL1  H16B  911   6.973   5.175   4.356  1.5851 -0.5630  1.6529
   13CHL1   C17  912   6.812   5.277   4.453  0.4625 -0.3781  0.3682
   13CHL1   H17  913   6.757   5.183   4.435 -0.1543  0.2076 -0.9626
   13CHL1   C13  914   6.800   5.306   4.603 -0.4373  0.2643 -0.0720
   13CHL1   C18  915   6.848   5.456   4.635 -0.6757 -0.2484  0.4259
   13CHL1  H18A  916   6.775   5.530   4.596  1.0655  1.1692 -0.3061
   13CHL1  H18B  917   6.856   5.468   4.745 -2.4997  0.5188  0.5085
   13CHL1  H18C  918   6.945   5.469   4.581 -0.1184 -2.1567  0.9051
   13CHL1   C12  919   6.663   5.282   4.677 -0.2172 -0.1300  0.2348
   13CHL1  H12A  920   6.592   5.363   4.647 -0.0485  0.0633  0.3535
   13CHL1  H12B  921   6.621   5.182   4.655 -0.2966  0.0346 -0.4037
   13CHL1   C11  922   6.671   5.297   4.829 -0.5855 -0.2676  0.7780
   13CHL1  H11A  923   6.684   5.406   4.851 -3.3932 -0.0654  1.7641
   13CHL1  H11B  924   6.574   5.268   4.874 -1.0051  1.5361  1.1112
   13CHL1    C9  925   6.790   5.211   4.887 -0.2604  0.1080  0.4685
   13CHL1    H9  926   6.760   5.104   4.884 -0.0520  0.0228  1.2413
   13CHL1   C10  927   6.810   5.225   5.040  0.0658  0.7836  0.0987
   13CHL1   C19  928   6.804   5.380   5.075 -0.7469  0.6283  0.2508
   13CHL1  H19A  929   6.821   5.393   5.184  1.6296 -1.0552  0.1766
   13CHL1  H19B  930   6.882   5.429   5.012  1.0967 -0.9555  1.1785
   13CHL1  H19C  931   6.706   5.427   5.055  0.5476  2.3230 -2.9017
   13CHL1    C1  932   6.697   5.139   5.116 -0.8253  0.0602  0.7747
   13CHL1   H1A  933   6.602   5.184   5.081 -0.4541 -0.3731 -0.8552
   13CHL1   H1B  934   6.683   5.030   5.102 -2.3657 -0.0095  2.5129
   13CHL1    C2  935   6.705   5.156   5.265  0.1064  0.2462  0.3757
   13CHL1   H2A  936   6.632   5.087   5.313 -0.2817  0.3296 -0.0942
   13CHL1   H2B  937   6.672   5.258   5.294  1.3186  1.0207 -0.9151
   13CHL1   C20  938   6.757   5.383   4.353 -0.0097  0.3034  0.1617
   13CHL1   H20  939   6.810   5.480   4.360 -0.3262  0.5019 -0.1902
   13CHL1   C21  940   6.609   5.406   4.371 -0.4021  0.5968  0.6647
   13CHL1  H21A  941   6.590   5.486   4.445  2.2759  1.9436  0.0468
   13CHL1  H21B  942   6.557   5.313   4.402 -1.6339  1.4179  1.1249
   13CHL1  H21C  943   6.559   5.439   4.277 -1.3641  3.3512  2.0524
   13CHL1   C22  944   6.784   5.322   4.209  0.4070 -0.0833  0.3363
   13CHL1  H22A  945   6.882   5.270   4.203  1.5287  1.9649 -0.0669
   13CHL1  H22B  946   6.706   5.243   4.206  0.7423 -0.4272  0.6027
   13CHL1   C23  947   6.784   5.428   4.099 -0.1125  0.4839  0.1432
   13CHL1  H23A  948   6.679   5.464   4.086 -1.6206 -3.0553  1.1650
   13CHL1  H23B  949   6.856   5.507   4.127 -0.1494  0.5439  0.0699
   13CHL1   C24  950   6.829   5.368   3.967  0.0513 -0.2064  0.4753
   13CHL1  H24A  951   6.931   5.332   3.994 -0.4337 -2.2561 -0.2031
   13CHL1  H24B  952   6.763   5.281   3.947  0.4706 -0.5231  0.4492
   13CHL1   C25  953   6.834   5.474   3.854 -0.8131  0.3715  0.2741
   13CHL1   H25  954   6.846   5.419   3.758  0.9585  1.8870 -0.4409
   13CHL1   C26  955   6.700   5.556   3.842  0.4385  0.0480  0.8324
   13CHL1  H26A  956   6.710   5.624   3.754 -0.2953 -1.4190 -0.4265
   13CHL1  H26B  957   6.614   5.492   3.816  0.3405  0.2947  0.5426
   13CHL1  H26C  958   6.687   5.619   3.932  2.1624 -1.3518  2.1354
   13CHL1   C27  959   6.945   5.581   3.879  0.8105  0.2317  0.2053
   13CHL1  H27A  960   6.903   5.645   3.959 -0.8512 -0.0182 -0.4292
   13CHL1  H27B  961   7.033   5.529   3.923  0.8037 -0.6463 -0.7666
   13CHL1  H27C  962   6.967   5.638   3.786  1.5119 -0.9571 -0.3955
   14CHL1    C3  963   5.596   1.385   5.638 -0.4585 -0.9226  0.1269
   14CHL1    H3  964   5.653   1.296   5.602 -0.9586 -1.3045  0.2714
   14CHL1    O3  965   5.624   1.422   5.769  0.2985  0.3446 -0.0121
   14CHL1   H3'  966   5.547   1.393   5.817  0.2046  0.6796  0.0469
   14CHL1    C4  967   5.635   1.504   5.542 -0.0498 -0.3741 -0.6211
   14CHL1   H4A  968   5.589   1.600   5.574 -0.5612 -0.7021 -0.3775
   14CHL1   H4B  969   5.744   1.515   5.563  0.0398 -2.7734  0.3819
   14CHL1    C5  970   5.594   1.472   5.401  0.4334  0.3056 -0.1237
   14CHL1    C6  971   5.677   1.460   5.300 -0.5992  0.0549 -0.2263
   14CHL1    H6  972   5.783   1.476   5.327 -0.9034  1.8802 -0.0300
   14CHL1    C7  973   5.644   1.432   5.156  0.0174  0.1532 -0.4316
   14CHL1   H7A  974   5.692   1.504   5.087  0.1168  0.5251  0.0198
   14CHL1   H7B  975   5.679   1.329   5.132  0.8204  0.7277 -1.8502
   14CHL1    C8  976   5.487   1.461   5.133 -0.3456  0.3126 -0.1650
   14CHL1    H8  977   5.474   1.569   5.155 -1.3872 -0.1281  1.5752
   14CHL1   C14  978   5.453   1.413   4.989 -0.0522 -0.2179 -0.3853
   14CHL1   H14  979   5.477   1.305   5.003 -1.0191 -0.1947  2.0200
   14CHL1   C15  980   5.534   1.457   4.862 -0.0090  0.3613  0.1218
   14CHL1  H15A  981   5.544   1.568   4.862  0.6935  0.3223 -1.0797
   14CHL1  H15B  982   5.637   1.414   4.867  0.1680  0.8022  0.3468
   14CHL1   C16  983   5.450   1.398   4.750  0.8067 -0.3506  0.6230
   14CHL1  H16A  984   5.426   1.484   4.684 -1.2570 -1.8081 -0.6551
   14CHL1  H16B  985   5.495   1.314   4.693 -0.5716 -1.5491  1.2287
   14CHL1   C17  986   5.308   1.359   4.807 -0.2342  0.1771 -0.5617
   14CHL1   H17  987   5.324   1.251   4.825  5.7409  0.9733  1.0788
   14CHL1   C13  988   5.307   1.419   4.944 -0.2299 -0.1425 -0.1745
   14CHL1   C18  989   5.256   1.569   4.931 -0.2826 -0.0013  0.3023
   14CHL1  H18A  990   5.287   1.628   5.020 -1.1993 -0.4553  0.9427
   14CHL1  H18B  991   5.302   1.621   4.845  0.3206  3.4271  2.5176
   14CHL1  H18C  992   5.147   1.575   4.909 -0.0088  1.7202 -0.7279
   14CHL1   C12  993   5.232   1.341   5.058  0.0174 -0.2139 -0.0403
   14CHL1  H12A  994   5.125   1.364   5.038  0.0131  2.1363  2.2099
   14CHL1  H12B  995   5.253   1.232   5.060 -1.7666 -0.6660 -1.9454
   14CHL1   C11  996   5.249   1.387   5.203  0.1079  0.0087 -0.3798
   14CHL1  H11A  997   5.211   1.490   5.222  2.1306  0.7223  0.1226
   14CHL1  H11B  998   5.201   1.310   5.266  0.3712 -1.0333 -1.4244
   14CHL1    C9  999   5.405   1.389   5.244  0.6606  0.0766  0.3524
   14CHL1    H9 1000   5.428   1.281   5.236 -2.5467 -0.5962 -1.6607
   14CHL1   C10 1001   5.443   1.438   5.386 -0.2503  0.3600  0.2108
   14CHL1   C19 1002   5.353   1.557   5.414 -0.0337  0.2101  0.3302
   14CHL1  H19A 1003   5.349   1.638   5.338 -0.9325 -0.7081 -0.6289
   14CHL1  H19B 1004   5.249   1.519   5.421  0.0137  0.0633  0.2482
   14CHL1  H19C 1005   5.370   1.598   5.516 -0.9605 -0.1887  0.6556
   14CHL1    C1 1006   5.416   1.327   5.481  0.2350  0.4562 -0.3540
   14CHL1   H1A 1007   5.313   1.293   5.460  0.4416 -1.2683  1.1194
   14CHL1   H1B 1008   5.482   1.242   5.452  0.0152 -0.5401  1.8104
   14CHL1    C2 1009   5.449   1.348   5.630  0.0501  0.3364  0.6747
   14CHL1   H2A 1010   5.427   1.255   5.687 -0.0453  0.5740  1.0283
   14CHL1   H2B 1011   5.386   1.436   5.656 -0.7581 -0.4107  1.3122
   14CHL1   C20 1012   5.193   1.382   4.706  0.3832  0.2016  0.0010
   14CHL1   H20 1013   5.183   1.492   4.697  1.0801  0.2444 -0.3123
   14CHL1   C21 1014   5.072   1.325   4.771 -0.4604 -0.1552  1.0299
   14CHL1  H21A 1015   5.088   1.218   4.796 -0.1076 -0.6089 -0.9619
   14CHL1  H21B 1016   4.986   1.329   4.700 -0.2075 -0.8891  0.6765
   14CHL1  H21C 1017   5.040   1.380   4.862  2.1260  0.3595  1.7004
   14CHL1   C22 1018   5.226   1.328   4.563  0.8614  0.2722  0.4194
   14CHL1  H22A 1019   5.319   1.372   4.522  0.4517 -0.3994 -1.3178
   14CHL1  H22B 1020   5.242   1.218   4.560  2.7298  0.5105  0.5096
   14CHL1   C23 1021   5.109   1.345   4.460 -0.3415 -0.1983  0.0316
   14CHL1  H23A 1022   5.011   1.308   4.497 -0.6916 -0.6813 -1.3236
   14CHL1  H23B 1023   5.105   1.455   4.450  1.2620  0.2838  3.4560
   14CHL1   C24 1024   5.150   1.269   4.332 -0.1564 -0.3921  0.8958
   14CHL1  H24A 1025   5.239   1.317   4.286  0.3845 -1.6790  0.5398
   14CHL1  H24B 1026   5.190   1.167   4.351 -3.1897 -1.4194  2.4435
   14CHL1   C25 1027   5.042   1.276   4.233  0.0944  0.3694  0.1714
   14CHL1   H25 1028   4.956   1.239   4.293 -0.1946  1.0365  0.1816
   14CHL1   C26 1029   5.010   1.417   4.187 -0.5500 -0.1109  0.1640
   14CHL1  H26A 1030   4.940   1.403   4.102  1.6587 -1.3978 -1.5428
   14CHL1  H26B 1031   4.955   1.474   4.264  0.4113  2.3139 -0.8404
   14CHL1  H26C 1032   5.102   1.471   4.155 -1.0740  1.0467  0.5588
   14CHL1   C27 1033   5.065   1.178   4.120 -0.3126 -0.1349  0.5782
   14CHL1  H27A 1034   5.083   1.080   4.168  1.6005 -0.3027 -0.4066
   14CHL1  H27B 1035   4.990   1.174   4.039  1.0620  2.2809 -0.9233
   14CHL1  H27C 1036   5.156   1.219   4.071 -1.3308  1.2966 -0.1952
   15CHL1    C3 1037   0.240   2.677   5.545  0.3596  0.3537  0.0832
   15CHL1    H3 1038   0.206   2.767   5.490 -0.0934  0.6023  0.7585
   15CHL1    O3 1039   0.209   2.686   5.688 -0.0906 -0.4142  0.1692
   15CHL1   H3' 1040   0.270   2.623   5.728  1.1786  0.8468  0.2858
   15CHL1    C4 1041   0.163   2.562   5.476 -0.2815  0.1015  0.5448
   15CHL1   H4A 1042   0.203   2.468   5.521 -1.6292 -0.3277  0.9129
   15CHL1   H4B 1043   0.054   2.560   5.499 -0.3186 -0.3831  0.3429
   15CHL1    C5 1044   0.194   2.560   5.326  0.0508 -1.1663  0.2280
   15CHL1    C6 1045   0.097   2.585   5.241  0.3384 -0.0458  0.3041
   15CHL1    H6 1046  -0.004   2.586   5.285  0.9228  2.0422  1.7312
   15CHL1    C7 1047   0.104   2.582   5.087  0.6174 -0.2563  1.1612
   15CHL1   H7A 1048   0.023   2.518   5.046  0.8772 -0.3794  0.8353
   15CHL1   H7B 1049   0.084   2.682   5.043  1.8083  0.0030  1.1691
   15CHL1    C8 1050   0.244   2.528   5.040  0.8268  0.3861  0.1349
   15CHL1    H8 1051   0.235   2.418   5.034 -2.5922  0.5976 -2.9375
   15CHL1   C14 1052   0.278   2.569   4.901  0.5407 -0.2847  0.3147
   15CHL1   H14 1053   0.282   2.679   4.915  0.8011 -0.6497  4.3087
   15CHL1   C15 1054   0.164   2.541   4.792 -0.2073  1.2085 -0.3250
   15CHL1  H15A 1055   0.131   2.443   4.834  0.9146  1.2145  0.5998
   15CHL1  H15B 1056   0.078   2.611   4.786  0.8108  2.6349  0.8601
   15CHL1   C16 1057   0.241   2.542   4.666  0.4111 -0.5383 -0.1710
   15CHL1  H16A 1058   0.242   2.437   4.628  0.8082 -1.0467  1.1721
   15CHL1  H16B 1059   0.204   2.612   4.589  1.1227  0.1830  0.1347
   15CHL1   C17 1060   0.392   2.577   4.696 -0.1475 -0.0696 -0.6026
   15CHL1   H17 1061   0.390   2.687   4.702  1.4936 -0.0789  1.5278
   15CHL1   C13 1062   0.415   2.524   4.847  0.7881  0.2653  0.6898
   15CHL1   C18 1063   0.425   2.368   4.848  0.1066 -0.2661  0.2722
   15CHL1  H18A 1064   0.518   2.325   4.803 -1.2328 -0.6905 -2.2953
   15CHL1  H18B 1065   0.440   2.332   4.952  1.0403  0.4861  0.4130
   15CHL1  H18C 1066   0.338   2.312   4.808 -0.8548  0.3252  1.4959
   15CHL1   C12 1067   0.525   2.587   4.931  0.1674  0.3784 -0.2056
   15CHL1  H12A 1068   0.626   2.545   4.908  0.3986  1.1443 -0.6334
   15CHL1  H12B 1069   0.538   2.697   4.919 -1.0345  0.4143 -1.4738
   15CHL1   C11 1070   0.496   2.562   5.081 -1.0171 -0.5750 -0.4023
   15CHL1  H11A 1071   0.524   2.455   5.092 -0.0457 -0.4818 -1.6481
   15CHL1  H11B 1072   0.568   2.625   5.138 -1.0878 -1.3223  0.5309
   15CHL1    C9 1073   0.351   2.580   5.131 -0.3819 -0.0535  0.0347
   15CHL1    H9 1074   0.342   2.691   5.123  0.5682 -0.0458 -1.1452
   15CHL1   C10 1075   0.339   2.550   5.287 -0.0707  0.2782  0.5729
   15CHL1   C19 1076   0.376   2.399   5.302  0.7266  0.1559  0.4886
   15CHL1  H19A 1077   0.365   2.374   5.409 -0.6018  2.3827  0.9388
   15CHL1  H19B 1078   0.301   2.346   5.239 -0.9405  1.2375  1.4779
   15CHL1  H19C 1079   0.477   2.370   5.266  0.7115 -1.7379  1.8612
   15CHL1    C1 1080   0.431   2.640   5.372  0.1860 -0.1894  0.0342
   15CHL1   H1A 1081   0.536   2.606   5.363  0.5584 -0.0914  3.0326
   15CHL1   H1B 1082   0.439   2.745   5.336 -0.5867 -0.0496  0.2444
   15CHL1    C2 1083   0.386   2.651   5.521 -0.2016  0.4107  0.1739
   15CHL1   H2A 1084   0.437   2.734   5.574 -2.5275  0.8885  1.7817
   15CHL1   H2B 1085   0.429   2.570   5.585  4.0534  3.9755  2.3693
   15CHL1   C20 1086   0.491   2.533   4.587 -0.3801  0.3800 -0.1945
   15CHL1   H20 1087   0.504   2.423   4.590 -0.7902  0.3394  1.3836
   15CHL1   C21 1088   0.630   2.589   4.615  0.9736 -0.4679 -0.5655
   15CHL1  H21A 1089   0.611   2.696   4.634 -1.6402 -0.9625 -0.1009
   15CHL1  H21B 1090   0.704   2.573   4.533  1.8408 -1.6283  0.4087
   15CHL1  H21C 1091   0.664   2.551   4.714 -1.4477  0.6437  0.7703
   15CHL1   C22 1092   0.438   2.566   4.445 -0.5562 -0.1888  0.4564
   15CHL1  H22A 1093   0.347   2.504   4.427 -1.0080  0.5928 -0.0228
   15CHL1  H22B 1094   0.403   2.671   4.439 -1.7881 -0.6781 -2.8303
   15CHL1   C23 1095   0.533   2.534   4.334 -0.2453 -0.6732  0.2972
   15CHL1  H23A 1096   0.619   2.605   4.329 -0.9371  0.0911 -2.0966
   15CHL1  H23B 1097   0.575   2.431   4.340  2.9071  0.4608 -0.0843
   15CHL1   C24 1098   0.467   2.542   4.189 -0.3293 -0.2137 -0.2971
   15CHL1  H24A 1099   0.364   2.499   4.180  0.2613 -2.1137  1.3189
   15CHL1  H24B 1100   0.459   2.648   4.156  1.4774 -0.5814 -2.1219
   15CHL1   C25 1101   0.544   2.471   4.079  0.1203  0.1126  0.0068
   15CHL1   H25 1102   0.470   2.476   3.996 -0.0536 -0.7627  0.1017
   15CHL1   C26 1103   0.672   2.545   4.049  0.3246  0.1272  0.1459
   15CHL1  H26A 1104   0.723   2.538   4.148 -3.4096 -2.1401  2.1523
   15CHL1  H26B 1105   0.730   2.496   3.969  0.0213  1.3191 -0.8319
   15CHL1  H26C 1106   0.645   2.650   4.026 -2.7468 -0.1512  1.8667
   15CHL1   C27 1107   0.573   2.323   4.103  0.2452 -0.3655 -0.6026
   15CHL1  H27A 1108   0.484   2.282   4.156  0.2942  1.3846  0.9389
   15CHL1  H27B 1109   0.577   2.267   4.007 -3.3637 -2.4669  0.2500
   15CHL1  H27C 1110   0.657   2.287   4.167  0.0402  0.0704 -0.0733
   16CHL1    C3 1111   4.924   0.108   5.978 -0.3195  0.4057 -0.9027
   16CHL1    H3 1112   4.917   0.219   5.980  0.1374  0.4281 -0.1103
   16CHL1    O3 1113   4.938   0.061   6.113  0.3212 -0.0859  0.4348
   16CHL1   H3' 1114   4.927  -0.034   6.123  0.7720  0.0548  2.9421
   16CHL1    C4 1115   4.808   0.036   5.913  0.1023 -0.2476 -1.1425
   16CHL1   H4A 1116   4.835  -0.069   5.937 -0.0980 -0.7034 -2.7705
   16CHL1   H4B 1117   4.711   0.052   5.963  0.0215 -2.1236 -0.6171
   16CHL1    C5 1118   4.791   0.063   5.759 -0.1802  0.3587 -0.2696
   16CHL1    C6 1119   4.678   0.115   5.708  0.0751  0.2869 -0.2411
   16CHL1    H6 1120   4.596   0.131   5.780 -0.0408 -1.7575  0.1230
   16CHL1    C7 1121   4.656   0.144   5.561 -0.4239 -0.2493  0.1463
   16CHL1   H7A 1122   4.556   0.103   5.532 -0.3144 -0.8640  0.6182
   16CHL1   H7B 1123   4.653   0.252   5.538  0.0099 -0.4082 -0.6955
   16CHL1    C8 1124   4.758   0.081   5.473 -0.5718  0.1243  0.3336
   16CHL1    H8 1125   4.743  -0.029   5.463 -0.3375  0.0113  1.1634
   16CHL1   C14 1126   4.765   0.135   5.332  0.1040 -0.3091 -0.0856
   16CHL1   H14 1127   4.781   0.245   5.337 -1.8027 -0.0421  1.5353
   16CHL1   C15 1128   4.632   0.124   5.249  0.1759  0.2838  0.4134
   16CHL1  H15A 1129   4.590   0.024   5.273  0.5687  0.1448  0.5325
   16CHL1  H15B 1130   4.547   0.190   5.272 -2.8452 -3.6326  1.6746
   16CHL1   C16 1131   4.672   0.126   5.100 -0.0830 -0.8624 -0.6643
   16CHL1  H16A 1132   4.643   0.039   5.038 -0.9108 -0.3690 -0.9927
   16CHL1  H16B 1133   4.643   0.220   5.048 -1.2667 -0.4855  0.6212
   16CHL1   C17 1134   4.832   0.138   5.108  0.5883 -0.5569 -0.0060
   16CHL1   H17 1135   4.850   0.247   5.117 -1.2634 -0.3304  1.8696
   16CHL1   C13 1136   4.873   0.076   5.245  0.0127 -0.3364  0.8683
   16CHL1   C18 1137   4.865  -0.082   5.230  0.0460  0.2747  0.1427
   16CHL1  H18A 1138   4.942  -0.123   5.161 -2.9356 -1.0966 -2.6394
   16CHL1  H18B 1139   4.885  -0.133   5.326 -1.0017 -1.4473 -0.5118
   16CHL1  H18C 1140   4.761  -0.106   5.201  0.7913  0.2853 -2.9373
   16CHL1   C12 1141   5.007   0.122   5.297 -0.0184  0.3683 -0.6231
   16CHL1  H12A 1142   5.092   0.081   5.239 -0.1922 -0.1078 -0.5465
   16CHL1  H12B 1143   5.009   0.232   5.282  2.5330  0.1142 -2.7626
   16CHL1   C11 1144   5.024   0.088   5.452  0.4202  0.5375 -0.3925
   16CHL1  H11A 1145   5.052  -0.019   5.461 -1.7166 -0.0504 -0.1797
   16CHL1  H11B 1146   5.107   0.144   5.502  0.4559 -1.8032  2.4093
   16CHL1    C9 1147   4.901   0.110   5.545 -0.3675  0.5307  0.3540
   16CHL1    H9 1148   4.896   0.218   5.568  0.4376  0.5969  0.2386
   16CHL1   C10 1149   4.919   0.040   5.680 -0.1461 -0.3128  0.9024
   16CHL1   C19 1150   4.940  -0.113   5.661 -0.4162  0.0564 -0.4765
   16CHL1  H19A 1151   4.853  -0.165   5.615 -1.0140  1.7624 -1.3560
   16CHL1  H19B 1152   5.026  -0.147   5.600  0.8357 -1.0461  1.7792
   16CHL1  H19C 1153   4.947  -0.165   5.759  1.4254 -0.1528 -0.6857
   16CHL1    C1 1154   5.042   0.100   5.755  0.7862 -0.1869 -0.1408
   16CHL1   H1A 1155   5.130   0.074   5.694  0.2630 -3.6279  0.3906
   16CHL1   H1B 1156   5.034   0.211   5.755 -1.1848 -0.2784  0.2980
   16CHL1    C2 1157   5.055   0.064   5.904 -0.6935 -0.1867  0.1522
   16CHL1   H2A 1158   5.139   0.126   5.944 -1.9892  2.5574 -1.0982
   16CHL1   H2B 1159   5.071  -0.045   5.916 -4.0385 -0.8817 -0.7342
   16CHL1   C20 1160   4.895   0.086   4.973  0.4527  0.1690 -0.2491
   16CHL1   H20 1161   4.868  -0.020   4.959 -1.4146  0.2986  1.8297
   16CHL1   C21 1162   5.046   0.096   4.969  0.0173 -0.0854  0.0071
   16CHL1  H21A 1163   5.088   0.072   4.869 -1.8968 -1.1872 -0.5878
   16CHL1  H21B 1164   5.089   0.017   5.035  2.0449  0.5466 -0.4791
   16CHL1  H21C 1165   5.083   0.191   5.012  1.2342  0.1353 -1.4271
   16CHL1   C22 1166   4.838   0.162   4.858 -0.4315 -0.0028  0.3437
   16CHL1  H22A 1167   4.884   0.133   4.761 -0.8767  1.8336 -0.4580
   16CHL1  H22B 1168   4.734   0.126   4.842  0.0135 -1.8331  1.2607
   16CHL1   C23 1169   4.850   0.310   4.866 -0.0619  0.1433  0.8666
   16CHL1  H23A 1170   4.789   0.350   4.950 -1.3337 -1.5372  0.8055
   16CHL1  H23B 1171   4.950   0.356   4.870 -0.7256  2.3823 -3.0563
   16CHL1   C24 1172   4.782   0.355   4.736  0.1369 -0.0836 -0.3247
   16CHL1  H24A 1173   4.863   0.344   4.660  0.4562 -3.0650  0.3408
   16CHL1  H24B 1174   4.697   0.288   4.712  0.2379 -0.0094 -0.9053
   16CHL1   C25 1175   4.727   0.497   4.733 -0.4705  1.3895  0.5997
   16CHL1   H25 1176   4.648   0.513   4.809 -1.5826 -1.8503  0.2395
   16CHL1   C26 1177   4.839   0.601   4.743  0.0022 -0.4581 -0.6445
   16CHL1  H26A 1178   4.904   0.586   4.831 -0.2568  1.2032 -0.1329
   16CHL1  H26B 1179   4.914   0.579   4.664 -0.1830 -0.0191 -0.9487
   16CHL1  H26C 1180   4.801   0.705   4.730 -2.8970 -1.2038  1.0206
   16CHL1   C27 1181   4.650   0.512   4.598  0.1993  0.5690  0.2063
   16CHL1  H27A 1182   4.571   0.435   4.587 -1.2361  2.0442 -0.1578
   16CHL1  H27B 1183   4.608   0.614   4.601 -0.0752  0.4698  2.9788
   16CHL1  H27C 1184   4.721   0.486   4.516 -1.0348 -1.8740 -0.1935
   17CHL1    C3 1185   0.626   5.547   5.504 -0.4115 -0.6487 -0.2058
   17CHL1    H3 1186   0.542   5.617   5.484  0.9348  0.4641 -2.3466
   17CHL1    O3 1187   0.644   5.529   5.643 -0.5491  0.3743  0.1553
   17CHL1   H3' 1188   0.621   5.438   5.663  0.5145 -0.1800 -0.9798
   17CHL1    C4 1189   0.600   5.414   5.433  0.4278 -0.1784 -0.1138
   17CHL1   H4A 1190   0.687   5.345   5.447 -0.6167 -1.1910  1.6999
   17CHL1   H4B 1191   0.510   5.365   5.475  0.9193 -0.4052  0.6935
   17CHL1    C5 1192   0.600   5.419   5.280 -0.1217  0.9150  0.0414
   17CHL1    C6 1193   0.494   5.363   5.218  1.1634  0.0467  0.1635
   17CHL1    H6 1194   0.413   5.307   5.267  0.2309  0.2164 -1.1493
   17CHL1    C7 1195   0.484   5.351   5.066  0.4836 -0.3463  0.4681
   17CHL1   H7A 1196   0.468   5.244   5.039 -0.4839  0.3098 -1.8273
   17CHL1   H7B 1197   0.387   5.401   5.044  0.3603 -0.3766  0.9325
   17CHL1    C8 1198   0.617   5.394   4.990  0.1294  0.9067 -0.7552
   17CHL1    H8 1199   0.692   5.313   4.995  0.6427  1.4038 -0.2264
   17CHL1   C14 1200   0.597   5.418   4.848 -0.3973  0.0466  0.7380
   17CHL1   H14 1201   0.538   5.511   4.833  0.3706 -0.0249 -4.9227
   17CHL1   C15 1202   0.516   5.308   4.762  0.4619  0.4845 -0.3407
   17CHL1  H15A 1203   0.553   5.208   4.792 -0.9373 -0.0273 -0.2506
   17CHL1  H15B 1204   0.409   5.332   4.778  0.1508  0.6909 -2.4581
   17CHL1   C16 1205   0.553   5.345   4.614 -0.0972  0.0527 -0.0187
   17CHL1  H16A 1206   0.589   5.253   4.562  1.3279 -0.5742  1.9802
   17CHL1  H16B 1207   0.460   5.385   4.567 -1.3573  1.3002  3.2784
   17CHL1   C17 1208   0.660   5.456   4.619 -0.1285 -0.5436 -0.2405
   17CHL1   H17 1209   0.615   5.557   4.612  1.3740  0.3063  1.5266
   17CHL1   C13 1210   0.721   5.448   4.761 -0.3312 -0.5827 -0.8271
   17CHL1   C18 1211   0.835   5.345   4.768 -0.6056  0.5970  0.2432
   17CHL1  H18A 1212   0.799   5.260   4.707  0.7666  1.1028 -1.3577
   17CHL1  H18B 1213   0.922   5.399   4.724 -0.3081 -0.5166 -0.5843
   17CHL1  H18C 1214   0.856   5.312   4.872 -0.7134  1.6398  0.6148
   17CHL1   C12 1215   0.771   5.583   4.819  0.1553  0.2273  0.8208
   17CHL1  H12A 1216   0.865   5.612   4.766 -1.0746  1.9839 -0.5084
   17CHL1  H12B 1217   0.691   5.655   4.792  1.1473  1.4020  0.9179
   17CHL1   C11 1218   0.795   5.578   4.969  0.3188 -0.6133  0.2279
   17CHL1  H11A 1219   0.887   5.519   4.984  0.6555  0.4835  3.0820
   17CHL1  H11B 1220   0.828   5.675   5.014  0.3398 -0.7909  0.6006
   17CHL1    C9 1221   0.679   5.519   5.055  0.5606  0.5273 -0.1838
   17CHL1    H9 1222   0.603   5.599   5.042  0.7074  0.3910 -2.1908
   17CHL1   C10 1223   0.714   5.491   5.207 -0.2838  0.2905  0.4687
   17CHL1   C19 1224   0.837   5.402   5.213 -0.9026 -0.0800 -0.0468
   17CHL1  H19A 1225   0.931   5.451   5.182 -0.1137 -0.9403  0.9402
   17CHL1  H19B 1226   0.853   5.388   5.322 -0.0786  0.4900 -0.0897
   17CHL1  H19C 1227   0.819   5.309   5.155  0.0534  1.1807 -2.4881
   17CHL1    C1 1228   0.748   5.618   5.288  0.2296 -0.6331 -0.3812
   17CHL1   H1A 1229   0.848   5.653   5.253  0.6288  0.5224  1.7628
   17CHL1   H1B 1230   0.686   5.707   5.261 -0.2656 -0.2287  1.8989
   17CHL1    C2 1231   0.750   5.612   5.441 -0.4655  0.5760  0.4156
   17CHL1   H2A 1232   0.758   5.713   5.488 -1.1181  1.5440 -1.4188
   17CHL1   H2B 1233   0.832   5.540   5.459 -1.0249 -0.2283 -0.1636
   17CHL1   C20 1234   0.755   5.453   4.499 -0.7649 -0.4336  0.7184
   17CHL1   H20 1235   0.804   5.354   4.503  0.6008  0.2398  1.2572
   17CHL1   C21 1236   0.851   5.566   4.483  0.4807  0.1543  0.1011
   17CHL1  H21A 1237   0.921   5.561   4.398  1.7926 -1.6419  1.2083
   17CHL1  H21B 1238   0.922   5.573   4.568  1.2911 -0.0498 -0.5557
   17CHL1  H21C 1239   0.801   5.665   4.474  0.5075 -0.0245 -2.6568
   17CHL1   C22 1240   0.680   5.446   4.365 -0.0662 -0.4026 -0.0586
   17CHL1  H22A 1241   0.752   5.444   4.280 -1.5914 -1.5553 -1.3859
   17CHL1  H22B 1242   0.612   5.359   4.360 -1.1180  0.3779  0.1706
   17CHL1   C23 1243   0.591   5.568   4.334 -0.0521  0.3012 -0.2301
   17CHL1  H23A 1244   0.507   5.560   4.406 -1.2259  1.6163 -1.3916
   17CHL1  H23B 1245   0.643   5.665   4.347  0.0468  0.0907  1.0234
   17CHL1   C24 1246   0.535   5.573   4.189 -0.9764  0.7474  0.0769
   17CHL1  H24A 1247   0.491   5.674   4.173  0.7729  1.6182  0.5039
   17CHL1  H24B 1248   0.625   5.565   4.124  0.5160  1.5271  1.9553
   17CHL1   C25 1249   0.436   5.463   4.153 -0.2300 -0.7033 -0.4355
   17CHL1   H25 1250   0.484   5.370   4.189 -0.3245 -1.0199 -1.1195
   17CHL1   C26 1251   0.292   5.490   4.205  0.1909 -0.1517  0.0520
   17CHL1  H26A 1252   0.260   5.588   4.164 -1.3937 -1.1764 -1.2888
   17CHL1  H26B 1253   0.220   5.413   4.168 -0.8782  0.9575 -0.2309
   17CHL1  H26C 1254   0.292   5.491   4.316 -4.2593  0.0067  0.2425
   17CHL1   C27 1255   0.440   5.442   3.997  0.0833  1.0347 -0.2286
   17CHL1  H27A 1256   0.418   5.535   3.941 -0.7704  0.1986 -1.3254
   17CHL1  H27B 1257   0.534   5.390   3.969  1.3891  3.4045 -0.5181
   17CHL1  H27C 1258   0.356   5.371   3.981 -0.0848  1.1019  0.3416
   18CHL1    C3 1259   6.094   6.630   5.634  0.2026 -0.1679  1.2003
   18CHL1    H3 1260   5.995   6.582   5.649  1.8500 -4.1730  0.5082
   18CHL1    O3 1261   6.164   6.661   5.756 -0.3993  0.3036  0.0741
   18CHL1   H3' 1262   6.120   6.734   5.800 -0.7979 -0.8802  1.7240
   18CHL1    C4 1263   6.161   6.500   5.573 -1.8908  0.2495  0.0710
   18CHL1   H4A 1264   6.266   6.537   5.570 -1.9377  0.3612 -2.2380
   18CHL1   H4B 1265   6.155   6.410   5.638 -1.3492  0.0164 -0.1938
   18CHL1    C5 1266   6.118   6.469   5.436  0.3818 -0.3053  0.3606
   18CHL1    C6 1267   6.059   6.344   5.406 -0.3064 -0.5456 -0.1795
   18CHL1    H6 1268   6.053   6.271   5.488  0.3212  1.4501  1.7275
   18CHL1    C7 1269   6.026   6.308   5.260  0.1204  0.5595 -0.2693
   18CHL1   H7A 1270   6.056   6.204   5.235 -2.2672  0.5543 -3.8498
   18CHL1   H7B 1271   5.916   6.307   5.246 -0.2354  0.9773  2.0972
   18CHL1    C8 1272   6.090   6.407   5.153 -0.1172  0.4890 -0.0388
   18CHL1    H8 1273   6.196   6.382   5.135 -0.0913  1.1532 -0.8519
   18CHL1   C14 1274   6.021   6.389   5.019  0.4326 -0.1854  0.4150
   18CHL1   H14 1275   5.918   6.430   5.028  0.1935 -0.8681  0.8868
   18CHL1   C15 1276   6.004   6.246   4.967 -0.0309  0.4417  0.2350
   18CHL1  H15A 1277   6.086   6.184   5.009  0.0601  0.3764 -0.0415
   18CHL1  H15B 1278   5.907   6.206   5.002  0.5963 -2.1992 -0.7977
   18CHL1   C16 1279   6.000   6.265   4.815 -0.1817  0.0727  0.9090
   18CHL1  H16A 1280   6.089   6.212   4.776 -2.0087 -2.1942 -0.4276
   18CHL1  H16B 1281   5.910   6.218   4.770 -1.1406  0.8539  1.9533
   18CHL1   C17 1282   6.026   6.418   4.787  1.1465  0.0849  0.2241
   18CHL1   H17 1283   5.927   6.464   4.770  1.2604 -0.4238 -2.1354
   18CHL1   C13 1284   6.088   6.479   4.912  1.0701  0.1751 -0.3280
   18CHL1   C18 1285   6.243   6.447   4.900  0.2991 -0.0258 -0.4103
   18CHL1  H18A 1286   6.296   6.485   4.990  0.4127 -0.9749 -0.0637
   18CHL1  H18B 1287   6.259   6.337   4.901 -1.5585 -0.3274  0.8238
   18CHL1  H18C 1288   6.289   6.502   4.815  2.0236 -1.4964 -0.4714
   18CHL1   C12 1289   6.058   6.629   4.942  0.1619  0.1787 -0.4542
   18CHL1  H12A 1290   6.103   6.704   4.874 -1.0435  0.2183 -1.2467
   18CHL1  H12B 1291   5.948   6.642   4.928 -0.2193  0.2034  2.1107
   18CHL1   C11 1292   6.107   6.660   5.083  0.1405 -0.5182 -0.1097
   18CHL1  H11A 1293   6.216   6.674   5.073  0.6120 -2.7884  1.3521
   18CHL1  H11B 1294   6.067   6.759   5.115  3.5001  1.5162 -1.7506
   18CHL1    C9 1295   6.072   6.553   5.193 -0.6118 -0.3716  0.3728
   18CHL1    H9 1296   5.964   6.572   5.210 -1.1485  0.6065 -3.2873
   18CHL1   C10 1297   6.135   6.581   5.336 -0.7078 -0.0749 -0.5149
   18CHL1   C19 1298   6.292   6.609   5.313  0.3383  0.2865  0.8922
   18CHL1  H19A 1299   6.334   6.549   5.230 -2.5033  1.0799 -1.2681
   18CHL1  H19B 1300   6.300   6.715   5.281  1.9935  0.1439  0.7544
   18CHL1  H19C 1301   6.354   6.589   5.403  0.8429 -0.6895  0.3415
   18CHL1    C1 1302   6.050   6.695   5.399 -0.2426  1.1165 -0.5234
   18CHL1   H1A 1303   6.042   6.783   5.333 -0.2036  1.6833  0.2095
   18CHL1   H1B 1304   5.947   6.653   5.404 -0.2713  1.0536 -1.5995
   18CHL1    C2 1305   6.101   6.739   5.534 -0.3668 -0.4702  0.1447
   18CHL1   H2A 1306   6.043   6.831   5.558 -0.5776 -0.5862  0.0917
   18CHL1   H2B 1307   6.205   6.775   5.522 -0.4933  0.1904  0.9623
   18CHL1   C20 1308   6.097   6.445   4.652  0.6219 -0.0980 -0.3031
   18CHL1   H20 1309   6.203   6.413   4.665  0.2709 -0.7231  1.2784
   18CHL1   C21 1310   6.106   6.597   4.629  0.0284 -0.0748  0.6082
   18CHL1  H21A 1311   6.120   6.609   4.519 -0.4076  0.4949  0.6065
   18CHL1  H21B 1312   6.199   6.644   4.668 -1.3746  2.9944  0.6143
   18CHL1  H21C 1313   6.011   6.651   4.650 -0.5569 -0.0781 -1.7797
   18CHL1   C22 1314   6.029   6.374   4.528 -0.2335  0.7664  0.3732
   18CHL1  H22A 1315   6.003   6.272   4.561  2.0065  0.4267  1.2665
   18CHL1  H22B 1316   5.947   6.439   4.490 -3.9135 -2.3789  2.2217
   18CHL1   C23 1317   6.135   6.379   4.413 -0.7199  0.4485 -0.1884
   18CHL1  H23A 1318   6.145   6.479   4.366 -0.7525 -0.5406 -2.4289
   18CHL1  H23B 1319   6.237   6.353   4.449 -0.2860  0.4447 -1.3685
   18CHL1   C24 1320   6.098   6.283   4.301 -0.0025  0.5652 -0.0266
   18CHL1  H24A 1321   6.086   6.180   4.343 -2.0964  0.2472 -1.2673
   18CHL1  H24B 1322   6.001   6.308   4.254 -0.1058 -1.0266 -0.7458
   18CHL1   C25 1323   6.206   6.296   4.189 -0.0198 -0.9161  0.0994
   18CHL1   H25 1324   6.277   6.372   4.228 -0.2835 -0.5708 -0.0857
   18CHL1   C26 1325   6.289   6.164   4.186  0.0501 -0.5530 -0.0387
   18CHL1  H26A 1326   6.318   6.127   4.287  0.7021 -0.9705 -0.3751
   18CHL1  H26B 1327   6.224   6.096   4.127 -0.7935  0.8993 -0.8607
   18CHL1  H26C 1328   6.377   6.176   4.120 -0.6197  0.5533 -0.7744
   18CHL1   C27 1329   6.158   6.347   4.060  0.6605 -0.1123  0.8659
   18CHL1  H27A 1330   6.107   6.445   4.071  1.1112  0.2072  0.2163
   18CHL1  H27B 1331   6.238   6.357   3.983 -2.4077  1.2168 -2.4521
   18CHL1  H27C 1332   6.077   6.281   4.021  0.3559  0.2711  0.8476
   19CHL1    C3 1333   5.928   4.310   5.749  0.2015  0.0647 -0.2069
   19CHL1    H3 1334   5.876   4.218   5.781  0.6889 -0.0845  0.1668
   19CHL1    O3 1335   5.887   4.400   5.850  0.3388  0.1893  0.2095
   19CHL1   H3' 1336   5.794   4.381   5.866 -0.1291  2.8107  1.0072
   19CHL1    C4 1337   6.087   4.298   5.726  0.5192 -0.5097  0.3238
   19CHL1   H4A 1338   6.128   4.402   5.720 -0.8988  0.3201  3.0733
   19CHL1   H4B 1339   6.125   4.253   5.821 -2.2179  1.2380  2.4087
   19CHL1    C5 1340   6.127   4.228   5.594  0.4344 -0.3789 -0.4732
   19CHL1    C6 1341   6.208   4.118   5.597  0.0191 -0.8859  1.0969
   19CHL1    H6 1342   6.260   4.085   5.688  0.0432 -2.2924  0.5965
   19CHL1    C7 1343   6.239   4.027   5.484  0.1134 -0.7709  0.1620
   19CHL1   H7A 1344   6.340   3.982   5.479 -0.3804 -1.7673 -2.4131
   19CHL1   H7B 1345   6.166   3.943   5.488  0.8620 -1.3988  0.9481
   19CHL1    C8 1346   6.208   4.111   5.354 -0.7421  0.6985 -0.3089
   19CHL1    H8 1347   6.287   4.188   5.352 -0.1441  0.1331  0.8091
   19CHL1   C14 1348   6.235   4.021   5.229  0.4488 -0.2499 -0.1965
   19CHL1   H14 1349   6.165   3.936   5.244  1.7674 -1.2127  0.7752
   19CHL1   C15 1350   6.371   3.951   5.218  0.3685 -0.0367  0.6414
   19CHL1  H15A 1351   6.448   4.030   5.230 -1.8649  2.0115  2.5128
   19CHL1  H15B 1352   6.382   3.864   5.286 -0.5243 -1.1915 -0.6164
   19CHL1   C16 1353   6.379   3.907   5.067  0.0410 -0.3472 -0.1454
   19CHL1  H16A 1354   6.472   3.930   5.011  0.6725 -1.9517  0.1796
   19CHL1  H16B 1355   6.366   3.796   5.063 -1.0073 -0.2525  0.3363
   19CHL1   C17 1356   6.253   3.964   4.995 -0.1613 -0.1221 -0.1089
   19CHL1   H17 1357   6.176   3.885   5.009 -0.6039  0.0160 -1.5750
   19CHL1   C13 1358   6.210   4.085   5.092  0.0702  0.0319  0.9093
   19CHL1   C18 1359   6.312   4.194   5.052 -0.1188  0.0295 -0.4309
   19CHL1  H18A 1360   6.416   4.156   5.042 -0.0437 -0.0743  0.6594
   19CHL1  H18B 1361   6.287   4.224   4.948 -0.6888  0.4361 -0.1802
   19CHL1  H18C 1362   6.319   4.279   5.122  0.4629  0.5979 -1.1583
   19CHL1   C12 1363   6.056   4.120   5.097  0.1920 -0.3283  0.3544
   19CHL1  H12A 1364   6.029   4.156   4.996  0.3208  1.4080  0.9175
   19CHL1  H12B 1365   6.001   4.024   5.113 -1.4928  0.5797  0.2434
   19CHL1   C11 1366   6.031   4.225   5.211 -0.2105 -0.9311 -0.4468
   19CHL1  H11A 1367   6.096   4.312   5.186 -0.0726  0.1286  3.1536
   19CHL1  H11B 1368   5.926   4.262   5.211 -1.2832 -3.7650 -0.4458
   19CHL1    C9 1369   6.072   4.166   5.350  0.4919  0.2553 -0.4752
   19CHL1    H9 1370   6.005   4.079   5.368  0.4969  0.3623  0.0663
   19CHL1   C10 1371   6.050   4.272   5.465 -0.7668  0.3364 -0.5637
   19CHL1   C19 1372   6.111   4.412   5.425 -0.5525 -0.8370  0.7407
   19CHL1  H19A 1373   6.055   4.456   5.340  2.0063  0.8363 -0.1920
   19CHL1  H19B 1374   6.107   4.494   5.500 -0.5548  1.8563 -2.0324
   19CHL1  H19C 1375   6.212   4.405   5.380 -0.5874 -0.7812  0.6544
   19CHL1    C1 1376   5.901   4.274   5.500  0.2245  0.3173 -0.0094
   19CHL1   H1A 1377   5.835   4.314   5.420  0.2173  1.8249  0.7046
   19CHL1   H1B 1378   5.850   4.175   5.505 -0.3124  0.6504  2.1697
   19CHL1    C2 1379   5.867   4.365   5.619  0.2249  0.3577 -0.8024
   19CHL1   H2A 1380   5.759   4.381   5.639  0.5789  0.7211  1.0051
   19CHL1   H2B 1381   5.917   4.461   5.594 -1.1274  0.8122 -1.8999
   19CHL1   C20 1382   6.265   3.982   4.842 -0.2775 -0.4685  0.0729
   19CHL1   H20 1383   6.342   4.059   4.821 -0.3090 -0.9066 -1.8683
   19CHL1   C21 1384   6.145   4.037   4.777  0.3626 -0.0894  0.0382
   19CHL1  H21A 1385   6.170   4.053   4.670 -1.4308  1.5568 -0.1955
   19CHL1  H21B 1386   6.113   4.137   4.813 -0.9543  0.5365 -2.6162
   19CHL1  H21C 1387   6.056   3.972   4.766 -0.4519  0.9484  0.3449
   19CHL1   C22 1388   6.326   3.854   4.769  0.5109  0.4710 -0.4525
   19CHL1  H22A 1389   6.414   3.815   4.825  1.3699  1.6536 -0.9121
   19CHL1  H22B 1390   6.251   3.773   4.775 -0.6366  1.4337 -1.4433
   19CHL1   C23 1391   6.388   3.882   4.630 -0.6837 -0.5972 -0.1266
   19CHL1  H23A 1392   6.312   3.933   4.566  0.1976  1.3315  0.2817
   19CHL1  H23B 1393   6.480   3.944   4.640 -1.3159  0.8925 -2.5444
   19CHL1   C24 1394   6.435   3.747   4.560  0.4192  0.0609  0.2319
   19CHL1  H24A 1395   6.500   3.691   4.630 -1.3451 -2.0120  0.3146
   19CHL1  H24B 1396   6.346   3.685   4.536  0.2256  0.9837 -1.6025
   19CHL1   C25 1397   6.494   3.759   4.424 -0.0050  0.1236 -0.2148
   19CHL1   H25 1398   6.426   3.821   4.362 -2.0472  0.9371  2.6625
   19CHL1   C26 1399   6.634   3.827   4.422  0.4366  0.3309  0.3839
   19CHL1  H26A 1400   6.668   3.848   4.319  2.2110 -0.0003  0.8763
   19CHL1  H26B 1401   6.625   3.924   4.476 -1.4180  0.5658 -0.2742
   19CHL1  H26C 1402   6.712   3.765   4.472  0.1928  0.2506  0.6717
   19CHL1   C27 1403   6.502   3.615   4.365 -0.1537  0.8692  0.5028
   19CHL1  H27A 1404   6.529   3.616   4.257  0.1285  0.6682  0.5724
   19CHL1  H27B 1405   6.585   3.558   4.412 -0.6608 -2.2031 -1.9706
   19CHL1  H27C 1406   6.403   3.567   4.377 -0.5021  1.6851  1.0073
   20CHL1    C3 1407   4.564   5.659   5.748 -0.1161 -0.1927 -0.5096
   20CHL1    H3 1408   4.597   5.553   5.738 -0.7039 -0.4380  0.0954
   20CHL1    O3 1409   4.559   5.689   5.888 -0.0582 -0.2261 -0.0456
   20CHL1   H3' 1410   4.654   5.697   5.901  0.1615 -1.6951 -0.5158
   20CHL1    C4 1411   4.665   5.749   5.686  0.4850  0.4042 -0.5345
   20CHL1   H4A 1412   4.639   5.857   5.698  2.1274  0.8593 -0.7063
   20CHL1   H4B 1413   4.764   5.742   5.736 -0.3590  0.0407  1.1349
   20CHL1    C5 1414   4.675   5.732   5.531 -1.1079  0.0553 -0.5976
   20CHL1    C6 1415   4.795   5.703   5.476 -1.0552  0.2136  0.4251
   20CHL1    H6 1416   4.887   5.693   5.536 -0.5164  0.4632 -0.3383
   20CHL1    C7 1417   4.821   5.676   5.326 -0.3022 -0.0820 -0.1258
   20CHL1   H7A 1418   4.903   5.743   5.292  0.6276 -0.8687  0.5124
   20CHL1   H7B 1419   4.839   5.568   5.308 -0.6696 -0.2486  0.4827
   20CHL1    C8 1420   4.692   5.719   5.242 -0.3661 -0.0525 -0.5281
   20CHL1    H8 1421   4.691   5.829   5.229 -1.0695 -0.1648 -1.5768
   20CHL1   C14 1422   4.703   5.649   5.105  0.5811 -0.1862  0.1062
   20CHL1   H14 1423   4.696   5.539   5.120  1.3912 -0.0536  1.6661
   20CHL1   C15 1424   4.832   5.668   5.025  0.1099 -0.6431  0.2487
   20CHL1  H15A 1425   4.856   5.775   5.041  0.6720 -0.7129 -0.0841
   20CHL1  H15B 1426   4.923   5.614   5.057  2.4070  2.9370  0.3658
   20CHL1   C16 1427   4.786   5.631   4.884  0.0119 -0.0916 -0.0231
   20CHL1  H16A 1428   4.822   5.712   4.817  1.6915 -0.2463  0.6324
   20CHL1  H16B 1429   4.834   5.532   4.865 -1.0429 -0.4981 -0.6521
   20CHL1   C17 1430   4.629   5.613   4.880 -0.4578  0.4858 -0.8598
   20CHL1   H17 1431   4.597   5.510   4.907  2.5157 -0.6098 -1.1532
   20CHL1   C13 1432   4.588   5.688   5.013 -0.1443 -0.3489  0.6651
   20CHL1   C18 1433   4.597   5.844   4.988 -0.2281 -0.0945 -0.0299
   20CHL1  H18A 1434   4.582   5.905   5.080  0.5218  1.2668 -0.7654
   20CHL1  H18B 1435   4.701   5.867   4.954  0.3461 -2.2425  0.1619
   20CHL1  H18C 1436   4.534   5.872   4.901  1.2512  0.5997 -0.9250
   20CHL1   C12 1437   4.457   5.645   5.069 -0.1639 -0.0010  0.4520
   20CHL1  H12A 1438   4.363   5.678   5.020 -2.4901 -1.7734  3.3588
   20CHL1  H12B 1439   4.444   5.534   5.064  0.9237 -0.1038 -0.6936
   20CHL1   C11 1440   4.436   5.681   5.223 -0.4629  0.5209  0.3824
   20CHL1  H11A 1441   4.398   5.785   5.231 -0.3587  0.8347 -2.1915
   20CHL1  H11B 1442   4.353   5.611   5.248 -1.5955  1.6144 -0.2133
   20CHL1    C9 1443   4.561   5.674   5.316  0.4737 -0.2541  0.2110
   20CHL1    H9 1444   4.573   5.565   5.331 -0.1873 -0.2345  0.9718
   20CHL1   C10 1445   4.538   5.729   5.458 -0.6533 -0.2848 -0.6772
   20CHL1   C19 1446   4.487   5.875   5.453  0.5191  0.1003  0.8797
   20CHL1  H19A 1447   4.492   5.925   5.552  1.1197  0.5990  0.6037
   20CHL1  H19B 1448   4.538   5.929   5.371 -0.0456 -2.6271 -1.4554
   20CHL1  H19C 1449   4.382   5.872   5.416  0.4495  1.4024  0.9320
   20CHL1    C1 1450   4.437   5.642   5.532  0.3696 -0.2243  0.1471
   20CHL1   H1A 1451   4.337   5.654   5.485  0.2342 -2.1466 -0.1596
   20CHL1   H1B 1452   4.454   5.534   5.514 -1.3602 -0.2070 -1.9210
   20CHL1    C2 1453   4.427   5.672   5.680 -0.0033  0.0205 -0.3843
   20CHL1   H2A 1454   4.353   5.609   5.734  0.5552  0.3175  0.7667
   20CHL1   H2B 1455   4.399   5.776   5.704  1.8937  0.0817  2.0509
   20CHL1   C20 1456   4.573   5.660   4.741  0.3585  0.4628 -0.4606
   20CHL1   H20 1457   4.616   5.761   4.725  0.3638  0.9251  2.0358
   20CHL1   C21 1458   4.420   5.663   4.741 -0.5890 -0.4958 -0.0164
   20CHL1  H21A 1459   4.379   5.568   4.780  0.2528  0.1049  2.5084
   20CHL1  H21B 1460   4.382   5.694   4.641 -0.4280  0.2234  0.1362
   20CHL1  H21C 1461   4.384   5.742   4.811 -0.0565  1.7468 -2.1267
   20CHL1   C22 1462   4.622   5.571   4.624 -0.0220  0.6480 -0.6975
   20CHL1  H22A 1463   4.733   5.566   4.620  0.2355  0.5537  3.1655
   20CHL1  H22B 1464   4.581   5.468   4.630  0.3690  0.2414 -3.5497
   20CHL1   C23 1465   4.594   5.634   4.485  0.3162 -0.9770  0.3016
   20CHL1  H23A 1466   4.495   5.677   4.459  1.4792  1.1909 -0.8608
   20CHL1  H23B 1467   4.666   5.716   4.462 -0.7148 -0.7738 -2.5653
   20CHL1   C24 1468   4.616   5.528   4.380  0.5381  0.3182  0.0748
   20CHL1  H24A 1469   4.724   5.520   4.353  0.4483 -0.5275 -0.0862
   20CHL1  H24B 1470   4.587   5.425   4.412  0.6067 -0.0542 -1.0361
   20CHL1   C25 1471   4.537   5.554   4.253 -0.0430  0.5468 -0.9962
   20CHL1   H25 1472   4.433   5.534   4.288  0.1272 -1.1004 -1.3316
   20CHL1   C26 1473   4.573   5.690   4.190  0.2996 -0.3664  0.7520
   20CHL1  H26A 1474   4.677   5.688   4.152 -1.0660  0.8595 -3.6726
   20CHL1  H26B 1475   4.504   5.708   4.105  1.3384  1.6417  0.2876
   20CHL1  H26C 1476   4.569   5.771   4.266  4.5076  0.5936  0.1839
   20CHL1   C27 1477   4.562   5.450   4.142  0.0375 -0.7249  0.0335
   20CHL1  H27A 1478   4.550   5.352   4.191  0.5744  0.0750  1.8369
   20CHL1  H27B 1479   4.501   5.475   4.052 -2.0387 -2.1727  0.9514
   20CHL1  H27C 1480   4.669   5.459   4.115 -0.0689  0.9909  0.0293
   21CHL1    C3 1481   4.668   6.182   8.399 -0.3993  0.0428 -0.1759
   21CHL1    H3 1482   4.776   6.197   8.416 -0.4084  0.1760 -0.2343
   21CHL1    O3 1483   4.670   6.052   8.351 -0.0519  0.5073  0.2470
   21CHL1   H3' 1484   4.579   6.032   8.330  0.2752 -0.4237 -0.3423
   21CHL1    C4 1485   4.595   6.205   8.538 -0.3311  0.3314 -0.4495
   21CHL1   H4A 1486   4.488   6.176   8.531 -0.3128  0.5726 -2.6443
   21CHL1   H4B 1487   4.639   6.137   8.613 -2.7096 -1.7469 -0.7767
   21CHL1    C5 1488   4.594   6.356   8.586 -0.4257 -0.2589  1.1741
   21CHL1    C6 1489   4.638   6.396   8.704 -0.1903  0.6754 -0.2974
   21CHL1    H6 1490   4.663   6.333   8.790 -1.5574 -1.2837 -1.2712
   21CHL1    C7 1491   4.633   6.542   8.739  0.4123 -0.1745  0.1236
   21CHL1   H7A 1492   4.591   6.539   8.841  1.4029 -1.0297  0.5234
   21CHL1   H7B 1493   4.737   6.583   8.742  1.1925 -2.0723  1.3261
   21CHL1    C8 1494   4.532   6.623   8.660  0.1513 -0.4279 -0.2467
   21CHL1    H8 1495   4.435   6.576   8.686 -0.0427  0.8541  1.4714
   21CHL1   C14 1496   4.535   6.772   8.691  0.1832  0.0990 -0.2907
   21CHL1   H14 1497   4.642   6.802   8.684  0.4205 -0.4044  0.9901
   21CHL1   C15 1498   4.498   6.830   8.835  0.5210  0.1584 -0.4891
   21CHL1  H15A 1499   4.408   6.776   8.871 -0.5139  1.9103 -0.3264
   21CHL1  H15B 1500   4.577   6.811   8.911  2.0527  1.0899 -1.7799
   21CHL1   C16 1501   4.451   6.975   8.814 -0.4449  0.3200  0.0512
   21CHL1  H16A 1502   4.343   6.988   8.840 -0.0340  3.1426  0.6555
   21CHL1  H16B 1503   4.508   7.040   8.885  0.7249 -1.2363  0.5825
   21CHL1   C17 1504   4.466   7.001   8.663 -0.4590 -0.1478 -0.4676
   21CHL1   H17 1505   4.573   7.031   8.671 -0.3384 -0.6965  0.0462
   21CHL1   C13 1506   4.459   6.857   8.594  0.1938  0.4102  0.1918
   21CHL1   C18 1507   4.309   6.811   8.592  0.0957 -0.2705 -0.1853
   21CHL1  H18A 1508   4.251   6.876   8.523 -2.2339  0.2193  2.0951
   21CHL1  H18B 1509   4.296   6.706   8.559  0.8735 -1.0099  1.7364
   21CHL1  H18C 1510   4.280   6.830   8.698  1.0794  0.1174  0.0252
   21CHL1   C12 1511   4.530   6.848   8.459 -0.6357 -0.9197  0.3071
   21CHL1  H12A 1512   4.494   6.921   8.383 -0.4489 -2.2671 -1.1324
   21CHL1  H12B 1513   4.630   6.892   8.478 -0.4743 -0.9688 -0.3967
   21CHL1   C11 1514   4.527   6.704   8.412 -0.1956 -0.4624 -0.1905
   21CHL1  H11A 1515   4.420   6.688   8.386 -1.0944  3.0467  0.8677
   21CHL1  H11B 1516   4.586   6.682   8.320 -0.3462 -1.6841 -0.0092
   21CHL1    C9 1517   4.570   6.600   8.511 -0.2949 -0.2445 -0.5107
   21CHL1    H9 1518   4.680   6.620   8.508 -0.5104  1.5947  1.2845
   21CHL1   C10 1519   4.542   6.456   8.475 -0.1930  0.7617  0.1229
   21CHL1   C19 1520   4.393   6.425   8.465 -0.0006  0.1937  0.2054
   21CHL1  H19A 1521   4.372   6.316   8.462  0.0456  0.1746  0.5351
   21CHL1  H19B 1522   4.348   6.467   8.557 -2.8784  3.0222 -2.2722
   21CHL1  H19C 1523   4.340   6.464   8.376 -1.5732 -0.4941  0.8125
   21CHL1    C1 1524   4.612   6.426   8.335  0.0468 -0.2526 -0.0117
   21CHL1   H1A 1525   4.566   6.481   8.250 -1.0698 -1.4179 -0.1771
   21CHL1   H1B 1526   4.718   6.456   8.348 -0.3468  1.4753 -0.4867
   21CHL1    C2 1527   4.606   6.276   8.292  0.1183  0.0586  0.1612
   21CHL1   H2A 1528   4.667   6.263   8.200 -0.0261  1.1858 -0.1120
   21CHL1   H2B 1529   4.499   6.254   8.274  0.2483  0.5360 -1.3600
   21CHL1   C20 1530   4.396   7.122   8.605  0.0793 -0.7531 -0.5134
   21CHL1   H20 1531   4.303   7.085   8.557 -1.5858  1.0665  1.1531
   21CHL1   C21 1532   4.477   7.187   8.497  0.3448 -0.2799 -0.4509
   21CHL1  H21A 1533   4.557   7.117   8.463  1.9194  1.2883 -0.1105
   21CHL1  H21B 1534   4.529   7.281   8.524  1.8875 -1.5676  1.3778
   21CHL1  H21C 1535   4.409   7.202   8.411  0.0220 -3.1532 -0.7958
   21CHL1   C22 1536   4.354   7.234   8.702 -0.3589 -0.0261 -0.0923
   21CHL1  H22A 1537   4.298   7.188   8.785 -1.2671  1.7929  0.3572
   21CHL1  H22B 1538   4.452   7.277   8.732 -0.1096 -0.8759  0.3454
   21CHL1   C23 1539   4.261   7.353   8.656  0.3148  0.2050  0.1560
   21CHL1  H23A 1540   4.327   7.400   8.580 -0.1957  1.7758  0.6546
   21CHL1  H23B 1541   4.173   7.306   8.607 -2.6622  3.3081  2.1062
   21CHL1   C24 1542   4.227   7.437   8.777  0.4984  0.6975 -0.0454
   21CHL1  H24A 1543   4.183   7.374   8.857  0.0814  0.5853 -0.3562
   21CHL1  H24B 1544   4.320   7.490   8.806  1.1758  1.9826 -3.9802
   21CHL1   C25 1545   4.119   7.545   8.738  0.6705 -0.4076  0.1799
   21CHL1   H25 1546   4.106   7.604   8.831  3.6490 -1.6879  1.5174
   21CHL1   C26 1547   4.164   7.645   8.627  0.1519  0.0463 -0.5717
   21CHL1  H26A 1548   4.090   7.728   8.628 -0.3358 -0.3819  0.0518
   21CHL1  H26B 1549   4.268   7.674   8.652 -0.0426 -1.3289  2.2444
   21CHL1  H26C 1550   4.166   7.591   8.530 -0.0124 -0.1750 -0.4522
   21CHL1   C27 1551   3.978   7.491   8.698 -1.0831 -0.3227 -0.3162
   21CHL1  H27A 1552   3.990   7.426   8.609  2.2491  1.6022 -1.4479
   21CHL1  H27B 1553   3.934   7.433   8.781 -1.6653  1.2957  0.5474
   21CHL1  H27C 1554   3.899   7.564   8.670 -0.8716 -0.4394 -1.2786
   22CHL1    C3 1555   6.495   1.810   5.497  0.8620  0.2356 -0.3985
   22CHL1    H3 1556   6.571   1.890   5.486  0.1012  0.7665 -2.2321
   22CHL1    O3 1557   6.467   1.778   5.626 -0.3136  0.3549  0.4204
   22CHL1   H3' 1558   6.413   1.700   5.609  2.2375 -1.2371 -0.9887
   22CHL1    C4 1559   6.370   1.857   5.428  0.3768  0.0734 -0.1184
   22CHL1   H4A 1560   6.291   1.780   5.439  1.2316 -1.3155 -2.7021
   22CHL1   H4B 1561   6.344   1.947   5.486  1.1927  0.2168  0.0375
   22CHL1    C5 1562   6.390   1.879   5.281 -0.1268 -0.1444  1.0321
   22CHL1    C6 1563   6.365   2.003   5.236  0.6507 -0.7171 -0.0470
   22CHL1    H6 1564   6.331   2.080   5.306  1.0193 -0.0629 -0.5820
   22CHL1    C7 1565   6.360   2.039   5.090  0.7667 -0.4409  0.0757
   22CHL1   H7A 1566   6.265   2.092   5.065  1.3591  0.5591 -0.1432
   22CHL1   H7B 1567   6.450   2.102   5.070 -0.7225  1.7306 -0.2282
   22CHL1    C8 1568   6.368   1.909   5.006 -0.0017  0.2563  0.4021
   22CHL1    H8 1569   6.266   1.865   5.017  0.0271  0.6398  2.5103
   22CHL1   C14 1570   6.398   1.938   4.865  0.1146  0.1502  0.8855
   22CHL1   H14 1571   6.504   1.971   4.874  0.3013 -0.2437  0.1900
   22CHL1   C15 1572   6.333   2.055   4.785 -0.3587 -0.4250 -0.0451
   22CHL1  H15A 1573   6.225   2.050   4.809  0.2852  1.4928  4.3178
   22CHL1  H15B 1574   6.378   2.154   4.811  1.1412 -1.0280 -0.2493
   22CHL1   C16 1575   6.357   2.026   4.638  0.3797  0.7811 -0.0237
   22CHL1  H16A 1576   6.254   2.007   4.600 -0.3312 -0.8200  2.4581
   22CHL1  H16B 1577   6.412   2.113   4.598  1.9965 -0.7072 -1.2044
   22CHL1   C17 1578   6.436   1.895   4.630 -0.0133  0.0432 -0.6637
   22CHL1   H17 1579   6.543   1.926   4.637 -0.7386  2.4358  0.6069
   22CHL1   C13 1580   6.406   1.820   4.763  0.3985  0.6467  1.4508
   22CHL1   C18 1581   6.270   1.756   4.766 -0.8740  0.0630 -0.5147
   22CHL1  H18A 1582   6.196   1.833   4.737 -0.6694  0.5341  0.1952
   22CHL1  H18B 1583   6.258   1.672   4.694 -4.5493 -0.5948  0.6830
   22CHL1  H18C 1584   6.259   1.710   4.867  1.5912 -3.2747 -1.5737
   22CHL1   C12 1585   6.514   1.718   4.811 -0.0380  0.2813  0.0702
   22CHL1  H12A 1586   6.504   1.622   4.756  1.4648  0.2935 -0.2688
   22CHL1  H12B 1587   6.614   1.762   4.794 -0.0754  0.6382  0.7325
   22CHL1   C11 1588   6.489   1.687   4.957 -0.6395 -0.1397  0.4444
   22CHL1  H11A 1589   6.403   1.617   4.958 -1.7433  1.1763  1.5956
   22CHL1  H11B 1590   6.577   1.634   5.001 -1.4105  0.4673  2.9076
   22CHL1    C9 1591   6.477   1.803   5.058  0.4269 -0.4575 -0.5998
   22CHL1    H9 1592   6.577   1.853   5.062 -0.6820  1.8916  2.2865
   22CHL1   C10 1593   6.437   1.760   5.204  0.0753  0.3186  0.0601
   22CHL1   C19 1594   6.326   1.657   5.200 -1.0058 -0.0653  0.0887
   22CHL1  H19A 1595   6.364   1.559   5.165 -0.0332 -0.1880  1.3963
   22CHL1  H19B 1596   6.281   1.637   5.300 -1.0184  1.5427  0.4371
   22CHL1  H19C 1597   6.248   1.699   5.134 -0.1072 -0.4805 -1.2806
   22CHL1    C1 1598   6.570   1.716   5.278  0.2394 -0.3822  0.1132
   22CHL1   H1A 1599   6.606   1.620   5.236  0.1483  0.2148 -1.3700
   22CHL1   H1B 1600   6.647   1.795   5.270 -1.1534  0.9576 -0.7190
   22CHL1    C2 1601   6.542   1.682   5.426 -0.2305 -0.8621 -0.0029
   22CHL1   H2A 1602   6.638   1.645   5.466  0.4383  0.7136 -0.0729
   22CHL1   H2B 1603   6.473   1.594   5.429  1.0211 -2.1057 -3.1846
   22CHL1   C20 1604   6.428   1.818   4.499 -0.0315 -0.3894  0.0845
   22CHL1   H20 1605   6.346   1.742   4.505 -2.3195  1.8972 -0.4148
   22CHL1   C21 1606   6.549   1.735   4.485 -0.0899 -0.0187  0.0505
   22CHL1  H21A 1607   6.549   1.643   4.547  0.0879  0.5419  0.9045
   22CHL1  H21B 1608   6.645   1.789   4.506  1.3050 -2.4906  0.3570
   22CHL1  H21C 1609   6.561   1.692   4.384 -0.1677 -0.7723  0.3557
   22CHL1   C22 1610   6.413   1.903   4.376 -0.3448 -0.3080  0.2268
   22CHL1  H22A 1611   6.406   1.826   4.296  0.8701 -0.3209  0.1195
   22CHL1  H22B 1612   6.325   1.969   4.388  0.3034  0.4252  1.0977
   22CHL1   C23 1613   6.539   1.989   4.345  0.9709 -0.7505  0.1706
   22CHL1  H23A 1614   6.583   2.033   4.437  1.2917 -2.7457  1.0194
   22CHL1  H23B 1615   6.608   1.912   4.305  0.7056 -0.5992 -0.5924
   22CHL1   C24 1616   6.522   2.095   4.228  0.7654 -0.0326  0.1991
   22CHL1  H24A 1617   6.462   2.044   4.149 -1.4562  0.9332  1.1865
   22CHL1  H24B 1618   6.457   2.176   4.267  0.1602 -0.1538 -0.5257
   22CHL1   C25 1619   6.650   2.147   4.165 -0.1634 -0.6089  0.4850
   22CHL1   H25 1620   6.698   2.057   4.121 -1.4446 -1.9681  1.7309
   22CHL1   C26 1621   6.612   2.240   4.053  0.0266  0.2473 -0.5335
   22CHL1  H26A 1622   6.685   2.247   3.970  0.1271 -0.0080 -0.4674
   22CHL1  H26B 1623   6.519   2.214   3.997  1.9638  1.3222 -4.6230
   22CHL1  H26C 1624   6.583   2.343   4.085 -2.6105 -0.4833 -0.3464
   22CHL1   C27 1625   6.753   2.220   4.258  0.5210  0.1681  0.2031
   22CHL1  H27A 1626   6.699   2.304   4.306 -2.2073 -1.3548  0.0210
   22CHL1  H27B 1627   6.792   2.157   4.341  0.6604 -0.0977 -0.0628
   22CHL1  H27C 1628   6.843   2.251   4.201  2.4081 -2.1217  1.7539
   23CHL1    C3 1629   3.940   1.674   6.147  0.3093 -0.4351 -0.6961
   23CHL1    H3 1630   3.869   1.720   6.074  0.1921 -0.6923 -0.7431
   23CHL1    O3 1631   3.934   1.753   6.266  0.4071  0.3885 -0.1218
   23CHL1   H3' 1632   3.972   1.694   6.332 -1.4443 -0.4744  0.2663
   23CHL1    C4 1633   3.870   1.537   6.174  0.5165  0.5361 -0.7315
   23CHL1   H4A 1634   3.921   1.490   6.260 -0.8004  1.9895  0.9034
   23CHL1   H4B 1635   3.765   1.551   6.209 -0.0030 -0.0900 -1.9685
   23CHL1    C5 1636   3.874   1.454   6.049  0.0247  0.3767 -0.4916
   23CHL1    C6 1637   3.767   1.415   5.985  0.6586  0.3421 -0.4194
   23CHL1    H6 1638   3.675   1.439   6.040  0.4260 -2.1327  0.3857
   23CHL1    C7 1639   3.767   1.338   5.855  0.3484  0.2650  0.1704
   23CHL1   H7A 1640   3.695   1.254   5.855 -0.7557  1.1655 -0.5978
   23CHL1   H7B 1641   3.749   1.407   5.769  1.6619  0.0767 -0.2728
   23CHL1    C8 1642   3.905   1.271   5.817 -0.3532 -0.0136  0.5497
   23CHL1    H8 1643   3.927   1.181   5.879 -1.1656 -2.0897 -1.9514
   23CHL1   C14 1644   3.906   1.220   5.668 -0.0776 -0.1220 -0.2194
   23CHL1   H14 1645   3.889   1.312   5.607 -1.0047 -0.5070 -0.5627
   23CHL1   C15 1646   3.813   1.110   5.616  0.9160 -0.2383  0.2676
   23CHL1  H15A 1647   3.802   1.030   5.692 -1.2065 -3.0985 -2.7528
   23CHL1  H15B 1648   3.706   1.139   5.602  0.9848 -0.2485 -0.3273
   23CHL1   C16 1649   3.866   1.058   5.483  0.2444  0.5465  0.1051
   23CHL1  H16A 1650   3.864   0.947   5.478 -0.3182  0.5556  0.0431
   23CHL1  H16B 1651   3.792   1.098   5.410 -1.7065  1.0278  2.2221
   23CHL1   C17 1652   4.011   1.120   5.473  0.6458 -0.6794 -0.2834
   23CHL1   H17 1653   3.995   1.209   5.409 -4.2057 -1.4788 -0.5536
   23CHL1   C13 1654   4.045   1.175   5.620  0.5749  0.2917  0.3846
   23CHL1   C18 1655   4.089   1.052   5.707  0.3270 -0.3519  0.2160
   23CHL1  H18A 1656   4.187   1.017   5.667 -0.0208 -1.8493  0.6202
   23CHL1  H18B 1657   4.114   1.078   5.812  0.9854 -0.4436  0.0897
   23CHL1  H18C 1658   4.021   0.964   5.706 -1.0180  0.6439 -1.3545
   23CHL1   C12 1659   4.150   1.291   5.639 -0.1131  0.6957  0.4778
   23CHL1  H12A 1660   4.252   1.275   5.599  0.0089  1.2000  0.5689
   23CHL1  H12B 1661   4.110   1.375   5.577 -0.0714  1.0092  0.8706
   23CHL1   C11 1662   4.153   1.347   5.779 -0.1620 -0.3639  0.0738
   23CHL1  H11A 1663   4.202   1.276   5.850 -0.4797  0.9096  1.6115
   23CHL1  H11B 1664   4.210   1.442   5.773 -2.4249  1.0389 -0.4655
   23CHL1    C9 1665   4.016   1.378   5.841  0.8540 -0.4126 -0.8841
   23CHL1    H9 1666   3.986   1.464   5.777  0.9215  0.1132 -0.2169
   23CHL1   C10 1667   4.013   1.439   5.981 -0.3907  0.7708  0.0794
   23CHL1   C19 1668   4.089   1.327   6.070 -0.1087  0.1137 -0.2921
   23CHL1  H19A 1669   4.197   1.352   6.061 -0.5215  2.7613  1.1044
   23CHL1  H19B 1670   4.066   1.349   6.176 -0.6125  2.8414 -0.8693
   23CHL1  H19C 1671   4.071   1.223   6.037  0.4419  0.2115 -0.9248
   23CHL1    C1 1672   4.094   1.576   5.974 -0.0550 -0.7182  0.1628
   23CHL1   H1A 1673   4.202   1.567   5.947 -0.6145 -1.9651 -1.8293
   23CHL1   H1B 1674   4.045   1.639   5.897  0.5472  0.2463  0.5504
   23CHL1    C2 1675   4.080   1.666   6.102  0.4506  0.0729 -0.3454
   23CHL1   H2A 1676   4.120   1.766   6.072  1.7530 -1.2707 -3.6116
   23CHL1   H2B 1677   4.145   1.624   6.182 -1.2785 -0.7213  0.6875
   23CHL1   C20 1678   4.108   1.022   5.401  0.1891  0.2802 -0.4002
   23CHL1   H20 1679   4.114   0.933   5.467  0.4499  0.6187  0.0385
   23CHL1   C21 1680   4.250   1.097   5.387  0.1076  0.1746 -0.6938
   23CHL1  H21A 1681   4.316   1.030   5.327 -1.1867 -0.9862 -0.8744
   23CHL1  H21B 1682   4.300   1.108   5.486  3.9674  1.2850 -2.5664
   23CHL1  H21C 1683   4.244   1.197   5.339 -0.9399  1.3286  1.6602
   23CHL1   C22 1684   4.056   0.971   5.268 -1.0478 -0.6245  0.8428
   23CHL1  H22A 1685   4.147   0.922   5.229 -0.2374  1.0433  0.5308
   23CHL1  H22B 1686   3.971   0.900   5.277 -2.7989  1.2432 -0.2426
   23CHL1   C23 1687   4.007   1.079   5.171 -0.1012  0.1458  0.0791
   23CHL1  H23A 1688   3.908   1.122   5.196 -0.2670 -1.1096  1.7532
   23CHL1  H23B 1689   4.083   1.159   5.163  0.2503 -0.2823 -1.1172
   23CHL1   C24 1690   3.992   1.003   5.033 -0.7542  0.4973 -0.1328
   23CHL1  H24A 1691   4.090   0.976   4.987 -1.9787 -0.8367 -2.1149
   23CHL1  H24B 1692   3.944   0.906   5.056  1.0207 -0.2958  0.4253
   23CHL1   C25 1693   3.906   1.079   4.934  0.6051 -0.6790  0.2751
   23CHL1   H25 1694   3.813   1.120   4.978 -0.8964 -2.6076 -0.9358
   23CHL1   C26 1695   3.991   1.197   4.881  0.2970  0.3691  0.1157
   23CHL1  H26A 1696   3.939   1.251   4.799  0.0818 -1.6384 -1.1292
   23CHL1  H26B 1697   4.024   1.263   4.965  1.1193 -1.4632  1.3119
   23CHL1  H26C 1698   4.086   1.159   4.838 -0.7958 -0.3387 -1.7856
   23CHL1   C27 1699   3.866   0.989   4.819 -0.2130  0.3141 -0.5505
   23CHL1  H27A 1700   3.773   0.935   4.847  0.3700 -1.4095 -1.7787
   23CHL1  H27B 1701   3.839   1.043   4.726  2.4467 -0.4149 -1.8581
   23CHL1  H27C 1702   3.936   0.908   4.791 -1.2341 -0.5279 -0.7010
   24CHL1    C3 1703   6.228   4.682   5.772 -0.3411 -0.4240 -0.1404
   24CHL1    H3 1704   6.153   4.608   5.736 -0.6737  0.2548 -0.9017
   24CHL1    O3 1705   6.195   4.719   5.904 -0.2623 -0.4444  0.3158
   24CHL1   H3' 1706   6.257   4.788   5.925 -1.2015  0.2682  0.8054
   24CHL1    C4 1707   6.370   4.625   5.770  0.1864  1.4049  0.0268
   24CHL1   H4A 1708   6.441   4.703   5.803 -0.0907  1.5770  0.2195
   24CHL1   H4B 1709   6.389   4.538   5.836  2.2617  0.1067 -2.1296
   24CHL1    C5 1710   6.408   4.586   5.629  1.2775 -0.5389 -0.1433
   24CHL1    C6 1711   6.438   4.461   5.596 -0.0614  0.4842  0.1311
   24CHL1    H6 1712   6.452   4.381   5.671  2.5065  1.1358  0.4277
   24CHL1    C7 1713   6.493   4.422   5.466  0.8653  0.5773 -0.6925
   24CHL1   H7A 1714   6.579   4.359   5.497  1.1503  0.4794 -1.6718
   24CHL1   H7B 1715   6.420   4.352   5.419  1.9943 -0.9456 -0.2806
   24CHL1    C8 1716   6.533   4.545   5.378  0.1713 -0.0012 -0.2482
   24CHL1    H8 1717   6.629   4.585   5.415  0.3245  2.4357 -2.9688
   24CHL1   C14 1718   6.555   4.488   5.241 -0.1739 -0.3727 -0.4386
   24CHL1   H14 1719   6.453   4.455   5.209  0.0884  1.7229 -4.0217
   24CHL1   C15 1720   6.651   4.374   5.222  0.1525 -0.2158 -0.2666
   24CHL1  H15A 1721   6.734   4.382   5.295 -0.0197 -4.4923  0.6991
   24CHL1  H15B 1722   6.600   4.278   5.247 -0.5734  1.0171  3.6476
   24CHL1   C16 1723   6.689   4.390   5.078 -0.2598  0.4484  0.4691
   24CHL1  H16A 1724   6.798   4.406   5.063 -0.3135 -0.1503 -0.6990
   24CHL1  H16B 1725   6.660   4.304   5.014  1.9454 -0.7614  0.9805
   24CHL1   C17 1726   6.623   4.516   5.017  0.9110  0.0682  0.1326
   24CHL1   H17 1727   6.520   4.489   4.987  1.1839 -0.8252 -0.0315
   24CHL1   C13 1728   6.602   4.596   5.146  0.1740 -0.3196 -0.4017
   24CHL1   C18 1729   6.738   4.670   5.182  0.1368  0.6235  0.3585
   24CHL1  H18A 1730   6.737   4.710   5.286 -0.7728  0.0690  0.5808
   24CHL1  H18B 1731   6.822   4.601   5.161 -0.7245 -0.5564  0.7100
   24CHL1  H18C 1732   6.752   4.761   5.119 -2.5917  1.3250  0.6267
   24CHL1   C12 1733   6.490   4.698   5.139  0.7064 -0.4673  0.0892
   24CHL1  H12A 1734   6.507   4.777   5.063 -1.0964  0.2983  0.4255
   24CHL1  H12B 1735   6.402   4.643   5.100 -0.1949 -0.4527  1.9661
   24CHL1   C11 1736   6.455   4.759   5.279  0.3110 -0.0509 -0.5326
   24CHL1  H11A 1737   6.541   4.820   5.314 -1.0207  0.9855  1.1052
   24CHL1  H11B 1738   6.375   4.836   5.283  1.4856  1.1658  0.4574
   24CHL1    C9 1739   6.423   4.651   5.384  0.6732  0.0351 -0.0971
   24CHL1    H9 1740   6.334   4.594   5.352  1.3675 -0.9947 -0.2302
   24CHL1   C10 1741   6.405   4.694   5.529  0.7634 -0.4163 -0.3156
   24CHL1   C19 1742   6.515   4.801   5.557  0.8357  0.4316 -0.2108
   24CHL1  H19A 1743   6.525   4.820   5.666 -0.2212  0.4625 -0.1151
   24CHL1  H19B 1744   6.618   4.773   5.526  0.5515  0.6973 -1.4452
   24CHL1  H19C 1745   6.481   4.903   5.528 -1.3234  0.4292  2.0408
   24CHL1    C1 1746   6.260   4.766   5.540  0.1495  0.1525  0.0108
   24CHL1   H1A 1747   6.263   4.855   5.474 -0.7005  2.3289  2.7603
   24CHL1   H1B 1748   6.183   4.702   5.490  0.8577  0.3247 -1.3572
   24CHL1    C2 1749   6.215   4.806   5.677 -0.1555 -0.0310 -0.2152
   24CHL1   H2A 1750   6.113   4.848   5.679 -0.0536  0.2037  1.1184
   24CHL1   H2B 1751   6.281   4.885   5.719  0.9350 -1.4197  0.7733
   24CHL1   C20 1752   6.696   4.570   4.905  0.0117  0.0941  0.1428
   24CHL1   H20 1753   6.796   4.612   4.926 -0.3748  0.6131  1.0094
   24CHL1   C21 1754   6.604   4.677   4.825 -0.0427  0.3127 -0.5648
   24CHL1  H21A 1755   6.502   4.639   4.805 -0.4393  0.6302  0.7512
   24CHL1  H21B 1756   6.654   4.687   4.727  4.0454 -1.5670  1.0663
   24CHL1  H21C 1757   6.599   4.769   4.887 -1.9005 -0.8876  1.2083
   24CHL1   C22 1758   6.727   4.445   4.808  0.1384  0.3632  0.6678
   24CHL1  H22A 1759   6.788   4.490   4.727 -0.1427  1.3325  0.9739
   24CHL1  H22B 1760   6.791   4.365   4.849  0.2654 -0.0158 -0.2586
   24CHL1   C23 1761   6.603   4.381   4.741  0.1131  0.5624  0.8499
   24CHL1  H23A 1762   6.531   4.328   4.806 -1.1186  1.1266 -0.0248
   24CHL1  H23B 1763   6.545   4.456   4.683 -0.7647 -0.6619  0.1034
   24CHL1   C24 1764   6.640   4.289   4.621  0.0332 -0.7996 -0.3282
   24CHL1  H24A 1765   6.743   4.324   4.594 -0.2792  2.0477  1.6842
   24CHL1  H24B 1766   6.646   4.187   4.663 -1.9808 -0.6304  0.4649
   24CHL1   C25 1767   6.551   4.298   4.496  0.0609 -0.6575  0.4621
   24CHL1   H25 1768   6.560   4.406   4.471 -1.7239 -0.5789  0.0419
   24CHL1   C26 1769   6.603   4.216   4.381 -0.3698 -0.5472  0.5127
   24CHL1  H26A 1770   6.581   4.109   4.401 -1.5692 -0.0648  1.9453
   24CHL1  H26B 1771   6.543   4.236   4.290  1.3737  0.4032 -0.4747
   24CHL1  H26C 1772   6.707   4.248   4.361 -1.1297  1.9657  0.2719
   24CHL1   C27 1773   6.399   4.288   4.517  1.0722 -0.0270 -0.8396
   24CHL1  H27A 1774   6.356   4.341   4.605 -1.8521 -2.0059 -0.9399
   24CHL1  H27B 1775   6.340   4.321   4.428 -0.0754 -0.4350 -0.2526
   24CHL1  H27C 1776   6.372   4.183   4.538 -0.6753  0.2632 -1.4103
   25CHL1    C3 1777   2.492   6.038   5.382 -0.5126  0.6613  0.6461
   25CHL1    H3 1778   2.429   6.130   5.384 -1.2523  0.3856 -3.1049
   25CHL1    O3 1779   2.579   6.032   5.492 -0.0283  0.0079 -0.3454
   25CHL1   H3' 1780   2.632   5.951   5.488  0.1599  0.0827  0.4323
   25CHL1    C4 1781   2.390   5.917   5.389  0.3578 -0.0180  0.5227
   25CHL1   H4A 1782   2.457   5.830   5.405 -0.0078 -0.5314 -0.6264
   25CHL1   H4B 1783   2.321   5.936   5.474 -1.6484  1.3166 -1.2861
   25CHL1    C5 1784   2.315   5.893   5.258 -0.8810  0.5228  0.1525
   25CHL1    C6 1785   2.185   5.888   5.261  0.5249 -0.4648  0.6087
   25CHL1    H6 1786   2.135   5.893   5.359 -0.0247 -0.3611  0.3275
   25CHL1    C7 1787   2.102   5.871   5.133  0.9200  0.0032 -0.3356
   25CHL1   H7A 1788   2.020   5.803   5.162  1.9277 -1.2515 -0.3428
   25CHL1   H7B 1789   2.055   5.967   5.103  2.3336  0.8446  0.0401
   25CHL1    C8 1790   2.186   5.817   5.015  0.3205  0.1151  0.1242
   25CHL1    H8 1791   2.214   5.714   5.044  0.1496  0.4597  1.5922
   25CHL1   C14 1792   2.109   5.812   4.879 -0.2660 -0.2364 -0.1353
   25CHL1   H14 1793   2.090   5.916   4.847 -0.1196 -0.3850 -0.7146
   25CHL1   C15 1794   1.974   5.748   4.874 -0.0482  0.4934 -0.3984
   25CHL1  H15A 1795   1.987   5.661   4.942  4.3211  0.2382 -1.2878
   25CHL1  H15B 1796   1.899   5.816   4.919 -1.7556 -1.5256 -0.0279
   25CHL1   C16 1797   1.950   5.726   4.727  0.3728 -0.2282 -0.3997
   25CHL1  H16A 1798   1.918   5.621   4.714  0.3975 -0.1996 -0.6996
   25CHL1  H16B 1799   1.867   5.781   4.678 -1.3070 -1.8226  0.5427
   25CHL1   C17 1800   2.087   5.746   4.649  0.0672  0.2046 -0.5217
   25CHL1   H17 1801   2.086   5.853   4.619  2.1089 -0.2971 -2.6292
   25CHL1   C13 1802   2.186   5.743   4.765  0.2805  0.6970  0.6388
   25CHL1   C18 1803   2.230   5.597   4.809  0.3015 -0.7966 -0.3327
   25CHL1  H18A 1804   2.295   5.548   4.734  2.3723  0.0624  0.8059
   25CHL1  H18B 1805   2.291   5.592   4.902 -1.0587  1.8631  0.7998
   25CHL1  H18C 1806   2.130   5.551   4.823  0.2792 -0.6651 -0.0431
   25CHL1   C12 1807   2.309   5.835   4.745  0.1997 -0.0904 -0.3296
   25CHL1  H12A 1808   2.377   5.804   4.663  1.8311 -1.7076  1.5451
   25CHL1  H12B 1809   2.276   5.940   4.726  0.1476  0.6533  3.2366
   25CHL1   C11 1810   2.386   5.837   4.876 -0.5300 -0.4478 -0.3826
   25CHL1  H11A 1811   2.447   5.744   4.885 -0.8546 -0.7761 -1.4564
   25CHL1  H11B 1812   2.467   5.912   4.863  0.2397 -1.1480  0.2706
   25CHL1    C9 1813   2.319   5.892   5.003 -0.6744  0.2973  0.4755
   25CHL1    H9 1814   2.295   5.999   4.982  2.0105  0.8693 -0.0835
   25CHL1   C10 1815   2.400   5.886   5.127 -0.0303  0.7297  0.0524
   25CHL1   C19 1816   2.474   5.750   5.145 -0.1758 -0.4026 -0.1690
   25CHL1  H19A 1817   2.547   5.737   5.063 -0.8142 -2.2259 -0.4927
   25CHL1  H19B 1818   2.532   5.748   5.240  0.2566 -0.3203 -0.4298
   25CHL1  H19C 1819   2.396   5.671   5.151 -0.0116 -0.9658 -3.6784
   25CHL1    C1 1820   2.507   6.002   5.119  0.5489  0.2835 -0.3718
   25CHL1   H1A 1821   2.583   5.984   5.039  2.4162  0.0339  1.3565
   25CHL1   H1B 1822   2.447   6.093   5.100 -0.7110 -0.0792  1.5833
   25CHL1    C2 1823   2.586   6.027   5.254  0.8605 -0.1300  0.1011
   25CHL1   H2A 1824   2.644   6.121   5.244  1.2284 -0.1434  1.7208
   25CHL1   H2B 1825   2.654   5.940   5.266 -0.3037 -1.0916 -0.0473
   25CHL1   C20 1826   2.117   5.646   4.532  0.6664  0.2648 -0.1758
   25CHL1   H20 1827   2.123   5.542   4.571 -3.8850 -0.7572 -1.5888
   25CHL1   C21 1828   2.244   5.683   4.446 -0.4533  0.1934  0.1105
   25CHL1  H21A 1829   2.245   5.792   4.424 -2.5012  0.0551 -0.9599
   25CHL1  H21B 1830   2.247   5.637   4.345 -1.5926  1.6570 -0.6376
   25CHL1  H21C 1831   2.336   5.659   4.502 -1.4461 -1.6456  1.0717
   25CHL1   C22 1832   1.995   5.632   4.431 -0.2316 -0.5228 -0.1443
   25CHL1  H22A 1833   2.020   5.544   4.369  1.0401 -0.0732 -0.3085
   25CHL1  H22B 1834   1.898   5.633   4.484  0.0140 -0.7772  0.3180
   25CHL1   C23 1835   1.988   5.743   4.323  0.6151  0.0736  0.3182
   25CHL1  H23A 1836   1.974   5.838   4.380 -1.5125 -1.4896  2.6657
   25CHL1  H23B 1837   2.085   5.747   4.271  0.1522  0.1332 -0.5528
   25CHL1   C24 1838   1.869   5.723   4.228  0.6481  0.4123 -0.5892
   25CHL1  H24A 1839   1.891   5.630   4.171  2.2784  0.3664  0.0453
   25CHL1  H24B 1840   1.778   5.706   4.289  1.5347  0.0381  0.6832
   25CHL1   C25 1841   1.845   5.840   4.132 -0.1725  0.0132 -0.6203
   25CHL1   H25 1842   1.834   5.928   4.199  0.6480  1.3177 -2.1520
   25CHL1   C26 1843   1.962   5.863   4.032 -0.4260  0.7557  0.0205
   25CHL1  H26A 1844   1.949   5.958   3.975  3.4421  0.5345 -1.5144
   25CHL1  H26B 1845   2.052   5.890   4.090 -2.2686  2.2590  2.3361
   25CHL1  H26C 1846   1.984   5.789   3.952 -2.0546 -0.3061  0.5030
   25CHL1   C27 1847   1.713   5.819   4.062 -0.2342  0.3379  0.1413
   25CHL1  H27A 1848   1.729   5.749   3.977 -1.4905  0.1607  0.0283
   25CHL1  H27B 1849   1.635   5.777   4.129 -0.6512 -0.4589 -0.8133
   25CHL1  H27C 1850   1.685   5.919   4.024  0.5985 -0.0517 -1.6106
   26CHL1    C3 1851   0.968   4.207   5.783 -0.3095  0.8702 -0.0288
   26CHL1    H3 1852   0.970   4.109   5.836 -1.1812  2.0982  2.4343
   26CHL1    O3 1853   0.942   4.303   5.884 -0.1955  0.3625  0.5321
   26CHL1   H3' 1854   0.860   4.277   5.926 -0.9077  0.2691 -0.8585
   26CHL1    C4 1855   1.103   4.233   5.715 -0.2815 -0.3579  1.1314
   26CHL1   H4A 1856   1.097   4.340   5.685 -4.8611 -0.8921 -0.6534
   26CHL1   H4B 1857   1.188   4.227   5.786  1.3624 -3.1157 -0.9189
   26CHL1    C5 1858   1.123   4.160   5.582 -0.0955 -0.9325 -0.8955
   26CHL1    C6 1859   1.239   4.108   5.555  0.1845 -0.3275 -0.8523
   26CHL1    H6 1860   1.326   4.117   5.622  1.6569  2.8221 -2.9587
   26CHL1    C7 1861   1.278   4.040   5.429 -0.5653  0.2135  0.7222
   26CHL1   H7A 1862   1.382   4.068   5.400 -0.9537 -0.6603 -1.8359
   26CHL1   H7B 1863   1.288   3.931   5.448  1.2714  0.5763  2.1913
   26CHL1    C8 1864   1.173   4.074   5.318  0.3106 -0.1436  0.1750
   26CHL1    H8 1865   1.191   4.175   5.275 -0.6800  0.6109  1.4480
   26CHL1   C14 1866   1.189   3.977   5.192 -0.4540 -0.4240 -0.6770
   26CHL1   H14 1867   1.178   3.882   5.249 -1.1441 -0.4115 -0.7756
   26CHL1   C15 1868   1.324   3.959   5.125 -0.3349  0.1305  0.0320
   26CHL1  H15A 1869   1.352   4.053   5.073  1.2413 -1.1739 -1.6048
   26CHL1  H15B 1870   1.410   3.928   5.187  1.7623  3.5814 -0.8595
   26CHL1   C16 1871   1.295   3.856   5.015 -0.7635 -0.0642  0.4453
   26CHL1  H16A 1872   1.353   3.875   4.922 -0.4257 -0.2233  0.6201
   26CHL1  H16B 1873   1.320   3.751   5.040  1.6860  0.0945 -1.0484
   26CHL1   C17 1874   1.140   3.863   4.991  0.3177  0.3232 -0.1487
   26CHL1   H17 1875   1.100   3.776   5.048  0.4285 -0.0899 -0.6890
   26CHL1   C13 1876   1.087   3.974   5.077  1.1175 -0.0197 -0.1871
   26CHL1   C18 1877   1.102   4.104   5.001  0.9587 -0.1910  0.4482
   26CHL1  H18A 1878   1.065   4.190   5.061 -0.9722  0.0628 -0.9882
   26CHL1  H18B 1879   1.205   4.123   4.966  0.9106 -0.4039  0.1877
   26CHL1  H18C 1880   1.049   4.101   4.903  1.6144 -1.0832  0.1112
   26CHL1   C12 1881   0.951   3.962   5.150  0.3341  0.3684 -0.5637
   26CHL1  H12A 1882   0.871   3.973   5.074  1.2419 -2.8338 -2.1598
   26CHL1  H12B 1883   0.944   3.857   5.186 -0.2409  0.2037 -1.1349
   26CHL1   C11 1884   0.926   4.064   5.258 -0.3047 -0.4107 -0.0111
   26CHL1  H11A 1885   0.918   4.165   5.212  0.4967  0.2008  1.1398
   26CHL1  H11B 1886   0.824   4.050   5.300 -0.8983  1.5875 -0.6785
   26CHL1    C9 1887   1.029   4.055   5.372  0.5835 -0.3634  0.5868
   26CHL1    H9 1888   1.030   3.953   5.418  1.7766 -0.6731 -0.0786
   26CHL1   C10 1889   1.005   4.158   5.489 -0.4061 -0.0569  0.0306
   26CHL1   C19 1890   0.988   4.309   5.422  0.2568 -1.0330 -0.1421
   26CHL1  H19A 1891   0.987   4.383   5.505  2.2141 -1.4235  0.2758
   26CHL1  H19B 1892   1.064   4.330   5.344  0.2399 -3.6246 -0.9554
   26CHL1  H19C 1893   0.891   4.311   5.368  0.4425  0.2107 -0.4567
   26CHL1    C1 1894   0.876   4.118   5.562  0.6877  0.1573  0.1345
   26CHL1   H1A 1895   0.794   4.129   5.489 -0.7057 -1.0700  1.4496
   26CHL1   H1B 1896   0.883   4.013   5.596 -0.3735 -0.0945 -0.4043
   26CHL1    C2 1897   0.853   4.211   5.682 -0.7630 -0.5257 -0.5277
   26CHL1   H2A 1898   0.759   4.187   5.735 -2.1797  3.0205 -1.1482
   26CHL1   H2B 1899   0.839   4.316   5.648  0.6529 -0.0699  0.2126
   26CHL1   C20 1900   1.094   3.844   4.840 -0.0083  0.5170  1.0072
   26CHL1   H20 1901   0.988   3.877   4.832 -0.7115 -1.3358  2.1015
   26CHL1   C21 1902   1.099   3.694   4.819  0.6061  0.4401  0.5369
   26CHL1  H21A 1903   1.202   3.658   4.844  0.5833  0.1396  0.2068
   26CHL1  H21B 1904   1.083   3.664   4.714 -0.9560  1.4229  0.4734
   26CHL1  H21C 1905   1.024   3.639   4.880 -0.0509 -2.4002 -2.5420
   26CHL1   C22 1906   1.179   3.911   4.726  0.1110 -0.4104 -0.1581
   26CHL1  H22A 1907   1.209   4.017   4.740 -0.1226  0.0831 -2.8106
   26CHL1  H22B 1908   1.276   3.856   4.719  0.6828  0.4343  0.8373
   26CHL1   C23 1909   1.118   3.910   4.589 -0.8119  0.5809  0.7537
   26CHL1  H23A 1910   1.090   3.806   4.560  1.1249 -0.4918  2.4617
   26CHL1  H23B 1911   1.026   3.973   4.593 -2.1959 -1.2536 -0.4483
   26CHL1   C24 1912   1.210   3.971   4.476  0.2038  0.1579 -0.6001
   26CHL1  H24A 1913   1.227   4.065   4.533 -3.7089  1.4051 -1.1679
   26CHL1  H24B 1914   1.302   3.910   4.466 -0.3000 -0.8108  0.4439
   26CHL1   C25 1915   1.145   4.006   4.344 -0.5039 -0.2311  0.4777
   26CHL1   H25 1916   1.058   4.073   4.361  0.3378  1.3402 -0.9863
   26CHL1   C26 1917   1.240   4.074   4.249 -0.4602  0.2612 -0.1367
   26CHL1  H26A 1918   1.243   4.181   4.282 -1.5606  0.8049 -1.6676
   26CHL1  H26B 1919   1.339   4.025   4.252 -0.8380 -0.5897 -1.1312
   26CHL1  H26C 1920   1.207   4.069   4.143  0.4954 -1.3885 -0.3856
   26CHL1   C27 1921   1.080   3.882   4.282 -0.1320 -0.1070 -0.0750
   26CHL1  H27A 1922   0.989   3.857   4.341 -1.8072  1.9015 -1.6280
   26CHL1  H27B 1923   1.037   3.913   4.184 -1.2868 -1.7003 -0.1210
   26CHL1  H27C 1924   1.148   3.797   4.259 -0.2628  0.4023 -2.5916
   27CHL1    C3 1925   4.789   4.819   5.659  0.1851  0.1101 -0.1089
   27CHL1    H3 1926   4.713   4.895   5.633  1.6547  1.4192 -0.7611
   27CHL1    O3 1927   4.813   4.812   5.800 -0.1329 -0.7838  0.2271
   27CHL1   H3' 1928   4.889   4.868   5.815 -0.5092 -0.4303  0.8880
   27CHL1    C4 1929   4.736   4.683   5.615  0.0158 -0.8022  0.0445
   27CHL1   H4A 1930   4.794   4.601   5.663 -1.2598 -2.6313 -1.3769
   27CHL1   H4B 1931   4.633   4.663   5.652  0.2575 -0.1876  1.0558
   27CHL1    C5 1932   4.742   4.678   5.462  0.1812  0.3181 -0.5325
   27CHL1    C6 1933   4.629   4.636   5.400 -0.2212 -0.3459  0.2222
   27CHL1    H6 1934   4.534   4.629   5.456 -0.6666  1.4409 -0.2418
   27CHL1    C7 1935   4.625   4.611   5.253  0.3606  0.0530  0.3748
   27CHL1   H7A 1936   4.562   4.521   5.237 -0.5020  0.6409  0.3835
   27CHL1   H7B 1937   4.567   4.695   5.210 -1.1856 -0.4209  1.4302
   27CHL1    C8 1938   4.763   4.599   5.185 -0.5014 -0.1803 -0.0877
   27CHL1    H8 1939   4.789   4.492   5.202 -1.5849 -0.4255  0.0810
   27CHL1   C14 1940   4.753   4.619   5.029  1.0063 -0.3177 -0.3252
   27CHL1   H14 1941   4.713   4.721   5.014 -0.8832 -1.0163 -0.2681
   27CHL1   C15 1942   4.650   4.530   4.948  0.0588 -0.2936 -0.7652
   27CHL1  H15A 1943   4.637   4.435   5.004  2.3184 -0.1811  0.0727
   27CHL1  H15B 1944   4.548   4.574   4.945  0.3280  0.6071  1.5526
   27CHL1   C16 1945   4.704   4.529   4.811  0.1835 -0.8386  0.0822
   27CHL1  H16A 1946   4.727   4.426   4.775  1.2718 -0.1466 -1.3095
   27CHL1  H16B 1947   4.632   4.549   4.730  0.4149  1.0744  0.3115
   27CHL1   C17 1948   4.834   4.623   4.805 -0.1845  0.0848 -0.0047
   27CHL1   H17 1949   4.792   4.725   4.792  1.4283  0.5436 -2.3222
   27CHL1   C13 1950   4.886   4.623   4.954 -0.5861  0.7058 -0.5557
   27CHL1   C18 1951   4.950   4.480   4.977  0.4945  0.8330 -0.7077
   27CHL1  H18A 1952   4.883   4.397   4.947  0.6604 -0.3806  2.0131
   27CHL1  H18B 1953   5.036   4.457   4.911  1.5814  0.1529  0.8849
   27CHL1  H18C 1954   4.974   4.451   5.082 -1.8508  0.1694 -0.3018
   27CHL1   C12 1955   4.969   4.743   4.999  0.1694 -0.2709  0.7731
   27CHL1  H12A 1956   5.066   4.749   4.945 -0.2820 -3.7870 -0.6917
   27CHL1  H12B 1957   4.911   4.835   4.979  0.8391 -0.2826 -1.5410
   27CHL1   C11 1958   4.988   4.725   5.153  0.3973  0.1204  0.9210
   27CHL1  H11A 1959   5.040   4.628   5.170  0.6933  0.1931  0.4418
   27CHL1  H11B 1960   5.045   4.805   5.204 -1.0128 -0.1064  3.0140
   27CHL1    C9 1961   4.853   4.709   5.237  0.2457  0.5935 -0.6574
   27CHL1    H9 1962   4.797   4.804   5.220 -0.1993  0.4627  0.0384
   27CHL1   C10 1963   4.873   4.704   5.394 -0.1459 -0.2559 -0.0208
   27CHL1   C19 1964   4.969   4.591   5.443 -0.0852 -0.6417  0.0941
   27CHL1  H19A 1965   5.064   4.611   5.390 -1.2072  0.9505 -1.4591
   27CHL1  H19B 1966   4.984   4.596   5.553  1.3565  0.2088 -0.1181
   27CHL1  H19C 1967   4.929   4.494   5.407  1.3402 -0.6880 -1.4721
   27CHL1    C1 1968   4.921   4.842   5.444  0.1057  0.0041  0.7070
   27CHL1   H1A 1969   5.022   4.855   5.400 -0.2475  0.4150 -0.0169
   27CHL1   H1B 1970   4.859   4.921   5.396  0.5227 -0.3366 -0.4290
   27CHL1    C2 1971   4.920   4.857   5.588  0.1940 -0.2057 -0.4985
   27CHL1   H2A 1972   4.951   4.960   5.617  0.6042 -0.1017 -1.2528
   27CHL1   H2B 1973   5.000   4.787   5.619  2.1969  2.2997  0.3001
   27CHL1   C20 1974   4.936   4.585   4.691 -0.5636 -0.3391  0.6150
   27CHL1   H20 1975   4.993   4.495   4.724 -0.9629 -0.6381  0.4953
   27CHL1   C21 1976   5.037   4.693   4.683 -0.3796 -0.0035 -0.3313
   27CHL1  H21A 1977   4.990   4.794   4.680  0.3413  0.3084 -1.9323
   27CHL1  H21B 1978   5.099   4.685   4.591  2.6734  0.2864  1.5399
   27CHL1  H21C 1979   5.112   4.677   4.763 -0.5919 -1.9249 -0.4802
   27CHL1   C22 1980   4.873   4.551   4.553  0.2307 -0.2522 -0.4496
   27CHL1  H22A 1981   4.819   4.455   4.568 -0.0066 -0.2489 -1.2700
   27CHL1  H22B 1982   4.809   4.632   4.512  1.7387  0.2185 -1.9820
   27CHL1   C23 1983   4.971   4.518   4.440  0.0148 -0.6259 -0.2553
   27CHL1  H23A 1984   4.889   4.495   4.369 -1.8094  0.7417  1.2863
   27CHL1  H23B 1985   5.037   4.604   4.415 -1.0424 -0.0644 -1.1896
   27CHL1   C24 1986   5.048   4.393   4.460 -0.3037  0.3476 -0.4071
   27CHL1  H24A 1987   5.135   4.403   4.527 -1.2059  1.2054  0.6691
   27CHL1  H24B 1988   4.982   4.308   4.488 -1.1222  0.6307 -1.4096
   27CHL1   C25 1989   5.107   4.341   4.314 -0.9838  0.8425  0.6176
   27CHL1   H25 1990   5.134   4.436   4.262  0.8632 -0.1415 -0.3293
   27CHL1   C26 1991   5.233   4.259   4.330  0.2328  0.0671 -0.2288
   27CHL1  H26A 1992   5.288   4.259   4.233 -0.5203  1.9972 -0.6984
   27CHL1  H26B 1993   5.306   4.304   4.401  1.6216 -2.4895  0.0959
   27CHL1  H26C 1994   5.220   4.155   4.368  4.2477 -0.9533 -1.1593
   27CHL1   C27 1995   5.002   4.271   4.227 -0.7172 -0.1212 -0.6418
   27CHL1  H27A 1996   4.930   4.348   4.194 -1.0260 -0.2934 -0.3683
   27CHL1  H27B 1997   5.047   4.226   4.136 -0.0635 -0.8315  0.0102
   27CHL1  H27C 1998   4.950   4.199   4.294  0.7706  1.4056  2.3853
   28CHL1    C3 1999   5.311   4.455   5.714 -0.0356 -0.7442 -0.0990
   28CHL1    H3 2000   5.207   4.490   5.694 -0.5584 -1.4822  1.2258
   28CHL1    O3 2001   5.325   4.435   5.855 -0.2401  0.5870 -0.1776
   28CHL1   H3' 2002   5.312   4.522   5.893 -0.1631  1.2969 -1.7249
   28CHL1    C4 2003   5.340   4.319   5.641 -0.5553 -0.0408 -0.1334
   28CHL1   H4A 2004   5.441   4.283   5.666 -0.4550  0.9837  0.9736
   28CHL1   H4B 2005   5.254   4.254   5.669  0.4244 -1.4162 -0.2307
   28CHL1    C5 2006   5.332   4.349   5.487 -0.6442  0.1794 -0.0283
   28CHL1    C6 2007   5.240   4.290   5.411 -0.1678 -0.2256  0.0898
   28CHL1    H6 2008   5.169   4.224   5.463 -1.1589  2.2818  2.1826
   28CHL1    C7 2009   5.239   4.308   5.262  0.2463 -0.1175  0.1597
   28CHL1   H7A 2010   5.220   4.212   5.210 -1.7012  0.7828 -0.8992
   28CHL1   H7B 2011   5.144   4.361   5.237  1.1412  0.4923 -2.2432
   28CHL1    C8 2012   5.360   4.382   5.204  0.5456  0.6661  0.0945
   28CHL1    H8 2013   5.443   4.308   5.212  0.4348  0.5079 -0.1970
   28CHL1   C14 2014   5.341   4.417   5.063  0.4991  1.0394 -0.1464
   28CHL1   H14 2015   5.256   4.489   5.074  0.7396  1.5026 -1.2182
   28CHL1   C15 2016   5.306   4.299   4.968 -0.6926  0.1905  0.8004
   28CHL1  H15A 2017   5.376   4.214   4.983  0.8568  1.1703 -0.5899
   28CHL1  H15B 2018   5.198   4.272   4.977 -0.9913  1.1837  0.2742
   28CHL1   C16 2019   5.341   4.354   4.826 -0.6002  0.0160  0.1967
   28CHL1  H16A 2020   5.407   4.277   4.781 -0.2406  1.5704 -2.0945
   28CHL1  H16B 2021   5.251   4.346   4.760  0.5516 -1.2904 -1.2902
   28CHL1   C17 2022   5.404   4.490   4.852 -0.0136 -0.5273  0.8535
   28CHL1   H17 2023   5.321   4.564   4.843  1.6760  1.2565 -1.6069
   28CHL1   C13 2024   5.457   4.484   4.994 -0.7358  0.1931  0.1991
   28CHL1   C18 2025   5.582   4.392   4.996 -0.2987  0.5374  0.4192
   28CHL1  H18A 2026   5.604   4.359   5.100 -0.7706 -1.9651 -0.2177
   28CHL1  H18B 2027   5.567   4.302   4.932 -0.5467  0.8518  0.0310
   28CHL1  H18C 2028   5.679   4.431   4.959  1.4193 -3.4552  0.1977
   28CHL1   C12 2029   5.465   4.625   5.079 -0.2105  0.6382  0.2346
   28CHL1  H12A 2030   5.555   4.683   5.051 -0.3745  1.5242  1.4316
   28CHL1  H12B 2031   5.376   4.692   5.080  0.8556  2.1388  1.9330
   28CHL1   C11 2032   5.490   4.595   5.225 -0.7607 -0.4871 -0.0343
   28CHL1  H11A 2033   5.595   4.560   5.233  0.6670  3.4984  1.5286
   28CHL1  H11B 2034   5.488   4.689   5.283  2.1855 -1.2356  1.4487
   28CHL1    C9 2035   5.391   4.503   5.287  0.5677  0.4624  0.3857
   28CHL1    H9 2036   5.290   4.548   5.283 -0.7933 -2.4235 -0.3170
   28CHL1   C10 2037   5.419   4.465   5.433 -0.3467 -0.3260 -0.2552
   28CHL1   C19 2038   5.561   4.424   5.445  0.1129 -0.3890  0.4564
   28CHL1  H19A 2039   5.576   4.353   5.360  1.1863 -0.2519  0.5154
   28CHL1  H19B 2040   5.624   4.514   5.431 -0.8056 -0.0538 -2.0449
   28CHL1  H19C 2041   5.578   4.365   5.537  2.9477 -0.2445  0.1228
   28CHL1    C1 2042   5.406   4.596   5.517  0.0585  0.4526  0.7927
   28CHL1   H1A 2043   5.465   4.686   5.489  1.7412 -1.2959 -1.7125
   28CHL1   H1B 2044   5.302   4.628   5.494 -0.2908 -2.6959 -3.2580
   28CHL1    C2 2045   5.413   4.563   5.674 -0.1478 -0.2949 -0.3510
   28CHL1   H2A 2046   5.390   4.651   5.738  1.1849  0.1773 -0.4958
   28CHL1   H2B 2047   5.521   4.543   5.691  0.3763  0.4201 -2.4364
   28CHL1   C20 2048   5.499   4.538   4.735 -0.5415  0.4284  0.4303
   28CHL1   H20 2049   5.591   4.476   4.733 -0.9295 -0.1717  0.8141
   28CHL1   C21 2050   5.538   4.683   4.778  0.2024  1.0261 -0.1343
   28CHL1  H21A 2051   5.573   4.737   4.688  0.9078 -0.3209 -0.6892
   28CHL1  H21B 2052   5.622   4.680   4.850  1.1683 -1.8952 -1.2438
   28CHL1  H21C 2053   5.450   4.740   4.815 -0.7799  0.1039 -0.9802
   28CHL1   C22 2054   5.432   4.541   4.597 -0.2646  0.6532  0.2689
   28CHL1  H22A 2055   5.376   4.448   4.574 -1.6966  1.0274  1.9926
   28CHL1  H22B 2056   5.344   4.608   4.585 -1.3292 -0.8817 -0.8247
   28CHL1   C23 2057   5.532   4.566   4.487 -0.1718 -0.2969 -0.0634
   28CHL1  H23A 2058   5.595   4.654   4.512 -1.1383  0.6745 -0.9754
   28CHL1  H23B 2059   5.598   4.477   4.483 -1.4887 -1.5186  2.7603
   28CHL1   C24 2060   5.474   4.596   4.347 -0.0411 -0.3929 -0.4768
   28CHL1  H24A 2061   5.420   4.505   4.314  0.3031 -0.2853 -1.3756
   28CHL1  H24B 2062   5.401   4.680   4.356  1.5063  0.9369  0.1366
   28CHL1   C25 2063   5.580   4.646   4.249 -0.1571 -0.4857  0.0953
   28CHL1   H25 2064   5.667   4.679   4.310 -0.1684  2.5309 -1.3549
   28CHL1   C26 2065   5.629   4.526   4.160  0.3321 -0.4259  0.1706
   28CHL1  H26A 2066   5.663   4.444   4.227 -2.7406 -2.1482 -0.1842
   28CHL1  H26B 2067   5.539   4.493   4.104 -1.3205  1.8662  1.3004
   28CHL1  H26C 2068   5.706   4.567   4.093 -0.0239  0.5475  0.3330
   28CHL1   C27 2069   5.533   4.766   4.164  0.4477  0.1539 -0.7117
   28CHL1  H27A 2070   5.442   4.734   4.108 -1.6064 -0.8222  2.8716
   28CHL1  H27B 2071   5.493   4.847   4.229 -0.4224 -0.5771 -0.3076
   28CHL1  H27C 2072   5.616   4.804   4.100 -0.1289  0.1299 -1.4883
   29CHL1    C3 2073   4.993   3.672   2.590 -0.4422 -0.2720  0.2266
   29CHL1    H3 2074   5.040   3.571   2.592 -0.5274 -0.2992  0.8693
   29CHL1    O3 2075   4.940   3.694   2.466  0.4760 -0.0122 -0.5840
   29CHL1   H3' 2076   4.892   3.615   2.439 -4.1224  3.1772 -3.1030
   29CHL1    C4 2077   4.878   3.674   2.688  0.5725  0.0922 -0.4967
   29CHL1   H4A 2078   4.827   3.773   2.696 -1.4677 -1.0443  3.1785
   29CHL1   H4B 2079   4.808   3.595   2.653  1.7724 -0.6008 -1.4093
   29CHL1    C5 2080   4.927   3.651   2.827 -0.1451 -0.4967  0.2774
   29CHL1    C6 2081   4.895   3.553   2.904  0.1870 -0.3698  0.1139
   29CHL1    H6 2082   4.812   3.490   2.868 -0.9330  0.8850  0.4066
   29CHL1    C7 2083   4.936   3.526   3.053  0.3199  0.5889  0.4657
   29CHL1   H7A 2084   4.842   3.505   3.108 -0.7579  1.6424 -0.9141
   29CHL1   H7B 2085   5.009   3.442   3.044  1.7014  1.6435  1.4494
   29CHL1    C8 2086   4.999   3.660   3.109  0.1906 -0.1501  0.3335
   29CHL1    H8 2087   4.921   3.739   3.114 -1.0341 -1.1195 -1.8472
   29CHL1   C14 2088   5.042   3.630   3.247 -0.0252 -0.4095  0.1163
   29CHL1   H14 2089   5.100   3.536   3.241 -1.8808 -1.7172  1.3342
   29CHL1   C15 2090   4.938   3.597   3.359  0.6224 -0.0957  0.0614
   29CHL1  H15A 2091   4.856   3.672   3.359  0.4382 -0.2978  0.4417
   29CHL1  H15B 2092   4.903   3.494   3.342  0.9036 -0.2546  0.4137
   29CHL1   C16 2093   5.017   3.616   3.487  0.0857 -0.0175 -0.8473
   29CHL1  H16A 2094   4.967   3.694   3.548 -0.3536 -1.1768  0.3240
   29CHL1  H16B 2095   5.027   3.528   3.554 -0.1433  0.8912  0.4239
   29CHL1   C17 2096   5.165   3.677   3.452  0.3371 -0.1733  0.1245
   29CHL1   H17 2097   5.232   3.589   3.443 -0.3562 -0.6279 -0.8694
   29CHL1   C13 2098   5.131   3.745   3.316  0.1923  0.6479 -0.3917
   29CHL1   C18 2099   5.047   3.870   3.327 -0.0855 -0.7013  0.6602
   29CHL1  H18A 2100   4.967   3.852   3.402 -1.0684  0.9177  0.0417
   29CHL1  H18B 2101   5.106   3.957   3.363  0.0528  0.1531 -1.4945
   29CHL1  H18C 2102   4.999   3.896   3.231  2.2649 -1.3785 -0.7794
   29CHL1   C12 2103   5.249   3.776   3.223  0.3687  0.1784 -0.0361
   29CHL1  H12A 2104   5.307   3.867   3.250 -0.9990  1.0350  0.1820
   29CHL1  H12B 2105   5.316   3.689   3.233 -1.4066 -1.1225  1.2334
   29CHL1   C11 2106   5.214   3.804   3.073  0.8826 -0.1805 -0.1632
   29CHL1  H11A 2107   5.192   3.913   3.079 -0.3629 -0.4647  0.6972
   29CHL1  H11B 2108   5.306   3.803   3.010  0.4661  0.0751 -0.7918
   29CHL1    C9 2109   5.108   3.708   3.015  0.1565 -0.8096  0.4733
   29CHL1    H9 2110   5.168   3.615   3.003  1.1238  0.0014 -1.2222
   29CHL1   C10 2111   5.045   3.746   2.871 -0.0108 -0.2008  0.9213
   29CHL1   C19 2112   4.990   3.889   2.883  0.6440  0.0920  0.7582
   29CHL1  H19A 2113   4.888   3.896   2.838 -0.1496  2.9454  2.7170
   29CHL1  H19B 2114   4.979   3.926   2.987  1.2470 -1.3428  1.3420
   29CHL1  H19C 2115   5.051   3.960   2.822  0.2160 -0.6567 -0.5910
   29CHL1    C1 2116   5.155   3.737   2.765  0.2305  0.7984  0.0329
   29CHL1   H1A 2117   5.243   3.800   2.789  1.6542 -1.2625  0.4510
   29CHL1   H1B 2118   5.198   3.635   2.756 -0.4918  0.4236  0.7270
   29CHL1    C2 2119   5.100   3.779   2.623  0.0071  0.7053  1.0229
   29CHL1   H2A 2120   5.179   3.768   2.546  0.1099  4.0162  0.5267
   29CHL1   H2B 2121   5.066   3.883   2.606  0.8126  0.6380 -1.2786
   29CHL1   C20 2122   5.217   3.772   3.557 -0.4214 -0.4684 -0.8973
   29CHL1   H20 2123   5.145   3.856   3.564 -0.4003 -0.5508  0.5832
   29CHL1   C21 2124   5.354   3.827   3.520  0.4816  0.2829 -0.0651
   29CHL1  H21A 2125   5.414   3.740   3.484 -1.5828 -0.5544 -1.7556
   29CHL1  H21B 2126   5.408   3.872   3.605 -0.7331 -0.3205  1.0672
   29CHL1  H21C 2127   5.337   3.904   3.442 -0.6972 -1.8641 -2.0796
   29CHL1   C22 2128   5.218   3.690   3.697  0.0134 -0.7599  0.6056
   29CHL1  H22A 2129   5.133   3.623   3.721  0.6673 -0.8536  2.9276
   29CHL1  H22B 2130   5.303   3.620   3.690 -1.2586 -2.4380  1.2816
   29CHL1   C23 2131   5.242   3.775   3.818 -0.1306  0.4500  0.5724
   29CHL1  H23A 2132   5.286   3.724   3.906 -0.7755  0.6048  0.9956
   29CHL1  H23B 2133   5.298   3.867   3.792 -1.0150  1.0990  0.8919
   29CHL1   C24 2134   5.111   3.820   3.886  0.3230  0.3596  0.2393
   29CHL1  H24A 2135   5.043   3.847   3.802 -0.2722  0.3864  0.7305
   29CHL1  H24B 2136   5.075   3.726   3.932  1.4513  0.2256  0.8772
   29CHL1   C25 2137   5.132   3.914   4.003  0.8544  0.4248 -0.0511
   29CHL1   H25 2138   5.213   3.870   4.065 -1.0907 -0.4930  1.9490
   29CHL1   C26 2139   5.188   4.047   3.950 -0.1734  0.4008 -0.2030
   29CHL1  H26A 2140   5.109   4.080   3.879  0.4508  0.6121 -0.8079
   29CHL1  H26B 2141   5.199   4.114   4.038  2.1291  0.5998 -0.5773
   29CHL1  H26C 2142   5.286   4.048   3.899 -0.6653  2.2955 -1.2248
   29CHL1   C27 2143   5.003   3.926   4.085 -0.4470  0.6446  0.5898
   29CHL1  H27A 2144   4.942   3.837   4.110 -0.2619  0.1207 -0.7166
   29CHL1  H27B 2145   5.018   3.998   4.168 -0.2401  0.5094  0.6700
   29CHL1  H27C 2146   4.940   3.974   4.007  1.0303 -0.2222 -1.2244
   30CHL1    C3 2147   6.475   5.554   2.419  0.3692 -0.1721 -0.6376
   30CHL1    H3 2148   6.378   5.501   2.427  0.8874 -0.8404  2.0266
   30CHL1    O3 2149   6.510   5.560   2.285 -0.9512  0.4161  0.1389
   30CHL1   H3' 2150   6.584   5.621   2.280 -0.0459 -0.4686  1.5750
   30CHL1    C4 2151   6.452   5.700   2.471  0.1746  0.2696  0.4605
   30CHL1   H4A 2152   6.547   5.751   2.443 -0.9048  1.1461 -1.8458
   30CHL1   H4B 2153   6.375   5.753   2.411  0.6298 -0.8778 -1.2091
   30CHL1    C5 2154   6.428   5.701   2.622  0.0756 -0.7316 -0.0028
   30CHL1    C6 2155   6.319   5.767   2.672 -0.7137 -0.8617 -0.2425
   30CHL1    H6 2156   6.244   5.817   2.608 -0.0165 -0.5205 -0.8048
   30CHL1    C7 2157   6.297   5.779   2.820  0.2087  0.5056 -0.3575
   30CHL1   H7A 2158   6.264   5.882   2.844  0.6543  0.5118  0.2656
   30CHL1   H7B 2159   6.212   5.714   2.850  0.0262  1.2200  0.7444
   30CHL1    C8 2160   6.416   5.742   2.906  0.5253 -0.0256 -0.9795
   30CHL1    H8 2161   6.481   5.832   2.898  1.5690 -0.6570  0.1562
   30CHL1   C14 2162   6.362   5.714   3.047  0.0234  0.3715  1.3500
   30CHL1   H14 2163   6.299   5.624   3.027 -0.9047  1.6188 -2.0289
   30CHL1   C15 2164   6.272   5.821   3.113  0.5887  0.1532 -0.2956
   30CHL1  H15A 2165   6.310   5.922   3.088  0.7099  0.0547 -0.5113
   30CHL1  H15B 2166   6.167   5.824   3.076 -0.1947 -1.5941  1.5744
   30CHL1   C16 2167   6.266   5.790   3.260 -0.9134 -0.1463  0.4134
   30CHL1  H16A 2168   6.288   5.890   3.302 -0.6463 -0.1926  0.3867
   30CHL1  H16B 2169   6.163   5.763   3.292 -1.6389 -1.7467 -2.8732
   30CHL1   C17 2170   6.369   5.673   3.277 -1.2193 -0.4653 -0.1388
   30CHL1   H17 2171   6.301   5.585   3.281 -1.6922 -0.0598  1.2194
   30CHL1   C13 2172   6.470   5.676   3.152 -0.3407  0.2948  0.2385
   30CHL1   C18 2173   6.571   5.792   3.166  0.4297 -0.0722  0.2506
   30CHL1  H18A 2174   6.635   5.810   3.077  2.2277 -4.1547  0.4679
   30CHL1  H18B 2175   6.520   5.879   3.212  1.4539 -0.0301  1.3472
   30CHL1  H18C 2176   6.638   5.758   3.247  0.2896  0.0295  0.4106
   30CHL1   C12 2177   6.539   5.547   3.103 -0.2451 -0.0065  0.6132
   30CHL1  H12A 2178   6.626   5.527   3.170 -0.5307  1.0288  1.3072
   30CHL1  H12B 2179   6.475   5.457   3.100 -0.0405 -0.1319 -0.1760
   30CHL1   C11 2180   6.595   5.566   2.959 -0.3770 -0.3222  0.2933
   30CHL1  H11A 2181   6.677   5.640   2.971 -0.6588 -0.1646  1.3512
   30CHL1  H11B 2182   6.643   5.472   2.924  1.3858  0.9109 -0.7549
   30CHL1    C9 2183   6.487   5.614   2.856  0.8217 -0.3224 -1.5092
   30CHL1    H9 2184   6.407   5.537   2.854  0.2261  0.2962 -2.6715
   30CHL1   C10 2185   6.533   5.635   2.711 -0.3882  0.1278  0.2461
   30CHL1   C19 2186   6.658   5.725   2.705  0.0410 -0.3251  0.2285
   30CHL1  H19A 2187   6.685   5.736   2.598 -0.1891  0.1155  0.2102
   30CHL1  H19B 2188   6.637   5.825   2.750 -2.2621 -1.2929  1.4741
   30CHL1  H19C 2189   6.737   5.676   2.765  0.0126  0.1865  0.7051
   30CHL1    C1 2190   6.560   5.490   2.649 -0.2665  0.1956 -0.4003
   30CHL1   H1A 2191   6.653   5.448   2.691 -0.8034  1.4528  2.2056
   30CHL1   H1B 2192   6.481   5.417   2.678 -0.5729  0.8703  0.4711
   30CHL1    C2 2193   6.584   5.486   2.495 -0.1427 -0.2854  0.3042
   30CHL1   H2A 2194   6.602   5.382   2.462 -0.3888  0.3829 -2.1498
   30CHL1   H2B 2195   6.675   5.544   2.470 -0.8353  0.7906  0.1865
   30CHL1   C20 2196   6.441   5.681   3.417 -0.0027  0.4586  0.3721
   30CHL1   H20 2197   6.534   5.742   3.420 -1.4370  2.6880  1.3684
   30CHL1   C21 2198   6.479   5.539   3.456 -0.6127  0.8998 -0.5370
   30CHL1  H21A 2199   6.532   5.483   3.376  1.2281 -1.8931  2.3912
   30CHL1  H21B 2200   6.403   5.470   3.499  0.6946 -0.9681 -1.1039
   30CHL1  H21C 2201   6.548   5.548   3.543 -0.7297  1.9945 -0.5436
   30CHL1   C22 2202   6.349   5.741   3.526  0.6231  0.8234 -0.1581
   30CHL1  H22A 2203   6.341   5.851   3.513 -0.5675  0.8514  0.6002
   30CHL1  H22B 2204   6.246   5.701   3.514  0.6386  0.4923  0.7444
   30CHL1   C23 2205   6.391   5.726   3.671 -0.5865 -0.7877  0.0657
   30CHL1  H23A 2206   6.402   5.618   3.694  2.9519 -0.4568  0.5265
   30CHL1  H23B 2207   6.483   5.780   3.703 -0.9260  1.1275 -1.9384
   30CHL1   C24 2208   6.286   5.764   3.779 -0.0665  0.2066  0.1580
   30CHL1  H24A 2209   6.269   5.873   3.793  0.3281  0.3199 -0.2370
   30CHL1  H24B 2210   6.185   5.728   3.749 -0.4394  1.9205 -0.8038
   30CHL1   C25 2211   6.320   5.706   3.915  0.6584  0.5287  0.3322
   30CHL1   H25 2212   6.349   5.599   3.907 -1.1764  0.1049 -1.2448
   30CHL1   C26 2213   6.435   5.792   3.970 -0.6933 -0.4829  0.0191
   30CHL1  H26A 2214   6.395   5.892   3.999 -1.1571 -0.0346 -1.9897
   30CHL1  H26B 2215   6.475   5.751   4.065 -2.8023  1.0512  1.6605
   30CHL1  H26C 2216   6.519   5.811   3.899 -0.8695  1.3970  0.2543
   30CHL1   C27 2217   6.200   5.698   4.023  0.0584  0.1598  0.3720
   30CHL1  H27A 2218   6.242   5.655   4.117  0.6155  1.3578  0.6893
   30CHL1  H27B 2219   6.156   5.799   4.037 -2.0462 -0.4512 -1.3093
   30CHL1  H27C 2220   6.124   5.624   3.990 -0.1565  1.0515 -1.2304
   31CHL1    C3 2221   6.516   1.144   2.248 -0.2800  0.4041 -0.7485
   31CHL1    H3 2222   6.445   1.061   2.271  0.2968  0.2321  0.5295
   31CHL1    O3 2223   6.515   1.179   2.114  0.1118 -0.7533  0.2765
   31CHL1   H3' 2224   6.582   1.122   2.076  3.0515  1.4449  1.6918
   31CHL1    C4 2225   6.497   1.265   2.343  0.3121 -0.0269 -0.3101
   31CHL1   H4A 2226   6.562   1.346   2.303  1.0367  0.8322  2.3682
   31CHL1   H4B 2227   6.393   1.301   2.330  0.5325  0.9888  0.5735
   31CHL1    C5 2228   6.526   1.236   2.491 -0.3794 -0.5485  0.7271
   31CHL1    C6 2229   6.428   1.241   2.584  0.4314 -0.4501  0.3673
   31CHL1    H6 2230   6.329   1.274   2.551  0.2818 -1.1842  0.0630
   31CHL1    C7 2231   6.448   1.219   2.730  0.2638 -0.1413 -0.2013
   31CHL1   H7A 2232   6.408   1.304   2.789  3.6366  0.7306  1.0614
   31CHL1   H7B 2233   6.410   1.119   2.762  2.7069 -0.7347  1.1869
   31CHL1    C8 2234   6.603   1.215   2.768 -0.0133  0.1251 -0.0897
   31CHL1    H8 2235   6.630   1.323   2.767  0.3817  0.0344 -1.5663
   31CHL1   C14 2236   6.611   1.151   2.904  0.1385 -0.8478  0.1246
   31CHL1   H14 2237   6.569   1.051   2.879 -0.6766 -0.1280 -1.4817
   31CHL1   C15 2238   6.524   1.209   3.018 -0.2703  1.4642  0.2894
   31CHL1  H15A 2239   6.528   1.320   3.017  2.1694  1.4422  0.1871
   31CHL1  H15B 2240   6.419   1.174   3.009 -0.1672  0.5150  2.1561
   31CHL1   C16 2241   6.592   1.145   3.140  0.1918 -0.1180  0.1355
   31CHL1  H16A 2242   6.606   1.235   3.203  2.4931  0.2385 -0.7785
   31CHL1  H16B 2243   6.531   1.062   3.180  0.1316 -0.1180  0.0450
   31CHL1   C17 2244   6.722   1.080   3.102  0.3777  0.2743  0.8365
   31CHL1   H17 2245   6.701   0.971   3.098 -1.4849  0.5941  1.1632
   31CHL1   C13 2246   6.755   1.135   2.957  0.1884  0.2197 -1.1504
   31CHL1   C18 2247   6.815   1.271   2.970 -0.4550  0.1509  0.5235
   31CHL1  H18A 2248   6.924   1.257   2.987  0.1099  0.6040 -2.2889
   31CHL1  H18B 2249   6.805   1.324   2.873  0.7961 -1.5952 -0.5975
   31CHL1  H18C 2250   6.759   1.325   3.050 -0.7368 -0.5161  0.7821
   31CHL1   C12 2251   6.824   1.038   2.860 -0.5082  0.4670 -0.1364
   31CHL1  H12A 2252   6.931   1.023   2.887 -0.8084 -2.1870 -0.1365
   31CHL1  H12B 2253   6.776   0.938   2.849  0.4865 -0.2733  1.8576
   31CHL1   C11 2254   6.819   1.097   2.718  0.1396 -1.1022  0.5138
   31CHL1  H11A 2255   6.876   1.192   2.719 -1.5146 -0.0487 -0.2360
   31CHL1  H11B 2256   6.868   1.024   2.651  0.6995  0.6831 -1.1044
   31CHL1    C9 2257   6.679   1.132   2.666  0.2406  0.7399  0.2000
   31CHL1    H9 2258   6.619   1.039   2.664 -0.0960  0.9643 -0.7259
   31CHL1   C10 2259   6.669   1.182   2.519  0.1378  0.7006  0.3892
   31CHL1   C19 2260   6.776   1.286   2.498  0.1689 -0.6399 -0.8800
   31CHL1  H19A 2261   6.880   1.250   2.507 -0.5584 -2.8859 -0.8247
   31CHL1  H19B 2262   6.766   1.328   2.395 -1.4474  0.7569 -0.2147
   31CHL1  H19C 2263   6.761   1.368   2.572  0.6329 -0.3610 -1.0921
   31CHL1    C1 2264   6.686   1.064   2.416  0.2291 -0.0892 -0.0551
   31CHL1   H1A 2265   6.793   1.038   2.428  0.3757 -0.4705 -1.8882
   31CHL1   H1B 2266   6.625   0.976   2.448 -2.6318  2.2196  1.3122
   31CHL1    C2 2267   6.659   1.100   2.266 -0.6082 -0.0420 -0.8006
   31CHL1   H2A 2268   6.681   1.005   2.214 -1.2566 -0.5672 -0.1300
   31CHL1   H2B 2269   6.739   1.175   2.244  0.3899 -0.9582 -0.3915
   31CHL1   C20 2270   6.834   1.088   3.210  0.5355  0.3082 -0.4820
   31CHL1   H20 2271   6.854   1.197   3.219  1.8163  0.0270  0.4969
   31CHL1   C21 2272   6.960   1.013   3.156 -0.8516  0.4968 -0.5315
   31CHL1  H21A 2273   7.019   1.005   3.249  0.1728  1.5360 -1.0620
   31CHL1  H21B 2274   7.010   1.064   3.071  1.5719 -0.4178  0.2837
   31CHL1  H21C 2275   6.933   0.909   3.129 -0.3055  0.1694  0.1841
   31CHL1   C22 2276   6.790   1.045   3.357 -0.0135 -0.0209  0.4533
   31CHL1  H22A 2277   6.680   1.060   3.361  0.0364  1.3934 -1.8593
   31CHL1  H22B 2278   6.816   0.938   3.372 -1.7055 -0.5370 -0.0604
   31CHL1   C23 2279   6.857   1.133   3.461 -0.2182  0.1103 -0.2440
   31CHL1  H23A 2280   6.968   1.122   3.461 -0.2336 -0.2284  0.9012
   31CHL1  H23B 2281   6.839   1.238   3.433 -0.6923  0.3646  0.9476
   31CHL1   C24 2282   6.797   1.111   3.600 -0.3595 -0.0668 -0.6912
   31CHL1  H24A 2283   6.693   1.147   3.586 -0.7232  0.2348  2.2339
   31CHL1  H24B 2284   6.801   1.002   3.624 -1.3922 -0.2053 -1.0936
   31CHL1   C25 2285   6.851   1.204   3.712 -0.6556 -0.9117 -0.2114
   31CHL1   H25 2286   6.823   1.307   3.681 -2.2582 -0.7621  1.5607
   31CHL1   C26 2287   6.772   1.182   3.843  0.2689  0.2864  0.6279
   31CHL1  H26A 2288   6.667   1.217   3.835  0.4692  1.9639  3.7856
   31CHL1  H26B 2289   6.772   1.073   3.866 -1.9607 -0.0188 -0.5035
   31CHL1  H26C 2290   6.818   1.231   3.932 -1.8889  3.5020  0.1543
   31CHL1   C27 2291   7.002   1.189   3.737 -0.3133  0.0911 -0.0909
   31CHL1  H27A 2292   7.032   1.259   3.818 -0.4471 -0.9495  0.8807
   31CHL1  H27B 2293   7.020   1.088   3.779 -0.5933  0.3978  0.7828
   31CHL1  H27C 2294   7.070   1.194   3.649 -0.2915 -2.9822 -0.3423
   32CHL1    C3 2295   0.424   3.165   2.393 -0.1025  0.6950 -0.0005
   32CHL1    H3 2296   0.405   3.065   2.437 -1.6519 -0.1686 -2.4785
   32CHL1    O3 2297   0.411   3.160   2.255  0.1218  0.7786  0.3443
   32CHL1   H3' 2298   0.441   3.247   2.229  0.1978  0.1913 -1.6724
   32CHL1    C4 2299   0.323   3.258   2.453  0.3797 -0.3504  0.1052
   32CHL1   H4A 2300   0.331   3.362   2.413  1.8525 -0.6046 -0.3098
   32CHL1   H4B 2301   0.220   3.226   2.429 -0.0472  1.5361 -0.7842
   32CHL1    C5 2302   0.349   3.253   2.604  0.3911 -0.5459  0.3344
   32CHL1    C6 2303   0.267   3.183   2.686  0.0122 -0.1405 -0.4657
   32CHL1    H6 2304   0.172   3.147   2.644 -1.2501  0.3339  1.8305
   32CHL1    C7 2305   0.290   3.174   2.840  0.7326  0.3745  0.4548
   32CHL1   H7A 2306   0.194   3.186   2.895  1.2032  1.6149  1.0371
   32CHL1   H7B 2307   0.321   3.071   2.868  0.5392 -0.7510 -2.9593
   32CHL1    C8 2308   0.390   3.274   2.895  0.3372 -0.0767 -0.5466
   32CHL1    H8 2309   0.347   3.375   2.878 -2.2036 -1.1801 -1.1922
   32CHL1   C14 2310   0.420   3.252   3.044  0.6158  0.4729  1.0823
   32CHL1   H14 2311   0.458   3.150   3.062  0.6783  0.8822  3.6205
   32CHL1   C15 2312   0.298   3.253   3.144 -0.5600 -0.2711  0.5446
   32CHL1  H15A 2313   0.228   3.336   3.120  0.4757  0.5075  0.1455
   32CHL1  H15B 2314   0.245   3.155   3.134  1.4349 -1.2352 -1.3534
   32CHL1   C16 2315   0.358   3.278   3.278  0.5519 -0.1974 -0.4313
   32CHL1  H16A 2316   0.329   3.371   3.331  2.7641  0.4480 -0.2446
   32CHL1  H16B 2317   0.353   3.193   3.349 -0.4534  1.0287  1.0271
   32CHL1   C17 2318   0.515   3.302   3.254  0.0840 -0.1652 -0.7867
   32CHL1   H17 2319   0.563   3.203   3.260  1.9825  0.7283 -0.5712
   32CHL1   C13 2320   0.523   3.345   3.101  0.5182 -0.2731 -0.2725
   32CHL1   C18 2321   0.465   3.489   3.091  0.5407 -0.5873  0.7232
   32CHL1  H18A 2322   0.531   3.557   3.148 -0.7791  0.3121  1.2360
   32CHL1  H18B 2323   0.453   3.525   2.986  1.3642 -1.4496  0.3227
   32CHL1  H18C 2324   0.369   3.496   3.146  0.2686 -0.0339  0.1948
   32CHL1   C12 2325   0.651   3.310   3.027 -0.5698  0.6428  0.2849
   32CHL1  H12A 2326   0.721   3.385   3.071 -0.7339 -0.4818  2.5926
   32CHL1  H12B 2327   0.692   3.212   3.058  1.1310  1.5057  0.8981
   32CHL1   C11 2328   0.640   3.343   2.872 -0.3439  0.2379  0.0748
   32CHL1  H11A 2329   0.628   3.453   2.871 -0.6124  0.2419  1.3934
   32CHL1  H11B 2330   0.736   3.328   2.818 -1.0116  1.1692 -1.4318
   32CHL1    C9 2331   0.518   3.268   2.810 -0.5189  0.4549 -0.2071
   32CHL1    H9 2332   0.545   3.161   2.821  3.8883  1.4902  0.8437
   32CHL1   C10 2333   0.487   3.305   2.659 -0.1659  0.4970 -0.3758
   32CHL1   C19 2334   0.479   3.454   2.637  0.4184  0.3709  0.1796
   32CHL1  H19A 2335   0.461   3.481   2.531 -3.1625 -0.8319  0.3254
   32CHL1  H19B 2336   0.408   3.502   2.708  2.8375  0.3403  2.8078
   32CHL1  H19C 2337   0.578   3.497   2.663  0.1383 -0.2820  2.5214
   32CHL1    C1 2338   0.598   3.241   2.569 -0.0056  0.3886 -0.5186
   32CHL1   H1A 2339   0.693   3.296   2.583  0.2293 -0.0119 -0.5243
   32CHL1   H1B 2340   0.621   3.139   2.608 -0.3196  0.1804 -0.8732
   32CHL1    C2 2341   0.562   3.220   2.421  0.5099  0.4081  0.0747
   32CHL1   H2A 2342   0.641   3.152   2.383 -0.3728  1.1227 -3.4719
   32CHL1   H2B 2343   0.565   3.320   2.373 -4.2426  0.0262 -1.6345
   32CHL1   C20 2344   0.584   3.390   3.352 -0.5774 -0.2632  0.0762
   32CHL1   H20 2345   0.535   3.489   3.362 -1.8233 -0.9273  0.8579
   32CHL1   C21 2346   0.738   3.395   3.323  0.0125  0.1094  0.3925
   32CHL1  H21A 2347   0.779   3.441   3.415 -1.1918  0.5744  0.7063
   32CHL1  H21B 2348   0.760   3.472   3.246 -1.1080  1.2472  1.2004
   32CHL1  H21C 2349   0.787   3.297   3.302 -2.0282 -0.2865 -3.4092
   32CHL1   C22 2350   0.568   3.315   3.488  0.6543  0.4048  0.3129
   32CHL1  H22A 2351   0.459   3.301   3.508  0.2727 -0.0429 -1.8125
   32CHL1  H22B 2352   0.632   3.227   3.471  0.7743  0.5478  0.0035
   32CHL1   C23 2353   0.616   3.384   3.619 -0.5258  0.0895 -0.1571
   32CHL1  H23A 2354   0.725   3.383   3.642 -0.9309 -2.3753  2.2529
   32CHL1  H23B 2355   0.592   3.491   3.605 -2.4015 -0.2733 -0.0127
   32CHL1   C24 2356   0.542   3.333   3.743 -0.2396 -0.4069 -0.2817
   32CHL1  H24A 2357   0.446   3.389   3.742 -0.2069 -0.3316  0.3490
   32CHL1  H24B 2358   0.526   3.223   3.742  1.1207 -0.7339  2.4769
   32CHL1   C25 2359   0.617   3.354   3.882  0.0788 -0.8835  0.3432
   32CHL1   H25 2360   0.667   3.453   3.882  0.3459 -0.9230 -2.8267
   32CHL1   C26 2361   0.508   3.353   3.991 -0.7092  0.1142 -0.6386
   32CHL1  H26A 2362   0.465   3.252   4.007  1.8397 -0.8961  0.3765
   32CHL1  H26B 2363   0.557   3.369   4.089  0.2249 -1.6691 -0.7683
   32CHL1  H26C 2364   0.424   3.426   3.984 -1.4964 -0.6068  0.7746
   32CHL1   C27 2365   0.730   3.246   3.898  0.2459  0.0212 -0.8386
   32CHL1  H27A 2366   0.692   3.154   3.946  0.2685  0.2120 -0.4501
   32CHL1  H27B 2367   0.764   3.227   3.794  1.0572  1.8483 -0.9445
   32CHL1  H27C 2368   0.813   3.285   3.961  0.5466 -1.5467 -0.2219
   33CHL1    C3 2369   4.272   4.205   2.453 -0.2130 -0.0494  0.1973
   33CHL1    H3 2370   4.168   4.169   2.464 -0.0319 -0.1476  1.7708
   33CHL1    O3 2371   4.278   4.298   2.342  0.4364  0.0875  0.0215
   33CHL1   H3' 2372   4.261   4.233   2.273 -0.6932 -2.4437  2.4685
   33CHL1    C4 2373   4.320   4.282   2.574  1.1494  0.0610  0.0394
   33CHL1   H4A 2374   4.412   4.342   2.555 -0.5880  2.8997 -0.1473
   33CHL1   H4B 2375   4.235   4.351   2.593  0.4814 -0.0832 -2.1394
   33CHL1    C5 2376   4.329   4.185   2.684 -0.4564  0.4753 -0.9532
   33CHL1    C6 2377   4.259   4.216   2.796  0.0156 -0.4150 -0.3049
   33CHL1    H6 2378   4.204   4.312   2.794  0.4613 -0.0709  1.5262
   33CHL1    C7 2379   4.270   4.137   2.928 -0.2977 -0.4876 -0.1182
   33CHL1   H7A 2380   4.281   4.202   3.017 -0.0151 -1.9659  0.9662
   33CHL1   H7B 2381   4.177   4.082   2.954 -0.6850  0.2871  0.1665
   33CHL1    C8 2382   4.390   4.036   2.915  0.8261  0.4024  0.3843
   33CHL1    H8 2383   4.484   4.092   2.934  1.5060 -0.9058  0.9969
   33CHL1   C14 2384   4.367   3.935   3.021  0.3673  0.5635  0.3065
   33CHL1   H14 2385   4.280   3.874   2.991  1.8464 -1.1276 -0.7052
   33CHL1   C15 2386   4.342   3.982   3.165 -1.0410  0.0862  0.3191
   33CHL1  H15A 2387   4.393   4.074   3.200 -0.4907 -0.2586  0.4519
   33CHL1  H15B 2388   4.234   4.005   3.173 -0.7686  1.1154  1.4330
   33CHL1   C16 2389   4.388   3.872   3.255 -0.3587  0.6817 -0.5167
   33CHL1  H16A 2390   4.477   3.904   3.312  1.7134 -0.9172 -2.6531
   33CHL1  H16B 2391   4.307   3.843   3.325 -0.0530  0.3762 -0.2916
   33CHL1   C17 2392   4.436   3.756   3.161  0.4563 -0.2575 -0.2321
   33CHL1   H17 2393   4.342   3.702   3.133  0.4911 -1.6053  2.0499
   33CHL1   C13 2394   4.483   3.834   3.037  0.4406 -0.5922  0.1818
   33CHL1   C18 2395   4.620   3.908   3.060 -0.9167 -0.2849 -0.0890
   33CHL1  H18A 2396   4.627   3.957   3.159 -0.0898  1.3400 -0.9137
   33CHL1  H18B 2397   4.698   3.830   3.051 -2.7425 -2.2838  0.5819
   33CHL1  H18C 2398   4.633   3.981   2.977 -0.4586 -0.6900 -0.3735
   33CHL1   C12 2399   4.497   3.759   2.903  0.1236 -0.5209 -0.1496
   33CHL1  H12A 2400   4.583   3.690   2.897  0.9593  0.4531  0.3352
   33CHL1  H12B 2401   4.400   3.707   2.888 -0.3703 -0.0993  1.4064
   33CHL1   C11 2402   4.504   3.855   2.788  0.2792 -0.7956 -0.5456
   33CHL1  H11A 2403   4.606   3.900   2.787  0.3790 -1.0138 -0.2437
   33CHL1  H11B 2404   4.505   3.803   2.689 -2.0383 -2.6561  0.3152
   33CHL1    C9 2405   4.397   3.968   2.779 -0.4236  1.3224 -0.1996
   33CHL1    H9 2406   4.302   3.909   2.776  0.9943 -1.6569  3.8639
   33CHL1   C10 2407   4.421   4.062   2.662 -0.2633  0.5937 -0.3770
   33CHL1   C19 2408   4.565   4.106   2.647 -0.3049 -0.1390  0.8822
   33CHL1  H19A 2409   4.569   4.168   2.555 -3.6042 -0.6367  0.2525
   33CHL1  H19B 2410   4.601   4.165   2.734  2.0249 -2.2145  1.4498
   33CHL1  H19C 2411   4.646   4.032   2.628 -0.0493  0.5659 -1.0418
   33CHL1    C1 2412   4.375   3.985   2.529 -0.4688  0.0792 -0.5444
   33CHL1   H1A 2413   4.455   3.912   2.503 -0.4322 -0.5654  1.2331
   33CHL1   H1B 2414   4.287   3.922   2.555  0.1324 -0.5169  0.1203
   33CHL1    C2 2415   4.355   4.072   2.414 -0.0239 -0.0672  0.1663
   33CHL1   H2A 2416   4.304   4.009   2.338  0.0292  1.3244 -1.0729
   33CHL1   H2B 2417   4.453   4.108   2.375  1.8362 -1.1710  3.4153
   33CHL1   C20 2418   4.532   3.650   3.235  0.8009 -0.3336  0.4040
   33CHL1   H20 2419   4.628   3.701   3.259  2.1402 -2.2850 -0.5250
   33CHL1   C21 2420   4.559   3.531   3.132 -0.0763 -0.5302  0.0231
   33CHL1  H21A 2421   4.465   3.481   3.099 -1.4091 -0.7395  3.6591
   33CHL1  H21B 2422   4.631   3.461   3.179 -0.1085 -0.0007  0.8924
   33CHL1  H21C 2423   4.612   3.572   3.043 -0.8016  1.9027  0.6346
   33CHL1   C22 2424   4.472   3.598   3.371 -0.0280  0.8225  0.5339
   33CHL1  H22A 2425   4.451   3.687   3.433 -0.0241  0.5508  0.9294
   33CHL1  H22B 2426   4.386   3.535   3.340  0.4086 -0.4212  1.7295
   33CHL1   C23 2427   4.572   3.508   3.435  0.0279  0.1047 -0.2526
   33CHL1  H23A 2428   4.597   3.427   3.364 -2.3580 -1.4105  0.5034
   33CHL1  H23B 2429   4.664   3.569   3.442 -0.8687  1.5659 -0.6916
   33CHL1   C24 2430   4.535   3.449   3.571  0.3909  0.0216  0.4129
   33CHL1  H24A 2431   4.628   3.409   3.616  1.6461  1.9981 -0.3123
   33CHL1  H24B 2432   4.496   3.530   3.636 -0.5297 -0.5453  0.5958
   33CHL1   C25 2433   4.422   3.346   3.564 -0.0628  0.4103  0.7262
   33CHL1   H25 2434   4.331   3.389   3.518  0.2734  0.4149  0.0461
   33CHL1   C26 2435   4.458   3.218   3.482 -0.0387 -0.0537 -0.2831
   33CHL1  H26A 2436   4.477   3.254   3.378  1.4424 -1.0799 -0.3938
   33CHL1  H26B 2437   4.550   3.165   3.515 -0.6405 -1.5593 -0.9323
   33CHL1  H26C 2438   4.377   3.144   3.467 -0.3628  0.0807  0.7443
   33CHL1   C27 2439   4.385   3.308   3.704  0.3360  0.6899 -0.2704
   33CHL1  H27A 2440   4.294   3.245   3.695  0.9213 -0.1919 -0.1733
   33CHL1  H27B 2441   4.464   3.243   3.749 -1.2628 -1.5517 -0.5098
   33CHL1  H27C 2442   4.361   3.401   3.759 -0.4466  0.4208 -0.1340
   34CHL1    C3 2443   5.034   5.968   2.443 -0.0214  0.8203  0.3989
   34CHL1    H3 2444   4.950   6.039   2.458  1.7951  3.2960 -0.4974
   34CHL1    O3 2445   5.049   5.960   2.303  0.0250 -0.5118  0.4515
   34CHL1   H3' 2446   5.126   5.903   2.295  1.6405  1.6472 -0.5118
   34CHL1    C4 2447   5.161   6.036   2.495  0.4698 -0.2232  0.0215
   34CHL1   H4A 2448   5.254   5.977   2.476  0.1384 -0.8921  0.4299
   34CHL1   H4B 2449   5.177   6.131   2.440 -1.2995  2.4379  3.6844
   34CHL1    C5 2450   5.146   6.055   2.643  0.2988 -0.5307 -0.9305
   34CHL1    C6 2451   5.149   6.176   2.706  0.5890 -1.1620  0.0007
   34CHL1    H6 2452   5.164   6.268   2.647 -0.7658 -0.1972  1.1080
   34CHL1    C7 2453   5.144   6.205   2.852  0.0668  0.0185  0.2052
   34CHL1   H7A 2454   5.222   6.278   2.882  1.1717  0.0448 -2.4857
   34CHL1   H7B 2455   5.048   6.255   2.877  0.8111  0.9234  1.3837
   34CHL1    C8 2456   5.159   6.079   2.945  0.5059  0.5576  0.1333
   34CHL1    H8 2457   5.263   6.041   2.954 -0.6555 -2.9529 -0.0685
   34CHL1   C14 2458   5.085   6.113   3.076  0.3310  0.3082 -0.2547
   34CHL1   H14 2459   4.981   6.137   3.047  0.5028  2.3703  0.6404
   34CHL1   C15 2460   5.118   6.246   3.158 -0.1094  0.5082  0.3812
   34CHL1  H15A 2461   5.229   6.240   3.168 -0.2705 -2.7390  1.4784
   34CHL1  H15B 2462   5.106   6.341   3.102 -0.1288 -0.6122 -1.6065
   34CHL1   C16 2463   5.051   6.227   3.295  0.0928  0.1238  0.4317
   34CHL1  H16A 2464   5.124   6.252   3.375  0.1768 -1.2621  0.8266
   34CHL1  H16B 2465   4.965   6.297   3.290  0.3668  0.3937 -0.6308
   34CHL1   C17 2466   5.006   6.075   3.296 -0.1907 -0.2973  0.2966
   34CHL1   H17 2467   4.900   6.075   3.265 -0.5135 -0.8584  1.3655
   34CHL1   C13 2468   5.082   6.002   3.175 -0.1547  0.0648  0.0125
   34CHL1   C18 2469   5.219   5.961   3.226  0.0365  0.1097 -0.5161
   34CHL1  H18A 2470   5.209   5.877   3.298 -0.2672 -0.8579 -1.6382
   34CHL1  H18B 2471   5.287   5.922   3.147  0.8177  3.6938 -1.8081
   34CHL1  H18C 2472   5.262   6.055   3.267 -2.4861  1.6873 -1.2348
   34CHL1   C12 2473   5.007   5.881   3.112  0.2574 -0.5191  0.6525
   34CHL1  H12A 2474   5.008   5.792   3.178  0.1738 -0.8917  0.1559
   34CHL1  H12B 2475   4.898   5.902   3.102  0.1647 -0.8901  0.8715
   34CHL1   C11 2476   5.059   5.841   2.976  0.4521  0.6832 -0.1103
   34CHL1  H11A 2477   5.158   5.794   2.993 -0.1686 -0.3432  0.7795
   34CHL1  H11B 2478   4.998   5.768   2.918  0.1613  0.9395 -0.1296
   34CHL1    C9 2479   5.082   5.962   2.881 -1.2953 -0.0505 -0.6952
   34CHL1    H9 2480   4.980   6.007   2.869 -1.8735 -1.4549 -1.2474
   34CHL1   C10 2481   5.118   5.933   2.728  0.3578  0.3305  0.0230
   34CHL1   C19 2482   5.254   5.862   2.733  0.2574  0.1865  0.6378
   34CHL1  H19A 2483   5.329   5.929   2.780  1.2706 -1.6593  1.7558
   34CHL1  H19B 2484   5.246   5.767   2.790 -2.2052 -1.2891 -1.8970
   34CHL1  H19C 2485   5.282   5.834   2.629  0.0414 -4.4549  1.6428
   34CHL1    C1 2486   5.004   5.846   2.661  0.0053 -0.6254  0.2306
   34CHL1   H1A 2487   5.008   5.748   2.712 -1.0715 -0.4355  0.7203
   34CHL1   H1B 2488   4.905   5.892   2.683 -0.7565 -2.0095 -0.2119
   34CHL1    C2 2489   5.018   5.828   2.504  0.5740 -0.2748  0.1012
   34CHL1   H2A 2490   4.924   5.787   2.461  0.8240  0.7698 -1.5579
   34CHL1   H2B 2491   5.106   5.763   2.484  0.3085 -0.6865  0.2639
   34CHL1   C20 2492   4.995   6.017   3.438 -0.1145  0.1630 -0.4416
   34CHL1   H20 2493   5.091   6.014   3.494 -1.9699  1.7118  3.1702
   34CHL1   C21 2494   4.948   5.871   3.424  0.5308  0.4886 -0.3656
   34CHL1  H21A 2495   4.930   5.820   3.520  1.3202 -1.0696 -1.0196
   34CHL1  H21B 2496   5.021   5.799   3.381 -2.1692 -1.5207 -1.8874
   34CHL1  H21C 2497   4.856   5.867   3.361  1.0812 -0.1829 -1.1344
   34CHL1   C22 2498   4.897   6.093   3.533  0.4185 -0.4272 -0.2129
   34CHL1  H22A 2499   4.940   6.195   3.528  2.4180 -1.0265  2.1567
   34CHL1  H22B 2500   4.793   6.092   3.495  0.0527  1.1186  0.6738
   34CHL1   C23 2501   4.888   6.040   3.680  0.9108 -0.4430  0.4397
   34CHL1  H23A 2502   4.815   5.956   3.673 -0.9208  1.1842 -1.1660
   34CHL1  H23B 2503   4.990   6.012   3.715  1.2444  3.6122  3.4018
   34CHL1   C24 2504   4.837   6.149   3.770  0.4779  0.9238 -1.3787
   34CHL1  H24A 2505   4.911   6.231   3.757 -0.2137  2.2254  1.8627
   34CHL1  H24B 2506   4.742   6.198   3.740  0.5927  2.2192  0.2502
   34CHL1   C25 2507   4.824   6.113   3.923  0.1139 -0.5181 -0.1194
   34CHL1   H25 2508   4.917   6.066   3.960 -0.6142 -2.4086 -0.5827
   34CHL1   C26 2509   4.804   6.235   4.010  0.1225 -0.1858  0.6099
   34CHL1  H26A 2510   4.882   6.313   4.002 -0.5401  0.4957  0.6959
   34CHL1  H26B 2511   4.708   6.287   3.989  0.4961  0.2180 -0.1310
   34CHL1  H26C 2512   4.790   6.213   4.118 -1.8859  0.2406  0.4809
   34CHL1   C27 2513   4.710   6.010   3.954  0.2019  0.2892  0.1815
   34CHL1  H27A 2514   4.610   6.053   3.933  0.5740  0.9921 -0.1905
   34CHL1  H27B 2515   4.721   5.919   3.890 -0.7457  0.3637 -0.1026
   34CHL1  H27C 2516   4.719   5.986   4.062  1.1685  2.9557  0.7593
   35CHL1    C3 2517   4.545   0.059   2.768  0.3240  0.6769 -0.5177
   35CHL1    H3 2518   4.512  -0.046   2.776  0.0371  0.8903  1.5150
   35CHL1    O3 2519   4.606   0.072   2.638 -0.6331  0.4636 -0.7008
   35CHL1   H3' 2520   4.587   0.161   2.608 -0.5556  0.0606 -2.0448
   35CHL1    C4 2521   4.441   0.174   2.787 -0.0761 -0.5600 -0.1549
   35CHL1   H4A 2522   4.502   0.267   2.786 -0.6018 -0.2096 -0.0957
   35CHL1   H4B 2523   4.370   0.185   2.702  0.3839  1.1903 -0.3543
   35CHL1    C5 2524   4.387   0.174   2.922 -0.4271  0.2536  0.1532
   35CHL1    C6 2525   4.258   0.175   2.939  0.0567  0.2947  0.8268
   35CHL1    H6 2526   4.190   0.175   2.853  1.7532 -1.1500 -0.5911
   35CHL1    C7 2527   4.197   0.175   3.073 -0.2256 -0.6691 -0.5293
   35CHL1   H7A 2528   4.104   0.236   3.077 -0.5458 -1.1774 -0.2184
   35CHL1   H7B 2529   4.165   0.073   3.100 -0.2132 -0.7276 -0.7340
   35CHL1    C8 2530   4.299   0.221   3.191 -0.0426 -0.3754 -0.5767
   35CHL1    H8 2531   4.328   0.326   3.174  0.1297 -0.4152 -0.5274
   35CHL1   C14 2532   4.229   0.197   3.327  0.0734 -0.0457 -0.0058
   35CHL1   H14 2533   4.198   0.091   3.325 -2.1249  0.4969  1.5751
   35CHL1   C15 2534   4.098   0.277   3.354 -0.2281 -0.1180 -0.4698
   35CHL1  H15A 2535   4.086   0.379   3.311 -1.2858 -0.0182  0.0220
   35CHL1  H15B 2536   4.013   0.215   3.321 -0.0898  0.0536 -1.1602
   35CHL1   C16 2537   4.090   0.271   3.507  0.1985  0.5701 -0.4934
   35CHL1  H16A 2538   4.106   0.372   3.553  0.0959 -0.0280  0.9241
   35CHL1  H16B 2539   3.993   0.239   3.551 -0.2145 -0.8592 -2.3471
   35CHL1   C17 2540   4.214   0.192   3.559  0.4016 -0.4683  0.1295
   35CHL1   H17 2541   4.177   0.087   3.549 -2.2873  0.3325  0.9681
   35CHL1   C13 2542   4.321   0.216   3.446  0.2969  0.6308  0.5117
   35CHL1   C18 2543   4.381   0.358   3.452  0.1681  0.6040 -0.1421
   35CHL1  H18A 2544   4.308   0.430   3.497  0.3777  0.7233  0.0083
   35CHL1  H18B 2545   4.468   0.357   3.520 -1.3123 -2.1318  1.8977
   35CHL1  H18C 2546   4.411   0.387   3.349 -0.2200 -0.5878 -0.6069
   35CHL1   C12 2547   4.436   0.108   3.424  0.0317  0.7862  0.3140
   35CHL1  H12A 2548   4.509   0.102   3.508 -0.3769  0.5979  0.6594
   35CHL1  H12B 2549   4.393   0.006   3.425 -1.3965  1.3717  0.3257
   35CHL1   C11 2550   4.516   0.136   3.299  0.7475  0.7808 -0.4882
   35CHL1  H11A 2551   4.567   0.234   3.309 -0.5190  1.5962 -1.6328
   35CHL1  H11B 2552   4.588   0.055   3.278  0.2899  0.3510 -0.4274
   35CHL1    C9 2553   4.422   0.132   3.171 -0.1902  0.2574 -0.4574
   35CHL1    H9 2554   4.390   0.026   3.164 -1.3915  0.6189 -0.7436
   35CHL1   C10 2555   4.487   0.170   3.042  0.3539  0.3008  0.8749
   35CHL1   C19 2556   4.550   0.310   3.042  0.1048 -0.2229 -0.5630
   35CHL1  H19A 2557   4.607   0.335   2.950 -0.6189 -0.5761 -1.1229
   35CHL1  H19B 2558   4.484   0.398   3.060  0.2542  0.1353 -1.6549
   35CHL1  H19C 2559   4.619   0.312   3.128 -0.9169  0.4019  0.2723
   35CHL1    C1 2560   4.600   0.066   3.013 -0.1799  0.1112 -0.1215
   35CHL1   H1A 2561   4.695   0.079   3.070 -0.5618  2.5550  0.0743
   35CHL1   H1B 2562   4.568  -0.038   3.032  1.4016 -0.9134 -2.5080
   35CHL1    C2 2563   4.664   0.068   2.870  0.3664  0.3460 -0.4292
   35CHL1   H2A 2564   4.726  -0.024   2.862 -0.0184 -0.1252  1.5503
   35CHL1   H2B 2565   4.717   0.163   2.849 -3.2759  2.4957 -0.8166
   35CHL1   C20 2566   4.256   0.225   3.704 -0.0186 -0.0440  0.0464
   35CHL1   H20 2567   4.267   0.335   3.711  1.6875 -0.1793 -0.0661
   35CHL1   C21 2568   4.387   0.148   3.733  0.3446  0.0317 -0.2210
   35CHL1  H21A 2569   4.416   0.150   3.840  0.4955 -1.1527 -0.2286
   35CHL1  H21B 2570   4.470   0.210   3.693 -0.8851  1.0751 -1.2792
   35CHL1  H21C 2571   4.376   0.042   3.703  0.3627 -0.0407  0.0249
   35CHL1   C22 2572   4.155   0.180   3.806 -0.2335  1.1101 -0.6034
   35CHL1  H22A 2573   4.049   0.210   3.789 -1.3157 -0.9645  1.7777
   35CHL1  H22B 2574   4.159   0.069   3.807  3.2358  1.1330 -0.3525
   35CHL1   C23 2575   4.184   0.231   3.946  0.4395  0.3003 -0.0540
   35CHL1  H23A 2576   4.221   0.152   4.015  0.4095  1.0205  0.8074
   35CHL1  H23B 2577   4.262   0.310   3.934  0.7244  0.1285  0.6120
   35CHL1   C24 2578   4.063   0.293   4.016  0.0660 -0.2633  0.1393
   35CHL1  H24A 2579   4.096   0.349   4.106  2.2171  0.4543 -1.0053
   35CHL1  H24B 2580   4.027   0.369   3.944  0.3238 -2.5937 -2.6309
   35CHL1   C25 2581   3.944   0.198   4.060 -0.1169  0.0230  0.2269
   35CHL1   H25 2582   3.900   0.151   3.970 -0.0057 -0.2786  0.3304
   35CHL1   C26 2583   3.968   0.089   4.163  0.2109  0.1041  0.3161
   35CHL1  H26A 2584   3.981   0.129   4.266 -0.1109  0.2546  0.3015
   35CHL1  H26B 2585   3.887   0.013   4.170  1.0636 -0.6473  3.9090
   35CHL1  H26C 2586   4.057   0.028   4.137 -0.1087  0.4028 -1.6394
   35CHL1   C27 2587   3.830   0.284   4.121 -0.7592  0.2334  0.3109
   35CHL1  H27A 2588   3.807   0.368   4.052 -2.5955 -1.1717 -0.8802
   35CHL1  H27B 2589   3.738   0.223   4.133 -0.2339 -1.1407 -2.0557
   35CHL1  H27C 2590   3.865   0.322   4.219  2.2817  0.7351 -0.8482
   36CHL1    C3 2591   5.103   2.636   2.487 -0.6735 -0.1244 -0.0453
   36CHL1    H3 2592   5.179   2.557   2.507 -1.8115 -1.1406  0.3672
   36CHL1    O3 2593   5.093   2.661   2.349  0.1133 -0.4309 -0.3796
   36CHL1   H3' 2594   5.061   2.750   2.333 -1.5778 -0.5646  1.8730
   36CHL1    C4 2595   4.967   2.581   2.537  0.0340 -0.6974  0.2076
   36CHL1   H4A 2596   4.882   2.648   2.513 -0.7994 -1.8084 -0.0377
   36CHL1   H4B 2597   4.940   2.485   2.488  1.0432 -0.6233 -0.5214
   36CHL1    C5 2598   4.972   2.554   2.688  0.1241 -0.4726 -0.3540
   36CHL1    C6 2599   4.937   2.437   2.749  0.0452 -0.0110 -0.0710
   36CHL1    H6 2600   4.900   2.365   2.674  1.8223 -0.2040 -0.8344
   36CHL1    C7 2601   4.937   2.404   2.891  0.1292 -0.2551 -0.1885
   36CHL1   H7A 2602   4.841   2.361   2.928 -0.0761  1.1300  0.9750
   36CHL1   H7B 2603   5.006   2.319   2.910 -1.5502 -1.0384  3.1145
   36CHL1    C8 2604   4.953   2.537   2.976  0.3089  0.5036 -0.7589
   36CHL1    H8 2605   4.856   2.590   2.986 -1.5018 -2.8303  0.9771
   36CHL1   C14 2606   5.005   2.489   3.110 -0.0411 -0.6371 -0.5050
   36CHL1   H14 2607   5.101   2.441   3.078  0.1666 -0.2185 -0.5168
   36CHL1   C15 2608   4.921   2.385   3.187 -0.1678  0.5033  0.5477
   36CHL1  H15A 2609   4.815   2.416   3.187 -0.4839 -0.5037 -0.8051
   36CHL1  H15B 2610   4.941   2.288   3.136  0.3983  0.2435  1.2520
   36CHL1   C16 2611   4.980   2.392   3.328 -0.0194  0.4133 -0.0638
   36CHL1  H16A 2612   4.892   2.403   3.395  1.7524 -1.4140  2.8220
   36CHL1  H16B 2613   5.024   2.292   3.351  0.8315  1.1138  1.5775
   36CHL1   C17 2614   5.074   2.512   3.345 -0.0509 -0.1974  0.0624
   36CHL1   H17 2615   5.178   2.476   3.328 -0.5480 -1.6664 -0.0066
   36CHL1   C13 2616   5.040   2.600   3.221 -0.2057 -0.1581  0.0093
   36CHL1   C18 2617   4.907   2.670   3.262 -0.9633  0.3824 -0.0969
   36CHL1  H18A 2618   4.926   2.747   3.341 -0.0123 -1.0076  1.0727
   36CHL1  H18B 2619   4.856   2.710   3.172  1.2708 -0.4585 -1.7995
   36CHL1  H18C 2620   4.832   2.599   3.303 -0.1903 -0.7040 -0.5507
   36CHL1   C12 2621   5.138   2.705   3.152 -0.3333 -0.5957  0.1960
   36CHL1  H12A 2622   5.157   2.796   3.214  1.7619 -0.0455 -1.1685
   36CHL1  H12B 2623   5.234   2.651   3.143 -1.1079 -2.6969  3.0688
   36CHL1   C11 2624   5.087   2.752   3.013 -0.3072 -0.3771  0.3605
   36CHL1  H11A 2625   4.992   2.806   3.031  0.9321  1.3818  1.9594
   36CHL1  H11B 2626   5.155   2.826   2.967 -2.9695  1.9619 -0.0842
   36CHL1    C9 2627   5.057   2.631   2.921 -0.2579 -0.9018  0.6263
   36CHL1    H9 2628   5.155   2.580   2.910  0.5457  0.7656 -0.3618
   36CHL1   C10 2629   5.024   2.672   2.773 -0.6017  0.5545 -0.7442
   36CHL1   C19 2630   4.926   2.784   2.776 -0.1823 -0.3585 -0.4509
   36CHL1  H19A 2631   4.977   2.863   2.835  0.3587 -1.5599  0.7312
   36CHL1  H19B 2632   4.892   2.831   2.681 -1.8622 -0.8852 -0.1604
   36CHL1  H19C 2633   4.837   2.752   2.834 -1.4237  1.1634 -1.4042
   36CHL1    C1 2634   5.149   2.732   2.711 -0.4634 -0.0151 -0.3056
   36CHL1   H1A 2635   5.173   2.832   2.753 -2.0763  1.1684 -2.0083
   36CHL1   H1B 2636   5.234   2.663   2.729  0.9597  1.2793 -1.7312
   36CHL1    C2 2637   5.141   2.765   2.564 -0.0894  0.1049 -0.1781
   36CHL1   H2A 2638   5.236   2.812   2.530 -0.4620  0.5968 -0.5691
   36CHL1   H2B 2639   5.065   2.841   2.534  2.1053  3.1995  1.5457
   36CHL1   C20 2640   5.074   2.565   3.487  0.1441 -0.5876  0.3969
   36CHL1   H20 2641   4.971   2.597   3.512  0.1173  0.4069 -0.9303
   36CHL1   C21 2642   5.163   2.693   3.502  0.3512  0.3149  0.5382
   36CHL1  H21A 2643   5.125   2.773   3.435  3.2261  2.4876  1.3548
   36CHL1  H21B 2644   5.269   2.671   3.477  0.5547 -0.4185  1.9749
   36CHL1  H21C 2645   5.159   2.735   3.604  0.1605  0.1000  0.6223
   36CHL1   C22 2646   5.139   2.461   3.584 -0.0048  0.6143  0.0426
   36CHL1  H22A 2647   5.101   2.358   3.565  0.7951  0.2795  0.2210
   36CHL1  H22B 2648   5.244   2.450   3.551  0.4277  3.1039  0.4029
   36CHL1   C23 2649   5.125   2.485   3.739 -0.7252 -0.6273  0.1735
   36CHL1  H23A 2650   5.188   2.572   3.766 -0.0652 -1.8800  3.1773
   36CHL1  H23B 2651   5.020   2.510   3.767  0.2124  1.8732  1.7753
   36CHL1   C24 2652   5.176   2.369   3.817 -0.5813  0.3234 -0.1263
   36CHL1  H24A 2653   5.146   2.273   3.770 -1.4899  0.4413  0.1847
   36CHL1  H24B 2654   5.286   2.383   3.821 -0.6158  0.8274 -0.7102
   36CHL1   C25 2655   5.122   2.364   3.966  1.2416  0.2617  0.2211
   36CHL1   H25 2656   5.012   2.350   3.957  1.2845 -0.1667  0.3249
   36CHL1   C26 2657   5.187   2.250   4.038 -0.5261 -0.3878  0.4197
   36CHL1  H26A 2658   5.295   2.277   4.048 -1.2589  2.8728  0.8302
   36CHL1  H26B 2659   5.134   2.247   4.136  1.2810  1.6354  1.5788
   36CHL1  H26C 2660   5.180   2.155   3.981 -4.1858 -0.4623  0.7873
   36CHL1   C27 2661   5.142   2.494   4.049 -0.5239 -0.7165 -0.0705
   36CHL1  H27A 2662   5.125   2.586   3.989  1.0595 -0.3422  0.0097
   36CHL1  H27B 2663   5.077   2.507   4.138 -0.9320  0.8027 -0.5440
   36CHL1  H27C 2664   5.249   2.504   4.078  0.0510 -0.2564 -2.2080
   37CHL1    C3 2665   2.622   5.267   2.092  0.5398 -0.1435  0.2274
   37CHL1    H3 2666   2.727   5.294   2.068  0.7353 -0.7074  0.4221
   37CHL1    O3 2667   2.541   5.236   1.978 -0.5390 -0.5081 -0.4169
   37CHL1   H3' 2668   2.522   5.322   1.941 -2.1045 -0.9436 -0.7115
   37CHL1    C4 2669   2.625   5.145   2.184 -0.4557 -0.6282  0.9233
   37CHL1   H4A 2670   2.523   5.102   2.188 -0.3069 -0.9085  1.9069
   37CHL1   H4B 2671   2.685   5.070   2.128  0.9412  1.2215 -0.1920
   37CHL1    C5 2672   2.668   5.182   2.323  0.2654  0.4536 -0.0903
   37CHL1    C6 2673   2.763   5.108   2.380  0.4896 -0.5801  0.3612
   37CHL1    H6 2674   2.797   5.021   2.322 -1.9825 -0.9897 -0.6278
   37CHL1    C7 2675   2.833   5.146   2.508 -0.9335  0.2282  0.7292
   37CHL1   H7A 2676   2.869   5.054   2.558  0.1582 -0.6155 -1.4692
   37CHL1   H7B 2677   2.920   5.208   2.480 -0.3581 -1.0943 -0.5635
   37CHL1    C8 2678   2.752   5.233   2.597 -0.4397  0.1097  0.0308
   37CHL1    H8 2679   2.660   5.179   2.631 -1.0265  1.7451  1.1450
   37CHL1   C14 2680   2.828   5.276   2.718 -0.2241 -0.6183  0.4047
   37CHL1   H14 2681   2.913   5.335   2.678 -0.9723  0.2359  0.0535
   37CHL1   C15 2682   2.894   5.168   2.805  0.1527 -0.0147 -0.5092
   37CHL1  H15A 2683   2.815   5.092   2.821  0.3611 -0.0098  0.6016
   37CHL1  H15B 2684   2.980   5.113   2.762 -1.3963 -3.4767  0.4463
   37CHL1   C16 2685   2.926   5.245   2.944  0.1852  0.4064  0.2820
   37CHL1  H16A 2686   2.874   5.182   3.019 -2.4496  1.0967 -0.8420
   37CHL1  H16B 2687   3.033   5.254   2.971  0.4486 -1.6792  0.0575
   37CHL1   C17 2688   2.858   5.387   2.933  0.6240 -0.0213  0.0593
   37CHL1   H17 2689   2.946   5.445   2.899 -0.1703  0.5216 -1.1506
   37CHL1   C13 2690   2.752   5.373   2.812 -0.2055 -0.1080 -0.3135
   37CHL1   C18 2691   2.623   5.322   2.870 -0.1422  0.1246 -0.5159
   37CHL1  H18A 2692   2.646   5.241   2.943 -2.7601 -0.5523 -0.3478
   37CHL1  H18B 2693   2.570   5.406   2.920 -1.4718 -0.4298 -0.9333
   37CHL1  H18C 2694   2.553   5.267   2.804  0.2727 -3.9090  2.0132
   37CHL1   C12 2695   2.723   5.492   2.731  0.1118 -0.8767  0.2093
   37CHL1  H12A 2696   2.673   5.573   2.788 -0.2881 -2.3952  2.1657
   37CHL1  H12B 2697   2.821   5.523   2.691 -0.4818  1.0019  0.1341
   37CHL1   C11 2698   2.638   5.461   2.607  0.0995 -0.0107 -0.0925
   37CHL1  H11A 2699   2.539   5.418   2.635 -0.2139  1.2070  0.7643
   37CHL1  H11B 2700   2.623   5.556   2.552  1.5247  0.8595  0.9598
   37CHL1    C9 2701   2.700   5.353   2.513 -0.1457 -0.5461  0.4537
   37CHL1    H9 2702   2.794   5.396   2.472 -0.3178  1.0002  1.6001
   37CHL1   C10 2703   2.616   5.310   2.390 -0.2916  0.0547 -0.3016
   37CHL1   C19 2704   2.464   5.284   2.430 -0.0860 -0.3128  0.0695
   37CHL1  H19A 2705   2.410   5.233   2.347 -0.3834 -0.3047  0.2587
   37CHL1  H19B 2706   2.457   5.209   2.511 -0.9227 -0.7600 -0.3980
   37CHL1  H19C 2707   2.410   5.374   2.465  0.6282 -0.5354  1.8761
   37CHL1    C1 2708   2.623   5.428   2.286 -0.3049  0.2448  0.0661
   37CHL1   H1A 2709   2.591   5.518   2.343  1.7901 -0.2605  2.2266
   37CHL1   H1B 2710   2.725   5.456   2.254 -0.5345 -0.8866 -1.7666
   37CHL1    C2 2711   2.554   5.387   2.159 -0.7812  0.7901 -0.5855
   37CHL1   H2A 2712   2.552   5.473   2.089 -0.3418  1.4785  0.2421
   37CHL1   H2B 2713   2.447   5.367   2.180 -0.7552  1.1255 -0.1246
   37CHL1   C20 2714   2.812   5.443   3.065 -0.3685  0.3546 -0.4040
   37CHL1   H20 2715   2.717   5.401   3.105 -1.2662  2.5460 -0.0931
   37CHL1   C21 2716   2.802   5.596   3.062 -0.0455 -0.4632 -0.0723
   37CHL1  H21A 2717   2.901   5.636   3.033  0.2242 -0.8402  0.3243
   37CHL1  H21B 2718   2.779   5.640   3.162  2.1771  1.1873 -0.2066
   37CHL1  H21C 2719   2.719   5.609   2.989 -1.2056 -2.1923  0.8458
   37CHL1   C22 2720   2.914   5.402   3.180 -0.2882  0.3483  0.7559
   37CHL1  H22A 2721   2.906   5.294   3.204 -0.7565  0.3850  0.7771
   37CHL1  H22B 2722   3.011   5.426   3.133 -0.4505 -0.4916 -0.0396
   37CHL1   C23 2723   2.901   5.479   3.312 -0.0455 -0.1423 -0.2777
   37CHL1  H23A 2724   2.918   5.585   3.282 -0.5075  0.5222  1.6592
   37CHL1  H23B 2725   2.801   5.465   3.359  0.2389  0.3409  0.4957
   37CHL1   C24 2726   2.997   5.433   3.421  0.2725 -0.1395 -0.4990
   37CHL1  H24A 2727   2.979   5.325   3.439 -3.8101  0.4542 -0.1941
   37CHL1  H24B 2728   3.097   5.440   3.372 -0.1616  1.7884 -1.1916
   37CHL1   C25 2729   2.975   5.514   3.554 -0.7702 -0.1564  0.2874
   37CHL1   H25 2730   2.978   5.617   3.512  1.4829 -0.0848  0.4730
   37CHL1   C26 2731   2.837   5.488   3.625 -1.0548 -0.3342  0.7182
   37CHL1  H26A 2732   2.809   5.381   3.615 -0.5993 -0.4010  0.0842
   37CHL1  H26B 2733   2.839   5.505   3.735  0.3413  0.8589  0.5361
   37CHL1  H26C 2734   2.762   5.556   3.580 -2.4680 -2.1283  0.2228
   37CHL1   C27 2735   3.088   5.496   3.660  0.1320 -0.9411  0.6538
   37CHL1  H27A 2736   3.178   5.494   3.595 -1.3093 -1.0390 -1.4049
   37CHL1  H27B 2737   3.089   5.583   3.729  1.1231  0.6333 -1.2380
   37CHL1  H27C 2738   3.085   5.398   3.711  5.2398 -2.1907 -0.9198
   38CHL1    C3 2739   0.299   5.982   2.032 -0.6109 -0.2186 -0.1739
   38CHL1    H3 2740   0.261   5.878   2.028  0.7432 -0.7278 -0.2670
   38CHL1    O3 2741   0.319   6.030   1.900  0.7315 -0.0031 -0.0504
   38CHL1   H3' 2742   0.405   6.071   1.906  0.5559  0.1899  1.6660
   38CHL1    C4 2743   0.208   6.082   2.101  0.0027 -0.5067  0.5742
   38CHL1   H4A 2744   0.245   6.187   2.093 -0.7910 -0.2110  0.7391
   38CHL1   H4B 2745   0.109   6.086   2.051 -0.3820  1.6818  1.4024
   38CHL1    C5 2746   0.186   6.050   2.245 -0.7081 -0.0191 -0.6159
   38CHL1    C6 2747   0.063   6.028   2.300  0.3440  0.7322  0.5833
   38CHL1    H6 2748  -0.022   6.028   2.230  1.5180 -0.6889 -0.9451
   38CHL1    C7 2749   0.041   6.002   2.449 -0.5451  0.1631  0.5303
   38CHL1   H7A 2750  -0.049   6.064   2.474 -1.1644 -1.1585  1.6776
   38CHL1   H7B 2751   0.009   5.898   2.470 -1.9633  0.6110  0.7159
   38CHL1    C8 2752   0.167   6.048   2.535  0.0434 -0.2926  0.2372
   38CHL1    H8 2753   0.163   6.159   2.530  1.1628 -0.2349  0.5214
   38CHL1   C14 2754   0.153   5.993   2.675  0.0108  0.3127 -0.5956
   38CHL1   H14 2755   0.158   5.883   2.664  2.4009  0.4768 -1.6885
   38CHL1   C15 2756   0.024   6.035   2.737 -0.1895 -0.0534 -1.1973
   38CHL1  H15A 2757  -0.011   6.137   2.709 -1.3455 -0.2422 -0.5116
   38CHL1  H15B 2758  -0.057   5.974   2.692  1.0204 -0.8746 -2.3583
   38CHL1   C16 2759   0.052   6.024   2.895  0.7816 -0.5929  0.5919
   38CHL1  H16A 2760   0.024   6.125   2.932 -1.5603 -0.3897 -1.4393
   38CHL1  H16B 2761  -0.019   5.950   2.938  0.5377 -2.1395 -2.2065
   38CHL1   C17 2762   0.197   5.981   2.904 -0.1482 -0.9145 -0.1086
   38CHL1   H17 2763   0.220   5.872   2.906  1.4803 -0.6015  0.9767
   38CHL1   C13 2764   0.265   6.038   2.766 -0.2031  0.1042 -0.0236
   38CHL1   C18 2765   0.272   6.194   2.778 -0.4771 -0.5865 -0.6618
   38CHL1  H18A 2766   0.185   6.239   2.829  0.7517 -0.4461  1.4650
   38CHL1  H18B 2767   0.357   6.210   2.848  0.4953 -2.4565 -1.3257
   38CHL1  H18C 2768   0.301   6.244   2.684  0.0197 -1.5382 -1.0382
   38CHL1   C12 2769   0.397   5.983   2.708 -0.0992 -1.0031 -0.3336
   38CHL1  H12A 2770   0.481   6.016   2.773  0.6348  0.4439 -1.9414
   38CHL1  H12B 2771   0.380   5.873   2.711 -2.2518 -0.7595 -1.5613
   38CHL1   C11 2772   0.420   6.022   2.564  0.1572 -0.2980 -0.0517
   38CHL1  H11A 2773   0.455   6.127   2.568  0.2614 -0.3694  1.5577
   38CHL1  H11B 2774   0.505   5.960   2.528  0.1069 -0.3652 -0.0559
   38CHL1    C9 2775   0.297   5.996   2.472  0.6275 -0.1567  0.5197
   38CHL1    H9 2776   0.278   5.886   2.469 -5.2518  0.5637  0.9921
   38CHL1   C10 2777   0.319   6.041   2.327 -0.3493  0.7105  0.4113
   38CHL1   C19 2778   0.373   6.180   2.332  0.0729 -0.4481 -0.8737
   38CHL1  H19A 2779   0.371   6.227   2.231  0.0165  2.3646  0.3538
   38CHL1  H19B 2780   0.313   6.241   2.403 -0.2757 -1.7979  0.0548
   38CHL1  H19C 2781   0.478   6.186   2.368 -0.8775 -0.3514  2.1810
   38CHL1    C1 2782   0.421   5.951   2.252  0.1642 -0.4189  0.3725
   38CHL1   H1A 2783   0.523   5.960   2.294  1.4376 -3.3401 -1.7542
   38CHL1   H1B 2784   0.406   5.842   2.261  1.2309 -0.4381  2.1786
   38CHL1    C2 2785   0.437   5.980   2.102  0.4874 -0.4406 -0.2142
   38CHL1   H2A 2786   0.516   5.910   2.069 -0.5712 -2.0195  0.4815
   38CHL1   H2B 2787   0.471   6.085   2.086 -2.0411  0.1957 -2.1994
   38CHL1   C20 2788   0.252   6.043   3.040  0.0496  0.6042 -0.2278
   38CHL1   H20 2789   0.236   6.153   3.034 -4.2373  0.3462  2.4717
   38CHL1   C21 2790   0.399   6.012   3.050 -0.1517 -0.0684  0.0084
   38CHL1  H21A 2791   0.458   6.086   2.992 -0.9916 -0.0849 -0.8917
   38CHL1  H21B 2792   0.421   5.906   3.024 -0.3296 -0.3933  1.1050
   38CHL1  H21C 2793   0.434   6.012   3.156  2.5336 -0.0034 -0.7934
   38CHL1   C22 2794   0.177   5.998   3.163  0.2484  0.1311 -0.3304
   38CHL1  H22A 2795   0.219   6.028   3.261 -0.8810  1.3116 -0.1896
   38CHL1  H22B 2796   0.080   6.053   3.158  0.6562  0.8170 -0.9829
   38CHL1   C23 2797   0.159   5.846   3.176 -0.1728  0.6261 -0.2440
   38CHL1  H23A 2798   0.135   5.786   3.086 -3.2558 -0.0992  0.9332
   38CHL1  H23B 2799   0.259   5.808   3.204 -0.4079  1.3697  1.7569
   38CHL1   C24 2800   0.066   5.795   3.286  0.3474 -0.3791  0.0781
   38CHL1  H24A 2801   0.070   5.869   3.369  0.8435 -0.2444 -0.0632
   38CHL1  H24B 2802  -0.031   5.783   3.233 -0.2158  2.6340  0.2697
   38CHL1   C25 2803   0.105   5.657   3.349 -0.5264 -0.7651  0.1879
   38CHL1   H25 2804   0.211   5.671   3.377 -0.8926  0.0849  1.1847
   38CHL1   C26 2805   0.017   5.629   3.472  0.0123  0.8585 -0.4122
   38CHL1  H26A 2806   0.036   5.703   3.552  3.3942 -1.1139  0.8334
   38CHL1  H26B 2807  -0.092   5.633   3.450 -1.1657 -0.7068  4.0404
   38CHL1  H26C 2808   0.040   5.528   3.512  0.9791 -0.2115 -3.3933
   38CHL1   C27 2809   0.095   5.543   3.248  0.1265  0.0970 -0.0709
   38CHL1  H27A 2810  -0.004   5.542   3.199 -0.5487 -0.5706  1.2445
   38CHL1  H27B 2811   0.170   5.554   3.167 -0.7939 -0.6480 -1.0638
   38CHL1  H27C 2812   0.103   5.444   3.298  0.3836  0.1911  0.0800
   39CHL1    C3 2813   5.046   5.009   2.580  0.3269 -0.2409 -0.4163
   39CHL1    H3 2814   5.093   5.107   2.601  1.5450 -0.6476 -1.1057
   39CHL1    O3 2815   5.067   4.980   2.443 -0.0621 -0.3874 -0.4763
   39CHL1   H3' 2816   5.067   4.885   2.434 -0.6915 -0.6313  1.6154
   39CHL1    C4 2817   5.104   4.901   2.673 -0.2589 -0.3056  0.7635
   39CHL1   H4A 2818   5.066   4.803   2.639  1.7049 -0.7756 -0.1878
   39CHL1   H4B 2819   5.211   4.898   2.645 -0.6231 -0.8912 -0.6764
   39CHL1    C5 2820   5.060   4.912   2.814  0.4099 -0.5712 -0.4998
   39CHL1    C6 2821   5.153   4.939   2.915 -0.2090  0.4588  0.7615
   39CHL1    H6 2822   5.259   4.923   2.890 -1.0425 -1.5365 -1.9565
   39CHL1    C7 2823   5.114   4.956   3.058  0.0796  0.0284 -0.1561
   39CHL1   H7A 2824   5.190   4.908   3.124  1.1835  0.6499 -0.9350
   39CHL1   H7B 2825   5.126   5.064   3.081  0.4201 -0.3254  1.5080
   39CHL1    C8 2826   4.973   4.909   3.098 -0.4504  0.1332 -0.2195
   39CHL1    H8 2827   4.970   4.798   3.090 -0.2628 -0.1531  2.5454
   39CHL1   C14 2828   4.939   4.959   3.239  0.0964  0.7657  0.3045
   39CHL1   H14 2829   4.934   5.069   3.227 -0.2600  0.9319  1.8052
   39CHL1   C15 2830   5.034   4.947   3.355  0.2623 -0.5108 -0.4044
   39CHL1  H15A 2831   5.092   4.853   3.342  0.3983 -0.5990  0.7193
   39CHL1  H15B 2832   5.097   5.039   3.347 -1.0984  0.9914  3.5476
   39CHL1   C16 2833   4.952   4.950   3.478  0.6585 -0.8053 -0.3029
   39CHL1  H16A 2834   4.941   4.848   3.520  1.6542  0.0996  2.3925
   39CHL1  H16B 2835   4.999   5.017   3.554  0.0559  0.6719 -1.1840
   39CHL1   C17 2836   4.811   4.994   3.430 -0.4145  0.2013  0.1158
   39CHL1   H17 2837   4.829   5.102   3.414 -2.0343  0.7105  1.4289
   39CHL1   C13 2838   4.795   4.935   3.288 -0.6823 -0.2332 -0.3593
   39CHL1   C18 2839   4.769   4.780   3.310  0.1168 -0.2441  0.1583
   39CHL1  H18A 2840   4.779   4.722   3.216  2.7195 -1.8111  1.3019
   39CHL1  H18B 2841   4.823   4.727   3.391 -0.5798 -1.3578 -0.0907
   39CHL1  H18C 2842   4.663   4.783   3.342  0.0303  1.5217 -0.1650
   39CHL1   C12 2843   4.699   5.007   3.186  0.6794  0.3992  0.6745
   39CHL1  H12A 2844   4.591   4.984   3.203  0.2674  0.4224 -1.6079
   39CHL1  H12B 2845   4.722   5.115   3.176 -0.0305  0.5479  0.6195
   39CHL1   C11 2846   4.736   4.950   3.041  0.0728 -0.3399 -0.5583
   39CHL1  H11A 2847   4.716   4.841   3.039  3.0109 -1.0191  1.1068
   39CHL1  H11B 2848   4.666   4.990   2.965  0.7112  1.1463 -0.3927
   39CHL1    C9 2849   4.879   4.968   2.996 -0.2179 -0.7551  0.0481
   39CHL1    H9 2850   4.898   5.078   2.996  1.3090 -0.8273 -3.8907
   39CHL1   C10 2851   4.912   4.921   2.849  0.2745  0.1627 -0.1472
   39CHL1   C19 2852   4.856   4.780   2.815  0.1535 -0.1243 -0.1233
   39CHL1  H19A 2853   4.873   4.748   2.710 -1.6993 -1.0616 -0.1770
   39CHL1  H19B 2854   4.907   4.705   2.880 -1.6264  0.3998  1.9917
   39CHL1  H19C 2855   4.747   4.773   2.834  0.2085  0.3540  0.3831
   39CHL1    C1 2856   4.853   5.030   2.748 -0.1700  0.3252 -0.2830
   39CHL1   H1A 2857   4.744   5.042   2.763 -0.0070  1.9961 -0.1502
   39CHL1   H1B 2858   4.885   5.129   2.788 -0.2943 -0.1092  0.9376
   39CHL1    C2 2859   4.893   5.010   2.597 -0.2859 -1.0917 -0.0659
   39CHL1   H2A 2860   4.829   5.072   2.531  0.5304  0.8213  0.8526
   39CHL1   H2B 2861   4.864   4.909   2.561  0.7003 -1.4030 -0.0240
   39CHL1   C20 2862   4.700   4.972   3.535 -0.7637 -0.1470 -0.4364
   39CHL1   H20 2863   4.634   4.887   3.506 -0.2395 -0.5813 -0.3720
   39CHL1   C21 2864   4.602   5.092   3.531  0.0910 -0.4346 -0.2952
   39CHL1  H21A 2865   4.579   5.114   3.424 -0.1223 -0.6204 -0.2911
   39CHL1  H21B 2866   4.643   5.179   3.585 -0.1967 -0.5991  0.1964
   39CHL1  H21C 2867   4.506   5.067   3.582  1.1203  0.3666  2.1356
   39CHL1   C22 2868   4.744   4.949   3.682  0.3168  0.3132  0.0599
   39CHL1  H22A 2869   4.813   4.863   3.678  2.4704  1.9866 -3.3959
   39CHL1  H22B 2870   4.806   5.036   3.716  1.2309  0.1320 -1.0902
   39CHL1   C23 2871   4.626   4.913   3.774  0.5147 -0.0375  0.5994
   39CHL1  H23A 2872   4.574   5.007   3.804  1.8968  0.0641  2.9750
   39CHL1  H23B 2873   4.553   4.850   3.720 -0.9385  1.3228  0.8978
   39CHL1   C24 2874   4.666   4.836   3.900 -0.2473 -0.2138  0.6446
   39CHL1  H24A 2875   4.575   4.808   3.958 -2.6739  2.3115 -1.6626
   39CHL1  H24B 2876   4.714   4.744   3.860 -2.4045 -0.6339 -1.1119
   39CHL1   C25 2877   4.750   4.911   3.999  0.0568  0.1527  0.4380
   39CHL1   H25 2878   4.852   4.935   3.961  0.3945  0.3686  1.4602
   39CHL1   C26 2879   4.673   5.036   4.050 -0.0689 -0.5245  0.0478
   39CHL1  H26A 2880   4.736   5.075   4.132 -0.3190  0.6762 -0.3169
   39CHL1  H26B 2881   4.675   5.113   3.970  0.3063 -0.4683  0.1075
   39CHL1  H26C 2882   4.571   5.007   4.084 -0.3408  0.2001 -0.1329
   39CHL1   C27 2883   4.762   4.831   4.129 -0.1085  0.0759 -0.1936
   39CHL1  H27A 2884   4.836   4.883   4.194  2.0470 -1.5954 -1.1736
   39CHL1  H27B 2885   4.667   4.820   4.185  0.3591  1.2636  0.8811
   39CHL1  H27C 2886   4.801   4.728   4.112  0.0128  0.3494 -1.6647
   40CHL1    C3 2887   2.205   4.818   2.257  0.4272  0.2104  0.1381
   40CHL1    H3 2888   2.176   4.916   2.300  1.2211  0.4119  0.2165
   40CHL1    O3 2889   2.190   4.799   2.114  0.1199 -0.6883  0.4599
   40CHL1   H3' 2890   2.103   4.838   2.105 -1.0410 -3.1890 -0.1630
   40CHL1    C4 2891   2.358   4.805   2.278  0.1202  0.4148  0.3845
   40CHL1   H4A 2892   2.389   4.709   2.232 -1.2865  0.7757 -1.4688
   40CHL1   H4B 2893   2.425   4.875   2.223  0.1272  1.1977  1.3714
   40CHL1    C5 2894   2.378   4.802   2.427 -0.5547  0.1179  0.3376
   40CHL1    C6 2895   2.473   4.883   2.477  0.3377  0.5667  0.1337
   40CHL1    H6 2896   2.535   4.933   2.401 -1.2864 -0.8954 -2.3096
   40CHL1    C7 2897   2.516   4.876   2.620 -0.0559  0.2070 -0.6280
   40CHL1   H7A 2898   2.627   4.874   2.613 -0.0668  0.4049 -0.8942
   40CHL1   H7B 2899   2.486   4.970   2.672  1.3145  1.2302 -1.6051
   40CHL1    C8 2900   2.462   4.750   2.696  0.2998  0.4703  0.1329
   40CHL1    H8 2901   2.528   4.668   2.660 -0.9033 -0.4678 -0.0064
   40CHL1   C14 2902   2.468   4.766   2.845 -1.5646 -0.4487  1.2587
   40CHL1   H14 2903   2.386   4.839   2.864 -1.0348  0.5301 -0.0292
   40CHL1   C15 2904   2.598   4.830   2.893  0.2583 -0.1772  0.2327
   40CHL1  H15A 2905   2.686   4.780   2.846  3.0201  3.6355  0.8393
   40CHL1  H15B 2906   2.615   4.938   2.873  2.3265 -0.9706 -3.3384
   40CHL1   C16 2907   2.598   4.792   3.046 -0.2839  0.4155  0.3711
   40CHL1  H16A 2908   2.693   4.736   3.047  0.3952  1.5320  1.3206
   40CHL1  H16B 2909   2.601   4.885   3.107  2.3495  1.0612 -0.6031
   40CHL1   C17 2910   2.475   4.701   3.066  0.7887  0.2801  0.5817
   40CHL1   H17 2911   2.388   4.766   3.087  0.0531 -0.7506  0.8505
   40CHL1   C13 2912   2.435   4.641   2.927 -0.1085 -0.4277 -0.0871
   40CHL1   C18 2913   2.528   4.526   2.887  0.0705  0.3434 -0.0592
   40CHL1  H18A 2914   2.538   4.523   2.777  1.1134  1.2821 -0.0141
   40CHL1  H18B 2915   2.634   4.550   2.913  0.3139  2.1073 -2.3074
   40CHL1  H18C 2916   2.492   4.430   2.930 -2.0492  1.3012  0.4335
   40CHL1   C12 2917   2.289   4.615   2.894  0.3439 -0.4991 -0.2528
   40CHL1  H12A 2918   2.262   4.515   2.935  0.7423 -0.4081  0.2400
   40CHL1  H12B 2919   2.216   4.690   2.930  0.5632  0.1162 -1.0533
   40CHL1   C11 2920   2.264   4.594   2.746  0.1634 -0.8024 -0.7436
   40CHL1  H11A 2921   2.317   4.505   2.706 -0.7492 -1.3840 -0.6893
   40CHL1  H11B 2922   2.156   4.593   2.720  0.3494 -1.7856 -1.5506
   40CHL1    C9 2923   2.318   4.715   2.660 -0.7916 -1.0549  0.1945
   40CHL1    H9 2924   2.250   4.801   2.680 -1.4202 -0.7097 -2.9770
   40CHL1   C10 2925   2.307   4.693   2.508  0.4052 -0.3685 -0.6356
   40CHL1   C19 2926   2.359   4.546   2.465  0.5191 -1.1927  0.6338
   40CHL1  H19A 2927   2.395   4.542   2.360 -1.3193  2.6736 -0.3546
   40CHL1  H19B 2928   2.440   4.503   2.528  1.5328  0.1746  0.3016
   40CHL1  H19C 2929   2.275   4.474   2.472 -0.4169  0.0205  3.7699
   40CHL1    C1 2930   2.156   4.702   2.477 -0.0024  0.3331  1.0687
   40CHL1   H1A 2931   2.104   4.611   2.513 -0.1201  0.1122  0.3572
   40CHL1   H1B 2932   2.107   4.793   2.518 -1.5772 -0.4437  0.9720
   40CHL1    C2 2933   2.126   4.702   2.330 -0.3386 -0.5661 -0.6622
   40CHL1   H2A 2934   2.019   4.732   2.324 -0.0382  0.8252  0.3226
   40CHL1   H2B 2935   2.149   4.604   2.283 -1.2323 -1.3008  0.3970
   40CHL1   C20 2936   2.486   4.607   3.184 -0.2954 -0.9658 -0.9192
   40CHL1   H20 2937   2.538   4.518   3.143 -1.6485 -1.5879 -1.3486
   40CHL1   C21 2938   2.343   4.568   3.229  0.1798  0.4829  0.4912
   40CHL1  H21A 2939   2.302   4.503   3.147  3.3874  0.8065 -1.5368
   40CHL1  H21B 2940   2.272   4.653   3.240 -0.3616  0.5251 -2.3601
   40CHL1  H21C 2941   2.339   4.509   3.323  1.7183  0.6495  0.6749
   40CHL1   C22 2942   2.562   4.684   3.297  0.3280 -0.4907 -1.3086
   40CHL1  H22A 2943   2.667   4.698   3.262  0.9747 -1.3501  0.2135
   40CHL1  H22B 2944   2.528   4.790   3.306  1.8907 -0.0211 -0.4021
   40CHL1   C23 2945   2.582   4.614   3.441 -0.5529  0.1293  0.2726
   40CHL1  H23A 2946   2.483   4.600   3.490 -0.6424 -0.7405 -0.1346
   40CHL1  H23B 2947   2.626   4.513   3.430  3.2915  1.4966  1.5715
   40CHL1   C24 2948   2.677   4.689   3.532 -0.1634 -0.5505 -0.2932
   40CHL1  H24A 2949   2.770   4.710   3.476  2.7140 -0.7735  3.9370
   40CHL1  H24B 2950   2.639   4.790   3.557 -0.0400 -0.5367 -0.1585
   40CHL1   C25 2951   2.723   4.611   3.654  0.0797  0.5585 -0.0609
   40CHL1   H25 2952   2.769   4.515   3.622  2.9365  1.4768  0.9810
   40CHL1   C26 2953   2.827   4.706   3.726  0.0804  0.8661  0.8326
   40CHL1  H26A 2954   2.771   4.795   3.762 -0.7161  0.6467  0.1642
   40CHL1  H26B 2955   2.884   4.652   3.805 -0.4446 -0.4618  0.3471
   40CHL1  H26C 2956   2.892   4.740   3.643  1.1387 -0.6794  0.9817
   40CHL1   C27 2957   2.614   4.562   3.745 -0.0825 -0.1181  0.4328
   40CHL1  H27A 2958   2.574   4.659   3.784  4.4895  2.0635  0.3526
   40CHL1  H27B 2959   2.541   4.503   3.686  0.7763  0.0644 -0.8571
   40CHL1  H27C 2960   2.643   4.483   3.818 -2.7517 -1.5503  0.0602
   41CHL1    C3 2961   6.499   0.733   2.206  0.5191  0.0318 -0.2859
   41CHL1    H3 2962   6.500   0.844   2.215  1.5699 -0.0086  0.3405
   41CHL1    O3 2963   6.422   0.709   2.098  0.3554  0.0710 -0.9000
   41CHL1   H3' 2964   6.442   0.617   2.078 -0.6393 -0.5647  0.8263
   41CHL1    C4 2965   6.638   0.669   2.209  0.0463 -0.1038  0.7555
   41CHL1   H4A 2966   6.643   0.568   2.164  1.0610  1.8856 -4.2394
   41CHL1   H4B 2967   6.687   0.727   2.128 -1.7086  0.8951  0.3600
   41CHL1    C5 2968   6.704   0.663   2.341  0.3195 -0.9409 -0.3921
   41CHL1    C6 2969   6.828   0.695   2.362  0.7181  0.5512 -0.0174
   41CHL1    H6 2970   6.884   0.727   2.274  1.3712  0.3195  0.3073
   41CHL1    C7 2971   6.905   0.686   2.488  0.4393 -1.1073 -0.0572
   41CHL1   H7A 2972   6.996   0.626   2.470  1.3421 -0.8674  3.0492
   41CHL1   H7B 2973   6.928   0.789   2.523 -2.5713 -0.7649  1.2380
   41CHL1    C8 2974   6.834   0.602   2.591  0.0492  0.6977 -0.8830
   41CHL1    H8 2975   6.845   0.496   2.559  0.2716  0.2055  0.7196
   41CHL1   C14 2976   6.891   0.622   2.732 -0.1836  0.2695 -0.3035
   41CHL1   H14 2977   6.873   0.729   2.756  0.2658  0.1722  0.5032
   41CHL1   C15 2978   7.040   0.597   2.739 -0.3303 -0.6433  0.7536
   41CHL1  H15A 2979   7.064   0.492   2.713  0.4588  0.0220 -1.4332
   41CHL1  H15B 2980   7.103   0.663   2.676 -2.6856  0.7105 -0.3200
   41CHL1   C16 2981   7.068   0.608   2.893 -0.0250 -0.7542 -0.0862
   41CHL1  H16A 2982   7.134   0.525   2.928  0.8370 -0.6267 -1.3386
   41CHL1  H16B 2983   7.115   0.706   2.916  0.2173 -1.2808  1.8916
   41CHL1   C17 2984   6.925   0.594   2.964 -0.0592 -0.0743 -1.2225
   41CHL1   H17 2985   6.883   0.693   2.992 -0.8886 -0.6596 -0.3119
   41CHL1   C13 2986   6.832   0.544   2.852 -0.5948  0.1436 -0.3474
   41CHL1   C18 2987   6.850   0.394   2.840  0.2802  0.0206 -1.2275
   41CHL1  H18A 2988   6.807   0.343   2.929  0.7542  2.6939  0.6684
   41CHL1  H18B 2989   6.792   0.358   2.752 -1.9233  1.7002 -0.5563
   41CHL1  H18C 2990   6.955   0.362   2.824  0.5652 -0.1191  0.6729
   41CHL1   C12 2991   6.680   0.581   2.854 -0.4985 -0.3303 -0.1602
   41CHL1  H12A 2992   6.618   0.516   2.920  1.1720  0.0715  1.9213
   41CHL1  H12B 2993   6.680   0.687   2.889  0.9917 -0.3297 -0.0911
   41CHL1   C11 2994   6.613   0.580   2.712  0.1382  0.1722  0.8296
   41CHL1  H11A 2995   6.598   0.472   2.690 -1.1895  0.7724 -1.5869
   41CHL1  H11B 2996   6.508   0.617   2.714 -1.2249 -3.0374 -1.5774
   41CHL1    C9 2997   6.685   0.645   2.589 -0.8885  0.3793  0.5367
   41CHL1    H9 2998   6.689   0.755   2.606  2.1818  1.0772 -3.2566
   41CHL1   C10 2999   6.615   0.616   2.452  0.5962  0.0535 -0.0848
   41CHL1   C19 3000   6.596   0.459   2.435  0.4970 -0.4215 -0.3376
   41CHL1  H19A 3001   6.568   0.441   2.329 -1.0001  2.3184 -0.4958
   41CHL1  H19B 3002   6.676   0.390   2.470 -0.0173 -1.2915 -0.8235
   41CHL1  H19C 3003   6.509   0.422   2.493  1.1713  0.5828  1.4017
   41CHL1    C1 3004   6.482   0.690   2.453  0.6291 -0.0884 -0.2478
   41CHL1   H1A 3005   6.419   0.644   2.532  0.1136  0.1990 -0.4835
   41CHL1   H1B 3006   6.493   0.797   2.484 -3.5024  0.5603 -0.5005
   41CHL1    C2 3007   6.405   0.683   2.318 -0.1783  0.5317 -0.9689
   41CHL1   H2A 3008   6.311   0.742   2.321 -2.3498 -2.6206 -1.5998
   41CHL1   H2B 3009   6.373   0.577   2.316  1.3038 -0.0015  0.9213
   41CHL1   C20 3010   6.924   0.536   3.105 -0.3270 -0.4039  0.1242
   41CHL1   H20 3011   6.963   0.433   3.095 -2.7397 -1.3055 -0.6687
   41CHL1   C21 3012   6.781   0.530   3.165 -0.3598  0.4356  0.3767
   41CHL1  H21A 3013   6.742   0.633   3.152 -1.7019 -0.3630 -2.9317
   41CHL1  H21B 3014   6.777   0.506   3.273  2.8029  0.7393  0.6656
   41CHL1  H21C 3015   6.716   0.459   3.111 -1.5702  1.4586  0.4531
   41CHL1   C22 3016   7.023   0.619   3.198  0.3271 -0.0874 -0.1120
   41CHL1  H22A 3017   7.113   0.660   3.148  1.0178 -2.4329 -0.9184
   41CHL1  H22B 3018   6.960   0.702   3.239  0.1432 -0.7925  1.1000
   41CHL1   C23 3019   7.095   0.540   3.314  0.4393  0.6076 -0.0299
   41CHL1  H23A 3020   7.019   0.471   3.358  1.9949 -0.1020  1.6708
   41CHL1  H23B 3021   7.176   0.482   3.265 -0.5308 -2.4554  1.6555
   41CHL1   C24 3022   7.137   0.626   3.431  0.4228  0.0300  0.3533
   41CHL1  H24A 3023   7.210   0.702   3.397  1.5099 -1.0462  0.2272
   41CHL1  H24B 3024   7.049   0.674   3.478 -0.5711 -0.5430 -0.8570
   41CHL1   C25 3025   7.220   0.549   3.545 -0.2864 -0.1339  0.2888
   41CHL1   H25 3026   7.299   0.488   3.497 -2.0215 -1.0223 -1.6381
   41CHL1   C26 3027   7.265   0.646   3.651 -0.4570 -0.2415  0.5475
   41CHL1  H26A 3028   7.341   0.714   3.607 -0.9393 -0.1914 -0.2496
   41CHL1  H26B 3029   7.182   0.707   3.692  0.7012  0.1675  2.4143
   41CHL1  H26C 3030   7.318   0.600   3.737  1.0111  0.2153 -0.0833
   41CHL1   C27 3031   7.138   0.446   3.618 -0.1541  0.3599  0.1961
   41CHL1  H27A 3032   7.113   0.358   3.555  0.7155  0.1736  0.0938
   41CHL1  H27B 3033   7.194   0.415   3.709 -2.7869 -2.4849  0.9960
   41CHL1  H27C 3034   7.049   0.502   3.655  0.7283  1.2122  1.0792
   42CHL1    C3 3035   1.294   6.796   2.163 -0.1014 -0.0435 -0.4894
   42CHL1    H3 3036   1.400   6.771   2.189 -0.1958  0.4871  0.4318
   42CHL1    O3 3037   1.291   6.839   2.027 -0.6699 -0.1023 -0.6233
   42CHL1   H3' 3038   1.211   6.802   1.990 -0.3339 -2.6055  0.9582
   42CHL1    C4 3039   1.207   6.662   2.183  0.3149 -0.7555  0.3060
   42CHL1   H4A 3040   1.110   6.650   2.129  1.8480 -1.8720 -2.3817
   42CHL1   H4B 3041   1.269   6.595   2.120  0.9439 -0.2067  0.3329
   42CHL1    C5 3042   1.212   6.620   2.324  0.4838  0.4052 -1.0607
   42CHL1    C6 3043   1.263   6.498   2.363 -0.8742  0.5969 -0.0381
   42CHL1    H6 3044   1.314   6.437   2.286  0.5205  1.1548  0.4056
   42CHL1    C7 3045   1.260   6.453   2.509  0.7937 -0.7721  0.5240
   42CHL1   H7A 3046   1.205   6.357   2.512 -1.2156  0.3496  1.0486
   42CHL1   H7B 3047   1.362   6.447   2.552  0.3286 -1.3056  1.5903
   42CHL1    C8 3048   1.178   6.539   2.614  0.0148  0.6905  0.0011
   42CHL1    H8 3049   1.073   6.507   2.596  0.4016 -0.5421 -0.1764
   42CHL1   C14 3050   1.222   6.517   2.762  0.1678 -0.0808 -0.8708
   42CHL1   H14 3051   1.328   6.549   2.758  0.6165 -1.1505  1.0824
   42CHL1   C15 3052   1.222   6.375   2.822  0.5325  0.2430  0.6442
   42CHL1  H15A 3053   1.123   6.337   2.790 -0.2674  2.9448 -0.4406
   42CHL1  H15B 3054   1.297   6.316   2.765 -1.9354  0.5351 -3.3788
   42CHL1   C16 3055   1.259   6.403   2.966 -0.3656 -0.0944  0.1156
   42CHL1  H16A 3056   1.198   6.333   3.028  0.2169 -1.4994 -0.8470
   42CHL1  H16B 3057   1.362   6.374   2.997 -0.1244  0.9905  0.3833
   42CHL1   C17 3058   1.238   6.554   2.985  0.0338 -0.2326  0.1948
   42CHL1   H17 3059   1.331   6.614   2.978 -0.0004 -0.1027  0.7586
   42CHL1   C13 3060   1.152   6.603   2.866 -0.3018 -0.4397  1.1457
   42CHL1   C18 3061   1.004   6.564   2.874  0.4561 -0.5600  0.2866
   42CHL1  H18A 3062   0.956   6.628   2.951  0.0168 -0.9498  0.3459
   42CHL1  H18B 3063   0.944   6.590   2.784 -1.5997 -0.0023  1.7504
   42CHL1  H18C 3064   0.995   6.458   2.906 -1.7721 -0.4509  0.2048
   42CHL1   C12 3065   1.175   6.748   2.825  0.3979  0.5257 -0.0683
   42CHL1  H12A 3066   1.114   6.810   2.894  2.7195  1.6095  1.1378
   42CHL1  H12B 3067   1.277   6.789   2.840 -0.3229  2.7033 -0.7645
   42CHL1   C11 3068   1.138   6.782   2.682  0.1871 -0.6385 -0.5013
   42CHL1  H11A 3069   1.027   6.780   2.691  0.3108 -0.1924  1.8257
   42CHL1  H11B 3070   1.175   6.885   2.666  0.8364 -0.5920  1.0772
   42CHL1    C9 3071   1.189   6.687   2.574  0.0855  0.1576  0.7574
   42CHL1    H9 3072   1.299   6.699   2.570  0.6857 -3.6649  1.2662
   42CHL1   C10 3073   1.157   6.725   2.425 -0.2568 -0.9880  0.5330
   42CHL1   C19 3074   0.996   6.726   2.414 -0.2011 -0.4487  0.1555
   42CHL1  H19A 3075   0.976   6.731   2.305  2.1155  0.2262 -0.2798
   42CHL1  H19B 3076   0.951   6.633   2.455 -0.4160  0.1371  1.2804
   42CHL1  H19C 3077   0.954   6.814   2.467  0.8159  1.2123 -1.6617
   42CHL1    C1 3078   1.227   6.860   2.395  0.3257 -0.3560 -0.5791
   42CHL1   H1A 3079   1.177   6.938   2.456 -0.1409 -1.7775  0.9250
   42CHL1   H1B 3080   1.333   6.858   2.426  0.5608  1.4509 -1.1922
   42CHL1    C2 3081   1.221   6.906   2.246 -0.1452 -0.0655 -0.0418
   42CHL1   H2A 3082   1.276   7.001   2.237  1.7398 -1.2111 -1.1575
   42CHL1   H2B 3083   1.118   6.928   2.211 -0.4017  0.9786  1.2789
   42CHL1   C20 3084   1.184   6.586   3.122  0.7860  0.5464  0.1142
   42CHL1   H20 3085   1.090   6.528   3.131 -0.6033  2.3604 -1.7269
   42CHL1   C21 3086   1.152   6.738   3.139  0.1451 -1.1511 -0.3741
   42CHL1  H21A 3087   1.109   6.749   3.240 -0.3420  0.4863 -0.7242
   42CHL1  H21B 3088   1.073   6.769   3.066 -0.1442 -2.3231 -0.5816
   42CHL1  H21C 3089   1.245   6.798   3.131 -0.0436 -0.4662  1.8711
   42CHL1   C22 3090   1.287   6.533   3.231  0.0834 -0.1449  0.1407
   42CHL1  H22A 3091   1.291   6.422   3.217 -0.5011  0.0238 -1.5793
   42CHL1  H22B 3092   1.389   6.570   3.207  1.1543 -2.5383  0.7037
   42CHL1   C23 3093   1.251   6.579   3.370  0.3202 -0.2372  0.3929
   42CHL1  H23A 3094   1.305   6.675   3.386 -0.4962  0.5381 -1.2282
   42CHL1  H23B 3095   1.141   6.597   3.371  0.4320  1.0099 -2.0319
   42CHL1   C24 3096   1.292   6.474   3.479 -0.4996 -0.2222  1.1261
   42CHL1  H24A 3097   1.227   6.384   3.469 -0.5619  0.0016 -1.0269
   42CHL1  H24B 3098   1.396   6.442   3.458  0.0353  2.1320 -0.0345
   42CHL1   C25 3099   1.290   6.523   3.626 -0.3492  0.1027  0.0036
   42CHL1   H25 3100   1.376   6.594   3.633 -0.3757  0.3959 -2.0111
   42CHL1   C26 3101   1.163   6.606   3.652 -0.1478 -0.3001 -0.2284
   42CHL1  H26A 3102   1.144   6.688   3.580 -1.6645 -1.1650 -0.8483
   42CHL1  H26B 3103   1.072   6.542   3.658 -0.0423 -0.3432  1.4221
   42CHL1  H26C 3104   1.174   6.656   3.751 -0.1536  0.2476 -0.5007
   42CHL1   C27 3105   1.299   6.404   3.730 -0.2505 -0.1610  0.1051
   42CHL1  H27A 3106   1.296   6.445   3.833 -0.2729  1.2087 -0.4179
   42CHL1  H27B 3107   1.209   6.340   3.730 -2.1241  2.3186 -0.0667
   42CHL1  H27C 3108   1.400   6.358   3.725  0.3225  1.2018 -2.3393
   43CHL1    C3 3109   4.712   5.305   2.245 -0.6758  0.3266  0.0935
   43CHL1    H3 3110   4.729   5.200   2.275 -0.1103  0.1600 -0.7634
   43CHL1    O3 3111   4.709   5.319   2.101  0.3401  0.8911 -1.0815
   43CHL1   H3' 3112   4.717   5.414   2.096 -1.0529  1.3259  2.2586
   43CHL1    C4 3113   4.574   5.337   2.295 -0.3001 -0.2038 -0.6604
   43CHL1   H4A 3114   4.543   5.439   2.265  0.0495  0.5508  1.3278
   43CHL1   H4B 3115   4.503   5.259   2.263 -0.4052 -0.6998  0.6901
   43CHL1    C5 3116   4.575   5.328   2.445 -0.0535  1.0657 -0.5132
   43CHL1    C6 3117   4.492   5.242   2.507  0.5162  0.2914  0.3638
   43CHL1    H6 3118   4.420   5.180   2.452  0.0374  1.1130  0.0495
   43CHL1    C7 3119   4.477   5.236   2.655  0.2702 -0.1006 -0.1743
   43CHL1   H7A 3120   4.376   5.210   2.693  0.0343  0.7860 -0.1801
   43CHL1   H7B 3121   4.536   5.154   2.702  1.8792  1.4562  0.6582
   43CHL1    C8 3122   4.527   5.355   2.725 -0.7034 -0.2455 -0.0923
   43CHL1    H8 3123   4.460   5.440   2.703  0.7561  0.4984 -1.9191
   43CHL1   C14 3124   4.528   5.340   2.878 -0.1596 -0.3041  0.0046
   43CHL1   H14 3125   4.598   5.259   2.907 -1.9003 -2.0649 -0.5271
   43CHL1   C15 3126   4.397   5.297   2.947 -0.4544  0.1674 -0.4124
   43CHL1  H15A 3127   4.310   5.342   2.896 -0.9920 -1.1568 -0.7059
   43CHL1  H15B 3128   4.382   5.187   2.938  0.3919 -0.1139  1.2303
   43CHL1   C16 3129   4.415   5.337   3.094 -0.2979 -0.4973  0.1903
   43CHL1  H16A 3130   4.333   5.402   3.129  0.4076 -1.0775  3.2615
   43CHL1  H16B 3131   4.418   5.256   3.171 -0.2888 -0.5398  0.1458
   43CHL1   C17 3132   4.553   5.413   3.092  0.2379 -0.0814  0.4344
   43CHL1   H17 3133   4.636   5.342   3.108 -0.4628 -1.7213 -2.4129
   43CHL1   C13 3134   4.580   5.467   2.951  0.6984 -0.0914  0.2273
   43CHL1   C18 3135   4.493   5.592   2.923  0.3496  0.5515 -0.3295
   43CHL1  H18A 3136   4.513   5.622   2.818 -2.2402  0.5716 -0.8792
   43CHL1  H18B 3137   4.387   5.570   2.948  1.1496 -2.2025  1.1103
   43CHL1  H18C 3138   4.529   5.678   2.983  3.0270  0.9748 -2.3905
   43CHL1   C12 3139   4.725   5.480   2.908  0.5702 -0.2490  0.6693
   43CHL1  H12A 3140   4.768   5.569   2.958 -1.8849  0.7603  1.1430
   43CHL1  H12B 3141   4.779   5.384   2.924  1.5638  0.1261 -0.3599
   43CHL1   C11 3142   4.730   5.503   2.754  0.3733 -0.4431  0.7157
   43CHL1  H11A 3143   4.690   5.604   2.731 -0.0683 -0.6852  0.4146
   43CHL1  H11B 3144   4.835   5.514   2.719  0.2387  1.0739  0.7255
   43CHL1    C9 3145   4.665   5.396   2.669  0.1763  0.7359 -0.1473
   43CHL1    H9 3146   4.734   5.310   2.682 -0.8915 -0.0451  0.5745
   43CHL1   C10 3147   4.668   5.425   2.514 -0.2861  0.1709 -0.4301
   43CHL1   C19 3148   4.625   5.572   2.499 -0.2731  0.2971 -0.3653
   43CHL1  H19A 3149   4.541   5.605   2.564 -0.3415 -2.6441  1.2192
   43CHL1  H19B 3150   4.715   5.632   2.523 -0.7272  1.5319 -1.6069
   43CHL1  H19C 3151   4.600   5.609   2.397 -0.6782 -1.2371 -0.8503
   43CHL1    C1 3152   4.808   5.411   2.451 -0.1837 -1.1014  0.2863
   43CHL1   H1A 3153   4.878   5.493   2.479  1.4489 -2.6578  0.9376
   43CHL1   H1B 3154   4.845   5.317   2.497  0.3593 -0.5478  1.0100
   43CHL1    C2 3155   4.809   5.404   2.297 -0.5768 -0.3791 -0.0772
   43CHL1   H2A 3156   4.911   5.381   2.261 -1.2292  0.2663 -2.4796
   43CHL1   H2B 3157   4.785   5.504   2.255  2.9871  0.1832 -1.1075
   43CHL1   C20 3158   4.572   5.512   3.213 -0.4173  0.3326  0.4864
   43CHL1   H20 3159   4.525   5.608   3.182 -0.6713 -0.6800 -2.6252
   43CHL1   C21 3160   4.722   5.547   3.240 -0.0122  0.2986  0.0545
   43CHL1  H21A 3161   4.730   5.603   3.336 -0.2179  0.1676  0.1493
   43CHL1  H21B 3162   4.764   5.605   3.156  1.8441  0.2905  0.9232
   43CHL1  H21C 3163   4.785   5.455   3.235 -3.6265 -2.4060  0.0921
   43CHL1   C22 3164   4.505   5.447   3.337  0.5550  0.4088 -0.1223
   43CHL1  H22A 3165   4.395   5.458   3.333  0.7298  2.5807  0.2739
   43CHL1  H22B 3166   4.541   5.342   3.339 -0.3399 -0.0137 -2.5574
   43CHL1   C23 3167   4.544   5.494   3.486  0.0449 -0.0161 -0.3318
   43CHL1  H23A 3168   4.503   5.423   3.561 -1.8864  0.9230 -0.4316
   43CHL1  H23B 3169   4.654   5.507   3.492 -0.1563  3.0085 -1.4190
   43CHL1   C24 3170   4.498   5.638   3.512 -0.1700 -0.2950 -0.1983
   43CHL1  H24A 3171   4.546   5.710   3.442 -0.0482 -2.1891 -2.2080
   43CHL1  H24B 3172   4.387   5.636   3.506 -0.3027 -2.1887  1.6850
   43CHL1   C25 3173   4.538   5.679   3.660 -1.0455  0.0419  0.1895
   43CHL1   H25 3174   4.493   5.778   3.679  0.3109  1.1394 -1.9359
   43CHL1   C26 3175   4.499   5.577   3.770 -0.5155 -0.5298  0.3966
   43CHL1  H26A 3176   4.558   5.483   3.772  0.0206 -0.2013  0.1480
   43CHL1  H26B 3177   4.499   5.627   3.869  0.5091 -0.6488  0.4700
   43CHL1  H26C 3178   4.390   5.553   3.769 -0.2264 -2.1640  2.1508
   43CHL1   C27 3179   4.691   5.707   3.674  0.3238 -0.2399  0.0624
   43CHL1  H27A 3180   4.725   5.784   3.601  1.3923  0.0585  0.8563
   43CHL1  H27B 3181   4.700   5.730   3.782 -0.3192  1.8748 -0.2886
   43CHL1  H27C 3182   4.752   5.615   3.665  0.4265 -0.4450  2.4512
   44CHL1    C3 3183   1.790   6.668   2.004  0.1155  0.6025 -0.7354
   44CHL1    H3 3184   1.881   6.605   1.995 -0.6315 -0.3367 -1.8892
   44CHL1    O3 3185   1.748   6.711   1.876 -0.0036  0.2525  1.4625
   44CHL1   H3' 3186   1.720   6.631   1.833 -1.1397  0.1478  2.3601
   44CHL1    C4 3187   1.672   6.594   2.072  0.0525 -0.1789  0.2631
   44CHL1   H4A 3188   1.593   6.671   2.056  0.2273  0.0580  0.5333
   44CHL1   H4B 3189   1.644   6.502   2.016 -1.2168 -1.2353  2.4970
   44CHL1    C5 3190   1.684   6.553   2.219  0.2203 -0.6604  0.5972
   44CHL1    C6 3191   1.668   6.428   2.255  0.3812  0.7188  0.4127
   44CHL1    H6 3192   1.633   6.359   2.177  1.4299  1.6989 -0.9841
   44CHL1    C7 3193   1.679   6.379   2.394  0.0304 -0.3893 -0.0691
   44CHL1   H7A 3194   1.588   6.318   2.414 -0.1571 -0.0527  0.1318
   44CHL1   H7B 3195   1.767   6.315   2.416 -0.0087  0.0670  1.6221
   44CHL1    C8 3196   1.689   6.494   2.504 -0.0468 -0.6785  0.0571
   44CHL1    H8 3197   1.593   6.548   2.507 -0.1211 -0.6698 -1.4785
   44CHL1   C14 3198   1.723   6.443   2.642  0.2817 -0.0942  0.0062
   44CHL1   H14 3199   1.824   6.397   2.632 -1.0264 -3.2802  0.3388
   44CHL1   C15 3200   1.635   6.329   2.693 -0.4803  0.1780 -0.7501
   44CHL1  H15A 3201   1.532   6.343   2.652  0.0436 -0.6420 -2.4172
   44CHL1  H15B 3202   1.657   6.227   2.654  3.3487  0.3384  0.6340
   44CHL1   C16 3203   1.655   6.338   2.847 -0.1974 -0.1277 -0.2065
   44CHL1  H16A 3204   1.558   6.338   2.902  0.6552 -0.9290  1.3735
   44CHL1  H16B 3205   1.698   6.249   2.898 -1.9884 -0.7827  0.2485
   44CHL1   C17 3206   1.740   6.457   2.871 -0.3877 -0.4897 -0.9128
   44CHL1   H17 3207   1.841   6.411   2.872 -0.1250  0.0882 -0.0973
   44CHL1   C13 3208   1.723   6.551   2.749  0.1223  0.3291  0.6965
   44CHL1   C18 3209   1.594   6.630   2.771 -0.1061 -0.5839 -0.3184
   44CHL1  H18A 3210   1.529   6.561   2.829 -0.2331 -0.0538  0.1864
   44CHL1  H18B 3211   1.604   6.727   2.825  1.2382 -0.1596 -1.2721
   44CHL1  H18C 3212   1.550   6.669   2.677 -1.0450  0.1588  0.4074
   44CHL1   C12 3213   1.845   6.643   2.706 -0.4199 -0.1527  0.5628
   44CHL1  H12A 3214   1.840   6.734   2.770  1.7022  0.6993 -0.3684
   44CHL1  H12B 3215   1.943   6.592   2.698 -0.9386 -1.4660  2.1762
   44CHL1   C11 3216   1.822   6.708   2.562  0.1758  1.4174  0.9199
   44CHL1  H11A 3217   1.741   6.784   2.572  0.3606  1.4088  3.0080
   44CHL1  H11B 3218   1.919   6.749   2.526  0.2767  0.1311 -0.3399
   44CHL1    C9 3219   1.787   6.601   2.451  0.3711  0.3627  0.1170
   44CHL1    H9 3220   1.881   6.546   2.425 -0.3972 -0.5055 -0.9093
   44CHL1   C10 3221   1.736   6.669   2.314  0.4555  0.2250 -0.6305
   44CHL1   C19 3222   1.617   6.764   2.332  0.3384  0.1296 -0.1485
   44CHL1  H19A 3223   1.642   6.840   2.409 -0.2787  1.5152 -1.2729
   44CHL1  H19B 3224   1.604   6.825   2.241 -0.0777  0.4416  0.1184
   44CHL1  H19C 3225   1.527   6.710   2.369  1.3697 -0.5394  1.5069
   44CHL1    C1 3226   1.853   6.749   2.238 -0.3122  0.3486 -0.0903
   44CHL1   H1A 3227   1.881   6.839   2.296  0.0979  0.7124 -0.8492
   44CHL1   H1B 3228   1.939   6.679   2.237  0.2051  0.9789 -1.3153
   44CHL1    C2 3229   1.826   6.784   2.095  0.4728  0.3083 -0.4472
   44CHL1   H2A 3230   1.921   6.827   2.058  1.5916 -0.9185  0.8568
   44CHL1   H2B 3231   1.746   6.860   2.084 -1.2497 -1.5284 -1.3812
   44CHL1   C20 3232   1.721   6.521   3.014  0.5222 -0.4348  0.9754
   44CHL1   H20 3233   1.620   6.568   3.016  1.8389  2.6167  1.2491
   44CHL1   C21 3234   1.815   6.637   3.037 -0.2840  0.2647 -0.0588
   44CHL1  H21A 3235   1.918   6.600   3.057 -0.2908  1.1841  1.9053
   44CHL1  H21B 3236   1.786   6.691   3.130  3.0806  1.4425  0.4454
   44CHL1  H21C 3237   1.804   6.724   2.969  0.0742  2.8180  2.9551
   44CHL1   C22 3238   1.723   6.402   3.122  0.2438  0.0115  0.7760
   44CHL1  H22A 3239   1.625   6.350   3.114 -0.3787  1.1633  0.6287
   44CHL1  H22B 3240   1.806   6.332   3.102  1.6288  1.0371  2.6901
   44CHL1   C23 3241   1.738   6.449   3.266  0.0704  0.2126 -0.6484
   44CHL1  H23A 3242   1.836   6.502   3.275 -0.3291  0.9859 -0.7334
   44CHL1  H23B 3243   1.650   6.511   3.293 -0.7147 -1.0413 -0.2681
   44CHL1   C24 3244   1.738   6.319   3.358  0.1135  0.2928  0.1194
   44CHL1  H24A 3245   1.665   6.240   3.331  0.5029 -0.6584  1.7414
   44CHL1  H24B 3246   1.834   6.268   3.336 -1.1981 -2.2982  0.0941
   44CHL1   C25 3247   1.721   6.337   3.505  0.1562 -0.4576 -0.6187
   44CHL1   H25 3248   1.621   6.376   3.531  0.5560 -0.1410  0.5078
   44CHL1   C26 3249   1.732   6.200   3.590 -0.3458  0.4710  0.4276
   44CHL1  H26A 3250   1.703   6.226   3.694  3.1386  3.6909  0.8386
   44CHL1  H26B 3251   1.674   6.118   3.544 -0.5767  1.7150 -1.6405
   44CHL1  H26C 3252   1.840   6.173   3.586 -1.0545 -2.4524 -1.5910
   44CHL1   C27 3253   1.826   6.431   3.573 -0.4101 -0.8734  0.2859
   44CHL1  H27A 3254   1.928   6.387   3.579  0.8330  1.5342 -1.7097
   44CHL1  H27B 3255   1.834   6.525   3.514  0.4303 -1.3738 -0.4183
   44CHL1  H27C 3256   1.799   6.447   3.680 -1.5121 -1.3611  0.1006
   45CHL1    C3 3257   2.227   6.773   2.324  0.1732 -0.7237 -0.0123
   45CHL1    H3 3258   2.141   6.707   2.351  0.6280 -1.8294 -1.1948
   45CHL1    O3 3259   2.252   6.780   2.179  0.6558  0.2512 -0.1543
   45CHL1   H3' 3260   2.324   6.843   2.167  0.5431  0.5038  0.4662
   45CHL1    C4 3261   2.193   6.915   2.370 -0.0127 -0.2693 -0.5109
   45CHL1   H4A 3262   2.279   6.981   2.346  0.3080 -0.2240  0.6985
   45CHL1   H4B 3263   2.104   6.937   2.308  0.4750  0.1951 -1.0579
   45CHL1    C5 3264   2.179   6.906   2.525  0.4304 -0.1827  0.9131
   45CHL1    C6 3265   2.068   6.965   2.579 -0.0880  0.3069  0.0925
   45CHL1    H6 3266   1.995   7.016   2.514  1.5728  0.5282 -1.6727
   45CHL1    C7 3267   2.039   6.966   2.729 -0.1926 -0.4223  0.9747
   45CHL1   H7A 3268   1.997   7.061   2.766  0.6985 -0.6374  2.6088
   45CHL1   H7B 3269   1.955   6.896   2.746 -1.3526  0.3147 -1.2587
   45CHL1    C8 3270   2.163   6.940   2.817 -0.5793  0.5737  0.5484
   45CHL1    H8 3271   2.221   7.034   2.829  0.7973 -0.0061 -1.1994
   45CHL1   C14 3272   2.118   6.895   2.957  0.1610 -0.7755 -0.8096
   45CHL1   H14 3273   2.062   6.801   2.937  2.2534 -1.9995 -1.2936
   45CHL1   C15 3274   2.018   6.981   3.026  0.1859  0.7653  0.4272
   45CHL1  H15A 3275   2.054   7.086   3.020  0.6494  0.5673 -0.5092
   45CHL1  H15B 3276   1.916   6.975   2.981 -0.3195  1.4488  1.4530
   45CHL1   C16 3277   2.019   6.925   3.170  0.4090  0.5082  0.1905
   45CHL1  H16A 3278   2.021   7.000   3.252 -0.1124  0.1520  0.5360
   45CHL1  H16B 3279   1.931   6.859   3.183  0.7731 -0.0262 -0.0188
   45CHL1   C17 3280   2.143   6.828   3.183  0.1463  0.2064  0.7951
   45CHL1   H17 3281   2.103   6.726   3.162 -0.4474  0.6224 -0.1503
   45CHL1   C13 3282   2.230   6.857   3.059 -0.6915 -0.5647 -0.3271
   45CHL1   C18 3283   2.316   6.982   3.097 -0.7861 -0.7865 -0.2403
   45CHL1  H18A 3284   2.399   6.974   3.171 -1.8508  2.1376  1.4238
   45CHL1  H18B 3285   2.361   7.036   3.010  0.2971  0.4179  1.0257
   45CHL1  H18C 3286   2.241   7.053   3.137 -1.2159 -1.5870  0.3973
   45CHL1   C12 3287   2.319   6.752   2.998 -0.2757 -0.1013  0.4076
   45CHL1  H12A 3288   2.412   6.728   3.054 -0.4556  0.8464  1.1541
   45CHL1  H12B 3289   2.257   6.662   2.978  2.1666 -1.9329  0.6849
   45CHL1   C11 3290   2.366   6.792   2.856 -0.5564  0.4638 -0.6265
   45CHL1  H11A 3291   2.428   6.883   2.869  0.1397  0.0235 -0.8165
   45CHL1  H11B 3292   2.430   6.710   2.815 -0.6858  1.2172 -2.4305
   45CHL1    C9 3293   2.249   6.828   2.765 -0.5401 -0.2748  0.1229
   45CHL1    H9 3294   2.194   6.732   2.768  2.2253 -2.1375 -2.2817
   45CHL1   C10 3295   2.293   6.848   2.613  0.8530  0.2864 -0.2499
   45CHL1   C19 3296   2.421   6.933   2.611  0.3056 -0.4514  0.1034
   45CHL1  H19A 3297   2.505   6.874   2.653  0.4304  0.6698  1.4797
   45CHL1  H19B 3298   2.450   6.968   2.510  1.7671  0.8583  0.9343
   45CHL1  H19C 3299   2.413   7.031   2.662  2.3174  1.3032 -2.6457
   45CHL1    C1 3300   2.322   6.711   2.544  0.2400  0.0163  0.1075
   45CHL1   H1A 3301   2.405   6.659   2.597  0.4668 -1.3164 -1.4982
   45CHL1   H1B 3302   2.233   6.644   2.547  0.3324 -0.5015 -3.7235
   45CHL1    C2 3303   2.356   6.719   2.399 -0.4038  0.2500  0.3521
   45CHL1   H2A 3304   2.387   6.614   2.376  0.3427  0.6285 -0.4208
   45CHL1   H2B 3305   2.443   6.786   2.385 -1.4600  1.2846 -1.7050
   45CHL1   C20 3306   2.216   6.833   3.320 -0.5993 -0.4196 -0.9816
   45CHL1   H20 3307   2.268   6.929   3.341  1.0062 -1.0613 -1.8730
   45CHL1   C21 3308   2.323   6.719   3.318 -0.3426 -0.0330  0.1477
   45CHL1  H21A 3309   2.347   6.694   3.424  1.0472  0.1192 -0.1118
   45CHL1  H21B 3310   2.415   6.740   3.260  0.8473 -1.1036  1.5661
   45CHL1  H21C 3311   2.264   6.633   3.279 -2.7318  1.6996 -0.2838
   45CHL1   C22 3312   2.119   6.806   3.433  0.3994  0.2317 -0.0238
   45CHL1  H22A 3313   2.030   6.869   3.411 -1.1987 -2.2970 -1.3476
   45CHL1  H22B 3314   2.090   6.701   3.407 -0.3756  1.1445 -3.3805
   45CHL1   C23 3315   2.158   6.825   3.575  0.5021  0.5486 -0.0853
   45CHL1  H23A 3316   2.248   6.764   3.598  0.7400  0.2238 -1.7318
   45CHL1  H23B 3317   2.189   6.929   3.600 -1.8559  1.3461 -0.2760
   45CHL1   C24 3318   2.046   6.781   3.670 -0.0369  0.1227  0.6688
   45CHL1  H24A 3319   1.957   6.842   3.644  1.2512  1.9813  0.3785
   45CHL1  H24B 3320   2.020   6.674   3.664 -0.5090  0.1955  1.2615
   45CHL1   C25 3321   2.084   6.819   3.818  0.2362 -0.7166  0.2402
   45CHL1   H25 3322   2.187   6.785   3.839  0.3234  0.1365  1.2264
   45CHL1   C26 3323   2.073   6.975   3.854  0.0984  0.3792  0.4044
   45CHL1  H26A 3324   2.138   7.041   3.793 -1.5500  1.5841 -0.1267
   45CHL1  H26B 3325   1.969   7.012   3.842 -0.6108 -1.1122  1.6171
   45CHL1  H26C 3326   2.105   6.985   3.960  2.4323 -0.5919 -0.1431
   45CHL1   C27 3327   1.989   6.748   3.923  0.4039  0.3543  0.3707
   45CHL1  H27A 3328   1.886   6.760   3.884  0.6575  1.7782  0.0867
   45CHL1  H27B 3329   2.002   6.638   3.929  3.2018  0.5417 -0.7643
   45CHL1  H27C 3330   2.002   6.789   4.025 -1.2441 -0.5120  0.9688
   46CHL1    C3 3331   5.460   0.608   2.500  0.2454 -1.0597  0.4198
   46CHL1    H3 3332   5.482   0.699   2.561 -0.8177 -1.7491  1.8760
   46CHL1    O3 3333   5.435   0.647   2.368 -0.5163 -0.4988 -0.4616
   46CHL1   H3' 3334   5.369   0.581   2.345  0.4056 -1.5153 -0.3090
   46CHL1    C4 3335   5.582   0.516   2.509  0.0775 -0.1284  0.3140
   46CHL1   H4A 3336   5.557   0.436   2.436 -0.8354  0.5545 -0.1405
   46CHL1   H4B 3337   5.667   0.576   2.469  0.7928 -0.1782  1.6815
   46CHL1    C5 3338   5.607   0.451   2.639 -0.1581 -0.3779 -0.7305
   46CHL1    C6 3339   5.728   0.455   2.688 -0.3539  0.6711 -0.3367
   46CHL1    H6 3340   5.808   0.496   2.626  1.2803  0.1456  1.3283
   46CHL1    C7 3341   5.764   0.407   2.821  0.1725  0.4614  0.1728
   46CHL1   H7A 3342   5.864   0.359   2.819  0.1164  0.3556 -0.1938
   46CHL1   H7B 3343   5.764   0.491   2.894  0.0135 -0.3131  1.0973
   46CHL1    C8 3344   5.650   0.318   2.884 -0.6516 -0.3024 -0.7337
   46CHL1    H8 3345   5.645   0.221   2.829  1.2539 -0.5118 -0.6076
   46CHL1   C14 3346   5.670   0.299   3.037 -0.0795  0.1778  0.7544
   46CHL1   H14 3347   5.673   0.403   3.076  1.6460  0.3988  0.0965
   46CHL1   C15 3348   5.803   0.234   3.085 -0.4301 -0.3294  0.3193
   46CHL1  H15A 3349   5.823   0.140   3.030 -1.2190 -1.6104  2.1046
   46CHL1  H15B 3350   5.894   0.296   3.075 -0.4524 -0.2762  0.4460
   46CHL1   C16 3351   5.770   0.198   3.236 -0.1287 -0.1533  0.3038
   46CHL1  H16A 3352   5.802   0.092   3.247  1.8241  0.1595 -1.6844
   46CHL1  H16B 3353   5.839   0.263   3.294  3.2164 -0.3921 -2.9839
   46CHL1   C17 3354   5.617   0.215   3.261 -0.1949 -0.5106  0.2522
   46CHL1   H17 3355   5.595   0.316   3.302  1.9317  0.1921 -0.2111
   46CHL1   C13 3356   5.556   0.229   3.114  0.1892  0.5329  0.3756
   46CHL1   C18 3357   5.536   0.083   3.058 -0.1042 -0.3911  0.0046
   46CHL1  H18A 3358   5.455   0.027   3.109  0.9009 -1.4788  0.4635
   46CHL1  H18B 3359   5.518   0.082   2.949 -1.6437  1.6284  0.1884
   46CHL1  H18C 3360   5.633   0.031   3.078  0.2153 -0.6358 -1.9702
   46CHL1   C12 3361   5.432   0.323   3.097 -0.0513  0.4112 -0.0654
   46CHL1  H12A 3362   5.343   0.272   3.141  0.7078 -0.9773 -0.0681
   46CHL1  H12B 3363   5.458   0.423   3.139  0.3333 -0.2192  1.2668
   46CHL1   C11 3364   5.395   0.336   2.949 -0.9883 -0.1635 -0.0625
   46CHL1  H11A 3365   5.375   0.233   2.912  0.3709 -0.7913  0.8810
   46CHL1  H11B 3366   5.304   0.399   2.942 -1.0325 -0.3086 -0.9014
   46CHL1    C9 3367   5.513   0.392   2.861 -0.2113  0.1276  0.0078
   46CHL1    H9 3368   5.525   0.497   2.896  1.1224  0.0890 -0.2670
   46CHL1   C10 3369   5.484   0.403   2.716 -0.0616 -0.1770 -0.0382
   46CHL1   C19 3370   5.438   0.268   2.652  0.3518  0.1570 -0.1799
   46CHL1  H19A 3371   5.329   0.246   2.664  0.7729 -1.5700  0.8186
   46CHL1  H19B 3372   5.468   0.273   2.545  0.2281  0.0873 -0.2177
   46CHL1  H19C 3373   5.492   0.181   2.694 -2.1777 -0.7336  1.5084
   46CHL1    C1 3374   5.365   0.502   2.704  0.2346 -0.1306  0.1128
   46CHL1   H1A 3375   5.274   0.450   2.739  0.5405 -2.1241 -1.7923
   46CHL1   H1B 3376   5.393   0.594   2.760 -0.9396  0.3293 -0.0298
   46CHL1    C2 3377   5.337   0.549   2.559 -0.3726 -0.0117  0.2742
   46CHL1   H2A 3378   5.254   0.623   2.551  0.8827  1.8285  2.6222
   46CHL1   H2B 3379   5.313   0.457   2.502 -0.1097  0.9321 -1.4139
   46CHL1   C20 3380   5.548   0.120   3.361 -0.1984  0.0683 -0.7546
   46CHL1   H20 3381   5.535   0.020   3.314 -0.7976 -0.9225  1.3985
   46CHL1   C21 3382   5.409   0.171   3.385  0.5135 -0.2230 -0.4481
   46CHL1  H21A 3383   5.381   0.147   3.490 -0.3546  0.4919 -0.5130
   46CHL1  H21B 3384   5.348   0.141   3.298 -3.2804  1.2430  1.4808
   46CHL1  H21C 3385   5.413   0.282   3.384 -1.3128 -0.0813  1.3631
   46CHL1   C22 3386   5.620   0.112   3.498 -0.0160  0.5250 -0.3791
   46CHL1  H22A 3387   5.577   0.027   3.555 -0.1592  0.5615 -0.4340
   46CHL1  H22B 3388   5.726   0.086   3.478  0.6959  3.2272 -0.5682
   46CHL1   C23 3389   5.603   0.236   3.594  0.0158  0.7427  0.9052
   46CHL1  H23A 3390   5.622   0.326   3.532  3.2072 -0.7373 -0.4516
   46CHL1  H23B 3391   5.498   0.243   3.632 -0.3288 -0.5131  0.2496
   46CHL1   C24 3392   5.708   0.237   3.715  0.0971 -0.0303 -0.1554
   46CHL1  H24A 3393   5.810   0.250   3.674  1.3492  0.5500  2.8116
   46CHL1  H24B 3394   5.701   0.326   3.782  0.0707 -0.1385 -0.0126
   46CHL1   C25 3395   5.704   0.110   3.804 -1.1060 -0.1327  0.6990
   46CHL1   H25 3396   5.716   0.020   3.740  0.2040  0.8022 -0.4147
   46CHL1   C26 3397   5.816   0.129   3.905  0.3551  0.2013  0.1475
   46CHL1  H26A 3398   5.908   0.127   3.843 -1.4062 -1.4822 -2.6550
   46CHL1  H26B 3399   5.815   0.222   3.965 -2.7467  0.4166 -0.0723
   46CHL1  H26C 3400   5.817   0.044   3.976 -0.5985 -0.0521 -0.1252
   46CHL1   C27 3401   5.574   0.096   3.880  0.0105  0.3569 -0.1095
   46CHL1  H27A 3402   5.573   0.021   3.962 -1.0579  1.0453  0.5266
   46CHL1  H27B 3403   5.540   0.190   3.928 -0.2897  0.6869 -0.9600
   46CHL1  H27C 3404   5.496   0.067   3.807 -0.3278  0.9488  0.0076
   47CHL1    C3 3405   5.067   1.842   2.860 -0.2716 -0.7417 -0.7713
   47CHL1    H3 3406   5.168   1.795   2.852 -0.1727 -0.3610 -1.9352
   47CHL1    O3 3407   5.014   1.851   2.727  0.5434  0.5211 -0.3367
   47CHL1   H3' 3408   5.032   1.942   2.705  0.6898  0.8103  0.9135
   47CHL1    C4 3409   4.981   1.770   2.959  0.0908 -0.1011 -1.2234
   47CHL1   H4A 3410   4.883   1.820   2.949  0.1481  1.2063  2.9537
   47CHL1   H4B 3411   4.980   1.667   2.917  1.2029 -0.7782  0.3209
   47CHL1    C5 3412   5.054   1.764   3.093  0.0727  0.4287 -0.1032
   47CHL1    C6 3413   5.100   1.653   3.149  0.1589  0.7214 -0.5455
   47CHL1    H6 3414   5.096   1.561   3.088  1.0906  1.5465 -1.9255
   47CHL1    C7 3415   5.163   1.644   3.288 -0.3996  0.5568 -1.4170
   47CHL1   H7A 3416   5.120   1.554   3.337 -1.2909  0.5932 -2.1162
   47CHL1   H7B 3417   5.271   1.621   3.273  0.3598  0.6943  2.7172
   47CHL1    C8 3418   5.134   1.763   3.375 -0.0105  0.6373 -0.2230
   47CHL1    H8 3419   5.032   1.745   3.415  0.6429 -2.2590  0.3927
   47CHL1   C14 3420   5.236   1.769   3.489 -0.1434  0.2448 -0.1140
   47CHL1   H14 3421   5.333   1.796   3.442 -0.0785 -1.5854 -1.1236
   47CHL1   C15 3422   5.261   1.634   3.570 -0.3669 -0.0583  0.3231
   47CHL1  H15A 3423   5.162   1.583   3.574 -0.6656  0.2698 -1.5931
   47CHL1  H15B 3424   5.337   1.573   3.517  1.4319 -1.5350  4.2531
   47CHL1   C16 3425   5.323   1.684   3.697  0.7645 -0.4740 -0.6904
   47CHL1  H16A 3426   5.257   1.660   3.783  0.9848 -0.2276 -0.4495
   47CHL1  H16B 3427   5.417   1.633   3.727  0.9019  0.5717  0.7329
   47CHL1   C17 3428   5.330   1.843   3.683  0.5164 -0.2753  0.5150
   47CHL1   H17 3429   5.432   1.863   3.643 -0.1796 -0.3677 -1.3981
   47CHL1   C13 3430   5.214   1.876   3.585  0.7617  0.1959 -0.3447
   47CHL1   C18 3431   5.076   1.865   3.653  0.1631  0.0487 -0.2968
   47CHL1  H18A 3432   5.059   1.942   3.730  0.2928  0.7960 -1.0004
   47CHL1  H18B 3433   4.990   1.864   3.582  2.4351 -2.7195 -3.3390
   47CHL1  H18C 3434   5.057   1.770   3.707 -1.0910  0.2569 -0.3473
   47CHL1   C12 3435   5.224   2.002   3.502 -0.0774  0.0264 -0.9139
   47CHL1  H12A 3436   5.198   2.083   3.574  0.7504 -0.6808  0.2231
   47CHL1  H12B 3437   5.332   2.007   3.475 -0.2741 -0.4596 -1.8126
   47CHL1   C11 3438   5.135   2.012   3.379 -0.5377  0.0341 -0.6501
   47CHL1  H11A 3439   5.034   2.002   3.423 -0.7459  1.8661 -0.6151
   47CHL1  H11B 3440   5.146   2.105   3.318 -0.1285 -0.2011 -0.9423
   47CHL1    C9 3441   5.152   1.892   3.285 -0.0947  0.4699  0.1388
   47CHL1    H9 3442   5.259   1.897   3.252  0.0084 -0.3147  0.3367
   47CHL1   C10 3443   5.071   1.898   3.155 -0.0376  0.2732 -0.2547
   47CHL1   C19 3444   4.935   1.950   3.185  0.4143 -0.1250 -0.3064
   47CHL1  H19A 3445   4.877   1.895   3.262 -0.3166  0.1138 -0.6811
   47CHL1  H19B 3446   4.941   2.055   3.223 -0.2124 -0.0742 -0.3330
   47CHL1  H19C 3447   4.877   1.966   3.092  0.7164  0.6155 -0.3746
   47CHL1    C1 3448   5.150   1.987   3.056  0.1737 -0.1147  0.2486
   47CHL1   H1A 3449   5.161   2.091   3.092  0.5577  0.3011 -1.0223
   47CHL1   H1B 3450   5.252   1.944   3.043 -0.2032 -0.8706 -0.3506
   47CHL1    C2 3451   5.091   1.988   2.908  0.3060  0.9995 -0.0483
   47CHL1   H2A 3452   5.169   2.040   2.847  0.8131 -0.4273 -0.6690
   47CHL1   H2B 3453   4.993   2.040   2.911  0.3786  1.1098  0.6424
   47CHL1   C20 3454   5.325   1.919   3.819  0.9970 -0.0088  0.0583
   47CHL1   H20 3455   5.222   1.935   3.858 -0.0847 -2.5480 -1.4560
   47CHL1   C21 3456   5.391   2.047   3.784  0.1320 -0.6473 -0.1234
   47CHL1  H21A 3457   5.388   2.117   3.870 -1.3662  1.7539 -1.9614
   47CHL1  H21B 3458   5.331   2.102   3.708 -1.2145 -2.0282 -0.1064
   47CHL1  H21C 3459   5.488   2.037   3.730  0.4469  2.3291 -0.3140
   47CHL1   C22 3460   5.410   1.840   3.923 -0.4081  0.4339 -0.1135
   47CHL1  H22A 3461   5.364   1.743   3.951 -0.4326  1.1623  2.6630
   47CHL1  H22B 3462   5.512   1.820   3.885 -0.2015  1.5097 -0.1527
   47CHL1   C23 3463   5.430   1.920   4.060 -0.1091 -0.6558  0.7361
   47CHL1  H23A 3464   5.477   2.018   4.039  0.9307 -1.1882  0.4893
   47CHL1  H23B 3465   5.333   1.947   4.108  0.3284  2.4239  0.0978
   47CHL1   C24 3466   5.528   1.858   4.160  0.0878  0.1518 -0.2765
   47CHL1  H24A 3467   5.460   1.795   4.221 -1.1862 -0.5138 -2.2783
   47CHL1  H24B 3468   5.606   1.798   4.108  1.9493  2.1012  0.1399
   47CHL1   C25 3469   5.589   1.962   4.262 -0.2660  0.4820  0.3162
   47CHL1   H25 3470   5.653   2.026   4.198  1.2895 -2.1333 -0.9539
   47CHL1   C26 3471   5.477   2.047   4.323 -0.5699  0.1439 -0.0408
   47CHL1  H26A 3472   5.517   2.106   4.407  1.9312 -0.7139 -0.5594
   47CHL1  H26B 3473   5.441   2.117   4.244 -3.5625 -0.2331  0.8589
   47CHL1  H26C 3474   5.394   1.981   4.357 -0.4222  0.2899  0.6000
   47CHL1   C27 3475   5.664   1.890   4.374  0.1477  0.6906  0.3944
   47CHL1  H27A 3476   5.600   1.808   4.413  0.6328 -0.3956 -1.0251
   47CHL1  H27B 3477   5.757   1.846   4.334 -1.3745 -1.8076 -0.6484
   47CHL1  H27C 3478   5.676   1.960   4.460  1.1557  1.4456 -0.3418
   48CHL1    C3 3479   4.610   4.777   2.422  0.6104  0.5498  0.0119
   48CHL1    H3 3480   4.702   4.798   2.480 -0.7155 -1.0659  2.9477
   48CHL1    O3 3481   4.626   4.780   2.281 -0.1137  0.6740 -0.3523
   48CHL1   H3' 3482   4.618   4.693   2.242  2.7401  0.3772 -0.4705
   48CHL1    C4 3483   4.566   4.631   2.457  0.4675 -0.6264  0.2180
   48CHL1   H4A 3484   4.485   4.589   2.393  0.7794  0.1920 -0.7385
   48CHL1   H4B 3485   4.648   4.558   2.441 -0.3838 -1.6806  0.5924
   48CHL1    C5 3486   4.514   4.621   2.599  0.8572 -0.0756 -0.2576
   48CHL1    C6 3487   4.564   4.528   2.681 -0.6154  0.0117  0.0141
   48CHL1    H6 3488   4.630   4.451   2.638  1.1051  1.6468 -0.3993
   48CHL1    C7 3489   4.531   4.512   2.820 -0.0780 -0.4482 -1.0614
   48CHL1   H7A 3490   4.515   4.405   2.845  0.2092 -0.1793  0.4115
   48CHL1   H7B 3491   4.622   4.557   2.865 -0.9049 -0.2510  0.4743
   48CHL1    C8 3492   4.411   4.602   2.863 -0.5583  0.2526  0.0086
   48CHL1    H8 3493   4.315   4.560   2.825 -1.5764  2.6348 -0.1951
   48CHL1   C14 3494   4.410   4.616   3.015  0.1959  0.6918 -0.2967
   48CHL1   H14 3495   4.499   4.680   3.032  1.9127 -1.4539 -0.6857
   48CHL1   C15 3496   4.437   4.503   3.110  0.1180  0.7189  0.1800
   48CHL1  H15A 3497   4.396   4.408   3.069  4.0868 -0.3154 -1.9053
   48CHL1  H15B 3498   4.547   4.490   3.115  0.1944  1.3054  0.0424
   48CHL1   C16 3499   4.398   4.551   3.254 -0.2511  0.5155 -0.0034
   48CHL1  H16A 3500   4.315   4.490   3.295  0.4086  1.5066  3.1587
   48CHL1  H16B 3501   4.485   4.548   3.323  1.3693  1.2083 -1.9156
   48CHL1   C17 3502   4.360   4.701   3.234 -0.0883 -0.0179  0.0464
   48CHL1   H17 3503   4.456   4.757   3.227  0.1260 -0.2039  1.2700
   48CHL1   C13 3504   4.309   4.707   3.090  0.1478 -0.1839 -0.0780
   48CHL1   C18 3505   4.174   4.634   3.081  0.0640  0.1424 -0.5525
   48CHL1  H18A 3506   4.133   4.622   2.978  0.5463 -0.1728 -0.7123
   48CHL1  H18B 3507   4.192   4.534   3.126  0.0556 -0.7388 -2.3897
   48CHL1  H18C 3508   4.100   4.682   3.148  2.5724  1.0897  1.7369
   48CHL1   C12 3509   4.301   4.843   3.018 -0.6367  0.1186  0.1103
   48CHL1  H12A 3510   4.224   4.908   3.065  0.7149  0.4098  2.0305
   48CHL1  H12B 3511   4.395   4.885   3.059 -0.0536 -0.6629 -0.3988
   48CHL1   C11 3512   4.295   4.828   2.864  0.1874  0.1108 -0.5853
   48CHL1  H11A 3513   4.189   4.798   2.849 -0.6965  0.7631  3.2301
   48CHL1  H11B 3514   4.305   4.928   2.818  0.0494 -0.4596 -1.8995
   48CHL1    C9 3515   4.418   4.746   2.806 -0.3938  0.3677  0.3660
   48CHL1    H9 3516   4.516   4.790   2.836  0.9395 -1.9325 -0.3436
   48CHL1   C10 3517   4.425   4.739   2.652  0.5592 -0.5537  0.1335
   48CHL1   C19 3518   4.285   4.711   2.589 -0.3189  0.6004  0.2859
   48CHL1  H19A 3519   4.282   4.715   2.478  2.2229 -3.0973 -0.0978
   48CHL1  H19B 3520   4.248   4.609   2.615  1.6541  0.2454  2.0276
   48CHL1  H19C 3521   4.214   4.794   2.607 -3.1331 -0.5028 -4.1266
   48CHL1    C1 3522   4.477   4.876   2.601 -0.0933 -0.2796 -0.8233
   48CHL1   H1A 3523   4.387   4.935   2.631 -0.7883 -1.4899 -0.4509
   48CHL1   H1B 3524   4.565   4.908   2.660 -0.3383 -1.5738  0.2954
   48CHL1    C2 3525   4.509   4.887   2.457 -0.6684  0.2228 -0.1996
   48CHL1   H2A 3526   4.565   4.981   2.435  0.4439 -0.1959  0.7179
   48CHL1   H2B 3527   4.420   4.874   2.393 -1.0686  2.7972 -0.2868
   48CHL1   C20 3528   4.288   4.765   3.347 -0.4130  0.1169  0.6531
   48CHL1   H20 3529   4.183   4.731   3.338 -0.1853 -0.4191 -0.0943
   48CHL1   C21 3530   4.310   4.921   3.344  0.3449 -0.2983 -0.0767
   48CHL1  H21A 3531   4.259   4.961   3.254  0.5234 -1.3682 -0.6809
   48CHL1  H21B 3532   4.419   4.944   3.343  0.2935 -0.0631 -1.0399
   48CHL1  H21C 3533   4.257   4.965   3.431 -0.7160 -0.3204 -0.7077
   48CHL1   C22 3534   4.337   4.705   3.482 -0.6869 -0.0241 -0.1140
   48CHL1  H22A 3535   4.303   4.599   3.486 -0.6767 -0.0115  0.3523
   48CHL1  H22B 3536   4.445   4.719   3.500 -0.6877  0.9224 -0.7645
   48CHL1   C23 3537   4.274   4.772   3.606 -0.6396  0.1553  0.0305
   48CHL1  H23A 3538   4.323   4.870   3.627  1.1420  0.0959 -3.1815
   48CHL1  H23B 3539   4.167   4.799   3.602 -0.2792  2.0661  1.4639
   48CHL1   C24 3540   4.280   4.680   3.725  0.0981 -0.1325 -0.3854
   48CHL1  H24A 3541   4.221   4.592   3.692  1.2914 -0.4118 -1.8592
   48CHL1  H24B 3542   4.383   4.641   3.739  0.4766  0.7516 -0.6292
   48CHL1   C25 3543   4.235   4.749   3.858 -0.4047 -0.3761 -0.2893
   48CHL1   H25 3544   4.308   4.832   3.869  0.1867 -0.2552 -3.8637
   48CHL1   C26 3545   4.085   4.789   3.864  0.1913  0.2149  0.2821
   48CHL1  H26A 3546   4.070   4.881   3.803 -0.2336  0.7994  1.2406
   48CHL1  H26B 3547   4.007   4.721   3.823 -1.1160  1.6262  0.3412
   48CHL1  H26C 3548   4.045   4.794   3.968  1.5651 -2.3383  1.0070
   48CHL1   C27 3549   4.250   4.646   3.966  0.4240  0.6623 -0.2688
   48CHL1  H27A 3550   4.354   4.606   3.961  0.4250 -0.1204  3.4602
   48CHL1  H27B 3551   4.228   4.686   4.067 -0.5205 -0.7615  0.1181
   48CHL1  H27C 3552   4.184   4.557   3.966  0.4314  0.6197  1.6504
   49CHL1    C3 3553   2.350   1.149   2.464 -0.2858 -0.8313  0.1795
   49CHL1    H3 3554   2.401   1.234   2.514 -1.6442  0.1364 -0.0127
   49CHL1    O3 3555   2.309   1.194   2.338 -0.7762 -0.2777  0.1927
   49CHL1   H3' 3556   2.272   1.117   2.294 -1.4441 -0.0294  0.3157
   49CHL1    C4 3557   2.454   1.034   2.453  0.6657 -0.3569  0.4599
   49CHL1   H4A 3558   2.409   0.962   2.381 -1.1690  0.4870  0.7112
   49CHL1   H4B 3559   2.547   1.069   2.403  0.4398  3.0050  2.1040
   49CHL1    C5 3560   2.482   0.960   2.585  0.6919 -0.7692  0.8486
   49CHL1    C6 3561   2.610   0.950   2.632 -0.3380 -0.0010 -1.2660
   49CHL1    H6 3562   2.702   0.989   2.588  0.3006 -1.0564 -0.9092
   49CHL1    C7 3563   2.640   0.876   2.767  0.1592  0.5803  0.1709
   49CHL1   H7A 3564   2.738   0.824   2.765 -0.5531 -0.8643  0.8609
   49CHL1   H7B 3565   2.639   0.941   2.858  2.8954  0.9260  0.0204
   49CHL1    C8 3566   2.526   0.774   2.806 -0.1532 -0.7681 -0.6340
   49CHL1    H8 3567   2.527   0.688   2.736 -0.9042 -0.5504 -0.9178
   49CHL1   C14 3568   2.550   0.717   2.948 -0.4856  0.0912  0.0007
   49CHL1   H14 3569   2.556   0.805   3.016 -0.3340  0.0052  0.1003
   49CHL1   C15 3570   2.673   0.629   2.981 -0.0027  0.5838 -0.6975
   49CHL1  H15A 3571   2.690   0.558   2.898  2.5582 -1.7015  1.5756
   49CHL1  H15B 3572   2.765   0.690   2.993  0.9428 -0.9366  0.0045
   49CHL1   C16 3573   2.643   0.544   3.103 -0.7271  0.0518 -0.2978
   49CHL1  H16A 3574   2.666   0.437   3.081 -0.7376 -0.1440  0.5864
   49CHL1  H16B 3575   2.704   0.584   3.186 -4.0527  2.1928  1.3404
   49CHL1   C17 3576   2.496   0.577   3.140 -0.2144  0.0392 -0.0864
   49CHL1   H17 3577   2.489   0.662   3.211 -1.4922 -0.3896  0.3364
   49CHL1   C13 3578   2.432   0.627   3.007 -0.0866 -0.5030 -0.3550
   49CHL1   C18 3579   2.415   0.505   2.918 -0.0117  0.2228  0.6445
   49CHL1  H18A 3580   2.502   0.435   2.916  0.3321  0.6660 -0.9442
   49CHL1  H18B 3581   2.325   0.448   2.950 -0.7111  1.9314  1.8813
   49CHL1  H18C 3582   2.410   0.526   2.809 -1.4876 -1.1191  0.4029
   49CHL1   C12 3583   2.305   0.716   3.008  0.0819  0.1175  0.3510
   49CHL1  H12A 3584   2.218   0.658   3.045 -0.0830 -0.6836 -1.2300
   49CHL1  H12B 3585   2.318   0.801   3.079 -1.1340  0.0456  0.6906
   49CHL1   C11 3586   2.272   0.769   2.871 -0.1086  0.1950 -0.7404
   49CHL1  H11A 3587   2.236   0.688   2.805  2.1659 -0.9208 -0.7014
   49CHL1  H11B 3588   2.198   0.849   2.892 -1.6747 -1.7245  1.6577
   49CHL1    C9 3589   2.390   0.847   2.807  0.4229 -0.2856  0.8662
   49CHL1    H9 3590   2.411   0.939   2.865  0.4884 -0.6844  1.4875
   49CHL1   C10 3591   2.356   0.909   2.659  0.6601 -0.3041 -0.4113
   49CHL1   C19 3592   2.289   0.790   2.582 -0.4226  0.6054  0.4123
   49CHL1  H19A 3593   2.185   0.760   2.608 -0.3114 -0.1088  0.0390
   49CHL1  H19B 3594   2.289   0.817   2.474  0.2533  0.5201  0.3855
   49CHL1  H19C 3595   2.354   0.701   2.582  0.7764  1.4537  0.7142
   49CHL1    C1 3596   2.260   1.035   2.682 -0.2295 -0.5755 -0.7138
   49CHL1   H1A 3597   2.162   1.006   2.724 -0.5293  0.0598 -0.9621
   49CHL1   H1B 3598   2.311   1.108   2.749 -0.4114 -0.3669 -0.8000
   49CHL1    C2 3599   2.226   1.111   2.549 -0.7331  0.2715  0.5119
   49CHL1   H2A 3600   2.164   1.200   2.572 -0.2319  0.4075  1.3879
   49CHL1   H2B 3601   2.173   1.035   2.489 -0.2696  0.0021  0.4341
   49CHL1   C20 3602   2.440   0.459   3.216 -0.4338  0.1200  0.3280
   49CHL1   H20 3603   2.432   0.370   3.149 -1.3666  0.2286  0.2801
   49CHL1   C21 3604   2.291   0.478   3.259 -0.4924  0.0993 -0.0202
   49CHL1  H21A 3605   2.270   0.562   3.329  3.1255 -0.8077  2.4076
   49CHL1  H21B 3606   2.260   0.383   3.306 -1.2886  0.0917 -0.5268
   49CHL1  H21C 3607   2.224   0.484   3.170  0.5195 -3.1318 -1.1374
   49CHL1   C22 3608   2.524   0.419   3.342  0.4662 -0.5625 -0.2036
   49CHL1  H22A 3609   2.471   0.332   3.387 -1.5612  1.6807  2.0293
   49CHL1  H22B 3610   2.628   0.399   3.308  1.2560  1.2389  1.0158
   49CHL1   C23 3611   2.555   0.534   3.441  0.3078  0.4301  0.3334
   49CHL1  H23A 3612   2.603   0.624   3.398  5.5483 -2.6640 -1.1505
   49CHL1  H23B 3613   2.462   0.547   3.500 -0.3319 -0.9183 -0.3358
   49CHL1   C24 3614   2.674   0.495   3.533  0.4800 -0.4080  0.3118
   49CHL1  H24A 3615   2.651   0.398   3.581 -0.1202  0.1460  1.1911
   49CHL1  H24B 3616   2.766   0.472   3.475 -0.0976  1.2342 -1.3637
   49CHL1   C25 3617   2.695   0.595   3.651  0.2501  0.3615  0.3484
   49CHL1   H25 3618   2.592   0.634   3.668 -0.6007 -2.2964  2.0284
   49CHL1   C26 3619   2.755   0.535   3.783  0.1781  0.3075  0.1046
   49CHL1  H26A 3620   2.774   0.624   3.847 -1.5938  0.1853  0.8727
   49CHL1  H26B 3621   2.682   0.468   3.833  0.0103 -0.9518 -1.7438
   49CHL1  H26C 3622   2.852   0.486   3.762  0.7980  1.7671 -0.5460
   49CHL1   C27 3623   2.772   0.720   3.606 -0.5519 -0.6194  0.6696
   49CHL1  H27A 3624   2.733   0.761   3.510  1.3141  1.0891  0.5683
   49CHL1  H27B 3625   2.767   0.800   3.683 -0.6759  0.1430 -0.0979
   49CHL1  H27C 3626   2.877   0.700   3.575 -0.2432  0.1214  1.1937
   50CHL1    C3 3627   1.270   1.924   2.455  0.4741 -0.4910 -0.1054
   50CHL1    H3 3628   1.347   1.848   2.478  0.0660 -0.4582  1.4698
   50CHL1    O3 3629   1.263   1.943   2.316 -0.9411 -0.2654  0.1865
   50CHL1   H3' 3630   1.214   2.025   2.306 -0.6960 -0.2705 -1.2084
   50CHL1    C4 3631   1.135   1.884   2.502  1.1159  0.1630  0.0488
   50CHL1   H4A 3632   1.055   1.950   2.461 -0.4314 -0.2295  2.2190
   50CHL1   H4B 3633   1.108   1.782   2.470 -0.2468  0.4983  0.0441
   50CHL1    C5 3634   1.138   1.890   2.660  0.3692  0.1510 -0.0407
   50CHL1    C6 3635   1.106   1.782   2.735 -0.0033  0.0671 -0.2049
   50CHL1    H6 3636   1.089   1.682   2.693 -0.2066 -0.6212  1.4414
   50CHL1    C7 3637   1.106   1.783   2.886 -0.0577  0.1679  0.2207
   50CHL1   H7A 3638   1.023   1.720   2.923 -0.6819  0.9964  0.2452
   50CHL1   H7B 3639   1.200   1.748   2.933 -0.1421  0.1211  0.3546
   50CHL1    C8 3640   1.087   1.926   2.944  0.0416 -0.2691  0.0579
   50CHL1    H8 3641   0.980   1.951   2.933  0.0793  0.3804  1.0294
   50CHL1   C14 3642   1.121   1.914   3.095  0.0723 -0.0078 -0.7421
   50CHL1   H14 3643   1.219   1.862   3.100 -1.2721 -2.5690  0.8038
   50CHL1   C15 3644   1.034   1.825   3.169  0.2043  0.0217  0.6499
   50CHL1  H15A 3645   0.926   1.854   3.171  0.0045 -0.7576  1.6668
   50CHL1  H15B 3646   1.032   1.719   3.137 -0.5009  0.4569 -0.8762
   50CHL1   C16 3647   1.090   1.852   3.313  0.1905  0.8346  0.4303
   50CHL1  H16A 3648   1.000   1.863   3.376 -0.3543  0.2363 -0.2289
   50CHL1  H16B 3649   1.154   1.766   3.344 -0.1369 -0.9294 -3.2065
   50CHL1   C17 3650   1.175   1.985   3.316 -0.1825  0.7030 -0.0889
   50CHL1   H17 3651   1.280   1.947   3.316 -0.9123 -1.4683  0.4462
   50CHL1   C13 3652   1.130   2.042   3.178 -0.8039 -0.4882 -0.0360
   50CHL1   C18 3653   0.990   2.107   3.164 -0.1624  0.2101  0.9902
   50CHL1  H18A 3654   0.997   2.213   3.196 -2.1946  0.2174  1.5372
   50CHL1  H18B 3655   0.958   2.103   3.057 -1.6641 -0.3645  1.4416
   50CHL1  H18C 3656   0.906   2.063   3.222  0.1010 -0.6189  0.7484
   50CHL1   C12 3657   1.239   2.134   3.109  0.1243 -0.3109 -0.5705
   50CHL1  H12A 3658   1.242   2.235   3.155  1.3758 -0.4730 -0.2725
   50CHL1  H12B 3659   1.334   2.077   3.116 -0.1315 -1.2901 -3.4993
   50CHL1   C11 3660   1.219   2.148   2.959  0.0084 -0.1147 -0.0922
   50CHL1  H11A 3661   1.123   2.200   2.936  0.4953 -0.3170 -3.0075
   50CHL1  H11B 3662   1.299   2.210   2.913 -0.7049 -0.5764 -2.0944
   50CHL1    C9 3663   1.198   2.014   2.882 -0.3498 -0.4132  0.0789
   50CHL1    H9 3664   1.293   1.958   2.893 -0.5590 -0.8907 -0.4374
   50CHL1   C10 3665   1.179   2.023   2.729 -0.1206 -0.5778  0.2286
   50CHL1   C19 3666   1.063   2.119   2.700  0.3023 -0.9700  0.3172
   50CHL1  H19A 3667   1.077   2.224   2.733 -2.4798 -0.0020 -1.2622
   50CHL1  H19B 3668   1.043   2.131   2.591 -0.4657 -0.4225  0.5085
   50CHL1  H19C 3669   0.969   2.076   2.742  0.3237  0.8921  2.4617
   50CHL1    C1 3670   1.310   2.071   2.667 -0.4073  0.3757 -0.3633
   50CHL1   H1A 3671   1.334   2.175   2.699 -0.2786 -0.3090  1.9409
   50CHL1   H1B 3672   1.392   2.006   2.703 -0.5896  1.1703  1.5657
   50CHL1    C2 3673   1.309   2.064   2.516 -0.2807  0.2059 -0.0202
   50CHL1   H2A 3674   1.405   2.094   2.468 -0.6129 -1.8600 -2.1202
   50CHL1   H2B 3675   1.227   2.133   2.488  1.2071  1.8250 -0.6350
   50CHL1   C20 3676   1.155   2.080   3.436  0.6407  0.8434 -0.0262
   50CHL1   H20 3677   1.048   2.110   3.432  0.8536  2.1362  2.3689
   50CHL1   C21 3678   1.242   2.207   3.442 -0.0774 -0.1162  0.6276
   50CHL1  H21A 3679   1.246   2.256   3.541 -0.8602  1.2095  0.0373
   50CHL1  H21B 3680   1.197   2.285   3.376  0.4260 -1.2934 -1.1905
   50CHL1  H21C 3681   1.339   2.186   3.393 -0.4798  0.4146 -0.4389
   50CHL1   C22 3682   1.159   2.013   3.577  0.1192 -0.8659  0.0824
   50CHL1  H22A 3683   1.171   2.099   3.647  1.3273 -1.4935  0.6755
   50CHL1  H22B 3684   1.060   1.964   3.589  0.1365 -1.1838 -0.9606
   50CHL1   C23 3685   1.266   1.930   3.612 -0.3913 -0.1296 -0.1514
   50CHL1  H23A 3686   1.268   1.837   3.550 -0.3645 -1.0073  1.1324
   50CHL1  H23B 3687   1.364   1.980   3.620 -0.3560 -0.2220  0.0049
   50CHL1   C24 3688   1.247   1.872   3.757 -0.4822 -0.3799  0.9340
   50CHL1  H24A 3689   1.231   1.954   3.831 -1.3622 -0.6030  1.0066
   50CHL1  H24B 3690   1.155   1.810   3.757 -0.4760 -0.4048  1.7197
   50CHL1   C25 3691   1.350   1.770   3.807 -1.1491  0.1240  0.0344
   50CHL1   H25 3692   1.330   1.675   3.752 -0.1996  1.3576 -2.6226
   50CHL1   C26 3693   1.496   1.813   3.785 -0.0449  0.0641 -0.0944
   50CHL1  H26A 3694   1.569   1.749   3.838 -0.8067 -0.4331  0.3813
   50CHL1  H26B 3695   1.527   1.841   3.682  1.0976  4.7708  1.2799
   50CHL1  H26C 3696   1.500   1.912   3.835  0.9803 -0.7697  1.5420
   50CHL1   C27 3697   1.340   1.755   3.954 -0.1924 -0.6111  0.2434
   50CHL1  H27A 3698   1.420   1.688   3.992  0.8545  0.1257 -0.5829
   50CHL1  H27B 3699   1.359   1.856   3.996  1.6776 -0.9081  0.1984
   50CHL1  H27C 3700   1.239   1.724   3.986 -0.3431 -0.7312 -0.3339
   51CHL1    C3 3701   4.148   0.540   2.620 -0.3961  0.4151 -0.2739
   51CHL1    H3 3702   4.088   0.450   2.646  2.0172 -1.1913  0.1278
   51CHL1    O3 3703   4.172   0.538   2.484  0.1144 -0.0444  0.0314
   51CHL1   H3' 3704   4.237   0.609   2.480 -0.7642  0.7247 -1.6983
   51CHL1    C4 3705   4.080   0.663   2.653 -0.2504 -0.0443 -0.5245
   51CHL1   H4A 3706   4.143   0.741   2.605  0.0418  0.5379  0.7650
   51CHL1   H4B 3707   3.986   0.670   2.595 -0.7880 -1.7484  0.0588
   51CHL1    C5 3708   4.067   0.686   2.799  0.0566  0.3910 -0.5879
   51CHL1    C6 3709   3.951   0.713   2.863 -0.0766 -1.1393 -0.4437
   51CHL1    H6 3710   3.862   0.717   2.799  0.8585 -2.2695 -1.8601
   51CHL1    C7 3711   3.934   0.733   3.009  0.3328 -0.6456 -1.5067
   51CHL1   H7A 3712   3.872   0.823   3.029  2.5347  0.5899  0.0878
   51CHL1   H7B 3713   3.887   0.642   3.053 -0.4490  1.0404  1.4202
   51CHL1    C8 3714   4.061   0.743   3.090 -0.1537 -0.6125 -0.2065
   51CHL1    H8 3715   4.086   0.851   3.080  1.1206 -0.9106 -0.4336
   51CHL1   C14 3716   4.047   0.721   3.238 -0.5785  0.0622 -0.1304
   51CHL1   H14 3717   4.041   0.611   3.251  0.6576 -0.1601 -1.2850
   51CHL1   C15 3718   3.919   0.772   3.305  0.0425 -0.1405  0.6398
   51CHL1  H15A 3719   3.910   0.882   3.293 -0.4758 -0.3445 -1.2247
   51CHL1  H15B 3720   3.824   0.733   3.263  0.3587 -1.4080  1.0505
   51CHL1   C16 3721   3.950   0.752   3.459  0.2432  0.5045  0.1879
   51CHL1  H16A 3722   3.927   0.838   3.525 -1.8416  0.3108 -0.2302
   51CHL1  H16B 3723   3.894   0.668   3.506  0.6916 -0.0228 -0.1970
   51CHL1   C17 3724   4.102   0.715   3.463  0.3186 -0.2725  0.4056
   51CHL1   H17 3725   4.116   0.605   3.468 -1.0353 -0.4348  1.1738
   51CHL1   C13 3726   4.164   0.754   3.329 -0.2888  0.4316  0.3123
   51CHL1   C18 3727   4.186   0.914   3.324 -0.5722 -0.4551 -0.2359
   51CHL1  H18A 3728   4.268   0.939   3.395  0.4648 -2.5791 -0.5863
   51CHL1  H18B 3729   4.213   0.952   3.224  1.0750 -1.3145 -0.1563
   51CHL1  H18C 3730   4.092   0.966   3.351  0.0712  2.0355 -2.4542
   51CHL1   C12 3731   4.292   0.674   3.275 -0.1080 -0.0918 -0.4767
   51CHL1  H12A 3732   4.379   0.719   3.326 -0.2539  0.6952 -0.9040
   51CHL1  H12B 3733   4.283   0.568   3.308  2.2811 -0.1803  0.0482
   51CHL1   C11 3734   4.303   0.689   3.120 -0.5264 -0.7443  0.0167
   51CHL1  H11A 3735   4.333   0.795   3.106 -1.0869 -0.4091  1.1823
   51CHL1  H11B 3736   4.384   0.620   3.089 -0.8530 -2.0278  1.8794
   51CHL1    C9 3737   4.173   0.660   3.039 -0.4235 -0.6331  0.5637
   51CHL1    H9 3738   4.136   0.556   3.052  0.1767 -0.7326  1.6055
   51CHL1   C10 3739   4.194   0.677   2.883 -0.1048 -0.2305 -0.6569
   51CHL1   C19 3740   4.271   0.811   2.854  0.0359 -0.3112 -0.4216
   51CHL1  H19A 3741   4.285   0.831   2.745 -0.5897 -0.7297 -0.5826
   51CHL1  H19B 3742   4.211   0.891   2.901  0.9111 -0.2517  0.6393
   51CHL1  H19C 3743   4.374   0.817   2.897 -1.1266  0.6806  2.4454
   51CHL1    C1 3744   4.278   0.546   2.835  0.4529 -0.4521 -0.4527
   51CHL1   H1A 3745   4.383   0.564   2.866  0.2278  1.0514 -0.4594
   51CHL1   H1B 3746   4.236   0.450   2.873  2.7311 -2.3613 -2.4915
   51CHL1    C2 3747   4.286   0.534   2.688 -0.3175  0.5594 -0.3601
   51CHL1   H2A 3748   4.326   0.435   2.660  0.6344  1.3861 -2.1205
   51CHL1   H2B 3749   4.350   0.609   2.637  1.4673 -1.0424 -0.5925
   51CHL1   C20 3750   4.175   0.761   3.586 -0.1803 -0.5684 -0.1243
   51CHL1   H20 3751   4.151   0.867   3.608 -0.3043 -0.2387 -1.7030
   51CHL1   C21 3752   4.334   0.748   3.593 -0.5215  0.0639  0.0404
   51CHL1  H21A 3753   4.381   0.803   3.509 -1.1690  0.4708 -0.0625
   51CHL1  H21B 3754   4.358   0.640   3.584  0.0020 -0.1571  3.0514
   51CHL1  H21C 3755   4.384   0.769   3.690 -0.1323  0.2890 -0.2106
   51CHL1   C22 3756   4.123   0.677   3.707  0.5382  0.3011 -0.1218
   51CHL1  H22A 3757   4.015   0.703   3.712  0.7305  1.0777  0.0623
   51CHL1  H22B 3758   4.151   0.569   3.706  3.8056  1.0600 -0.5602
   51CHL1   C23 3759   4.165   0.729   3.852  0.4850 -0.5259  0.3882
   51CHL1  H23A 3760   4.276   0.727   3.859  0.6936 -1.6628 -2.1606
   51CHL1  H23B 3761   4.142   0.838   3.851  1.3973 -0.3113 -0.8576
   51CHL1   C24 3762   4.090   0.662   3.968 -0.2409  0.2744  0.3909
   51CHL1  H24A 3763   3.984   0.642   3.943 -0.1546  0.0184  0.2326
   51CHL1  H24B 3764   4.133   0.566   4.002 -1.9047 -0.5872  0.1333
   51CHL1   C25 3765   4.093   0.736   4.104  0.6701  0.1501  0.0265
   51CHL1   H25 3766   4.040   0.834   4.100 -1.4292 -0.9273  0.2867
   51CHL1   C26 3767   4.015   0.653   4.208 -0.5581  0.0409 -0.4100
   51CHL1  H26A 3768   4.067   0.556   4.223  0.4874  0.9735  3.2157
   51CHL1  H26B 3769   4.012   0.708   4.305 -1.5212 -1.7137  0.5959
   51CHL1  H26C 3770   3.907   0.632   4.192  0.0234 -3.4418 -0.5208
   51CHL1   C27 3771   4.238   0.759   4.144  0.3593  0.3800  0.0763
   51CHL1  H27A 3772   4.290   0.825   4.072 -0.4998 -0.6216 -1.5500
   51CHL1  H27B 3773   4.242   0.799   4.247 -0.6951 -1.4636  0.8755
   51CHL1  H27C 3774   4.295   0.664   4.148 -3.2664 -2.1960 -2.4281
   52CHL1    C3 3775   2.131   4.219   2.549 -0.0997  0.7606 -0.7045
   52CHL1    H3 3776   2.195   4.308   2.567  0.8768 -0.0217 -0.2810
   52CHL1    O3 3777   2.148   4.180   2.414 -0.5173  0.1145 -0.0949
   52CHL1   H3' 3778   2.084   4.112   2.392 -0.8268  1.2601 -3.3100
   52CHL1    C4 3779   2.176   4.110   2.644  0.1962  0.1608  0.1851
   52CHL1   H4A 3780   2.114   4.020   2.628 -0.8922 -0.0110  4.2393
   52CHL1   H4B 3781   2.282   4.084   2.622  0.6262  1.1806  0.9103
   52CHL1    C5 3782   2.151   4.144   2.787 -0.5104 -0.7187 -0.5554
   52CHL1    C6 3783   2.252   4.157   2.877  0.1265  0.7221  0.5252
   52CHL1    H6 3784   2.357   4.143   2.849 -0.0397  1.7367 -0.6628
   52CHL1    C7 3785   2.242   4.185   3.019 -0.2291  0.1582  0.0969
   52CHL1   H7A 3786   2.305   4.121   3.084  1.6240 -0.5871 -2.2840
   52CHL1   H7B 3787   2.280   4.289   3.026  1.3053 -0.4007  0.6518
   52CHL1    C8 3788   2.097   4.175   3.067 -0.4992 -0.1773  0.2455
   52CHL1    H8 3789   2.069   4.069   3.083 -0.4193 -0.0471  1.2896
   52CHL1   C14 3790   2.088   4.249   3.204 -0.8928  0.2645 -0.4734
   52CHL1   H14 3791   2.119   4.349   3.169  1.6646 -0.5515 -0.7291
   52CHL1   C15 3792   2.175   4.215   3.328  0.2235  0.1490 -0.1637
   52CHL1  H15A 3793   2.180   4.105   3.343  0.9198  0.0889 -0.8120
   52CHL1  H15B 3794   2.275   4.257   3.308 -0.1023  0.4687 -1.2019
   52CHL1   C16 3795   2.101   4.285   3.442 -0.2370  0.2672  1.0459
   52CHL1  H16A 3796   2.078   4.205   3.515 -1.7315 -0.7417 -0.4703
   52CHL1  H16B 3797   2.154   4.371   3.488 -0.4822 -0.0081  1.8511
   52CHL1   C17 3798   1.964   4.343   3.389 -0.0946 -0.5960  0.1056
   52CHL1   H17 3799   1.990   4.447   3.361  0.8754 -1.4928 -2.7497
   52CHL1   C13 3800   1.943   4.271   3.251  0.3969 -0.1284  0.3134
   52CHL1   C18 3801   1.866   4.134   3.281  0.6838  0.2289 -0.7683
   52CHL1  H18A 3802   1.757   4.148   3.299  1.1151 -0.2470  3.1528
   52CHL1  H18B 3803   1.875   4.060   3.199 -0.5313  0.7259 -1.3859
   52CHL1  H18C 3804   1.898   4.093   3.379 -2.2545  1.8127  1.0088
   52CHL1   C12 3805   1.867   4.347   3.144  0.0545 -0.4778 -0.0146
   52CHL1  H12A 3806   1.758   4.350   3.167 -0.2596 -2.2818 -1.0960
   52CHL1  H12B 3807   1.898   4.452   3.124 -1.9953 -0.2840 -2.5993
   52CHL1   C11 3808   1.873   4.281   3.012  0.7445  0.1935 -0.7574
   52CHL1  H11A 3809   1.813   4.188   3.014 -1.1727  1.3131 -2.3986
   52CHL1  H11B 3810   1.816   4.346   2.942  0.8815  0.5459 -0.5473
   52CHL1    C9 3811   2.012   4.248   2.963 -0.2040 -0.4306 -0.2058
   52CHL1    H9 3812   2.066   4.345   2.953  2.6799 -1.9752 -1.0287
   52CHL1   C10 3813   2.012   4.186   2.824  0.6445 -0.0619  0.8302
   52CHL1   C19 3814   1.927   4.053   2.821 -0.0582  0.6971  0.6148
   52CHL1  H19A 3815   1.944   3.990   2.911 -0.9919 -1.6073 -0.7459
   52CHL1  H19B 3816   1.819   4.076   2.831 -0.1788 -0.5794  3.0001
   52CHL1  H19C 3817   1.939   3.995   2.728  3.1869 -0.2892  1.5261
   52CHL1    C1 3818   1.958   4.287   2.715  0.6396 -0.0886 -0.5265
   52CHL1   H1A 3819   1.847   4.298   2.716  0.3809 -1.7285 -2.7971
   52CHL1   H1B 3820   2.015   4.381   2.728  3.0514 -1.4188 -0.9305
   52CHL1    C2 3821   1.984   4.249   2.572 -0.4678  0.0313  0.6111
   52CHL1   H2A 3822   1.965   4.337   2.508  0.4261 -1.0730 -1.2727
   52CHL1   H2B 3823   1.917   4.166   2.540  1.1047 -0.8688 -0.4852
   52CHL1   C20 3824   1.856   4.337   3.495 -0.3406  0.2800  0.8708
   52CHL1   H20 3825   1.810   4.236   3.501  1.4484 -0.6166  0.1785
   52CHL1   C21 3826   1.746   4.442   3.461 -0.1219 -0.9118  0.2424
   52CHL1  H21A 3827   1.782   4.534   3.409  1.4225 -2.9977 -2.6433
   52CHL1  H21B 3828   1.692   4.474   3.553  1.0152  1.2084  0.2384
   52CHL1  H21C 3829   1.673   4.399   3.390  0.2625  0.3842 -0.9921
   52CHL1   C22 3830   1.904   4.353   3.644 -0.4377  0.6777  0.2606
   52CHL1  H22A 3831   1.802   4.346   3.687  0.0355  0.8044  1.4197
   52CHL1  H22B 3832   1.956   4.262   3.681 -1.7524 -0.2811 -0.1665
   52CHL1   C23 3833   1.969   4.485   3.677  0.0699  0.1964  0.1638
   52CHL1  H23A 3834   2.067   4.501   3.626  0.2280 -0.6333  0.1974
   52CHL1  H23B 3835   1.894   4.559   3.641 -0.1458  0.7450  1.6755
   52CHL1   C24 3836   1.984   4.507   3.835 -0.8234 -0.3936 -0.1997
   52CHL1  H24A 3837   2.028   4.609   3.844  1.5780 -1.4126  0.4372
   52CHL1  H24B 3838   1.880   4.504   3.874 -1.2278  0.9467 -1.0986
   52CHL1   C25 3839   2.080   4.406   3.903 -0.0189 -1.2397  0.4158
   52CHL1   H25 3840   2.057   4.304   3.865  0.3974 -0.5111 -1.9364
   52CHL1   C26 3841   2.226   4.429   3.857  0.0245 -0.3485 -0.2149
   52CHL1  H26A 3842   2.262   4.532   3.873  0.3684 -0.6616  1.2014
   52CHL1  H26B 3843   2.288   4.347   3.901  2.7679  2.3156  1.2122
   52CHL1  H26C 3844   2.231   4.407   3.748 -1.5960  1.5695 -0.7235
   52CHL1   C27 3845   2.078   4.411   4.058 -0.1141 -0.9099  0.7736
   52CHL1  H27A 3846   2.156   4.343   4.098  0.5632 -0.4218  0.3128
   52CHL1  H27B 3847   2.099   4.515   4.091 -0.1161 -0.2122 -1.2552
   52CHL1  H27C 3848   1.973   4.396   4.092 -1.4366 -0.1283 -2.5546
   53CHL1    C3 3849   4.635   1.135   2.479 -0.5888 -0.2137 -0.4652
   53CHL1    H3 3850   4.565   1.219   2.498  1.7743  1.4220  1.6070
   53CHL1    O3 3851   4.645   1.119   2.341 -0.5186 -0.1619  0.3908
   53CHL1   H3' 3852   4.727   1.073   2.323  0.4881  1.4492  0.5538
   53CHL1    C4 3853   4.771   1.172   2.534  0.8221  0.4372  0.4410
   53CHL1   H4A 3854   4.850   1.096   2.518  3.5157  2.6980  1.9302
   53CHL1   H4B 3855   4.801   1.269   2.489 -0.5541  0.3591 -0.7066
   53CHL1    C5 3856   4.770   1.195   2.682 -0.3645 -0.1436  0.1431
   53CHL1    C6 3857   4.793   1.315   2.735  0.0273 -0.4305  1.0125
   53CHL1    H6 3858   4.829   1.397   2.670 -0.5081 -0.9339  0.0713
   53CHL1    C7 3859   4.802   1.341   2.878 -0.3151  0.4010 -0.1693
   53CHL1   H7A 3860   4.893   1.398   2.906  1.2329 -1.3825 -1.3779
   53CHL1   H7B 3861   4.713   1.395   2.918  0.4692  0.7740  1.1175
   53CHL1    C8 3862   4.791   1.211   2.963  0.4140 -0.0526 -0.1017
   53CHL1    H8 3863   4.880   1.145   2.964 -1.1608 -2.3658 -1.5637
   53CHL1   C14 3864   4.747   1.258   3.106  0.1750  0.0206  0.2004
   53CHL1   H14 3865   4.648   1.307   3.097  0.1152  0.0595  1.0031
   53CHL1   C15 3866   4.831   1.361   3.180 -0.3027 -0.3430 -0.2835
   53CHL1  H15A 3867   4.940   1.342   3.165 -0.5571 -1.3617 -0.9297
   53CHL1  H15B 3868   4.816   1.468   3.154 -0.0956 -0.3605 -0.4753
   53CHL1   C16 3869   4.783   1.341   3.330 -0.6172  0.1378  0.5542
   53CHL1  H16A 3870   4.868   1.311   3.394 -0.6139 -0.9453  0.0585
   53CHL1  H16B 3871   4.736   1.435   3.366 -0.8951 -0.2562  1.2369
   53CHL1   C17 3872   4.681   1.232   3.326 -0.3899 -0.5077 -0.1643
   53CHL1   H17 3873   4.586   1.286   3.302  0.5393  0.6631 -1.3622
   53CHL1   C13 3874   4.718   1.149   3.208  0.1093  0.7095  0.5606
   53CHL1   C18 3875   4.837   1.056   3.229 -0.0596 -0.2938 -0.1483
   53CHL1  H18A 3876   4.816   0.975   3.302  3.7778 -0.7760  0.6669
   53CHL1  H18B 3877   4.872   1.011   3.134 -0.4714 -0.8162 -0.0602
   53CHL1  H18C 3878   4.921   1.109   3.280 -1.4311  0.4695  1.4143
   53CHL1   C12 3879   4.608   1.056   3.150 -0.3623 -0.6335 -0.8666
   53CHL1  H12A 3880   4.605   0.973   3.223  3.2567 -1.7839 -1.8078
   53CHL1  H12B 3881   4.515   1.117   3.146  0.7831  1.6296  2.8191
   53CHL1   C11 3882   4.643   1.004   3.013 -0.9351 -0.3170  0.2964
   53CHL1  H11A 3883   4.716   0.921   3.012 -0.8263 -0.3010  2.4187
   53CHL1  H11B 3884   4.554   0.951   2.972 -0.5390 -0.6298 -0.1581
   53CHL1    C9 3885   4.684   1.115   2.914  0.2257  0.3683  0.6817
   53CHL1    H9 3886   4.582   1.160   2.914 -0.7421 -1.4686 -2.4228
   53CHL1   C10 3887   4.708   1.076   2.757  0.3792  0.5453  0.1884
   53CHL1   C19 3888   4.805   0.956   2.752  0.5923 -0.3715 -0.6812
   53CHL1  H19A 3889   4.756   0.860   2.779 -1.2816  1.2977  2.5496
   53CHL1  H19B 3890   4.846   0.928   2.653  1.9042 -1.9148  0.2437
   53CHL1  H19C 3891   4.886   0.975   2.825  0.7840  1.1950 -1.2652
   53CHL1    C1 3892   4.569   1.036   2.695 -0.2358  0.3983 -0.2955
   53CHL1   H1A 3893   4.526   0.945   2.743  0.0351 -0.0302 -0.8667
   53CHL1   H1B 3894   4.498   1.121   2.707 -2.9027 -1.8945  1.2335
   53CHL1    C2 3895   4.578   1.012   2.540  0.4611  0.8228  0.0457
   53CHL1   H2A 3896   4.473   0.992   2.507 -0.3871  2.2026  1.7481
   53CHL1   H2B 3897   4.640   0.923   2.516  0.4373  0.8357 -0.0643
   53CHL1   C20 3898   4.649   1.161   3.464  0.3759 -0.1583  0.1203
   53CHL1   H20 3899   4.737   1.097   3.485  0.4382 -0.0679  0.1377
   53CHL1   C21 3900   4.525   1.070   3.455 -0.0550  0.0773 -0.2994
   53CHL1  H21A 3901   4.551   0.965   3.429 -1.0111 -0.8653  2.2283
   53CHL1  H21B 3902   4.455   1.111   3.380 -1.5624 -0.5404  0.7085
   53CHL1  H21C 3903   4.470   1.069   3.552  0.6409  2.0503  0.1566
   53CHL1   C22 3904   4.628   1.266   3.578 -0.3211 -0.3153  0.1718
   53CHL1  H22A 3905   4.687   1.359   3.566  0.4232 -0.9560 -1.4919
   53CHL1  H22B 3906   4.523   1.303   3.586 -0.1114  0.3381 -0.0730
   53CHL1   C23 3907   4.666   1.204   3.716  0.1188 -0.0654 -1.3304
   53CHL1  H23A 3908   4.626   1.101   3.713  1.1476 -0.5195 -0.0843
   53CHL1  H23B 3909   4.776   1.188   3.714  0.1429  0.0928 -1.3250
   53CHL1   C24 3910   4.613   1.290   3.835 -0.1563  0.6904 -0.0992
   53CHL1  H24A 3911   4.640   1.394   3.806 -0.1877  0.8007  0.2620
   53CHL1  H24B 3912   4.502   1.289   3.832 -0.1638  0.9083 -3.2173
   53CHL1   C25 3913   4.658   1.255   3.971 -0.0444  0.1630  0.4010
   53CHL1   H25 3914   4.769   1.257   3.962  0.0959 -2.2343  0.7878
   53CHL1   C26 3915   4.608   1.362   4.069 -0.1959 -0.5151 -0.6336
   53CHL1  H26A 3916   4.648   1.464   4.049 -1.8300  0.3066  0.1228
   53CHL1  H26B 3917   4.499   1.373   4.055  0.1210  2.6849 -1.3258
   53CHL1  H26C 3918   4.621   1.324   4.173 -1.1896  1.2527  0.1797
   53CHL1   C27 3919   4.620   1.110   4.019  0.3956  0.3690  0.0667
   53CHL1  H27A 3920   4.513   1.095   4.044 -0.2192  0.0149 -2.5243
   53CHL1  H27B 3921   4.651   1.020   3.962 -1.4399 -0.8075  0.8340
   53CHL1  H27C 3922   4.673   1.093   4.116  0.4535  2.6334  0.4865
   54CHL1    C3 3923   4.117   1.758   2.660  0.5998 -0.3799 -0.3162
   54CHL1    H3 3924   4.124   1.659   2.711 -0.4481  0.0698  0.7479
   54CHL1    O3 3925   4.128   1.736   2.519 -0.9852 -0.0233 -0.5147
   54CHL1   H3' 3926   4.071   1.667   2.483 -0.0601 -0.0915 -1.9430
   54CHL1    C4 3927   3.991   1.835   2.702  0.0302  0.3194  0.9632
   54CHL1   H4A 3928   3.992   1.937   2.659  1.3451 -0.6604 -1.5572
   54CHL1   H4B 3929   3.904   1.782   2.657  0.5753 -0.1070  0.3925
   54CHL1    C5 3930   3.982   1.837   2.849  0.1011  0.4721 -0.2268
   54CHL1    C6 3931   3.878   1.776   2.912 -0.4614  0.0400  0.0026
   54CHL1    H6 3932   3.809   1.711   2.857  1.1462 -1.7678  0.0199
   54CHL1    C7 3933   3.856   1.770   3.062 -0.1312  0.2811  0.7454
   54CHL1   H7A 3934   3.747   1.786   3.080 -0.1992  0.5345  0.1431
   54CHL1   H7B 3935   3.889   1.668   3.090  0.3496  0.3976  0.6107
   54CHL1    C8 3936   3.945   1.874   3.135  0.0154  0.2654  0.0400
   54CHL1    H8 3937   3.888   1.965   3.107 -0.1514  0.0527 -0.3167
   54CHL1   C14 3938   3.950   1.846   3.283  0.3507  0.3167 -0.3152
   54CHL1   H14 3939   3.992   1.744   3.296 -0.9216  0.0572  2.4926
   54CHL1   C15 3940   3.816   1.820   3.369  0.0237  0.6369  0.0437
   54CHL1  H15A 3941   3.732   1.880   3.326 -1.3641 -0.8580  0.5572
   54CHL1  H15B 3942   3.796   1.711   3.359 -0.2577  0.3057  3.1180
   54CHL1   C16 3943   3.845   1.865   3.511 -0.6235  0.5706  0.4026
   54CHL1  H16A 3944   3.775   1.947   3.535 -0.9750  0.4953 -0.3429
   54CHL1  H16B 3945   3.825   1.783   3.583  1.1611  0.6849  1.0879
   54CHL1   C17 3946   3.998   1.896   3.508  0.2258  0.0429  0.0495
   54CHL1   H17 3947   4.052   1.799   3.519 -2.1422 -1.2951  0.4129
   54CHL1   C13 3948   4.026   1.945   3.365 -1.1168 -0.8532 -0.1835
   54CHL1   C18 3949   3.978   2.092   3.352 -0.3081  0.4170 -0.1346
   54CHL1  H18A 3950   3.880   2.112   3.400 -0.6735 -0.6111 -0.4391
   54CHL1  H18B 3951   4.038   2.166   3.409  3.9425 -0.6856 -2.7755
   54CHL1  H18C 3952   3.979   2.128   3.247 -0.0858  0.5547 -0.0847
   54CHL1   C12 3953   4.167   1.935   3.314 -0.3834  0.1652  0.0750
   54CHL1  H12A 3954   4.233   1.990   3.385 -0.7987  1.7240 -0.6949
   54CHL1  H12B 3955   4.187   1.828   3.335 -1.0893  0.1711  0.8415
   54CHL1   C11 3956   4.186   1.955   3.169 -0.1501 -0.8574  0.1222
   54CHL1  H11A 3957   4.170   2.064   3.160 -1.3267 -1.1951 -3.3014
   54CHL1  H11B 3958   4.287   1.945   3.126 -0.1916  1.2232 -0.5578
   54CHL1    C9 3959   4.087   1.877   3.078 -0.0935 -0.4829  0.1071
   54CHL1    H9 3960   4.131   1.775   3.087  0.5833 -0.0270  2.6756
   54CHL1   C10 3961   4.090   1.905   2.923  0.0526 -0.3019 -0.3838
   54CHL1   C19 3962   4.055   2.057   2.898  0.2456  0.3873  0.2087
   54CHL1  H19A 3963   4.068   2.090   2.793 -1.6213 -0.7971 -0.4323
   54CHL1  H19B 3964   3.957   2.090   2.940  0.8042  1.2270  0.8875
   54CHL1  H19C 3965   4.137   2.111   2.949  1.1679  0.0164 -0.8406
   54CHL1    C1 3966   4.221   1.849   2.864 -0.6122 -0.7719 -0.1625
   54CHL1   H1A 3967   4.304   1.916   2.895  0.7747 -1.6648 -1.7280
   54CHL1   H1B 3968   4.233   1.750   2.914  1.0579  0.7898  2.7929
   54CHL1    C2 3969   4.237   1.829   2.709 -0.0312 -0.2127 -0.1246
   54CHL1   H2A 3970   4.325   1.763   2.694  0.8815 -0.2837  4.1196
   54CHL1   H2B 3971   4.252   1.926   2.659 -0.2286  0.7061  1.5183
   54CHL1   C20 3972   4.042   1.985   3.629  1.1015 -0.6370  0.2981
   54CHL1   H20 3973   4.041   2.094   3.610  1.2431 -0.3179  2.0242
   54CHL1   C21 3974   4.188   1.948   3.656  0.5517 -0.5926  0.3108
   54CHL1  H21A 3975   4.216   1.840   3.662  1.2197 -0.3479  3.0667
   54CHL1  H21B 3976   4.224   2.003   3.746  0.2720 -1.4634  0.9776
   54CHL1  H21C 3977   4.246   1.996   3.575  0.3453  1.4359  1.3058
   54CHL1   C22 3978   3.969   1.962   3.760  1.5663 -0.7431  0.5680
   54CHL1  H22A 3979   4.009   2.029   3.840  0.2152  0.8838 -0.0727
   54CHL1  H22B 3980   3.865   2.000   3.757  1.7796 -0.1944 -0.3876
   54CHL1   C23 3981   3.960   1.813   3.815  0.2257  0.1581 -0.3348
   54CHL1  H23A 3982   3.940   1.744   3.731 -3.5561  1.4025 -0.6645
   54CHL1  H23B 3983   4.050   1.797   3.879 -0.0661  1.8141  0.5729
   54CHL1   C24 3984   3.835   1.816   3.910  0.5199  0.1844  0.6998
   54CHL1  H24A 3985   3.852   1.873   4.004  0.5580 -0.2519  0.9611
   54CHL1  H24B 3986   3.753   1.872   3.861 -0.7107 -0.8266  1.5097
   54CHL1   C25 3987   3.782   1.670   3.943  0.1265 -0.1424 -0.4096
   54CHL1   H25 3988   3.686   1.699   3.992 -0.3464  1.9979 -2.4118
   54CHL1   C26 3989   3.744   1.586   3.822 -0.6589 -0.3087 -0.0351
   54CHL1  H26A 3990   3.845   1.563   3.780  0.5812  3.1178  0.7070
   54CHL1  H26B 3991   3.700   1.492   3.860 -1.0758  0.2984  1.0408
   54CHL1  H26C 3992   3.671   1.634   3.754 -2.1621 -1.9122  0.3895
   54CHL1   C27 3993   3.878   1.594   4.024  0.6931  0.0563 -0.2764
   54CHL1  H27A 3994   3.970   1.596   3.963  1.1948  1.0733  0.4797
   54CHL1  H27B 3995   3.911   1.634   4.122 -1.6983 -1.8810  1.4550
   54CHL1  H27C 3996   3.844   1.491   4.046  0.8455  0.6193  3.0979
   55CHL1    C3 3997   2.272   1.591   2.439  0.1624 -0.3948 -0.4326
   55CHL1    H3 3998   2.263   1.493   2.389  1.6045 -1.3559  1.1029
   55CHL1    O3 3999   2.306   1.691   2.343  0.7547 -0.3335 -0.7852
   55CHL1   H3' 4000   2.296   1.775   2.389 -4.1218  0.0731 -2.0119
   55CHL1    C4 4001   2.132   1.623   2.496 -0.1717  0.2189 -0.0395
   55CHL1   H4A 4002   2.120   1.731   2.518 -0.0645  0.3371 -0.5357
   55CHL1   H4B 4003   2.061   1.610   2.411 -0.6911 -1.4577  0.6182
   55CHL1    C5 4004   2.106   1.547   2.620 -0.2811  0.0606  0.3188
   55CHL1    C6 4005   1.988   1.483   2.627  0.1571  0.0081 -0.5838
   55CHL1    H6 4006   1.920   1.499   2.542 -0.3811  1.9432  0.1349
   55CHL1    C7 4007   1.942   1.411   2.752 -0.1978 -0.3504 -0.4546
   55CHL1   H7A 4008   1.832   1.423   2.761 -0.0504 -0.4691  2.5450
   55CHL1   H7B 4009   1.968   1.304   2.739  0.0903 -0.8869  3.3625
   55CHL1    C8 4010   2.010   1.464   2.878 -0.8794  0.5058 -0.5169
   55CHL1    H8 4011   1.983   1.570   2.896  2.5707  1.7759 -1.9532
   55CHL1   C14 4012   1.982   1.383   3.000 -0.4840 -0.1356 -0.4880
   55CHL1   H14 4013   1.990   1.276   2.970 -0.0572 -0.3944  0.5196
   55CHL1   C15 4014   1.840   1.386   3.056 -0.4870  0.1631  0.6734
   55CHL1  H15A 4015   1.806   1.492   3.055  0.8753  0.6248  0.7252
   55CHL1  H15B 4016   1.781   1.321   2.988  0.9698 -0.6779  0.1909
   55CHL1   C16 4017   1.849   1.327   3.202 -0.1725 -0.0178 -0.1913
   55CHL1  H16A 4018   1.810   1.401   3.274  2.8794  1.2159  0.3325
   55CHL1  H16B 4019   1.814   1.222   3.210 -0.6609  0.2061  0.7059
   55CHL1   C17 4020   2.002   1.319   3.235 -0.3014  0.4548  0.0347
   55CHL1   H17 4021   2.047   1.218   3.229  0.7319  0.8827  0.3472
   55CHL1   C13 4022   2.071   1.406   3.126 -0.3616 -0.0792 -0.3048
   55CHL1   C18 4023   2.066   1.563   3.157  0.1474  0.1824  0.1447
   55CHL1  H18A 4024   1.982   1.598   3.220  1.2551  2.9216  0.2219
   55CHL1  H18B 4025   2.159   1.584   3.213  0.9634 -1.8322 -0.3546
   55CHL1  H18C 4026   2.067   1.624   3.064 -0.7732  0.8363  0.5492
   55CHL1   C12 4027   2.214   1.367   3.083  0.3915 -0.3011  0.2521
   55CHL1  H12A 4028   2.280   1.377   3.171  0.0551 -0.1413  0.4890
   55CHL1  H12B 4029   2.201   1.263   3.046  0.7121  0.3320 -1.7806
   55CHL1   C11 4030   2.268   1.449   2.967 -0.4246 -0.0805 -0.5742
   55CHL1  H11A 4031   2.284   1.556   2.990 -0.7612  0.1070 -1.1988
   55CHL1  H11B 4032   2.366   1.405   2.935 -0.7996 -0.5165 -1.1563
   55CHL1    C9 4033   2.171   1.449   2.851  0.5388 -0.3146  0.1902
   55CHL1    H9 4034   2.191   1.350   2.805 -2.9214 -0.4084 -1.4765
   55CHL1   C10 4035   2.211   1.548   2.732 -0.0143 -0.3861  0.4816
   55CHL1   C19 4036   2.217   1.687   2.785 -0.1549  0.2246 -0.1960
   55CHL1  H19A 4037   2.304   1.689   2.853  0.8414  0.3072 -1.4473
   55CHL1  H19B 4038   2.231   1.765   2.707 -2.3995  0.6239 -0.2695
   55CHL1  H19C 4039   2.130   1.718   2.848  0.4617 -1.3314  1.5060
   55CHL1    C1 4040   2.336   1.495   2.660  0.3405 -0.3170 -0.4833
   55CHL1   H1A 4041   2.427   1.500   2.723  1.0333  0.6314 -1.5274
   55CHL1   H1B 4042   2.326   1.390   2.625  0.4499 -0.2920 -0.5903
   55CHL1    C2 4043   2.375   1.588   2.544  0.1341  0.1976 -0.0843
   55CHL1   H2A 4044   2.465   1.544   2.497 -0.7042 -3.6976  1.5686
   55CHL1   H2B 4045   2.393   1.690   2.582 -0.8668  0.0420  0.8410
   55CHL1   C20 4046   2.029   1.362   3.386 -0.0267  0.3597  0.2002
   55CHL1   H20 4047   1.984   1.463   3.404 -0.3293  0.2266  0.2075
   55CHL1   C21 4048   2.181   1.384   3.422 -0.2418  0.8319  0.0307
   55CHL1  H21A 4049   2.222   1.281   3.409  2.0219  1.8187 -1.4997
   55CHL1  H21B 4050   2.182   1.424   3.525 -0.9845 -0.6355  0.6331
   55CHL1  H21C 4051   2.233   1.454   3.353 -1.7367 -0.2220 -2.3055
   55CHL1   C22 4052   1.952   1.274   3.481 -0.1635 -0.5854  0.3243
   55CHL1  H22A 4053   1.843   1.275   3.462  0.1571 -1.1663 -1.7859
   55CHL1  H22B 4054   1.983   1.169   3.465  0.3098 -0.2736 -0.8882
   55CHL1   C23 4055   1.972   1.311   3.632  0.3336  0.1686  0.6530
   55CHL1  H23A 4056   2.077   1.312   3.668  1.0959 -1.5278 -1.3756
   55CHL1  H23B 4057   1.917   1.408   3.640 -0.1647  0.0142 -0.7273
   55CHL1   C24 4058   1.905   1.199   3.717 -0.4661  0.6051 -0.5618
   55CHL1  H24A 4059   1.799   1.190   3.686 -0.2282 -2.9643 -0.6652
   55CHL1  H24B 4060   1.940   1.101   3.679 -1.4741  0.6781 -1.7479
   55CHL1   C25 4061   1.931   1.216   3.871 -0.4402 -0.4155 -0.3550
   55CHL1   H25 4062   2.040   1.199   3.887 -0.8829 -2.2806  1.0884
   55CHL1   C26 4063   1.892   1.352   3.938 -0.2294  0.3850 -0.3800
   55CHL1  H26A 4064   1.909   1.346   4.047  1.2640 -0.5524 -0.6141
   55CHL1  H26B 4065   1.967   1.431   3.917  0.2756  0.1986  0.6830
   55CHL1  H26C 4066   1.786   1.382   3.924  0.0602  2.2876  1.1830
   55CHL1   C27 4067   1.865   1.105   3.952 -0.2063 -0.0587 -0.0979
   55CHL1  H27A 4068   1.758   1.132   3.967  0.3602  3.7466 -1.8055
   55CHL1  H27B 4069   1.875   1.007   3.901 -0.7358  0.7975 -1.9713
   55CHL1  H27C 4070   1.909   1.095   4.053 -0.3304 -1.7844 -0.1772
   56CHL1    C3 4071   0.384   2.352   2.327  0.9771  0.2688 -0.3750
   56CHL1    H3 4072   0.481   2.356   2.381  1.3176  2.5291 -1.0362
   56CHL1    O3 4073   0.402   2.386   2.196  0.2633 -0.3324  0.0407
   56CHL1   H3' 4074   0.333   2.453   2.186 -2.3880 -2.9677 -0.9317
   56CHL1    C4 4075   0.308   2.217   2.345 -0.4244  0.1264  0.5005
   56CHL1   H4A 4076   0.214   2.219   2.284  0.0665  4.4135 -0.4543
   56CHL1   H4B 4077   0.383   2.146   2.304 -0.2995 -0.5903  1.9436
   56CHL1    C5 4078   0.269   2.173   2.482  0.2471  0.4197  0.1925
   56CHL1    C6 4079   0.326   2.070   2.544  0.7848  0.2957 -0.1631
   56CHL1    H6 4080   0.393   2.003   2.488  0.3599 -1.3756  1.2650
   56CHL1    C7 4081   0.306   2.031   2.685  0.6404 -0.3353 -0.3279
   56CHL1   H7A 4082   0.287   1.922   2.684 -1.3533 -0.0327 -1.9469
   56CHL1   H7B 4083   0.399   2.046   2.745  0.7526  0.3380 -0.6618
   56CHL1    C8 4084   0.193   2.111   2.755  0.4935 -0.0914 -0.4404
   56CHL1    H8 4085   0.092   2.078   2.723  0.9587 -1.1896 -0.8593
   56CHL1   C14 4086   0.205   2.092   2.905  0.4486  0.1394  0.1154
   56CHL1   H14 4087   0.304   2.139   2.922 -0.1260  1.3698  0.1875
   56CHL1   C15 4088   0.220   1.946   2.963  0.0222  0.5229 -0.5704
   56CHL1  H15A 4089   0.140   1.877   2.928 -0.5674  2.8974 -4.4709
   56CHL1  H15B 4090   0.322   1.907   2.939 -0.0080  0.4024 -0.5028
   56CHL1   C16 4091   0.201   1.968   3.108 -0.1592  0.2480  0.0256
   56CHL1  H16A 4092   0.135   1.887   3.144  1.4007 -1.1652 -0.1784
   56CHL1  H16B 4093   0.289   1.956   3.175 -0.3939  2.1860  0.7446
   56CHL1   C17 4094   0.152   2.117   3.129 -0.0013  0.2600  0.6866
   56CHL1   H17 4095   0.249   2.166   3.154  0.9670 -1.3870  0.2833
   56CHL1   C13 4096   0.113   2.168   2.986 -0.2924 -0.5296  0.1958
   56CHL1   C18 4097  -0.028   2.111   2.949 -0.0737  0.3776 -0.0269
   56CHL1  H18A 4098  -0.104   2.146   3.022 -0.2094  0.4382 -0.1956
   56CHL1  H18B 4099  -0.064   2.145   2.850 -0.7731  0.4667  0.2563
   56CHL1  H18C 4100  -0.039   2.002   2.965 -2.7428  0.4684 -0.7677
   56CHL1   C12 4101   0.134   2.318   2.958  0.4160 -0.9109  0.2168
   56CHL1  H12A 4102   0.048   2.364   3.011  0.4693  0.3804 -0.7789
   56CHL1  H12B 4103   0.229   2.341   3.009  0.9053 -1.1886 -0.5545
   56CHL1   C11 4104   0.115   2.348   2.807  0.5448 -0.0501 -0.0283
   56CHL1  H11A 4105   0.008   2.333   2.781  0.0186  0.0863  1.9134
   56CHL1  H11B 4106   0.129   2.456   2.788 -0.8265  0.0720 -0.4965
   56CHL1    C9 4107   0.211   2.262   2.718  0.4917 -0.4943  0.4729
   56CHL1    H9 4108   0.319   2.280   2.736  0.9398  0.8773 -2.8108
   56CHL1   C10 4109   0.199   2.280   2.566 -0.5058 -0.0489 -1.1528
   56CHL1   C19 4110   0.052   2.274   2.517  0.3247  0.0104  0.4915
   56CHL1  H19A 4111   0.010   2.171   2.520  2.1247 -0.8451 -1.3095
   56CHL1  H19B 4112  -0.004   2.342   2.584  0.7941  1.3304 -0.4317
   56CHL1  H19C 4113   0.019   2.322   2.423  0.4376  0.6044  0.7492
   56CHL1    C1 4114   0.261   2.422   2.540  0.3687  0.0643  0.0943
   56CHL1   H1A 4115   0.198   2.503   2.583 -0.2193  0.2199 -1.0394
   56CHL1   H1B 4116   0.356   2.441   2.595  2.4132 -0.9033 -2.8490
   56CHL1    C2 4117   0.292   2.453   2.393  0.2699 -0.6382  0.3335
   56CHL1   H2A 4118   0.325   2.558   2.376 -2.1124  0.1938  0.4778
   56CHL1   H2B 4119   0.194   2.442   2.341  0.2504 -0.7775  0.3995
   56CHL1   C20 4120   0.058   2.135   3.248  0.1360 -0.2174 -0.3003
   56CHL1   H20 4121  -0.020   2.055   3.244  0.4529 -0.4650 -1.9074
   56CHL1   C21 4122  -0.005   2.278   3.257 -0.2684  0.1549 -0.1628
   56CHL1  H21A 4123  -0.071   2.281   3.346  2.2306 -0.0426  1.8369
   56CHL1  H21B 4124  -0.066   2.308   3.169  0.0036 -1.5895 -0.9793
   56CHL1  H21C 4125   0.078   2.352   3.263  1.2893 -1.4296 -1.1288
   56CHL1   C22 4126   0.136   2.107   3.382 -0.6736 -0.0141 -0.5275
   56CHL1  H22A 4127   0.172   2.004   3.363  0.6960  0.5877 -1.3954
   56CHL1  H22B 4128   0.231   2.164   3.381  1.2806 -3.0914 -0.5752
   56CHL1   C23 4129   0.055   2.111   3.512  0.1253  0.6950  0.9585
   56CHL1  H23A 4130   0.040   2.219   3.530  2.5837  1.8825 -2.8776
   56CHL1  H23B 4131  -0.042   2.059   3.495  1.2932 -0.7407 -1.8812
   56CHL1   C24 4132   0.125   2.042   3.631  0.0671  0.8274  0.3997
   56CHL1  H24A 4133   0.128   1.931   3.623  2.9098  0.8683 -0.1797
   56CHL1  H24B 4134   0.227   2.083   3.650  0.3796 -0.0836  0.7018
   56CHL1   C25 4135   0.058   2.069   3.769  1.0421 -0.1005  0.5142
   56CHL1   H25 4136   0.101   1.993   3.837 -0.1780 -3.3104 -2.0115
   56CHL1   C26 4137   0.081   2.211   3.823  0.3790 -0.0773 -0.1985
   56CHL1  H26A 4138   0.048   2.287   3.750  2.4341  0.2644 -0.8574
   56CHL1  H26B 4139   0.018   2.231   3.912 -1.4816 -0.6933 -1.3188
   56CHL1  H26C 4140   0.190   2.234   3.832  0.0597  1.5140 -0.0526
   56CHL1   C27 4141  -0.094   2.031   3.776 -0.0356  0.3455  0.6861
   56CHL1  H27A 4142  -0.109   1.927   3.740 -0.8101  0.4322  0.7416
   56CHL1  H27B 4143  -0.127   2.037   3.882 -2.3348 -2.1201  0.2212
   56CHL1  H27C 4144  -0.158   2.108   3.729  1.5488  1.5222  0.3585
   57SAPC     N 4145   3.017   5.530   6.158  0.2436 -0.0621 -0.0952
   57SAPC   C12 4146   3.079   5.503   6.021 -0.6403 -0.2275  0.7860
   57SAPC  H12A 4147   3.166   5.438   6.027 -0.8910 -0.7990 -1.2751
   57SAPC  H12B 4148   3.114   5.595   5.978  0.2053 -1.0164 -0.2673
   57SAPC   C13 4149   2.895   5.620   6.155  0.2100  0.2585  0.4601
   57SAPC  H13A 4150   2.913   5.717   6.109  0.4471  1.1972  2.4549
   57SAPC  H13B 4151   2.815   5.566   6.107  0.2177  0.3861  0.3000
   57SAPC  H13C 4152   2.859   5.626   6.256  0.3909  0.7093  0.4994
   57SAPC   C14 4153   2.986   5.398   6.221 -0.1333 -0.0132 -0.5425
   57SAPC  H14A 4154   2.942   5.419   6.317 -1.9809  0.7946 -1.5241
   57SAPC  H14B 4155   2.910   5.343   6.169 -0.3784 -0.8472  0.6630
   57SAPC  H14C 4156   3.072   5.333   6.222 -1.9360 -2.5327 -1.1813
   57SAPC   C15 4157   3.116   5.605   6.244 -0.1853  0.1431 -0.0045
   57SAPC  H15A 4158   3.124   5.709   6.216  2.5256  0.6503  2.2145
   57SAPC  H15B 4159   3.090   5.606   6.349  2.5956  0.3331  0.7801
   57SAPC  H15C 4160   3.210   5.553   6.257 -1.9199 -2.7572  2.3801
   57SAPC   C11 4161   2.991   5.440   5.907 -0.3538 -0.0423  0.0409
   57SAPC  H11A 4162   2.943   5.344   5.936  1.6467 -0.4640  2.2361
   57SAPC  H11B 4163   3.061   5.411   5.825 -0.1185 -0.5675  0.4205
   57SAPC     P 4164   2.928   5.653   5.777 -0.0653  0.2544  0.1690
   57SAPC   O13 4165   2.805   5.725   5.744  0.3311 -0.7329 -0.0693
   57SAPC   O14 4166   3.032   5.725   5.861 -0.9138 -0.3943  0.3026
   57SAPC   O12 4167   2.884   5.519   5.851 -0.0685 -0.2956 -0.0759
   57SAPC   O11 4168   3.004   5.617   5.646  0.7711  0.1156  0.5000
   57SAPC    C1 4169   2.943   5.573   5.524 -0.1794 -0.3225 -0.3975
   57SAPC    HA 4170   2.848   5.519   5.541 -0.2699  0.4037  1.6668
   57SAPC    HB 4171   2.921   5.656   5.453 -1.5798 -2.7662 -3.0038
   57SAPC    C2 4172   3.037   5.487   5.443  0.0749 -0.3173  0.1355
   57SAPC    HS 4173   3.049   5.390   5.495  0.1082 -0.1672  0.4079
   57SAPC   O21 4174   3.169   5.550   5.432 -0.8594 -0.6949  0.2143
   57SAPC   C21 4175   3.262   5.515   5.519  0.2853 -0.4099 -0.4687
   57SAPC   O22 4176   3.245   5.422   5.599  0.4644  0.8555  0.1321
   57SAPC   C22 4177   3.396   5.581   5.495  0.0187 -1.0500 -0.1252
   57SAPC   H2R 4178   3.432   5.564   5.392 -1.9836 -0.8022 -0.9102
   57SAPC   H2S 4179   3.363   5.687   5.507 -1.1067 -1.4584  0.6099
   57SAPC    C3 4180   2.988   5.470   5.292 -0.0484  0.1036  0.4076
   57SAPC    HX 4181   3.046   5.390   5.240  0.8176  0.8160  0.2433
   57SAPC    HY 4182   3.009   5.566   5.240  0.0357 -0.8799 -1.4560
   57SAPC   O31 4183   2.843   5.429   5.279 -0.5525 -0.6583 -0.2405
   57SAPC   C31 4184   2.810   5.434   5.153 -0.1995  0.1328  0.5641
   57SAPC   O32 4185   2.887   5.474   5.064  0.0781  0.0493  0.4502
   57SAPC   C32 4186   2.660   5.400   5.128 -0.2650  0.3759 -0.8501
   57SAPC   H2X 4187   2.595   5.488   5.146  0.6985  1.3430 -1.9212
   57SAPC   H2Y 4188   2.632   5.334   5.213  0.6224  1.1684  0.0916
   57SAPC   C23 4189   3.492   5.549   5.616  0.3526 -0.6627  0.1308
   57SAPC   H3R 4190   3.431   5.547   5.708  1.7271  0.3765  1.1038
   57SAPC   H3S 4191   3.566   5.629   5.638 -0.1928 -0.5390  1.5818
   57SAPC   C24 4192   3.571   5.414   5.592 -0.1881 -0.1832  0.5915
   57SAPC   H4R 4193   3.494   5.334   5.602 -0.7869  0.5123  1.8677
   57SAPC   H4S 4194   3.629   5.393   5.685  0.8315 -0.7151 -0.1588
   57SAPC   C25 4195   3.658   5.398   5.477 -0.7818  0.7516  0.4070
   57SAPC   H5R 4196   3.758   5.440   5.498 -0.1760 -0.1921 -0.4666
   57SAPC   C26 4197   3.640   5.342   5.359  0.3996 -0.4516 -0.3306
   57SAPC   H6R 4198   3.727   5.339   5.292 -0.4446 -0.5659 -1.4612
   57SAPC   C27 4199   3.512   5.284   5.312  0.3073 -0.1730  0.5644
   57SAPC   H7R 4200   3.438   5.295   5.394 -0.0918  1.0556  0.0524
   57SAPC   H7S 4201   3.521   5.174   5.303  0.1450 -0.3852  2.5228
   57SAPC   C28 4202   3.444   5.349   5.196  0.2073 -0.2191 -0.4809
   57SAPC   H8R 4203   3.466   5.457   5.189  0.4443 -0.0766  1.7974
   57SAPC   C29 4204   3.360   5.293   5.106 -0.1440  0.5147  0.2156
   57SAPC   H9R 4205   3.328   5.348   5.017 -2.3316 -0.7710  0.1224
   57SAPC  C210 4206   3.303   5.146   5.104 -0.4024  0.0333  0.4171
   57SAPC  H10R 4207   3.361   5.076   5.167  0.0310 -1.4309 -1.5193
   57SAPC  H10S 4208   3.315   5.107   5.001 -0.9510 -1.5164  0.9154
   57SAPC  C211 4209   3.164   5.157   5.137  0.3831  0.4861 -0.0513
   57SAPC  H11R 4210   3.144   5.127   5.241  0.1144  0.7837 -0.0157
   57SAPC  C212 4211   3.052   5.173   5.060  0.0520  0.0278  0.9433
   57SAPC  H12R 4212   2.951   5.171   5.103 -1.4954  0.3583 -2.3555
   57SAPC  C213 4213   3.050   5.211   4.912  0.1341 -0.4818 -0.7417
   57SAPC  H13R 4214   3.153   5.239   4.880 -0.1559  1.5677  0.0049
   57SAPC  H13S 4215   2.991   5.305   4.905 -0.7774 -0.9552  0.4799
   57SAPC  C214 4216   2.985   5.104   4.823  0.0582 -0.1630 -0.5130
   57SAPC  H14R 4217   2.998   5.002   4.862 -1.4179 -0.6857 -1.3210
   57SAPC  C215 4218   2.910   5.126   4.713  0.2604  0.4938 -0.3658
   57SAPC  H15R 4219   2.864   5.041   4.661 -0.1470  1.3720 -1.4684
   57SAPC  C216 4220   2.886   5.264   4.635 -0.2986  0.0368 -0.3300
   57SAPC  H16R 4221   2.921   5.355   4.688 -0.5618 -0.1183  0.1172
   57SAPC  H16S 4222   2.777   5.284   4.626 -0.0657  2.9174  1.8202
   57SAPC  C217 4223   2.943   5.266   4.499  0.6377  0.2701  0.7075
   57SAPC  H17R 4224   2.934   5.369   4.456  0.8144 -0.7258 -1.8922
   57SAPC  H17S 4225   2.894   5.190   4.434  3.0014 -0.6476 -0.1003
   57SAPC  C218 4226   3.097   5.244   4.491  0.1068 -0.5036 -0.4127
   57SAPC  H18R 4227   3.124   5.178   4.406  0.5858 -0.6047 -0.1794
   57SAPC  H18S 4228   3.129   5.180   4.575  2.4200  0.5979 -0.3958
   57SAPC  C219 4229   3.178   5.368   4.507  0.1466 -0.1151 -0.8297
   57SAPC  H19R 4230   3.146   5.404   4.606 -2.5258 -2.9942 -0.5163
   57SAPC  H19S 4231   3.160   5.452   4.435 -0.3711 -1.6971 -2.6414
   57SAPC  C220 4232   3.329   5.353   4.505  0.1449 -0.1656 -0.4211
   57SAPC  H20R 4233   3.375   5.273   4.567 -0.1484 -0.8731 -1.1001
   57SAPC  H20S 4234   3.379   5.449   4.529  0.1700 -0.4252  0.6378
   57SAPC  H20T 4235   3.354   5.314   4.404 -1.9884 -1.6940 -0.4352
   57SAPC   C33 4236   2.624   5.326   5.000 -0.0325  0.1631  0.3304
   57SAPC   H3X 4237   2.528   5.270   4.999  0.6119 -0.9811  0.4490
   57SAPC   H3Y 4238   2.702   5.251   4.976  0.8133  0.7977  1.0089
   57SAPC   C34 4239   2.590   5.415   4.882  0.0109 -0.1980 -0.0204
   57SAPC   H4X 4240   2.508   5.483   4.912  0.1629  0.3176 -0.7404
   57SAPC   H4Y 4241   2.553   5.358   4.794 -4.7968  0.8270  1.0966
   57SAPC   C35 4242   2.695   5.512   4.843 -0.1542 -0.1282 -0.4627
   57SAPC   H5X 4243   2.787   5.454   4.820  1.1933  1.7831 -0.1601
   57SAPC   H5Y 4244   2.719   5.589   4.919  2.5396 -0.4222 -0.8952
   57SAPC   C36 4245   2.650   5.591   4.720  0.1903 -0.4615 -0.3370
   57SAPC   H6X 4246   2.558   5.649   4.745 -0.4435 -1.5316 -0.1253
   57SAPC   H6Y 4247   2.623   5.512   4.646 -0.7859 -0.5656  0.1123
   57SAPC   C37 4248   2.764   5.679   4.665 -0.4077 -0.1093 -0.7642
   57SAPC   H7X 4249   2.860   5.624   4.660  0.0919  0.7730 -0.9182
   57SAPC   H7Y 4250   2.772   5.764   4.736 -3.1791 -0.9041  0.6783
   57SAPC   C38 4251   2.725   5.725   4.525  0.2940  0.2930 -0.2876
   57SAPC   H8X 4252   2.796   5.805   4.494  3.2728 -1.1645  2.1569
   57SAPC   H8Y 4253   2.626   5.775   4.532 -1.0133 -1.5525 -3.4925
   57SAPC   C39 4254   2.728   5.616   4.422 -0.5725  0.7912  0.6340
   57SAPC   H9X 4255   2.650   5.539   4.442  0.6754 -0.4013  1.0715
   57SAPC   H9Y 4256   2.823   5.560   4.434 -0.2789  0.9663 -0.7461
   57SAPC  C310 4257   2.729   5.664   4.275  0.8554 -0.1447 -0.2176
   57SAPC  H10X 4258   2.819   5.723   4.247 -0.0010  1.3444  0.0493
   57SAPC  H10Y 4259   2.631   5.716   4.271  0.2951 -1.1562 -0.0070
   57SAPC  C311 4260   2.718   5.544   4.180 -0.4722 -0.0874  0.2746
   57SAPC  H11X 4261   2.658   5.568   4.090 -1.9395  0.9009  1.4480
   57SAPC  H11Y 4262   2.655   5.464   4.225  0.0505 -0.5264  0.2367
   57SAPC  C312 4263   2.853   5.484   4.136  0.6866 -0.0338  0.2356
   57SAPC  H12X 4264   2.899   5.434   4.224  1.4842  1.8499  0.9437
   57SAPC  H12Y 4265   2.914   5.572   4.106  1.1573 -0.5827 -0.4836
   57SAPC  C313 4266   2.839   5.379   4.023 -0.1529  0.8420  0.5790
   57SAPC  H13X 4267   2.922   5.387   3.949  0.6129 -1.3183  1.1278
   57SAPC  H13Y 4268   2.739   5.409   3.986 -0.6140 -1.3052 -0.0618
   57SAPC  C314 4269   2.825   5.225   4.076  0.1514 -0.0058 -0.0361
   57SAPC  H14X 4270   2.831   5.218   4.187  2.6962  1.4874 -0.0083
   57SAPC  H14Y 4271   2.899   5.159   4.026 -1.2448 -1.9370  0.3180
   57SAPC  C315 4272   2.692   5.163   4.033 -0.1262 -0.0961  0.3812
   57SAPC  H15X 4273   2.677   5.173   3.923 -0.2494  1.4219  0.5104
   57SAPC  H15Y 4274   2.607   5.210   4.087  0.3233  1.0507  0.1217
   57SAPC  C316 4275   2.699   5.013   4.058  0.2451  0.0858 -0.2602
   57SAPC  H16X 4276   2.718   4.991   4.166 -0.5235 -1.8343 -0.4752
   57SAPC  H16Y 4277   2.792   4.979   4.007 -0.6556  0.0549 -1.9203
   57SAPC  C317 4278   2.580   4.933   4.016 -0.2682  0.3451 -0.6384
   57SAPC  H17X 4279   2.570   4.952   3.907  0.9954  2.8163 -0.3931
   57SAPC  H17Y 4280   2.489   4.973   4.065  1.1686  4.0017 -0.6553
   57SAPC  C318 4281   2.601   4.779   4.040 -0.6164 -1.0957 -0.2223
   57SAPC  H18X 4282   2.508   4.724   4.014 -2.4987  1.7700  0.0339
   57SAPC  H18Y 4283   2.618   4.759   4.148  2.0162 -0.4723 -0.4518
   57SAPC  H18Z 4284   2.695   4.744   3.993 -0.8033 -0.0281 -1.4295
   58SAPC     N 4285   5.280   0.002   6.691 -0.3469 -0.0423  0.2384
   58SAPC   C12 4286   5.323   0.094   6.579  0.5003 -0.3497  0.2133
   58SAPC  H12A 4287   5.357   0.190   6.613  1.0505 -0.9467  1.4220
   58SAPC  H12B 4288   5.237   0.123   6.522  0.5115  2.3049  1.4118
   58SAPC   C13 4289   5.196   0.077   6.791 -0.2081 -0.7157  0.0817
   58SAPC  H13A 4290   5.251   0.155   6.841 -0.0414 -1.2316  0.6970
   58SAPC  H13B 4291   5.109   0.123   6.745 -1.6205 -2.1440  1.2231
   58SAPC  H13C 4292   5.166   0.016   6.874 -0.8112  0.3640  0.6882
   58SAPC   C14 4293   5.189  -0.108   6.638  0.5829  0.0369  0.5985
   58SAPC  H14A 4294   5.090  -0.074   6.611  0.3052 -1.8370 -0.9733
   58SAPC  H14B 4295   5.223  -0.142   6.542  1.7258  0.4238  0.8471
   58SAPC  H14C 4296   5.183  -0.194   6.703  3.2898 -0.3929  0.3595
   58SAPC   C15 4297   5.403  -0.052   6.754  0.6939 -0.0621 -0.1853
   58SAPC  H15A 4298   5.372  -0.127   6.826  0.0634 -2.3660 -2.6872
   58SAPC  H15B 4299   5.465  -0.097   6.678  0.4035 -0.8051  0.0032
   58SAPC  H15C 4300   5.459   0.030   6.795 -1.7924  0.2850  2.8679
   58SAPC   C11 4301   5.432   0.048   6.482  0.2109 -0.3762  0.2300
   58SAPC  H11A 4302   5.507  -0.019   6.530 -2.1143 -3.3374  0.0117
   58SAPC  H11B 4303   5.469   0.143   6.437  0.0125  0.5233  1.9061
   58SAPC     P 4304   5.279   0.019   6.272 -0.0742 -0.2348 -0.2670
   58SAPC   O13 4305   5.247  -0.096   6.181  0.0615 -0.7859 -0.4241
   58SAPC   O14 4306   5.159   0.088   6.332 -0.0848  0.3641 -0.2303
   58SAPC   O12 4307   5.369  -0.041   6.380 -0.0211  0.2054 -0.0518
   58SAPC   O11 4308   5.370   0.122   6.199  0.2681 -0.1505  0.0504
   58SAPC    C1 4309   5.494   0.090   6.140  0.2116  0.3796 -0.8853
   58SAPC    HA 4310   5.561   0.164   6.189 -0.0965  1.1051 -1.5453
   58SAPC    HB 4311   5.537  -0.009   6.164 -2.6358 -0.6750  0.3260
   58SAPC    C2 4312   5.488   0.093   5.985 -0.1170 -1.1831 -0.4173
   58SAPC    HS 4313   5.592   0.091   5.946 -0.2048  2.7959 -1.3531
   58SAPC   O21 4314   5.440   0.228   5.958  0.2953  0.1916 -0.0330
   58SAPC   C21 4315   5.472   0.281   5.841 -0.0971 -0.5717 -0.1062
   58SAPC   O22 4316   5.567   0.256   5.774 -0.2414  0.0447 -0.1379
   58SAPC   C22 4317   5.366   0.381   5.811  0.2669  0.0248 -0.2707
   58SAPC   H2R 4318   5.275   0.325   5.781 -0.7997  0.8438  1.2616
   58SAPC   H2S 4319   5.363   0.443   5.903  2.9460 -0.2674  0.0970
   58SAPC    C3 4320   5.409  -0.024   5.916  0.1458 -0.4480 -0.2478
   58SAPC    HX 4321   5.306  -0.033   5.959 -0.4060  1.6888 -1.0147
   58SAPC    HY 4322   5.446  -0.124   5.947  5.0865  1.0646 -0.4562
   58SAPC   O31 4323   5.403  -0.011   5.772 -0.3716  0.6437  0.5109
   58SAPC   C31 4324   5.509  -0.059   5.709  0.6464  0.0168  0.1314
   58SAPC   O32 4325   5.610  -0.107   5.764 -0.5159 -0.0640 -0.0381
   58SAPC   C32 4326   5.497  -0.040   5.560 -0.3125 -0.8969 -0.2005
   58SAPC   H2X 4327   5.397   0.001   5.535 -0.3053 -0.4247  0.5055
   58SAPC   H2Y 4328   5.505  -0.135   5.503  2.7919 -0.7157 -0.2391
   58SAPC   C23 4329   5.422   0.475   5.702 -0.0405 -0.1449  0.5754
   58SAPC   H3R 4330   5.528   0.500   5.720  0.0501  0.0558 -0.2186
   58SAPC   H3S 4331   5.361   0.567   5.714  0.9975  0.7701 -0.8845
   58SAPC   C24 4332   5.400   0.413   5.567  0.2362 -0.0786  0.3619
   58SAPC   H4R 4333   5.298   0.370   5.571 -0.6391  1.9028  3.6106
   58SAPC   H4S 4334   5.465   0.329   5.538  0.8107  0.9624 -1.4920
   58SAPC   C25 4335   5.396   0.518   5.460 -0.4409  0.3624 -0.2970
   58SAPC   H5R 4336   5.464   0.603   5.479  0.6027 -0.7549  1.2021
   58SAPC   C26 4337   5.355   0.498   5.337 -0.2709 -0.3186  0.4362
   58SAPC   H6R 4338   5.360   0.584   5.269 -1.0293 -0.3717  0.3094
   58SAPC   C27 4339   5.289   0.376   5.276  0.2259 -0.3631  0.1795
   58SAPC   H7R 4340   5.241   0.317   5.356 -2.6496 -0.6571 -1.5931
   58SAPC   H7S 4341   5.367   0.305   5.241 -1.4483 -1.7088 -1.0031
   58SAPC   C28 4342   5.194   0.410   5.162 -0.4286 -0.0615  0.6069
   58SAPC   H8R 4343   5.089   0.400   5.194  0.2036 -0.1651  2.7413
   58SAPC   C29 4344   5.233   0.441   5.036  0.4810  0.1511  0.1727
   58SAPC   H9R 4345   5.151   0.457   4.965 -1.2151 -0.6389  1.8662
   58SAPC  C210 4346   5.379   0.442   4.983  0.0245 -0.4898 -0.3390
   58SAPC  H10R 4347   5.448   0.431   5.069 -1.5799 -2.1440  0.7930
   58SAPC  H10S 4348   5.401   0.532   4.921  1.1534 -1.6340 -1.6377
   58SAPC  C211 4349   5.403   0.333   4.891  0.1092  0.5015 -0.6165
   58SAPC  H11R 4350   5.440   0.238   4.933 -3.8011 -0.4866  0.9931
   58SAPC  C212 4351   5.372   0.327   4.760 -0.6146  0.2095 -0.0609
   58SAPC  H12R 4352   5.401   0.233   4.710 -0.5859  1.3718 -2.3639
   58SAPC  C213 4353   5.316   0.440   4.674  0.7900  0.2180 -0.2357
   58SAPC  H13R 4354   5.382   0.458   4.587  0.3195 -0.4357 -0.7380
   58SAPC  H13S 4355   5.314   0.535   4.733 -0.5992 -0.5136  0.9738
   58SAPC  C214 4356   5.175   0.410   4.625 -0.0569  0.4988  0.6943
   58SAPC  H14R 4357   5.105   0.349   4.683 -1.7248  1.1582 -0.5426
   58SAPC  C215 4358   5.131   0.436   4.500  0.8148  0.4104 -0.1328
   58SAPC  H15R 4359   5.033   0.390   4.484  0.3194  0.7732  1.6520
   58SAPC  C216 4360   5.205   0.503   4.382  0.4590  0.1500  0.2484
   58SAPC  H16R 4361   5.186   0.445   4.289 -1.3817  1.7538 -0.4370
   58SAPC  H16S 4362   5.315   0.511   4.399  1.5648  1.1638 -5.3773
   58SAPC  C217 4363   5.139   0.629   4.348 -0.0525 -0.1466  0.1647
   58SAPC  H17R 4364   5.189   0.673   4.260 -1.1510 -0.0912 -0.4584
   58SAPC  H17S 4365   5.176   0.698   4.426  1.5923 -0.1135 -0.5961
   58SAPC  C218 4366   4.983   0.624   4.331 -0.5542 -0.2184 -0.2434
   58SAPC  H18R 4367   4.943   0.592   4.429 -0.4076  1.3418  0.3500
   58SAPC  H18S 4368   4.953   0.548   4.255  0.9545  0.7643 -1.9118
   58SAPC  C219 4369   4.926   0.755   4.281  0.0495  0.4617  0.0879
   58SAPC  H19R 4370   4.962   0.840   4.343  0.2059  0.4413  0.0264
   58SAPC  H19S 4371   4.817   0.758   4.297  0.0234  3.4220  0.0200
   58SAPC  C220 4372   4.954   0.791   4.134 -0.1717  0.1957  0.2963
   58SAPC  H20R 4373   4.911   0.710   4.071 -0.0169  0.8595 -0.6788
   58SAPC  H20S 4374   5.064   0.791   4.118 -0.2520  0.6101 -0.2814
   58SAPC  H20T 4375   4.912   0.890   4.107  0.0836 -0.0022 -0.8921
   58SAPC   C33 4376   5.610   0.049   5.498  0.2417  0.5677 -0.2122
   58SAPC   H3X 4377   5.706  -0.006   5.486 -0.1408 -0.1282 -0.1245
   58SAPC   H3Y 4378   5.632   0.143   5.553  1.9895  0.8250 -1.2624
   58SAPC   C34 4379   5.562   0.115   5.367  0.3764  0.0783  0.2722
   58SAPC   H4X 4380   5.623   0.205   5.346  0.4664  0.1245  0.7192
   58SAPC   H4Y 4381   5.461   0.162   5.370  0.2894  0.0195 -1.0808
   58SAPC   C35 4382   5.570   0.020   5.250  0.3372  0.2638  0.4290
   58SAPC   H5X 4383   5.527   0.069   5.161  1.0806  1.6297  0.8045
   58SAPC   H5Y 4384   5.504  -0.068   5.267  0.1101  0.6508  1.7265
   58SAPC   C36 4385   5.719  -0.018   5.223 -0.2436 -0.5503 -0.0323
   58SAPC   H6X 4386   5.733  -0.128   5.217  0.1429 -0.4336 -4.6276
   58SAPC   H6Y 4387   5.788   0.017   5.302 -1.9863  1.8205  0.5425
   58SAPC   C37 4388   5.768   0.049   5.091  0.0313 -0.7549 -0.1983
   58SAPC   H7X 4389   5.876   0.022   5.097  0.5983  0.9705 -1.8434
   58SAPC   H7Y 4390   5.759   0.159   5.096  1.0377 -0.5748 -1.7693
   58SAPC   C38 4391   5.705  -0.013   4.970 -0.4178  0.4062 -0.4340
   58SAPC   H8X 4392   5.596  -0.000   4.989 -0.7096  0.2051 -1.8511
   58SAPC   H8Y 4393   5.715  -0.123   4.960 -1.7221  0.3604 -1.5329
   58SAPC   C39 4394   5.733   0.068   4.842  0.1137 -0.3129  0.7571
   58SAPC   H9X 4395   5.837   0.107   4.833 -0.4841  0.8588 -2.0068
   58SAPC   H9Y 4396   5.659   0.150   4.838 -0.9619 -1.3238 -1.4658
   58SAPC  C310 4397   5.696  -0.006   4.717  0.5658  0.2708 -0.3388
   58SAPC  H10X 4398   5.596  -0.053   4.731  1.2184 -1.4548 -1.2867
   58SAPC  H10Y 4399   5.768  -0.089   4.699  1.1314  0.8624 -0.8725
   58SAPC  C311 4400   5.667   0.091   4.605 -0.0260  0.0542  0.1978
   58SAPC  H11X 4401   5.764   0.133   4.573  1.0502  0.8322  3.9312
   58SAPC  H11Y 4402   5.600   0.174   4.637 -2.3838 -0.0631 -3.7967
   58SAPC  C312 4403   5.602   0.024   4.485 -0.1904 -0.0391 -0.7359
   58SAPC  H12X 4404   5.510  -0.024   4.523  0.0309  0.4634  0.4676
   58SAPC  H12Y 4405   5.677  -0.045   4.440 -0.7746  0.6258 -2.8239
   58SAPC  C313 4406   5.568   0.131   4.380  1.0090 -0.7672 -0.3448
   58SAPC  H13X 4407   5.668   0.176   4.359  1.0126  0.6673  2.3038
   58SAPC  H13Y 4408   5.527   0.219   4.434  1.5207  0.3670 -1.7416
   58SAPC  C314 4409   5.487   0.082   4.266 -0.2326  0.5815  0.2832
   58SAPC  H14X 4410   5.419   0.001   4.301  1.3281 -1.4692 -1.1484
   58SAPC  H14Y 4411   5.549   0.037   4.186  1.2973  1.3417  1.0075
   58SAPC  C315 4412   5.385   0.173   4.209  0.6261 -0.3761 -0.1614
   58SAPC  H15X 4413   5.431   0.260   4.157 -1.3322  1.0319  0.3281
   58SAPC  H15Y 4414   5.314   0.224   4.277 -2.8894  0.8292 -4.2652
   58SAPC  C316 4415   5.294   0.104   4.109  0.0775  1.5315 -0.2623
   58SAPC  H16X 4416   5.210   0.056   4.164  0.6875  0.7432 -0.0045
   58SAPC  H16Y 4417   5.361   0.023   4.071 -0.4881  1.4559 -1.1426
   58SAPC  C317 4418   5.238   0.183   3.987 -0.3635 -0.4073  0.2379
   58SAPC  H17X 4419   5.179   0.125   3.912 -0.5128  1.6732 -1.3463
   58SAPC  H17Y 4420   5.326   0.226   3.935 -0.1050 -2.2500 -0.9396
   58SAPC  C318 4421   5.162   0.307   4.026  0.3886  0.2991  0.0320
   58SAPC  H18X 4422   5.106   0.357   3.944  3.4111  1.1209 -1.6670
   58SAPC  H18Y 4423   5.230   0.385   4.067  1.3370  0.1659 -1.2358
   58SAPC  H18Z 4424   5.102   0.288   4.118  1.0878 -0.7383  0.2909
   59SAPC     N 4425   4.182   2.454   6.472 -0.1226 -0.3714 -0.2392
   59SAPC   C12 4426   4.235   2.515   6.349  0.2296  0.2044 -0.3795
   59SAPC  H12A 4427   4.333   2.470   6.336  1.3343  2.6564 -0.9680
   59SAPC  H12B 4428   4.264   2.616   6.374 -2.2792  1.0809 -0.7625
   59SAPC   C13 4429   4.284   2.457   6.583  0.6399 -0.2240 -0.0934
   59SAPC  H13A 4430   4.327   2.557   6.582 -1.9679  0.9699 -0.1096
   59SAPC  H13B 4431   4.229   2.435   6.673  1.1751 -0.2739  0.2279
   59SAPC  H13C 4432   4.356   2.379   6.563  0.2629 -0.1887 -1.6539
   59SAPC   C14 4433   4.054   2.517   6.521 -0.1327 -0.1196  0.3919
   59SAPC  H14A 4434   4.002   2.472   6.605  0.4697  1.0547  1.4333
   59SAPC  H14B 4435   4.075   2.617   6.556 -1.7800  0.3718  0.0755
   59SAPC  H14C 4436   3.996   2.530   6.432  1.5468 -0.1578 -0.7579
   59SAPC   C15 4437   4.160   2.312   6.446 -0.5318  0.1279  0.4524
   59SAPC  H15A 4438   4.234   2.273   6.378 -0.4195 -1.3007  1.3586
   59SAPC  H15B 4439   4.141   2.251   6.534  0.4724  1.4134  1.6093
   59SAPC  H15C 4440   4.065   2.296   6.398 -1.7817  1.5877  2.2923
   59SAPC   C11 4441   4.151   2.516   6.222 -0.5404 -0.0590 -0.0812
   59SAPC  H11A 4442   4.206   2.566   6.139 -3.8577  0.6958 -2.0201
   59SAPC  H11B 4443   4.059   2.574   6.239 -0.6797 -0.8089  1.9176
   59SAPC     P 4444   4.213   2.300   6.085 -0.1387  0.2021 -0.0587
   59SAPC   O13 4445   4.351   2.362   6.085  0.6579 -0.6826  0.2939
   59SAPC   O14 4446   4.208   2.156   6.117  0.1408  0.3729  0.0924
   59SAPC   O12 4447   4.111   2.381   6.181 -0.6079 -0.1806 -0.3736
   59SAPC   O11 4448   4.152   2.319   5.942 -0.0359 -0.2797 -0.0642
   59SAPC    C1 4449   4.013   2.300   5.919  0.0902  0.0471  0.5412
   59SAPC    HA 4450   3.954   2.240   5.992 -0.9076  1.0105  0.5524
   59SAPC    HB 4451   3.956   2.395   5.917  0.4280  0.2609  0.9331
   59SAPC    C2 4452   3.982   2.249   5.778  0.0950  0.7354  0.3250
   59SAPC    HS 4453   3.872   2.232   5.772  0.3305 -1.8398  1.9598
   59SAPC   O21 4454   4.059   2.129   5.751  0.0370 -0.5040 -0.2105
   59SAPC   C21 4455   4.034   2.026   5.823  0.6382  0.2326  0.6139
   59SAPC   O22 4456   3.935   2.020   5.895 -0.4455 -0.1699 -0.2765
   59SAPC   C22 4457   4.139   1.918   5.807 -0.1235  0.3056 -1.0647
   59SAPC   H2R 4458   4.210   1.934   5.891 -1.7439  0.0823  0.4043
   59SAPC   H2S 4459   4.073   1.831   5.828  0.2878  0.4941  1.1984
   59SAPC    C3 4460   4.019   2.348   5.663 -0.1609 -0.2985 -0.8306
   59SAPC    HX 4461   4.119   2.390   5.686 -0.0347 -0.5681 -0.8828
   59SAPC    HY 4462   3.939   2.424   5.679 -0.5965 -1.2443  2.0847
   59SAPC   O31 4463   4.000   2.297   5.532 -0.2808  0.4047  0.9271
   59SAPC   C31 4464   4.109   2.255   5.469 -0.5199  0.4525  0.4020
   59SAPC   O32 4465   4.228   2.257   5.509 -0.0407 -0.3584  0.1695
   59SAPC   C32 4466   4.062   2.200   5.328  0.5576  0.5661 -0.0501
   59SAPC   H2X 4467   4.001   2.278   5.279 -0.8780  0.4492  1.4428
   59SAPC   H2Y 4468   3.989   2.118   5.345 -0.1795  0.9321 -1.3498
   59SAPC   C23 4469   4.211   1.919   5.663  0.7124  0.2441 -0.3635
   59SAPC   H3R 4470   4.311   1.872   5.673  0.5426 -0.3686 -1.4469
   59SAPC   H3S 4471   4.220   2.025   5.633  4.2201 -0.0201 -0.6360
   59SAPC   C24 4472   4.120   1.848   5.560  0.2143 -0.2065  0.1233
   59SAPC   H4R 4473   4.113   1.741   5.588 -2.3753  0.2485  1.4544
   59SAPC   H4S 4474   4.173   1.848   5.462 -1.2350 -1.0242 -0.6949
   59SAPC   C25 4475   3.972   1.890   5.549  0.2514 -0.6074  0.2860
   59SAPC   H5R 4476   3.955   1.989   5.504 -1.7680 -0.4980  1.1710
   59SAPC   C26 4477   3.866   1.816   5.577 -0.0415 -0.1371  0.3005
   59SAPC   H6R 4478   3.766   1.859   5.564  0.3428  0.3708 -1.2308
   59SAPC   C27 4479   3.857   1.683   5.639 -0.6453 -0.7684 -0.5831
   59SAPC   H7R 4480   3.848   1.694   5.749 -0.0766 -1.7284 -0.4241
   59SAPC   H7S 4481   3.948   1.621   5.627  0.9960  0.6007  3.1766
   59SAPC   C28 4482   3.733   1.624   5.584  0.3408 -0.0014 -0.6894
   59SAPC   H8R 4483   3.642   1.627   5.646  0.3349 -1.9174 -0.5667
   59SAPC   C29 4484   3.722   1.555   5.465 -0.3656 -0.2351 -0.1044
   59SAPC   H9R 4485   3.626   1.512   5.433  0.1288 -1.0563 -0.5175
   59SAPC  C210 4486   3.833   1.516   5.371  0.2793 -0.4713 -0.6815
   59SAPC  H10R 4487   3.873   1.420   5.410 -2.1429 -1.4503 -0.5034
   59SAPC  H10S 4488   3.920   1.586   5.380  0.3732 -0.6016 -0.5754
   59SAPC  C211 4489   3.794   1.507   5.219  0.1109 -0.0525  0.0053
   59SAPC  H11R 4490   3.724   1.429   5.187 -0.0784  0.2641 -0.3594
   59SAPC  C212 4491   3.832   1.589   5.118 -0.3101  0.7407 -0.3917
   59SAPC  H12R 4492   3.789   1.577   5.017 -2.0344 -0.5513  0.4534
   59SAPC  C213 4493   3.921   1.712   5.129 -0.2932  0.6181 -0.0993
   59SAPC  H13R 4494   3.982   1.706   5.222 -0.3947 -2.0380 -0.1478
   59SAPC  H13S 4495   3.865   1.808   5.125 -1.5091 -0.0433  0.4618
   59SAPC  C214 4496   4.011   1.713   5.009  0.0470 -0.3635 -1.0398
   59SAPC  H14R 4497   3.977   1.785   4.934 -1.4221  0.3221  0.2011
   59SAPC  C215 4498   4.121   1.637   4.987  0.3583 -0.3173  0.6676
   59SAPC  H15R 4499   4.178   1.652   4.894 -1.8171  0.1673 -0.6496
   59SAPC  C216 4500   4.175   1.536   5.087 -0.7548 -0.0547  0.3749
   59SAPC  H16R 4501   4.219   1.442   5.045 -1.9741  0.2516 -1.7756
   59SAPC  H16S 4502   4.093   1.513   5.159 -0.7697  0.4404  0.5170
   59SAPC  C217 4503   4.301   1.578   5.180 -0.4304  0.4361  0.6204
   59SAPC  H17R 4504   4.284   1.671   5.237  2.9512 -1.0354  4.5036
   59SAPC  H17S 4505   4.398   1.581   5.126 -0.6874  1.0374  0.1771
   59SAPC  C218 4506   4.311   1.471   5.290  0.4009  0.1116  0.6840
   59SAPC  H18R 4507   4.263   1.381   5.246 -0.4579  1.0748 -0.4331
   59SAPC  H18S 4508   4.250   1.495   5.380 -0.1682  0.9284  0.0967
   59SAPC  C219 4509   4.452   1.443   5.348  0.4579  0.5974 -1.2587
   59SAPC  H19R 4510   4.518   1.385   5.280  0.6100 -0.9525  0.1572
   59SAPC  H19S 4511   4.443   1.369   5.430 -1.1196  0.5848 -1.4155
   59SAPC  C220 4512   4.517   1.568   5.407  0.6107 -0.1590 -0.4897
   59SAPC  H20R 4513   4.600   1.536   5.474 -1.0813 -1.2732  1.2127
   59SAPC  H20S 4514   4.438   1.620   5.466 -1.5663 -1.5896 -1.9527
   59SAPC  H20T 4515   4.543   1.633   5.322 -0.1463  0.4258 -0.2838
   59SAPC   C33 4516   4.177   2.166   5.223 -0.0131 -0.1998 -0.2603
   59SAPC   H3X 4517   4.240   2.257   5.236 -1.0726  0.4122  0.8099
   59SAPC   H3Y 4518   4.119   2.169   5.128 -1.0566  2.9315  0.3411
   59SAPC   C34 4519   4.232   2.023   5.256 -0.2482 -0.1352 -0.3812
   59SAPC   H4X 4520   4.163   1.948   5.212 -0.8689 -0.1221  0.5417
   59SAPC   H4Y 4521   4.243   2.011   5.365 -0.4433  2.0290 -0.0845
   59SAPC   C35 4522   4.369   2.008   5.199  0.4840  0.1285  0.0086
   59SAPC   H5X 4523   4.406   1.922   5.258 -1.5796  1.8466  4.1996
   59SAPC   H5Y 4524   4.441   2.089   5.224  0.1501  0.6264 -0.6073
   59SAPC   C36 4525   4.372   1.984   5.048  0.5624 -0.5454  0.6208
   59SAPC   H6X 4526   4.331   2.074   4.997  0.6440  0.2211  1.8806
   59SAPC   H6Y 4527   4.312   1.896   5.018  1.4746 -1.1051  0.3895
   59SAPC   C37 4528   4.511   1.953   4.995  0.0680  0.1915  0.0488
   59SAPC   H7X 4529   4.517   1.951   4.884 -1.4122 -1.7327 -0.0455
   59SAPC   H7Y 4530   4.534   1.847   5.019  0.7347  0.1811 -0.6224
   59SAPC   C38 4531   4.631   2.034   5.046 -0.4200 -0.5306  0.2206
   59SAPC   H8X 4532   4.650   2.009   5.153 -1.7816 -0.6741  0.4437
   59SAPC   H8Y 4533   4.622   2.144   5.054  1.1735 -0.3533 -0.0294
   59SAPC   C39 4534   4.751   2.000   4.964  0.6895  0.3187  0.9106
   59SAPC   H9X 4535   4.741   2.031   4.858  2.0099  0.8290  0.9201
   59SAPC   H9Y 4536   4.761   1.889   4.965  0.3990  0.2884  0.6672
   59SAPC  C310 4537   4.891   2.054   5.007 -0.0801 -0.0508 -0.6790
   59SAPC  H10X 4538   4.908   2.029   5.114  2.1727  0.1645 -0.9373
   59SAPC  H10Y 4539   4.885   2.165   4.995  0.2238 -0.0443 -0.7683
   59SAPC  C311 4540   5.010   1.990   4.921  0.1704 -0.0094 -0.0128
   59SAPC  H11X 4541   4.994   2.018   4.815  2.3329 -0.3606 -0.4613
   59SAPC  H11Y 4542   4.999   1.880   4.931 -0.6848  0.2545  2.8767
   59SAPC  C312 4543   5.146   2.047   4.958 -0.3882 -1.0800 -0.0937
   59SAPC  H12X 4544   5.153   2.157   4.943 -1.8906 -0.9618 -0.0571
   59SAPC  H12Y 4545   5.222   2.007   4.887 -0.0794 -0.5569 -0.0610
   59SAPC  C313 4546   5.182   2.017   5.103  0.4440 -0.3432 -0.2900
   59SAPC  H13X 4547   5.133   1.922   5.135 -2.0076  0.6127 -0.9827
   59SAPC  H13Y 4548   5.143   2.096   5.170  1.6644  0.2116 -0.2173
   59SAPC  C314 4549   5.337   2.006   5.135  0.0112  0.0493  0.2864
   59SAPC  H14X 4550   5.389   2.103   5.120 -0.3184  0.1452 -0.2504
   59SAPC  H14Y 4551   5.383   1.932   5.067 -0.6959 -1.5085  1.4287
   59SAPC  C315 4552   5.359   1.979   5.286 -0.4568  0.0809  0.1648
   59SAPC  H15X 4553   5.316   1.884   5.323  1.3166 -1.7608 -2.1658
   59SAPC  H15Y 4554   5.323   2.068   5.343 -2.6938 -0.4969 -0.2523
   59SAPC  C316 4555   5.507   1.968   5.323  1.1317 -1.1128 -0.3816
   59SAPC  H16X 4556   5.566   2.029   5.251 -1.1805  2.5250  0.5332
   59SAPC  H16Y 4557   5.523   1.858   5.328 -2.7819 -1.8434 -1.3182
   59SAPC  C317 4558   5.547   2.014   5.466 -0.0462 -0.2291  0.4163
   59SAPC  H17X 4559   5.495   2.108   5.496  0.7078  0.2428  0.2618
   59SAPC  H17Y 4560   5.655   2.037   5.453 -0.2020 -0.0502 -0.7059
   59SAPC  C318 4561   5.542   1.904   5.573 -0.0944  0.5211 -0.7366
   59SAPC  H18X 4562   5.554   1.938   5.678 -2.8178 -0.5020 -0.0029
   59SAPC  H18Y 4563   5.623   1.829   5.562 -0.3829  0.1722 -0.5042
   59SAPC  H18Z 4564   5.444   1.853   5.570  0.2369 -0.3392  1.3116
   60SAPC     N 4565   5.796   3.154   6.661  0.1803  0.1025  0.5402
   60SAPC   C12 4566   5.689   3.048   6.693  0.8055  0.4379  0.3056
   60SAPC  H12A 4567   5.591   3.093   6.704  0.0047 -1.3933  0.9256
   60SAPC  H12B 4568   5.714   2.986   6.778  0.0392  0.0829  0.2815
   60SAPC   C13 4569   5.924   3.081   6.655 -0.1049 -0.0840  0.0781
   60SAPC  H13A 4570   6.003   3.130   6.599 -1.3228 -0.0170 -1.6755
   60SAPC  H13B 4571   5.960   3.049   6.751 -0.2318  0.8553  0.4481
   60SAPC  H13C 4572   5.896   2.986   6.612  0.8822  0.1571 -1.1563
   60SAPC   C14 4573   5.777   3.226   6.529 -0.2876 -0.0532 -0.1763
   60SAPC  H14A 4574   5.690   3.291   6.524  1.1423  2.2277  2.2721
   60SAPC  H14B 4575   5.867   3.281   6.511 -0.9689  0.8318 -1.0190
   60SAPC  H14C 4576   5.788   3.149   6.453  1.5211  1.8348 -1.9421
   60SAPC   C15 4577   5.798   3.247   6.776  0.2504  0.1935  0.4953
   60SAPC  H15A 4578   5.879   3.318   6.771  1.1667 -0.5727  3.2009
   60SAPC  H15B 4579   5.700   3.292   6.785 -0.6736 -1.5306 -0.3794
   60SAPC  H15C 4580   5.806   3.188   6.866  0.1974  0.0531  0.4095
   60SAPC   C11 4581   5.667   2.947   6.576 -0.5325  0.0195  0.6148
   60SAPC  H11A 4582   5.617   3.000   6.493  0.7965  0.3553  0.0156
   60SAPC  H11B 4583   5.580   2.885   6.607 -0.9452 -0.7075 -1.7703
   60SAPC     P 4584   5.830   2.871   6.388 -0.1487 -0.1386 -0.2345
   60SAPC   O13 4585   5.775   2.986   6.315 -0.2889 -0.2840 -0.8099
   60SAPC   O14 4586   5.980   2.857   6.391  0.9737  0.4586 -0.0161
   60SAPC   O12 4587   5.782   2.870   6.534  0.0356 -0.0948 -0.5777
   60SAPC   O11 4588   5.772   2.735   6.342  0.2013 -0.5266  0.0284
   60SAPC    C1 4589   5.633   2.724   6.293  0.5263 -0.3585  0.0866
   60SAPC    HA 4590   5.572   2.678   6.374  0.0291  0.6442  0.2898
   60SAPC    HB 4591   5.589   2.825   6.282  2.3040  0.5410  0.9273
   60SAPC    C2 4592   5.630   2.647   6.158 -0.3753 -0.4179 -0.0533
   60SAPC    HS 4593   5.672   2.545   6.177  0.7112  0.1517  0.7464
   60SAPC   O21 4594   5.714   2.713   6.064  0.3255  0.0278  0.3907
   60SAPC   C21 4595   5.837   2.672   6.047 -0.4869 -0.6199  0.1699
   60SAPC   O22 4596   5.898   2.592   6.113  0.5284 -0.1103  0.4689
   60SAPC   C22 4597   5.907   2.740   5.927  0.5676  0.0564 -0.6731
   60SAPC   H2R 4598   5.826   2.785   5.866 -1.4480 -1.3843  0.8439
   60SAPC   H2S 4599   5.971   2.824   5.963  0.1182  0.4236 -0.7227
   60SAPC    C3 4600   5.481   2.629   6.110  0.3962  0.5204  0.0064
   60SAPC    HX 4601   5.429   2.724   6.086 -2.8521 -1.3219 -0.8365
   60SAPC    HY 4602   5.420   2.577   6.187  1.1059 -1.6467 -0.8368
   60SAPC   O31 4603   5.488   2.551   5.993  0.1934  0.1881 -0.4886
   60SAPC   C31 4604   5.380   2.541   5.924 -0.4060 -0.0632 -0.0619
   60SAPC   O32 4605   5.277   2.599   5.955  0.4564  0.3590 -0.5738
   60SAPC   C32 4606   5.406   2.452   5.798  0.1609 -0.0700 -0.4666
   60SAPC   H2X 4607   5.429   2.348   5.829 -0.0177  0.8625  3.3197
   60SAPC   H2Y 4608   5.492   2.500   5.745  0.2693 -0.0247 -0.2490
   60SAPC   C23 4609   5.992   2.652   5.839  0.7861  0.3290  0.0708
   60SAPC   H3R 4610   5.935   2.565   5.801 -0.6318 -0.1740  3.0544
   60SAPC   H3S 4611   6.074   2.602   5.895  1.6956 -0.8592 -2.2122
   60SAPC   C24 4612   6.063   2.721   5.717 -0.4440  0.0346  0.4177
   60SAPC   H4R 4613   5.976   2.770   5.669 -1.0517  0.5132  1.9487
   60SAPC   H4S 4614   6.110   2.642   5.655  2.4163  2.3893 -0.6701
   60SAPC   C25 4615   6.183   2.810   5.751  0.0598 -0.2565  0.0329
   60SAPC   H5R 4616   6.270   2.760   5.797  0.6895  0.7875 -0.0036
   60SAPC   C26 4617   6.195   2.937   5.715 -0.0047 -0.7492  0.4152
   60SAPC   H6R 4618   6.284   2.998   5.734 -1.5841  2.0720 -0.6913
   60SAPC   C27 4619   6.089   3.016   5.636 -0.0568 -0.1896 -0.2284
   60SAPC   H7R 4620   5.995   2.966   5.604 -1.3987  2.7664 -1.2764
   60SAPC   H7S 4621   6.140   3.066   5.551 -0.2846  0.7367  0.1672
   60SAPC   C28 4622   6.031   3.123   5.724  0.2439 -0.3265 -0.0998
   60SAPC   H8R 4623   5.934   3.096   5.767  0.2120 -0.8451 -0.4908
   60SAPC   C29 4624   6.079   3.248   5.750 -0.4147 -0.7173  0.5480
   60SAPC   H9R 4625   6.019   3.306   5.821 -1.5606 -0.7234 -0.3786
   60SAPC  C210 4626   6.198   3.317   5.691 -1.1613  0.1030  0.7831
   60SAPC  H10R 4627   6.229   3.275   5.593 -0.0049  2.0350  0.2725
   60SAPC  H10S 4628   6.278   3.293   5.764 -1.0094  0.1207  0.6210
   60SAPC  C211 4629   6.182   3.461   5.667  0.2072  0.2805  0.3061
   60SAPC  H11R 4630   6.136   3.509   5.755  0.1285  1.0421 -0.1434
   60SAPC  C212 4631   6.240   3.542   5.574  0.0734 -0.5647  0.1715
   60SAPC  H12R 4632   6.210   3.648   5.574  2.3035  0.1098  1.1515
   60SAPC  C213 4633   6.321   3.486   5.456 -0.0849  0.2143 -0.5312
   60SAPC  H13R 4634   6.253   3.455   5.373 -0.5035  2.1517 -0.9495
   60SAPC  H13S 4635   6.382   3.400   5.492  0.4345  1.2957  1.2773
   60SAPC  C214 4636   6.418   3.585   5.402  0.4260 -0.1340 -0.0198
   60SAPC  H14R 4637   6.467   3.644   5.481 -0.8687  0.8895  0.0658
   60SAPC  C215 4638   6.458   3.596   5.270 -0.5701  0.4181  0.3067
   60SAPC  H15R 4639   6.541   3.665   5.245 -0.2023 -0.1796 -0.1598
   60SAPC  C216 4640   6.399   3.529   5.149  0.0475  0.8339 -0.2964
   60SAPC  H16R 4641   6.379   3.602   5.068 -2.3913  0.6032  0.0138
   60SAPC  H16S 4642   6.303   3.476   5.170  0.8493 -1.0258 -1.1465
   60SAPC  C217 4643   6.493   3.417   5.092 -0.2557  0.3389  0.5158
   60SAPC  H17R 4644   6.432   3.372   5.010 -0.3429  1.6948 -0.1952
   60SAPC  H17S 4645   6.513   3.352   5.179  1.0732  1.7368  1.2837
   60SAPC  C218 4646   6.621   3.482   5.040 -0.4942 -0.2074 -0.7437
   60SAPC  H18R 4647   6.684   3.515   5.125 -1.3488  0.9468 -0.5256
   60SAPC  H18S 4648   6.595   3.576   4.986  3.0882  0.7548 -1.0203
   60SAPC  C219 4649   6.709   3.397   4.953 -0.7127 -0.3994  0.1067
   60SAPC  H19R 4650   6.697   3.292   4.988 -0.6472 -0.6171 -0.5144
   60SAPC  H19S 4651   6.816   3.424   4.967 -0.9737  0.7655 -0.0146
   60SAPC  C220 4652   6.675   3.403   4.805 -0.0329 -0.5600 -0.2476
   60SAPC  H20R 4653   6.714   3.311   4.756  0.8532  0.8180 -2.2677
   60SAPC  H20S 4654   6.717   3.493   4.755  0.3305 -0.3441  0.4358
   60SAPC  H20T 4655   6.564   3.408   4.802 -0.4851 -0.0926  5.7112
   60SAPC   C33 4656   5.274   2.438   5.711 -0.1591 -0.6269  0.4101
   60SAPC   H3X 4657   5.238   2.543   5.707  0.3423 -0.4811 -0.4549
   60SAPC   H3Y 4658   5.195   2.372   5.754  0.8094 -0.7336  2.1307
   60SAPC   C34 4659   5.295   2.386   5.569 -0.1095 -0.2163 -0.2656
   60SAPC   H4X 4660   5.322   2.279   5.561 -0.7369 -0.4437  0.5847
   60SAPC   H4Y 4661   5.369   2.441   5.507  0.0414  0.1769  0.2563
   60SAPC   C35 4662   5.161   2.404   5.490  0.4105 -0.0048 -0.4936
   60SAPC   H5X 4663   5.137   2.510   5.514  1.9588 -0.0828  1.7316
   60SAPC   H5Y 4664   5.079   2.341   5.530 -1.1139  1.1132 -1.7047
   60SAPC   C36 4665   5.169   2.379   5.343  0.1141 -0.2040  0.3668
   60SAPC   H6X 4666   5.159   2.270   5.324  1.4571 -0.2818 -0.0081
   60SAPC   H6Y 4667   5.261   2.416   5.293 -0.2339  0.1365 -0.0236
   60SAPC   C37 4668   5.052   2.447   5.265 -0.4581  0.0441  0.0806
   60SAPC   H7X 4669   5.080   2.553   5.245  2.7033 -0.6612  0.2542
   60SAPC   H7Y 4670   4.971   2.439   5.341  1.2329  1.7655  2.2304
   60SAPC   C38 4671   5.006   2.379   5.136  0.6043 -0.1861  1.1978
   60SAPC   H8X 4672   4.901   2.409   5.119  0.3694 -1.2068  0.8283
   60SAPC   H8Y 4673   5.021   2.269   5.136 -0.7919 -0.4608 -1.9529
   60SAPC   C39 4674   5.096   2.425   5.017 -0.8093  0.1277  0.6006
   60SAPC   H9X 4675   5.185   2.360   5.027 -1.4438 -1.0667 -0.9810
   60SAPC   H9Y 4676   5.116   2.534   5.031 -0.0818  0.4063 -2.0875
   60SAPC  C310 4677   5.025   2.406   4.880 -0.1023 -0.4641 -1.0361
   60SAPC  H10X 4678   4.944   2.481   4.875  0.3962  0.4503  2.1782
   60SAPC  H10Y 4679   4.979   2.305   4.872 -3.4788  0.6516  1.6247
   60SAPC  C311 4680   5.116   2.422   4.762  0.0350 -0.0269  0.1899
   60SAPC  H11X 4681   5.210   2.364   4.770 -0.9383 -1.4992  1.7078
   60SAPC  H11Y 4682   5.141   2.530   4.758  0.2281 -0.0558  0.5689
   60SAPC  C312 4683   5.053   2.397   4.621 -0.2419  0.2914 -0.1768
   60SAPC  H12X 4684   5.119   2.437   4.541 -1.0309  1.8381 -0.0863
   60SAPC  H12Y 4685   4.956   2.451   4.620 -0.9745 -0.8386  2.5151
   60SAPC  C313 4686   5.026   2.247   4.590  0.5246 -0.2082 -0.6866
   60SAPC  H13X 4687   4.958   2.242   4.503 -0.3152  1.8487 -0.2037
   60SAPC  H13Y 4688   4.964   2.199   4.669 -0.5623  0.0387 -1.3762
   60SAPC  C314 4689   5.155   2.172   4.569  0.4221 -0.5523 -0.1793
   60SAPC  H14X 4690   5.202   2.155   4.669  0.7488 -0.9963 -0.4042
   60SAPC  H14Y 4691   5.225   2.237   4.512 -0.9252 -0.9956 -2.4193
   60SAPC  C315 4692   5.138   2.041   4.492 -0.2489  0.3103  0.5802
   60SAPC  H15X 4693   5.235   1.989   4.482 -0.3810  0.2920 -0.8175
   60SAPC  H15Y 4694   5.112   2.067   4.387 -0.2654  1.8186  0.9379
   60SAPC  C316 4695   5.037   1.949   4.556  0.1054  0.0679 -1.1737
   60SAPC  H16X 4696   4.939   1.992   4.585 -0.3425  0.0235 -2.5634
   60SAPC  H16Y 4697   5.091   1.915   4.646  0.3943 -0.6466 -1.6081
   60SAPC  C317 4698   5.006   1.815   4.491 -0.1459  0.6539  0.0891
   60SAPC  H17X 4699   5.100   1.767   4.457  0.1450  0.4754  1.0938
   60SAPC  H17Y 4700   4.963   1.835   4.391 -1.6993  2.2275  1.0151
   60SAPC  C318 4701   4.923   1.727   4.587 -0.3070 -0.1761  1.0841
   60SAPC  H18X 4702   4.819   1.763   4.598  0.4823  1.7918  2.6739
   60SAPC  H18Y 4703   4.964   1.710   4.689 -1.6614 -0.3906  1.6040
   60SAPC  H18Z 4704   4.908   1.631   4.533 -3.9299  0.6100  0.4630
   61SAPC     N 4705   4.237   0.184   6.843  0.6197  0.1444  0.3760
   61SAPC   C12 4706   4.383   0.162   6.791  0.4203 -0.9560 -0.0256
   61SAPC  H12A 4707   4.450   0.217   6.855  1.2409  1.9659 -3.0994
   61SAPC  H12B 4708   4.391   0.214   6.697 -0.1345 -1.1882 -0.2032
   61SAPC   C13 4709   4.214   0.329   6.864 -0.3530 -0.1856 -0.0345
   61SAPC  H13A 4710   4.293   0.376   6.920  0.4807 -0.5423 -0.8866
   61SAPC  H13B 4711   4.218   0.381   6.769  0.0286 -0.8078 -0.3644
   61SAPC  H13C 4712   4.121   0.343   6.916 -0.3758  0.1977 -0.1784
   61SAPC   C14 4713   4.126   0.136   6.750  0.2569 -0.4077  0.1270
   61SAPC  H14A 4714   4.024   0.161   6.772 -0.2187  0.3863 -2.6766
   61SAPC  H14B 4715   4.139   0.162   6.646  0.1706 -3.1825 -0.6595
   61SAPC  H14C 4716   4.135   0.029   6.761 -2.4457 -0.5099  2.2569
   61SAPC   C15 4717   4.219   0.108   6.972  0.0594  0.3353 -0.2537
   61SAPC  H15A 4718   4.124   0.121   7.021 -0.0324 -1.9255  0.3024
   61SAPC  H15B 4719   4.236   0.003   6.950 -2.3567 -0.0816 -0.4048
   61SAPC  H15C 4720   4.287   0.144   7.048 -0.9875 -0.4006  1.0700
   61SAPC   C11 4721   4.424   0.019   6.770 -0.5738  0.0816 -0.3476
   61SAPC  H11A 4722   4.417  -0.040   6.864 -0.8056  0.0976 -0.3554
   61SAPC  H11B 4723   4.530   0.019   6.737 -0.2067 -4.2642  0.2878
   61SAPC     P 4724   4.363  -0.007   6.509 -0.1479  0.2208 -0.5384
   61SAPC   O13 4725   4.256  -0.070   6.435 -0.0808 -0.2782  0.4245
   61SAPC   O14 4726   4.376   0.145   6.491 -0.3775  0.7486 -0.6478
   61SAPC   O12 4727   4.346  -0.046   6.663  0.2192 -0.8571  0.2409
   61SAPC   O11 4728   4.497  -0.088   6.484 -0.0569 -0.7122  0.2518
   61SAPC    C1 4729   4.616  -0.020   6.434  0.0819 -0.8481  0.2809
   61SAPC    HA 4730   4.614   0.091   6.436 -1.8547 -0.8136 -1.1861
   61SAPC    HB 4731   4.705  -0.053   6.493 -1.0901  0.6770  3.0606
   61SAPC    C2 4732   4.643  -0.046   6.278 -0.0876  0.6720 -0.5543
   61SAPC    HS 4733   4.749  -0.023   6.258 -0.5983  1.6016 -2.4460
   61SAPC   O21 4734   4.552   0.040   6.201 -0.0536  0.2023 -0.8406
   61SAPC   C21 4735   4.579   0.170   6.202 -0.1378 -0.4461  0.6958
   61SAPC   O22 4736   4.681   0.217   6.255  0.5284 -0.0378  0.2179
   61SAPC   C22 4737   4.457   0.247   6.139  0.2131  0.0139  0.9038
   61SAPC   H2R 4738   4.366   0.205   6.187  0.5785 -1.5424  0.3135
   61SAPC   H2S 4739   4.466   0.357   6.152  1.0149  0.0051  0.5029
   61SAPC    C3 4740   4.625  -0.189   6.244 -0.6784  0.3715 -0.8426
   61SAPC    HX 4741   4.525  -0.221   6.280 -1.3688  2.1734 -1.0604
   61SAPC    HY 4742   4.691  -0.251   6.309 -1.7019 -0.9684 -1.0532
   61SAPC   O31 4743   4.638  -0.213   6.102 -0.4831  0.3731  0.4637
   61SAPC   C31 4744   4.682  -0.333   6.059 -0.1256  0.8021  0.0312
   61SAPC   O32 4745   4.707  -0.430   6.135 -0.0153 -0.2713 -0.3376
   61SAPC   C32 4746   4.728  -0.335   5.917  0.4905 -0.3125  0.0194
   61SAPC   H2X 4747   4.836  -0.314   5.906  0.5082 -0.9258 -1.1666
   61SAPC   H2Y 4748   4.685  -0.247   5.864  1.9769  0.5647  0.2277
   61SAPC   C23 4749   4.451   0.219   5.983  0.6430 -0.4905 -0.0422
   61SAPC   H3R 4750   4.458   0.110   5.963  1.4008 -0.4610  0.0237
   61SAPC   H3S 4751   4.543   0.260   5.937 -0.5674 -2.0099 -4.2243
   61SAPC   C24 4752   4.332   0.294   5.918  0.6216  0.1707 -0.6069
   61SAPC   H4R 4753   4.344   0.400   5.947  0.7171 -0.6352  2.7560
   61SAPC   H4S 4754   4.237   0.274   5.974  1.7610  0.1562  1.4163
   61SAPC   C25 4755   4.311   0.269   5.773  0.6608  0.1842  0.0034
   61SAPC   H5R 4756   4.251   0.179   5.754  1.5664 -0.7472  1.3657
   61SAPC   C26 4757   4.346   0.347   5.665  0.5236  0.3234  0.2073
   61SAPC   H6R 4758   4.328   0.310   5.563  0.1725 -1.5531  0.9096
   61SAPC   C27 4759   4.421   0.471   5.693 -0.0732  0.4070 -0.2489
   61SAPC   H7R 4760   4.494   0.453   5.775  1.1630 -0.9779 -1.6138
   61SAPC   H7S 4761   4.343   0.538   5.736  1.2768  0.6515  1.9907
   61SAPC   C28 4762   4.500   0.533   5.581 -0.3888 -0.3524  0.2464
   61SAPC   H8R 4763   4.564   0.461   5.529  0.4715  0.7655 -0.3032
   61SAPC   C29 4764   4.500   0.667   5.552  0.1850  0.4191  0.1857
   61SAPC   H9R 4765   4.568   0.691   5.468 -0.4140 -1.2484 -0.8206
   61SAPC  C210 4766   4.421   0.773   5.626 -0.0301  0.1176 -0.0873
   61SAPC  H10R 4767   4.411   0.746   5.734  2.7053  1.8911  0.7028
   61SAPC  H10S 4768   4.320   0.762   5.583  0.1878  0.3240 -0.6595
   61SAPC  C211 4769   4.472   0.910   5.594 -0.3043  0.5337  0.2006
   61SAPC  H11R 4770   4.428   0.953   5.503 -0.8015 -0.5227 -0.0777
   61SAPC  C212 4771   4.554   0.981   5.664  0.1098  0.2321  0.0901
   61SAPC  H12R 4772   4.568   1.084   5.628 -0.7870  0.7804  1.2213
   61SAPC  C213 4773   4.622   0.939   5.793  0.0068 -0.4742 -0.0749
   61SAPC  H13R 4774   4.702   0.870   5.758  0.6870  0.4594 -0.3892
   61SAPC  H13S 4775   4.546   0.895   5.860  0.1012 -0.7691 -0.1603
   61SAPC  C214 4776   4.689   1.053   5.862  0.1124  0.4643  0.0876
   61SAPC  H14R 4777   4.794   1.031   5.885  0.6605  1.5946 -1.2253
   61SAPC  C215 4778   4.652   1.169   5.905 -0.0479 -0.2229  0.4903
   61SAPC  H15R 4779   4.728   1.224   5.964  0.2174 -0.6735  0.5713
   61SAPC  C216 4780   4.516   1.241   5.886 -0.6008  0.0943  0.3029
   61SAPC  H16R 4781   4.456   1.246   5.979 -2.1786 -1.6506 -0.5531
   61SAPC  H16S 4782   4.454   1.183   5.814 -0.2683 -1.8258  1.4821
   61SAPC  C217 4783   4.531   1.391   5.836  0.6326  0.4217  0.1144
   61SAPC  H17R 4784   4.434   1.429   5.799  1.3384  0.7459 -1.4889
   61SAPC  H17S 4785   4.596   1.382   5.746  0.2722  2.2765 -0.3731
   61SAPC  C218 4786   4.583   1.484   5.940 -0.4221  0.4380 -0.0736
   61SAPC  H18R 4787   4.669   1.444   5.997 -0.2785  2.4895  1.2789
   61SAPC  H18S 4788   4.499   1.497   6.012 -0.1303  1.4059  0.1155
   61SAPC  C219 4789   4.630   1.610   5.869 -0.5157  1.4650 -0.2577
   61SAPC  H19R 4790   4.723   1.590   5.811  0.3932  2.9534  0.6021
   61SAPC  H19S 4791   4.659   1.681   5.949 -0.4190  2.2084 -0.9437
   61SAPC  C220 4792   4.524   1.683   5.788  0.0680 -0.2901  0.3019
   61SAPC  H20R 4793   4.440   1.717   5.853 -0.6233  0.4387 -0.9447
   61SAPC  H20S 4794   4.476   1.608   5.723 -1.1423  1.0149 -0.3631
   61SAPC  H20T 4795   4.552   1.774   5.730 -0.8199 -2.0302 -3.0859
   61SAPC   C33 4796   4.694  -0.467   5.846  0.2929  0.3790  0.0733
   61SAPC   H3X 4797   4.588  -0.499   5.852  0.2900 -0.0241 -1.5356
   61SAPC   H3Y 4798   4.750  -0.547   5.899  2.9037  2.3296  0.4885
   61SAPC   C34 4799   4.755  -0.475   5.706  0.4153  0.1434  0.9024
   61SAPC   H4X 4800   4.750  -0.584   5.685 -0.6330  0.1797  0.9073
   61SAPC   H4Y 4801   4.865  -0.463   5.719  0.7446  0.1560 -1.4530
   61SAPC   C35 4802   4.686  -0.377   5.606 -0.4056 -0.0052  0.0848
   61SAPC   H5X 4803   4.694  -0.266   5.612 -1.9524  0.1084  0.4393
   61SAPC   H5Y 4804   4.576  -0.396   5.605 -0.1805 -1.9122 -2.8922
   61SAPC   C36 4805   4.719  -0.400   5.455  0.3451 -0.0047 -0.3179
   61SAPC   H6X 4806   4.824  -0.413   5.422  0.2019 -0.1212 -0.7357
   61SAPC   H6Y 4807   4.682  -0.312   5.398  0.1856  0.0849 -0.0744
   61SAPC   C37 4808   4.642  -0.523   5.395 -0.4135 -0.3364 -0.6318
   61SAPC   H7X 4809   4.537  -0.504   5.425  0.3889  0.8945  1.5847
   61SAPC   H7Y 4810   4.668  -0.616   5.450  3.5113  0.3759 -0.9735
   61SAPC   C38 4811   4.670  -0.536   5.248 -0.0735  0.3022 -0.3630
   61SAPC   H8X 4812   4.599  -0.613   5.211 -0.4084  1.0784 -1.3897
   61SAPC   H8Y 4813   4.772  -0.579   5.235 -0.0503  0.3224 -0.2532
   61SAPC   C39 4814   4.658  -0.420   5.149 -0.3076 -0.8658  0.3171
   61SAPC   H9X 4815   4.720  -0.335   5.182 -3.5717  1.3411  1.2261
   61SAPC   H9Y 4816   4.550  -0.394   5.156 -0.0765 -0.1519  1.3009
   61SAPC  C310 4817   4.698  -0.461   5.003  0.3163 -0.3272  1.0438
   61SAPC  H10X 4818   4.630  -0.544   4.975 -0.8475  0.5154  1.2937
   61SAPC  H10Y 4819   4.806  -0.487   5.003  0.7031  1.1215  2.8496
   61SAPC  C311 4820   4.674  -0.352   4.904 -0.1909  0.5407  0.3877
   61SAPC  H11X 4821   4.717  -0.390   4.809 -0.8006  3.0898 -0.9839
   61SAPC  H11Y 4822   4.735  -0.260   4.922  0.3366  1.1345 -3.5727
   61SAPC  C312 4823   4.527  -0.321   4.880  0.4771 -0.2578 -0.3035
   61SAPC  H12X 4824   4.485  -0.282   4.975 -1.3746  0.0682 -1.2027
   61SAPC  H12Y 4825   4.472  -0.413   4.852  0.1141 -0.5222  1.1989
   61SAPC  C313 4826   4.504  -0.204   4.781 -0.4420 -0.0964 -0.1884
   61SAPC  H13X 4827   4.554  -0.220   4.683 -1.7583 -0.8567 -0.7667
   61SAPC  H13Y 4828   4.546  -0.116   4.833 -0.9818 -0.8043  1.5186
   61SAPC  C314 4829   4.354  -0.190   4.749  0.5448 -0.1294  0.0663
   61SAPC  H14X 4830   4.290  -0.174   4.839  1.9794 -2.8044  1.6870
   61SAPC  H14Y 4831   4.330  -0.289   4.704  1.3303  0.0363 -0.7335
   61SAPC  C315 4832   4.340  -0.089   4.636 -0.0528  0.4077  0.0875
   61SAPC  H15X 4833   4.410  -0.121   4.556  0.7326 -1.3627  1.3872
   61SAPC  H15Y 4834   4.367   0.014   4.668  0.6710  0.0389  0.7092
   61SAPC  C316 4835   4.189  -0.077   4.596 -0.1681  0.7923 -0.5055
   61SAPC  H16X 4836   4.129  -0.033   4.678 -0.2738  1.0521 -0.7209
   61SAPC  H16Y 4837   4.144  -0.175   4.570 -0.7152  1.1833 -1.0711
   61SAPC  C317 4838   4.167   0.020   4.473 -0.0431 -0.1608 -0.8288
   61SAPC  H17X 4839   4.064   0.014   4.431 -1.1658 -0.0107  1.6947
   61SAPC  H17Y 4840   4.229  -0.024   4.393 -0.5625 -0.9789 -0.7888
   61SAPC  C318 4841   4.211   0.165   4.494  0.2023 -0.3059 -0.5344
   61SAPC  H18X 4842   4.319   0.165   4.517  0.1613 -1.4737 -0.3158
   61SAPC  H18Y 4843   4.159   0.216   4.578  0.4202 -1.0159  0.0396
   61SAPC  H18Z 4844   4.192   0.225   4.402  0.9040  1.1370  0.2300
   62SAPC     N 4845   6.744   0.673   6.385  0.4501  0.6410  0.2554
   62SAPC   C12 4846   6.884   0.716   6.381  0.2412 -0.0415  0.0321
   62SAPC  H12A 4847   6.947   0.628   6.381  1.4421  0.7458 -1.7382
   62SAPC  H12B 4848   6.904   0.761   6.477 -0.0301 -1.5092  0.8201
   62SAPC   C13 4849   6.716   0.592   6.259 -0.7357 -0.1028  0.1812
   62SAPC  H13A 4850   6.742   0.648   6.170  3.2356 -0.2748  1.0547
   62SAPC  H13B 4851   6.774   0.501   6.257 -0.9490 -0.2459  0.4509
   62SAPC  H13C 4852   6.613   0.560   6.268 -1.1231  0.2926 -2.1369
   62SAPC   C14 4853   6.732   0.586   6.506  0.0382  0.5104  0.6680
   62SAPC  H14A 4854   6.767   0.646   6.589  0.3336  1.7458 -0.3322
   62SAPC  H14B 4855   6.632   0.549   6.522  0.3644 -1.0130 -0.5281
   62SAPC  H14C 4856   6.795   0.498   6.496  1.5171  1.1931  3.0710
   62SAPC   C15 4857   6.648   0.787   6.411  0.3202 -0.8934  0.5956
   62SAPC  H15A 4858   6.547   0.749   6.402 -0.1284  0.5553 -0.8320
   62SAPC  H15B 4859   6.643   0.833   6.509  0.7102  2.8210 -0.9734
   62SAPC  H15C 4860   6.660   0.866   6.338 -0.4078  0.2479  1.6752
   62SAPC   C11 4861   6.922   0.805   6.262  0.0902  0.0702 -0.3325
   62SAPC  H11A 4862   6.922   0.744   6.169  0.1300 -0.2055 -0.1532
   62SAPC  H11B 4863   7.029   0.820   6.287 -0.8588  1.8394  3.3562
   62SAPC     P 4864   6.933   1.060   6.283 -0.2904 -0.3917 -0.0540
   62SAPC   O13 4865   6.962   1.079   6.425 -0.1773  0.4483 -0.1281
   62SAPC   O14 4866   7.042   1.075   6.184  0.1681  0.2816  0.1018
   62SAPC   O12 4867   6.859   0.927   6.257  0.0011  0.0638  0.2496
   62SAPC   O11 4868   6.819   1.162   6.252 -0.5327 -0.4886  0.0507
   62SAPC    C1 4869   6.680   1.140   6.221  0.3888  0.5589  0.3709
   62SAPC    HA 4870   6.637   1.048   6.265 -1.6372  0.7520 -1.0171
   62SAPC    HB 4871   6.618   1.213   6.277 -1.5114  0.4269 -1.4274
   62SAPC    C2 4872   6.659   1.161   6.072  0.7942 -0.6273 -0.1940
   62SAPC    HS 4873   6.550   1.158   6.049  1.0112 -1.3370 -1.2348
   62SAPC   O21 4874   6.728   1.061   5.992 -0.1800  0.1818 -0.9896
   62SAPC   C21 4875   6.686   0.938   5.994  0.6099  0.9646  0.4134
   62SAPC   O22 4876   6.587   0.892   6.044  0.5522 -0.0209 -0.2763
   62SAPC   C22 4877   6.775   0.849   5.904 -0.0038 -0.1362 -0.3270
   62SAPC   H2R 4878   6.853   0.911   5.855 -0.0255  0.1130 -0.0500
   62SAPC   H2S 4879   6.820   0.768   5.966  0.2033  0.0109 -0.2851
   62SAPC    C3 4880   6.705   1.304   6.026  0.7266  0.2274 -0.2767
   62SAPC    HX 4881   6.814   1.306   6.047  0.8140 -1.6777 -0.3775
   62SAPC    HY 4882   6.669   1.385   6.093  0.6095 -0.2135  0.2037
   62SAPC   O31 4883   6.679   1.335   5.889  0.6512  0.8337  0.4505
   62SAPC   C31 4884   6.782   1.307   5.806  0.1169  0.0340  0.4088
   62SAPC   O32 4885   6.888   1.254   5.838  0.0131 -0.7542 -0.7426
   62SAPC   C32 4886   6.756   1.337   5.657 -0.0433  0.3214  0.2666
   62SAPC   H2X 4887   6.708   1.436   5.649  3.0114  1.7793 -2.7666
   62SAPC   H2Y 4888   6.688   1.259   5.617  1.0545 -0.9318  0.7517
   62SAPC   C23 4889   6.690   0.793   5.792  0.2671 -0.3056 -0.1366
   62SAPC   H3R 4890   6.628   0.862   5.732 -0.3397 -0.9280 -0.2271
   62SAPC   H3S 4891   6.624   0.728   5.854  0.8064  0.0029  0.7877
   62SAPC   C24 4892   6.773   0.706   5.691  0.1497  0.2607 -0.5730
   62SAPC   H4R 4893   6.799   0.617   5.752  1.1878  0.3502 -0.8644
   62SAPC   H4S 4894   6.867   0.758   5.664  0.6594 -0.8466 -1.0259
   62SAPC   C25 4895   6.697   0.655   5.573  0.0502 -0.2534 -0.1242
   62SAPC   H5R 4896   6.633   0.569   5.596 -1.1069  0.7705  0.6117
   62SAPC   C26 4897   6.711   0.696   5.440 -0.4608 -0.4229 -0.5415
   62SAPC   H6R 4898   6.659   0.643   5.358 -1.2961 -0.2947 -0.1041
   62SAPC   C27 4899   6.798   0.806   5.388 -0.1293  0.1172  0.3778
   62SAPC   H7R 4900   6.890   0.751   5.360 -1.4931 -2.3482  0.4478
   62SAPC   H7S 4901   6.829   0.871   5.473 -0.3580 -0.9028  1.2620
   62SAPC   C28 4902   6.735   0.885   5.279  0.9195 -0.6219  0.1764
   62SAPC   H8R 4903   6.675   0.974   5.303  1.6252  0.5855 -2.1833
   62SAPC   C29 4904   6.736   0.862   5.144  0.6386  0.2425  0.1062
   62SAPC   H9R 4905   6.697   0.936   5.072  1.2007  1.0545  0.6208
   62SAPC  C210 4906   6.822   0.764   5.078 -0.1517  0.1822  0.1407
   62SAPC  H10R 4907   6.889   0.704   5.143  0.7502  0.7061 -0.2807
   62SAPC  H10S 4908   6.897   0.814   5.013 -0.1607 -0.0696 -0.0687
   62SAPC  C211 4909   6.751   0.663   4.986  0.1173 -0.3779 -0.6801
   62SAPC  H11R 4910   6.684   0.593   5.040  0.8938  0.3723  1.3522
   62SAPC  C212 4911   6.749   0.664   4.856  0.2383 -0.5758  0.5136
   62SAPC  H12R 4912   6.688   0.586   4.808  3.5925 -1.6174 -2.5437
   62SAPC  C213 4913   6.813   0.761   4.771 -0.7252 -0.4933  1.7548
   62SAPC  H13R 4914   6.922   0.762   4.792 -0.5914  2.3293  1.2888
   62SAPC  H13S 4915   6.770   0.860   4.796 -2.4598 -1.1132  1.3387
   62SAPC  C214 4916   6.802   0.735   4.620 -0.2844  0.3307 -0.1220
   62SAPC  H14R 4917   6.889   0.684   4.575 -0.7458 -1.5818  1.0022
   62SAPC  C215 4918   6.717   0.774   4.526 -0.3457 -0.4582 -0.5208
   62SAPC  H15R 4919   6.741   0.755   4.420  0.1002  1.0552 -0.7263
   62SAPC  C216 4920   6.594   0.856   4.554  0.4058 -0.8386  0.0908
   62SAPC  H16R 4921   6.599   0.945   4.489  0.4500 -0.5374  0.5069
   62SAPC  H16S 4922   6.582   0.868   4.664  0.8038 -2.2572  0.3188
   62SAPC  C217 4923   6.474   0.771   4.516 -0.2501  0.1612 -0.3656
   62SAPC  H17R 4924   6.374   0.808   4.548 -0.4676  0.3688 -1.2637
   62SAPC  H17S 4925   6.483   0.676   4.573 -0.7452 -0.8201 -1.8679
   62SAPC  C218 4926   6.462   0.734   4.364 -0.5370 -0.1432  0.4162
   62SAPC  H18R 4927   6.552   0.683   4.324 -1.0690 -1.1371  0.4615
   62SAPC  H18S 4928   6.466   0.831   4.310  0.5704  0.0719  0.8632
   62SAPC  C219 4929   6.351   0.633   4.343 -0.5541  0.8215 -0.3428
   62SAPC  H19R 4930   6.380   0.544   4.403  0.8076 -0.6764 -3.0236
   62SAPC  H19S 4931   6.354   0.609   4.234 -0.7857  2.0935 -0.6448
   62SAPC  C220 4932   6.208   0.678   4.385  0.5402 -0.1299  0.3787
   62SAPC  H20R 4933   6.138   0.605   4.340  1.0140 -0.6581  0.4931
   62SAPC  H20S 4934   6.187   0.780   4.345  0.3505 -1.3978 -3.1040
   62SAPC  H20T 4935   6.185   0.668   4.493  2.8335 -0.3430  0.9045
   62SAPC   C33 4936   6.888   1.348   5.573 -0.3725  0.4303  0.7198
   62SAPC   H3X 4937   6.950   1.260   5.599  0.2300  0.0631 -1.7162
   62SAPC   H3Y 4938   6.934   1.443   5.606  1.1779  0.0269 -0.2172
   62SAPC   C34 4939   6.853   1.348   5.425  1.2281 -0.3531  0.3100
   62SAPC   H4X 4940   6.797   1.435   5.386  2.0780  0.1468  0.1830
   62SAPC   H4Y 4941   6.793   1.259   5.395  0.8660 -0.0250  0.0506
   62SAPC   C35 4942   6.979   1.340   5.331  0.4850 -0.1605  0.1451
   62SAPC   H5X 4943   7.056   1.412   5.366  0.0583 -0.4525  1.7821
   62SAPC   H5Y 4944   6.959   1.375   5.228  0.0566  0.5765  0.4739
   62SAPC   C36 4945   7.059   1.201   5.338  0.9809 -0.7217 -0.9377
   62SAPC   H6X 4946   7.035   1.155   5.436 -0.3023 -0.8217 -1.2749
   62SAPC   H6Y 4947   7.169   1.218   5.345  0.6339  1.9852 -0.9835
   62SAPC   C37 4948   7.019   1.108   5.226 -0.8287  0.1321  0.7273
   62SAPC   H7X 4949   6.908   1.095   5.229 -0.8355  0.1062  0.4047
   62SAPC   H7Y 4950   7.051   1.003   5.246  2.8045  0.5837 -1.7465
   62SAPC   C38 4951   7.082   1.164   5.098  0.5699  0.3335  0.3296
   62SAPC   H8X 4952   7.192   1.157   5.115  0.3299 -2.7869  1.2954
   62SAPC   H8Y 4953   7.059   1.272   5.091  2.6494  0.8743  1.0048
   62SAPC   C39 4954   7.044   1.095   4.965  0.3242 -0.1777  0.4744
   62SAPC   H9X 4955   6.935   1.101   4.947  0.5888 -1.1928 -1.9025
   62SAPC   H9Y 4956   7.079   0.990   4.970 -0.5736 -0.4963  0.1844
   62SAPC  C310 4957   7.116   1.146   4.834 -0.1911  0.4032 -0.5150
   62SAPC  H10X 4958   7.221   1.111   4.836 -0.2038  0.3905  0.0934
   62SAPC  H10Y 4959   7.116   1.257   4.837 -0.3793  0.3879  0.6804
   62SAPC  C311 4960   7.057   1.092   4.706 -0.1017 -0.3299 -0.1664
   62SAPC  H11X 4961   6.951   1.122   4.720  0.3019  0.5294  1.2374
   62SAPC  H11Y 4962   7.039   0.983   4.696 -0.0201 -0.3977  0.3998
   62SAPC  C312 4963   7.116   1.145   4.575  0.3324 -0.5373  0.5756
   62SAPC  H12X 4964   7.202   1.085   4.535 -0.1288 -0.2432 -0.9336
   62SAPC  H12Y 4965   7.158   1.247   4.588 -4.1315  1.7379 -0.9556
   62SAPC  C313 4966   7.010   1.155   4.465 -0.7754  0.0208 -0.1472
   62SAPC  H13X 4967   6.937   1.233   4.496  2.8978  3.4921  0.6854
   62SAPC  H13Y 4968   6.958   1.059   4.445 -2.5776  1.4060 -2.7807
   62SAPC  C314 4969   7.062   1.188   4.326 -0.2165  0.0579  0.0841
   62SAPC  H14X 4970   7.160   1.140   4.306  0.3406  0.5540  1.4672
   62SAPC  H14Y 4971   7.075   1.298   4.317  1.7239 -0.0694  0.8770
   62SAPC  C315 4972   6.965   1.139   4.214 -0.3931 -0.3202  0.3285
   62SAPC  H15X 4973   6.983   1.185   4.114  0.7121 -0.8069  0.2910
   62SAPC  H15Y 4974   6.867   1.161   4.261  0.3680 -0.2031  1.9614
   62SAPC  C316 4975   6.982   0.991   4.191  0.6650 -0.6255  0.2475
   62SAPC  H16X 4976   6.991   0.943   4.290  0.0807  1.2118  1.2417
   62SAPC  H16Y 4977   7.078   0.975   4.137  0.3996  1.8349 -1.1125
   62SAPC  C317 4978   6.852   0.931   4.135 -0.7691 -0.5996  0.4614
   62SAPC  H17X 4979   6.837   0.980   4.037  1.1029  2.1899  1.4522
   62SAPC  H17Y 4980   6.763   0.962   4.195 -0.7483  1.2233 -0.3966
   62SAPC  C318 4981   6.859   0.784   4.121  0.3806 -0.6992  0.3017
   62SAPC  H18X 4982   6.952   0.764   4.062  1.4480  0.7753  1.4075
   62SAPC  H18Y 4983   6.765   0.747   4.076  0.1798  0.8834 -0.6576
   62SAPC  H18Z 4984   6.868   0.731   4.218  1.8636  0.4996  0.8522
   63SAPC     N 4985   6.279   3.685   6.369 -0.1225 -0.4063 -0.4231
   63SAPC   C12 4986   6.362   3.728   6.240 -0.6301  0.0483  0.0488
   63SAPC  H12A 4987   6.367   3.836   6.242 -1.0033  0.0667  1.1868
   63SAPC  H12B 4988   6.312   3.711   6.146  2.7435 -0.3697 -1.8462
   63SAPC   C13 4989   6.311   3.543   6.413  0.0300  0.4606  0.4301
   63SAPC  H13A 4990   6.284   3.479   6.330 -1.6245 -0.3085  1.5010
   63SAPC  H13B 4991   6.417   3.536   6.437  0.6841  2.9630 -1.3608
   63SAPC  H13C 4992   6.250   3.529   6.501 -0.7073 -0.0023 -0.1487
   63SAPC   C14 4993   6.316   3.779   6.478 -0.2739 -0.5238 -0.9898
   63SAPC  H14A 4994   6.248   3.769   6.561 -1.2600  3.0891 -1.1706
   63SAPC  H14B 4995   6.419   3.773   6.510 -0.7814 -1.2088  0.6229
   63SAPC  H14C 4996   6.299   3.879   6.441  2.8194  0.3524 -0.3670
   63SAPC   C15 4997   6.135   3.697   6.344 -0.3070 -0.1546 -0.3063
   63SAPC  H15A 4998   6.104   3.622   6.273 -0.8284  1.2194 -1.5870
   63SAPC  H15B 4999   6.078   3.675   6.432  1.1471 -2.4822  0.1349
   63SAPC  H15C 5000   6.118   3.794   6.299  1.3739  1.3291  2.0655
   63SAPC   C11 5001   6.504   3.671   6.244  0.2356 -0.0692  0.0647
   63SAPC  H11A 5002   6.559   3.711   6.156  0.5400  1.0800  0.7559
   63SAPC  H11B 5003   6.509   3.560   6.243  0.1985 -0.0857  0.9423
   63SAPC     P 5004   6.680   3.654   6.441  0.1499 -0.1375 -0.0119
   63SAPC   O13 5005   6.734   3.750   6.540  0.5054 -1.0349 -0.0218
   63SAPC   O14 5006   6.629   3.526   6.491  0.1525  0.0558 -0.0169
   63SAPC   O12 5007   6.569   3.729   6.358 -0.1339  0.3291  0.4584
   63SAPC   O11 5008   6.788   3.619   6.330 -0.1538 -0.0360 -0.1875
   63SAPC    C1 5009   6.896   3.710   6.309  0.2131 -0.3934 -0.1009
   63SAPC    HA 5010   6.873   3.806   6.257  3.3725  0.4768 -0.1145
   63SAPC    HB 5011   6.951   3.739   6.402  0.1525 -0.3421 -0.0808
   63SAPC    C2 5012   6.993   3.635   6.216 -0.2268  0.1460 -0.5550
   63SAPC    HS 5013   7.063   3.713   6.178  1.5003 -1.0405  0.0433
   63SAPC   O21 5014   6.923   3.572   6.107  0.2726 -0.0334  0.7904
   63SAPC   C21 5015   6.840   3.635   6.026 -0.5165  0.2450 -0.1729
   63SAPC   O22 5016   6.831   3.753   6.006 -0.3048 -0.0657  0.0100
   63SAPC   C22 5017   6.739   3.527   5.984 -0.0173  0.0331  0.4388
   63SAPC   H2R 5018   6.795   3.442   5.939  3.3431 -0.1768  4.4069
   63SAPC   H2S 5019   6.711   3.484   6.082 -0.1122 -1.6154 -0.2751
   63SAPC    C3 5020   7.081   3.530   6.291  0.3726  0.2842  0.8543
   63SAPC    HX 5021   7.022   3.446   6.334  0.3305 -0.4396 -0.5526
   63SAPC    HY 5022   7.121   3.582   6.381  0.5794  0.6418  0.5584
   63SAPC   O31 5023   7.193   3.497   6.206  0.7324 -0.4326  0.0162
   63SAPC   C31 5024   7.174   3.388   6.138  0.3474  1.3146  0.0892
   63SAPC   O32 5025   7.078   3.312   6.151 -0.1079  0.5229 -0.4131
   63SAPC   C32 5026   7.296   3.359   6.055  0.4824  0.2458  0.7584
   63SAPC   H2X 5027   7.305   3.248   6.045 -0.4434  0.1816  0.4716
   63SAPC   H2Y 5028   7.385   3.399   6.107  0.7909  0.8073 -0.1828
   63SAPC   C23 5029   6.616   3.559   5.898 -1.1201 -0.5529 -0.2557
   63SAPC   H3R 5030   6.636   3.668   5.887 -0.7004 -0.4499  1.2579
   63SAPC   H3S 5031   6.521   3.535   5.949 -2.3579  0.6855 -1.8533
   63SAPC   C24 5032   6.620   3.500   5.754 -0.4721 -0.0311  0.1180
   63SAPC   H4R 5033   6.716   3.512   5.698 -0.4771  0.4150  0.1967
   63SAPC   H4S 5034   6.545   3.567   5.707  0.0085 -0.2920 -1.0688
   63SAPC   C25 5035   6.567   3.360   5.742 -0.2806 -0.0833 -0.2610
   63SAPC   H5R 5036   6.480   3.339   5.806  0.2580  0.3455  0.6246
   63SAPC   C26 5037   6.613   3.255   5.682  0.2936  0.4201 -0.7607
   63SAPC   H6R 5038   6.549   3.166   5.692  2.0171 -0.8539 -0.6178
   63SAPC   C27 5039   6.736   3.246   5.600  0.2105 -0.1538  0.4374
   63SAPC   H7R 5040   6.782   3.145   5.608  1.1840  0.0565 -1.8066
   63SAPC   H7S 5041   6.809   3.313   5.652  0.0248 -0.4844  1.1316
   63SAPC   C28 5042   6.719   3.280   5.456 -0.7466  0.2537 -0.9157
   63SAPC   H8R 5043   6.636   3.350   5.434 -0.8322  1.0111  1.5311
   63SAPC   C29 5044   6.783   3.225   5.350  0.0246 -0.4457  0.2275
   63SAPC   H9R 5045   6.759   3.260   5.248  2.7086  2.0294  0.3274
   63SAPC  C210 5046   6.885   3.112   5.352 -0.3756  0.1907  0.0685
   63SAPC  H10R 5047   6.947   3.128   5.443 -2.9904  2.3642  1.6276
   63SAPC  H10S 5048   6.957   3.133   5.270  0.7334  0.3392  1.0561
   63SAPC  C211 5049   6.850   2.965   5.345 -0.5398  0.5345 -0.7011
   63SAPC  H11R 5050   6.851   2.905   5.437 -1.8741  2.2334  0.4870
   63SAPC  C212 5051   6.799   2.909   5.226 -0.1213 -0.0362 -1.0113
   63SAPC  H12R 5052   6.787   2.800   5.229 -2.2461  0.1445 -1.1935
   63SAPC  C213 5053   6.774   2.971   5.089  0.3816  0.7594  0.3661
   63SAPC  H13R 5054   6.860   2.939   5.026  0.6263  2.1921 -0.0783
   63SAPC  H13S 5055   6.770   3.082   5.102 -1.0929  0.9044 -1.0898
   63SAPC  C214 5056   6.648   2.940   5.016 -0.9045 -0.1143  0.2125
   63SAPC  H14R 5057   6.565   2.918   5.085  1.2094 -0.2180  2.8940
   63SAPC  C215 5058   6.631   2.960   4.883  0.3939 -0.1311 -0.0493
   63SAPC  H15R 5059   6.529   2.944   4.845 -0.5801  0.3259  2.1749
   63SAPC  C216 5060   6.732   3.015   4.776 -0.2307  0.1519  0.3155
   63SAPC  H16R 5061   6.825   3.056   4.821  0.1387  1.7589 -1.7285
   63SAPC  H16S 5062   6.697   3.104   4.720  2.5095  0.6645 -0.7564
   63SAPC  C217 5063   6.800   2.906   4.686 -0.4625  0.5438  0.5762
   63SAPC  H17R 5064   6.733   2.842   4.625  0.1286 -0.1620  0.6484
   63SAPC  H17S 5065   6.848   2.832   4.753 -2.1568  1.4729  2.9402
   63SAPC  C218 5066   6.904   2.974   4.587 -0.5431 -0.3488 -0.4043
   63SAPC  H18R 5067   6.979   3.041   4.635 -0.5875 -1.1540  0.8114
   63SAPC  H18S 5068   6.843   3.035   4.516 -0.5329 -0.9091 -0.9039
   63SAPC  C219 5069   6.986   2.876   4.507  0.2312 -0.2750 -1.1574
   63SAPC  H19R 5070   7.032   2.810   4.584  0.0956  1.1045  0.1396
   63SAPC  H19S 5071   7.076   2.925   4.464 -0.1302 -1.2921 -3.2027
   63SAPC  C220 5072   6.923   2.802   4.393  0.1227  0.4089  0.1860
   63SAPC  H20R 5073   7.000   2.735   4.348  1.3461  0.5510  1.9908
   63SAPC  H20S 5074   6.887   2.872   4.314 -0.9008 -0.4940 -0.1694
   63SAPC  H20T 5075   6.847   2.728   4.426  0.4529  0.0848  0.2238
   63SAPC   C33 5076   7.289   3.407   5.905 -0.3476 -0.0232  0.1410
   63SAPC   H3X 5077   7.190   3.388   5.858  0.6460 -0.1974 -1.9949
   63SAPC   H3Y 5078   7.361   3.346   5.848 -0.3498  0.2678 -0.1780
   63SAPC   C34 5079   7.316   3.559   5.887 -0.0727 -0.2375  0.7266
   63SAPC   H4X 5080   7.406   3.591   5.943  0.9387 -1.9227  0.1356
   63SAPC   H4Y 5081   7.229   3.615   5.927  3.0959  2.9803  3.7596
   63SAPC   C35 5082   7.341   3.594   5.740 -0.1936  0.0249 -0.4313
   63SAPC   H5X 5083   7.429   3.537   5.703 -0.4907 -0.5955 -0.1942
   63SAPC   H5Y 5084   7.364   3.703   5.741 -0.2279  0.0554  1.3503
   63SAPC   C36 5085   7.219   3.568   5.647 -0.5208 -0.0136 -0.1385
   63SAPC   H6X 5086   7.150   3.655   5.654 -0.9953 -0.2189 -1.8519
   63SAPC   H6Y 5087   7.162   3.477   5.672 -1.1532  1.4476  4.8422
   63SAPC   C37 5088   7.266   3.558   5.499  0.0955  0.2051 -0.0721
   63SAPC   H7X 5089   7.349   3.488   5.475  0.2134  0.8798 -1.7878
   63SAPC   H7Y 5090   7.308   3.658   5.473  0.3517  0.4420  1.2005
   63SAPC   C38 5091   7.152   3.526   5.397 -0.1964  0.1535  0.3862
   63SAPC   H8X 5092   7.083   3.611   5.380  0.6017  1.0476  1.4910
   63SAPC   H8Y 5093   7.088   3.445   5.438  0.3034  1.3934  3.9666
   63SAPC   C39 5094   7.194   3.487   5.255  0.6025  0.6117 -0.7087
   63SAPC   H9X 5095   7.255   3.395   5.257 -2.2428 -1.4532 -1.9375
   63SAPC   H9Y 5096   7.253   3.575   5.220  0.2207  0.7180 -1.0993
   63SAPC  C310 5097   7.077   3.467   5.166  0.2450  0.6257 -0.1819
   63SAPC  H10X 5098   7.013   3.557   5.157 -2.2304 -1.2005 -2.4240
   63SAPC  H10Y 5099   7.023   3.384   5.217  3.4917 -2.3606 -1.2640
   63SAPC  C311 5100   7.103   3.425   5.021  0.6987  0.6631  0.6398
   63SAPC  H11X 5101   7.024   3.351   4.997  0.3645  0.6744  1.6211
   63SAPC  H11Y 5102   7.198   3.370   5.005 -0.4732 -0.8254 -1.6436
   63SAPC  C312 5103   7.114   3.541   4.921  0.5633  0.0930 -0.2485
   63SAPC  H12X 5104   7.164   3.630   4.964  2.0357 -1.4740  1.4036
   63SAPC  H12Y 5105   7.010   3.566   4.892 -0.3092 -1.6765  1.1574
   63SAPC  C313 5106   7.181   3.493   4.789  0.5139 -0.2572 -0.1619
   63SAPC  H13X 5107   7.144   3.389   4.774  1.5502 -0.6018 -0.3831
   63SAPC  H13Y 5108   7.289   3.473   4.804  0.0797 -1.7811  1.1567
   63SAPC  C314 5109   7.148   3.587   4.671  0.3283  0.4904  0.0503
   63SAPC  H14X 5110   7.200   3.683   4.691  1.3463  0.0161 -0.2391
   63SAPC  H14Y 5111   7.039   3.603   4.658  0.4539  2.1881  0.8907
   63SAPC  C315 5112   7.201   3.539   4.535 -0.0597  0.2965 -0.0546
   63SAPC  H15X 5113   7.303   3.500   4.557 -0.3654 -0.3321  0.2332
   63SAPC  H15Y 5114   7.227   3.627   4.471  1.5393  0.4118  0.7116
   63SAPC  C316 5115   7.123   3.426   4.465 -0.9953 -0.4283  0.4719
   63SAPC  H16X 5116   7.018   3.459   4.453 -0.9298 -0.3791  0.0145
   63SAPC  H16Y 5117   7.100   3.337   4.528 -3.2551 -0.2013  0.0581
   63SAPC  C317 5118   7.171   3.398   4.320 -0.2835  0.5289  0.9923
   63SAPC  H17X 5119   7.150   3.291   4.295  1.5642  0.2811  0.3543
   63SAPC  H17Y 5120   7.281   3.399   4.309 -0.4897 -0.5928 -2.5725
   63SAPC  C318 5121   7.106   3.489   4.215 -0.0763  1.2241 -0.3636
   63SAPC  H18X 5122   7.097   3.437   4.117  1.1231 -0.9443  0.6149
   63SAPC  H18Y 5123   7.169   3.581   4.209 -1.3841  2.2042  0.3282
   63SAPC  H18Z 5124   7.003   3.524   4.241  0.0423  0.3128  1.4345
   64SAPC     N 5125   6.846   4.815   6.343 -0.0495  0.3541  0.4950
   64SAPC   C12 5126   6.924   4.947   6.311 -0.0387 -0.0513 -0.1845
   64SAPC  H12A 5127   6.966   4.992   6.400  3.8929 -1.3601 -1.1744
   64SAPC  H12B 5128   6.844   5.005   6.267  0.2202 -1.4319 -2.7028
   64SAPC   C13 5129   6.790   4.758   6.217  0.3251 -0.0483 -0.1900
   64SAPC  H13A 5130   6.740   4.664   6.233  0.6276 -0.1509  0.1461
   64SAPC  H13B 5131   6.716   4.823   6.172  0.7345  0.1270 -0.6216
   64SAPC  H13C 5132   6.861   4.734   6.139  0.8249  2.1828 -0.4847
   64SAPC   C14 5133   6.934   4.717   6.406 -0.1385 -0.0052  0.6647
   64SAPC  H14A 5134   6.885   4.621   6.402  1.7056 -1.0542  1.7436
   64SAPC  H14B 5135   7.027   4.715   6.351  0.5713 -0.3942  1.8467
   64SAPC  H14C 5136   6.950   4.750   6.508  1.0986 -2.0916  1.2001
   64SAPC   C15 5137   6.736   4.851   6.430  0.8899  0.5721  0.3156
   64SAPC  H15A 5138   6.778   4.910   6.510  1.3325 -0.3209  0.7511
   64SAPC  H15B 5139   6.662   4.906   6.373 -0.6656  0.2760  1.9445
   64SAPC  H15C 5140   6.692   4.765   6.479 -0.7539  2.1722  1.8095
   64SAPC   C11 5141   7.038   4.926   6.205  0.6246 -0.1238  0.0392
   64SAPC  H11A 5142   7.063   5.025   6.162 -1.1462  0.6509  0.7170
   64SAPC  H11B 5143   6.995   4.870   6.120  2.2283  0.4847 -1.2237
   64SAPC     P 5144   7.259   4.918   6.335  0.0535  0.0455 -0.0164
   64SAPC   O13 5145   7.196   4.994   6.448 -0.1479 -0.0926 -0.1240
   64SAPC   O14 5146   7.364   4.816   6.372  0.4533 -0.5211 -0.3906
   64SAPC   O12 5147   7.148   4.841   6.250 -0.2807  0.3492  0.4853
   64SAPC   O11 5148   7.319   5.015   6.229 -0.6465 -0.1873 -0.3929
   64SAPC    C1 5149   7.371   4.980   6.097 -0.1050  0.0557  0.1546
   64SAPC    HA 5150   7.479   4.999   6.078 -0.3632  0.1820 -1.2274
   64SAPC    HB 5151   7.356   4.875   6.063  1.4011 -0.3340  0.5896
   64SAPC    C2 5152   7.293   5.062   5.988 -0.2374  0.2341  0.2076
   64SAPC    HS 5153   7.186   5.043   6.009  0.1091  1.6938  3.9781
   64SAPC   O21 5154   7.333   5.012   5.859 -0.1853 -0.0077  0.1872
   64SAPC   C21 5155   7.240   5.021   5.768 -0.1675 -0.0317 -0.3778
   64SAPC   O22 5156   7.129   5.074   5.784  0.4414  0.4193  0.4971
   64SAPC   C22 5157   7.289   4.954   5.644 -0.2779  0.2672  0.0419
   64SAPC   H2R 5158   7.398   4.935   5.645  0.1883  2.6103 -0.7514
   64SAPC   H2S 5159   7.239   4.855   5.647  0.8121 -0.2803  0.6715
   64SAPC    C3 5160   7.341   5.211   5.990  0.1212  0.2965 -0.1169
   64SAPC    HX 5161   7.443   5.227   5.949 -0.4845 -1.2506 -2.4438
   64SAPC    HY 5162   7.347   5.232   6.099 -0.1796  0.2501 -0.0903
   64SAPC   O31 5163   7.244   5.306   5.935  0.2978  0.4423 -0.3216
   64SAPC   C31 5164   7.268   5.351   5.813 -0.2283  0.5207 -0.2899
   64SAPC   O32 5165   7.377   5.342   5.755  0.9274  0.0412 -0.3095
   64SAPC   C32 5166   7.137   5.421   5.763  0.2497  0.0802  0.1785
   64SAPC   H2X 5167   7.123   5.513   5.824 -1.4168 -0.4666  0.6789
   64SAPC   H2Y 5168   7.056   5.346   5.771  1.6146 -1.4601  0.0649
   64SAPC   C23 5169   7.241   5.039   5.517  0.2764 -0.1872 -0.5475
   64SAPC   H3R 5170   7.269   5.145   5.534  0.5693 -0.2844 -0.4174
   64SAPC   H3S 5171   7.131   5.032   5.530  0.2003 -0.8686 -1.4672
   64SAPC   C24 5172   7.290   4.990   5.380 -0.0097  0.3132 -0.1866
   64SAPC   H4R 5173   7.399   4.969   5.389 -0.0343  0.8612  2.1094
   64SAPC   H4S 5174   7.271   5.070   5.305 -1.9242  0.0748 -0.0185
   64SAPC   C25 5175   7.226   4.860   5.344  0.0004  0.1500  0.2612
   64SAPC   H5R 5176   7.180   4.811   5.431  0.3736  1.4369  1.2188
   64SAPC   C26 5177   7.209   4.805   5.216  0.1921 -0.3122 -0.2095
   64SAPC   H6R 5178   7.155   4.709   5.207  0.1610 -0.5837  2.2845
   64SAPC   C27 5179   7.260   4.848   5.079 -0.3266 -0.1407  0.0872
   64SAPC   H7R 5180   7.342   4.922   5.092 -1.4244  0.7482  2.6713
   64SAPC   H7S 5181   7.176   4.877   5.012  0.0008 -0.1203 -0.3158
   64SAPC   C28 5182   7.328   4.730   5.016  0.5343  0.6810 -0.5281
   64SAPC   H8R 5183   7.363   4.652   5.086 -0.9202  0.8778  0.4707
   64SAPC   C29 5184   7.355   4.717   4.890 -0.4940 -0.1886  0.0236
   64SAPC   H9R 5185   7.399   4.624   4.849 -1.0207 -0.1516 -0.6396
   64SAPC  C210 5186   7.342   4.826   4.788 -0.6323 -0.0990  0.8414
   64SAPC  H10R 5187   7.441   4.857   4.746 -1.7887 -0.9748 -2.9147
   64SAPC  H10S 5188   7.310   4.921   4.835  1.1230  0.9177  0.1197
   64SAPC  C211 5189   7.243   4.801   4.669 -0.3637 -0.6024  0.0399
   64SAPC  H11R 5190   7.143   4.775   4.709 -1.1116  2.6898  0.5546
   64SAPC  C212 5191   7.260   4.821   4.538  0.1296  0.7083 -0.0253
   64SAPC  H12R 5192   7.169   4.809   4.476 -0.1627 -1.2503  0.7193
   64SAPC  C213 5193   7.381   4.859   4.468  0.3810 -0.6696  0.6790
   64SAPC  H13R 5194   7.394   4.816   4.367  1.9291  1.1070  0.0727
   64SAPC  H13S 5195   7.475   4.827   4.518 -0.1936  1.7133  3.5157
   64SAPC  C214 5196   7.391   5.009   4.456 -0.5288  0.4225  0.1727
   64SAPC  H14R 5197   7.349   5.064   4.541 -2.0785  0.2347 -0.4334
   64SAPC  C215 5198   7.416   5.088   4.349  0.1715 -0.0260 -0.0898
   64SAPC  H15R 5199   7.393   5.195   4.359 -1.2210 -0.2820 -0.2819
   64SAPC  C216 5200   7.460   5.037   4.214 -0.2508  0.3000 -0.4449
   64SAPC  H16R 5201   7.379   5.038   4.138  0.1752  0.6047 -0.9069
   64SAPC  H16S 5202   7.479   4.928   4.224 -0.6802  0.3397  1.0593
   64SAPC  C217 5203   7.589   5.111   4.157  0.4519 -0.2090  0.0333
   64SAPC  H17R 5204   7.672   5.091   4.228 -0.5981 -0.5242  1.2043
   64SAPC  H17S 5205   7.564   5.218   4.173 -0.7210 -0.4263 -0.2026
   64SAPC  C218 5206   7.645   5.070   4.022 -0.5486  0.0783 -0.0617
   64SAPC  H18R 5207   7.555   5.077   3.958 -1.6511 -0.6217  1.3501
   64SAPC  H18S 5208   7.677   4.964   4.035 -0.6428  0.3079  2.6128
   64SAPC  C219 5209   7.763   5.165   3.968  0.8842  0.3933 -0.0378
   64SAPC  H19R 5210   7.792   5.121   3.870 -0.3652 -0.0442 -0.2288
   64SAPC  H19S 5211   7.846   5.139   4.037  0.9257  1.4046  0.3085
   64SAPC  C220 5212   7.746   5.315   3.968 -0.3295 -0.1578 -0.0513
   64SAPC  H20R 5213   7.663   5.342   3.899  0.6456  1.9424 -0.4749
   64SAPC  H20S 5214   7.841   5.369   3.949  0.7525 -1.1698  2.0963
   64SAPC  H20T 5215   7.719   5.351   4.069  0.2616 -1.0554  0.4362
   64SAPC   C33 5216   7.157   5.464   5.612  0.1339 -0.2839 -0.6164
   64SAPC   H3X 5217   7.174   5.370   5.555 -0.8027 -1.0669  0.3307
   64SAPC   H3Y 5218   7.243   5.532   5.598  0.1745 -0.3021 -0.4574
   64SAPC   C34 5219   7.037   5.536   5.552  0.1213  0.0297 -0.4957
   64SAPC   H4X 5220   7.014   5.622   5.619  1.7818  1.5315 -1.7564
   64SAPC   H4Y 5221   6.944   5.475   5.545 -0.4943  0.7420  1.0179
   64SAPC   C35 5222   7.084   5.601   5.423 -0.6703  0.1634 -0.0546
   64SAPC   H5X 5223   7.147   5.532   5.363  0.0019  1.3243 -0.7344
   64SAPC   H5Y 5224   7.145   5.693   5.437 -1.6175  0.6756  0.8931
   64SAPC   C36 5225   6.967   5.636   5.328  0.8426 -0.4439 -0.2456
   64SAPC   H6X 5226   6.907   5.722   5.365 -1.3498 -0.9746 -2.3091
   64SAPC   H6Y 5227   6.914   5.541   5.309  0.8615 -0.2717 -1.1994
   64SAPC   C37 5228   7.017   5.679   5.185 -0.0050  0.8220 -0.4453
   64SAPC   H7X 5229   6.926   5.686   5.122 -0.7148 -0.5451  0.3871
   64SAPC   H7Y 5230   7.078   5.601   5.137  1.1217 -0.8099  3.2791
   64SAPC   C38 5231   7.099   5.807   5.179  0.4625 -0.5698 -0.4663
   64SAPC   H8X 5232   7.189   5.797   5.243  0.2814 -0.8222 -0.2486
   64SAPC   H8Y 5233   7.029   5.883   5.222  0.8767 -1.2852  1.5811
   64SAPC   C39 5234   7.132   5.856   5.040  0.2147 -0.0654 -0.0208
   64SAPC   H9X 5235   7.178   5.957   5.044 -1.5200  0.8781 -2.0183
   64SAPC   H9Y 5236   7.036   5.867   4.985  0.4108 -3.5833 -1.3556
   64SAPC  C310 5237   7.214   5.758   4.954  0.5025  0.7038 -0.2553
   64SAPC  H10X 5238   7.155   5.665   4.943 -1.9193  1.9066  1.7863
   64SAPC  H10Y 5239   7.311   5.740   5.005  1.7550  2.2069 -1.9647
   64SAPC  C311 5240   7.254   5.805   4.810 -0.4076 -0.2271  0.8670
   64SAPC  H11X 5241   7.322   5.722   4.781  1.2227  1.0022  0.9940
   64SAPC  H11Y 5242   7.313   5.899   4.819 -0.5631 -0.0410  0.0959
   64SAPC  C312 5243   7.133   5.826   4.713 -0.3220 -0.2625  0.1848
   64SAPC  H12X 5244   7.062   5.902   4.752  0.5298  1.5499 -1.6344
   64SAPC  H12Y 5245   7.072   5.733   4.717 -0.5676 -0.2928 -2.6199
   64SAPC  C313 5246   7.178   5.833   4.564  0.1126  0.3265 -0.3407
   64SAPC  H13X 5247   7.240   5.744   4.542  0.9785  0.6953  0.5574
   64SAPC  H13Y 5248   7.242   5.924   4.559  0.0759  0.6818  3.1717
   64SAPC  C314 5249   7.058   5.857   4.467 -0.5578 -0.1900  0.3250
   64SAPC  H14X 5250   7.001   5.947   4.496 -1.1312 -0.3459 -0.2791
   64SAPC  H14Y 5251   6.994   5.766   4.467  1.2104 -1.4990 -0.9795
   64SAPC  C315 5252   7.099   5.876   4.316  0.2930 -0.6858  0.1744
   64SAPC  H15X 5253   7.011   5.868   4.248  0.6229  0.6008 -0.4401
   64SAPC  H15Y 5254   7.167   5.796   4.281  2.1587  0.4421  1.0410
   64SAPC  C316 5255   7.145   6.021   4.291 -0.1595  0.7239  0.2421
   64SAPC  H16X 5256   7.250   6.042   4.319  0.7228  1.3593 -3.0235
   64SAPC  H16Y 5257   7.078   6.093   4.342 -1.4129 -1.2006  1.4042
   64SAPC  C317 5258   7.142   6.050   4.137  0.6188 -0.0955 -0.3499
   64SAPC  H17X 5259   7.157   6.158   4.119 -0.0828 -0.1436 -1.2817
   64SAPC  H17Y 5260   7.036   6.041   4.105 -0.1580 -0.3238  2.0651
   64SAPC  C318 5261   7.224   5.965   4.051 -0.3307 -0.6305  0.2795
   64SAPC  H18X 5262   7.325   5.943   4.091  0.4181  2.4076  0.2852
   64SAPC  H18Y 5263   7.234   5.991   3.944  0.9571 -0.9073  0.3203
   64SAPC  H18Z 5264   7.183   5.862   4.042  0.5176 -0.8142 -2.4837
   65SAPC     N 5265   4.435   3.209   1.582  0.3819  0.4230  0.4590
   65SAPC   C12 5266   4.405   3.094   1.678  0.1505  0.2139 -0.3467
   65SAPC  H12A 5267   4.340   3.021   1.632 -0.3045 -0.7694  1.7239
   65SAPC  H12B 5268   4.341   3.133   1.755  1.3541  1.6464 -0.0273
   65SAPC   C13 5269   4.306   3.260   1.516  0.1035 -0.1749  0.0067
   65SAPC  H13A 5270   4.340   3.332   1.444  1.2057 -0.7384 -0.0605
   65SAPC  H13B 5271   4.253   3.179   1.468 -0.9284 -0.4687  1.5481
   65SAPC  H13C 5272   4.233   3.307   1.580  0.6535  0.5815  0.0964
   65SAPC   C14 5273   4.496   3.326   1.646 -0.4135  1.0909 -0.3218
   65SAPC  H14A 5274   4.431   3.353   1.728 -2.4903 -1.1330 -1.1177
   65SAPC  H14B 5275   4.589   3.313   1.700 -2.7239 -1.2392  3.5355
   65SAPC  H14C 5276   4.517   3.401   1.571  0.9715 -0.9148 -2.0759
   65SAPC   C15 5277   4.523   3.163   1.464  0.1909 -0.0204 -0.5581
   65SAPC  H15A 5278   4.478   3.069   1.434 -0.1367 -0.6392  1.7326
   65SAPC  H15B 5279   4.528   3.234   1.382 -3.2180  0.5407 -0.4391
   65SAPC  H15C 5280   4.622   3.141   1.499  0.2038 -0.3304 -0.7865
   65SAPC   C11 5281   4.527   3.031   1.748  0.5181  0.3478 -0.6974
   65SAPC  H11A 5282   4.608   3.007   1.676  3.2972  0.2721  2.2170
   65SAPC  H11B 5283   4.496   2.942   1.808 -0.7109  1.3630  0.2201
   65SAPC     P 5284   4.508   3.165   1.974 -0.2493 -0.6313 -0.3046
   65SAPC   O13 5285   4.602   3.251   2.048  0.3029  0.5495 -0.1599
   65SAPC   O14 5286   4.377   3.226   1.947  0.1598  0.1105 -0.1810
   65SAPC   O12 5287   4.582   3.128   1.838  0.0023  0.3598 -0.2384
   65SAPC   O11 5288   4.486   3.038   2.054  0.6878  0.2306 -0.1277
   65SAPC    C1 5289   4.586   2.941   2.063 -0.1431  0.3894 -0.0806
   65SAPC    HA 5290   4.581   2.864   1.983  0.0880 -0.6405  0.8744
   65SAPC    HB 5291   4.688   2.981   2.079  0.6173 -1.3872 -0.2586
   65SAPC    C2 5292   4.566   2.857   2.196  0.1450  0.6500 -0.4598
   65SAPC    HS 5293   4.458   2.837   2.213 -0.4430  1.3758 -2.9482
   65SAPC   O21 5294   4.634   2.927   2.300  0.0110  0.4955 -0.0062
   65SAPC   C21 5295   4.561   2.995   2.390  0.8905  0.4531 -0.1358
   65SAPC   O22 5296   4.438   3.006   2.383 -0.4619  0.2900 -0.3497
   65SAPC   C22 5297   4.650   3.054   2.504  0.4716  0.1028  0.6578
   65SAPC   H2R 5298   4.629   3.162   2.485 -0.7692 -0.2738 -0.2227
   65SAPC   H2S 5299   4.610   3.014   2.600  0.7477 -1.4753  0.1412
   65SAPC    C3 5300   4.646   2.723   2.188  0.0700 -0.5297 -0.0074
   65SAPC    HX 5301   4.746   2.759   2.158 -0.2877 -0.2729 -0.9081
   65SAPC    HY 5302   4.597   2.659   2.112 -0.1482  1.7893 -1.9427
   65SAPC   O31 5303   4.656   2.654   2.316  0.6470 -0.9394 -0.3051
   65SAPC   C31 5304   4.555   2.580   2.358 -0.3494 -0.3064  0.2843
   65SAPC   O32 5305   4.464   2.536   2.289 -0.3640 -0.4402  0.0462
   65SAPC   C32 5306   4.580   2.542   2.504  0.4313 -0.0847  0.0744
   65SAPC   H2X 5307   4.682   2.499   2.505  1.2106  1.6464 -0.8208
   65SAPC   H2Y 5308   4.496   2.478   2.540 -0.3597  0.5361 -0.6241
   65SAPC   C23 5309   4.795   3.020   2.487  0.1178  0.2170 -0.3935
   65SAPC   H3R 5310   4.831   3.032   2.383 -1.0150 -2.9511 -1.2821
   65SAPC   H3S 5311   4.813   2.916   2.521 -1.5445 -0.0936 -0.3775
   65SAPC   C24 5312   4.880   3.110   2.573  0.0806 -0.0867 -0.4196
   65SAPC   H4R 5313   4.885   3.081   2.680 -0.0830  2.5938  0.3803
   65SAPC   H4S 5314   4.839   3.213   2.579 -1.0102 -0.6130  2.3740
   65SAPC   C25 5315   5.010   3.116   2.506  0.0730  0.3613  0.2968
   65SAPC   H5R 5316   5.013   3.132   2.397  0.6764  1.0140  0.3972
   65SAPC   C26 5317   5.134   3.123   2.556  0.1995 -0.2806  0.0777
   65SAPC   H6R 5318   5.215   3.134   2.483 -0.0776  1.1108 -0.0408
   65SAPC   C27 5319   5.181   3.108   2.703  0.3017 -0.8200 -0.2714
   65SAPC   H7R 5320   5.285   3.069   2.710  0.5931 -0.0519 -0.2586
   65SAPC   H7S 5321   5.110   3.046   2.761 -0.3311 -0.3994 -0.5791
   65SAPC   C28 5322   5.174   3.232   2.784  0.2881  0.1094  0.0012
   65SAPC   H8R 5323   5.140   3.324   2.735  0.6748  1.8326  2.7359
   65SAPC   C29 5324   5.205   3.253   2.913 -0.6049 -0.4494  0.0091
   65SAPC   H9R 5325   5.217   3.358   2.943 -0.7731 -0.8209  1.4001
   65SAPC  C210 5326   5.258   3.154   3.014 -0.2844 -0.5991  0.2937
   65SAPC  H10R 5327   5.365   3.184   3.021  0.1066 -1.3894 -1.7339
   65SAPC  H10S 5328   5.259   3.048   2.982 -2.6109 -1.6491  3.2134
   65SAPC  C211 5329   5.175   3.165   3.137  1.0185  0.5691  0.5635
   65SAPC  H11R 5330   5.073   3.127   3.117  0.4397  1.7850  1.1051
   65SAPC  C212 5331   5.217   3.196   3.258  0.3000 -0.5667 -0.1814
   65SAPC  H12R 5332   5.140   3.209   3.336  1.0872  2.4903  0.2161
   65SAPC  C213 5333   5.354   3.240   3.295 -0.2051 -0.4678  0.1076
   65SAPC  H13R 5334   5.426   3.167   3.251  1.0361 -1.0408  2.8314
   65SAPC  H13S 5335   5.371   3.246   3.405  1.9550  1.0933 -0.2456
   65SAPC  C214 5336   5.389   3.375   3.242 -0.1690  0.0646  0.3698
   65SAPC  H14R 5337   5.328   3.413   3.159  1.4609  2.1771  0.0449
   65SAPC  C215 5338   5.493   3.446   3.293  0.2562 -0.0850 -0.2391
   65SAPC  H15R 5339   5.495   3.548   3.253 -1.0311  0.0032 -0.1238
   65SAPC  C216 5340   5.589   3.408   3.408  0.6020 -1.2263  0.5344
   65SAPC  H16R 5341   5.528   3.347   3.477 -0.0323  0.1973  1.2679
   65SAPC  H16S 5342   5.606   3.497   3.471  1.9159 -1.4097  0.4841
   65SAPC  C217 5343   5.726   3.348   3.376  1.0109 -0.2424  0.0048
   65SAPC  H17R 5344   5.713   3.277   3.292 -1.8274  2.6738 -2.2842
   65SAPC  H17S 5345   5.772   3.292   3.460 -1.3126 -1.4692  0.5603
   65SAPC  C218 5346   5.830   3.448   3.335  0.8943  0.5293  0.1298
   65SAPC  H18R 5347   5.887   3.477   3.426 -1.0466 -1.2351  2.0224
   65SAPC  H18S 5348   5.777   3.543   3.314 -0.8324  0.2131  2.6238
   65SAPC  C219 5349   5.918   3.402   3.225 -0.4318  0.6699 -0.3540
   65SAPC  H19R 5350   5.857   3.379   3.135 -0.1211  1.6676 -0.8310
   65SAPC  H19S 5351   5.979   3.311   3.245  0.0936  0.0783 -3.9789
   65SAPC  C220 5352   6.022   3.509   3.181  0.0506 -0.2042  0.2334
   65SAPC  H20R 5353   6.094   3.468   3.108 -1.3329  1.3985 -2.1724
   65SAPC  H20S 5354   6.070   3.542   3.276  0.0950  0.1075  0.1026
   65SAPC  H20T 5355   5.966   3.592   3.134  0.9096  0.0045 -0.4383
   65SAPC   C33 5356   4.571   2.665   2.593 -0.5432 -0.2603 -0.4320
   65SAPC   H3X 5357   4.482   2.723   2.560 -0.5109 -0.3686 -0.7201
   65SAPC   H3Y 5358   4.663   2.725   2.587 -1.1756  1.1663  2.4356
   65SAPC   C34 5359   4.560   2.631   2.748 -0.6040 -0.4120 -0.3895
   65SAPC   H4X 5360   4.660   2.589   2.773 -0.1825  0.8059  0.0527
   65SAPC   H4Y 5361   4.482   2.559   2.779 -0.5677 -0.3778 -0.2132
   65SAPC   C35 5362   4.550   2.766   2.826  0.3589  0.4581 -0.4295
   65SAPC   H5X 5363   4.451   2.800   2.788 -0.7548 -3.0451 -0.9731
   65SAPC   H5Y 5364   4.632   2.833   2.791  2.1716 -0.2336  2.2096
   65SAPC   C36 5365   4.542   2.762   2.977  0.0397  0.0584  0.0089
   65SAPC   H6X 5366   4.509   2.863   3.008 -0.2951  0.6624 -2.1539
   65SAPC   H6Y 5367   4.644   2.743   3.017  0.8487  1.5491 -1.2545
   65SAPC   C37 5368   4.439   2.656   3.028 -1.1669 -0.5607  0.2799
   65SAPC   H7X 5369   4.460   2.555   2.986  2.4580  0.5656 -0.9541
   65SAPC   H7Y 5370   4.337   2.692   3.002 -2.3579  0.0591  4.9213
   65SAPC   C38 5371   4.440   2.632   3.178  0.6205 -0.2523 -0.3819
   65SAPC   H8X 5372   4.533   2.576   3.200  0.6233  0.5453  1.8362
   65SAPC   H8Y 5373   4.352   2.566   3.190 -1.4018  1.7509 -2.9021
   65SAPC   C39 5374   4.445   2.753   3.263 -0.2810 -0.3505  0.4239
   65SAPC   H9X 5375   4.352   2.808   3.240 -0.8002 -0.7910  1.3974
   65SAPC   H9Y 5376   4.536   2.811   3.238 -1.0017  0.7927  0.4239
   65SAPC  C310 5377   4.448   2.741   3.416 -0.7649  0.1508 -0.5654
   65SAPC  H10X 5378   4.487   2.639   3.436  1.9937  0.8892 -1.7218
   65SAPC  H10Y 5379   4.342   2.751   3.449 -0.4723  0.1473  0.3953
   65SAPC  C311 5380   4.538   2.843   3.498 -0.2420  0.2992 -0.0707
   65SAPC  H11X 5381   4.486   2.941   3.509  0.9774  0.9498  0.2145
   65SAPC  H11Y 5382   4.627   2.863   3.434  0.0763 -0.8657 -0.0023
   65SAPC  C312 5383   4.588   2.792   3.635 -0.2127  0.1042 -0.0785
   65SAPC  H12X 5384   4.504   2.729   3.672 -0.2745 -0.0207 -0.4287
   65SAPC  H12Y 5385   4.596   2.880   3.703 -1.4635  0.6796 -0.6348
   65SAPC  C313 5386   4.716   2.703   3.644  0.0293 -0.5117 -0.4711
   65SAPC  H13X 5387   4.807   2.766   3.647  0.3649 -1.0077  0.0238
   65SAPC  H13Y 5388   4.717   2.641   3.551 -2.7658 -0.7832 -0.3810
   65SAPC  C314 5389   4.710   2.611   3.764 -0.4234  0.3268 -1.1937
   65SAPC  H14X 5390   4.800   2.546   3.767 -1.4303 -1.1213  1.3606
   65SAPC  H14Y 5391   4.620   2.546   3.753  0.0869 -0.8390  0.8577
   65SAPC  C315 5392   4.710   2.694   3.899 -0.7713 -0.1979 -0.1169
   65SAPC  H15X 5393   4.675   2.620   3.974  0.4515  1.8991  2.7498
   65SAPC  H15Y 5394   4.637   2.777   3.888 -0.4538 -0.0409 -1.1857
   65SAPC  C316 5395   4.854   2.736   3.930 -0.1916 -0.9674 -0.6290
   65SAPC  H16X 5396   4.901   2.785   3.842  1.0709  1.0443  1.0647
   65SAPC  H16Y 5397   4.913   2.646   3.955  0.3976  0.0521  2.0564
   65SAPC  C317 5398   4.859   2.833   4.054 -0.9761  0.1962  0.3964
   65SAPC  H17X 5399   4.840   2.764   4.140  0.7811 -0.0748  0.6070
   65SAPC  H17Y 5400   4.779   2.909   4.052 -0.1087  1.1077 -0.7143
   65SAPC  C318 5401   4.988   2.914   4.068 -0.0192 -0.1857  0.3054
   65SAPC  H18X 5402   5.069   2.856   4.116  0.2491  1.1228  1.4840
   65SAPC  H18Y 5403   4.972   3.008   4.125 -0.7749  0.2901 -0.6501
   65SAPC  H18Z 5404   5.035   2.947   3.972  0.3124  2.3968  1.2790
   66SAPC     N 5405   1.771   3.912   1.357  0.2429  0.0852  0.0497
   66SAPC   C12 5406   1.754   4.009   1.470 -0.0752  0.1037  0.3329
   66SAPC  H12A 5407   1.653   4.001   1.508 -0.2463  0.5009 -0.0310
   66SAPC  H12B 5408   1.765   4.107   1.425  0.3238 -1.0268 -2.2156
   66SAPC   C13 5409   1.744   3.773   1.394  0.2286  0.5035  0.6882
   66SAPC  H13A 5410   1.801   3.741   1.480  0.4331 -3.7253 -0.7766
   66SAPC  H13B 5411   1.637   3.769   1.406 -0.2204 -0.9183 -2.6240
   66SAPC  H13C 5412   1.762   3.698   1.318  1.0123 -0.2316  1.5763
   66SAPC   C14 5413   1.679   3.948   1.247 -0.1303  0.0998  0.7081
   66SAPC  H14A 5414   1.680   3.873   1.169  3.5580  0.1350  0.5527
   66SAPC  H14B 5415   1.579   3.957   1.288  0.1323 -1.2065  1.6986
   66SAPC  H14C 5416   1.703   4.040   1.197  2.3248  0.2629  2.0237
   66SAPC   C15 5417   1.911   3.917   1.302  0.2836  0.1984 -0.9129
   66SAPC  H15A 5418   1.935   3.832   1.240 -0.3159 -0.7971  0.1799
   66SAPC  H15B 5419   1.920   4.010   1.247 -0.4413  0.8807  0.0737
   66SAPC  H15C 5420   1.969   3.928   1.393 -0.9822  0.1218 -0.0811
   66SAPC   C11 5421   1.836   3.987   1.597  0.3673  0.0253  0.4044
   66SAPC  H11A 5422   1.841   4.081   1.657  2.6406  1.5549 -1.9586
   66SAPC  H11B 5423   1.942   3.957   1.582 -0.2821 -2.1304 -0.1977
   66SAPC     P 5424   1.675   3.925   1.794 -0.2428  0.2864 -0.3422
   66SAPC   O13 5425   1.608   4.049   1.749  0.6275 -0.6084  0.3369
   66SAPC   O14 5426   1.590   3.811   1.842 -0.0585 -0.3856  0.3608
   66SAPC   O12 5427   1.771   3.879   1.669 -0.2943 -0.3688  0.1199
   66SAPC   O11 5428   1.786   3.955   1.912  0.0619 -0.1151  0.0244
   66SAPC    C1 5429   1.812   3.852   2.013 -0.1630 -0.1281 -0.6869
   66SAPC    HA 5430   1.812   3.754   1.960  2.6780 -0.4933 -0.1383
   66SAPC    HB 5431   1.917   3.856   2.047 -0.0695  2.3577 -1.1398
   66SAPC    C2 5432   1.719   3.843   2.138  0.4229  0.6020 -0.6860
   66SAPC    HS 5433   1.616   3.812   2.109 -0.3765  0.8145  1.6742
   66SAPC   O21 5434   1.716   3.973   2.191 -0.5324 -0.1837 -0.1119
   66SAPC   C21 5435   1.601   4.035   2.178 -0.4987 -0.1778  0.2296
   66SAPC   O22 5436   1.493   3.996   2.130 -0.6332  0.3145  0.5938
   66SAPC   C22 5437   1.609   4.169   2.251  0.2127 -0.0528  0.4435
   66SAPC   H2R 5438   1.699   4.219   2.210 -0.5561  0.8720 -0.1492
   66SAPC   H2S 5439   1.519   4.229   2.229  1.6242  2.6974  1.6106
   66SAPC    C3 5440   1.774   3.735   2.235 -0.2140  0.1202 -0.3670
   66SAPC    HX 5441   1.873   3.765   2.275  0.1184 -0.6034 -0.6482
   66SAPC    HY 5442   1.793   3.647   2.170  3.0891  2.7705 -3.4337
   66SAPC   O31 5443   1.688   3.687   2.345 -0.0698 -0.1384 -0.3312
   66SAPC   C31 5444   1.687   3.768   2.457  0.2266  0.0490  0.5536
   66SAPC   O32 5445   1.758   3.866   2.472 -0.5040 -0.0073 -0.1599
   66SAPC   C32 5446   1.583   3.717   2.555 -0.7291 -0.4201 -0.7041
   66SAPC   H2X 5447   1.577   3.606   2.552 -0.2306 -0.4249 -2.3190
   66SAPC   H2Y 5448   1.483   3.758   2.528 -0.8325 -1.1927 -1.5607
   66SAPC   C23 5449   1.634   4.171   2.400 -0.1439 -0.2504 -0.4925
   66SAPC   H3R 5450   1.642   4.274   2.440 -0.6214 -0.3098 -0.2446
   66SAPC   H3S 5451   1.727   4.114   2.418 -0.7285 -0.3933  2.5837
   66SAPC   C24 5452   1.528   4.094   2.478  0.1460  0.5829  0.4151
   66SAPC   H4R 5453   1.573   4.062   2.574  1.6589  0.3285 -0.3593
   66SAPC   H4S 5454   1.492   4.004   2.424 -0.8950  1.4619 -0.4163
   66SAPC   C25 5455   1.402   4.176   2.512 -0.1215 -0.5904 -0.5249
   66SAPC   H5R 5456   1.352   4.219   2.424 -1.8545  0.3162  0.8282
   66SAPC   C26 5457   1.343   4.203   2.633 -0.2375  0.0136 -0.3769
   66SAPC   H6R 5458   1.250   4.261   2.637 -0.2280 -0.0266  1.1347
   66SAPC   C27 5459   1.400   4.140   2.760  0.6083  0.3348  0.3976
   66SAPC   H7R 5460   1.448   4.041   2.747 -1.0504 -0.2658 -1.8157
   66SAPC   H7S 5461   1.313   4.114   2.824  0.6114  1.7507  1.0096
   66SAPC   C28 5462   1.493   4.241   2.828  0.0832  0.4652 -0.5595
   66SAPC   H8R 5463   1.597   4.256   2.794 -0.5169  2.7183 -1.5438
   66SAPC   C29 5464   1.459   4.306   2.941 -0.0395  0.3444  0.0961
   66SAPC   H9R 5465   1.531   4.369   2.995 -0.0580  0.4455  0.0018
   66SAPC  C210 5466   1.322   4.308   3.013 -0.9583  0.2148  0.6422
   66SAPC  H10R 5467   1.281   4.206   3.027 -0.2585 -0.2800 -0.7195
   66SAPC  H10S 5468   1.252   4.359   2.944  0.7205 -0.1917 -1.4443
   66SAPC  C211 5469   1.332   4.386   3.139  0.4846  0.0899 -0.2549
   66SAPC  H11R 5470   1.411   4.462   3.151 -0.6395  0.9623  2.4818
   66SAPC  C212 5471   1.253   4.370   3.247  0.1587  0.1493  1.0625
   66SAPC  H12R 5472   1.273   4.431   3.336  0.2544  0.1725  1.0253
   66SAPC  C213 5473   1.130   4.281   3.245 -0.3436 -0.2137 -0.5479
   66SAPC  H13R 5474   1.151   4.200   3.318 -1.1239 -0.7643 -0.9164
   66SAPC  H13S 5475   1.120   4.234   3.145  0.6661  2.2128 -1.8727
   66SAPC  C214 5476   1.013   4.367   3.285 -0.1984 -0.0471  0.1564
   66SAPC  H14R 5477   1.032   4.465   3.330 -0.8121  0.8525 -1.4784
   66SAPC  C215 5478   0.886   4.342   3.236  0.2649 -0.0664  0.2518
   66SAPC  H15R 5479   0.802   4.409   3.258 -1.0887 -1.9376  1.0428
   66SAPC  C216 5480   0.845   4.219   3.159 -0.3265  0.9785 -0.2881
   66SAPC  H16R 5481   0.744   4.181   3.187  0.7543 -1.5347  0.5633
   66SAPC  H16S 5482   0.924   4.141   3.174 -0.1428  1.4872  1.6245
   66SAPC  C217 5483   0.850   4.265   3.015 -0.3705  0.1433  0.5977
   66SAPC  H17R 5484   0.947   4.303   2.978 -0.2033 -2.4533 -1.9667
   66SAPC  H17S 5485   0.762   4.331   2.996  0.2769  0.8191 -0.1528
   66SAPC  C218 5486   0.825   4.142   2.920  0.4959 -0.5842 -0.1830
   66SAPC  H18R 5487   0.750   4.070   2.960  1.8961 -1.7978  0.3106
   66SAPC  H18S 5488   0.920   4.087   2.908  0.2070 -0.7916 -1.6644
   66SAPC  C219 5489   0.780   4.169   2.774 -0.1017  0.1844 -0.0229
   66SAPC  H19R 5490   0.671   4.189   2.778 -0.0388  1.3696 -2.3141
   66SAPC  H19S 5491   0.787   4.081   2.708  2.4270  0.5708 -0.3917
   66SAPC  C220 5492   0.853   4.282   2.705 -0.5369  1.1640  0.0794
   66SAPC  H20R 5493   0.963   4.268   2.706 -0.9166 -3.2660  1.6814
   66SAPC  H20S 5494   0.832   4.376   2.760 -1.8540  2.0341 -1.7986
   66SAPC  H20T 5495   0.818   4.290   2.599 -0.5266 -1.9140 -0.2436
   66SAPC   C33 5496   1.617   3.758   2.705  0.0568  0.5712 -0.0340
   66SAPC   H3X 5497   1.641   3.866   2.713  1.8686  0.0890  1.9100
   66SAPC   H3Y 5498   1.705   3.697   2.737 -0.6142  0.1025  0.9919
   66SAPC   C34 5499   1.505   3.745   2.806  0.0116  0.0471  0.0831
   66SAPC   H4X 5500   1.490   3.638   2.831  2.2828 -0.4063 -0.2932
   66SAPC   H4Y 5501   1.412   3.782   2.757 -0.2292 -0.7094 -0.0369
   66SAPC   C35 5502   1.526   3.831   2.938  0.2635  0.0129  0.0045
   66SAPC   H5X 5503   1.540   3.935   2.900 -1.6711  0.7130  1.0319
   66SAPC   H5Y 5504   1.610   3.787   2.994  0.4284 -1.9633 -1.6600
   66SAPC   C36 5505   1.401   3.834   3.032 -0.1313 -0.0730  0.3402
   66SAPC   H6X 5506   1.392   3.741   3.091 -1.3529 -1.2871 -1.6198
   66SAPC   H6Y 5507   1.306   3.839   2.975 -0.0347  1.0232  0.2453
   66SAPC   C37 5508   1.404   3.949   3.135  0.4674  0.1168 -0.5491
   66SAPC   H7X 5509   1.304   3.954   3.183  1.0534 -0.1800  0.7292
   66SAPC   H7Y 5510   1.426   4.047   3.089  1.3001 -1.0230 -2.7491
   66SAPC   C38 5511   1.507   3.929   3.248 -0.4046 -0.4523 -0.4129
   66SAPC   H8X 5512   1.611   3.961   3.223 -0.3609 -0.9425 -0.8778
   66SAPC   H8Y 5513   1.498   3.822   3.275 -2.7996 -0.3695 -0.6547
   66SAPC   C39 5514   1.471   4.016   3.373 -0.3199 -0.2793 -0.8458
   66SAPC   H9X 5515   1.366   3.988   3.399  0.7438 -3.4585  0.5963
   66SAPC   H9Y 5516   1.482   4.121   3.340  0.3116 -0.6918 -2.0278
   66SAPC  C310 5517   1.558   3.974   3.498  0.8875 -0.0946 -0.2509
   66SAPC  H10X 5518   1.665   4.000   3.478  0.8393  1.3484  1.1142
   66SAPC  H10Y 5519   1.546   3.866   3.520 -0.2364 -0.4233 -2.2467
   66SAPC  C311 5520   1.523   4.037   3.634  0.2709  0.0500 -0.4999
   66SAPC  H11X 5521   1.416   4.008   3.642  0.1752  0.5136 -0.0437
   66SAPC  H11Y 5522   1.525   4.148   3.629  0.4164  0.1622  1.3701
   66SAPC  C312 5523   1.617   4.004   3.745 -0.6286 -0.4112  0.4870
   66SAPC  H12X 5524   1.722   4.017   3.711 -0.9985  1.1423 -0.1414
   66SAPC  H12Y 5525   1.618   3.895   3.767 -0.7754 -0.7157 -0.9067
   66SAPC  C313 5526   1.591   4.094   3.866  0.1493 -0.0642 -0.5433
   66SAPC  H13X 5527   1.506   4.057   3.926 -0.0981  1.8639  0.3959
   66SAPC  H13Y 5528   1.564   4.199   3.839  0.2212  0.2461  0.5520
   66SAPC  C314 5529   1.716   4.102   3.962 -0.5411 -0.0535 -0.1266
   66SAPC  H14X 5530   1.690   4.171   4.046  0.4438  0.0684  0.0898
   66SAPC  H14Y 5531   1.804   4.144   3.908 -1.2597  1.5586 -0.1099
   66SAPC  C315 5532   1.741   3.968   4.042  0.5577 -0.2140  0.3876
   66SAPC  H15X 5533   1.792   3.895   3.976  1.7254  0.8450  0.0766
   66SAPC  H15Y 5534   1.644   3.926   4.078  0.3161 -4.4777 -4.1559
   66SAPC  C316 5535   1.838   3.980   4.160 -0.0225  0.3530 -0.0853
   66SAPC  H16X 5536   1.827   4.082   4.202 -2.4328  1.0931 -2.2322
   66SAPC  H16Y 5537   1.939   3.968   4.116  0.2430 -0.4638  0.7080
   66SAPC  C317 5538   1.818   3.867   4.263 -0.3816  0.0458 -0.2600
   66SAPC  H17X 5539   1.807   3.776   4.201  0.0447 -0.9786  1.1191
   66SAPC  H17Y 5540   1.722   3.883   4.315  0.0341  0.5431  0.3749
   66SAPC  C318 5541   1.919   3.852   4.372  0.0166  0.4399 -0.2535
   66SAPC  H18X 5542   1.930   3.950   4.424 -1.8210  0.3710  0.3430
   66SAPC  H18Y 5543   2.021   3.822   4.337  0.2809  1.5802 -0.5134
   66SAPC  H18Z 5544   1.891   3.779   4.451 -1.8939  3.1426  1.7517
   67SAPC     N 5545   0.064   4.816   1.572  0.1305  0.9049 -0.0685
   67SAPC   C12 5546   0.021   4.887   1.701 -0.2364 -0.3475  0.3079
   67SAPC  H12A 5547  -0.003   4.991   1.683 -0.8858 -0.4713  0.4328
   67SAPC  H12B 5548   0.109   4.899   1.762 -0.5784 -0.4339  0.8324
   67SAPC   C13 5549   0.177   4.893   1.515 -0.2609  0.1489  0.5089
   67SAPC  H13A 5550   0.138   4.973   1.454 -2.1671 -0.0037  1.4402
   67SAPC  H13B 5551   0.235   4.932   1.598  1.7521 -1.7669  0.0920
   67SAPC  H13C 5552   0.241   4.837   1.450 -0.1204  0.2855  0.5287
   67SAPC   C14 5553   0.122   4.678   1.600 -0.1505  0.5822 -0.9337
   67SAPC  H14A 5554   0.154   4.625   1.512  0.6154  0.7717 -0.7795
   67SAPC  H14B 5555   0.209   4.689   1.663 -0.3498 -0.0023 -0.5379
   67SAPC  H14C 5556   0.054   4.622   1.664  1.5718 -0.0867  0.4178
   67SAPC   C15 5557  -0.042   4.803   1.464  0.4619  0.7282 -0.2422
   67SAPC  H15A 5558  -0.131   4.745   1.484 -0.3148  1.4485 -1.5027
   67SAPC  H15B 5559  -0.073   4.903   1.438 -0.1904  0.0110 -2.4189
   67SAPC  H15C 5560   0.011   4.755   1.383  0.8319 -0.7781  0.8429
   67SAPC   C11 5561  -0.096   4.822   1.781 -0.6104  0.7516  0.2038
   67SAPC  H11A 5562  -0.089   4.856   1.886  0.1632  0.9878  0.0782
   67SAPC  H11B 5563  -0.061   4.718   1.794  3.2664  1.6964 -1.3078
   67SAPC     P 5564  -0.291   4.973   1.738 -0.2508 -0.4898 -0.2066
   67SAPC   O13 5565  -0.200   5.087   1.708 -0.2705  0.2416  0.3407
   67SAPC   O14 5566  -0.423   4.967   1.672 -0.1941  0.0979  0.2760
   67SAPC   O12 5567  -0.220   4.838   1.715  0.2365  0.2404 -0.1443
   67SAPC   O11 5568  -0.326   4.970   1.889  0.0803  0.0399  0.2618
   67SAPC    C1 5569  -0.383   4.870   1.965 -0.2132  0.2155  0.2773
   67SAPC    HA 5570  -0.422   4.782   1.910  0.9182 -0.0918 -0.0624
   67SAPC    HB 5571  -0.311   4.814   2.028 -0.2131 -1.0031 -0.7635
   67SAPC    C2 5572  -0.487   4.930   2.052 -0.2350 -0.7096  0.0939
   67SAPC    HS 5573  -0.542   4.996   1.982  0.2141  0.8500  1.1688
   67SAPC   O21 5574  -0.433   5.006   2.162  1.1181  0.4544  0.4251
   67SAPC   C21 5575  -0.519   5.092   2.218 -0.4842 -0.7179 -0.1978
   67SAPC   O22 5576  -0.633   5.109   2.177  0.9267  0.3730 -0.5414
   67SAPC   C22 5577  -0.447   5.174   2.337  0.5867 -0.2347  0.1915
   67SAPC   H2R 5578  -0.345   5.137   2.360  0.2971 -2.4043 -1.6303
   67SAPC   H2S 5579  -0.456   5.278   2.300 -0.9348 -0.2449  0.4505
   67SAPC    C3 5580  -0.583   4.824   2.096  0.4425  0.3524 -0.7976
   67SAPC    HX 5581  -0.625   4.766   2.010  1.4554  0.1974 -1.2116
   67SAPC    HY 5582  -0.662   4.869   2.159 -1.6044 -0.5671 -2.5776
   67SAPC   O31 5583  -0.511   4.720   2.175  0.4610  0.0324  0.4857
   67SAPC   C31 5584  -0.598   4.636   2.238 -0.0479  0.4047 -0.0332
   67SAPC   O32 5585  -0.714   4.659   2.247  0.1374 -0.3180  0.0147
   67SAPC   C32 5586  -0.528   4.522   2.309  0.2063 -0.6286  0.2087
   67SAPC   H2X 5587  -0.463   4.471   2.235  4.1394 -0.4231  3.2163
   67SAPC   H2Y 5588  -0.602   4.443   2.336 -0.1908 -1.1211 -2.1488
   67SAPC   C23 5589  -0.523   5.147   2.472  0.1535 -0.1039 -0.2485
   67SAPC   H3R 5590  -0.628   5.169   2.444 -0.0348 -1.5312 -0.7165
   67SAPC   H3S 5591  -0.493   5.221   2.550  0.6251 -3.4205  2.9858
   67SAPC   C24 5592  -0.521   5.007   2.537  0.0334  0.8759  0.6552
   67SAPC   H4R 5593  -0.575   4.946   2.461  1.0372 -0.5325  1.0426
   67SAPC   H4S 5594  -0.589   5.013   2.624 -2.1361  0.6139 -0.9371
   67SAPC   C25 5595  -0.393   4.941   2.569  0.4458  0.6796 -0.2766
   67SAPC   H5R 5596  -0.367   4.856   2.505  1.9379  1.1205 -0.3045
   67SAPC   C26 5597  -0.313   4.960   2.676  0.6011 -0.3284 -0.1534
   67SAPC   H6R 5598  -0.234   4.884   2.687  0.5830 -0.5066 -1.1307
   67SAPC   C27 5599  -0.352   5.045   2.796  0.5478  0.0529 -0.4715
   67SAPC   H7R 5600  -0.359   4.979   2.885 -0.4661  0.5832 -0.1440
   67SAPC   H7S 5601  -0.453   5.088   2.779  0.8077  1.1660  0.6180
   67SAPC   C28 5602  -0.258   5.160   2.825 -0.3310  0.2372  0.1409
   67SAPC   H8R 5603  -0.236   5.234   2.745 -0.9972 -1.5362 -1.7743
   67SAPC   C29 5604  -0.211   5.194   2.949 -0.1465  0.6854 -0.8981
   67SAPC   H9R 5605  -0.146   5.283   2.953  2.8516 -1.3390 -1.0363
   67SAPC  C210 5606  -0.232   5.130   3.088  0.2664 -0.2692  0.1318
   67SAPC  H10R 5607  -0.273   5.026   3.096  1.9575 -0.8572  1.9207
   67SAPC  H10S 5608  -0.302   5.189   3.151  0.5840  0.3228 -0.0663
   67SAPC  C211 5609  -0.090   5.119   3.140 -0.4747  0.1335 -0.9359
   67SAPC  H11R 5610  -0.017   5.103   3.059 -0.3475 -0.8533 -0.6468
   67SAPC  C212 5611  -0.055   5.142   3.273 -0.1657  0.0702  0.0381
   67SAPC  H12R 5612   0.050   5.128   3.302  1.4503  1.2782 -4.3606
   67SAPC  C213 5613  -0.156   5.164   3.383 -0.4908  0.4402  0.3218
   67SAPC  H13R 5614  -0.238   5.231   3.348 -1.5447 -0.8798  0.1596
   67SAPC  H13S 5615  -0.103   5.232   3.453  2.6620  1.8598 -3.1671
   67SAPC  C214 5616  -0.207   5.029   3.438 -0.3732  0.1376 -0.5130
   67SAPC  H14R 5617  -0.283   4.981   3.375  0.8239 -0.2317 -1.7188
   67SAPC  C215 5618  -0.168   4.961   3.550 -0.2239  0.2274 -0.3078
   67SAPC  H15R 5619  -0.226   4.873   3.582  1.2562 -0.6937 -0.0970
   67SAPC  C216 5620  -0.064   5.008   3.648 -0.2162  0.3881 -0.1285
   67SAPC  H16R 5621  -0.052   5.118   3.638  0.6635  0.2342 -0.9976
   67SAPC  H16S 5622   0.041   4.975   3.634  1.5647  3.8680  3.1694
   67SAPC  C217 5623  -0.099   4.979   3.797 -0.0640  0.2056  0.3771
   67SAPC  H17R 5624  -0.008   4.999   3.858  0.1876  1.3125 -0.3132
   67SAPC  H17S 5625  -0.113   4.869   3.804 -0.7871  0.3375  1.1184
   67SAPC  C218 5626  -0.228   5.037   3.846 -0.5261 -0.5108 -0.1232
   67SAPC  H18R 5627  -0.311   5.004   3.780  0.3098 -0.5959 -1.1526
   67SAPC  H18S 5628  -0.225   5.144   3.818 -0.6186  0.1252  2.1026
   67SAPC  C219 5629  -0.260   5.014   3.997  0.0073 -0.4186  0.6174
   67SAPC  H19R 5630  -0.181   5.074   4.047  1.8410 -1.4075 -0.9431
   67SAPC  H19S 5631  -0.236   4.907   4.014  2.1012  0.3070  2.7516
   67SAPC  C220 5632  -0.403   5.064   4.027  0.3848  0.2819 -0.3963
   67SAPC  H20R 5633  -0.474   5.000   3.970 -1.5533  1.0160  1.0896
   67SAPC  H20S 5634  -0.411   5.172   4.002  0.7199  0.3668 -0.1458
   67SAPC  H20T 5635  -0.427   5.059   4.135  2.2315  0.4838  0.0641
   67SAPC   C33 5636  -0.464   4.571   2.446  0.5483  0.2541 -0.0102
   67SAPC   H3X 5637  -0.402   4.661   2.427 -0.5998  1.1966  0.5950
   67SAPC   H3Y 5638  -0.407   4.485   2.485 -1.1041 -0.4760  0.9139
   67SAPC   C34 5639  -0.580   4.598   2.548 -0.7780 -0.3910 -0.0698
   67SAPC   H4X 5640  -0.653   4.514   2.547  0.0457 -1.1543  0.9657
   67SAPC   H4Y 5641  -0.641   4.688   2.525 -1.0181  0.6097  3.8967
   67SAPC   C35 5642  -0.545   4.613   2.702  0.5892 -0.3486  0.2351
   67SAPC   H5X 5643  -0.476   4.698   2.718  0.9762  0.3528 -3.8937
   67SAPC   H5Y 5644  -0.501   4.517   2.737 -1.8594 -1.6567 -0.0522
   67SAPC   C36 5645  -0.686   4.624   2.782 -1.5462 -1.1297  0.1492
   67SAPC   H6X 5646  -0.742   4.538   2.739 -2.3351 -0.3625 -0.3912
   67SAPC   H6Y 5647  -0.716   4.725   2.747  1.3898 -0.4277 -0.6671
   67SAPC   C37 5648  -0.654   4.623   2.932  0.1230 -1.0348 -0.2166
   67SAPC   H7X 5649  -0.587   4.538   2.957  1.7248  0.1094 -0.4658
   67SAPC   H7Y 5650  -0.748   4.595   2.984 -0.8388  1.3613 -0.5260
   67SAPC   C38 5651  -0.604   4.759   2.988 -0.1449  0.2627  0.0740
   67SAPC   H8X 5652  -0.673   4.838   2.951  0.4737  0.3667 -0.8982
   67SAPC   H8Y 5653  -0.502   4.770   2.947 -0.4340 -0.5159 -0.8806
   67SAPC   C39 5654  -0.581   4.746   3.140  0.2125 -0.2360  0.3622
   67SAPC   H9X 5655  -0.534   4.838   3.181 -1.0907  0.6988 -0.1681
   67SAPC   H9Y 5656  -0.514   4.660   3.156 -0.6959 -1.3207 -1.3077
   67SAPC  C310 5657  -0.713   4.722   3.213  0.1273  0.0037  0.1766
   67SAPC  H10X 5658  -0.757   4.622   3.192 -0.6488  0.0006  1.6516
   67SAPC  H10Y 5659  -0.776   4.808   3.182  0.3649  0.7629  1.6759
   67SAPC  C311 5660  -0.706   4.736   3.368 -0.2363 -0.4347  0.0914
   67SAPC  H11X 5661  -0.653   4.647   3.407  0.4720  0.1212  0.4256
   67SAPC  H11Y 5662  -0.809   4.730   3.410  0.1341  4.1874  2.3597
   67SAPC  C312 5663  -0.643   4.865   3.422  0.4543  0.7551 -0.1243
   67SAPC  H12X 5664  -0.692   4.942   3.359 -1.5512 -1.0809 -0.9606
   67SAPC  H12Y 5665  -0.533   4.872   3.410  0.8171 -2.2839  0.5484
   67SAPC  C313 5666  -0.679   4.889   3.568  0.1003 -0.1799 -0.8613
   67SAPC  H13X 5667  -0.645   4.799   3.623 -2.0248  0.1650  1.1804
   67SAPC  H13Y 5668  -0.789   4.892   3.580  0.1911 -0.2724  0.1218
   67SAPC  C314 5669  -0.601   5.002   3.633 -0.6515 -0.2789  0.1891
   67SAPC  H14X 5670  -0.492   4.993   3.615 -0.6784  0.1353 -0.1968
   67SAPC  H14Y 5671  -0.603   4.990   3.744 -1.1843  2.6620  0.5613
   67SAPC  C315 5672  -0.659   5.141   3.598  0.2921 -0.4716 -0.1336
   67SAPC  H15X 5673  -0.681   5.141   3.489  1.4569  0.6318 -0.3862
   67SAPC  H15Y 5674  -0.583   5.220   3.613  1.9895 -1.6864 -1.7962
   67SAPC  C316 5675  -0.781   5.174   3.685 -0.2673 -0.4201  0.4484
   67SAPC  H16X 5676  -0.745   5.157   3.788 -2.3829  0.7846  1.4589
   67SAPC  H16Y 5677  -0.866   5.101   3.682 -0.3973 -0.2447 -0.6535
   67SAPC  C317 5678  -0.825   5.327   3.685 -0.5159 -0.5595  0.1654
   67SAPC  H17X 5679  -0.927   5.337   3.643 -0.8534 -0.7713  0.9173
   67SAPC  H17Y 5680  -0.751   5.375   3.618  0.6614 -1.7319  0.5810
   67SAPC  C318 5681  -0.824   5.407   3.814  0.2458 -0.2303  0.3440
   67SAPC  H18X 5682  -0.719   5.401   3.849  0.8199 -2.8399 -1.5033
   67SAPC  H18Y 5683  -0.897   5.370   3.889 -1.5006  0.0785 -1.1134
   67SAPC  H18Z 5684  -0.849   5.513   3.791  0.5637 -0.0733  0.7160
   68SAPC     N 5685   6.217   3.915   1.783 -0.2868  0.4755  0.3249
   68SAPC   C12 5686   6.194   3.768   1.818  0.0331  0.1565  0.0721
   68SAPC  H12A 5687   6.278   3.717   1.774  0.7339  1.6644 -0.4132
   68SAPC  H12B 5688   6.103   3.738   1.767 -0.2594  0.9937  0.0787
   68SAPC   C13 5689   6.190   3.946   1.641  1.0460  0.1612 -0.3988
   68SAPC  H13A 5690   6.201   4.047   1.605 -2.2526  0.9421  0.4763
   68SAPC  H13B 5691   6.253   3.885   1.577 -2.3264 -0.5375 -3.3718
   68SAPC  H13C 5692   6.086   3.939   1.614  0.6219  2.7133  0.3326
   68SAPC   C14 5693   6.129   4.002   1.870  0.5259 -0.1574 -0.5392
   68SAPC  H14A 5694   6.028   3.966   1.860  0.2165  0.7654 -0.9285
   68SAPC  H14B 5695   6.170   4.001   1.970  0.0483  1.7694 -0.2874
   68SAPC  H14C 5696   6.124   4.105   1.838  1.0473 -0.1269 -0.5323
   68SAPC   C15 5697   6.364   3.948   1.818 -0.2203  0.8307  0.5951
   68SAPC  H15A 5698   6.425   3.867   1.779 -1.6063  0.4898 -0.9791
   68SAPC  H15B 5699   6.393   4.046   1.784 -1.6107  1.8175  2.1277
   68SAPC  H15C 5700   6.368   3.939   1.925 -1.2314 -2.6300  0.4754
   68SAPC   C11 5701   6.195   3.727   1.963  0.5355 -0.3216  0.0471
   68SAPC  H11A 5702   6.165   3.620   1.969 -1.5336  0.2917  3.2922
   68SAPC  H11B 5703   6.114   3.785   2.011 -0.3931 -0.7521 -0.9543
   68SAPC     P 5704   6.439   3.641   2.033 -0.4888  0.3866 -0.0891
   68SAPC   O13 5705   6.385   3.508   2.077  0.0663  0.4343  0.1499
   68SAPC   O14 5706   6.519   3.656   1.910  0.6066 -0.6428 -0.0772
   68SAPC   O12 5707   6.323   3.745   2.032 -0.3133 -0.4873 -0.3403
   68SAPC   O11 5708   6.528   3.688   2.162  0.4027  0.3585  0.4324
   68SAPC    C1 5709   6.552   3.826   2.180  0.5674 -0.2625 -0.5445
   68SAPC    HA 5710   6.634   3.867   2.117  0.2646  2.8023  0.8564
   68SAPC    HB 5711   6.470   3.895   2.151  0.6725  0.5547  0.9613
   68SAPC    C2 5712   6.580   3.849   2.330  0.5017 -0.0188 -0.7205
   68SAPC    HS 5713   6.678   3.802   2.353  1.2691  1.9332  0.2147
   68SAPC   O21 5714   6.466   3.805   2.413  0.2269 -0.7673  0.5806
   68SAPC   C21 5715   6.491   3.712   2.499  0.1921 -0.1113  0.0055
   68SAPC   O22 5716   6.597   3.670   2.527 -0.5160 -0.4102 -0.0915
   68SAPC   C22 5717   6.359   3.678   2.574 -0.3423 -0.1958 -0.2231
   68SAPC   H2R 5718   6.321   3.772   2.621  1.0127 -0.0723  0.6730
   68SAPC   H2S 5719   6.281   3.629   2.512  0.5532  1.0406 -2.4574
   68SAPC    C3 5720   6.606   4.002   2.353  0.2146  0.3184  0.0522
   68SAPC    HX 5721   6.523   4.057   2.304 -0.4212  1.4904  2.2666
   68SAPC    HY 5722   6.692   4.038   2.293 -1.0169  0.1901 -1.8834
   68SAPC   O31 5723   6.602   4.027   2.490 -0.4582 -0.3908 -0.0302
   68SAPC   C31 5724   6.713   3.997   2.568  0.5619  0.6145 -0.2819
   68SAPC   O32 5725   6.817   3.958   2.522 -0.4183  0.4915 -0.2007
   68SAPC   C32 5726   6.690   4.028   2.720  0.2912 -0.6293  0.9268
   68SAPC   H2X 5727   6.584   4.004   2.744  0.0774 -0.0027  0.6239
   68SAPC   H2Y 5728   6.709   4.135   2.742  1.3664 -0.7822  0.7866
   68SAPC   C23 5729   6.399   3.576   2.677  0.0391  0.5944 -0.1078
   68SAPC   H3R 5730   6.476   3.613   2.748 -2.6085  3.7057  1.3903
   68SAPC   H3S 5731   6.436   3.486   2.623 -0.7342 -1.9119  3.2278
   68SAPC   C24 5732   6.285   3.535   2.774 -0.1545 -0.8144 -0.3747
   68SAPC   H4R 5733   6.305   3.437   2.822 -1.2132 -1.0004 -0.2982
   68SAPC   H4S 5734   6.200   3.517   2.706  1.3901 -0.9811 -2.3481
   68SAPC   C25 5735   6.252   3.654   2.870 -0.3743 -0.2040 -0.0471
   68SAPC   H5R 5736   6.195   3.733   2.820 -0.1832 -0.1154 -0.1276
   68SAPC   C26 5737   6.289   3.664   2.997 -0.3495  0.2051  0.3404
   68SAPC   H6R 5738   6.251   3.747   3.057  1.4559  0.5713  1.0318
   68SAPC   C27 5739   6.377   3.561   3.072 -0.0225  0.4681 -0.2967
   68SAPC   H7R 5740   6.431   3.493   3.002 -1.3543  0.0766 -0.9713
   68SAPC   H7S 5741   6.320   3.490   3.136 -0.7547 -0.2888 -1.7564
   68SAPC   C28 5742   6.495   3.633   3.150  0.9046  0.1183  0.2759
   68SAPC   H8R 5743   6.586   3.647   3.090  1.2688 -1.3731  0.4246
   68SAPC   C29 5744   6.514   3.647   3.279  0.1477  0.3311 -0.5329
   68SAPC   H9R 5745   6.598   3.710   3.310 -0.5127  1.1264 -0.3420
   68SAPC  C210 5746   6.413   3.605   3.380  0.1374  0.6660 -0.2545
   68SAPC  H10R 5747   6.319   3.613   3.322  1.6148 -0.5078 -2.9869
   68SAPC  H10S 5748   6.405   3.671   3.470 -1.3061  1.3595 -0.8653
   68SAPC  C211 5749   6.429   3.463   3.437 -0.3278 -0.6780  0.8901
   68SAPC  H11R 5750   6.354   3.388   3.406 -1.1993 -0.8117  3.0964
   68SAPC  C212 5751   6.523   3.428   3.522  0.1905  1.1392  0.4569
   68SAPC  H12R 5752   6.526   3.319   3.536  0.8675  1.2385  1.1416
   68SAPC  C213 5753   6.632   3.510   3.594  0.2479  0.1379 -0.9745
   68SAPC  H13R 5754   6.651   3.605   3.540 -0.6991  0.1891 -1.2211
   68SAPC  H13S 5755   6.728   3.453   3.590  0.0590 -0.3950  0.9084
   68SAPC  C214 5756   6.576   3.531   3.735  0.1937 -0.7383 -0.0365
   68SAPC  H14R 5757   6.481   3.586   3.733  0.9438  0.6174  0.1898
   68SAPC  C215 5758   6.638   3.517   3.858  0.8262 -0.2267 -0.0442
   68SAPC  H15R 5759   6.581   3.527   3.951  0.1957  0.4701 -0.4989
   68SAPC  C216 5760   6.781   3.475   3.882  0.0541 -0.6523 -0.1955
   68SAPC  H16R 5761   6.853   3.555   3.906  0.5770 -0.9912 -0.6037
   68SAPC  H16S 5762   6.823   3.434   3.788  1.0222  0.6992 -0.3844
   68SAPC  C217 5763   6.795   3.358   3.989  0.0520 -1.3344  1.2266
   68SAPC  H17R 5764   6.905   3.344   3.989  0.9964  3.8288 -1.1649
   68SAPC  H17S 5765   6.737   3.274   3.946 -1.1441 -0.5373  1.2587
   68SAPC  C218 5766   6.735   3.387   4.127 -0.0046 -0.3738  0.3417
   68SAPC  H18R 5767   6.627   3.413   4.120  0.0770 -0.2898 -0.7904
   68SAPC  H18S 5768   6.793   3.478   4.151 -0.4950 -0.6892  2.9388
   68SAPC  C219 5769   6.763   3.287   4.241  0.2816  0.0276  0.1386
   68SAPC  H19R 5770   6.721   3.322   4.337 -1.9219 -2.6490  0.2502
   68SAPC  H19S 5771   6.873   3.275   4.248  0.1504 -0.7742  0.7990
   68SAPC  C220 5772   6.702   3.147   4.223 -0.0654  0.2214 -0.1165
   68SAPC  H20R 5773   6.602   3.159   4.174  0.1363 -1.7565 -1.1358
   68SAPC  H20S 5774   6.680   3.093   4.317 -4.3951  2.2060  0.2708
   68SAPC  H20T 5775   6.753   3.084   4.148 -0.5055  0.1637 -0.3733
   68SAPC   C33 5776   6.802   3.966   2.795 -0.3153 -0.1137 -0.3923
   68SAPC   H3X 5777   6.902   3.986   2.750 -0.0385 -0.8318 -0.1250
   68SAPC   H3Y 5778   6.791   3.855   2.791  0.2568 -0.1414 -2.7172
   68SAPC   C34 5779   6.814   4.015   2.940 -0.3371 -0.3551 -0.0409
   68SAPC   H4X 5780   6.861   4.116   2.939 -1.9878  0.4489 -0.7375
   68SAPC   H4Y 5781   6.891   3.952   2.988 -3.0922 -2.7614  1.5652
   68SAPC   C35 5782   6.687   4.018   3.025 -0.0223  0.3315  0.1057
   68SAPC   H5X 5783   6.654   3.912   3.028  0.2992  0.2164 -0.3289
   68SAPC   H5Y 5784   6.616   4.087   2.974 -0.5004 -0.8566 -0.8851
   68SAPC   C36 5785   6.721   4.056   3.172  0.0649 -1.1167  0.4042
   68SAPC   H6X 5786   6.778   4.149   3.195 -2.2708  0.2962  0.7526
   68SAPC   H6Y 5787   6.785   3.974   3.208  1.6549  0.0483  0.3518
   68SAPC   C37 5788   6.590   4.060   3.252 -0.6724  0.0626  0.5531
   68SAPC   H7X 5789   6.525   3.981   3.208 -2.5826  0.7498  2.0248
   68SAPC   H7Y 5790   6.527   4.151   3.239 -0.5288 -0.0197 -0.8722
   68SAPC   C38 5791   6.624   4.015   3.398 -0.5694 -0.1862  0.3211
   68SAPC   H8X 5792   6.709   4.072   3.440  0.2922  0.0862 -1.6778
   68SAPC   H8Y 5793   6.664   3.912   3.389  0.9804  0.1663  2.4242
   68SAPC   C39 5794   6.506   4.010   3.491  0.7107  0.1829 -0.1347
   68SAPC   H9X 5795   6.417   3.968   3.439  0.5703  0.4645 -0.1268
   68SAPC   H9Y 5796   6.482   4.113   3.526 -2.6168  1.2801 -4.6166
   68SAPC  C310 5797   6.540   3.911   3.610  0.5044  0.2825 -0.5852
   68SAPC  H10X 5798   6.562   3.818   3.555 -1.9879 -2.7908  3.0901
   68SAPC  H10Y 5799   6.454   3.890   3.678  1.5830  0.5223  0.9035
   68SAPC  C311 5800   6.659   3.968   3.688  0.0488  0.4659  0.0090
   68SAPC  H11X 5801   6.655   4.072   3.726  0.6054  1.0960 -1.5529
   68SAPC  H11Y 5802   6.751   3.969   3.626  1.1830  0.3292  1.6266
   68SAPC  C312 5803   6.694   3.887   3.813 -0.0575  0.1639  0.5328
   68SAPC  H12X 5804   6.731   3.785   3.786 -0.6439  0.0524  0.1235
   68SAPC  H12Y 5805   6.609   3.879   3.884  1.1471  2.6872  2.3860
   68SAPC  C313 5806   6.802   3.957   3.885  0.3296 -0.4809  0.7837
   68SAPC  H13X 5807   6.757   4.045   3.936  0.3468 -0.1008  0.1521
   68SAPC  H13Y 5808   6.878   3.994   3.814 -1.1033  0.2928 -0.4052
   68SAPC  C314 5809   6.883   3.868   3.980  0.0841  0.4086 -0.6077
   68SAPC  H14X 5810   6.915   3.774   3.929 -0.3545 -0.8923  1.4181
   68SAPC  H14Y 5811   6.817   3.836   4.063  2.0426 -1.8586  0.2055
   68SAPC  C315 5812   7.002   3.950   4.051  0.1503 -0.1109 -0.7332
   68SAPC  H15X 5813   6.968   4.042   4.103 -1.4159 -0.5087 -0.9973
   68SAPC  H15Y 5814   7.082   3.973   3.977  3.1100  2.3953  2.8665
   68SAPC  C316 5815   7.063   3.873   4.170 -0.3677 -0.0366 -0.1088
   68SAPC  H16X 5816   7.077   3.764   4.152 -0.3916 -0.0485 -0.0575
   68SAPC  H16Y 5817   7.000   3.880   4.262  0.4522 -1.7991  0.6328
   68SAPC  C317 5818   7.203   3.928   4.209  0.0460  0.4667  0.5620
   68SAPC  H17X 5819   7.196   4.039   4.214 -1.3221  0.5164 -1.4272
   68SAPC  H17Y 5820   7.271   3.893   4.128  0.1543 -2.5415  1.8029
   68SAPC  C318 5821   7.258   3.890   4.351 -0.6637 -0.1726 -0.2937
   68SAPC  H18X 5822   7.258   3.779   4.359 -1.0972 -0.1005  0.8301
   68SAPC  H18Y 5823   7.187   3.925   4.428 -0.7193  1.8946 -1.2051
   68SAPC  H18Z 5824   7.354   3.943   4.366 -0.0045 -1.9744  2.6465
   69SAPC     N 5825   5.828   1.504   1.317  0.3210 -0.1356  0.3311
   69SAPC   C12 5826   5.901   1.396   1.397  0.2841 -0.1651 -0.6144
   69SAPC  H12A 5827   5.966   1.440   1.471  0.9461 -2.5224  0.3283
   69SAPC  H12B 5828   5.962   1.343   1.325  0.6846 -0.3619 -0.1341
   69SAPC   C13 5829   5.713   1.437   1.240  0.0780 -0.7271  0.1025
   69SAPC  H13A 5830   5.655   1.375   1.307  1.6375 -1.2825  0.9799
   69SAPC  H13B 5831   5.644   1.510   1.200  1.2281 -0.5738 -1.7413
   69SAPC  H13C 5832   5.749   1.384   1.154  0.4130 -0.9989  0.4088
   69SAPC   C14 5833   5.766   1.605   1.404  0.0673 -0.0336  0.4520
   69SAPC  H14A 5834   5.692   1.545   1.454  1.1322 -3.2686 -1.5233
   69SAPC  H14B 5835   5.823   1.635   1.490  0.6144 -0.7547  0.3478
   69SAPC  H14C 5836   5.719   1.684   1.347  0.7074 -2.8546 -4.5900
   69SAPC   C15 5837   5.921   1.577   1.225 -0.2898  0.2630  0.1142
   69SAPC  H15A 5838   6.008   1.619   1.273  0.6353  0.5956 -1.7752
   69SAPC  H15B 5839   5.955   1.498   1.160 -1.4591 -2.6288  2.7695
   69SAPC  H15C 5840   5.873   1.661   1.178  0.9205  1.0885  0.3031
   69SAPC   C11 5841   5.817   1.287   1.470 -0.3789 -0.0715 -0.0278
   69SAPC  H11A 5842   5.896   1.218   1.505  2.7447  2.2927 -1.7856
   69SAPC  H11B 5843   5.756   1.227   1.399 -0.6004  1.2471 -0.9927
   69SAPC     P 5844   5.617   1.292   1.631  0.0907  0.0653  0.0568
   69SAPC   O13 5845   5.507   1.384   1.592  0.2521  0.2168  0.9001
   69SAPC   O14 5846   5.600   1.147   1.599  0.7854  0.2044  0.5461
   69SAPC   O12 5847   5.754   1.352   1.574  0.3273 -0.0896  0.8496
   69SAPC   O11 5848   5.638   1.300   1.791 -0.3936  0.1350  0.4904
   69SAPC    C1 5849   5.709   1.401   1.861 -0.2141 -0.4334 -0.0712
   69SAPC    HA 5850   5.763   1.466   1.789  2.3920 -1.7713  0.5439
   69SAPC    HB 5851   5.644   1.474   1.913  0.1111 -0.2445  0.0728
   69SAPC    C2 5852   5.798   1.341   1.969 -1.2129  0.4907  0.1910
   69SAPC    HS 5853   5.736   1.273   2.031 -0.7057 -1.1083 -0.9749
   69SAPC   O21 5854   5.869   1.449   2.042  0.2788 -0.1964  0.4522
   69SAPC   C21 5855   5.846   1.447   2.177 -0.7301 -0.4620  0.6185
   69SAPC   O22 5856   5.793   1.356   2.237 -0.3098 -0.4301 -0.8245
   69SAPC   C22 5857   5.913   1.568   2.237 -0.1153  0.0980  0.0655
   69SAPC   H2R 5858   5.869   1.654   2.183 -1.9991 -0.5133  0.5463
   69SAPC   H2S 5859   5.870   1.581   2.339  0.3939  1.5792  0.1079
   69SAPC    C3 5860   5.912   1.261   1.899  0.2651 -0.3601  0.1094
   69SAPC    HX 5861   5.947   1.322   1.813  0.7841 -0.4194  0.2759
   69SAPC    HY 5862   5.867   1.175   1.844  0.8669 -0.3306 -0.4352
   69SAPC   O31 5863   6.018   1.222   1.991 -0.0429 -1.0699 -0.3086
   69SAPC   C31 5864   6.025   1.099   2.040 -0.3037 -0.6291 -0.2036
   69SAPC   O32 5865   5.963   1.002   2.000 -0.0268 -0.2908  0.1284
   69SAPC   C32 5866   6.124   1.098   2.148  0.0464 -0.4239 -0.7421
   69SAPC   H2X 5867   6.162   1.201   2.168 -0.7893  0.0907 -1.6666
   69SAPC   H2Y 5868   6.220   1.053   2.114  1.6015  2.4289 -0.4839
   69SAPC   C23 5869   6.062   1.576   2.225 -0.1280  0.3842  0.0720
   69SAPC   H3R 5870   6.096   1.671   2.271  1.5051 -0.4243  0.6174
   69SAPC   H3S 5871   6.093   1.571   2.118 -0.8859 -0.6717 -0.1181
   69SAPC   C24 5872   6.145   1.473   2.307 -0.6667 -0.0049 -0.3625
   69SAPC   H4R 5873   6.251   1.476   2.276  0.1980 -2.1878  2.0229
   69SAPC   H4S 5874   6.104   1.371   2.290 -0.2428 -0.2460  0.0345
   69SAPC   C25 5875   6.147   1.502   2.461 -0.2530  0.1092 -0.8011
   69SAPC   H5R 5876   6.218   1.584   2.483 -0.1209  0.0519 -1.0069
   69SAPC   C26 5877   6.092   1.422   2.557  0.0412 -0.7490 -0.3112
   69SAPC   H6R 5878   6.101   1.454   2.662 -2.4187 -1.1967  0.0893
   69SAPC   C27 5879   5.996   1.305   2.549  0.0868  0.2094 -1.0738
   69SAPC   H7R 5880   6.032   1.226   2.618 -2.7850 -0.5776 -0.3558
   69SAPC   H7S 5881   6.012   1.255   2.451 -2.1314  1.5772 -2.2293
   69SAPC   C28 5882   5.853   1.335   2.559  0.3142  0.0774  0.1354
   69SAPC   H8R 5883   5.803   1.347   2.462 -0.1104 -2.9369 -0.0943
   69SAPC   C29 5884   5.785   1.348   2.678 -0.4052  0.0708  0.5046
   69SAPC   H9R 5885   5.685   1.395   2.685 -0.0251  0.8566  0.7486
   69SAPC  C210 5886   5.852   1.323   2.809  0.3614  0.6295 -0.2453
   69SAPC  H10R 5887   5.962   1.319   2.796  0.5505  4.0312 -0.6906
   69SAPC  H10S 5888   5.830   1.226   2.858  0.4117  1.5415  1.6460
   69SAPC  C211 5889   5.834   1.442   2.906 -0.7668  0.8654  0.2477
   69SAPC  H11R 5890   5.774   1.529   2.874 -1.8585 -0.4147 -1.3563
   69SAPC  C212 5891   5.864   1.440   3.043  0.2643  0.1457  0.5505
   69SAPC  H12R 5892   5.852   1.539   3.090  2.3249  0.8817 -0.3452
   69SAPC  C213 5893   5.929   1.323   3.118 -0.4852 -0.0401 -0.7844
   69SAPC  H13R 5894   5.870   1.232   3.097 -2.7228  0.9963  0.6943
   69SAPC  H13S 5895   5.925   1.351   3.225  0.2713  3.1278 -1.4968
   69SAPC  C214 5896   6.069   1.309   3.073  0.3536  0.0242 -0.5091
   69SAPC  H14R 5897   6.077   1.246   2.983  1.9222  2.5144 -2.2458
   69SAPC  C215 5898   6.180   1.379   3.110  0.3537  0.2261  0.4889
   69SAPC  H15R 5899   6.273   1.361   3.055  0.7749 -2.1264  1.8206
   69SAPC  C216 5900   6.195   1.484   3.224 -0.0259  0.3381  0.0253
   69SAPC  H16R 5901   6.107   1.501   3.290  1.0563 -0.4083  1.7295
   69SAPC  H16S 5902   6.221   1.582   3.177  1.7853  0.1768  0.6191
   69SAPC  C217 5903   6.324   1.457   3.315 -0.5984  0.4929  0.1901
   69SAPC  H17R 5904   6.336   1.557   3.363 -0.2182  0.5084  0.0646
   69SAPC  H17S 5905   6.419   1.442   3.260 -0.5846  0.8758  0.1029
   69SAPC  C218 5906   6.295   1.351   3.422 -0.0585  0.6629 -0.1411
   69SAPC  H18R 5907   6.285   1.250   3.375  0.4468  1.5524 -2.2528
   69SAPC  H18S 5908   6.195   1.375   3.465 -0.1377 -1.8815  1.3250
   69SAPC  C219 5909   6.403   1.344   3.526  0.0675 -0.5035  0.4245
   69SAPC  H19R 5910   6.408   1.432   3.593 -1.7956  0.5416 -0.7021
   69SAPC  H19S 5911   6.503   1.351   3.479 -0.0089  2.8309  0.5439
   69SAPC  C220 5912   6.411   1.213   3.615 -0.8625 -0.3040 -0.1506
   69SAPC  H20R 5913   6.502   1.212   3.680 -1.1386 -2.3709  0.2771
   69SAPC  H20S 5914   6.419   1.119   3.555  0.2081 -0.3798  0.0791
   69SAPC  H20T 5915   6.314   1.205   3.668 -1.7720  1.3297 -1.4707
   69SAPC   C33 5916   6.071   1.027   2.275 -0.2222 -0.0127  0.0129
   69SAPC   H3X 5917   6.032   0.929   2.240 -1.5954  0.6068 -0.2647
   69SAPC   H3Y 5918   5.987   1.089   2.315  1.2387  0.4186  2.6538
   69SAPC   C34 5919   6.168   1.011   2.393  0.0257  0.1465 -0.1237
   69SAPC   H4X 5920   6.212   1.112   2.412 -1.1405  0.9979 -1.6651
   69SAPC   H4Y 5921   6.245   0.938   2.362  0.5844  0.1544  1.1860
   69SAPC   C35 5922   6.102   0.955   2.515  0.1016  0.5693  0.2653
   69SAPC   H5X 5923   6.067   0.851   2.496  0.4801  0.1486  1.7250
   69SAPC   H5Y 5924   6.002   0.992   2.545 -1.1079 -1.5565 -0.8688
   69SAPC   C36 5925   6.187   0.936   2.642  0.8399 -0.7159  0.2542
   69SAPC   H6X 5926   6.236   1.031   2.672 -0.7173  0.5940 -1.1030
   69SAPC   H6Y 5927   6.267   0.860   2.625 -0.2365 -1.9528  0.5804
   69SAPC   C37 5928   6.095   0.904   2.763 -0.0781 -0.1562 -0.0037
   69SAPC   H7X 5929   6.053   0.802   2.752 -3.3249  0.7106  2.6813
   69SAPC   H7Y 5930   6.013   0.979   2.757  1.3485  1.3735 -2.0664
   69SAPC   C38 5931   6.175   0.913   2.897  0.1046  0.0279  0.7577
   69SAPC   H8X 5932   6.243   1.001   2.892  1.2443 -0.9031 -3.1655
   69SAPC   H8Y 5933   6.234   0.819   2.892 -1.7117 -1.0988 -2.0647
   69SAPC   C39 5934   6.096   0.935   3.021  0.0630 -0.1268 -0.4605
   69SAPC   H9X 5935   6.043   0.842   3.052 -1.7615  1.0542  0.1185
   69SAPC   H9Y 5936   6.025   1.017   2.999  1.2939  0.8496 -0.9021
   69SAPC  C310 5937   6.189   0.945   3.141  0.4279 -0.1155 -0.1401
   69SAPC  H10X 5938   6.148   0.980   3.237  1.0422  1.3860 -0.3921
   69SAPC  H10Y 5939   6.263   1.025   3.119  1.1933 -0.8937 -0.5108
   69SAPC  C311 5940   6.250   0.814   3.186 -0.6248  0.1881 -0.6371
   69SAPC  H11X 5941   6.283   0.758   3.096  0.8258  0.1872 -0.1281
   69SAPC  H11Y 5942   6.167   0.775   3.250 -1.2745  2.9236  0.3419
   69SAPC  C312 5943   6.373   0.837   3.272  0.0340 -0.1226 -0.1194
   69SAPC  H12X 5944   6.361   0.917   3.348  1.9604 -0.4403  0.5675
   69SAPC  H12Y 5945   6.463   0.870   3.216  1.7357 -0.2040  2.3984
   69SAPC  C313 5946   6.421   0.706   3.343  0.1133 -0.5138  0.3683
   69SAPC  H13X 5947   6.442   0.632   3.263 -2.3444 -3.4807  2.2374
   69SAPC  H13Y 5948   6.344   0.666   3.412  0.5323  0.6905  1.5923
   69SAPC  C314 5949   6.553   0.717   3.415  0.3574 -0.1345 -0.1081
   69SAPC  H14X 5950   6.627   0.755   3.341 -2.2255  1.0850 -2.2298
   69SAPC  H14Y 5951   6.582   0.615   3.450  2.5702 -0.4396 -2.5480
   69SAPC  C315 5952   6.551   0.823   3.531 -0.5939  0.6633 -0.0195
   69SAPC  H15X 5953   6.570   0.927   3.496 -2.4107  1.2135  0.5628
   69SAPC  H15Y 5954   6.647   0.802   3.584 -1.2619  0.0742  0.9758
   69SAPC  C316 5955   6.425   0.813   3.618  0.0924  0.0446 -0.1161
   69SAPC  H16X 5956   6.399   0.705   3.625  1.2837 -0.4426 -2.2282
   69SAPC  H16Y 5957   6.339   0.866   3.571  0.5533  1.2168  0.3358
   69SAPC  C317 5958   6.443   0.878   3.756 -0.6183 -0.0335  0.1092
   69SAPC  H17X 5959   6.485   0.980   3.740  1.4738 -1.0550 -1.3936
   69SAPC  H17Y 5960   6.521   0.828   3.818 -1.0813  0.1445  0.8518
   69SAPC  C318 5961   6.307   0.914   3.820 -0.1294  0.4357  0.1851
   69SAPC  H18X 5962   6.327   0.975   3.911  2.5908  1.2977 -0.9008
   69SAPC  H18Y 5963   6.252   0.823   3.851 -1.8630  0.7461 -1.7651
   69SAPC  H18Z 5964   6.251   0.970   3.743 -0.7428 -0.1244  0.2098
   70SAPC     N 5965   2.695   5.662   0.972  0.1874 -0.0101  0.2682
   70SAPC   C12 5966   2.631   5.651   1.114  0.2035  0.6436  0.2305
   70SAPC  H12A 5967   2.540   5.709   1.108  1.0947  2.1033  0.3712
   70SAPC  H12B 5968   2.699   5.707   1.175  1.9651 -1.5163  0.3737
   70SAPC   C13 5969   2.724   5.808   0.950 -0.5691 -0.1524  0.6481
   70SAPC  H13A 5970   2.758   5.833   0.850 -1.1299 -1.8618 -0.0138
   70SAPC  H13B 5971   2.637   5.872   0.961 -0.4057  0.2207 -0.1698
   70SAPC  H13C 5972   2.800   5.843   1.018  0.9553  0.7807 -1.4355
   70SAPC   C14 5973   2.819   5.581   0.959 -0.2998 -0.9512  0.1322
   70SAPC  H14A 5974   2.900   5.605   1.027  0.9269  0.8355 -1.8555
   70SAPC  H14B 5975   2.805   5.474   0.969  0.1432 -1.1289 -1.0617
   70SAPC  H14C 5976   2.853   5.595   0.858 -0.7772 -1.1027 -0.0526
   70SAPC   C15 5977   2.597   5.615   0.870  0.1647 -0.2112  0.6280
   70SAPC  H15A 5978   2.645   5.627   0.775  1.1630  2.2050  1.3658
   70SAPC  H15B 5979   2.564   5.517   0.903 -0.7352 -0.5983 -1.2626
   70SAPC  H15C 5980   2.509   5.676   0.852  1.4521  1.2004 -1.2271
   70SAPC   C11 5981   2.602   5.512   1.181  0.1216 -0.3356  0.1990
   70SAPC  H11A 5982   2.566   5.527   1.285 -0.3611  0.9141 -0.1391
   70SAPC  H11B 5983   2.700   5.459   1.187  0.2982 -0.1764 -1.0291
   70SAPC     P 5984   2.368   5.431   1.122 -0.3113  0.1368  0.2404
   70SAPC   O13 5985   2.323   5.561   1.067 -0.0220  0.7433 -0.3486
   70SAPC   O14 5986   2.303   5.314   1.062  0.4193  0.3668 -0.2773
   70SAPC   O12 5987   2.521   5.417   1.104 -0.0645  0.3576  0.0002
   70SAPC   O11 5988   2.353   5.435   1.281 -0.6853  0.2311  0.0644
   70SAPC    C1 5989   2.281   5.540   1.341 -0.0456 -0.3518  0.5488
   70SAPC    HA 5990   2.329   5.640   1.335 -0.1702 -0.2695  0.9006
   70SAPC    HB 5991   2.185   5.548   1.286  0.3424  0.7113 -0.0035
   70SAPC    C2 5992   2.245   5.513   1.488  0.6637  0.3892  1.1128
   70SAPC    HS 5993   2.337   5.544   1.541  1.3575  0.3749 -0.0513
   70SAPC   O21 5994   2.217   5.369   1.512 -0.5610 -0.6452  0.8083
   70SAPC   C21 5995   2.279   5.317   1.618  0.0001 -0.4054 -0.7155
   70SAPC   O22 5996   2.352   5.376   1.697  0.0919  0.0186  0.3110
   70SAPC   C22 5997   2.228   5.174   1.639  0.3295  0.3561  0.2224
   70SAPC   H2R 5998   2.218   5.131   1.537  0.1246 -0.8646  0.7374
   70SAPC   H2S 5999   2.304   5.118   1.698 -0.8414 -1.1497  0.3930
   70SAPC    C3 6000   2.123   5.591   1.528 -0.3749  0.0200 -0.3182
   70SAPC    HX 6001   2.032   5.551   1.477 -2.1226  1.1980  1.6911
   70SAPC    HY 6002   2.136   5.693   1.487 -0.3773 -0.3301 -1.2188
   70SAPC   O31 6003   2.113   5.586   1.670 -0.3052  0.5835  0.1855
   70SAPC   C31 6004   2.154   5.694   1.738 -0.2641  0.1600  0.1535
   70SAPC   O32 6005   2.196   5.796   1.685  0.1929 -0.3885 -0.2223
   70SAPC   C32 6006   2.150   5.663   1.890 -0.6217 -0.3008 -0.0922
   70SAPC   H2X 6007   2.204   5.567   1.905 -0.9131 -0.7193 -1.6333
   70SAPC   H2Y 6008   2.045   5.649   1.923  0.0975 -1.5215  1.8592
   70SAPC   C23 6009   2.098   5.172   1.719  0.4433  0.8120  0.0393
   70SAPC   H3R 6010   2.065   5.068   1.738  2.7016 -0.2023 -1.3133
   70SAPC   H3S 6011   2.025   5.232   1.660  0.3226  1.0609  0.4354
   70SAPC   C24 6012   2.096   5.241   1.863 -1.2359  0.2932  0.1175
   70SAPC   H4R 6013   1.993   5.249   1.904 -0.2181 -0.5822  3.1119
   70SAPC   H4S 6014   2.117   5.348   1.841  2.3201 -0.1252  0.7839
   70SAPC   C25 6015   2.196   5.201   1.976  0.6188  0.4276  0.2820
   70SAPC   H5R 6016   2.294   5.183   1.928  0.0506 -0.7720 -0.4698
   70SAPC   C26 6017   2.183   5.187   2.107 -0.6079  0.1788 -0.1948
   70SAPC   H6R 6018   2.272   5.156   2.164 -2.5503  0.2368  3.1369
   70SAPC   C27 6019   2.051   5.212   2.181 -0.2620  0.3487  0.4981
   70SAPC   H7R 6020   2.005   5.114   2.206 -1.5918  0.4856 -1.2170
   70SAPC   H7S 6021   1.987   5.275   2.115  1.9701  0.6615 -1.5278
   70SAPC   C28 6022   2.072   5.302   2.304  0.1312 -0.3568  0.2494
   70SAPC   H8R 6023   2.109   5.402   2.276  1.8770 -1.2158 -0.7059
   70SAPC   C29 6024   2.057   5.270   2.436 -0.1352  0.3104  0.0359
   70SAPC   H9R 6025   2.065   5.351   2.509  0.2607  0.0736  0.2649
   70SAPC  C210 6026   2.048   5.130   2.495 -0.3901  0.6195  0.2793
   70SAPC  H10R 6027   1.992   5.064   2.426 -0.7146  1.7165 -0.5309
   70SAPC  H10S 6028   1.973   5.127   2.577  2.8760 -1.0708  3.4766
   70SAPC  C211 6029   2.161   5.066   2.558  0.1079  0.0313 -0.1980
   70SAPC  H11R 6030   2.225   4.996   2.501  2.3983  1.3264  0.6552
   70SAPC  C212 6031   2.195   5.074   2.688 -0.2374  0.3739 -0.8339
   70SAPC  H12R 6032   2.285   5.018   2.717 -1.8635 -2.1007 -0.3149
   70SAPC  C213 6033   2.133   5.162   2.797 -0.2124  0.4376 -0.1733
   70SAPC  H13R 6034   2.053   5.229   2.758 -0.0374  1.0733  0.5578
   70SAPC  H13S 6035   2.222   5.214   2.837  0.4180 -1.6577  1.3540
   70SAPC  C214 6036   2.070   5.078   2.900 -0.1550  0.0419  0.0585
   70SAPC  H14R 6037   1.966   5.044   2.893 -0.0382 -0.8315  1.8581
   70SAPC  C215 6038   2.135   5.046   3.012  0.2277 -0.0362  0.6217
   70SAPC  H15R 6039   2.072   4.999   3.090  0.6014 -0.4847  0.6597
   70SAPC  C216 6040   2.278   5.074   3.044 -0.0884 -0.1906  0.0267
   70SAPC  H16R 6041   2.332   5.100   2.950 -0.2786  0.2949  0.0518
   70SAPC  H16S 6042   2.328   4.984   3.085 -0.1924 -1.0022 -1.5321
   70SAPC  C217 6043   2.307   5.175   3.149 -0.2696  0.3192 -0.3353
   70SAPC  H17R 6044   2.272   5.140   3.249  0.1657 -0.2926 -0.3889
   70SAPC  H17S 6045   2.256   5.272   3.132  3.4971  2.2353 -1.8598
   70SAPC  C218 6046   2.447   5.215   3.169 -0.0503  0.5652 -0.7595
   70SAPC  H18R 6047   2.472   5.322   3.157 -0.6045  0.9310  1.1537
   70SAPC  H18S 6048   2.519   5.173   3.095 -0.3078 -2.0206  0.3464
   70SAPC  C219 6049   2.498   5.195   3.321  1.0031  0.2249 -0.3239
   70SAPC  H19R 6050   2.502   5.087   3.347 -0.6788  0.5304  1.4328
   70SAPC  H19S 6051   2.421   5.239   3.389  2.5823 -0.8094  2.2853
   70SAPC  C220 6052   2.636   5.253   3.356  0.0931  0.3072  0.3085
   70SAPC  H20R 6053   2.649   5.361   3.333  0.6060 -0.2014 -1.9686
   70SAPC  H20S 6054   2.716   5.208   3.293 -1.0150 -1.0099 -0.1947
   70SAPC  H20T 6055   2.669   5.220   3.458  1.9764 -1.3817 -0.7678
   70SAPC   C33 6056   2.210   5.775   1.973 -0.0959 -0.1238  0.2107
   70SAPC   H3X 6057   2.183   5.876   1.939  3.5567 -0.1780 -3.7453
   70SAPC   H3Y 6058   2.321   5.773   1.960  0.0328  3.7407 -0.3605
   70SAPC   C34 6059   2.197   5.760   2.125 -0.5992 -0.1405  0.1803
   70SAPC   H4X 6060   2.090   5.767   2.155 -0.3814  0.8561  0.7769
   70SAPC   H4Y 6061   2.233   5.852   2.176 -1.5236  0.2096  0.2270
   70SAPC   C35 6062   2.256   5.635   2.183  0.0751 -0.0200  0.3481
   70SAPC   H5X 6063   2.354   5.601   2.142  0.8643  0.4832  1.7414
   70SAPC   H5Y 6064   2.190   5.553   2.151 -0.0996  0.3132 -0.1554
   70SAPC   C36 6065   2.254   5.636   2.335  0.2081  0.5592  0.5413
   70SAPC   H6X 6066   2.287   5.533   2.362 -1.1139 -0.1696 -0.4931
   70SAPC   H6Y 6067   2.148   5.648   2.366 -0.0755  2.3554 -0.9547
   70SAPC   C37 6068   2.344   5.744   2.398 -0.1136  0.4927 -1.1596
   70SAPC   H7X 6069   2.441   5.691   2.386 -0.7922 -0.7464 -1.3948
   70SAPC   H7Y 6070   2.345   5.843   2.348  0.1180  0.6744 -0.7955
   70SAPC   C38 6071   2.320   5.774   2.545 -0.3385  0.8249  0.1891
   70SAPC   H8X 6072   2.224   5.827   2.556 -0.3851  0.6783  0.5110
   70SAPC   H8Y 6073   2.401   5.839   2.585  0.8694  0.0842 -0.9835
   70SAPC   C39 6074   2.304   5.639   2.630 -0.0893  0.0936  1.1549
   70SAPC   H9X 6075   2.380   5.571   2.585 -1.1477 -0.6414  0.3945
   70SAPC   H9Y 6076   2.202   5.601   2.606 -0.0351 -2.6503  4.4755
   70SAPC  C310 6077   2.296   5.656   2.781 -0.2654 -0.1985 -0.3657
   70SAPC  H10X 6078   2.217   5.732   2.798 -0.7171 -0.6689 -0.3335
   70SAPC  H10Y 6079   2.392   5.704   2.812 -1.5869  1.8500  0.7853
   70SAPC  C311 6080   2.249   5.528   2.850 -0.2038 -0.0877  0.0198
   70SAPC  H11X 6081   2.328   5.450   2.840  1.4166  1.2398  1.5810
   70SAPC  H11Y 6082   2.165   5.482   2.795  0.9151 -0.5693 -1.3428
   70SAPC  C312 6083   2.209   5.555   2.995  0.2076 -0.3389 -0.0674
   70SAPC  H12X 6084   2.151   5.467   3.030 -2.1786  0.3584 -1.9767
   70SAPC  H12Y 6085   2.125   5.627   3.005 -0.9385 -1.6641  0.2912
   70SAPC  C313 6086   2.317   5.586   3.091 -0.1479  0.8235  0.0857
   70SAPC  H13X 6087   2.356   5.675   3.037 -0.5977 -0.4248 -2.4232
   70SAPC  H13Y 6088   2.398   5.509   3.094 -0.8593  0.0767  2.8143
   70SAPC  C314 6089   2.280   5.621   3.229  0.1477  0.7449 -0.4666
   70SAPC  H14X 6090   2.258   5.526   3.283 -5.5158  2.9649  1.8251
   70SAPC  H14Y 6091   2.184   5.677   3.236 -0.1939  0.0255  1.2163
   70SAPC  C315 6092   2.386   5.697   3.300  0.0095  0.2191  0.3926
   70SAPC  H15X 6093   2.407   5.787   3.237 -0.2503  1.1498  1.6099
   70SAPC  H15Y 6094   2.481   5.640   3.287  0.7950  1.5314  0.2147
   70SAPC  C316 6095   2.353   5.729   3.438  0.0045 -0.0654 -0.5999
   70SAPC  H16X 6096   2.350   5.637   3.501 -1.2017  1.4224  1.6395
   70SAPC  H16Y 6097   2.254   5.778   3.446  0.5667  1.2252 -1.1494
   70SAPC  C317 6098   2.452   5.829   3.508  0.5252 -0.6479 -0.4414
   70SAPC  H17X 6099   2.404   5.849   3.607 -1.6624 -1.6840 -1.2273
   70SAPC  H17Y 6100   2.458   5.931   3.464  2.1660 -0.6602 -0.2930
   70SAPC  C318 6101   2.589   5.767   3.532  0.3260 -0.4481  0.4979
   70SAPC  H18X 6102   2.587   5.666   3.578  2.0552 -2.5073 -3.4663
   70SAPC  H18Y 6103   2.645   5.850   3.579  0.3241  1.9582 -3.3243
   70SAPC  H18Z 6104   2.640   5.753   3.434 -1.1036  0.1333 -0.3566
   71SAPC     N 6105   2.388   2.570   1.621 -0.8446  0.5144  0.4530
   71SAPC   C12 6106   2.302   2.691   1.639 -0.7167  0.0641  0.1188
   71SAPC  H12A 6107   2.252   2.707   1.545  0.1496  0.3499 -0.3022
   71SAPC  H12B 6108   2.357   2.781   1.660 -1.8640  0.9266 -0.4526
   71SAPC   C13 6109   2.460   2.524   1.739 -0.2934 -0.5739 -0.6714
   71SAPC  H13A 6110   2.518   2.436   1.717 -0.3581  0.0766 -3.9342
   71SAPC  H13B 6111   2.530   2.593   1.784 -1.5412  0.4478 -0.2348
   71SAPC  H13C 6112   2.385   2.497   1.813  0.1218  0.2434  0.0623
   71SAPC   C14 6113   2.309   2.455   1.569  0.7633  0.3865  0.2824
   71SAPC  H14A 6114   2.213   2.446   1.619 -0.6299 -0.6427 -2.3601
   71SAPC  H14B 6115   2.280   2.466   1.465  2.0372 -1.2072 -0.2786
   71SAPC  H14C 6116   2.356   2.358   1.572  1.4577  0.5838 -2.0445
   71SAPC   C15 6117   2.489   2.604   1.510  0.2415  0.2276 -0.0879
   71SAPC  H15A 6118   2.539   2.519   1.467  1.1417  0.9364 -0.4640
   71SAPC  H15B 6119   2.428   2.639   1.428  1.4508 -0.4058 -1.2966
   71SAPC  H15C 6120   2.560   2.681   1.535 -0.5914  1.0287 -0.1218
   71SAPC   C11 6121   2.184   2.670   1.738  0.0976 -0.0652  0.1374
   71SAPC  H11A 6122   2.153   2.772   1.770  1.0281  0.8283 -1.6508
   71SAPC  H11B 6123   2.221   2.621   1.831 -2.3235  0.0309  1.2265
   71SAPC     P 6124   1.948   2.654   1.624  0.0069 -0.0852  0.0296
   71SAPC   O13 6125   2.008   2.739   1.520 -0.6644 -0.4240 -0.3439
   71SAPC   O14 6126   1.857   2.541   1.591 -0.1933 -0.2263  0.4496
   71SAPC   O12 6127   2.072   2.590   1.691  0.2708 -0.4045  0.2844
   71SAPC   O11 6128   1.874   2.745   1.732 -0.0732  0.0855  0.2232
   71SAPC    C1 6129   1.859   2.679   1.863 -0.1587  0.2672  0.4389
   71SAPC    HA 6130   1.789   2.595   1.847 -1.2700  1.0077  1.2702
   71SAPC    HB 6131   1.953   2.632   1.898 -1.1500 -2.0810  0.1300
   71SAPC    C2 6132   1.780   2.766   1.959 -0.2135 -0.2083  0.1070
   71SAPC    HS 6133   1.678   2.787   1.918 -0.4304 -0.7307  0.3663
   71SAPC   O21 6134   1.851   2.888   1.981 -0.3212 -0.1420  0.1184
   71SAPC   C21 6135   1.782   3.004   1.987 -0.0151 -0.2264 -0.7196
   71SAPC   O22 6136   1.671   3.017   1.939  0.6406 -0.4009  0.6767
   71SAPC   C22 6137   1.860   3.096   2.074  0.1107 -0.7455 -0.2601
   71SAPC   H2R 6138   1.966   3.065   2.064 -0.2915 -2.1472 -0.5364
   71SAPC   H2S 6139   1.851   3.198   2.032 -1.2135 -1.2871 -1.3721
   71SAPC    C3 6140   1.749   2.700   2.097 -0.4407  0.0007 -0.1827
   71SAPC    HX 6141   1.849   2.674   2.139 -1.5017 -0.8447  1.9570
   71SAPC    HY 6142   1.695   2.603   2.090 -1.2913  0.5038 -0.7663
   71SAPC   O31 6143   1.697   2.790   2.195  0.0278  0.1319  0.3410
   71SAPC   C31 6144   1.565   2.786   2.203  0.0258  0.7578  0.1509
   71SAPC   O32 6145   1.493   2.710   2.139  0.2085 -0.3149  0.2131
   71SAPC   C32 6146   1.523   2.903   2.290 -0.3553 -0.0476  0.5974
   71SAPC   H2X 6147   1.413   2.897   2.300 -0.4790 -1.1357 -1.0813
   71SAPC   H2Y 6148   1.554   3.000   2.245 -0.2631  0.0868  0.9442
   71SAPC   C23 6149   1.804   3.101   2.217 -0.0497 -0.4873 -0.2374
   71SAPC   H3R 6150   1.798   2.993   2.246  1.4512 -0.0986  1.7406
   71SAPC   H3S 6151   1.716   3.167   2.227  0.2220 -0.3134  1.3907
   71SAPC   C24 6152   1.907   3.159   2.309 -0.0747 -0.5367  0.5820
   71SAPC   H4R 6153   1.908   3.270   2.299 -0.9660 -0.5960 -0.3245
   71SAPC   H4S 6154   2.004   3.108   2.287 -1.5571 -3.0310 -0.5579
   71SAPC   C25 6155   1.861   3.121   2.451 -0.1385 -0.1599  0.4029
   71SAPC   H5R 6156   1.884   3.018   2.479 -0.7232 -0.2932  0.4098
   71SAPC   C26 6157   1.778   3.190   2.535  0.1239 -0.6927  0.6392
   71SAPC   H6R 6158   1.728   3.149   2.623  0.5060  0.9766  1.6884
   71SAPC   C27 6159   1.734   3.336   2.499  0.3536  0.2826  0.2637
   71SAPC   H7R 6160   1.794   3.376   2.415  0.2078  1.0658  0.5214
   71SAPC   H7S 6161   1.756   3.404   2.585 -0.1277 -0.9933  1.4477
   71SAPC   C28 6162   1.596   3.335   2.449  0.7467  0.3550  0.0159
   71SAPC   H8R 6163   1.594   3.365   2.343 -0.3911 -2.7705 -0.9590
   71SAPC   C29 6164   1.480   3.327   2.511  0.3711  0.3647  0.3064
   71SAPC   H9R 6165   1.388   3.328   2.451  1.6209 -1.0653 -1.7303
   71SAPC  C210 6166   1.454   3.309   2.656  0.1533 -0.5016 -0.2651
   71SAPC  H10R 6167   1.548   3.302   2.716  0.6327 -2.7331 -1.1512
   71SAPC  H10S 6168   1.396   3.214   2.655 -0.6572 -0.0122 -0.2686
   71SAPC  C211 6169   1.365   3.418   2.700 -0.3662 -0.2262  0.1744
   71SAPC  H11R 6170   1.317   3.473   2.618 -0.7122  1.6495  1.5818
   71SAPC  C212 6171   1.332   3.445   2.828 -0.4779 -1.0229  0.4711
   71SAPC  H12R 6172   1.267   3.532   2.842  0.1620 -0.6675  1.3420
   71SAPC  C213 6173   1.370   3.369   2.953  0.0004 -0.1570 -0.6721
   71SAPC  H13R 6174   1.411   3.268   2.934 -0.1030 -0.3642  0.1756
   71SAPC  H13S 6175   1.277   3.348   3.011  0.7336 -1.6146  0.0159
   71SAPC  C214 6176   1.455   3.446   3.043  0.3537 -0.2862  0.1174
   71SAPC  H14R 6177   1.414   3.535   3.094  3.3968  0.1480  2.0856
   71SAPC  C215 6178   1.585   3.422   3.076 -0.3976  0.4968 -0.0317
   71SAPC  H15R 6179   1.643   3.488   3.142  1.3732  0.1631 -1.1916
   71SAPC  C216 6180   1.662   3.302   3.033  0.0209  0.1857 -0.4903
   71SAPC  H16R 6181   1.756   3.334   2.984 -0.5945 -1.0965 -2.5969
   71SAPC  H16S 6182   1.624   3.230   2.959  0.7573 -3.7126  2.5574
   71SAPC  C217 6183   1.714   3.213   3.152  0.0804  0.3161 -0.4652
   71SAPC  H17R 6184   1.627   3.144   3.160  0.5892 -0.3991 -0.9662
   71SAPC  H17S 6185   1.732   3.271   3.245  1.5313  0.0883 -0.5968
   71SAPC  C218 6186   1.850   3.153   3.127 -0.7141  0.4479  0.1289
   71SAPC  H18R 6187   1.874   3.085   3.211  0.6392  1.3352  0.5062
   71SAPC  H18S 6188   1.930   3.230   3.140  1.9807 -2.0201 -0.6408
   71SAPC  C219 6189   1.879   3.096   2.991  0.4305  0.5500  0.5519
   71SAPC  H19R 6190   1.964   3.150   2.945  0.4438  0.9872  1.0772
   71SAPC  H19S 6191   1.787   3.108   2.930 -1.4332  1.0645  3.2729
   71SAPC  C220 6192   1.924   2.947   2.992  0.9263  0.0468 -0.6722
   71SAPC  H20R 6193   2.015   2.936   3.055 -0.0276 -1.9810  0.4214
   71SAPC  H20S 6194   1.947   2.908   2.890 -0.3991 -0.3826 -0.8204
   71SAPC  H20T 6195   1.843   2.893   3.045 -1.0105  3.2234 -0.1376
   71SAPC   C33 6196   1.572   2.887   2.438  0.8773 -0.1064  0.3400
   71SAPC   H3X 6197   1.553   2.984   2.488  0.3021  0.5789 -1.1556
   71SAPC   H3Y 6198   1.682   2.868   2.430  1.0903  0.3257  1.9547
   71SAPC   C34 6199   1.506   2.776   2.510 -0.1512 -0.3688 -0.3172
   71SAPC   H4X 6200   1.525   2.676   2.465 -3.3149 -0.5151 -1.6022
   71SAPC   H4Y 6201   1.398   2.802   2.509 -0.4157 -1.3326  0.9259
   71SAPC   C35 6202   1.539   2.762   2.657 -0.5765  0.6273  0.4303
   71SAPC   H5X 6203   1.647   2.784   2.671 -0.4399  0.2094  0.0539
   71SAPC   H5Y 6204   1.519   2.655   2.678 -1.4022 -0.3400 -4.1929
   71SAPC   C36 6205   1.469   2.852   2.764 -0.1781  0.5395  0.1897
   71SAPC   H6X 6206   1.359   2.837   2.769 -0.0609 -2.2607 -2.7617
   71SAPC   H6Y 6207   1.487   2.958   2.736  0.5647  0.1687 -0.7828
   71SAPC   C37 6208   1.521   2.818   2.902 -0.7145 -0.6799  0.0695
   71SAPC   H7X 6209   1.631   2.827   2.893 -0.6485  0.0246  1.3075
   71SAPC   H7Y 6210   1.493   2.714   2.929  0.0711 -0.2817  2.7563
   71SAPC   C38 6211   1.473   2.918   3.010 -0.1006 -0.4143  0.6215
   71SAPC   H8X 6212   1.364   2.936   3.002  0.2357  2.3019  0.9615
   71SAPC   H8Y 6213   1.521   3.012   2.974 -0.9436 -0.8707 -1.8655
   71SAPC   C39 6214   1.527   2.876   3.145 -0.1250  0.2922 -0.4710
   71SAPC   H9X 6215   1.635   2.891   3.168 -0.5074  1.9061  0.3856
   71SAPC   H9Y 6216   1.512   2.766   3.155 -1.1920  0.4735  0.1156
   71SAPC  C310 6217   1.442   2.942   3.258 -0.5778  0.9444 -0.0014
   71SAPC  H10X 6218   1.337   2.905   3.264  0.1143 -1.0074  1.5648
   71SAPC  H10Y 6219   1.452   3.049   3.233 -1.0715  0.5301 -2.2418
   71SAPC  C311 6220   1.496   2.900   3.395  0.1752  0.2301  0.3661
   71SAPC  H11X 6221   1.605   2.914   3.409  0.0811  0.2954  1.1162
   71SAPC  H11Y 6222   1.476   2.791   3.405 -0.7169  0.3900  0.3594
   71SAPC  C312 6223   1.427   2.975   3.514 -0.9852  0.1288  0.3972
   71SAPC  H12X 6224   1.463   2.945   3.615 -0.5066  0.4637  0.3306
   71SAPC  H12Y 6225   1.318   2.958   3.511 -1.4631  2.1574  2.7782
   71SAPC  C313 6226   1.458   3.124   3.505 -0.4104 -0.4406  0.3263
   71SAPC  H13X 6227   1.409   3.174   3.591  2.9969  0.3563  1.9715
   71SAPC  H13Y 6228   1.433   3.179   3.412  1.4633 -0.1148 -0.0113
   71SAPC  C314 6229   1.614   3.156   3.524  0.3703  0.2284  0.4261
   71SAPC  H14X 6230   1.663   3.131   3.427  0.0035  2.2766 -0.3354
   71SAPC  H14Y 6231   1.653   3.094   3.607 -0.0452  0.7012  0.9851
   71SAPC  C315 6232   1.650   3.296   3.565 -0.5943 -0.7191 -0.4644
   71SAPC  H15X 6233   1.613   3.361   3.483  1.9730 -1.4628 -2.3365
   71SAPC  H15Y 6234   1.761   3.303   3.571 -0.7706  1.7503  2.0042
   71SAPC  C316 6235   1.597   3.329   3.710 -0.3798  0.3673 -0.3066
   71SAPC  H16X 6236   1.592   3.241   3.777  1.7470 -0.4858 -1.1717
   71SAPC  H16Y 6237   1.491   3.361   3.697 -0.6841 -0.4964  0.0504
   71SAPC  C317 6238   1.682   3.434   3.788 -0.6815  0.2151  0.2557
   71SAPC  H17X 6239   1.788   3.401   3.788 -0.4607  0.6486 -3.2125
   71SAPC  H17Y 6240   1.636   3.445   3.889 -2.1611 -0.6578 -0.2829
   71SAPC  C318 6241   1.674   3.563   3.703 -0.8221  0.1873  0.3853
   71SAPC  H18X 6242   1.733   3.649   3.743  0.9709 -1.1343  0.7124
   71SAPC  H18Y 6243   1.571   3.604   3.702 -0.1900  1.8552 -0.6339
   71SAPC  H18Z 6244   1.686   3.547   3.593 -0.8608  2.7270 -0.0567
   72SAPC     N 6245   1.337   0.728   1.096 -0.2390 -0.0380 -0.1411
   72SAPC   C12 6246   1.405   0.796   1.210  0.0102  0.8958 -0.2870
   72SAPC  H12A 6247   1.459   0.879   1.167  0.3202  2.2499  2.4548
   72SAPC  H12B 6248   1.483   0.736   1.255  0.8985  1.2985 -1.2537
   72SAPC   C13 6249   1.258   0.824   1.015 -0.7211  0.1612 -0.0521
   72SAPC  H13A 6250   1.217   0.789   0.921  0.6897 -1.4232 -0.1201
   72SAPC  H13B 6251   1.177   0.860   1.077  0.1566  0.5105  0.9364
   72SAPC  H13C 6252   1.319   0.912   0.998 -0.6057 -0.0069 -0.5294
   72SAPC   C14 6253   1.439   0.654   1.011 -0.8961 -0.3508  0.1680
   72SAPC  H14A 6254   1.484   0.578   1.072 -1.1834  0.2405  1.1481
   72SAPC  H14B 6255   1.394   0.614   0.922  2.9720 -2.2402 -1.1476
   72SAPC  H14C 6256   1.517   0.720   0.976 -0.8475 -1.0940 -1.1730
   72SAPC   C15 6257   1.262   0.610   1.154  0.0128 -0.1580 -0.2970
   72SAPC  H15A 6258   1.174   0.634   1.213 -0.3113 -0.3290 -0.7051
   72SAPC  H15B 6259   1.226   0.558   1.067 -1.1208 -0.4487  0.3139
   72SAPC  H15C 6260   1.319   0.546   1.220 -0.6827 -0.2864  0.1954
   72SAPC   C11 6261   1.324   0.862   1.321  0.4674  0.7313  0.4161
   72SAPC  H11A 6262   1.392   0.912   1.393 -0.4536 -1.2282  2.8037
   72SAPC  H11B 6263   1.273   0.788   1.387  1.1187  0.8883  1.1074
   72SAPC     P 6264   1.236   1.110   1.284  0.2697 -0.1894  0.1987
   72SAPC   O13 6265   1.372   1.152   1.245  1.1691 -0.4521 -0.1495
   72SAPC   O14 6266   1.126   1.184   1.213  0.4582  0.5542  0.6451
   72SAPC   O12 6267   1.227   0.953   1.264  0.1668 -0.6485 -0.0810
   72SAPC   O11 6268   1.222   1.127   1.437  0.0823  0.4548 -0.6663
   72SAPC    C1 6269   1.109   1.056   1.494  0.6892  0.0652 -0.0432
   72SAPC    HA 6270   1.017   1.118   1.488  0.3029 -0.4409  0.4817
   72SAPC    HB 6271   1.079   0.958   1.450 -1.4159  1.8912 -3.0101
   72SAPC    C2 6272   1.139   1.021   1.645  0.9724 -0.0632  0.4671
   72SAPC    HS 6273   1.057   0.952   1.674  1.5807 -1.3641 -0.8261
   72SAPC   O21 6274   1.148   1.135   1.735 -0.1743 -0.1154  0.4527
   72SAPC   C21 6275   1.039   1.207   1.749 -0.2676 -0.3661  0.8863
   72SAPC   O22 6276   0.927   1.180   1.708  0.3739  0.4828 -0.2526
   72SAPC   C22 6277   1.073   1.331   1.844 -0.3700 -0.0109 -1.0163
   72SAPC   H2R 6278   1.180   1.326   1.876 -0.9068  1.3914  1.2031
   72SAPC   H2S 6279   1.050   1.422   1.786  0.6164  0.4943 -0.6536
   72SAPC    C3 6280   1.273   0.939   1.654 -0.4518  0.4743 -0.0130
   72SAPC    HX 6281   1.343   1.008   1.602 -1.3834  2.2565  0.9855
   72SAPC    HY 6282   1.260   0.844   1.599  3.8108 -1.2531  1.6162
   72SAPC   O31 6283   1.328   0.922   1.792  0.3671  0.2040  0.3885
   72SAPC   C31 6284   1.326   0.799   1.833 -0.5424 -0.7064  0.3838
   72SAPC   O32 6285   1.313   0.702   1.759  0.3833  0.0417 -0.2086
   72SAPC   C32 6286   1.361   0.801   1.982 -0.1784 -0.7438 -0.4297
   72SAPC   H2X 6287   1.382   0.902   2.024 -3.7082 -0.0357 -0.1134
   72SAPC   H2Y 6288   1.451   0.736   1.987 -0.7481 -1.4626  0.6073
   72SAPC   C23 6289   0.984   1.349   1.970 -0.3902  0.3438  0.0514
   72SAPC   H3R 6290   0.888   1.385   1.928  0.2634  2.4237  0.2333
   72SAPC   H3S 6291   1.030   1.420   2.043  2.6135  0.6672 -1.9716
   72SAPC   C24 6292   0.950   1.214   2.040  0.3988  0.0962  0.1115
   72SAPC   H4R 6293   0.916   1.145   1.960  0.5611 -0.7969  0.8056
   72SAPC   H4S 6294   0.875   1.216   2.122  1.8778 -2.3323  1.6385
   72SAPC   C25 6295   1.079   1.160   2.090 -0.9535  0.0510 -0.3100
   72SAPC   H5R 6296   1.136   1.119   2.005 -0.7346 -1.3592  0.4813
   72SAPC   C26 6297   1.122   1.157   2.215 -0.9762  0.2505 -0.6580
   72SAPC   H6R 6298   1.217   1.106   2.234 -0.1442  1.8047 -0.4774
   72SAPC   C27 6299   1.051   1.209   2.339  0.1519 -0.4896 -0.1556
   72SAPC   H7R 6300   1.036   1.131   2.417 -1.2597 -0.9032 -0.8205
   72SAPC   H7S 6301   0.946   1.238   2.317  0.1010 -0.7661 -0.2681
   72SAPC   C28 6302   1.117   1.329   2.405  0.3500 -0.4323  0.7578
   72SAPC   H8R 6303   1.180   1.384   2.335 -0.5516 -0.7466 -0.3334
   72SAPC   C29 6304   1.087   1.365   2.531 -0.0528 -1.1277 -0.0298
   72SAPC   H9R 6305   1.144   1.445   2.581 -0.8867 -1.6901  1.9142
   72SAPC  C210 6306   1.017   1.286   2.641  0.6892 -0.4570 -0.5097
   72SAPC  H10R 6307   1.069   1.305   2.738 -0.8710 -1.8709  0.6568
   72SAPC  H10S 6308   1.023   1.176   2.628 -0.7610 -1.0801  2.9717
   72SAPC  C211 6309   0.871   1.334   2.651 -0.7102 -0.1153 -0.0943
   72SAPC  H11R 6310   0.820   1.327   2.553  1.0965  1.6733 -1.2409
   72SAPC  C212 6311   0.798   1.363   2.761  0.0052  1.3932 -0.3805
   72SAPC  H12R 6312   0.691   1.381   2.741 -0.9031 -2.0303  0.6668
   72SAPC  C213 6313   0.842   1.350   2.905  0.3509 -0.7770 -0.6145
   72SAPC  H13R 6314   0.908   1.439   2.919  0.0672 -0.1685 -2.7782
   72SAPC  H13S 6315   0.930   1.283   2.915  0.0835 -1.4546 -2.4925
   72SAPC  C214 6316   0.740   1.348   3.023 -0.5869  0.5310  0.6217
   72SAPC  H14R 6317   0.641   1.313   2.991 -0.1916  1.2609 -1.5880
   72SAPC  C215 6318   0.761   1.390   3.147  0.0473 -0.8483 -0.3452
   72SAPC  H15R 6319   0.673   1.377   3.212 -0.4042 -0.0005 -0.7797
   72SAPC  C216 6320   0.877   1.454   3.211 -0.2310 -0.3323 -0.7628
   72SAPC  H16R 6321   0.845   1.529   3.288 -2.0362 -0.3962 -1.3927
   72SAPC  H16S 6322   0.935   1.501   3.129  0.4051 -2.0842 -1.3451
   72SAPC  C217 6323   0.977   1.353   3.273  0.1435 -0.2423 -0.0149
   72SAPC  H17R 6324   1.020   1.276   3.206 -0.1881 -0.8597  0.4809
   72SAPC  H17S 6325   0.927   1.298   3.355 -0.4086  1.1704  0.6417
   72SAPC  C218 6326   1.107   1.411   3.327  0.1093 -0.0165  0.5513
   72SAPC  H18R 6327   1.164   1.475   3.256 -0.3458 -0.9246 -0.6740
   72SAPC  H18S 6328   1.179   1.332   3.358 -3.0268 -2.7740  1.4765
   72SAPC  C219 6329   1.078   1.491   3.453  0.1561 -0.1789 -0.5003
   72SAPC  H19R 6330   1.009   1.428   3.513 -2.1002  0.3637 -2.4143
   72SAPC  H19S 6331   1.025   1.584   3.426 -1.0774 -0.8357 -0.4199
   72SAPC  C220 6332   1.198   1.521   3.532 -0.3138 -0.2656  0.3390
   72SAPC  H20R 6333   1.176   1.577   3.625 -3.7345 -1.1572  0.1953
   72SAPC  H20S 6334   1.264   1.585   3.470  0.4378 -2.7166 -1.5506
   72SAPC  H20T 6335   1.261   1.433   3.558 -0.0426  0.2902  1.6375
   72SAPC   C33 6336   1.251   0.735   2.073 -0.1458  0.8416 -0.0743
   72SAPC   H3X 6337   1.167   0.807   2.083  0.2900  1.3117  0.2469
   72SAPC   H3Y 6338   1.289   0.721   2.177 -3.6386  0.2040  1.2559
   72SAPC   C34 6339   1.204   0.592   2.022  0.2581 -0.3191 -0.3931
   72SAPC   H4X 6340   1.297   0.532   2.011 -0.4350 -1.6193  0.5279
   72SAPC   H4Y 6341   1.157   0.600   1.922  1.9375 -1.0658 -1.2786
   72SAPC   C35 6342   1.105   0.535   2.123 -0.2489 -0.1489 -0.4509
   72SAPC   H5X 6343   1.064   0.440   2.083 -0.0167 -1.2037  1.6823
   72SAPC   H5Y 6344   1.018   0.604   2.134 -2.1591 -2.5004  0.0034
   72SAPC   C36 6345   1.154   0.525   2.272  0.2632 -0.0579 -0.3686
   72SAPC   H6X 6346   1.197   0.622   2.305  1.8326 -1.5973  2.4855
   72SAPC   H6Y 6347   1.237   0.453   2.263 -0.3370 -0.5009 -3.7835
   72SAPC   C37 6348   1.054   0.478   2.371  0.6413 -0.0936  0.0891
   72SAPC   H7X 6349   0.974   0.414   2.329  1.6978 -2.2580  1.1880
   72SAPC   H7Y 6350   1.011   0.567   2.423 -0.7144 -2.4678  3.4334
   72SAPC   C38 6351   1.118   0.392   2.488 -0.0456  0.7229 -0.2480
   72SAPC   H8X 6352   1.216   0.428   2.526  0.1369 -0.8062  0.7918
   72SAPC   H8Y 6353   1.126   0.287   2.453  1.3232  0.5748  0.4409
   72SAPC   C39 6354   1.027   0.406   2.614  0.4453  0.0625  0.2037
   72SAPC   H9X 6355   0.931   0.354   2.594  1.2145 -1.9146  1.3218
   72SAPC   H9Y 6356   1.014   0.514   2.634 -3.6473 -0.5947  2.1090
   72SAPC  C310 6357   1.095   0.331   2.727  0.1198  0.1005 -0.0201
   72SAPC  H10X 6358   1.187   0.389   2.750  0.4108  0.2701 -1.5252
   72SAPC  H10Y 6359   1.119   0.228   2.691 -0.0997  0.4117 -1.0692
   72SAPC  C311 6360   1.014   0.312   2.851 -0.0908 -0.6393 -0.2526
   72SAPC  H11X 6361   0.935   0.244   2.813  0.0964  0.9722 -3.9213
   72SAPC  H11Y 6362   0.968   0.411   2.875  1.6715 -0.1487  1.3969
   72SAPC  C312 6363   1.096   0.256   2.975  0.3172  0.2475  0.2721
   72SAPC  H12X 6364   1.174   0.331   2.999  1.9795 -0.8788 -1.3389
   72SAPC  H12Y 6365   1.150   0.160   2.961  1.4743  0.4956  2.5751
   72SAPC  C313 6366   0.997   0.256   3.097  0.3091 -0.1820 -0.8053
   72SAPC  H13X 6367   0.942   0.160   3.089  1.4223 -0.7859 -1.4417
   72SAPC  H13Y 6368   0.922   0.336   3.075 -1.2143 -1.2092  0.4354
   72SAPC  C314 6369   1.066   0.267   3.237  0.0566 -0.8793  0.1951
   72SAPC  H14X 6370   1.076   0.377   3.255 -1.0778 -0.5162 -1.2480
   72SAPC  H14Y 6371   1.158   0.205   3.245  1.2550  0.9802  1.9963
   72SAPC  C315 6372   0.975   0.208   3.343  0.1651 -0.3929  0.3205
   72SAPC  H15X 6373   0.957   0.105   3.307  1.8995  0.3112 -2.9755
   72SAPC  H15Y 6374   0.877   0.260   3.342  1.1073  1.5345 -1.9004
   72SAPC  C316 6375   1.042   0.205   3.484  0.1233 -0.0369  0.2309
   72SAPC  H16X 6376   1.056   0.310   3.515 -0.6602 -0.0937  0.7899
   72SAPC  H16Y 6377   1.142   0.159   3.467  0.4063  0.7689 -0.3497
   72SAPC  C317 6378   0.967   0.126   3.589 -0.0366 -0.2726  0.5077
   72SAPC  H17X 6379   0.934   0.026   3.553 -2.0600  1.0358 -1.5213
   72SAPC  H17Y 6380   0.869   0.177   3.604  0.0057  0.6637 -2.0115
   72SAPC  C318 6381   1.036   0.121   3.723  0.0121  0.3022 -0.1021
   72SAPC  H18X 6382   1.134   0.071   3.710 -0.6505 -1.4286  1.2384
   72SAPC  H18Y 6383   0.978   0.062   3.797 -2.9284  2.9188 -0.0681
   72SAPC  H18Z 6384   1.066   0.220   3.765  3.0548 -0.5307 -0.1156
   73SLPC     N 6385   1.240   1.285   6.165 -0.2801  0.2461  0.5144
   73SLPC   C13 6386   1.310   1.340   6.044 -0.3651 -0.5778 -0.3254
   73SLPC  H13A 6387   1.270   1.302   5.951  0.0182 -3.0489  0.4541
   73SLPC  H13B 6388   1.312   1.448   6.032 -2.2074 -0.4866 -0.0212
   73SLPC  H13C 6389   1.414   1.311   6.047  0.7556  2.8940 -0.5146
   73SLPC   C14 6390   1.231   1.134   6.167 -1.0062  0.1779  0.1794
   73SLPC  H14A 6391   1.177   1.100   6.254  0.2617  1.1164  1.3701
   73SLPC  H14B 6392   1.179   1.103   6.077 -1.5316 -0.1950  0.6059
   73SLPC  H14C 6393   1.329   1.090   6.159 -0.8103  0.6839 -0.3137
   73SLPC   C15 6394   1.099   1.343   6.167 -0.8893 -0.3753  0.3183
   73SLPC  H15A 6395   1.111   1.450   6.157 -0.0957 -0.4570  0.2900
   73SLPC  H15B 6396   1.033   1.300   6.094 -3.1632  2.0260  0.8243
   73SLPC  H15C 6397   1.062   1.337   6.268 -1.5773 -1.1628  0.0287
   73SLPC   C12 6398   1.308   1.331   6.289  0.2578 -0.9212 -0.4138
   73SLPC  H12A 6399   1.393   1.269   6.313  2.0439  1.1155 -1.0617
   73SLPC  H12B 6400   1.240   1.328   6.372 -1.0414 -2.1227 -1.4796
   73SLPC   C11 6401   1.360   1.481   6.292  0.2543 -0.1231 -0.5603
   73SLPC  H11A 6402   1.448   1.478   6.224  0.2619  0.2418 -0.5699
   73SLPC  H11B 6403   1.391   1.495   6.398 -2.1798  0.5979  0.1144
   73SLPC     P 6404   1.293   1.703   6.167  0.0116  0.0560  0.2273
   73SLPC   O13 6405   1.196   1.811   6.190 -0.1205 -0.3205  0.0488
   73SLPC   O14 6406   1.438   1.738   6.184 -0.0669 -0.6830  0.5146
   73SLPC   O12 6407   1.256   1.576   6.258  0.3498  0.3510 -0.4377
   73SLPC   O11 6408   1.281   1.658   6.016 -0.2316  0.2692 -0.2562
   73SLPC    C1 6409   1.161   1.657   5.938  0.3441  0.5847 -0.3120
   73SLPC    HA 6410   1.097   1.581   5.985  1.6341 -1.1875 -1.2926
   73SLPC    HB 6411   1.111   1.756   5.933  0.5161  0.6450 -0.9942
   73SLPC    C2 6412   1.200   1.619   5.795  0.1253 -0.5523 -0.6132
   73SLPC    HS 6413   1.233   1.514   5.809 -1.9144 -0.9992  1.6001
   73SLPC   O21 6414   1.297   1.714   5.750  0.2829  0.1795 -0.2652
   73SLPC   C21 6415   1.370   1.658   5.659 -0.6872  0.1333 -0.6739
   73SLPC   O22 6416   1.379   1.543   5.628 -0.4564  0.4289  0.4094
   73SLPC   C22 6417   1.438   1.776   5.588 -0.3199  0.4630  0.6867
   73SLPC   H2R 6418   1.405   1.873   5.632 -1.8342  0.3020 -0.0288
   73SLPC   H2S 6419   1.549   1.776   5.597 -0.3161 -0.9628  0.8043
   73SLPC    C3 6420   1.073   1.619   5.700  0.0023  0.9381  0.0494
   73SLPC    HX 6421   1.048   1.722   5.669 -1.5338  0.5761 -0.0130
   73SLPC    HY 6422   0.987   1.582   5.761 -0.5148  0.7685 -0.7608
   73SLPC   O31 6423   1.081   1.533   5.582 -0.6020 -0.6750  0.4845
   73SLPC   C31 6424   1.069   1.407   5.614  0.4272  0.9788  0.3954
   73SLPC   O32 6425   1.054   1.357   5.723  0.4950 -0.0529 -0.3110
   73SLPC   C32 6426   1.088   1.327   5.479 -0.2037 -0.4241 -0.1921
   73SLPC   H2X 6427   1.079   1.219   5.503 -3.0735 -1.1455 -3.6574
   73SLPC   H2Y 6428   1.193   1.331   5.442 -0.2283 -1.6937 -0.4572
   73SLPC   C23 6429   1.397   1.781   5.439  0.0006 -1.2085  0.3201
   73SLPC   H3R 6430   1.424   1.881   5.397  1.6130 -0.7967  2.1527
   73SLPC   H3S 6431   1.288   1.762   5.438 -0.1352 -0.4709  0.2205
   73SLPC   C24 6432   1.471   1.668   5.366  0.3823 -0.1424  0.4109
   73SLPC   H4R 6433   1.448   1.566   5.403  1.1021 -1.1140 -1.6605
   73SLPC   H4S 6434   1.581   1.666   5.383 -0.0553 -1.0038  3.7334
   73SLPC   C25 6435   1.430   1.672   5.210  0.1944 -0.4649 -0.8061
   73SLPC   H5R 6436   1.427   1.775   5.168 -3.0002 -0.7782 -1.6131
   73SLPC   H5S 6437   1.325   1.640   5.192 -0.8165  2.0851  0.0033
   73SLPC   C26 6438   1.512   1.578   5.121 -1.0656  0.8317 -0.4609
   73SLPC   H6R 6439   1.498   1.473   5.153 -1.9543  0.8785 -0.6691
   73SLPC   H6S 6440   1.621   1.597   5.132 -0.5264 -1.3923 -1.4981
   73SLPC   C27 6441   1.469   1.586   4.968 -0.2749  0.5294 -0.4817
   73SLPC   H7R 6442   1.358   1.582   4.963 -0.2565 -1.1217 -0.1384
   73SLPC   H7S 6443   1.503   1.487   4.931 -1.0459 -0.3022  0.9635
   73SLPC   C28 6444   1.505   1.711   4.886 -0.3745  0.2855 -0.2355
   73SLPC   H8R 6445   1.615   1.697   4.879 -0.5849 -1.0405 -1.1553
   73SLPC   H8S 6446   1.478   1.809   4.931  2.1471  1.8759 -1.8556
   73SLPC   C29 6447   1.436   1.705   4.749 -0.3539 -0.0727 -0.0035
   73SLPC   H9R 6448   1.332   1.742   4.754  0.3505  1.8767  1.7803
   73SLPC  C210 6449   1.492   1.662   4.632  0.7764  0.1414 -0.3703
   73SLPC  H10R 6450   1.432   1.642   4.542  2.5538  0.5427 -1.7004
   73SLPC  C211 6451   1.633   1.630   4.605 -0.4202  0.2487  0.4910
   73SLPC  H11R 6452   1.638   1.547   4.531 -0.2753  0.1340  0.6281
   73SLPC  H11S 6453   1.680   1.582   4.693  0.8990  1.0298  0.2469
   73SLPC  C212 6454   1.730   1.743   4.565  0.0508  0.0949  0.3401
   73SLPC  H12R 6455   1.748   1.810   4.650  0.6789 -2.8980  2.7476
   73SLPC  C213 6456   1.770   1.774   4.441 -0.2144  0.7682 -0.5271
   73SLPC  H13R 6457   1.836   1.860   4.429  4.2084 -2.0904  0.8349
   73SLPC  C214 6458   1.743   1.693   4.315  0.1036 -0.0575  0.1318
   73SLPC  H14R 6459   1.643   1.721   4.277  0.2439 -0.5975 -0.6528
   73SLPC  H14S 6460   1.738   1.585   4.341 -0.1569  0.2023  1.2433
   73SLPC  C215 6461   1.853   1.729   4.209  0.6906  0.4921  1.2782
   73SLPC  H15R 6462   1.947   1.675   4.235  0.7859  0.3739  0.7051
   73SLPC  H15S 6463   1.863   1.839   4.216 -0.9578  0.6861  1.0035
   73SLPC  C216 6464   1.816   1.693   4.070 -0.0259 -0.0056 -0.3732
   73SLPC  H16R 6465   1.713   1.722   4.042 -0.0063 -1.6449 -2.4219
   73SLPC  H16S 6466   1.816   1.583   4.056  2.1987  0.0018 -0.9182
   73SLPC  C217 6467   1.915   1.744   3.966  0.1643 -0.1795 -1.0021
   73SLPC  H17R 6468   2.010   1.703   4.007  0.4207  1.8780  0.6192
   73SLPC  H17S 6469   1.914   1.854   3.977  0.8856 -0.2948  0.5293
   73SLPC  C218 6470   1.907   1.696   3.821  0.2810  0.3972  0.0898
   73SLPC  H18R 6471   1.939   1.590   3.811 -1.2895  0.0573 -1.8429
   73SLPC  H18S 6472   1.951   1.754   3.737  0.8785 -1.4166 -0.8950
   73SLPC  H18T 6473   1.801   1.680   3.795  1.0831 -2.2242 -2.0860
   73SLPC   C33 6474   0.993   1.359   5.364 -0.1142  0.6441  0.2309
   73SLPC   H3X 6475   0.974   1.469   5.364  2.7966  1.2642  2.1096
   73SLPC   H3Y 6476   0.902   1.297   5.373  0.5993 -0.8608 -1.9779
   73SLPC   C34 6477   1.059   1.316   5.230 -0.0654  0.0908 -0.0584
   73SLPC   H4X 6478   1.023   1.218   5.193  0.7598 -0.4929  0.6546
   73SLPC   H4Y 6479   1.169   1.296   5.236 -0.0626  0.4148  1.2019
   73SLPC   C35 6480   1.042   1.410   5.115 -0.1597  0.2705  0.6959
   73SLPC   H5X 6481   1.077   1.515   5.127 -2.3531  0.8942  2.1992
   73SLPC   H5Y 6482   0.936   1.420   5.081  0.0432 -0.8092 -0.3460
   73SLPC   C36 6483   1.113   1.367   4.983 -0.7008  0.3795  0.5593
   73SLPC   H6X 6484   1.068   1.270   4.955 -2.6278  1.4604 -0.3030
   73SLPC   H6Y 6485   1.223   1.351   4.990 -0.4192  1.7642 -0.3140
   73SLPC   C37 6486   1.088   1.470   4.865 -0.0633  0.0107 -0.6872
   73SLPC   H7X 6487   1.122   1.571   4.899 -2.7056  0.7189  0.0891
   73SLPC   H7Y 6488   0.979   1.481   4.846 -0.2030  0.1421  0.1525
   73SLPC   C38 6489   1.161   1.427   4.742  0.1546 -0.3306  0.2218
   73SLPC   H8X 6490   1.101   1.342   4.704 -1.0478 -0.1218  1.5837
   73SLPC   H8Y 6491   1.267   1.399   4.762  1.3985  3.5285 -0.1739
   73SLPC   C39 6492   1.154   1.528   4.625  0.4970  0.3776 -0.2731
   73SLPC   H9X 6493   1.229   1.611   4.632  1.8318 -0.8241  0.1173
   73SLPC   H9Y 6494   1.054   1.575   4.631  0.6437  1.0358 -2.2155
   73SLPC  C310 6495   1.157   1.464   4.486  0.1071  0.6636  0.9262
   73SLPC  H10X 6496   1.134   1.540   4.407  1.3084  0.1196  0.0296
   73SLPC  H10Y 6497   1.074   1.391   4.490 -0.1877  0.6248 -2.7479
   73SLPC  C311 6498   1.285   1.389   4.452  0.5159  0.9757 -0.2579
   73SLPC  H11X 6499   1.306   1.314   4.532  0.5334 -0.2130 -1.3523
   73SLPC  H11Y 6500   1.372   1.458   4.450  2.1004 -0.9353 -0.5158
   73SLPC  C312 6501   1.277   1.317   4.312 -0.6423  0.0465 -0.0847
   73SLPC  H12X 6502   1.238   1.377   4.227  0.2352 -1.2252 -1.4526
   73SLPC  H12Y 6503   1.201   1.236   4.318 -1.3450  0.5555 -1.6046
   73SLPC  C313 6504   1.408   1.248   4.277  0.2546  0.1619  0.2149
   73SLPC  H13X 6505   1.394   1.180   4.191 -0.9372  0.5786  0.0627
   73SLPC  H13Y 6506   1.449   1.179   4.354 -1.2018 -0.5677  0.3629
   73SLPC  C314 6507   1.520   1.349   4.237  0.0048  0.0928  0.7121
   73SLPC  H14X 6508   1.601   1.276   4.219 -0.2086  0.0295  0.0012
   73SLPC  H14Y 6509   1.541   1.406   4.330  2.4366  0.3815  0.0540
   73SLPC  C315 6510   1.492   1.434   4.117  0.2429  0.2565 -0.3087
   73SLPC  H15X 6511   1.579   1.503   4.110  1.8930 -1.5935  1.0010
   73SLPC  H15Y 6512   1.403   1.500   4.125 -0.9557 -1.3938  0.6040
   73SLPC  C316 6513   1.491   1.345   3.991  0.8027 -0.9137  0.1007
   73SLPC  H16X 6514   1.416   1.265   4.008 -0.3905  0.0446 -0.4699
   73SLPC  H16Y 6515   1.589   1.293   3.986  1.0738 -0.4390  0.3912
   73SLPC  C317 6516   1.449   1.405   3.858 -0.5249 -0.0761 -0.1745
   73SLPC  H17X 6517   1.513   1.493   3.832  0.4290 -1.2012 -1.8116
   73SLPC  H17Y 6518   1.340   1.424   3.866 -1.2032 -3.0253 -1.1271
   73SLPC  C318 6519   1.487   1.300   3.742  0.1178 -0.7366 -0.3741
   73SLPC  H18X 6520   1.590   1.260   3.746  1.4965  2.3724 -1.7140
   73SLPC  H18Y 6521   1.478   1.362   3.650 -0.0157 -1.1581 -0.6492
   73SLPC  H18Z 6522   1.417   1.214   3.751 -1.6813  0.8819  5.4100
   74SLPC     N 6523   0.455   1.946   6.502 -0.3366 -0.3498 -0.1157
   74SLPC   C13 6524   0.506   2.082   6.520 -0.4301 -0.3031 -0.3824
   74SLPC  H13A 6525   0.427   2.155   6.526  0.8267  1.0464  0.4397
   74SLPC  H13B 6526   0.556   2.095   6.615 -0.1600  1.6307 -0.7511
   74SLPC  H13C 6527   0.584   2.097   6.446  0.4920 -0.7359  0.4709
   74SLPC   C14 6528   0.361   1.911   6.618 -0.7048  0.1798  0.1436
   74SLPC  H14A 6529   0.284   1.983   6.643 -1.6705 -0.6484 -0.3958
   74SLPC  H14B 6530   0.307   1.818   6.606 -0.9841  0.4019 -0.3528
   74SLPC  H14C 6531   0.421   1.891   6.706 -0.7825 -1.0001 -0.0555
   74SLPC   C15 6532   0.570   1.853   6.508 -0.0502  0.6697 -0.5724
   74SLPC  H15A 6533   0.612   1.848   6.607  0.2080 -0.9022 -0.7387
   74SLPC  H15B 6534   0.546   1.755   6.470  1.7694 -0.7910  1.8088
   74SLPC  H15C 6535   0.645   1.888   6.439  1.9750 -2.0457  0.1191
   74SLPC   C12 6536   0.369   1.940   6.377  0.0805  0.2266 -0.0004
   74SLPC  H12A 6537   0.283   2.004   6.394  0.5065  0.1103  3.0320
   74SLPC  H12B 6538   0.324   1.842   6.367 -1.0157  0.5391  1.4862
   74SLPC   C11 6539   0.438   1.985   6.245 -0.2300 -0.0172 -0.4778
   74SLPC  H11A 6540   0.469   2.091   6.250  0.1689 -0.1443 -0.2198
   74SLPC  H11B 6541   0.359   1.991   6.167 -0.9105 -3.1038 -0.1738
   74SLPC     P 6542   0.524   1.750   6.162  0.4280 -0.1712  0.3464
   74SLPC   O13 6543   0.641   1.699   6.085  0.4612  1.0233 -0.4726
   74SLPC   O14 6544   0.480   1.673   6.282  0.0564 -0.3359 -0.2440
   74SLPC   O12 6545   0.543   1.902   6.208  0.6086 -0.0864 -0.0284
   74SLPC   O11 6546   0.403   1.760   6.064 -0.0439  0.7107 -0.1331
   74SLPC    C1 6547   0.320   1.650   6.019  0.2960  0.0580 -0.1718
   74SLPC    HA 6548   0.286   1.597   6.111 -0.4200  3.1640  1.4921
   74SLPC    HB 6549   0.230   1.695   5.972  0.9666  1.3436 -0.2840
   74SLPC    C2 6550   0.401   1.550   5.923  0.1248  0.4131 -0.3186
   74SLPC    HS 6551   0.470   1.490   5.986  1.1489 -0.1443 -1.9128
   74SLPC   O21 6552   0.486   1.622   5.829  0.1161 -0.1461 -0.1719
   74SLPC   C21 6553   0.607   1.581   5.806 -0.4238 -0.3901  0.0689
   74SLPC   O22 6554   0.659   1.478   5.850  0.2865  0.2060  0.5438
   74SLPC   C22 6555   0.679   1.668   5.695  0.3523  0.1956 -0.4353
   74SLPC   H2R 6556   0.717   1.764   5.738 -0.7269  0.7807 -0.7438
   74SLPC   H2S 6557   0.774   1.614   5.675  0.7404  1.0062 -0.8780
   74SLPC    C3 6558   0.298   1.464   5.842 -0.6620 -0.2633  0.0557
   74SLPC    HX 6559   0.229   1.533   5.788  0.4449 -0.2639 -1.4312
   74SLPC    HY 6560   0.238   1.397   5.907 -0.4690 -1.7091 -1.2123
   74SLPC   O31 6561   0.366   1.386   5.746  0.4613  0.2046  0.1680
   74SLPC   C31 6562   0.418   1.273   5.793  0.1182 -0.2120  0.8818
   74SLPC   O32 6563   0.438   1.249   5.908  0.4818 -0.2366 -0.2822
   74SLPC   C32 6564   0.435   1.171   5.676  0.2851 -0.5458 -0.3585
   74SLPC   H2X 6565   0.536   1.197   5.637  0.0678  0.2136 -0.4315
   74SLPC   H2Y 6566   0.364   1.210   5.600  1.8749  1.7138 -0.7959
   74SLPC   C23 6567   0.588   1.688   5.575  0.2203 -0.0457  0.5458
   74SLPC   H3R 6568   0.649   1.750   5.506 -1.1680  1.1135  0.3005
   74SLPC   H3S 6569   0.500   1.749   5.608 -0.1051  0.4784 -1.2117
   74SLPC   C24 6570   0.534   1.565   5.500 -0.7922  0.2505 -0.0471
   74SLPC   H4R 6571   0.448   1.604   5.442  0.3558 -0.1683 -2.1321
   74SLPC   H4S 6572   0.484   1.487   5.561 -2.3762 -0.6189 -2.3449
   74SLPC   C25 6573   0.627   1.494   5.401  0.5496 -0.2504  0.7888
   74SLPC   H5R 6574   0.719   1.468   5.458  0.8874  2.4495  1.6053
   74SLPC   H5S 6575   0.662   1.560   5.320 -2.2676 -2.7058 -2.7611
   74SLPC   C26 6576   0.552   1.371   5.338 -0.1623 -0.0240  0.1267
   74SLPC   H6R 6577   0.463   1.417   5.289  0.9775  1.3131 -0.7611
   74SLPC   H6S 6578   0.526   1.292   5.411 -1.6147 -1.0300 -1.3893
   74SLPC   C27 6579   0.618   1.288   5.230 -0.0176  0.5442  0.5218
   74SLPC   H7R 6580   0.543   1.207   5.213 -0.2289  0.9669 -0.6683
   74SLPC   H7S 6581   0.711   1.245   5.272 -1.5926 -0.3203  3.4037
   74SLPC   C28 6582   0.642   1.354   5.098  0.3842  0.5280  0.1753
   74SLPC   H8R 6583   0.689   1.453   5.115 -2.8920  1.9824  1.6757
   74SLPC   H8S 6584   0.542   1.374   5.054  0.7498  1.0689 -0.4263
   74SLPC   C29 6585   0.717   1.265   4.995  0.1966 -0.0537 -0.0044
   74SLPC   H9R 6586   0.791   1.196   5.037 -0.8883 -0.2084  1.8130
   74SLPC  C210 6587   0.701   1.253   4.861  0.3161 -0.0659  0.4015
   74SLPC  H10R 6588   0.772   1.184   4.813  0.4162 -1.1938  2.0940
   74SLPC  C211 6589   0.594   1.318   4.775  0.0426 -0.6835 -0.2890
   74SLPC  H11R 6590   0.509   1.360   4.834  0.9865 -1.4594  1.7467
   74SLPC  H11S 6591   0.552   1.234   4.716  0.5881 -1.2341  0.0977
   74SLPC  C212 6592   0.641   1.414   4.667  0.2887 -0.1691 -0.1088
   74SLPC  H12R 6593   0.631   1.517   4.702 -0.0588 -0.7893  1.7573
   74SLPC  C213 6594   0.667   1.390   4.536 -0.4139  1.1012  0.4634
   74SLPC  H13R 6595   0.686   1.475   4.469 -0.8780  0.9059  0.0774
   74SLPC  C214 6596   0.667   1.251   4.471  0.0420 -0.2520 -0.0698
   74SLPC  H14R 6597   0.583   1.242   4.398  0.4048 -1.5389 -0.3377
   74SLPC  H14S 6598   0.651   1.182   4.556  0.0635  2.4114  2.2632
   74SLPC  C215 6599   0.789   1.213   4.383 -0.2913 -0.3242  0.3031
   74SLPC  H15R 6600   0.883   1.218   4.443 -0.1028  0.3757 -0.0357
   74SLPC  H15S 6601   0.814   1.292   4.309 -0.2814  0.3015  0.9668
   74SLPC  C216 6602   0.786   1.071   4.314  0.0376 -0.7588  0.1779
   74SLPC  H16R 6603   0.710   1.077   4.233  0.0246  0.9804  0.2926
   74SLPC  H16S 6604   0.768   0.997   4.395 -2.0131  0.8403  1.2794
   74SLPC  C217 6605   0.914   1.035   4.240 -0.2223 -0.6097  0.1588
   74SLPC  H17R 6606   0.984   1.004   4.320  0.1210  3.6625  1.7997
   74SLPC  H17S 6607   0.963   1.120   4.187 -1.0799  1.1125  1.9643
   74SLPC  C218 6608   0.899   0.922   4.137 -0.1503  0.2796 -0.1246
   74SLPC  H18R 6609   0.845   0.969   4.051  0.1633  0.7424 -0.0707
   74SLPC  H18S 6610   0.833   0.840   4.172  0.4233  0.3351  1.1046
   74SLPC  H18T 6611   0.999   0.888   4.104 -0.5370  0.7382 -1.9219
   74SLPC   C33 6612   0.443   1.021   5.714 -0.0291 -0.9372 -0.2649
   74SLPC   H3X 6613   0.375   1.004   5.800 -0.0986 -0.8911 -0.3103
   74SLPC   H3Y 6614   0.546   0.994   5.743  0.0395 -0.2034  0.1943
   74SLPC   C34 6615   0.404   0.924   5.598 -0.2122  0.0196 -0.1249
   74SLPC   H4X 6616   0.296   0.944   5.585 -0.1935 -0.4663 -1.1187
   74SLPC   H4Y 6617   0.431   0.820   5.625 -0.0212  0.4674  1.5076
   74SLPC   C35 6618   0.473   0.949   5.466  0.2583  0.0309  0.3538
   74SLPC   H5X 6619   0.582   0.963   5.482  0.2563 -0.4127  0.7427
   74SLPC   H5Y 6620   0.428   1.044   5.429 -0.7908 -0.0609  1.3521
   74SLPC   C36 6621   0.453   0.847   5.356 -0.0702  0.0485 -0.5168
   74SLPC   H6X 6622   0.346   0.821   5.350 -0.6140  2.1530 -0.5691
   74SLPC   H6Y 6623   0.500   0.748   5.380  0.6632 -0.7207 -4.4240
   74SLPC   C37 6624   0.500   0.898   5.220 -0.2587  0.0472  0.0873
   74SLPC   H7X 6625   0.606   0.931   5.229 -0.0028 -0.4497 -0.9310
   74SLPC   H7Y 6626   0.444   0.989   5.189  0.0090  0.6811  1.3779
   74SLPC   C38 6627   0.497   0.787   5.115  0.0678  0.7280  0.2356
   74SLPC   H8X 6628   0.405   0.727   5.136  0.9368 -1.2518 -1.3263
   74SLPC   H8Y 6629   0.586   0.722   5.126 -0.4866 -0.1855 -0.5399
   74SLPC   C39 6630   0.496   0.836   4.969 -0.2617  0.4833 -0.0651
   74SLPC   H9X 6631   0.592   0.889   4.956 -1.0759  1.7632 -1.0708
   74SLPC   H9Y 6632   0.403   0.896   4.958  1.5316  3.2896 -1.1346
   74SLPC  C310 6633   0.483   0.724   4.861 -0.4029 -0.7598 -0.4369
   74SLPC  H10X 6634   0.399   0.660   4.894  0.9041 -2.2859  0.0469
   74SLPC  H10Y 6635   0.570   0.656   4.873 -0.8294 -1.4234 -1.0307
   74SLPC  C311 6636   0.478   0.780   4.714  0.2555  0.1861  0.0194
   74SLPC  H11X 6637   0.562   0.853   4.704  1.3600 -0.6572  2.4616
   74SLPC  H11Y 6638   0.386   0.838   4.691 -0.5295 -1.6463 -1.7249
   74SLPC  C312 6639   0.508   0.666   4.614 -0.2876  0.8419 -0.7962
   74SLPC  H12X 6640   0.467   0.566   4.637  0.2412  0.2746 -2.2094
   74SLPC  H12Y 6641   0.618   0.646   4.613 -0.7354 -3.0810  2.2056
   74SLPC  C313 6642   0.460   0.696   4.475  0.2052  0.4055 -0.3728
   74SLPC  H13X 6643   0.352   0.720   4.477  0.2235  0.4854  0.8358
   74SLPC  H13Y 6644   0.475   0.604   4.415  2.0969  1.2914 -1.3422
   74SLPC  C314 6645   0.526   0.813   4.406  1.0529 -0.4979 -0.4119
   74SLPC  H14X 6646   0.636   0.799   4.414  1.2957  1.7484  1.2043
   74SLPC  H14Y 6647   0.506   0.910   4.457 -1.1133 -1.4831  0.7817
   74SLPC  C315 6648   0.484   0.831   4.261  0.2704  0.2006  1.0697
   74SLPC  H15X 6649   0.517   0.927   4.215 -1.5239  0.5592  0.4390
   74SLPC  H15Y 6650   0.373   0.825   4.258  0.2691  0.5563 -0.5464
   74SLPC  C316 6651   0.534   0.719   4.166  0.6841 -0.4515 -0.0566
   74SLPC  H16X 6652   0.516   0.620   4.215  1.6803 -0.2342  0.7747
   74SLPC  H16Y 6653   0.641   0.742   4.154  0.4455 -0.1302 -1.6868
   74SLPC  C317 6654   0.466   0.728   4.024 -0.3711 -0.1947 -0.9085
   74SLPC  H17X 6655   0.355   0.722   4.023 -0.5771  1.9965  0.7514
   74SLPC  H17Y 6656   0.500   0.636   3.972 -2.1454 -1.0618 -0.5937
   74SLPC  C318 6657   0.501   0.858   3.950  0.0708 -0.2456  1.0348
   74SLPC  H18X 6658   0.598   0.898   3.985  0.4635  0.9174 -1.2309
   74SLPC  H18Y 6659   0.420   0.932   3.966  0.7772  0.6984  0.3459
   74SLPC  H18Z 6660   0.514   0.846   3.841  0.4698  1.3255  0.8918
   75SLPC     N 6661   2.396   0.432   6.394  1.4686 -0.0321 -0.6772
   75SLPC   C13 6662   2.384   0.331   6.281  0.4826  0.3464 -0.2424
   75SLPC  H13A 6663   2.440   0.364   6.195 -1.5265  0.2778 -1.6412
   75SLPC  H13B 6664   2.424   0.239   6.323  0.9755  1.1423  1.1109
   75SLPC  H13C 6665   2.281   0.326   6.249  0.0244  0.3910  1.1601
   75SLPC   C14 6666   2.328   0.387   6.517 -0.5726 -0.2411  0.1110
   75SLPC  H14A 6667   2.390   0.318   6.572  0.0185 -0.9470 -1.3881
   75SLPC  H14B 6668   2.303   0.468   6.583  2.5146 -0.9364  2.3801
   75SLPC  H14C 6669   2.237   0.337   6.485 -0.9929  1.1450 -0.9631
   75SLPC   C15 6670   2.327   0.560   6.361  0.2735 -0.6008  0.8010
   75SLPC  H15A 6671   2.378   0.616   6.284 -1.2935  1.2471  1.0267
   75SLPC  H15B 6672   2.230   0.537   6.321 -0.0856 -0.3378  1.4973
   75SLPC  H15C 6673   2.308   0.623   6.447  0.9974  2.7322 -1.3089
   75SLPC   C12 6674   2.540   0.464   6.429  0.4667  0.1956 -0.4219
   75SLPC  H12A 6675   2.547   0.545   6.499  0.1369  0.9363 -1.2270
   75SLPC  H12B 6676   2.587   0.506   6.341 -0.8080 -0.0399 -1.2257
   75SLPC   C11 6677   2.618   0.334   6.484  0.2652 -0.0894  0.2267
   75SLPC  H11A 6678   2.571   0.298   6.579  3.2277 -2.5808  0.8893
   75SLPC  H11B 6679   2.719   0.364   6.518 -0.8602  2.9614  1.2508
   75SLPC     P 6680   2.752   0.154   6.366 -0.1888  0.6832  0.5622
   75SLPC   O13 6681   2.810   0.110   6.493 -0.2101  0.4137 -0.0384
   75SLPC   O14 6682   2.747   0.051   6.259  0.2353 -0.0003 -0.1275
   75SLPC   O12 6683   2.612   0.222   6.387  0.0303  0.1707 -0.1353
   75SLPC   O11 6684   2.839   0.276   6.308  0.4690 -0.1286 -0.3026
   75SLPC    C1 6685   2.794   0.345   6.193 -0.7253 -0.0831  0.7748
   75SLPC    HA 6686   2.685   0.365   6.200 -0.5622  0.8031  1.0446
   75SLPC    HB 6687   2.832   0.450   6.194  0.2916 -0.4275 -0.4300
   75SLPC    C2 6688   2.835   0.286   6.062 -0.5097 -0.5765 -0.4483
   75SLPC    HS 6689   2.756   0.209   6.054 -2.0112  0.5925  2.2236
   75SLPC   O21 6690   2.965   0.229   6.077  0.2503  0.4242  0.4096
   75SLPC   C21 6691   2.984   0.129   5.983 -0.4710 -0.8022  0.1669
   75SLPC   O22 6692   2.900   0.081   5.909  0.1421  0.0823  0.1168
   75SLPC   C22 6693   3.135   0.090   5.987  0.8040 -0.4934 -0.0192
   75SLPC   H2R 6694   3.168   0.073   6.091  0.3470  1.0366  0.4084
   75SLPC   H2S 6695   3.142  -0.005   5.930  1.7401  0.1283 -0.9833
   75SLPC    C3 6696   2.806   0.371   5.938  0.4597  0.2413  0.6297
   75SLPC    HX 6697   2.704   0.412   5.954  0.5942  1.1931 -0.7492
   75SLPC    HY 6698   2.799   0.325   5.837 -1.3512  1.7137  0.0370
   75SLPC   O31 6699   2.907   0.477   5.932  0.4357  0.1245 -0.6908
   75SLPC   C31 6700   2.993   0.460   5.843  0.6865 -0.3298  0.2599
   75SLPC   O32 6701   2.992   0.386   5.746  0.6405  0.5401  0.2793
   75SLPC   C32 6702   3.101   0.567   5.885  0.3303 -0.0677  0.2915
   75SLPC   H2X 6703   3.158   0.512   5.963  1.0461 -0.0979 -0.2444
   75SLPC   H2Y 6704   3.039   0.637   5.944 -1.6082 -2.2057  0.9545
   75SLPC   C23 6705   3.219   0.209   5.930  0.4116 -0.2012  0.2230
   75SLPC   H3R 6706   3.240   0.281   6.012  0.2092 -1.6831  1.6354
   75SLPC   H3S 6707   3.172   0.263   5.846  0.9440  0.3922  0.2962
   75SLPC   C24 6708   3.357   0.154   5.876  0.0689  0.6061  0.0982
   75SLPC   H4R 6709   3.345   0.123   5.770 -1.4448  1.0201  0.1355
   75SLPC   H4S 6710   3.384   0.060   5.928 -0.9843  0.4149  0.3184
   75SLPC   C25 6711   3.478   0.248   5.890 -0.6661 -0.2609 -0.4381
   75SLPC   H5R 6712   3.566   0.182   5.883 -1.6746 -1.4989 -2.3145
   75SLPC   H5S 6713   3.485   0.284   5.995  0.9173  0.2076 -0.6822
   75SLPC   C26 6714   3.481   0.354   5.790  0.3093 -0.1684 -0.5960
   75SLPC   H6R 6715   3.545   0.439   5.821 -1.1301  0.9384 -0.5493
   75SLPC   H6S 6716   3.384   0.407   5.781  0.8381  0.5537 -2.6516
   75SLPC   C27 6717   3.525   0.304   5.651 -0.2091 -0.3952 -0.2695
   75SLPC   H7R 6718   3.457   0.223   5.618  0.3865 -0.5893 -1.0564
   75SLPC   H7S 6719   3.633   0.277   5.658 -0.3525 -0.4722  2.4573
   75SLPC   C28 6720   3.523   0.418   5.550 -0.5070 -0.5303 -0.0480
   75SLPC   H8R 6721   3.601   0.494   5.573  0.1278 -1.0051 -0.5948
   75SLPC   H8S 6722   3.428   0.474   5.537  1.0196  2.3141  0.1764
   75SLPC   C29 6723   3.546   0.373   5.414  0.2949  0.0550 -0.6419
   75SLPC   H9R 6724   3.569   0.266   5.405 -2.0007 -0.8218  2.3635
   75SLPC  C210 6725   3.536   0.453   5.309  0.1330 -0.5266  0.4868
   75SLPC  H10R 6726   3.545   0.423   5.204  0.5194  5.6311 -1.6749
   75SLPC  C211 6727   3.525   0.607   5.322  0.4308  0.9356 -0.3568
   75SLPC  H11R 6728   3.545   0.626   5.429 -0.5748 -0.8055  0.1805
   75SLPC  H11S 6729   3.434   0.659   5.285 -0.5612 -0.7235 -0.3474
   75SLPC  C212 6730   3.634   0.660   5.233  0.0558  0.5505 -0.0259
   75SLPC  H12R 6731   3.735   0.630   5.263  1.1947  1.2849 -2.8556
   75SLPC  C213 6732   3.620   0.744   5.127 -0.4639 -0.4132 -0.8953
   75SLPC  H13R 6733   3.720   0.775   5.094  0.1958 -0.5486  0.9029
   75SLPC  C214 6734   3.503   0.814   5.059  0.2894 -0.1845  0.6041
   75SLPC  H14R 6735   3.526   0.920   5.039  0.1691 -0.3779 -0.6456
   75SLPC  H14S 6736   3.423   0.816   5.136 -1.5660  1.9611 -1.2309
   75SLPC  C215 6737   3.459   0.741   4.920 -0.0268  0.2880  0.2503
   75SLPC  H15R 6738   3.414   0.645   4.953  2.3024 -0.9661  0.0112
   75SLPC  H15S 6739   3.553   0.726   4.863  0.4089  1.1777  0.7053
   75SLPC  C216 6740   3.371   0.832   4.842  0.2773 -0.5591  0.9823
   75SLPC  H16R 6741   3.413   0.921   4.792 -1.6786  0.1389  0.5013
   75SLPC  H16S 6742   3.298   0.873   4.915 -0.7734 -0.7459  0.0512
   75SLPC  C217 6743   3.306   0.762   4.719 -0.7316  0.0404  0.0455
   75SLPC  H17R 6744   3.281   0.657   4.747 -2.7333 -0.3305 -2.6825
   75SLPC  H17S 6745   3.388   0.754   4.644  0.9193 -0.0990  1.7886
   75SLPC  C218 6746   3.189   0.827   4.659  0.7100  0.2295 -0.7364
   75SLPC  H18R 6747   3.104   0.804   4.727  1.9732 -1.5776  0.2960
   75SLPC  H18S 6748   3.160   0.781   4.562  2.4456 -1.8494 -0.3344
   75SLPC  H18T 6749   3.195   0.938   4.651 -0.5663  0.8428  3.8728
   75SLPC   C33 6750   3.189   0.624   5.767  0.0472  0.6658 -0.6581
   75SLPC   H3X 6751   3.239   0.543   5.710 -1.3473 -0.9415  0.2899
   75SLPC   H3Y 6752   3.270   0.690   5.806  0.3106 -1.0555  1.9912
   75SLPC   C34 6753   3.102   0.693   5.664  0.2714 -0.1248 -0.3645
   75SLPC   H4X 6754   3.045   0.775   5.713 -2.3638 -1.7558 -0.4921
   75SLPC   H4Y 6755   3.023   0.625   5.626 -0.4289  0.2679  0.3627
   75SLPC   C35 6756   3.178   0.750   5.548 -0.2212 -0.0641  0.3849
   75SLPC   H5X 6757   3.247   0.673   5.505  1.5059  1.7384 -0.2538
   75SLPC   H5Y 6758   3.240   0.838   5.576 -0.4041  0.0281  0.5010
   75SLPC   C36 6759   3.090   0.801   5.433 -0.5402  0.1107 -0.2442
   75SLPC   H6X 6760   3.019   0.876   5.472  0.3063  0.1508  1.3266
   75SLPC   H6Y 6761   3.035   0.715   5.390 -2.2332  0.4914  1.0486
   75SLPC   C37 6762   3.169   0.870   5.327 -0.4938  0.0616  0.0693
   75SLPC   H7X 6763   3.267   0.819   5.314 -0.4729 -0.1960  1.1571
   75SLPC   H7Y 6764   3.194   0.974   5.357 -1.3088 -0.0317  1.1340
   75SLPC   C38 6765   3.106   0.856   5.188 -0.2778 -0.2818  0.6546
   75SLPC   H8X 6766   3.114   0.752   5.151  0.6888  0.4381 -1.3513
   75SLPC   H8Y 6767   3.167   0.923   5.123 -1.4104 -0.1476 -0.2945
   75SLPC   C39 6768   2.954   0.899   5.168  0.1035 -0.1642 -0.7369
   75SLPC   H9X 6769   2.938   1.001   5.208  2.1346 -0.0558 -0.0696
   75SLPC   H9Y 6770   2.899   0.824   5.229  0.3372  1.5420  1.7146
   75SLPC  C310 6771   2.898   0.913   5.024 -0.2946 -0.2795  0.9484
   75SLPC  H10X 6772   2.788   0.903   5.011 -0.4368  1.9369 -0.1451
   75SLPC  H10Y 6773   2.940   0.826   4.969 -1.3131  0.7834 -1.6729
   75SLPC  C311 6774   2.937   1.043   4.945 -0.0995 -0.2335 -0.5189
   75SLPC  H11X 6775   3.048   1.048   4.938  0.1121  2.7152  2.4472
   75SLPC  H11Y 6776   2.919   1.132   5.009  0.2447 -1.6322  1.6346
   75SLPC  C312 6777   2.871   1.042   4.809  0.2576  0.0175 -0.2030
   75SLPC  H12X 6778   2.765   1.007   4.816 -0.7028  2.6347 -0.3416
   75SLPC  H12Y 6779   2.921   0.970   4.741  1.2278  0.4189  0.0741
   75SLPC  C313 6780   2.884   1.175   4.744  0.8088  0.2491  0.0690
   75SLPC  H13X 6781   2.992   1.193   4.729  0.4326  1.6424 -1.1980
   75SLPC  H13Y 6782   2.854   1.263   4.804  1.2222  1.3564 -1.3194
   75SLPC  C314 6783   2.816   1.166   4.609  0.3315  0.1055  0.2334
   75SLPC  H14X 6784   2.712   1.128   4.623  0.3855  0.4418  1.6547
   75SLPC  H14Y 6785   2.869   1.092   4.546 -0.6462  1.3300 -2.1800
   75SLPC  C315 6786   2.815   1.306   4.532  0.1807 -0.2531 -0.0737
   75SLPC  H15X 6787   2.916   1.334   4.495  0.0567  3.2893  1.8552
   75SLPC  H15Y 6788   2.785   1.387   4.602 -0.1617  1.0454 -1.6664
   75SLPC  C316 6789   2.715   1.316   4.421  0.2661 -0.4459 -0.3222
   75SLPC  H16X 6790   2.617   1.346   4.464 -1.6697  1.2638 -5.1450
   75SLPC  H16Y 6791   2.706   1.222   4.361 -0.0288  1.0703 -2.7689
   75SLPC  C317 6792   2.750   1.435   4.329  0.6298  0.3227 -0.8437
   75SLPC  H17X 6793   2.855   1.418   4.296  0.9937  1.2208 -0.2173
   75SLPC  H17Y 6794   2.748   1.522   4.399  1.6113 -0.0912 -0.2752
   75SLPC  C318 6795   2.657   1.455   4.215  0.5006 -0.4503 -0.0763
   75SLPC  H18X 6796   2.687   1.550   4.166 -2.5914  1.7842  1.9832
   75SLPC  H18Y 6797   2.548   1.471   4.231  0.7352  3.7153 -1.3441
   75SLPC  H18Z 6798   2.668   1.369   4.147 -1.1254 -0.4333 -0.3891
   76SLPC     N 6799   4.458   6.401   6.647 -0.5446 -0.5772 -0.2450
   76SLPC   C13 6800   4.322   6.333   6.663 -0.0185 -0.0752  0.3441
   76SLPC  H13A 6801   4.313   6.284   6.759 -1.0404 -3.0179 -1.1570
   76SLPC  H13B 6802   4.243   6.407   6.659 -1.0526 -1.1018  1.2349
   76SLPC  H13C 6803   4.298   6.263   6.585 -0.5430  0.8964 -0.3938
   76SLPC   C14 6804   4.558   6.290   6.648 -0.0348  0.4074 -0.2522
   76SLPC  H14A 6805   4.538   6.207   6.582  0.9774  0.1539 -0.2602
   76SLPC  H14B 6806   4.654   6.331   6.620  1.5871 -2.5977  0.5141
   76SLPC  H14C 6807   4.557   6.257   6.751 -0.2447  3.6020  0.8843
   76SLPC   C15 6808   4.490   6.487   6.766  0.1308 -0.0872  0.0458
   76SLPC  H15A 6809   4.451   6.587   6.766  0.1776 -0.0535  1.4434
   76SLPC  H15B 6810   4.463   6.441   6.859  0.0286 -1.3538 -0.5797
   76SLPC  H15C 6811   4.597   6.501   6.773 -0.1190  1.7744  0.5121
   76SLPC   C12 6812   4.469   6.469   6.518  0.0357  0.3074 -0.3256
   76SLPC  H12A 6813   4.562   6.517   6.493  0.3815 -0.5582 -0.7347
   76SLPC  H12B 6814   4.414   6.562   6.525 -0.1992  0.2153 -0.8926
   76SLPC   C11 6815   4.423   6.382   6.401 -0.1345 -0.2596  0.1644
   76SLPC  H11A 6816   4.446   6.274   6.415 -2.0043 -0.8741 -1.2007
   76SLPC  H11B 6817   4.478   6.415   6.310 -0.9954  1.1347  0.1193
   76SLPC     P 6818   4.222   6.323   6.245 -0.3470 -0.3175  0.3070
   76SLPC   O13 6819   4.298   6.204   6.208 -0.5915 -0.0866 -0.0301
   76SLPC   O14 6820   4.071   6.311   6.250 -0.5268 -0.2530 -0.0797
   76SLPC   O12 6821   4.280   6.383   6.379 -1.0402 -0.7062 -0.3114
   76SLPC   O11 6822   4.256   6.435   6.140 -0.2688 -0.9487 -0.4443
   76SLPC    C1 6823   4.228   6.577   6.171 -0.2494 -0.3860  0.3130
   76SLPC    HA 6824   4.129   6.582   6.222 -0.5190  2.7615 -0.2967
   76SLPC    HB 6825   4.301   6.629   6.237  1.6494 -3.8224  1.1431
   76SLPC    C2 6826   4.210   6.663   6.041  0.4578  0.6886  0.4056
   76SLPC    HS 6827   4.154   6.757   6.058  0.9763  1.1215 -0.2803
   76SLPC   O21 6828   4.146   6.576   5.943 -0.0008 -0.0621 -0.0450
   76SLPC   C21 6829   4.019   6.544   5.977  0.5380  0.2077  0.9096
   76SLPC   O22 6830   3.954   6.588   6.067 -0.3455  0.2306 -0.1454
   76SLPC   C22 6831   3.962   6.449   5.867  0.4795 -0.1560  0.0877
   76SLPC   H2R 6832   4.039   6.415   5.795  0.7155  0.9463 -0.2068
   76SLPC   H2S 6833   3.932   6.357   5.921  0.6158 -0.9280 -1.1131
   76SLPC    C3 6834   4.342   6.711   5.985 -0.4161  0.0094  0.6661
   76SLPC    HX 6835   4.416   6.628   5.980  0.1740  0.5925 -2.5931
   76SLPC    HY 6836   4.382   6.795   6.045 -0.0490  0.0858  0.3141
   76SLPC   O31 6837   4.323   6.769   5.851 -0.7463 -0.0187  0.4752
   76SLPC   C31 6838   4.360   6.686   5.750 -0.0504 -0.3712  0.1951
   76SLPC   O32 6839   4.384   6.568   5.757 -0.2695 -0.6289  0.4854
   76SLPC   C32 6840   4.339   6.772   5.626 -0.3164  0.1558 -0.1617
   76SLPC   H2X 6841   4.422   6.847   5.626 -0.1139 -0.0695  0.0769
   76SLPC   H2Y 6842   4.239   6.820   5.625 -1.3785 -1.7708 -3.7347
   76SLPC   C23 6843   3.855   6.521   5.784  0.5848 -0.0805  1.0551
   76SLPC   H3R 6844   3.776   6.555   5.854  1.0631 -0.9351  2.0346
   76SLPC   H3S 6845   3.800   6.448   5.721 -0.9147  0.1469  2.0439
   76SLPC   C24 6846   3.911   6.625   5.686  0.8465 -0.7522  0.1199
   76SLPC   H4R 6847   3.998   6.680   5.729  2.0221 -1.2509 -1.5129
   76SLPC   H4S 6848   3.836   6.702   5.657  0.7842 -1.0478 -0.5187
   76SLPC   C25 6849   3.974   6.582   5.547 -0.3540  0.1581 -0.3078
   76SLPC   H5R 6850   4.058   6.513   5.571 -0.4071  0.1229 -0.2221
   76SLPC   H5S 6851   4.030   6.668   5.504  0.3280  0.4791  1.1536
   76SLPC   C26 6852   3.874   6.536   5.437 -0.4634  0.4383  0.2852
   76SLPC   H6R 6853   3.779   6.590   5.454 -1.4522 -0.6858 -1.4496
   76SLPC   H6S 6854   3.851   6.429   5.457 -2.3943  0.9108  0.8144
   76SLPC   C27 6855   3.918   6.551   5.291  0.2476  0.1694  0.6465
   76SLPC   H7R 6856   3.980   6.465   5.256 -0.0142 -0.3205  1.3764
   76SLPC   H7S 6857   3.989   6.636   5.281 -0.1462  0.4538  0.1992
   76SLPC   C28 6858   3.806   6.575   5.186 -0.3025  0.2270  0.3635
   76SLPC   H8R 6859   3.851   6.598   5.087 -1.9023 -0.4562 -0.5522
   76SLPC   H8S 6860   3.746   6.664   5.214 -1.5104 -0.1877 -0.8042
   76SLPC   C29 6861   3.705   6.467   5.171  0.2341  0.3646 -0.2007
   76SLPC   H9R 6862   3.657   6.453   5.269  1.2080  4.0110  0.9873
   76SLPC  C210 6863   3.669   6.399   5.056  0.0836 -0.3713 -0.8442
   76SLPC  H10R 6864   3.583   6.332   5.069 -1.1798  0.6336 -3.3516
   76SLPC  C211 6865   3.734   6.396   4.922 -0.0433 -0.3396 -0.1833
   76SLPC  H11R 6866   3.757   6.501   4.897 -1.1823 -0.2961 -1.1091
   76SLPC  H11S 6867   3.664   6.352   4.848  1.4825 -2.8952 -0.2446
   76SLPC  C212 6868   3.867   6.319   4.913  0.2964 -0.4215 -0.5749
   76SLPC  H12R 6869   3.876   6.232   4.980 -0.4023  0.6216  0.9209
   76SLPC  C213 6870   3.968   6.349   4.832  1.0039 -0.3342  1.2404
   76SLPC  H13R 6871   4.047   6.272   4.830  0.5537 -0.8405  2.3273
   76SLPC  C214 6872   3.974   6.459   4.730 -0.4097  0.3795  0.4668
   76SLPC  H14R 6873   4.028   6.549   4.766  2.6085  0.1596 -2.9779
   76SLPC  H14S 6874   3.872   6.501   4.714  0.2060  1.5461 -0.6043
   76SLPC  C215 6875   4.029   6.411   4.594 -0.6264  0.0628 -0.5586
   76SLPC  H15R 6876   4.118   6.345   4.592 -1.0844 -0.5731 -0.6580
   76SLPC  H15S 6877   4.049   6.500   4.531 -3.7641  0.3322 -1.3515
   76SLPC  C216 6878   3.905   6.339   4.527  0.3290 -0.2622  0.0389
   76SLPC  H16R 6879   3.835   6.424   4.511 -0.3649  0.0382  3.7755
   76SLPC  H16S 6880   3.848   6.258   4.579 -0.8849  1.7640  2.0750
   76SLPC  C217 6881   3.934   6.295   4.380 -0.2430  0.0774 -0.5441
   76SLPC  H17R 6882   3.851   6.239   4.334  0.4084  0.2823 -2.0450
   76SLPC  H17S 6883   4.024   6.230   4.389  0.8545  1.6996  1.0552
   76SLPC  C218 6884   3.967   6.413   4.285  0.2587 -0.0043 -0.4058
   76SLPC  H18R 6885   4.064   6.463   4.309 -0.1820  0.5846  0.1876
   76SLPC  H18S 6886   3.892   6.495   4.295 -0.8867 -1.0209 -0.5387
   76SLPC  H18T 6887   3.974   6.376   4.181  0.6876 -0.4977 -0.2079
   76SLPC   C33 6888   4.352   6.683   5.504 -0.7737 -0.4643  0.2429
   76SLPC   H3X 6889   4.279   6.600   5.522  0.8123 -1.6360  1.6403
   76SLPC   H3Y 6890   4.456   6.647   5.491  0.1790  0.9607  3.0446
   76SLPC   C34 6891   4.309   6.770   5.384  0.0983 -0.5512  0.0945
   76SLPC   H4X 6892   4.378   6.855   5.366  2.4968 -2.3924  0.0844
   76SLPC   H4Y 6893   4.209   6.816   5.396  0.7533  0.6228  1.3309
   76SLPC   C35 6894   4.320   6.685   5.258  0.7860 -0.4552 -0.0832
   76SLPC   H5X 6895   4.272   6.588   5.284 -1.1131  0.1403 -1.1758
   76SLPC   H5Y 6896   4.429   6.685   5.235  0.5619 -0.2080 -1.1606
   76SLPC   C36 6897   4.245   6.756   5.148  0.8194  0.2657 -0.0466
   76SLPC   H6X 6898   4.142   6.777   5.185  0.4751 -0.3869 -0.5977
   76SLPC   H6Y 6899   4.224   6.687   5.063 -1.3625  1.8138 -0.8656
   76SLPC   C37 6900   4.320   6.879   5.095  0.1961 -0.0426 -0.3928
   76SLPC   H7X 6901   4.416   6.851   5.047 -0.1251  0.9509 -1.6747
   76SLPC   H7Y 6902   4.350   6.934   5.187  0.1950 -1.7316  0.6683
   76SLPC   C38 6903   4.248   6.959   4.992 -0.2079 -1.2673  0.7242
   76SLPC   H8X 6904   4.145   6.970   5.033  0.5475  1.5271  2.1256
   76SLPC   H8Y 6905   4.237   6.912   4.892 -0.7077 -1.5063  0.8864
   76SLPC   C39 6906   4.304   7.099   4.972 -0.0153 -0.2542 -0.4707
   76SLPC   H9X 6907   4.414   7.084   4.961  0.3193  0.4384  1.5077
   76SLPC   H9Y 6908   4.296   7.148   5.071  3.3605  0.6460 -0.5011
   76SLPC  C310 6909   4.251   7.175   4.852  0.2004 -0.0090 -1.0017
   76SLPC  H10X 6910   4.140   7.178   4.861  0.3458  3.1120  1.6497
   76SLPC  H10Y 6911   4.268   7.120   4.757  0.5672  1.2198 -1.6770
   76SLPC  C311 6912   4.302   7.326   4.845  0.4764  0.0136 -0.3023
   76SLPC  H11X 6913   4.412   7.320   4.861  0.3743  1.1560  1.0454
   76SLPC  H11Y 6914   4.252   7.387   4.923  0.2646  0.3278 -0.6792
   76SLPC  C312 6915   4.289   7.387   4.705 -0.1597 -0.8206  0.6971
   76SLPC  H12X 6916   4.196   7.351   4.657 -1.1261 -0.7443  2.4324
   76SLPC  H12Y 6917   4.379   7.352   4.650 -1.0188 -0.2201 -1.1770
   76SLPC  C313 6918   4.309   7.536   4.720 -0.1076  0.7598 -0.2302
   76SLPC  H13X 6919   4.403   7.544   4.778  0.8367 -2.4875 -1.0936
   76SLPC  H13Y 6920   4.231   7.594   4.774  0.8112  2.9778 -1.1640
   76SLPC  C314 6921   4.334   7.604   4.581  0.0116  0.2125 -0.0957
   76SLPC  H14X 6922   4.258   7.559   4.514  0.8440  2.1258 -2.4685
   76SLPC  H14Y 6923   4.422   7.570   4.523 -0.7700 -1.8352 -0.1815
   76SLPC  C315 6924   4.319   7.756   4.592 -0.5179  0.2684  0.2705
   76SLPC  H15X 6925   4.360   7.794   4.496  1.5401  2.1164  1.7513
   76SLPC  H15Y 6926   4.382   7.792   4.677  1.8736 -2.3082 -0.2726
   76SLPC  C316 6927   4.172   7.807   4.601  0.1182  0.5348  0.3340
   76SLPC  H16X 6928   4.147   7.806   4.709  0.2505 -0.7497  0.3740
   76SLPC  H16Y 6929   4.116   7.732   4.541  1.2519  2.0828 -2.8610
   76SLPC  C317 6930   4.166   7.948   4.538 -0.3422 -0.1711  0.1185
   76SLPC  H17X 6931   4.246   8.019   4.566  0.7670 -1.1353 -0.5218
   76SLPC  H17Y 6932   4.067   7.980   4.577 -0.4382  0.6051 -0.7346
   76SLPC  C318 6933   4.158   7.946   4.385  0.3165  0.3037  0.1673
   76SLPC  H18X 6934   4.066   7.891   4.357  0.5491 -1.1777  2.1121
   76SLPC  H18Y 6935   4.247   7.894   4.344  0.7392  0.9830  0.2168
   76SLPC  H18Z 6936   4.154   8.049   4.344 -1.7013  0.1438 -0.1707
   77SLPC     N 6937   3.528   5.568   6.392 -0.0104  0.3333  0.7879
   77SLPC   C13 6938   3.642   5.527   6.482 -0.8495  0.1706 -0.7719
   77SLPC  H13A 6939   3.705   5.467   6.418  0.4316  1.0562 -0.3612
   77SLPC  H13B 6940   3.697   5.613   6.517  0.6447 -0.9210 -0.3420
   77SLPC  H13C 6941   3.610   5.470   6.568  2.2871 -0.3347  0.1903
   77SLPC   C14 6942   3.432   5.636   6.477  0.4376 -0.4739  0.1454
   77SLPC  H14A 6943   3.476   5.727   6.516  0.5215 -1.4791  2.5564
   77SLPC  H14B 6944   3.348   5.663   6.415 -0.8954 -1.0397  1.6417
   77SLPC  H14C 6945   3.388   5.590   6.564  1.3329  0.2023  0.9748
   77SLPC   C15 6946   3.468   5.449   6.328  0.2491  0.0686  0.4468
   77SLPC  H15A 6947   3.539   5.389   6.273  0.7318  0.4009  0.6922
   77SLPC  H15B 6948   3.412   5.385   6.393 -0.0001 -0.9704 -0.7624
   77SLPC  H15C 6949   3.400   5.479   6.250  0.9532 -1.0171 -0.6202
   77SLPC   C12 6950   3.575   5.664   6.292  0.8154  0.1135 -0.5935
   77SLPC  H12A 6951   3.496   5.711   6.234  0.5169 -0.7917 -0.9470
   77SLPC  H12B 6952   3.627   5.607   6.217  0.0057  0.9101 -1.8120
   77SLPC   C11 6953   3.659   5.775   6.349 -0.5334  1.0014  0.3925
   77SLPC  H11A 6954   3.624   5.817   6.446  0.3127  3.6666 -0.3580
   77SLPC  H11B 6955   3.651   5.861   6.279 -1.1295  1.7157  1.3226
   77SLPC     P 6956   3.886   5.686   6.243 -0.5145 -0.3688 -0.1566
   77SLPC   O13 6957   4.025   5.681   6.298  0.2436 -0.0085 -0.2566
   77SLPC   O14 6958   3.837   5.555   6.185 -0.2605 -0.2769 -0.3826
   77SLPC   O12 6959   3.790   5.724   6.364 -0.2760  0.0727 -0.7330
   77SLPC   O11 6960   3.878   5.804   6.141 -0.3024 -0.1352 -0.2555
   77SLPC    C1 6961   3.898   5.947   6.166  0.0619  0.5962 -0.1121
   77SLPC    HA 6962   3.804   5.974   6.218  0.0855 -1.7468  1.2877
   77SLPC    HB 6963   3.970   5.963   6.249 -1.4224 -2.0990  1.8581
   77SLPC    C2 6964   3.925   6.020   6.034 -0.7234 -0.5595 -0.2533
   77SLPC    HS 6965   3.914   6.126   6.066 -0.8113 -0.9528  1.1146
   77SLPC   O21 6966   3.838   5.970   5.930  0.1139 -0.1681 -0.0259
   77SLPC   C21 6967   3.704   5.991   5.944  0.0028  0.8347 -0.1823
   77SLPC   O22 6968   3.659   6.054   6.038  0.0712 -0.3049 -0.1047
   77SLPC   C22 6969   3.630   5.911   5.839  0.1466  0.5331  0.6166
   77SLPC   H2R 6970   3.630   5.803   5.863  0.7040  0.3332 -0.2339
   77SLPC   H2S 6971   3.527   5.952   5.843 -0.0270  0.4399 -1.6132
   77SLPC    C3 6972   4.073   6.007   5.981 -0.3131  0.4990  0.0470
   77SLPC    HX 6973   4.102   5.900   5.989 -2.4715 -0.2606 -1.5245
   77SLPC    HY 6974   4.145   6.055   6.050  1.5517  1.1815 -2.2640
   77SLPC   O31 6975   4.097   6.072   5.853 -0.1171 -0.9991  0.1644
   77SLPC   C31 6976   4.227   6.066   5.813 -0.0703 -0.2053 -0.7554
   77SLPC   O32 6977   4.323   6.026   5.879 -0.4904  0.3525 -0.0337
   77SLPC   C32 6978   4.242   6.096   5.670  0.1295  0.1381  0.7241
   77SLPC   H2X 6979   4.314   6.020   5.633 -0.4503 -1.0763  1.9683
   77SLPC   H2Y 6980   4.281   6.199   5.663 -1.4067  0.6507 -1.8488
   77SLPC   C23 6981   3.670   5.944   5.692  0.4382 -0.5373 -0.5267
   77SLPC   H3R 6982   3.643   5.857   5.629  1.1509 -0.6768 -0.6442
   77SLPC   H3S 6983   3.780   5.949   5.684  0.5680 -2.9616 -1.1216
   77SLPC   C24 6984   3.602   6.070   5.640 -0.2343  0.1587  0.4973
   77SLPC   H4R 6985   3.612   6.152   5.714 -0.9066  0.0056  0.7624
   77SLPC   H4S 6986   3.495   6.045   5.630  0.4457 -2.9468 -0.3733
   77SLPC   C25 6987   3.654   6.130   5.505 -0.3345 -0.0329  0.2594
   77SLPC   H5R 6988   3.757   6.166   5.527 -0.7531  1.3888  0.0205
   77SLPC   H5S 6989   3.606   6.227   5.481 -1.2646 -0.3999  0.6147
   77SLPC   C26 6990   3.645   6.034   5.386  0.3766 -0.5974  0.7396
   77SLPC   H6R 6991   3.549   5.978   5.380  0.0811 -0.0236 -0.1565
   77SLPC   H6S 6992   3.727   5.963   5.408 -0.6860 -2.6097 -1.3368
   77SLPC   C27 6993   3.674   6.097   5.240  0.2804 -0.6433  0.1564
   77SLPC   H7R 6994   3.785   6.099   5.232  0.2162  0.3766 -0.5861
   77SLPC   H7S 6995   3.657   6.206   5.241  0.8709 -0.5386  2.0826
   77SLPC   C28 6996   3.599   6.037   5.116 -0.3253 -0.2692 -0.4300
   77SLPC   H8R 6997   3.659   6.066   5.027  0.1586 -1.0246 -0.3563
   77SLPC   H8S 6998   3.500   6.089   5.116  0.4104  1.1912  0.2006
   77SLPC   C29 6999   3.606   5.888   5.141  0.4478 -0.1836 -0.0256
   77SLPC   H9R 7000   3.701   5.856   5.187  0.5096  0.5244  0.3681
   77SLPC  C210 7001   3.512   5.796   5.120  0.5663 -0.3617  0.4805
   77SLPC  H10R 7002   3.528   5.689   5.141  0.6490 -0.8078 -1.6304
   77SLPC  C211 7003   3.372   5.820   5.065  0.3116 -0.3879  0.2565
   77SLPC  H11R 7004   3.377   5.842   4.956 -2.4769 -1.0221 -0.0889
   77SLPC  H11S 7005   3.334   5.918   5.101  1.5320 -0.6293  2.3226
   77SLPC  C212 7006   3.269   5.709   5.082 -0.1350  0.5230  0.0521
   77SLPC  H12R 7007   3.238   5.693   5.186 -0.5943  1.2015  0.0213
   77SLPC  C213 7008   3.232   5.631   4.985  0.3449  0.4904  0.1264
   77SLPC  H13R 7009   3.154   5.556   5.004  1.4268 -1.2614 -1.9218
   77SLPC  C214 7010   3.269   5.637   4.840 -0.6528 -0.5910  0.1455
   77SLPC  H14R 7011   3.306   5.540   4.800  1.2721 -0.3506  1.2279
   77SLPC  H14S 7012   3.352   5.709   4.826 -1.7101  0.6441  0.0433
   77SLPC  C215 7013   3.157   5.686   4.742 -0.2556  0.2437 -0.6616
   77SLPC  H15R 7014   3.100   5.766   4.793 -0.6075 -0.7376  0.5270
   77SLPC  H15S 7015   3.084   5.604   4.725 -0.1367  0.3345 -1.6977
   77SLPC  C216 7016   3.205   5.728   4.604 -0.1631 -1.5148 -0.5326
   77SLPC  H16R 7017   3.267   5.650   4.556  0.4876  0.3645 -2.9266
   77SLPC  H16S 7018   3.269   5.818   4.619 -0.3263 -1.1812 -1.7845
   77SLPC  C217 7019   3.090   5.769   4.509  0.2929 -0.9075 -0.2638
   77SLPC  H17R 7020   3.045   5.862   4.551 -0.7770  0.6490 -4.4247
   77SLPC  H17S 7021   3.011   5.691   4.516  1.1692 -1.8522 -0.7386
   77SLPC  C218 7022   3.123   5.782   4.358  0.6045 -0.1147 -0.3199
   77SLPC  H18R 7023   3.058   5.858   4.312  2.0479  1.5111  0.2335
   77SLPC  H18S 7024   3.126   5.693   4.292 -1.9408  1.7774 -3.2380
   77SLPC  H18T 7025   3.220   5.835   4.352 -0.1563  1.2127 -1.2205
   77SLPC   C33 7026   4.112   6.082   5.585 -0.0181  0.5564  0.1574
   77SLPC   H3X 7027   4.038   6.162   5.603 -2.7338 -1.2412 -2.2276
   77SLPC   H3Y 7028   4.066   5.994   5.635 -0.1107  0.6631  0.2601
   77SLPC   C34 7029   4.135   6.049   5.436 -0.2238 -0.6403 -0.5499
   77SLPC   H4X 7030   4.045   6.003   5.391 -0.6874 -0.8698  0.5851
   77SLPC   H4Y 7031   4.219   5.976   5.435  0.4631  0.1277 -0.6235
   77SLPC   C35 7032   4.158   6.182   5.362  0.3588 -0.3913  0.1255
   77SLPC   H5X 7033   4.234   6.244   5.414 -1.4277  0.7873  1.4307
   77SLPC   H5Y 7034   4.064   6.238   5.382  0.2396 -1.3930  2.8380
   77SLPC   C36 7035   4.181   6.158   5.204  0.0661 -0.0778 -0.3919
   77SLPC   H6X 7036   4.154   6.252   5.152  0.7813  1.0538  1.1927
   77SLPC   H6Y 7037   4.122   6.072   5.167  1.7952 -1.9027  0.8133
   77SLPC   C37 7038   4.336   6.156   5.174 -0.5348  0.2327 -0.2608
   77SLPC   H7X 7039   4.371   6.056   5.208  0.6047  0.6055 -0.2862
   77SLPC   H7Y 7040   4.389   6.229   5.238 -0.7699  0.4227 -0.2806
   77SLPC   C38 7041   4.369   6.183   5.031  0.3320  0.2436 -0.9820
   77SLPC   H8X 7042   4.476   6.160   5.014  0.1220  1.1599 -4.2083
   77SLPC   H8Y 7043   4.355   6.292   5.011  2.7569  0.4597 -1.9475
   77SLPC   C39 7044   4.285   6.100   4.938 -0.2031 -0.3015  0.0124
   77SLPC   H9X 7045   4.182   6.138   4.951  0.3826  1.6140 -0.6590
   77SLPC   H9Y 7046   4.293   5.994   4.971  0.7459  0.0649  1.0281
   77SLPC  C310 7047   4.316   6.109   4.790  0.1869  0.5439  0.6063
   77SLPC  H10X 7048   4.424   6.088   4.782 -0.2232 -1.1852 -1.2410
   77SLPC  H10Y 7049   4.294   6.215   4.766 -0.8707  0.6684  1.9677
   77SLPC  C311 7050   4.227   6.018   4.700  0.2035 -0.5353 -0.0833
   77SLPC  H11X 7051   4.122   6.033   4.733 -0.2265 -2.2390 -0.5576
   77SLPC  H11Y 7052   4.257   5.915   4.731  1.2142  0.3817  2.1740
   77SLPC  C312 7053   4.256   6.022   4.556  0.2925  0.0082  0.0232
   77SLPC  H12X 7054   4.365   6.020   4.533  0.4494  0.0937  0.7465
   77SLPC  H12Y 7055   4.219   6.117   4.513 -0.9580  0.0430  1.0942
   77SLPC  C313 7056   4.180   5.909   4.477 -0.5195 -0.0722  0.0413
   77SLPC  H13X 7057   4.071   5.912   4.497 -0.1599  0.5079  2.2526
   77SLPC  H13Y 7058   4.208   5.806   4.506 -0.6534  0.2740  1.4627
   77SLPC  C314 7059   4.199   5.935   4.332  0.0700  0.4054 -0.1521
   77SLPC  H14X 7060   4.304   5.923   4.297 -1.0184 -1.3108 -3.1389
   77SLPC  H14Y 7061   4.186   6.039   4.297 -0.0676  0.3686 -0.2133
   77SLPC  C315 7062   4.122   5.836   4.241 -1.0312 -0.7470 -0.1863
   77SLPC  H15X 7063   4.012   5.854   4.245 -0.8210  0.9505 -1.3151
   77SLPC  H15Y 7064   4.146   5.734   4.277 -1.5633 -1.1888 -1.0355
   77SLPC  C316 7065   4.166   5.844   4.096  0.7535  0.2836  0.1615
   77SLPC  H16X 7066   4.276   5.862   4.089  0.8766 -0.1957  0.8225
   77SLPC  H16Y 7067   4.123   5.934   4.047  0.4854  1.0230  1.6859
   77SLPC  C317 7068   4.133   5.715   4.021 -0.0997 -0.5430 -0.2989
   77SLPC  H17X 7069   4.171   5.627   4.078 -0.5744  0.6341  1.9443
   77SLPC  H17Y 7070   4.177   5.703   3.920  0.1324 -3.3841  0.0375
   77SLPC  C318 7071   3.981   5.706   3.994 -0.2487  0.2569  0.7694
   77SLPC  H18X 7072   3.963   5.621   3.924  1.3514  0.4180  0.1120
   77SLPC  H18Y 7073   3.940   5.801   3.955 -0.3665  0.1346  0.5895
   77SLPC  H18Z 7074   3.927   5.677   4.086 -0.6846  2.4409  1.2429
   78SLPC     N 7075   0.690   5.793   6.473 -0.2781 -0.1112 -0.4326
   78SLPC   C13 7076   0.661   5.912   6.564 -0.4881  0.0460  0.4402
   78SLPC  H13A 7077   0.668   6.012   6.524 -0.4197  0.2102  0.8574
   78SLPC  H13B 7078   0.560   5.903   6.603 -0.5605 -2.2319 -0.1710
   78SLPC  H13C 7079   0.723   5.916   6.652 -1.3149 -0.7595  1.0790
   78SLPC   C14 7080   0.613   5.788   6.355 -0.5329 -0.2281 -0.0214
   78SLPC  H14A 7081   0.676   5.833   6.280 -2.1335 -0.9334 -1.8618
   78SLPC  H14B 7082   0.593   5.686   6.327  1.1597 -0.5036 -0.3205
   78SLPC  H14C 7083   0.518   5.837   6.371 -0.2893  0.3814 -0.3909
   78SLPC   C15 7084   0.657   5.669   6.550 -0.0556 -0.1694  0.2380
   78SLPC  H15A 7085   0.553   5.642   6.556 -0.2215  0.3594 -0.2258
   78SLPC  H15B 7086   0.704   5.578   6.516  2.4703  0.9988  0.3850
   78SLPC  H15C 7087   0.697   5.683   6.650 -2.1561  1.1982  0.9650
   78SLPC   C12 7088   0.839   5.785   6.444  0.1033 -0.9096  0.0301
   78SLPC  H12A 7089   0.895   5.766   6.535 -1.5022 -0.8242  1.0884
   78SLPC  H12B 7090   0.872   5.882   6.411  0.4640 -0.4203  1.7248
   78SLPC   C11 7091   0.877   5.684   6.333  0.0150  0.4842 -0.3637
   78SLPC  H11A 7092   0.986   5.703   6.320  0.0342 -0.0745 -1.1173
   78SLPC  H11B 7093   0.828   5.699   6.234  1.4607  1.2153 -1.0034
   78SLPC     P 7094   0.967   5.461   6.453  0.7556  0.0755 -0.1245
   78SLPC   O13 7095   1.036   5.540   6.558 -0.6014  0.4150  0.2190
   78SLPC   O14 7096   0.893   5.338   6.498  0.4496 -0.6041 -0.0309
   78SLPC   O12 7097   0.859   5.549   6.381  0.3764  0.4282  0.3784
   78SLPC   O11 7098   1.062   5.417   6.338 -0.1198 -0.4628  0.3821
   78SLPC    C1 7099   1.038   5.453   6.201 -0.2698 -0.4775 -0.3270
   78SLPC    HA 7100   0.929   5.435   6.186 -0.9337  2.4235  0.3830
   78SLPC    HB 7101   1.054   5.562   6.186  0.5760 -0.2153  2.1499
   78SLPC    C2 7102   1.105   5.357   6.098 -0.1314  0.4534  0.0618
   78SLPC    HS 7103   1.215   5.372   6.095 -0.0412 -0.0832  0.4947
   78SLPC   O21 7104   1.039   5.377   5.976  0.4877  0.3575 -0.1820
   78SLPC   C21 7105   1.055   5.502   5.922 -0.1216  0.6073 -0.1839
   78SLPC   O22 7106   1.141   5.577   5.966  0.1714 -0.1346 -0.0041
   78SLPC   C22 7107   0.951   5.527   5.817  0.6098 -0.3654 -0.2672
   78SLPC   H2R 7108   0.940   5.442   5.747  0.7231  0.4151 -1.2544
   78SLPC   H2S 7109   0.852   5.551   5.862  0.1315 -0.9067 -1.0115
   78SLPC    C3 7110   1.090   5.207   6.143 -0.1302  0.5031 -0.1988
   78SLPC    HX 7111   0.980   5.191   6.145 -0.1896  0.3172 -2.4378
   78SLPC    HY 7112   1.135   5.205   6.244  1.6512  3.9058 -0.7902
   78SLPC   O31 7113   1.147   5.112   6.048  0.6274  0.1219  0.2526
   78SLPC   C31 7114   1.277   5.097   6.056 -0.7046  1.1865 -0.5151
   78SLPC   O32 7115   1.352   5.135   6.142  0.4527 -0.3778 -0.0037
   78SLPC   C32 7116   1.322   5.015   5.936 -0.1217  0.2261 -0.5514
   78SLPC   H2X 7117   1.250   4.933   5.913  2.7790 -2.6391 -0.1528
   78SLPC   H2Y 7118   1.409   4.953   5.967 -0.5605 -1.8313 -3.0988
   78SLPC   C23 7119   0.986   5.653   5.723  0.4482  0.0154 -0.6255
   78SLPC   H3R 7120   1.041   5.728   5.783  1.2304 -2.4568  1.9743
   78SLPC   H3S 7121   0.889   5.699   5.696  1.3770  2.0852 -0.6140
   78SLPC   C24 7122   1.072   5.607   5.598 -0.5113  0.6722 -0.5380
   78SLPC   H4R 7123   1.011   5.520   5.564 -1.5245  0.9494  0.5242
   78SLPC   H4S 7124   1.171   5.580   5.641 -0.9110 -0.2017 -0.1522
   78SLPC   C25 7125   1.090   5.717   5.495 -0.1834 -0.0369  0.2667
   78SLPC   H5R 7126   1.149   5.801   5.537 -1.2761  1.0405 -0.2755
   78SLPC   H5S 7127   0.996   5.764   5.458 -0.3147  0.2454  0.9457
   78SLPC   C26 7128   1.169   5.674   5.368  0.2487  0.8503 -0.7149
   78SLPC   H6R 7129   1.141   5.581   5.314  0.0109 -0.0148  0.8516
   78SLPC   H6S 7130   1.271   5.658   5.410 -0.0487  3.2026  1.0832
   78SLPC   C27 7131   1.153   5.772   5.256  0.0435 -0.3803  0.3741
   78SLPC   H7R 7132   1.196   5.870   5.288 -0.7065  0.1386 -0.1761
   78SLPC   H7S 7133   1.050   5.786   5.217  0.3313 -0.2368 -0.3435
   78SLPC   C28 7134   1.228   5.734   5.124 -0.8169 -0.6439  0.4393
   78SLPC   H8R 7135   1.337   5.726   5.143 -0.6457  0.3393 -0.0138
   78SLPC   H8S 7136   1.222   5.828   5.064 -1.8594 -0.7217  0.4069
   78SLPC   C29 7137   1.179   5.610   5.048 -1.1101 -0.2530  0.0795
   78SLPC   H9R 7138   1.140   5.528   5.110 -0.9447 -0.9841 -0.7662
   78SLPC  C210 7139   1.187   5.585   4.916 -0.0792  0.3235 -0.5086
   78SLPC  H10R 7140   1.148   5.487   4.884  3.3008 -1.1568 -0.4330
   78SLPC  C211 7141   1.252   5.677   4.817  0.7009 -0.2396  0.2526
   78SLPC  H11R 7142   1.336   5.625   4.767  0.3762  0.8712 -1.5717
   78SLPC  H11S 7143   1.292   5.768   4.866  2.4206 -1.3687  1.0239
   78SLPC  C212 7144   1.166   5.726   4.708  0.3640 -0.2250  0.3117
   78SLPC  H12R 7145   1.114   5.819   4.737  1.6032  0.5050  0.2527
   78SLPC  C213 7146   1.150   5.684   4.580  0.6374  0.4252 -0.5337
   78SLPC  H13R 7147   1.089   5.747   4.514 -0.6736 -1.7703 -1.5229
   78SLPC  C214 7148   1.217   5.558   4.531  0.4403  0.2585 -0.5027
   78SLPC  H14R 7149   1.142   5.477   4.518  1.4500 -0.4582 -2.2820
   78SLPC  H14S 7150   1.295   5.521   4.602 -1.0462  3.3229  3.0203
   78SLPC  C215 7151   1.286   5.567   4.395  0.1155  0.6016  0.3798
   78SLPC  H15R 7152   1.334   5.469   4.373  0.1566  0.5557  0.6628
   78SLPC  H15S 7153   1.367   5.641   4.410 -0.6770  1.0162  3.2930
   78SLPC  C216 7154   1.198   5.610   4.277 -0.3409  0.2571 -0.0915
   78SLPC  H16R 7155   1.262   5.673   4.212  0.9311  0.5754  1.4201
   78SLPC  H16S 7156   1.113   5.671   4.313  0.7056  0.9839  1.2463
   78SLPC  C217 7157   1.156   5.485   4.198 -0.5777 -0.1347 -0.1955
   78SLPC  H17R 7158   1.053   5.487   4.158 -1.1915  2.3827  1.2691
   78SLPC  H17S 7159   1.171   5.399   4.267  1.7409  0.5254  0.2354
   78SLPC  C218 7160   1.250   5.454   4.078 -0.2248  0.2633  0.3737
   78SLPC  H18R 7161   1.344   5.417   4.124  0.7600  0.4938 -1.3702
   78SLPC  H18S 7162   1.276   5.545   4.020 -0.4869  0.1418  0.0633
   78SLPC  H18T 7163   1.209   5.381   4.005 -0.1632 -0.5811  1.1643
   78SLPC   C33 7164   1.360   5.097   5.817 -0.8179  0.8941  0.3316
   78SLPC   H3X 7165   1.419   5.034   5.748 -0.2181  1.7914  0.0086
   78SLPC   H3Y 7166   1.424   5.180   5.856  0.2417 -1.2867  3.7610
   78SLPC   C34 7167   1.241   5.158   5.743 -0.4066  0.3249  0.2934
   78SLPC   H4X 7168   1.180   5.222   5.811 -0.0404  0.1045  0.8402
   78SLPC   H4Y 7169   1.170   5.078   5.714 -3.1543  3.0066 -0.9039
   78SLPC   C35 7170   1.273   5.252   5.627  0.7685 -0.0198  0.2342
   78SLPC   H5X 7171   1.357   5.325   5.635  0.8781 -0.1929  0.7000
   78SLPC   H5Y 7172   1.174   5.302   5.610  1.6035  1.6392  0.0327
   78SLPC   C36 7173   1.287   5.168   5.498  0.0205 -0.2301  0.2690
   78SLPC   H6X 7174   1.201   5.098   5.503  1.1130 -1.5516  1.7506
   78SLPC   H6Y 7175   1.384   5.115   5.496  0.0261 -0.2200  0.2722
   78SLPC   C37 7176   1.271   5.243   5.368 -0.3825 -0.2280  0.4801
   78SLPC   H7X 7177   1.351   5.318   5.355  0.7317 -1.4705 -0.0632
   78SLPC   H7Y 7178   1.179   5.305   5.379 -0.7962 -0.7605  0.1296
   78SLPC   C38 7179   1.275   5.154   5.246  0.2005 -0.2995 -0.3212
   78SLPC   H8X 7180   1.200   5.072   5.251 -0.2752  0.1644  0.2969
   78SLPC   H8Y 7181   1.371   5.101   5.230 -0.2727 -2.4248  2.9762
   78SLPC   C39 7182   1.236   5.233   5.120  0.0439  0.1977 -0.0014
   78SLPC   H9X 7183   1.300   5.323   5.108  1.0891 -0.6018 -0.5403
   78SLPC   H9Y 7184   1.130   5.266   5.122 -0.2960 -0.8294  1.9205
   78SLPC  C310 7185   1.261   5.149   4.995 -0.1971  0.2339 -0.5695
   78SLPC  H10X 7186   1.189   5.065   4.987  0.3323 -0.1668 -1.2929
   78SLPC  H10Y 7187   1.361   5.103   5.009 -1.4100 -2.5867 -0.5563
   78SLPC  C311 7188   1.248   5.207   4.853 -0.2496 -0.3905 -0.3401
   78SLPC  H11X 7189   1.308   5.301   4.847 -1.7813  0.6903  0.4565
   78SLPC  H11Y 7190   1.144   5.244   4.851  0.2279  1.1427  0.5812
   78SLPC  C312 7191   1.279   5.105   4.741 -0.5156 -0.1248  0.8234
   78SLPC  H12X 7192   1.194   5.034   4.729 -0.8565  0.4142 -0.0245
   78SLPC  H12Y 7193   1.377   5.055   4.757  0.3613  1.2765  0.0536
   78SLPC  C313 7194   1.281   5.168   4.603  0.4239  0.6610  0.2053
   78SLPC  H13X 7195   1.361   5.244   4.596  0.8991  0.0222 -2.2779
   78SLPC  H13Y 7196   1.182   5.217   4.586 -0.9143 -1.1561  2.2443
   78SLPC  C314 7197   1.313   5.068   4.492 -0.4247 -0.5046  0.1414
   78SLPC  H14X 7198   1.241   4.983   4.502 -1.5686  0.3121 -0.8060
   78SLPC  H14Y 7199   1.419   5.040   4.507 -0.0325 -0.0605 -1.5643
   78SLPC  C315 7200   1.293   5.124   4.351 -0.4453  0.1777 -1.2537
   78SLPC  H15X 7201   1.364   5.208   4.340 -0.5805  0.2777 -1.3672
   78SLPC  H15Y 7202   1.194   5.168   4.328 -0.5714  2.2182  2.5061
   78SLPC  C316 7203   1.336   5.026   4.238 -0.6364  0.0083  0.4148
   78SLPC  H16X 7204   1.291   4.931   4.275  0.5862 -0.9869 -0.5462
   78SLPC  H16Y 7205   1.444   4.998   4.244 -1.0145 -1.8246 -0.5153
   78SLPC  C317 7206   1.302   5.073   4.093 -0.1469  0.2370 -0.2619
   78SLPC  H17X 7207   1.346   5.174   4.082  1.9003 -0.4443  1.0069
   78SLPC  H17Y 7208   1.193   5.094   4.083 -0.2216  0.0907  0.2105
   78SLPC  C318 7209   1.350   4.984   3.981  0.3542 -0.1788 -0.0076
   78SLPC  H18X 7210   1.307   4.991   3.879  1.9596 -3.0152 -1.0081
   78SLPC  H18Y 7211   1.347   4.875   4.000 -1.2208 -0.1794 -0.1210
   78SLPC  H18Z 7212   1.459   4.996   3.964  0.0812  2.5519 -0.3046
   79SLPC     N 7213   6.153   0.984   6.568  0.0198 -0.3624 -0.0922
   79SLPC   C13 7214   6.087   0.851   6.561  0.3253  0.1681 -0.6247
   79SLPC  H13A 7215   6.083   0.793   6.652  0.0693  0.8720 -0.1795
   79SLPC  H13B 7216   5.991   0.852   6.513 -0.4327 -3.2001  0.5069
   79SLPC  H13C 7217   6.138   0.787   6.490  0.6882 -0.5786  0.2878
   79SLPC   C14 7218   6.301   0.980   6.532 -0.0337 -1.0595  0.0068
   79SLPC  H14A 7219   6.327   0.913   6.451  2.4399  1.0075 -1.0544
   79SLPC  H14B 7220   6.344   1.078   6.519 -1.7349 -0.1503  0.8097
   79SLPC  H14C 7221   6.343   0.942   6.624  0.1740 -0.4605  0.1583
   79SLPC   C15 7222   6.134   1.045   6.707  0.6272  0.0999 -0.3331
   79SLPC  H15A 7223   6.037   1.084   6.733  1.0922  2.2020 -1.4942
   79SLPC  H15B 7224   6.156   0.967   6.778  2.0051  1.1650  0.4555
   79SLPC  H15C 7225   6.194   1.133   6.727 -0.2249  0.4095  1.0373
   79SLPC   C12 7226   6.085   1.073   6.467  0.2240  0.7549 -0.4788
   79SLPC  H12A 7227   5.978   1.068   6.483  0.2783  2.1386  0.4371
   79SLPC  H12B 7228   6.094   1.032   6.368 -0.9491  0.5014 -0.4925
   79SLPC   C11 7229   6.127   1.213   6.460  0.3582  0.4512 -0.0463
   79SLPC  H11A 7230   6.123   1.272   6.554 -0.0823  2.9269 -1.5197
   79SLPC  H11B 7231   6.047   1.267   6.405 -0.2181  0.4877  0.8051
   79SLPC     P 7232   6.263   1.214   6.240 -0.0707 -0.4798 -0.0266
   79SLPC   O13 7233   6.263   1.344   6.170  0.1695  0.3737 -0.0086
   79SLPC   O14 7234   6.359   1.110   6.210 -0.3673 -0.0149 -0.7017
   79SLPC   O12 7235   6.251   1.230   6.400 -0.6979 -0.5781 -0.4149
   79SLPC   O11 7236   6.119   1.159   6.195  0.1521  0.4892  0.6219
   79SLPC    C1 7237   6.016   1.227   6.121  0.1363 -0.1162  0.1628
   79SLPC    HA 7238   5.922   1.209   6.177 -0.6363  1.0378 -0.6982
   79SLPC    HB 7239   6.038   1.336   6.109 -1.9098  0.0961 -2.6848
   79SLPC    C2 7240   5.997   1.169   5.978  0.6546 -0.0140 -0.1762
   79SLPC    HS 7241   5.952   1.070   6.001 -0.6719  0.5334 -0.3132
   79SLPC   O21 7242   6.119   1.157   5.905 -0.5831  0.1356  0.0532
   79SLPC   C21 7243   6.188   1.049   5.936  0.7623 -0.4131  0.1178
   79SLPC   O22 7244   6.149   0.953   5.995  0.1393  0.0962  0.1776
   79SLPC   C22 7245   6.327   1.063   5.873 -0.3189 -0.7694  0.2668
   79SLPC   H2R 7246   6.375   1.156   5.911  2.0719 -2.3577  1.4099
   79SLPC   H2S 7247   6.385   0.972   5.898  1.7184  0.1930 -0.6908
   79SLPC    C3 7248   5.893   1.254   5.893 -0.3475  0.3015  0.7308
   79SLPC    HX 7249   5.893   1.364   5.902 -0.6042  0.4471 -0.8607
   79SLPC    HY 7250   5.792   1.226   5.928 -1.4220  2.3434 -0.5515
   79SLPC   O31 7251   5.909   1.223   5.752  0.2473 -0.1340  0.0517
   79SLPC   C31 7252   6.004   1.269   5.679  0.0801 -0.1823 -0.4329
   79SLPC   O32 7253   6.090   1.349   5.712  0.1164 -0.6372  0.1943
   79SLPC   C32 7254   5.983   1.228   5.533 -0.2349  0.1733  0.8624
   79SLPC   H2X 7255   5.879   1.251   5.501  0.4427  0.1375 -1.5382
   79SLPC   H2Y 7256   6.007   1.120   5.517  0.8796  0.1853  2.2813
   79SLPC   C23 7257   6.326   1.083   5.723 -0.0099  0.9038  0.0746
   79SLPC   H3R 7258   6.247   1.158   5.701 -0.8436 -0.1437 -0.5633
   79SLPC   H3S 7259   6.306   0.982   5.682  0.4724  1.3998 -1.4354
   79SLPC   C24 7260   6.461   1.126   5.657  0.1593  0.3002 -0.1922
   79SLPC   H4R 7261   6.541   1.083   5.720  0.1313 -0.8864 -0.9372
   79SLPC   H4S 7262   6.461   1.236   5.673  2.2888  0.1806  1.0139
   79SLPC   C25 7263   6.474   1.099   5.503  0.4338  0.1811 -0.6174
   79SLPC   H5R 7264   6.385   1.039   5.474  0.8935 -0.0999 -1.4838
   79SLPC   H5S 7265   6.563   1.036   5.482  0.0451 -0.6064  0.0183
   79SLPC   C26 7266   6.479   1.227   5.414  0.3089 -0.0958 -0.5270
   79SLPC   H6R 7267   6.579   1.276   5.419  0.0630  0.4748 -0.9997
   79SLPC   H6S 7268   6.417   1.310   5.455  0.2244  0.0654 -0.9790
   79SLPC   C27 7269   6.448   1.190   5.274  0.0560  0.4584 -0.2442
   79SLPC   H7R 7270   6.338   1.180   5.274  0.0200  0.6748  1.1976
   79SLPC   H7S 7271   6.500   1.095   5.249  0.7815 -0.3301  3.6762
   79SLPC   C28 7272   6.494   1.299   5.180 -0.2252  0.3666  0.5196
   79SLPC   H8R 7273   6.453   1.391   5.227  1.7718  1.4065  0.3421
   79SLPC   H8S 7274   6.423   1.300   5.095  1.9826 -0.1914 -1.4432
   79SLPC   C29 7275   6.640   1.322   5.136  0.2921 -0.4446  0.1461
   79SLPC   H9R 7276   6.708   1.336   5.221 -2.1766  0.7934  2.0578
   79SLPC  C210 7277   6.691   1.367   5.017  0.0286 -0.0806 -0.8962
   79SLPC  H10R 7278   6.798   1.388   5.003 -0.2672  2.5421  0.1164
   79SLPC  C211 7279   6.609   1.361   4.897  0.8211  0.1692  0.6079
   79SLPC  H11R 7280   6.520   1.426   4.903 -0.3621 -1.4901  2.0593
   79SLPC  H11S 7281   6.574   1.257   4.883  0.3382  0.3486  0.4889
   79SLPC  C212 7282   6.691   1.402   4.772  0.2055  0.2615  0.5783
   79SLPC  H12R 7283   6.769   1.474   4.800 -0.0726  1.3150 -1.2241
   79SLPC  C213 7284   6.684   1.360   4.651 -0.6235  0.1466 -0.2436
   79SLPC  H13R 7285   6.764   1.383   4.579 -1.1301  1.0384 -0.5334
   79SLPC  C214 7286   6.580   1.254   4.614  0.8990 -0.1214  0.5195
   79SLPC  H14R 7287   6.476   1.279   4.643  0.7902 -0.4818  0.4430
   79SLPC  H14S 7288   6.588   1.157   4.667 -2.1880 -1.6217 -1.4785
   79SLPC  C215 7289   6.594   1.232   4.463 -0.4367  0.4763 -0.4732
   79SLPC  H15R 7290   6.549   1.132   4.447 -1.4190  0.8995 -0.4689
   79SLPC  H15S 7291   6.701   1.229   4.434 -0.6933  1.7623 -1.6641
   79SLPC  C216 7292   6.525   1.340   4.383 -0.1673  0.4282  0.2337
   79SLPC  H16R 7293   6.570   1.441   4.395  2.2730 -0.6757  0.8717
   79SLPC  H16S 7294   6.419   1.362   4.410 -1.2244  0.5827 -3.3732
   79SLPC  C217 7295   6.535   1.307   4.231  0.6542  0.0637  0.2068
   79SLPC  H17R 7296   6.432   1.318   4.193  0.7576 -0.8751 -0.3839
   79SLPC  H17S 7297   6.556   1.199   4.215 -1.5292 -0.5526  1.1166
   79SLPC  C218 7298   6.626   1.393   4.150  0.3449 -0.5397  0.5518
   79SLPC  H18R 7299   6.725   1.409   4.198  0.7265  0.8211 -0.6062
   79SLPC  H18S 7300   6.575   1.491   4.144 -1.1026 -1.1242  2.3734
   79SLPC  H18T 7301   6.647   1.348   4.051  1.9760  1.6666 -0.1820
   79SLPC   C33 7302   6.079   1.310   5.446 -0.0770  0.0090  0.6305
   79SLPC   H3X 7303   6.186   1.297   5.473  0.0800  0.9474  0.4996
   79SLPC   H3Y 7304   6.057   1.417   5.465  1.6715  0.1742  2.0345
   79SLPC   C34 7305   6.064   1.282   5.295  0.4912 -0.4191  0.0043
   79SLPC   H4X 7306   5.959   1.259   5.266  0.0479 -0.3693  1.4784
   79SLPC   H4Y 7307   6.134   1.201   5.266 -0.3202 -0.5739 -1.6565
   79SLPC   C35 7308   6.124   1.378   5.196  0.2351  0.0183 -0.1645
   79SLPC   H5X 7309   6.221   1.417   5.234  0.2002  1.2303 -1.2580
   79SLPC   H5Y 7310   6.063   1.471   5.194  2.4719  1.5738 -1.7457
   79SLPC   C36 7311   6.128   1.326   5.046  0.6760  0.2945  0.2362
   79SLPC   H6X 7312   6.026   1.299   5.012  1.1643 -0.1181 -0.9254
   79SLPC   H6Y 7313   6.189   1.234   5.046  1.0183  0.5156  0.7146
   79SLPC   C37 7314   6.188   1.426   4.954 -0.0343  0.3531  1.3011
   79SLPC   H7X 7315   6.296   1.448   4.966  0.1322 -0.6647  1.7141
   79SLPC   H7Y 7316   6.135   1.524   4.956  0.0342  0.4687 -0.4949
   79SLPC   C38 7317   6.170   1.367   4.808 -0.9425  0.8368  0.3258
   79SLPC   H8X 7318   6.207   1.436   4.729  3.7415 -0.8940  0.7380
   79SLPC   H8Y 7319   6.062   1.355   4.786 -1.0750  0.6174  1.0574
   79SLPC   C39 7320   6.234   1.222   4.783  0.5245 -0.1234 -0.3530
   79SLPC   H9X 7321   6.202   1.151   4.862 -0.7204 -0.6332 -1.2659
   79SLPC   H9Y 7322   6.342   1.236   4.804  0.0875  1.1459  1.2710
   79SLPC  C310 7323   6.212   1.166   4.645  0.3670 -0.4762  0.1246
   79SLPC  H10X 7324   6.264   1.069   4.632 -2.1311 -1.6835 -1.7285
   79SLPC  H10Y 7325   6.258   1.229   4.566 -2.8159  0.7534 -0.9109
   79SLPC  C311 7326   6.067   1.136   4.610  0.1182  0.0509 -0.3302
   79SLPC  H11X 7327   6.005   1.225   4.635 -0.5125  0.0053 -1.6828
   79SLPC  H11Y 7328   6.033   1.053   4.676  0.4914 -0.4039 -0.7049
   79SLPC  C312 7329   6.041   1.086   4.469 -0.1050  0.2408 -0.7862
   79SLPC  H12X 7330   5.938   1.045   4.464  1.2464 -3.4281 -1.8688
   79SLPC  H12Y 7331   6.117   1.006   4.455  0.5941  0.8714 -0.6858
   79SLPC  C313 7332   6.051   1.192   4.365  0.1514 -1.0995  0.1865
   79SLPC  H13X 7333   6.155   1.230   4.355  0.2307 -1.7706 -2.3457
   79SLPC  H13Y 7334   5.975   1.262   4.405  2.5543  0.9379  1.4379
   79SLPC  C314 7335   6.010   1.139   4.225  0.3613 -0.2327  0.0048
   79SLPC  H14X 7336   5.901   1.116   4.219  0.1656  0.8417 -0.9809
   79SLPC  H14Y 7337   6.061   1.044   4.198 -2.6534 -2.3441  1.2326
   79SLPC  C315 7338   6.032   1.246   4.121  0.7471 -0.2832 -0.7527
   79SLPC  H15X 7339   6.143   1.242   4.112  1.0289 -0.6617  2.1563
   79SLPC  H15Y 7340   6.015   1.349   4.157 -1.1564 -0.8330  0.0092
   79SLPC  C316 7341   5.964   1.202   3.989 -0.6254 -0.0223  0.2962
   79SLPC  H16X 7342   5.855   1.217   4.005 -0.4205  1.8792  0.1645
   79SLPC  H16Y 7343   5.996   1.097   3.972  0.7716  0.2463  1.0750
   79SLPC  C317 7344   6.006   1.279   3.863  0.6519 -0.9035 -0.4623
   79SLPC  H17X 7345   6.116   1.290   3.875  0.8200 -0.8224 -1.9840
   79SLPC  H17Y 7346   5.957   1.379   3.866 -1.1724 -1.7611 -0.4601
   79SLPC  C318 7347   5.970   1.213   3.728 -0.2343  0.0561  0.0891
   79SLPC  H18X 7348   5.866   1.174   3.737  0.0309 -0.6052  0.3216
   79SLPC  H18Y 7349   6.038   1.125   3.729 -0.5814 -0.2160  0.2615
   79SLPC  H18Z 7350   6.004   1.288   3.653  0.7689 -1.0239 -0.5722
   80SLPC     N 7351   3.081   4.583   6.575 -0.1765  1.1263 -0.2830
   80SLPC   C13 7352   2.975   4.548   6.676  0.0215  0.4746 -0.2489
   80SLPC  H13A 7353   2.911   4.467   6.642  0.5531  0.0078 -0.1409
   80SLPC  H13B 7354   3.002   4.546   6.780 -0.3993  0.5868 -0.1362
   80SLPC  H13C 7355   2.901   4.625   6.658 -1.7000 -0.8603  0.8280
   80SLPC   C14 7356   3.178   4.467   6.551  0.1318  0.0625 -0.7106
   80SLPC  H14A 7357   3.240   4.440   6.635  0.8280  0.0555 -1.2095
   80SLPC  H14B 7358   3.125   4.380   6.515  0.3972 -0.5499  0.3457
   80SLPC  H14C 7359   3.253   4.484   6.475  3.2885  1.9677  2.5048
   80SLPC   C15 7360   3.163   4.691   6.637 -0.2175  0.0895  0.0400
   80SLPC  H15A 7361   3.205   4.654   6.729  0.8467  1.5780  0.1825
   80SLPC  H15B 7362   3.246   4.714   6.572 -0.9420 -1.3417 -1.4805
   80SLPC  H15C 7363   3.105   4.780   6.658  0.7191  0.4319  1.2696
   80SLPC   C12 7364   3.019   4.614   6.443  0.3076 -0.5440  0.4284
   80SLPC  H12A 7365   2.966   4.708   6.449 -0.2599 -0.8775  0.6960
   80SLPC  H12B 7366   2.951   4.538   6.407  2.1402 -0.9169 -2.6272
   80SLPC   C11 7367   3.115   4.643   6.319  0.7986  0.5618  0.1811
   80SLPC  H11A 7368   3.054   4.635   6.227  3.2194  1.4286 -1.5873
   80SLPC  H11B 7369   3.191   4.564   6.307 -0.3935 -0.6052  0.1268
   80SLPC     P 7370   3.119   4.907   6.264 -0.2719 -0.1353  0.2230
   80SLPC   O13 7371   2.987   4.933   6.318 -0.1514 -0.4244 -0.0468
   80SLPC   O14 7372   3.227   5.009   6.281  0.1971 -0.7644  0.1111
   80SLPC   O12 7373   3.176   4.772   6.320  0.4575 -0.1073  0.2721
   80SLPC   O11 7374   3.096   4.878   6.113  0.4535  0.2120  0.5572
   80SLPC    C1 7375   3.223   4.885   6.037  0.8608  0.6079 -0.4184
   80SLPC    HA 7376   3.250   4.993   6.037 -0.0092  0.8508  0.5860
   80SLPC    HB 7377   3.313   4.836   6.079 -0.4554 -1.5238  0.0704
   80SLPC    C2 7378   3.197   4.846   5.888 -0.5756  0.1356  0.6067
   80SLPC    HS 7379   3.279   4.880   5.821 -0.7291 -1.7133 -0.5975
   80SLPC   O21 7380   3.076   4.896   5.837  0.5650  0.4721  0.3884
   80SLPC   C21 7381   3.062   5.035   5.820 -0.5364 -0.0862 -0.6273
   80SLPC   O22 7382   3.154   5.115   5.814  0.0971 -0.6191  0.1813
   80SLPC   C22 7383   2.915   5.072   5.809 -0.0152 -0.0811  0.0673
   80SLPC   H2R 7384   2.854   4.981   5.826 -1.5026  1.1194  1.4379
   80SLPC   H2S 7385   2.880   5.144   5.886 -0.7542 -0.9828  0.5933
   80SLPC    C3 7386   3.179   4.697   5.876  0.5987  0.5435  0.1841
   80SLPC    HX 7387   3.089   4.659   5.930  1.6168 -2.2318  0.1155
   80SLPC    HY 7388   3.267   4.667   5.937  0.4008  1.6287  1.0339
   80SLPC   O31 7389   3.184   4.651   5.734 -0.4870 -0.0295  0.0056
   80SLPC   C31 7390   3.226   4.525   5.722 -0.8535 -0.2787 -0.2950
   80SLPC   O32 7391   3.261   4.457   5.820 -0.1777  0.3927 -0.2116
   80SLPC   C32 7392   3.242   4.482   5.580  0.2230  0.2754  0.2570
   80SLPC   H2X 7393   3.224   4.550   5.495 -0.5913 -2.6054 -2.0476
   80SLPC   H2Y 7394   3.156   4.414   5.562  0.2102  0.3795 -0.0885
   80SLPC   C23 7395   2.875   5.131   5.672  0.0977  0.5793  0.0857
   80SLPC   H3R 7396   2.927   5.222   5.634 -1.9539  0.6757 -2.8537
   80SLPC   H3S 7397   2.765   5.146   5.678 -0.0794  0.1826 -1.5963
   80SLPC   C24 7398   2.888   5.028   5.560 -1.1409 -0.3984  0.0558
   80SLPC   H4R 7399   2.831   4.935   5.583 -1.4609 -1.0088 -2.8165
   80SLPC   H4S 7400   2.990   4.985   5.559 -0.9820 -0.0340 -0.9605
   80SLPC   C25 7401   2.839   5.063   5.422 -0.0154 -0.3758  0.2386
   80SLPC   H5R 7402   2.932   5.101   5.375  0.2135 -0.3242  0.7206
   80SLPC   H5S 7403   2.768   5.147   5.437  0.7907  0.4440 -0.3907
   80SLPC   C26 7404   2.792   4.945   5.337  0.9890  0.0980  0.0952
   80SLPC   H6R 7405   2.693   4.910   5.374  0.7866 -1.5308 -1.8405
   80SLPC   H6S 7406   2.849   4.851   5.353  0.5559  0.3200  3.8689
   80SLPC   C27 7407   2.781   4.986   5.189 -0.1919 -0.8106 -0.4019
   80SLPC   H7R 7408   2.881   4.993   5.142 -0.9325  0.0230 -1.9550
   80SLPC   H7S 7409   2.742   5.089   5.177  0.0100 -0.6132  0.5377
   80SLPC   C28 7410   2.695   4.883   5.106  1.1708 -0.2839 -0.0760
   80SLPC   H8R 7411   2.601   4.867   5.163  0.4082 -3.3590 -1.9182
   80SLPC   H8S 7412   2.733   4.779   5.096 -0.1261 -0.7840  0.0107
   80SLPC   C29 7413   2.679   4.940   4.970 -0.0095 -0.4917  0.3730
   80SLPC   H9R 7414   2.779   4.970   4.935  0.5769  0.5966  2.7699
   80SLPC  C210 7415   2.564   4.958   4.898 -0.4000 -0.2733 -0.2308
   80SLPC  H10R 7416   2.565   4.997   4.795 -1.5003  4.1037  1.1908
   80SLPC  C211 7417   2.432   4.922   4.956  0.2924  0.4677  0.0128
   80SLPC  H11R 7418   2.404   4.999   5.031 -3.7376  0.7329 -1.4838
   80SLPC  H11S 7419   2.440   4.823   5.005 -2.5795 -0.2160 -0.7378
   80SLPC  C212 7420   2.323   4.898   4.868  0.8307 -0.3124 -0.4099
   80SLPC  H12R 7421   2.345   4.867   4.765 -0.5070 -1.9461 -0.2547
   80SLPC  C213 7422   2.191   4.911   4.902 -0.4198  0.0871 -0.1194
   80SLPC  H13R 7423   2.107   4.889   4.835  0.0032 -0.9903 -0.3099
   80SLPC  C214 7424   2.149   4.931   5.044  0.7178 -0.2956  0.3917
   80SLPC  H14R 7425   2.090   5.025   5.048  3.0558  1.4722 -2.7393
   80SLPC  H14S 7426   2.233   4.939   5.116  0.0505 -0.4373  1.2120
   80SLPC  C215 7427   2.049   4.814   5.084  0.0875 -0.4072  0.4648
   80SLPC  H15R 7428   2.090   4.716   5.049 -0.2450 -0.2154 -0.5048
   80SLPC  H15S 7429   1.961   4.843   5.023  0.4379  0.3291  0.2986
   80SLPC  C216 7430   2.010   4.817   5.235 -0.5738  0.4120  0.4714
   80SLPC  H16R 7431   1.952   4.911   5.248  0.9886  1.5013 -0.1174
   80SLPC  H16S 7432   2.109   4.816   5.286 -0.0543 -0.0136 -0.5104
   80SLPC  C217 7433   1.928   4.702   5.292 -0.4564  0.1094  0.2606
   80SLPC  H17R 7434   1.948   4.702   5.401  1.4052  1.6664 -0.0423
   80SLPC  H17S 7435   1.975   4.607   5.259 -3.0809 -0.9774 -0.6292
   80SLPC  C218 7436   1.780   4.712   5.254  0.2519  0.4131  0.7966
   80SLPC  H18R 7437   1.768   4.743   5.148  3.0871  2.4217  0.9472
   80SLPC  H18S 7438   1.740   4.793   5.319 -2.7815 -0.4650  0.2052
   80SLPC  H18T 7439   1.738   4.613   5.280  0.4280 -0.4054 -1.7390
   80SLPC   C33 7440   3.382   4.418   5.564  0.0140  0.3503 -0.2858
   80SLPC   H3X 7441   3.389   4.338   5.640 -0.0987  0.3270 -0.2997
   80SLPC   H3Y 7442   3.471   4.485   5.564  0.8618 -0.7577  0.1358
   80SLPC   C34 7443   3.409   4.347   5.427  0.2542  0.0348  0.1799
   80SLPC   H4X 7444   3.386   4.425   5.352 -2.0934  1.1452  1.9018
   80SLPC   H4Y 7445   3.344   4.259   5.408 -0.5136  0.4978  0.6403
   80SLPC   C35 7446   3.550   4.302   5.421  0.1679  0.6108 -0.4223
   80SLPC   H5X 7447   3.581   4.235   5.504  2.8937  2.0260 -0.1956
   80SLPC   H5Y 7448   3.614   4.392   5.435 -0.2330  0.7680  0.4429
   80SLPC   C36 7449   3.591   4.218   5.292  1.0850  0.4316 -0.0437
   80SLPC   H6X 7450   3.563   4.284   5.206 -2.3056  0.2313  0.7755
   80SLPC   H6Y 7451   3.532   4.126   5.274  1.9309  0.2474 -2.1281
   80SLPC   C37 7452   3.740   4.183   5.282 -0.3024  0.0195 -0.5395
   80SLPC   H7X 7453   3.759   4.109   5.363 -1.6163 -0.6480 -0.8092
   80SLPC   H7Y 7454   3.791   4.278   5.310  0.0112 -0.7637  1.7258
   80SLPC   C38 7455   3.786   4.123   5.144 -0.3141 -0.0354  0.0272
   80SLPC   H8X 7456   3.727   4.033   5.117 -1.4364  0.7947 -0.3287
   80SLPC   H8Y 7457   3.890   4.086   5.160 -0.6119 -0.4547  1.0645
   80SLPC   C39 7458   3.771   4.215   5.025  0.6535  0.3904 -0.3362
   80SLPC   H9X 7459   3.774   4.320   5.063  0.4239  1.1115 -2.1889
   80SLPC   H9Y 7460   3.666   4.211   4.988  0.9425  1.2186 -1.2862
   80SLPC  C310 7461   3.864   4.198   4.907 -0.5336  0.0463  0.2527
   80SLPC  H10X 7462   3.847   4.102   4.852 -0.8824  0.5804 -0.5888
   80SLPC  H10Y 7463   3.968   4.174   4.937 -0.4409 -0.6772 -0.5904
   80SLPC  C311 7464   3.867   4.313   4.812 -0.2571 -0.1153 -0.8148
   80SLPC  H11X 7465   3.959   4.302   4.751 -0.0064  0.2891 -0.5175
   80SLPC  H11Y 7466   3.871   4.413   4.862  1.1276 -1.1369  1.2313
   80SLPC  C312 7467   3.751   4.311   4.712 -0.1613 -0.4145 -0.1558
   80SLPC  H12X 7468   3.659   4.356   4.757 -0.0692 -1.9632  1.6816
   80SLPC  H12Y 7469   3.731   4.203   4.695  0.7012 -0.4250 -1.2494
   80SLPC  C313 7470   3.771   4.377   4.572  0.0987 -0.0383  0.5454
   80SLPC  H13X 7471   3.670   4.385   4.528  0.0290  0.2341  0.7569
   80SLPC  H13Y 7472   3.837   4.311   4.511 -1.4273 -2.3838  1.2940
   80SLPC  C314 7473   3.822   4.525   4.594  0.1547  0.4826  0.2441
   80SLPC  H14X 7474   3.932   4.526   4.603  0.0842  1.0753  1.1570
   80SLPC  H14Y 7475   3.774   4.565   4.686 -0.2860  1.4393 -0.3867
   80SLPC  C315 7476   3.779   4.625   4.486  0.0020 -0.4773  0.4914
   80SLPC  H15X 7477   3.668   4.622   4.477 -0.0470 -0.2534  0.9986
   80SLPC  H15Y 7478   3.811   4.586   4.387  0.1101 -1.9412  1.0710
   80SLPC  C316 7479   3.831   4.763   4.524  0.4981 -0.9008 -0.1417
   80SLPC  H16X 7480   3.786   4.810   4.614  0.6715  0.3086 -0.6621
   80SLPC  H16Y 7481   3.793   4.830   4.444  0.4684  0.0208  0.6269
   80SLPC  C317 7482   3.985   4.787   4.513 -0.6257  0.3410 -0.0245
   80SLPC  H17X 7483   4.015   4.773   4.407 -0.2036  0.4106  0.0838
   80SLPC  H17Y 7484   4.040   4.706   4.565 -0.3233 -0.3317 -1.3589
   80SLPC  C318 7485   4.024   4.924   4.562 -0.0430 -0.2788  0.4145
   80SLPC  H18X 7486   4.000   4.925   4.670 -2.5690  0.4190 -0.1027
   80SLPC  H18Y 7487   3.968   5.004   4.509  0.7927  0.1008  0.0781
   80SLPC  H18Z 7488   4.133   4.943   4.551 -0.2659  0.3132 -1.0996
   81SLPC     N 7489   6.369   6.504   1.604  0.0433 -0.6674  0.1027
   81SLPC   C13 7490   6.395   6.359   1.623 -0.0131 -0.7198  0.1727
   81SLPC  H13A 7491   6.407   6.335   1.727 -0.2601 -1.9350 -0.0692
   81SLPC  H13B 7492   6.309   6.300   1.595  0.4028 -2.3473  2.1388
   81SLPC  H13C 7493   6.482   6.331   1.567 -0.1760 -1.0787  0.0997
   81SLPC   C14 7494   6.221   6.518   1.610 -0.0075  0.5120 -0.3601
   81SLPC  H14A 7495   6.193   6.621   1.591 -2.7343 -0.0267  0.3960
   81SLPC  H14B 7496   6.170   6.481   1.523 -0.9173  1.5804 -0.3103
   81SLPC  H14C 7497   6.185   6.459   1.693  2.6708 -0.1247  0.4467
   81SLPC   C15 7498   6.402   6.543   1.460  0.1700 -0.0733 -0.1455
   81SLPC  H15A 7499   6.384   6.648   1.443 -1.4641 -0.0980  1.1931
   81SLPC  H15B 7500   6.508   6.529   1.442 -0.1966 -0.7768 -1.9762
   81SLPC  H15C 7501   6.346   6.480   1.392  3.5490 -1.5668 -1.7845
   81SLPC   C12 7502   6.430   6.593   1.706 -0.2293  0.1381  0.5334
   81SLPC  H12A 7503   6.375   6.585   1.798 -0.4063 -1.0971  0.3500
   81SLPC  H12B 7504   6.415   6.694   1.672  0.5394 -0.1224 -0.6523
   81SLPC   C11 7505   6.578   6.580   1.738 -0.3438  0.0797  0.3269
   81SLPC  H11A 7506   6.609   6.477   1.766  0.4554  0.2374  0.0330
   81SLPC  H11B 7507   6.611   6.636   1.828  1.5042  0.9285 -0.8203
   81SLPC     P 7508   6.707   6.761   1.593  0.2457 -0.0905 -0.3023
   81SLPC   O13 7509   6.782   6.775   1.468  0.0212 -0.3009  0.2933
   81SLPC   O14 7510   6.597   6.856   1.616  0.0695 -0.1538 -0.3169
   81SLPC   O12 7511   6.659   6.608   1.621  0.1862  0.4883 -0.8692
   81SLPC   O11 7512   6.803   6.779   1.715 -0.9435  0.0052  0.2997
   81SLPC    C1 7513   6.938   6.723   1.708 -0.2552  0.2857 -0.0233
   81SLPC    HA 7514   6.958   6.648   1.628  1.5418  0.7705 -0.0601
   81SLPC    HB 7515   7.012   6.805   1.695  0.3807  0.0186  1.7549
   81SLPC    C2 7516   6.974   6.667   1.842 -0.1272 -0.0631  0.5487
   81SLPC    HS 7517   7.081   6.639   1.840 -0.6023 -2.0769  1.2445
   81SLPC   O21 7518   6.892   6.561   1.868 -0.0673 -0.0559 -0.1413
   81SLPC   C21 7519   6.917   6.460   1.944 -0.1765 -0.1290 -0.4476
   81SLPC   O22 7520   7.027   6.431   1.987 -0.0510  0.6566 -0.0864
   81SLPC   C22 7521   6.787   6.387   1.979  0.1550 -0.0961 -0.4191
   81SLPC   H2R 7522   6.728   6.361   1.889  0.3394  3.2929 -1.6633
   81SLPC   H2S 7523   6.806   6.292   2.034 -1.4312  0.1266  0.5470
   81SLPC    C3 7524   6.956   6.769   1.963 -0.4295 -0.6858  0.1803
   81SLPC    HX 7525   6.848   6.794   1.960 -1.0532 -3.1090 -2.7745
   81SLPC    HY 7526   7.013   6.861   1.936 -1.0855 -0.4542 -0.4442
   81SLPC   O31 7527   6.983   6.714   2.090 -0.6383 -0.2204 -0.4256
   81SLPC   C31 7528   7.112   6.720   2.128  0.0401  0.8105 -0.7922
   81SLPC   O32 7529   7.203   6.757   2.060 -0.5376 -0.5219  0.1808
   81SLPC   C32 7530   7.119   6.681   2.266 -0.0683  0.4065  0.0673
   81SLPC   H2X 7531   7.020   6.650   2.304  1.0981 -1.9521  1.4117
   81SLPC   H2Y 7532   7.154   6.768   2.326  1.3151  0.6095 -0.9608
   81SLPC   C23 7533   6.690   6.474   2.066  0.8027  0.1643  0.9911
   81SLPC   H3R 7534   6.589   6.427   2.068 -0.2756  2.2259 -0.2204
   81SLPC   H3S 7535   6.678   6.560   1.996  2.1350  1.2281  2.0289
   81SLPC   C24 7536   6.739   6.512   2.205  0.1206 -0.3727 -0.2735
   81SLPC   H4R 7537   6.657   6.567   2.257  1.8947  0.3887  1.8551
   81SLPC   H4S 7538   6.824   6.583   2.200  0.9381 -1.4138 -2.4145
   81SLPC   C25 7539   6.787   6.389   2.289  0.4777  0.5953 -0.5168
   81SLPC   H5R 7540   6.876   6.350   2.235  0.3120  0.8459 -0.9744
   81SLPC   H5S 7541   6.709   6.311   2.293  0.7763  0.2801 -0.7428
   81SLPC   C26 7542   6.849   6.423   2.421 -0.4807  0.0575  0.3725
   81SLPC   H6R 7543   6.948   6.473   2.408  0.7929 -1.9318  1.6835
   81SLPC   H6S 7544   6.869   6.328   2.475  1.2699  0.6097  0.7584
   81SLPC   C27 7545   6.764   6.516   2.518  0.0870 -0.4965 -0.1631
   81SLPC   H7R 7546   6.665   6.467   2.518 -0.8108  1.2551 -0.5131
   81SLPC   H7S 7547   6.761   6.613   2.463  0.3884  0.2287  1.0755
   81SLPC   C28 7548   6.838   6.522   2.659 -1.3398 -0.1751  0.7965
   81SLPC   H8R 7549   6.911   6.605   2.646 -2.3676  1.1822  3.2213
   81SLPC   H8S 7550   6.900   6.431   2.678 -1.3037 -0.5407 -0.9174
   81SLPC   C29 7551   6.746   6.560   2.770  0.5181 -0.0773  0.2989
   81SLPC   H9R 7552   6.647   6.584   2.728 -0.3286 -1.5162  1.3891
   81SLPC  C210 7553   6.768   6.543   2.901 -0.2630 -0.2827 -0.7177
   81SLPC  H10R 7554   6.704   6.590   2.977  1.3337 -0.4852  0.7989
   81SLPC  C211 7555   6.902   6.496   2.960  0.0277 -0.7629 -0.1011
   81SLPC  H11R 7556   6.982   6.503   2.884 -0.0507  1.8979 -0.0351
   81SLPC  H11S 7557   6.894   6.390   2.993  2.2924 -1.3069 -1.1030
   81SLPC  C212 7558   6.947   6.597   3.074  0.0803 -0.1255  0.2053
   81SLPC  H12R 7559   6.920   6.702   3.058  0.0285 -0.0963  0.4809
   81SLPC  C213 7560   6.966   6.566   3.202 -0.6518  0.7172  1.0608
   81SLPC  H13R 7561   7.011   6.640   3.269  1.0378  1.3155 -0.6365
   81SLPC  C214 7562   6.989   6.429   3.257 -0.1704  0.1819 -0.3131
   81SLPC  H14R 7563   6.977   6.350   3.180  0.3737  0.9661 -1.2316
   81SLPC  H14S 7564   6.917   6.401   3.336  0.0016 -2.0150 -0.8558
   81SLPC  C215 7565   7.127   6.399   3.307 -0.3364 -0.1263 -0.3863
   81SLPC  H15R 7566   7.199   6.425   3.227  2.4892 -1.2740  1.6334
   81SLPC  H15S 7567   7.154   6.292   3.318  2.3344  0.6228  0.9944
   81SLPC  C216 7568   7.171   6.482   3.429  0.4027  0.5115 -0.2354
   81SLPC  H16R 7569   7.154   6.590   3.412  0.7057  1.1728  3.0074
   81SLPC  H16S 7570   7.279   6.466   3.449  0.1874 -0.7577  0.0422
   81SLPC  C217 7571   7.106   6.435   3.562 -0.8542  0.7308 -0.2133
   81SLPC  H17R 7572   7.128   6.327   3.576 -1.8207  0.6354  0.7530
   81SLPC  H17S 7573   6.998   6.457   3.551 -1.0539  0.3035  0.7985
   81SLPC  C218 7574   7.157   6.496   3.691  0.3123 -0.4619 -0.0857
   81SLPC  H18R 7575   7.129   6.603   3.699 -2.0674 -1.0387 -0.0289
   81SLPC  H18S 7576   7.267   6.485   3.702 -0.0159 -1.8158  2.8698
   81SLPC  H18T 7577   7.123   6.442   3.782 -1.0062 -0.1795 -0.3842
   81SLPC   C33 7578   7.228   6.566   2.289 -0.2239 -1.3646  0.6750
   81SLPC   H3X 7579   7.313   6.582   2.219  0.4404  0.3308  1.7937
   81SLPC   H3Y 7580   7.178   6.469   2.273 -2.1250 -0.3384  0.1908
   81SLPC   C34 7581   7.292   6.583   2.427 -0.4495 -0.0848 -0.3015
   81SLPC   H4X 7582   7.227   6.530   2.500 -0.4523 -0.2824 -0.4483
   81SLPC   H4Y 7583   7.297   6.688   2.464  0.4953 -1.0466  2.6018
   81SLPC   C35 7584   7.435   6.533   2.430  0.8463  0.1423  0.2875
   81SLPC   H5X 7585   7.495   6.594   2.358 -0.0981 -1.5269 -2.0142
   81SLPC   H5Y 7586   7.439   6.431   2.387  0.0492  0.5409 -0.7839
   81SLPC   C36 7587   7.496   6.540   2.571 -0.1594 -0.3321  0.0624
   81SLPC   H6X 7588   7.462   6.630   2.625  2.7331  0.2752  1.0756
   81SLPC   H6Y 7589   7.607   6.541   2.564 -0.2219 -0.6832 -1.4637
   81SLPC   C37 7590   7.451   6.426   2.663 -1.0030  0.0719 -0.4566
   81SLPC   H7X 7591   7.467   6.326   2.617  1.5135  0.2992 -0.2366
   81SLPC   H7Y 7592   7.343   6.433   2.687 -0.7246 -1.7112  1.7845
   81SLPC   C38 7593   7.536   6.430   2.795  0.0374 -0.7834 -0.2767
   81SLPC   H8X 7594   7.517   6.535   2.826  2.5743  0.3334 -2.0702
   81SLPC   H8Y 7595   7.643   6.418   2.768 -0.2089 -0.7278 -1.3506
   81SLPC   C39 7596   7.494   6.329   2.895  0.2520  0.1494  0.3147
   81SLPC   H9X 7597   7.502   6.227   2.852  0.7295  0.9587 -1.6190
   81SLPC   H9Y 7598   7.389   6.352   2.923  0.0958  0.6141 -0.6093
   81SLPC  C310 7599   7.572   6.331   3.031 -0.4367 -0.0216 -0.3290
   81SLPC  H10X 7600   7.572   6.427   3.087 -1.3189  0.0403 -0.4224
   81SLPC  H10Y 7601   7.678   6.314   3.001 -0.5401 -0.1236 -0.6362
   81SLPC  C311 7602   7.527   6.225   3.130 -0.0621 -0.3115 -0.4628
   81SLPC  H11X 7603   7.547   6.128   3.080  2.1880  0.6612 -1.5818
   81SLPC  H11Y 7604   7.420   6.230   3.159  0.1877 -0.2823  0.5040
   81SLPC  C312 7605   7.605   6.212   3.268  0.2956  0.0119  0.2731
   81SLPC  H12X 7606   7.611   6.317   3.302 -1.2058 -0.4215  2.0453
   81SLPC  H12Y 7607   7.713   6.189   3.256 -0.3903 -3.7644  0.0539
   81SLPC  C313 7608   7.547   6.130   3.387  0.3892  0.3190 -0.1004
   81SLPC  H13X 7609   7.622   6.132   3.469  0.9508 -1.6234 -0.5067
   81SLPC  H13Y 7610   7.536   6.025   3.351  0.0714  0.4350 -0.3421
   81SLPC  C314 7611   7.404   6.175   3.427 -0.3993  0.3003  0.7585
   81SLPC  H14X 7612   7.331   6.149   3.348  1.0604  1.0266 -0.9081
   81SLPC  H14Y 7613   7.404   6.285   3.434 -0.1648  0.2144  2.6823
   81SLPC  C315 7614   7.358   6.125   3.564 -0.1391 -0.1809 -0.6760
   81SLPC  H15X 7615   7.297   6.202   3.617 -2.3757 -0.8117 -2.1985
   81SLPC  H15Y 7616   7.445   6.092   3.624 -0.6426  0.0336  0.1909
   81SLPC  C316 7617   7.252   6.022   3.551 -1.3729  0.1174  0.4675
   81SLPC  H16X 7618   7.295   5.944   3.484 -2.3100 -1.2179  1.3688
   81SLPC  H16Y 7619   7.166   6.056   3.490  0.2072  1.2265 -1.2719
   81SLPC  C317 7620   7.218   5.970   3.691 -0.2772 -0.0911  0.7591
   81SLPC  H17X 7621   7.164   6.056   3.735 -0.4948 -0.0608  0.4314
   81SLPC  H17Y 7622   7.312   5.949   3.747 -0.2414  1.3480  1.2753
   81SLPC  C318 7623   7.113   5.853   3.682  0.4850 -0.1188  0.3882
   81SLPC  H18X 7624   7.085   5.836   3.788 -0.9235  1.3318  0.2980
   81SLPC  H18Y 7625   7.134   5.758   3.628 -0.1944  0.5582 -1.1433
   81SLPC  H18Z 7626   7.025   5.900   3.631  0.2218  0.0927  1.0244
   82SLPC     N 7627   5.401   4.978   2.056  1.1060  0.0442  0.3448
   82SLPC   C13 7628   5.545   5.014   2.033  0.4503 -0.1233 -0.0120
   82SLPC  H13A 7629   5.547   5.106   1.976 -0.8357 -0.1928 -0.1917
   82SLPC  H13B 7630   5.593   5.034   2.128 -0.0196  0.1157  0.1762
   82SLPC  H13C 7631   5.595   4.940   1.972  0.2739  0.5174 -0.9515
   82SLPC   C14 7632   5.328   4.967   1.927 -1.3262 -0.0560  1.1528
   82SLPC  H14A 7633   5.331   5.064   1.878  1.3255 -1.3984 -1.6390
   82SLPC  H14B 7634   5.376   4.896   1.862 -1.4315  2.4009 -1.8541
   82SLPC  H14C 7635   5.228   4.928   1.944 -1.3045 -0.2281  0.8959
   82SLPC   C15 7636   5.347   5.088   2.137  0.4617 -0.7557 -0.5444
   82SLPC  H15A 7637   5.242   5.068   2.154  0.8651 -1.5696  1.2251
   82SLPC  H15B 7638   5.389   5.085   2.236 -0.0412  1.2080 -0.2277
   82SLPC  H15C 7639   5.380   5.180   2.091 -1.5874  2.0434  3.0246
   82SLPC   C12 7640   5.380   4.847   2.130  0.0731 -0.0130  0.7677
   82SLPC  H12A 7641   5.435   4.850   2.223  0.6349  0.0455  0.4353
   82SLPC  H12B 7642   5.427   4.772   2.069 -1.7062 -0.1632 -0.4951
   82SLPC   C11 7643   5.242   4.792   2.166  0.2039 -0.0198  0.6696
   82SLPC  H11A 7644   5.176   4.874   2.200 -1.2437  0.2619 -2.4343
   82SLPC  H11B 7645   5.270   4.723   2.249 -0.5194  1.2164  1.9819
   82SLPC     P 7646   5.246   4.606   1.968  0.0004 -0.1270  0.1792
   82SLPC   O13 7647   5.137   4.504   1.963  0.3916  0.1298  0.0144
   82SLPC   O14 7648   5.300   4.657   1.839  0.0199 -0.2749 -0.1846
   82SLPC   O12 7649   5.187   4.730   2.046  0.2416 -0.3027 -0.4895
   82SLPC   O11 7650   5.366   4.561   2.063 -0.4101 -0.1466  0.0594
   82SLPC    C1 7651   5.388   4.427   2.112  0.4070  0.4581 -0.5472
   82SLPC    HA 7652   5.352   4.352   2.039 -1.7214  0.6813  0.2072
   82SLPC    HB 7653   5.497   4.408   2.117  0.3057  0.2390  2.4781
   82SLPC    C2 7654   5.329   4.410   2.253 -0.1099  0.1162 -0.0148
   82SLPC    HS 7655   5.233   4.465   2.258  2.0985  4.4461 -0.4247
   82SLPC   O21 7656   5.426   4.459   2.354 -0.5658 -0.8793 -0.2197
   82SLPC   C21 7657   5.380   4.525   2.457 -0.2119  0.6260  0.4502
   82SLPC   O22 7658   5.259   4.555   2.471 -0.1696 -0.5853  1.1983
   82SLPC   C22 7659   5.491   4.538   2.564  0.4521 -0.6285 -0.0885
   82SLPC   H2R 7660   5.543   4.440   2.572  1.1759 -0.4031 -1.6542
   82SLPC   H2S 7661   5.561   4.612   2.520  0.0029 -0.6340 -0.8271
   82SLPC    C3 7662   5.296   4.263   2.283  0.2206  0.4865  0.2953
   82SLPC    HX 7663   5.392   4.209   2.269 -0.6902 -0.5904 -2.4691
   82SLPC    HY 7664   5.231   4.212   2.208 -0.2886 -1.0060  1.6762
   82SLPC   O31 7665   5.248   4.248   2.413 -0.1308 -0.0709 -0.2875
   82SLPC   C31 7666   5.118   4.280   2.435 -0.1269 -0.3568  0.0479
   82SLPC   O32 7667   5.040   4.305   2.346 -0.7398 -1.0386  0.5782
   82SLPC   C32 7668   5.085   4.248   2.579  0.0863  0.4282  0.1792
   82SLPC   H2X 7669   5.153   4.303   2.648  0.1694 -2.1093  2.3123
   82SLPC   H2Y 7670   5.101   4.140   2.600  2.0867  0.8178  0.8533
   82SLPC   C23 7671   5.441   4.608   2.696 -0.8423 -0.2169 -0.2177
   82SLPC   H3R 7672   5.372   4.693   2.678  1.1986  1.6720  0.5549
   82SLPC   H3S 7673   5.527   4.645   2.754 -0.3066  0.5730 -1.4666
   82SLPC   C24 7674   5.378   4.499   2.791 -0.0330 -0.1788 -0.8183
   82SLPC   H4R 7675   5.458   4.423   2.807  0.9474  0.7320 -1.2687
   82SLPC   H4S 7676   5.295   4.448   2.737 -1.2972  0.4941  0.4147
   82SLPC   C25 7677   5.323   4.546   2.929  0.1529 -0.8309  0.4619
   82SLPC   H5R 7678   5.255   4.468   2.969 -0.7068 -0.8990 -1.0349
   82SLPC   H5S 7679   5.263   4.638   2.910 -1.0821 -1.5337  0.8665
   82SLPC   C26 7680   5.432   4.593   3.026 -0.5397 -0.5154  1.3447
   82SLPC   H6R 7681   5.516   4.651   2.982  0.2322  0.7706  4.2807
   82SLPC   H6S 7682   5.486   4.505   3.067 -1.3951 -0.6903  2.1325
   82SLPC   C27 7683   5.375   4.675   3.142  0.0858 -0.2114 -0.6920
   82SLPC   H7R 7684   5.278   4.630   3.171  0.7237 -1.2396 -0.0751
   82SLPC   H7S 7685   5.348   4.776   3.104 -1.3657 -0.4369 -0.3148
   82SLPC   C28 7686   5.473   4.705   3.260  0.0759  0.1432 -0.0230
   82SLPC   H8R 7687   5.569   4.753   3.231  0.3255  1.9433  3.2504
   82SLPC   H8S 7688   5.498   4.607   3.304 -0.0787  0.2631  0.3350
   82SLPC   C29 7689   5.406   4.797   3.362 -0.4089  0.4126  0.3019
   82SLPC   H9R 7690   5.364   4.891   3.324 -0.0544 -0.2232 -1.7975
   82SLPC  C210 7691   5.391   4.774   3.495 -0.1465 -0.2522 -0.5850
   82SLPC  H10R 7692   5.341   4.854   3.552 -0.6389 -0.1058 -1.2210
   82SLPC  C211 7693   5.429   4.649   3.569 -0.2190 -0.2330 -0.2338
   82SLPC  H11R 7694   5.513   4.607   3.511 -0.0241  2.8721 -2.4496
   82SLPC  H11S 7695   5.341   4.582   3.576 -1.7092  1.8169  2.7377
   82SLPC  C212 7696   5.492   4.674   3.707  0.0325  0.3898  0.4520
   82SLPC  H12R 7697   5.590   4.725   3.705 -0.0297  0.4966 -0.4299
   82SLPC  C213 7698   5.448   4.637   3.832  0.1715  0.6877  0.3361
   82SLPC  H13R 7699   5.513   4.654   3.919 -0.5441 -1.2376  1.2924
   82SLPC  C214 7700   5.309   4.573   3.859  0.2409 -0.1653 -0.3487
   82SLPC  H14R 7701   5.332   4.470   3.892 -0.5150  0.2221  1.5494
   82SLPC  H14S 7702   5.243   4.573   3.770  0.6797 -0.8521 -0.6744
   82SLPC  C215 7703   5.232   4.638   3.979  0.6932  0.0335 -0.0711
   82SLPC  H15R 7704   5.278   4.607   4.075  0.1867  2.9078  1.2095
   82SLPC  H15S 7705   5.131   4.591   3.969  1.7707 -2.2623 -0.7724
   82SLPC  C216 7706   5.224   4.793   3.978  0.6420 -0.7058  0.5503
   82SLPC  H16R 7707   5.203   4.832   3.875 -1.5321 -1.0361  0.8147
   82SLPC  H16S 7708   5.324   4.830   4.006 -0.8455  2.0077  2.7664
   82SLPC  C217 7709   5.130   4.858   4.080  0.1213 -0.2056  0.1929
   82SLPC  H17R 7710   5.031   4.812   4.059 -0.1544  0.4493  0.0259
   82SLPC  H17S 7711   5.115   4.965   4.054  0.0653 -0.4293 -0.7243
   82SLPC  C218 7712   5.162   4.843   4.232  0.2905  0.0770 -0.0141
   82SLPC  H18R 7713   5.092   4.900   4.296  1.5194 -1.1314  2.5579
   82SLPC  H18S 7714   5.268   4.868   4.252  0.4025 -0.6329  0.3115
   82SLPC  H18T 7715   5.145   4.735   4.252 -0.8251  0.0521 -0.9302
   82SLPC   C33 7716   4.940   4.286   2.619  0.3186  0.7813 -0.3853
   82SLPC   H3X 7717   4.874   4.219   2.560 -0.0471 -0.2457  1.1244
   82SLPC   H3Y 7718   4.920   4.389   2.584 -0.5669  0.3302 -1.2626
   82SLPC   C34 7719   4.915   4.283   2.775  0.3003  0.2415 -0.3730
   82SLPC   H4X 7720   4.967   4.192   2.811  0.1906  0.4918  0.4280
   82SLPC   H4Y 7721   4.805   4.282   2.789  0.4010 -1.0352  0.5281
   82SLPC   C35 7722   4.961   4.409   2.846  0.1919  0.2014 -0.2830
   82SLPC   H5X 7723   4.945   4.501   2.786 -1.4351  0.2079  0.1014
   82SLPC   H5Y 7724   5.070   4.396   2.866 -0.0899 -2.3766 -0.0422
   82SLPC   C36 7725   4.903   4.431   2.985  0.4501  0.1930 -0.5486
   82SLPC   H6X 7726   4.812   4.369   2.990  1.6485 -1.6047  0.0391
   82SLPC   H6Y 7727   4.863   4.535   2.992 -1.1368 -0.4627  0.7316
   82SLPC   C37 7728   5.004   4.394   3.100  0.6702 -0.3911 -0.1348
   82SLPC   H7X 7729   5.087   4.465   3.082  0.3079  0.1237  0.1797
   82SLPC   H7Y 7730   5.045   4.293   3.083  2.1155 -0.1039  1.3953
   82SLPC   C38 7731   4.944   4.412   3.240 -0.1337 -0.2574 -0.4086
   82SLPC   H8X 7732   4.889   4.508   3.243  0.8308  0.4017  4.8132
   82SLPC   H8Y 7733   5.025   4.413   3.316  0.1364 -2.6496 -0.5868
   82SLPC   C39 7734   4.864   4.291   3.281  0.6671  0.6082 -0.2937
   82SLPC   H9X 7735   4.919   4.207   3.328 -1.0637 -0.2727  0.2451
   82SLPC   H9Y 7736   4.822   4.243   3.190  0.4172  0.5595 -0.1516
   82SLPC  C310 7737   4.744   4.332   3.374 -0.2441  0.6260 -0.1748
   82SLPC  H10X 7738   4.682   4.407   3.320  0.0851  1.0917  0.0915
   82SLPC  H10Y 7739   4.782   4.378   3.467 -0.1439 -0.9808  0.6141
   82SLPC  C311 7740   4.658   4.212   3.409  0.7709 -0.1705 -0.1105
   82SLPC  H11X 7741   4.659   4.144   3.322  2.5795  1.3588 -1.3893
   82SLPC  H11Y 7742   4.551   4.236   3.427  0.5961  0.2198 -1.6085
   82SLPC  C312 7743   4.712   4.124   3.523 -0.2280  0.2928  0.0233
   82SLPC  H12X 7744   4.699   4.181   3.618  1.3489 -3.1799  2.5337
   82SLPC  H12Y 7745   4.823   4.118   3.520 -0.2845 -2.1779  0.6766
   82SLPC  C313 7746   4.642   3.987   3.544  0.2165 -0.3156 -0.3438
   82SLPC  H13X 7747   4.651   3.926   3.451  0.9705  1.8825 -1.8017
   82SLPC  H13Y 7748   4.534   4.002   3.562  0.0979  1.0100 -1.8974
   82SLPC  C314 7749   4.699   3.924   3.667  0.8298  0.2487 -0.2179
   82SLPC  H14X 7750   4.704   4.006   3.742 -1.7279  1.5474 -1.3562
   82SLPC  H14Y 7751   4.803   3.889   3.653  0.0308 -2.6694  0.5122
   82SLPC  C315 7752   4.607   3.822   3.736  0.2866  0.0036 -0.4497
   82SLPC  H15X 7753   4.524   3.793   3.669 -0.0333  2.0816 -1.0210
   82SLPC  H15Y 7754   4.562   3.877   3.821 -0.1559 -1.3268  0.2068
   82SLPC  C316 7755   4.689   3.704   3.788 -0.1714  0.3746  0.3668
   82SLPC  H16X 7756   4.781   3.737   3.838  0.9957 -1.5665 -0.3563
   82SLPC  H16Y 7757   4.711   3.634   3.704 -0.8649 -2.1831  2.1670
   82SLPC  C317 7758   4.610   3.614   3.894 -0.3145  0.5753  0.1263
   82SLPC  H17X 7759   4.508   3.583   3.861 -0.1148 -1.2582  1.0996
   82SLPC  H17Y 7760   4.601   3.669   3.990  2.0540 -1.0359  1.3561
   82SLPC  C318 7761   4.701   3.489   3.926 -0.5655  0.2882  0.1732
   82SLPC  H18X 7762   4.774   3.513   4.006  2.6654  0.3015 -2.5400
   82SLPC  H18Y 7763   4.755   3.448   3.839 -1.2013 -1.8446  0.7299
   82SLPC  H18Z 7764   4.639   3.410   3.973 -2.2114  0.8414 -0.9900
   83SLPC     N 7765   5.864   6.349   1.213 -0.6666  0.3557  0.1967
   83SLPC   C13 7766   5.867   6.491   1.170  0.1567 -0.5575  0.0244
   83SLPC  H13A 7767   5.812   6.505   1.078 -1.7159  0.6793  1.2728
   83SLPC  H13B 7768   5.814   6.545   1.247 -1.5562 -2.0051 -0.0967
   83SLPC  H13C 7769   5.964   6.539   1.169 -0.5869  1.0046 -0.8197
   83SLPC   C14 7770   5.947   6.262   1.117  0.2419 -0.3188 -0.3731
   83SLPC  H14A 7771   5.944   6.161   1.154  1.8891  0.5313  2.3819
   83SLPC  H14B 7772   5.908   6.259   1.016  0.5579 -1.3503 -0.4701
   83SLPC  H14C 7773   6.052   6.286   1.122  0.1513  1.7636 -4.2702
   83SLPC   C15 7774   5.723   6.299   1.205 -1.0590 -0.6107 -0.2500
   83SLPC  H15A 7775   5.686   6.316   1.105 -1.5840 -1.1069 -0.1447
   83SLPC  H15B 7776   5.716   6.193   1.223 -0.5309 -0.4888  0.7449
   83SLPC  H15C 7777   5.664   6.362   1.270  0.8285 -0.4181  1.4079
   83SLPC   C12 7778   5.906   6.340   1.355  0.8345 -0.1844 -0.0342
   83SLPC  H12A 7779   5.850   6.411   1.414 -0.0010 -0.7420 -0.1433
   83SLPC  H12B 7780   6.010   6.367   1.367  0.5923  0.2306  1.1941
   83SLPC   C11 7781   5.906   6.199   1.414 -0.0427 -0.7436 -0.0047
   83SLPC  H11A 7782   5.811   6.142   1.413 -0.0165 -0.9006  2.0180
   83SLPC  H11B 7783   5.923   6.215   1.523  0.5546 -0.6058 -0.1159
   83SLPC     P 7784   6.158   6.144   1.391 -0.1850 -0.1573  0.1500
   83SLPC   O13 7785   6.237   6.046   1.312  0.4506  0.0240  0.9225
   83SLPC   O14 7786   6.194   6.286   1.369  0.2179  0.3643  0.5540
   83SLPC   O12 7787   6.006   6.121   1.356  0.4566 -0.3566  0.2441
   83SLPC   O11 7788   6.157   6.107   1.541  0.0080  0.3153 -0.2557
   83SLPC    C1 7789   6.159   5.967   1.587  0.0030  0.2860 -0.1344
   83SLPC    HA 7790   6.057   5.930   1.611  0.9745 -3.6999 -1.3705
   83SLPC    HB 7791   6.201   5.894   1.515 -0.1003 -0.7519  0.8249
   83SLPC    C2 7792   6.244   5.947   1.715  0.0844 -0.2453 -0.2266
   83SLPC    HS 7793   6.267   5.838   1.724  2.3126  0.2302  0.4742
   83SLPC   O21 7794   6.180   6.007   1.827  0.8489 -0.1138  0.3668
   83SLPC   C21 7795   6.107   5.911   1.894 -0.7120 -1.1165 -0.8802
   83SLPC   O22 7796   6.087   5.801   1.850 -0.0726 -0.2562 -0.4368
   83SLPC   C22 7797   6.077   5.951   2.033  0.0213  0.1868  0.0775
   83SLPC   H2R 7798   6.139   6.036   2.068 -0.5230  0.8395 -0.5165
   83SLPC   H2S 7799   5.970   5.982   2.043 -0.1986 -0.9392  1.4640
   83SLPC    C3 7800   6.383   6.005   1.698 -0.3064  0.5890 -0.1896
   83SLPC    HX 7801   6.378   6.109   1.659 -0.9564  0.4585 -0.4727
   83SLPC    HY 7802   6.436   5.945   1.622  0.7390  0.5238  0.5753
   83SLPC   O31 7803   6.452   5.979   1.833  0.1131  0.0369 -0.1400
   83SLPC   C31 7804   6.487   6.084   1.897  0.2759 -0.2138 -0.0397
   83SLPC   O32 7805   6.482   6.204   1.863 -0.3730  0.4915  0.3013
   83SLPC   C32 7806   6.524   6.029   2.037 -0.4771  0.4745  0.7261
   83SLPC   H2X 7807   6.632   6.005   2.030 -0.0437  1.9786  1.6261
   83SLPC   H2Y 7808   6.464   5.938   2.059  0.6314 -0.6701 -0.7901
   83SLPC   C23 7809   6.084   5.840   2.134  0.1038  0.2148 -0.1259
   83SLPC   H3R 7810   6.188   5.820   2.167  0.2542 -0.0094 -0.7195
   83SLPC   H3S 7811   6.047   5.743   2.094  0.1089  0.4725 -0.7654
   83SLPC   C24 7812   5.992   5.879   2.257  0.1865  0.1600 -0.6407
   83SLPC   H4R 7813   5.977   5.788   2.319 -1.2699 -0.0583 -1.2748
   83SLPC   H4S 7814   5.892   5.909   2.219  0.6226  2.9062  0.1916
   83SLPC   C25 7815   6.054   5.994   2.345  0.6867  0.0074 -0.0368
   83SLPC   H5R 7816   6.054   6.087   2.284  0.5076 -0.4531 -0.7491
   83SLPC   H5S 7817   6.159   5.963   2.363  1.2387  2.5971  1.8502
   83SLPC   C26 7818   5.967   6.030   2.472  0.7721 -0.3155 -0.3857
   83SLPC   H6R 7819   5.973   5.939   2.535  0.1034  0.3176  0.6182
   83SLPC   H6S 7820   5.869   6.043   2.420  1.2301 -4.3257 -2.6389
   83SLPC   C27 7821   6.012   6.155   2.550 -0.2367 -0.5902 -0.6069
   83SLPC   H7R 7822   6.012   6.243   2.483 -1.0135 -0.5344 -0.5375
   83SLPC   H7S 7823   6.112   6.133   2.594 -0.5857  0.2284  0.6540
   83SLPC   C28 7824   5.914   6.170   2.661  0.1509 -0.0117 -0.1700
   83SLPC   H8R 7825   5.910   6.077   2.722 -2.5799  0.5326  0.6047
   83SLPC   H8S 7826   5.819   6.183   2.606 -0.2154 -2.7544 -0.2929
   83SLPC   C29 7827   5.949   6.288   2.751 -0.1960 -0.3085  0.1463
   83SLPC   H9R 7828   5.947   6.391   2.713  0.6514  0.4964  2.1200
   83SLPC  C210 7829   5.981   6.276   2.884 -0.5127  0.3961  0.5558
   83SLPC  H10R 7830   5.976   6.359   2.955  1.4755  0.1546  1.0636
   83SLPC  C211 7831   6.006   6.142   2.950  0.1613  0.7925 -0.2664
   83SLPC  H11R 7832   6.047   6.065   2.880  3.5432  0.0474  2.2619
   83SLPC  H11S 7833   5.907   6.110   2.989 -1.2134  0.1876 -3.7989
   83SLPC  C212 7834   6.125   6.179   3.034  0.0817 -0.1441  0.0833
   83SLPC  H12R 7835   6.216   6.208   2.979  0.8932 -1.4637  0.6765
   83SLPC  C213 7836   6.126   6.191   3.168 -0.0385 -0.1497 -0.7286
   83SLPC  H13R 7837   6.225   6.194   3.216 -0.1578  1.5588 -0.5191
   83SLPC  C214 7838   6.014   6.161   3.261  0.0225  0.2587 -0.3984
   83SLPC  H14R 7839   5.960   6.070   3.229 -4.1190  1.8581  1.3655
   83SLPC  H14S 7840   5.947   6.249   3.273  2.0371  2.1068 -1.7759
   83SLPC  C215 7841   6.071   6.130   3.400  0.0895 -0.5261 -0.2875
   83SLPC  H15R 7842   6.106   6.024   3.400  0.2506 -0.5978  3.5357
   83SLPC  H15S 7843   5.984   6.124   3.468 -0.7229 -0.8163 -1.3218
   83SLPC  C216 7844   6.178   6.225   3.457  0.2453  0.1968 -0.7331
   83SLPC  H16R 7845   6.151   6.332   3.467 -0.2054 -0.0096  0.4337
   83SLPC  H16S 7846   6.272   6.217   3.399  0.0696 -1.7934 -0.8236
   83SLPC  C217 7847   6.212   6.165   3.603  0.0876 -0.5886 -0.7434
   83SLPC  H17R 7848   6.228   6.055   3.605  1.2033 -0.4333  0.2063
   83SLPC  H17S 7849   6.128   6.190   3.671  2.7697  4.7190  1.2001
   83SLPC  C218 7850   6.348   6.212   3.650  1.1487 -0.6598  0.5958
   83SLPC  H18R 7851   6.369   6.164   3.747 -0.3722  0.5888  1.5990
   83SLPC  H18S 7852   6.337   6.321   3.666  1.3705 -0.7214  1.1853
   83SLPC  H18T 7853   6.428   6.181   3.579  1.0609 -0.6152  0.4757
   83SLPC   C33 7854   6.499   6.131   2.145  0.3623  0.3300  0.2706
   83SLPC   H3X 7855   6.395   6.168   2.149  0.2422  0.0311 -0.0642
   83SLPC   H3Y 7856   6.561   6.223   2.139 -0.0694  0.5480 -1.1515
   83SLPC   C34 7857   6.533   6.071   2.285 -0.0919  0.7186 -0.3811
   83SLPC   H4X 7858   6.642   6.060   2.304 -0.0628  0.1669 -0.8341
   83SLPC   H4Y 7859   6.481   5.973   2.292 -0.5547  0.7532 -2.6840
   83SLPC   C35 7860   6.474   6.168   2.393 -0.1191 -0.4118  0.3716
   83SLPC   H5X 7861   6.365   6.181   2.377  0.1500  2.3440  0.1643
   83SLPC   H5Y 7862   6.518   6.270   2.380 -1.7712  0.5126  1.6540
   83SLPC   C36 7863   6.480   6.119   2.531 -0.8176  0.2985 -0.1954
   83SLPC   H6X 7864   6.583   6.102   2.567 -1.3503 -4.3205 -0.2248
   83SLPC   H6Y 7865   6.437   6.017   2.544  0.7127 -0.2916  0.4402
   83SLPC   C37 7866   6.404   6.214   2.630  0.4094 -0.3481  0.5969
   83SLPC   H7X 7867   6.294   6.204   2.611  0.4583  0.1817 -0.0094
   83SLPC   H7Y 7868   6.443   6.315   2.605 -3.1551  0.9853 -0.2992
   83SLPC   C38 7869   6.415   6.187   2.779 -0.0490  0.8569  0.1612
   83SLPC   H8X 7870   6.405   6.080   2.808  2.9355  0.4907  0.2244
   83SLPC   H8Y 7871   6.329   6.241   2.823 -0.7586  0.8589 -1.2080
   83SLPC   C39 7872   6.540   6.262   2.838  0.3971  1.3330  0.6534
   83SLPC   H9X 7873   6.534   6.364   2.795 -0.8425  1.5921  1.3674
   83SLPC   H9Y 7874   6.633   6.211   2.806 -0.4755  1.2531 -2.0505
   83SLPC  C310 7875   6.556   6.270   2.988  0.4193  0.1084  0.3116
   83SLPC  H10X 7876   6.483   6.347   3.019 -1.2670 -0.6906 -1.4504
   83SLPC  H10Y 7877   6.654   6.314   3.016  0.5973 -1.8400  3.2040
   83SLPC  C311 7878   6.527   6.137   3.063  0.9810 -0.5601  1.5994
   83SLPC  H11X 7879   6.592   6.054   3.028  1.4809  0.4485 -0.0062
   83SLPC  H11Y 7880   6.424   6.102   3.039  1.2152 -0.6401  0.6613
   83SLPC  C312 7881   6.529   6.158   3.215 -0.7006  0.5870  1.0000
   83SLPC  H12X 7882   6.480   6.073   3.268  2.8941 -1.7166  0.9865
   83SLPC  H12Y 7883   6.473   6.251   3.236  0.2966  1.3860  0.2091
   83SLPC  C313 7884   6.670   6.152   3.278  0.4375 -0.9044  0.1389
   83SLPC  H13X 7885   6.724   6.237   3.231 -1.4563 -0.8513 -2.1169
   83SLPC  H13Y 7886   6.711   6.055   3.241  0.2887 -1.1583  0.6379
   83SLPC  C314 7887   6.679   6.149   3.430 -0.1049 -0.0982  0.2680
   83SLPC  H14X 7888   6.613   6.069   3.468 -1.2308 -0.1018 -1.5719
   83SLPC  H14Y 7889   6.648   6.248   3.471  1.2868  0.3014  0.4260
   83SLPC  C315 7890   6.820   6.130   3.473 -0.5546 -0.5446 -0.0296
   83SLPC  H15X 7891   6.872   6.217   3.426 -1.7587  0.6660  0.7958
   83SLPC  H15Y 7892   6.865   6.040   3.427  0.0818  0.5456 -1.6518
   83SLPC  C316 7893   6.855   6.126   3.619 -0.3012 -0.3951 -0.9032
   83SLPC  H16X 7894   6.847   6.224   3.671 -1.3858 -0.7581 -0.3467
   83SLPC  H16Y 7895   6.961   6.094   3.629 -0.1458 -0.1262 -1.6602
   83SLPC  C317 7896   6.778   6.019   3.695  0.3309 -0.0448  0.3278
   83SLPC  H17X 7897   6.787   5.918   3.650  1.4686  0.9463 -1.8346
   83SLPC  H17Y 7898   6.670   6.044   3.686  0.0965 -0.8675  0.7836
   83SLPC  C318 7899   6.813   6.013   3.846  0.2409 -0.0198 -0.1548
   83SLPC  H18X 7900   6.916   5.983   3.875  0.1251 -0.1699  0.1094
   83SLPC  H18Y 7901   6.749   5.942   3.904 -1.8786  2.0272  0.1484
   83SLPC  H18Z 7902   6.790   6.117   3.876 -1.0550  0.2568 -1.9470
   84SLPC     N 7903   6.208   2.841   1.587 -0.6209  0.0308  0.0495
   84SLPC   C13 7904   6.278   2.725   1.539  0.2861 -0.0224 -0.1474
   84SLPC  H13A 7905   6.368   2.693   1.590 -0.8499 -1.0699  1.2770
   84SLPC  H13B 7906   6.215   2.638   1.545 -0.1119  0.2907  0.2713
   84SLPC  H13C 7907   6.317   2.737   1.439  3.2494  2.1585  1.0936
   84SLPC   C14 7908   6.063   2.836   1.560  0.4475  0.3212 -0.2929
   84SLPC  H14A 7909   6.012   2.914   1.614  1.4358  0.4468  0.4880
   84SLPC  H14B 7910   6.032   2.823   1.457 -0.7555 -0.9372  0.1948
   84SLPC  H14C 7911   6.026   2.747   1.609 -0.5581  1.4146  1.0111
   84SLPC   C15 7912   6.250   2.961   1.516  0.1382  0.2620 -0.1248
   84SLPC  H15A 7913   6.196   2.965   1.422 -2.5192  2.1608  1.3465
   84SLPC  H15B 7914   6.223   3.052   1.566  1.5229  1.1444 -0.9096
   84SLPC  H15C 7915   6.357   2.970   1.505  0.0418 -0.4108 -2.0924
   84SLPC   C12 7916   6.225   2.847   1.743 -0.0203  0.5380 -0.0782
   84SLPC  H12A 7917   6.174   2.931   1.788  2.0321  0.6617  2.2427
   84SLPC  H12B 7918   6.328   2.858   1.774  0.1284 -0.1591 -0.3185
   84SLPC   C11 7919   6.173   2.726   1.824  0.8748  0.4920 -0.0514
   84SLPC  H11A 7920   6.214   2.702   1.924 -0.2399  0.5274  0.4203
   84SLPC  H11B 7921   6.204   2.632   1.773 -0.3345 -0.6699  1.2727
   84SLPC     P 7922   5.963   2.802   1.950  0.6077 -0.0839  0.6277
   84SLPC   O13 7923   6.000   2.942   1.930  0.3859  0.1202  0.3316
   84SLPC   O14 7924   5.819   2.777   1.940  0.1833 -0.1307  0.2483
   84SLPC   O12 7925   6.030   2.712   1.829 -0.0216  0.1028  0.0204
   84SLPC   O11 7926   6.005   2.749   2.086  0.2495  0.0509  0.1672
   84SLPC    C1 7927   6.026   2.609   2.107 -0.1482  0.4612 -0.5789
   84SLPC    HA 7928   5.962   2.541   2.048 -0.0847 -2.3126  2.2598
   84SLPC    HB 7929   6.135   2.585   2.098 -0.3140  0.1838 -2.1028
   84SLPC    C2 7930   5.987   2.563   2.255  0.5838 -0.2368 -0.1607
   84SLPC    HS 7931   5.882   2.581   2.287  1.3926  3.4042  0.9313
   84SLPC   O21 7932   6.068   2.636   2.352  0.4344  0.0731 -0.5116
   84SLPC   C21 7933   6.010   2.730   2.429  0.0274 -0.2916  0.7056
   84SLPC   O22 7934   5.894   2.768   2.422 -0.1475  0.0996  0.1037
   84SLPC   C22 7935   6.114   2.783   2.518  0.0448 -0.0563 -0.6427
   84SLPC   H2R 7936   6.206   2.722   2.512  0.6472  0.9454 -2.5461
   84SLPC   H2S 7937   6.144   2.883   2.479  0.5391 -0.1964 -0.6256
   84SLPC    C3 7938   6.005   2.409   2.263  0.0087  0.0629 -0.1522
   84SLPC    HX 7939   6.114   2.391   2.255 -0.2379 -1.8849  0.3106
   84SLPC    HY 7940   5.948   2.356   2.183 -1.6444  0.6986  0.5653
   84SLPC   O31 7941   5.949   2.366   2.391 -0.1599  0.4469 -0.3442
   84SLPC   C31 7942   6.029   2.360   2.497 -0.0393  0.0631 -0.9735
   84SLPC   O32 7943   6.150   2.365   2.495  0.4436  1.0426  0.1568
   84SLPC   C32 7944   5.945   2.333   2.623 -0.7533  0.0087 -0.1684
   84SLPC   H2X 7945   5.894   2.237   2.602  0.6031 -1.2572  2.0352
   84SLPC   H2Y 7946   5.867   2.412   2.633  0.8175  1.5539  0.4134
   84SLPC   C23 7947   6.073   2.779   2.669  0.0899 -0.5285 -0.5204
   84SLPC   H3R 7948   6.074   2.670   2.692  1.5848 -0.0901  1.9259
   84SLPC   H3S 7949   5.972   2.817   2.694  0.6490 -0.0985  1.2141
   84SLPC   C24 7950   6.171   2.860   2.754  0.0076 -0.1375  0.1646
   84SLPC   H4R 7951   6.182   2.962   2.711 -1.8725 -0.0899 -0.2923
   84SLPC   H4S 7952   6.271   2.811   2.756 -0.2558 -0.6774  1.1546
   84SLPC   C25 7953   6.145   2.887   2.908 -0.4772  0.1231  0.3354
   84SLPC   H5R 7954   6.114   2.792   2.959 -0.8255  0.3479  0.5486
   84SLPC   H5S 7955   6.062   2.960   2.921 -0.8821 -0.2653 -0.0331
   84SLPC   C26 7956   6.267   2.947   2.976 -0.0268 -0.7247 -0.6288
   84SLPC   H6R 7957   6.294   3.044   2.927  0.8817 -0.2406  0.7791
   84SLPC   H6S 7958   6.353   2.877   2.968  0.8821  0.4003 -1.0825
   84SLPC   C27 7959   6.251   2.977   3.131  0.1742  0.7082 -0.2253
   84SLPC   H7R 7960   6.349   2.998   3.177  1.6898 -1.6635 -2.0724
   84SLPC   H7S 7961   6.217   2.879   3.171  0.0477  0.8011 -0.1075
   84SLPC   C28 7962   6.156   3.092   3.172  0.3945  0.0391 -0.3340
   84SLPC   H8R 7963   6.111   3.126   3.076  0.9977 -0.0844 -0.6646
   84SLPC   H8S 7964   6.216   3.167   3.228 -1.9480  0.2818  2.1211
   84SLPC   C29 7965   6.046   3.034   3.261 -0.0193  0.4202  0.2913
   84SLPC   H9R 7966   5.965   2.981   3.208 -0.5195  0.8924  0.5699
   84SLPC  C210 7967   6.032   3.065   3.388 -0.1733 -0.6935 -0.2531
   84SLPC  H10R 7968   5.943   3.021   3.436  0.2125 -1.4855 -0.2523
   84SLPC  C211 7969   6.116   3.155   3.473  0.0174  0.0287  0.2547
   84SLPC  H11R 7970   6.063   3.168   3.570 -0.9827 -0.6769 -0.1888
   84SLPC  H11S 7971   6.136   3.258   3.435  0.2444  0.2231  0.8801
   84SLPC  C212 7972   6.253   3.086   3.495 -0.4178  0.0201 -0.0229
   84SLPC  H12R 7973   6.303   3.042   3.407  1.4105  0.3694  0.8199
   84SLPC  C213 7974   6.333   3.070   3.608  0.1733 -0.5766  0.3888
   84SLPC  H13R 7975   6.429   3.017   3.596 -0.1561 -1.4608  1.4825
   84SLPC  C214 7976   6.292   3.117   3.748  0.6104 -0.2848  1.0849
   84SLPC  H14R 7977   6.324   3.040   3.822  0.3416 -1.1148  0.3493
   84SLPC  H14S 7978   6.182   3.107   3.755  0.3745  1.8650  1.1705
   84SLPC  C215 7979   6.331   3.260   3.803  0.3463  0.2454 -0.5177
   84SLPC  H15R 7980   6.293   3.345   3.743  0.4314  0.4496 -0.2851
   84SLPC  H15S 7981   6.441   3.275   3.790  0.4210  0.0754 -0.0817
   84SLPC  C216 7982   6.299   3.285   3.955 -0.2109  0.3844  0.2492
   84SLPC  H16R 7983   6.367   3.362   3.998  0.4608 -0.5205  0.8421
   84SLPC  H16S 7984   6.326   3.195   4.014  0.1967 -0.8795 -1.7739
   84SLPC  C217 7985   6.151   3.295   3.979 -0.8624 -0.5133 -1.0250
   84SLPC  H17R 7986   6.109   3.193   3.970  0.2250 -1.4259  2.4963
   84SLPC  H17S 7987   6.091   3.362   3.914  0.1540  2.2039  0.6449
   84SLPC  C218 7988   6.126   3.361   4.117 -0.1018 -0.2085 -0.3955
   84SLPC  H18R 7989   6.017   3.383   4.120 -0.4096 -1.4680 -1.2390
   84SLPC  H18S 7990   6.189   3.450   4.137  1.3880 -1.4808  0.8155
   84SLPC  H18T 7991   6.144   3.289   4.201 -0.7656  0.6585  0.5180
   84SLPC   C33 7992   6.032   2.307   2.748  0.6082  0.6360 -0.0094
   84SLPC   H3X 7993   6.102   2.392   2.765  1.8943 -0.4500  0.2804
   84SLPC   H3Y 7994   6.095   2.216   2.745  0.9056  0.8715 -1.0161
   84SLPC   C34 7995   5.945   2.299   2.880 -0.2935  0.2658 -0.4679
   84SLPC   H4X 7996   5.870   2.219   2.866 -1.4371  1.1897  0.2538
   84SLPC   H4Y 7997   5.895   2.393   2.910  3.4475  1.9411  1.2346
   84SLPC   C35 7998   6.035   2.266   3.004  0.7542  1.1731  0.1699
   84SLPC   H5X 7999   6.136   2.313   3.001  1.0465  0.5194 -2.1413
   84SLPC   H5Y 8000   6.063   2.158   3.004 -1.4165  0.5384  1.9464
   84SLPC   C36 8001   5.962   2.288   3.140  0.3383  0.3583  0.5930
   84SLPC   H6X 8002   6.028   2.238   3.214 -1.0702 -1.1371  0.8836
   84SLPC   H6Y 8003   5.864   2.237   3.133  1.2442 -1.4553  0.6345
   84SLPC   C37 8004   5.942   2.440   3.169 -0.1033  0.5538 -0.3279
   84SLPC   H7X 8005   5.842   2.466   3.129 -1.1596 -0.0457  1.7940
   84SLPC   H7Y 8006   6.026   2.505   3.138 -0.5141  2.0561  1.5489
   84SLPC   C38 8007   5.954   2.457   3.326 -0.8219 -0.3334  0.4915
   84SLPC   H8X 8008   6.052   2.415   3.357 -1.4703 -3.0789 -0.8943
   84SLPC   H8Y 8009   5.866   2.406   3.369 -1.6757  0.1532 -0.6294
   84SLPC   C39 8010   5.960   2.608   3.353  0.0487  0.6292  0.3283
   84SLPC   H9X 8011   5.876   2.651   3.294  1.7761  0.2194 -2.6347
   84SLPC   H9Y 8012   6.054   2.645   3.308  0.6514  0.9648  1.7983
   84SLPC  C310 8013   5.950   2.648   3.499 -0.3274  0.7170 -0.7364
   84SLPC  H10X 8014   5.852   2.609   3.533 -0.3941  0.1085 -1.5995
   84SLPC  H10Y 8015   5.935   2.758   3.485  0.3517  0.7175 -1.5011
   84SLPC  C311 8016   6.072   2.618   3.591  0.2431 -1.1952 -0.1766
   84SLPC  H11X 8017   6.169   2.667   3.567  0.3028 -0.4642  1.4089
   84SLPC  H11Y 8018   6.074   2.507   3.593 -1.1581 -1.2386 -0.3602
   84SLPC  C312 8019   6.043   2.681   3.731 -0.1764  1.3488  0.3644
   84SLPC  H12X 8020   6.128   2.659   3.800 -0.8903  2.8281  1.7821
   84SLPC  H12Y 8021   5.946   2.647   3.771  0.3350  1.4789  1.7701
   84SLPC  C313 8022   6.039   2.838   3.739  0.5899  0.2641 -0.0603
   84SLPC  H13X 8023   5.952   2.870   3.679 -0.1735  1.5128  1.6304
   84SLPC  H13Y 8024   6.133   2.876   3.695  0.9093  0.6393  0.9248
   84SLPC  C314 8025   6.032   2.885   3.886 -0.2927 -0.2833 -0.3967
   84SLPC  H14X 8026   5.997   2.990   3.889 -4.3810 -1.5015  0.0008
   84SLPC  H14Y 8027   6.132   2.878   3.935 -1.0948  0.6337  1.4830
   84SLPC  C315 8028   5.920   2.821   3.964  0.4222  0.5429  0.8028
   84SLPC  H15X 8029   5.946   2.713   3.953  1.1557  0.6768  1.1291
   84SLPC  H15Y 8030   5.821   2.832   3.916 -0.1693 -1.2916  1.4968
   84SLPC  C316 8031   5.889   2.864   4.117 -0.1729 -1.3980 -0.0431
   84SLPC  H16X 8032   5.801   2.802   4.142 -1.4728 -0.3546 -1.7867
   84SLPC  H16Y 8033   5.867   2.973   4.117  2.8755 -0.6847  0.2011
   84SLPC  C317 8034   6.008   2.855   4.211 -0.2076  0.3037  0.4077
   84SLPC  H17X 8035   6.069   2.782   4.154 -0.3943  0.7887 -0.4229
   84SLPC  H17Y 8036   5.979   2.807   4.307 -1.7683 -0.9500 -0.6426
   84SLPC  C318 8037   6.087   2.978   4.235 -0.4862 -0.3099  0.8202
   84SLPC  H18X 8038   6.027   3.054   4.289 -1.3812 -0.9090  0.6925
   84SLPC  H18Y 8039   6.121   3.012   4.134  0.0361 -0.8941  0.7965
   84SLPC  H18Z 8040   6.179   2.963   4.294 -0.2883  0.4759  0.7204
   85SLPC     N 8041   3.774   6.013   1.605 -0.6001 -0.9358 -0.3123
   85SLPC   C13 8042   3.662   5.959   1.519 -0.3046 -0.3488  0.3234
   85SLPC  H13A 8043   3.603   5.894   1.581  0.8859 -1.9449 -0.1503
   85SLPC  H13B 8044   3.597   6.045   1.503  0.6824  0.4732  0.6265
   85SLPC  H13C 8045   3.694   5.932   1.419 -0.9100 -1.2473  0.3575
   85SLPC   C14 8046   3.847   6.124   1.539  0.4228  0.3018 -0.2791
   85SLPC  H14A 8047   3.953   6.104   1.547  0.3634 -0.7160 -1.6380
   85SLPC  H14B 8048   3.831   6.121   1.433  3.8280 -1.1021 -0.8825
   85SLPC  H14C 8049   3.810   6.213   1.587  0.3901 -0.0975  0.4581
   85SLPC   C15 8050   3.864   5.898   1.623 -0.6530 -0.3094  0.6253
   85SLPC  H15A 8051   3.860   5.840   1.532 -0.9487  1.4275 -0.5207
   85SLPC  H15B 8052   3.963   5.919   1.659 -0.5415  0.1900  0.0552
   85SLPC  H15C 8053   3.813   5.831   1.690  0.4848 -1.1175  0.7096
   85SLPC   C12 8054   3.716   6.061   1.739 -0.0068  0.8141  0.1271
   85SLPC  H12A 8055   3.796   6.102   1.800  0.1085  0.0138  0.5282
   85SLPC  H12B 8056   3.676   5.974   1.788  0.7498  1.0080  1.1264
   85SLPC   C11 8057   3.597   6.160   1.736  0.4634  0.0448 -0.2631
   85SLPC  H11A 8058   3.609   6.229   1.649  2.0094  0.9457  0.6183
   85SLPC  H11B 8059   3.584   6.225   1.825 -0.7517 -1.2510  0.5352
   85SLPC     P 8060   3.392   6.016   1.831 -0.0109  0.4520 -0.2733
   85SLPC   O13 8061   3.325   6.121   1.911 -0.0148 -0.0167 -0.2382
   85SLPC   O14 8062   3.304   5.918   1.766  0.0999  0.3222 -0.3102
   85SLPC   O12 8063   3.478   6.082   1.719  0.2270  0.7524  0.2119
   85SLPC   O11 8064   3.507   5.944   1.914  0.5834  0.5622 -0.4600
   85SLPC    C1 8065   3.540   5.801   1.906 -0.2886  0.2583 -0.2665
   85SLPC    HA 8066   3.518   5.757   1.807  3.6226 -0.4812 -0.9932
   85SLPC    HB 8067   3.651   5.795   1.907 -0.2698  0.6131  0.4424
   85SLPC    C2 8068   3.471   5.712   2.016  0.2212  0.8868  0.0277
   85SLPC    HS 8069   3.360   5.718   2.008 -0.2965 -0.1880  4.2095
   85SLPC   O21 8070   3.510   5.747   2.148 -0.1187 -0.3893  0.1841
   85SLPC   C21 8071   3.427   5.837   2.205  0.5425  0.5742  0.0583
   85SLPC   O22 8072   3.326   5.882   2.154  0.2539 -0.0137 -0.6642
   85SLPC   C22 8073   3.474   5.873   2.347  0.0653 -0.5089 -0.1723
   85SLPC   H2R 8074   3.501   5.775   2.391  0.4223 -1.2810 -2.0011
   85SLPC   H2S 8075   3.560   5.942   2.340 -2.0886  2.3451 -0.6249
   85SLPC    C3 8076   3.497   5.561   1.996  0.2179  0.3276  0.9085
   85SLPC    HX 8077   3.606   5.549   2.018  0.0923 -1.5285  0.6462
   85SLPC    HY 8078   3.472   5.532   1.892  1.1426 -0.0033  0.7705
   85SLPC   O31 8079   3.412   5.473   2.079 -0.5979 -0.2858  0.0332
   85SLPC   C31 8080   3.282   5.454   2.034  0.3315 -0.5341  1.0603
   85SLPC   O32 8081   3.242   5.508   1.929 -0.2863  0.4240 -0.5028
   85SLPC   C32 8082   3.207   5.347   2.114  0.3254 -0.1030 -0.8722
   85SLPC   H2X 8083   3.274   5.266   2.150 -1.6246 -1.6888 -0.6053
   85SLPC   H2Y 8084   3.133   5.302   2.045 -0.8323 -1.0951  0.9278
   85SLPC   C23 8085   3.358   5.930   2.421  1.1240  0.0321 -0.8585
   85SLPC   H3R 8086   3.266   5.868   2.425  1.4805 -0.4508  2.4684
   85SLPC   H3S 8087   3.332   6.032   2.386 -1.4276 -0.5896 -0.9173
   85SLPC   C24 8088   3.403   5.944   2.568  0.1069 -0.0679  0.4343
   85SLPC   H4R 8089   3.495   6.006   2.572 -0.3732  0.7925 -1.0355
   85SLPC   H4S 8090   3.436   5.842   2.597  0.3917 -0.0386  0.2256
   85SLPC   C25 8091   3.296   5.999   2.666 -0.8704 -0.2538 -0.3279
   85SLPC   H5R 8092   3.261   6.097   2.626  0.3891  0.4565  0.2443
   85SLPC   H5S 8093   3.213   5.926   2.662  1.5299 -3.1289 -1.6383
   85SLPC   C26 8094   3.352   6.032   2.813  0.2024 -0.3607  0.2149
   85SLPC   H6R 8095   3.436   5.966   2.844  0.8460  0.5068  0.3540
   85SLPC   H6S 8096   3.275   6.033   2.894  2.9765 -1.7919  3.0764
   85SLPC   C27 8097   3.402   6.175   2.825  0.0619 -0.1591  0.1116
   85SLPC   H7R 8098   3.317   6.247   2.811  0.5281  0.1455 -1.3030
   85SLPC   H7S 8099   3.463   6.183   2.733  0.2802 -2.2503  0.0272
   85SLPC   C28 8100   3.494   6.200   2.939  0.3831 -0.1319 -0.3820
   85SLPC   H8R 8101   3.542   6.297   2.916 -1.2414  0.6125 -0.7621
   85SLPC   H8S 8102   3.566   6.115   2.946 -2.5600 -2.7408  0.4906
   85SLPC   C29 8103   3.427   6.215   3.074  0.0672 -0.4419  0.8965
   85SLPC   H9R 8104   3.372   6.123   3.101  1.1347 -1.6393 -0.7563
   85SLPC  C210 8105   3.423   6.334   3.139 -1.0520 -0.6911 -0.2765
   85SLPC  H10R 8106   3.383   6.334   3.241  1.2917 -2.0127  0.7348
   85SLPC  C211 8107   3.503   6.459   3.121 -0.2030  0.1381  0.2209
   85SLPC  H11R 8108   3.578   6.463   3.038 -2.3987  4.2853 -1.8749
   85SLPC  H11S 8109   3.562   6.490   3.210  1.5772 -2.2076 -0.0143
   85SLPC  C212 8110   3.407   6.567   3.072 -0.6629 -0.1920 -0.3804
   85SLPC  H12R 8111   3.343   6.529   2.991 -1.0259 -1.9219  0.6566
   85SLPC  C213 8112   3.394   6.697   3.117  0.0104  0.6643 -0.1728
   85SLPC  H13R 8113   3.309   6.759   3.086  1.6978  2.9734 -0.3968
   85SLPC  C214 8114   3.474   6.754   3.241  0.5930  0.0252  0.5265
   85SLPC  H14R 8115   3.508   6.858   3.225  0.3480 -0.0644 -0.6716
   85SLPC  H14S 8116   3.568   6.697   3.258 -0.1395 -1.1999  0.6276
   85SLPC  C215 8117   3.398   6.762   3.380 -0.4380  0.5041  0.3377
   85SLPC  H15R 8118   3.399   6.654   3.404  3.6026  0.0417 -1.0694
   85SLPC  H15S 8119   3.293   6.791   3.357 -0.3921  0.0670 -0.4492
   85SLPC  C216 8120   3.469   6.854   3.481 -0.7332 -0.1954  0.2321
   85SLPC  H16R 8121   3.471   6.961   3.449 -1.3131 -0.3517 -0.3572
   85SLPC  H16S 8122   3.571   6.812   3.474 -1.5767 -2.0424 -3.3263
   85SLPC  C217 8123   3.425   6.832   3.625  0.5529 -0.0599 -0.1566
   85SLPC  H17R 8124   3.454   6.729   3.654  1.2695 -0.0080 -0.6484
   85SLPC  H17S 8125   3.315   6.837   3.613  0.7444  1.8090 -1.6650
   85SLPC  C218 8126   3.489   6.926   3.730  0.6549 -0.5359 -0.0866
   85SLPC  H18R 8127   3.468   7.032   3.708  1.8984  0.0687  1.4497
   85SLPC  H18S 8128   3.600   6.915   3.737  0.9538  1.1091 -1.5894
   85SLPC  H18T 8129   3.449   6.905   3.832  1.5567 -1.6351  0.0708
   85SLPC   C33 8130   3.125   5.402   2.231  0.3016 -0.1735  0.1750
   85SLPC   H3X 8131   3.056   5.319   2.256  1.8925 -1.0782  1.8409
   85SLPC   H3Y 8132   3.076   5.500   2.219  1.6578  0.7222  1.5474
   85SLPC   C34 8133   3.214   5.414   2.362  0.0755  0.1132 -0.6871
   85SLPC   H4X 8134   3.284   5.499   2.349 -0.0612  0.7039  1.8185
   85SLPC   H4Y 8135   3.278   5.325   2.375  0.4276  0.4768  0.1629
   85SLPC   C35 8136   3.137   5.446   2.491 -0.2663 -1.0660  0.4392
   85SLPC   H5X 8137   3.070   5.359   2.510 -0.5693 -0.8291  0.4579
   85SLPC   H5Y 8138   3.077   5.538   2.475  0.9093 -0.5086 -0.8860
   85SLPC   C36 8139   3.230   5.472   2.611 -0.3740  0.3034  0.4214
   85SLPC   H6X 8140   3.311   5.543   2.586  0.4577 -0.4310  0.9574
   85SLPC   H6Y 8141   3.273   5.373   2.638 -0.2065 -0.0026 -0.9019
   85SLPC   C37 8142   3.157   5.519   2.734  0.3445 -0.6450 -0.0818
   85SLPC   H7X 8143   3.101   5.439   2.788 -1.0876  1.3015  1.5056
   85SLPC   H7Y 8144   3.091   5.601   2.698  2.7420  2.0324  1.1903
   85SLPC   C38 8145   3.251   5.595   2.831 -0.0773  0.1690  0.1645
   85SLPC   H8X 8146   3.288   5.690   2.785  0.2568 -0.5195 -1.0108
   85SLPC   H8Y 8147   3.337   5.529   2.853 -0.9675 -1.0027  0.1778
   85SLPC   C39 8148   3.191   5.639   2.968 -0.2965  0.2931  0.3182
   85SLPC   H9X 8149   3.170   5.545   3.023  0.4245  0.6431  1.2415
   85SLPC   H9Y 8150   3.100   5.700   2.949  1.0199  1.8303 -1.5396
   85SLPC  C310 8151   3.286   5.724   3.053 -0.6396 -0.0344 -0.2967
   85SLPC  H10X 8152   3.286   5.830   3.022 -3.2974  0.4906  1.1835
   85SLPC  H10Y 8153   3.393   5.692   3.046  0.1365  1.6398  2.2756
   85SLPC  C311 8154   3.235   5.728   3.202 -0.4252 -0.3998  0.3476
   85SLPC  H11X 8155   3.257   5.629   3.249  0.1268 -0.7905 -0.6921
   85SLPC  H11Y 8156   3.126   5.746   3.213 -0.2432 -0.1432  2.2128
   85SLPC  C312 8157   3.305   5.848   3.272 -0.6632  0.3149 -0.2889
   85SLPC  H12X 8158   3.261   5.945   3.240  0.1619  0.8329  0.1205
   85SLPC  H12Y 8159   3.412   5.848   3.244 -0.9025 -2.6511 -1.4609
   85SLPC  C313 8160   3.294   5.855   3.423 -0.4937 -0.5835 -0.0818
   85SLPC  H13X 8161   3.341   5.945   3.468 -2.5965  1.0986 -1.0544
   85SLPC  H13Y 8162   3.331   5.762   3.472 -1.6799 -0.2385  1.5423
   85SLPC  C314 8163   3.147   5.864   3.455 -0.5256  0.6247  0.7252
   85SLPC  H14X 8164   3.096   5.769   3.430 -1.3290  1.4727 -1.0244
   85SLPC  H14Y 8165   3.104   5.945   3.392  2.6830  0.9024 -1.2992
   85SLPC  C315 8166   3.113   5.896   3.601 -0.2796 -0.1951  0.4491
   85SLPC  H15X 8167   3.176   5.985   3.622 -0.1274  1.1233 -4.3849
   85SLPC  H15Y 8168   3.147   5.808   3.659 -0.5083  0.1315  1.0837
   85SLPC  C316 8169   2.970   5.935   3.621 -0.1305  0.1856 -0.8037
   85SLPC  H16X 8170   2.895   5.859   3.592  0.2813  0.7395 -3.6211
   85SLPC  H16Y 8171   2.941   6.024   3.562 -0.4411  1.4420  1.1219
   85SLPC  C317 8172   2.938   5.976   3.772 -0.2813  0.5416 -0.8924
   85SLPC  H17X 8173   2.827   5.979   3.775 -0.3443  0.3195 -2.2120
   85SLPC  H17Y 8174   2.976   6.077   3.797  1.7341 -0.3864  0.0245
   85SLPC  C318 8175   2.977   5.879   3.886  0.6849 -0.0307 -0.3522
   85SLPC  H18X 8176   2.924   5.783   3.868 -3.0413  1.7754 -0.0778
   85SLPC  H18Y 8177   2.945   5.910   3.988  0.3482 -1.2274 -0.0840
   85SLPC  H18Z 8178   3.084   5.851   3.883  1.2397  1.7945  0.4879
   86SLPC     N 8179   5.211   4.272   1.669 -0.4803 -0.3377 -0.5781
   86SLPC   C13 8180   5.083   4.334   1.615 -0.0732 -0.2116 -0.2489
   86SLPC  H13A 8181   5.048   4.428   1.656  1.4849  0.0809  0.4876
   86SLPC  H13B 8182   5.104   4.364   1.513 -3.6849 -0.2359 -1.1469
   86SLPC  H13C 8183   5.005   4.260   1.607 -0.2576  0.0888 -1.5386
   86SLPC   C14 8184   5.310   4.381   1.684  0.3301 -0.2696 -0.2835
   86SLPC  H14A 8185   5.398   4.340   1.732 -2.6343 -3.8891  2.7324
   86SLPC  H14B 8186   5.338   4.423   1.588 -1.3823 -0.1711 -0.7705
   86SLPC  H14C 8187   5.280   4.463   1.748 -0.7496  1.6275 -3.0000
   86SLPC   C15 8188   5.260   4.176   1.565  0.1636 -0.7006  0.5850
   86SLPC  H15A 8189   5.185   4.106   1.531  0.2336 -0.0689 -0.9450
   86SLPC  H15B 8190   5.304   4.230   1.482 -2.6623 -1.2031 -1.4142
   86SLPC  H15C 8191   5.345   4.121   1.600  1.4405  1.0432  0.3532
   86SLPC   C12 8192   5.172   4.213   1.798 -0.0227  0.2790 -0.1205
   86SLPC  H12A 8193   5.097   4.138   1.778 -0.7412  1.4105 -2.0294
   86SLPC  H12B 8194   5.121   4.289   1.856  0.4418 -0.0456  0.7242
   86SLPC   C11 8195   5.282   4.148   1.884 -0.2833 -0.5934 -0.3541
   86SLPC  H11A 8196   5.253   4.159   1.991  0.2267  0.9782 -0.3503
   86SLPC  H11B 8197   5.374   4.209   1.881 -1.8083  1.8762  0.0150
   86SLPC     P 8198   5.267   3.895   1.933 -0.0447 -0.0334  0.3180
   86SLPC   O13 8199   5.120   3.902   1.946  0.6427 -0.5378 -0.2170
   86SLPC   O14 8200   5.319   3.771   1.864 -0.7391 -0.6349  0.0469
   86SLPC   O12 8201   5.302   4.014   1.840  0.3182 -0.3585  0.4038
   86SLPC   O11 8202   5.346   3.929   2.066  0.3247 -0.7013 -0.4638
   86SLPC    C1 8203   5.480   3.979   2.054 -0.5800  0.3286 -0.3695
   86SLPC    HA 8204   5.535   3.920   1.978 -1.3101  0.6562 -1.1704
   86SLPC    HB 8205   5.473   4.086   2.026 -3.0358 -0.1620 -1.9224
   86SLPC    C2 8206   5.572   3.956   2.171  0.1610 -0.1223 -0.0615
   86SLPC    HS 8207   5.592   3.846   2.180  0.7190  0.0733  1.5397
   86SLPC   O21 8208   5.514   4.008   2.292  0.4671  0.2934 -0.4811
   86SLPC   C21 8209   5.568   3.953   2.405 -0.1014  0.0695  0.6780
   86SLPC   O22 8210   5.641   3.856   2.402  0.8175  0.0608 -0.7614
   86SLPC   C22 8211   5.528   4.036   2.530  0.7905  0.2555  0.0235
   86SLPC   H2R 8212   5.608   4.114   2.537  2.2706 -1.1500 -0.6478
   86SLPC   H2S 8213   5.431   4.082   2.501  1.1500  0.3480 -1.0708
   86SLPC    C3 8214   5.705   4.034   2.147  0.0265 -0.6264  0.4665
   86SLPC    HX 8215   5.687   4.142   2.162  4.1873  0.2777 -0.0181
   86SLPC    HY 8216   5.733   4.024   2.040  0.1396  0.3271  0.3979
   86SLPC   O31 8217   5.804   4.005   2.245 -0.2045  0.5580 -0.2021
   86SLPC   C31 8218   5.864   3.889   2.229  0.6126  0.4804  0.3206
   86SLPC   O32 8219   5.840   3.803   2.143 -0.1547  0.0904  0.0982
   86SLPC   C32 8220   5.966   3.871   2.333 -0.1223  0.0773  0.2599
   86SLPC   H2X 8221   5.993   3.764   2.322  2.5756  0.7878 -0.9314
   86SLPC   H2Y 8222   5.937   3.895   2.437  1.9431 -1.5499  1.2857
   86SLPC   C23 8223   5.515   3.963   2.675 -0.2764 -0.6436  0.9346
   86SLPC   H3R 8224   5.595   3.890   2.696  0.1245 -0.5167 -0.0872
   86SLPC   H3S 8225   5.424   3.899   2.673 -1.6730  1.2668  0.8054
   86SLPC   C24 8226   5.489   4.074   2.781 -0.3775 -0.3760  0.7355
   86SLPC   H4R 8227   5.433   4.160   2.739  1.0094  0.1761 -0.0755
   86SLPC   H4S 8228   5.590   4.112   2.810  0.5048 -2.0822  0.0021
   86SLPC   C25 8229   5.418   4.031   2.911 -0.4025  0.2087 -0.5148
   86SLPC   H5R 8230   5.457   3.931   2.942 -1.7164  0.0259  0.6919
   86SLPC   H5S 8231   5.309   4.008   2.900 -0.2193 -0.8797 -0.1872
   86SLPC   C26 8232   5.428   4.149   3.019  0.4300 -0.6222 -0.4699
   86SLPC   H6R 8233   5.367   4.230   2.974  0.0498 -0.9672 -0.5724
   86SLPC   H6S 8234   5.532   4.175   3.050 -0.4775 -0.1770  2.6317
   86SLPC   C27 8235   5.366   4.120   3.154  0.9530 -0.5397  0.8830
   86SLPC   H7R 8236   5.398   4.022   3.196 -2.4660 -2.6152 -0.9215
   86SLPC   H7S 8237   5.257   4.114   3.130  0.6795  0.8364  1.6856
   86SLPC   C28 8238   5.393   4.231   3.256 -0.4327 -0.0293 -0.0981
   86SLPC   H8R 8239   5.360   4.330   3.218  0.1103  0.1252 -0.1782
   86SLPC   H8S 8240   5.501   4.240   3.279 -0.7095 -0.1789  1.3575
   86SLPC   C29 8241   5.311   4.204   3.381  0.7425 -0.7155  0.1135
   86SLPC   H9R 8242   5.207   4.169   3.368 -0.1373  1.2996  1.2513
   86SLPC  C210 8243   5.343   4.221   3.510 -0.4181 -0.0906 -0.2567
   86SLPC  H10R 8244   5.265   4.203   3.585 -0.9516  2.3687 -0.1585
   86SLPC  C211 8245   5.468   4.288   3.560 -0.3978  0.3656 -0.1816
   86SLPC  H11R 8246   5.449   4.337   3.658 -3.2545 -2.3143  0.7728
   86SLPC  H11S 8247   5.490   4.371   3.489 -0.7761  0.8634  0.2739
   86SLPC  C212 8248   5.575   4.187   3.570  0.4013 -0.2531  0.1732
   86SLPC  H12R 8249   5.583   4.130   3.476 -1.3411  0.0776 -0.2090
   86SLPC  C213 8250   5.659   4.149   3.666 -0.6288  0.1622  0.1458
   86SLPC  H13R 8251   5.716   4.057   3.648 -2.1727 -1.0357  1.1519
   86SLPC  C214 8252   5.661   4.204   3.808 -0.8280 -0.0107 -0.2263
   86SLPC  H14R 8253   5.585   4.285   3.814  0.4165  1.2084 -0.3535
   86SLPC  H14S 8254   5.757   4.248   3.844  0.2580 -2.0747 -0.4188
   86SLPC  C215 8255   5.615   4.108   3.919  0.0260 -0.1451 -0.2674
   86SLPC  H15R 8256   5.675   4.014   3.916  0.1432 -0.2611  2.8225
   86SLPC  H15S 8257   5.509   4.076   3.907 -0.2354  0.2298  0.9087
   86SLPC  C216 8258   5.624   4.165   4.061  1.1330  0.4487  0.7431
   86SLPC  H16R 8259   5.612   4.275   4.055  0.7078  0.3489 -0.4727
   86SLPC  H16S 8260   5.731   4.150   4.084  1.4458 -0.8925 -1.2972
   86SLPC  C217 8261   5.531   4.090   4.164 -0.2664  0.3818  0.0669
   86SLPC  H17R 8262   5.425   4.121   4.153 -0.2172  0.9136  0.9612
   86SLPC  H17S 8263   5.569   4.141   4.255 -1.9039  1.1491  0.3629
   86SLPC  C218 8264   5.565   3.938   4.187 -0.4589 -0.7175  0.5231
   86SLPC  H18R 8265   5.545   3.922   4.295 -0.7498  0.0828  0.5965
   86SLPC  H18S 8266   5.668   3.905   4.162 -1.5638 -2.6529 -1.9729
   86SLPC  H18T 8267   5.501   3.869   4.128 -2.0644  0.0849  1.2502
   86SLPC   C33 8268   6.103   3.923   2.293 -0.4072 -0.2461  0.1572
   86SLPC   H3X 8269   6.129   3.897   2.189 -0.5973  0.8179 -0.1672
   86SLPC   H3Y 8270   6.174   3.876   2.365 -2.0367 -3.4202 -0.1011
   86SLPC   C34 8271   6.100   4.067   2.310 -0.7085 -0.6023  0.4231
   86SLPC   H4X 8272   6.015   4.121   2.265 -1.0665  0.6986  2.4929
   86SLPC   H4Y 8273   6.179   4.110   2.244 -0.8586  0.6503  1.0142
   86SLPC   C35 8274   6.116   4.116   2.459  0.1333 -0.9206  0.4726
   86SLPC   H5X 8275   6.049   4.049   2.516  0.3900 -0.8077  0.9094
   86SLPC   H5Y 8276   6.077   4.219   2.463 -0.1128 -0.8967 -1.4320
   86SLPC   C36 8277   6.257   4.124   2.509 -0.8362  0.0235  0.2877
   86SLPC   H6X 8278   6.305   4.202   2.447 -2.4217  1.4123  0.7532
   86SLPC   H6Y 8279   6.306   4.026   2.489 -2.7988 -1.3606  1.8995
   86SLPC   C37 8280   6.263   4.157   2.654  0.1760 -0.0692  0.4239
   86SLPC   H7X 8281   6.201   4.249   2.664 -1.7268 -1.2255 -0.2176
   86SLPC   H7Y 8282   6.367   4.181   2.685  0.5760 -2.7467  1.4657
   86SLPC   C38 8283   6.204   4.045   2.748 -0.0934 -0.4512 -0.0571
   86SLPC   H8X 8284   6.246   3.952   2.705  0.8485  0.3080 -0.8344
   86SLPC   H8Y 8285   6.094   4.055   2.737  0.0400 -1.0312 -2.4728
   86SLPC   C39 8286   6.243   4.053   2.894  0.4524 -0.1968 -0.0998
   86SLPC   H9X 8287   6.353   4.043   2.900  0.3891 -0.1682  1.8290
   86SLPC   H9Y 8288   6.203   3.957   2.932 -1.1527  0.3672 -0.2837
   86SLPC  C310 8289   6.207   4.179   2.975 -0.4968  0.3664  0.0145
   86SLPC  H10X 8290   6.097   4.169   2.986 -0.3369  0.7934  2.4237
   86SLPC  H10Y 8291   6.224   4.272   2.916 -0.6000 -0.2329 -0.9730
   86SLPC  C311 8292   6.280   4.175   3.107  0.3965 -0.2655 -0.5242
   86SLPC  H11X 8293   6.388   4.194   3.090  0.4562  0.4153  0.4894
   86SLPC  H11Y 8294   6.273   4.077   3.160  0.0783 -1.0278 -1.9437
   86SLPC  C312 8295   6.230   4.284   3.213 -0.3108  0.2232 -0.3353
   86SLPC  H12X 8296   6.119   4.277   3.220 -0.2192 -1.1334  0.1141
   86SLPC  H12Y 8297   6.260   4.383   3.175 -0.5108  0.2618 -0.3965
   86SLPC  C313 8298   6.281   4.259   3.356 -0.1958 -1.2463 -0.5971
   86SLPC  H13X 8299   6.389   4.287   3.353 -0.1979 -1.2064 -0.3331
   86SLPC  H13Y 8300   6.265   4.152   3.381 -1.2940 -1.5232 -2.2702
   86SLPC  C314 8301   6.210   4.347   3.462 -0.6890 -0.0722 -0.0381
   86SLPC  H14X 8302   6.102   4.347   3.436 -0.7469 -0.5343  0.1893
   86SLPC  H14Y 8303   6.243   4.452   3.450 -2.8905  0.4118 -2.9941
   86SLPC  C315 8304   6.233   4.297   3.603 -0.0038 -0.0254  0.0816
   86SLPC  H15X 8305   6.325   4.235   3.606 -0.3637 -0.6642 -1.0966
   86SLPC  H15Y 8306   6.149   4.234   3.640  0.4370 -0.6384  0.0482
   86SLPC  C316 8307   6.264   4.409   3.704 -0.3145  1.0358 -0.1129
   86SLPC  H16X 8308   6.186   4.489   3.701 -1.6040 -0.0282  2.5313
   86SLPC  H16Y 8309   6.367   4.441   3.679  0.1054 -0.4608 -0.3691
   86SLPC  C317 8310   6.275   4.346   3.842  0.5598 -0.1791  0.5063
   86SLPC  H17X 8311   6.178   4.311   3.883  0.7575 -0.1666  0.9859
   86SLPC  H17Y 8312   6.301   4.432   3.907 -1.1851  2.0252 -1.4917
   86SLPC  C318 8313   6.374   4.233   3.863  0.5248  0.1520  0.2634
   86SLPC  H18X 8314   6.466   4.246   3.801  0.6805  1.3115  0.7044
   86SLPC  H18Y 8315   6.332   4.131   3.850  1.0291 -0.0924  0.4977
   86SLPC  H18Z 8316   6.403   4.227   3.970  1.6527 -0.2116 -0.0453
   87SLPC     N 8317   2.962   3.107   1.793 -0.4455 -0.1410 -1.0465
   87SLPC   C13 8318   2.954   3.252   1.780 -0.2405  0.0594 -0.1472
   87SLPC  H13A 8319   3.054   3.287   1.758 -0.7312  1.1551 -0.7352
   87SLPC  H13B 8320   2.899   3.282   1.692  0.3540 -0.0090 -0.5460
   87SLPC  H13C 8321   2.916   3.306   1.866 -1.5471 -0.1139 -0.5908
   87SLPC   C14 8322   3.075   3.071   1.876  0.1699 -0.0550 -0.0984
   87SLPC  H14A 8323   3.170   3.108   1.838 -0.2811 -0.2362 -1.4572
   87SLPC  H14B 8324   3.059   3.111   1.975  1.7737  1.1876 -0.2898
   87SLPC  H14C 8325   3.080   2.964   1.886 -2.7664 -0.2047  0.5580
   87SLPC   C15 8326   2.976   3.052   1.656  0.1352 -0.4972  0.0621
   87SLPC  H15A 8327   2.894   3.098   1.603  0.9452  1.3365  0.3244
   87SLPC  H15B 8328   3.062   3.097   1.609 -0.9984 -0.4701 -2.1325
   87SLPC  H15C 8329   2.979   2.944   1.648 -0.9341 -0.6843  1.7820
   87SLPC   C12 8330   2.827   3.052   1.847 -0.1977  0.3726  0.2054
   87SLPC  H12A 8331   2.836   2.945   1.844  0.9867  0.4248  1.2703
   87SLPC  H12B 8332   2.752   3.077   1.774  1.3462 -0.8186 -1.9110
   87SLPC   C11 8333   2.790   3.091   1.992 -0.0094 -0.0672  0.0036
   87SLPC  H11A 8334   2.873   3.050   2.054  1.6448 -0.4258 -2.2846
   87SLPC  H11B 8335   2.700   3.039   2.029  0.8187 -0.5675  1.4073
   87SLPC     P 8336   2.658   3.316   2.026  0.1299  0.0691 -0.3644
   87SLPC   O13 8337   2.685   3.436   2.109 -0.1408 -0.5547  0.1486
   87SLPC   O14 8338   2.617   3.340   1.882 -1.1375  0.2570  0.2525
   87SLPC   O12 8339   2.786   3.229   2.019  0.3475 -0.5943  0.2311
   87SLPC   O11 8340   2.549   3.227   2.098 -0.6641 -0.0652 -0.8274
   87SLPC    C1 8341   2.416   3.252   2.058  0.6770 -0.0211 -0.3630
   87SLPC    HA 8342   2.391   3.356   2.087 -0.2023  0.0818 -1.4176
   87SLPC    HB 8343   2.402   3.227   1.951  1.6665 -0.9239 -0.3024
   87SLPC    C2 8344   2.325   3.156   2.141 -0.1553 -0.5072 -0.1534
   87SLPC    HS 8345   2.232   3.149   2.081  1.5924  3.5040 -3.8570
   87SLPC   O21 8346   2.305   3.209   2.283  0.1921  0.1243  0.1977
   87SLPC   C21 8347   2.222   3.310   2.293  0.3580  0.2252  0.7257
   87SLPC   O22 8348   2.155   3.360   2.203  0.6282 -0.1646 -0.2133
   87SLPC   C22 8349   2.231   3.360   2.433  0.1809 -0.2719  0.0593
   87SLPC   H2R 8350   2.205   3.275   2.500 -0.7183 -0.3722 -0.3965
   87SLPC   H2S 8351   2.328   3.408   2.458  0.6123 -1.3514  0.5207
   87SLPC    C3 8352   2.394   3.015   2.142 -0.2249 -0.0312  0.1743
   87SLPC    HX 8353   2.489   3.025   2.199  0.3329  0.7532 -0.8617
   87SLPC    HY 8354   2.423   3.002   2.035 -1.3140  0.8598 -0.2494
   87SLPC   O31 8355   2.312   2.910   2.195 -0.4169  0.3670 -0.2161
   87SLPC   C31 8356   2.192   2.890   2.140  0.3193 -0.1784  0.7417
   87SLPC   O32 8357   2.151   2.944   2.038 -0.6119  0.3889 -0.7739
   87SLPC   C32 8358   2.128   2.774   2.209  0.4845  0.0413 -0.3813
   87SLPC   H2X 8359   2.201   2.695   2.239 -1.1708 -1.2698  0.3321
   87SLPC   H2Y 8360   2.062   2.726   2.133 -0.8394  0.9173  0.1816
   87SLPC   C23 8361   2.135   3.472   2.475  0.3939 -0.2085 -0.1586
   87SLPC   H3R 8362   2.034   3.455   2.432  0.0092  2.1675 -0.3640
   87SLPC   H3S 8363   2.163   3.574   2.439  3.4876 -0.5019  1.0719
   87SLPC   C24 8364   2.131   3.477   2.624 -0.0018 -0.4387  0.4756
   87SLPC   H4R 8365   2.229   3.515   2.660 -0.4876  1.0365  0.2667
   87SLPC   H4S 8366   2.131   3.371   2.658  1.9935 -0.8144 -0.5231
   87SLPC   C25 8367   2.024   3.553   2.694  0.8490 -1.0103 -0.6506
   87SLPC   H5R 8368   1.923   3.509   2.680  0.6628 -0.3823 -1.3792
   87SLPC   H5S 8369   1.995   3.652   2.650  0.9865 -0.1688  1.0776
   87SLPC   C26 8370   2.049   3.584   2.844  0.0507 -1.1191 -0.1447
   87SLPC   H6R 8371   2.121   3.668   2.852 -0.1398 -0.9940  0.3576
   87SLPC   H6S 8372   2.102   3.504   2.899  1.6801  0.0709  0.0825
   87SLPC   C27 8373   1.925   3.616   2.921  0.0750 -0.5312 -0.5718
   87SLPC   H7R 8374   1.858   3.527   2.921 -0.1276 -0.3761 -0.9786
   87SLPC   H7S 8375   1.868   3.705   2.887 -1.8282 -1.1452  0.7702
   87SLPC   C28 8376   1.952   3.659   3.068 -0.0261  0.3200 -0.3132
   87SLPC   H8R 8377   2.033   3.734   3.054  0.3303 -0.0979 -0.5055
   87SLPC   H8S 8378   2.003   3.572   3.116  2.0019  1.0954 -0.9621
   87SLPC   C29 8379   1.831   3.681   3.147  0.0335  0.0486 -0.3918
   87SLPC   H9R 8380   1.735   3.678   3.094 -0.4348 -1.2040  0.4608
   87SLPC  C210 8381   1.842   3.709   3.283 -0.6041  0.4052 -0.2074
   87SLPC  H10R 8382   1.753   3.738   3.342  0.2747 -1.4879  2.1812
   87SLPC  C211 8383   1.969   3.706   3.360  0.4906 -0.3511  0.8901
   87SLPC  H11R 8384   2.058   3.677   3.300  0.3714  0.1430  0.4732
   87SLPC  H11S 8385   1.960   3.622   3.432  0.0885 -0.9669  0.1397
   87SLPC  C212 8386   1.997   3.840   3.414  0.2943  0.1133  0.3889
   87SLPC  H12R 8387   2.005   3.922   3.341  1.4499  1.2324  1.7377
   87SLPC  C213 8388   2.022   3.891   3.535 -0.0824  0.3091  0.3132
   87SLPC  H13R 8389   2.055   3.996   3.540  1.8385  0.1414 -3.9898
   87SLPC  C214 8390   2.006   3.811   3.663 -0.0568 -0.3304 -0.3416
   87SLPC  H14R 8391   1.940   3.723   3.647  0.3212 -0.6134 -0.3678
   87SLPC  H14S 8392   1.949   3.877   3.732  0.5807  1.1999 -1.2161
   87SLPC  C215 8393   2.145   3.787   3.715 -0.7013 -0.6335 -0.0571
   87SLPC  H15R 8394   2.203   3.747   3.630  0.4123  1.3390 -0.2848
   87SLPC  H15S 8395   2.132   3.709   3.794 -0.3954  0.6968  1.3681
   87SLPC  C216 8396   2.227   3.908   3.775 -0.5492 -0.3459  0.3898
   87SLPC  H16R 8397   2.216   3.995   3.707 -1.9075 -1.3032 -0.6700
   87SLPC  H16S 8398   2.332   3.872   3.777 -1.0813 -1.9619  1.8276
   87SLPC  C217 8399   2.184   3.941   3.924 -0.2004  0.5812 -0.5064
   87SLPC  H17R 8400   2.074   3.948   3.927 -0.3121 -0.8958 -0.8086
   87SLPC  H17S 8401   2.242   4.034   3.948  3.1079 -1.5103  0.3637
   87SLPC  C218 8402   2.225   3.834   4.029  0.0866  0.6715 -0.5515
   87SLPC  H18R 8403   2.200   3.886   4.124  1.5180  1.2075 -0.4421
   87SLPC  H18S 8404   2.335   3.815   4.026  0.2973  1.1577  1.8191
   87SLPC  H18T 8405   2.157   3.747   4.020  0.0686  0.3290  2.0007
   87SLPC   C33 8406   2.046   2.822   2.334  0.4334 -0.0453 -0.3638
   87SLPC   H3X 8407   1.948   2.867   2.307  1.1670  3.8030  2.6040
   87SLPC   H3Y 8408   2.086   2.912   2.386 -0.3423  0.6866 -1.0143
   87SLPC   C34 8409   2.024   2.714   2.447 -0.0450  0.6538 -0.3039
   87SLPC   H4X 8410   1.978   2.622   2.405 -0.1536  1.3722 -1.8124
   87SLPC   H4Y 8411   1.949   2.754   2.519 -0.1251 -1.4968  0.9001
   87SLPC   C35 8412   2.157   2.685   2.516  0.2631  0.2967  0.1811
   87SLPC   H5X 8413   2.190   2.783   2.557  0.2763  0.2662  0.2423
   87SLPC   H5Y 8414   2.234   2.653   2.443 -0.9818  0.5488 -1.3043
   87SLPC   C36 8415   2.140   2.579   2.628  0.0725 -0.3071  0.6646
   87SLPC   H6X 8416   2.242   2.566   2.669  0.8442  0.9623 -0.7489
   87SLPC   H6Y 8417   2.115   2.474   2.602 -0.2528 -0.2850  0.8759
   87SLPC   C37 8418   2.038   2.630   2.732  0.2991  0.7703 -0.7381
   87SLPC   H7X 8419   1.941   2.651   2.681 -0.6807 -0.9765  0.3272
   87SLPC   H7Y 8420   2.051   2.734   2.769 -1.5267 -0.2175  3.1568
   87SLPC   C38 8421   2.010   2.534   2.851  0.1914 -0.7927 -0.0771
   87SLPC   H8X 8422   1.991   2.428   2.826 -3.7567 -0.1590 -0.3334
   87SLPC   H8Y 8423   1.918   2.577   2.896  1.6897  1.8246  0.6793
   87SLPC   C39 8424   2.124   2.532   2.954  0.4140 -0.7607  0.0289
   87SLPC   H9X 8425   2.155   2.635   2.984  0.7897 -0.8134 -0.1699
   87SLPC   H9Y 8426   2.211   2.476   2.914  0.6453 -1.8158  1.8989
   87SLPC  C310 8427   2.074   2.460   3.083 -0.7647  0.7636  1.2677
   87SLPC  H10X 8428   2.062   2.351   3.070  1.5059  0.6955 -0.9014
   87SLPC  H10Y 8429   1.971   2.493   3.106 -0.4774  0.8432  2.5440
   87SLPC  C311 8430   2.165   2.479   3.198  0.1175 -0.3059  0.7477
   87SLPC  H11X 8431   2.187   2.587   3.205 -2.4333  0.2912  0.5823
   87SLPC  H11Y 8432   2.258   2.426   3.170 -0.7680 -1.2803 -0.4640
   87SLPC  C312 8433   2.111   2.435   3.334  0.3496 -0.5244  0.0187
   87SLPC  H12X 8434   2.076   2.330   3.325  0.6543 -0.6000 -0.3396
   87SLPC  H12Y 8435   2.022   2.490   3.370  0.3079  1.5340 -2.8425
   87SLPC  C313 8436   2.223   2.422   3.445  0.4445  0.2376  0.2042
   87SLPC  H13X 8437   2.266   2.521   3.472  1.0589  0.4430 -1.4488
   87SLPC  H13Y 8438   2.300   2.357   3.398  1.2517  0.2212  1.4827
   87SLPC  C314 8439   2.170   2.352   3.576  0.9098  0.2702 -0.7841
   87SLPC  H14X 8440   2.111   2.263   3.545  0.3560  0.6444 -0.8233
   87SLPC  H14Y 8441   2.089   2.411   3.624 -1.1666 -2.5222 -0.6632
   87SLPC  C315 8442   2.278   2.315   3.676 -0.2209  0.0006  0.7678
   87SLPC  H15X 8443   2.338   2.401   3.712  1.2899 -0.7091  0.0090
   87SLPC  H15Y 8444   2.354   2.248   3.630  0.2413 -0.2480  1.8729
   87SLPC  C316 8445   2.216   2.239   3.788 -0.2870 -0.0431 -0.1755
   87SLPC  H16X 8446   2.126   2.294   3.824 -0.8145  0.2751 -1.8803
   87SLPC  H16Y 8447   2.291   2.232   3.870 -1.4718 -0.6076  0.8959
   87SLPC  C317 8448   2.174   2.098   3.753 -0.3486  0.0360  0.3976
   87SLPC  H17X 8449   2.243   2.040   3.687  0.4021  1.0939  0.2285
   87SLPC  H17Y 8450   2.081   2.109   3.693 -0.3943 -0.1456  0.4333
   87SLPC  C318 8451   2.147   2.007   3.877  0.0948 -0.6327 -0.6557
   87SLPC  H18X 8452   2.094   1.915   3.843 -1.2282 -0.0888 -0.1106
   87SLPC  H18Y 8453   2.084   2.057   3.953 -0.5355 -0.5618 -1.2160
   87SLPC  H18Z 8454   2.240   1.982   3.933 -0.1742 -1.2606 -0.4783
   88SLPC     N 8455   3.659   3.515   1.431  0.0924  0.3507  0.0141
   88SLPC   C13 8456   3.572   3.634   1.412 -0.0074  0.0632  0.0367
   88SLPC  H13A 8457   3.556   3.706   1.491 -0.2781 -2.7089  2.6941
   88SLPC  H13B 8458   3.611   3.689   1.327 -0.7184 -1.8818 -1.6440
   88SLPC  H13C 8459   3.476   3.599   1.375  0.3932 -0.2957 -0.6955
   88SLPC   C14 8460   3.799   3.549   1.431 -0.1110 -0.3111 -0.2243
   88SLPC  H14A 8461   3.818   3.604   1.341 -0.7977  1.3321  0.5878
   88SLPC  H14B 8462   3.827   3.618   1.510 -0.4039 -0.7592  0.2840
   88SLPC  H14C 8463   3.867   3.465   1.432  0.1251 -0.1329 -0.9450
   88SLPC   C15 8464   3.639   3.418   1.318 -0.4856 -0.1445  0.1682
   88SLPC  H15A 8465   3.667   3.465   1.225  2.0518  1.7796  1.7559
   88SLPC  H15B 8466   3.703   3.332   1.329 -0.0457  0.0618 -0.6618
   88SLPC  H15C 8467   3.537   3.382   1.316  0.0932 -2.0951  2.0681
   88SLPC   C12 8468   3.621   3.435   1.565  0.0865 -0.1336 -0.9297
   88SLPC  H12A 8469   3.675   3.342   1.554  2.2193  1.0162 -0.6958
   88SLPC  H12B 8470   3.515   3.418   1.570 -0.0327  0.6512 -0.6797
   88SLPC   C11 8471   3.660   3.501   1.706  0.2744 -0.0716  0.4206
   88SLPC  H11A 8472   3.767   3.531   1.701  0.0305  0.7488 -0.3380
   88SLPC  H11B 8473   3.646   3.423   1.783 -0.4766  0.3164  0.6892
   88SLPC     P 8474   3.452   3.650   1.792  0.1480  0.4974 -0.0012
   88SLPC   O13 8475   3.432   3.796   1.781  0.6661  0.4027  0.2308
   88SLPC   O14 8476   3.345   3.561   1.749  0.4059 -0.5283  0.0049
   88SLPC   O12 8477   3.584   3.619   1.717 -0.3317  0.2353 -1.7542
   88SLPC   O11 8478   3.498   3.603   1.940 -0.2251  0.0113 -0.2011
   88SLPC    C1 8479   3.417   3.654   2.048 -0.3485  0.1488 -0.1827
   88SLPC    HA 8480   3.376   3.753   2.020  0.8186  0.5735 -0.4511
   88SLPC    HB 8481   3.330   3.589   2.071  0.9011 -1.1574  1.0024
   88SLPC    C2 8482   3.512   3.685   2.169 -0.3191 -0.3759 -0.6762
   88SLPC    HS 8483   3.591   3.758   2.141 -0.2595 -0.0865  0.2253
   88SLPC   O21 8484   3.574   3.565   2.218  0.1458  0.2147  0.0009
   88SLPC   C21 8485   3.690   3.580   2.292  0.3557 -0.0852 -0.5811
   88SLPC   O22 8486   3.738   3.690   2.321  0.1021 -0.0915  0.1667
   88SLPC   C22 8487   3.749   3.444   2.349 -0.7249 -0.9483  0.2939
   88SLPC   H2R 8488   3.767   3.385   2.257  0.6883 -1.8817  1.1227
   88SLPC   H2S 8489   3.846   3.475   2.395 -1.1242  2.0562 -0.6524
   88SLPC    C3 8490   3.433   3.757   2.280  1.0934 -0.6181  0.0079
   88SLPC    HX 8491   3.413   3.860   2.242 -0.2402 -1.0398 -0.4991
   88SLPC    HY 8492   3.488   3.781   2.373  1.1920  0.4708 -0.3181
   88SLPC   O31 8493   3.318   3.683   2.298 -0.3495 -0.0414  0.1544
   88SLPC   C31 8494   3.312   3.606   2.410  0.4318  0.2767 -0.2506
   88SLPC   O32 8495   3.394   3.598   2.497 -0.3230 -0.1822  0.1223
   88SLPC   C32 8496   3.180   3.524   2.402 -0.1822  0.6140  0.2958
   88SLPC   H2X 8497   3.206   3.425   2.445  0.4535  0.6160 -0.0714
   88SLPC   H2Y 8498   3.145   3.513   2.297  1.6048  0.8415 -0.3577
   88SLPC   C23 8499   3.652   3.367   2.440 -0.2651  0.5147 -1.0373
   88SLPC   H3R 8500   3.671   3.257   2.445 -0.3320  0.5325 -0.3452
   88SLPC   H3S 8501   3.547   3.376   2.406 -0.4008  0.7708 -0.5529
   88SLPC   C24 8502   3.654   3.429   2.584  0.0335  0.6273  0.2782
   88SLPC   H4R 8503   3.614   3.533   2.588 -3.1562 -0.4650 -0.6913
   88SLPC   H4S 8504   3.762   3.445   2.607 -0.2146  2.2294  0.4414
   88SLPC   C25 8505   3.589   3.335   2.679  0.4730 -0.0338  0.6624
   88SLPC   H5R 8506   3.659   3.249   2.689  1.2925  0.1411 -2.5309
   88SLPC   H5S 8507   3.495   3.303   2.628  1.8248 -0.5832 -1.6594
   88SLPC   C26 8508   3.533   3.400   2.802  0.2728 -0.2820 -0.6786
   88SLPC   H6R 8509   3.467   3.327   2.854 -0.5824  1.4374  0.7948
   88SLPC   H6S 8510   3.476   3.494   2.786  0.7747  0.1417 -0.0239
   88SLPC   C27 8511   3.643   3.432   2.906  0.0501  0.2108 -0.7855
   88SLPC   H7R 8512   3.687   3.531   2.883  0.0429  0.3226 -0.3246
   88SLPC   H7S 8513   3.726   3.357   2.914  0.7470  1.1385  1.7996
   88SLPC   C28 8514   3.603   3.449   3.054  0.1586 -0.3772 -0.7258
   88SLPC   H8R 8515   3.686   3.481   3.119 -0.8374 -2.3585  1.6921
   88SLPC   H8S 8516   3.569   3.347   3.084 -2.5798  0.1606 -1.7028
   88SLPC   C29 8517   3.487   3.541   3.071  0.6647 -0.1926 -0.4530
   88SLPC   H9R 8518   3.418   3.549   2.986  3.0696 -0.6713 -2.5807
   88SLPC  C210 8519   3.467   3.617   3.180  0.0314 -0.2678  0.3089
   88SLPC  H10R 8520   3.378   3.683   3.179  0.2511  0.0270  0.0295
   88SLPC  C211 8521   3.545   3.620   3.312 -0.2131 -0.3993 -0.1691
   88SLPC  H11R 8522   3.647   3.658   3.294 -0.3186  0.6983  1.3557
   88SLPC  H11S 8523   3.551   3.516   3.352 -1.3692 -1.8006 -3.2957
   88SLPC  C212 8524   3.484   3.707   3.419 -0.0978  0.3455 -0.0720
   88SLPC  H12R 8525   3.550   3.791   3.445 -1.4550  1.1919  0.7992
   88SLPC  C213 8526   3.362   3.714   3.472 -0.2161 -0.1951  0.4917
   88SLPC  H13R 8527   3.340   3.797   3.541  0.6043  1.1996 -0.8744
   88SLPC  C214 8528   3.255   3.616   3.458  0.3341 -0.5377  0.7654
   88SLPC  H14R 8529   3.211   3.597   3.558 -0.6333  0.0526  0.4650
   88SLPC  H14S 8530   3.302   3.527   3.412 -0.0092 -0.4656  0.2632
   88SLPC  C215 8531   3.142   3.660   3.368 -0.1937 -0.3201  0.1005
   88SLPC  H15R 8532   3.066   3.580   3.377  1.6573 -1.9910  1.8510
   88SLPC  H15S 8533   3.174   3.649   3.262 -0.6178 -0.9562  0.0322
   88SLPC  C216 8534   3.088   3.802   3.396  0.1970 -0.6266  0.1566
   88SLPC  H16R 8535   3.045   3.828   3.297  1.9263 -1.0612 -0.7564
   88SLPC  H16S 8536   3.171   3.869   3.427  0.0935 -0.6135  0.4091
   88SLPC  C217 8537   2.988   3.801   3.505  0.0111  0.0438 -1.3525
   88SLPC  H17R 8538   3.025   3.740   3.591  0.0881  0.6447 -0.9557
   88SLPC  H17S 8539   2.895   3.746   3.481  1.0131 -1.1281 -2.7734
   88SLPC  C218 8540   2.954   3.944   3.550 -0.2532  0.5605  0.7490
   88SLPC  H18R 8541   3.045   4.001   3.575 -1.7325  3.7499 -0.5322
   88SLPC  H18S 8542   2.872   3.951   3.625  0.0698 -0.3613  1.1990
   88SLPC  H18T 8543   2.926   3.998   3.456  2.0375  1.4837  0.5414
   88SLPC   C33 8544   3.067   3.594   2.478  0.1748  0.2167  0.1051
   88SLPC   H3X 8545   3.055   3.694   2.434  0.7930 -0.3895 -1.5154
   88SLPC   H3Y 8546   3.107   3.607   2.581 -3.0181  2.1724  1.2322
   88SLPC   C34 8547   2.940   3.510   2.484  0.3949  0.6157 -0.1624
   88SLPC   H4X 8548   2.962   3.410   2.526 -1.9045  0.0598 -0.1809
   88SLPC   H4Y 8549   2.905   3.490   2.380  0.9349 -1.6758  0.0527
   88SLPC   C35 8550   2.838   3.568   2.588 -0.1311  0.4443  0.0819
   88SLPC   H5X 8551   2.799   3.664   2.547 -0.4511  0.0202 -0.6473
   88SLPC   H5Y 8552   2.888   3.584   2.685 -0.6642 -0.6235  0.5480
   88SLPC   C36 8553   2.718   3.469   2.607 -0.4666 -0.2616  0.1351
   88SLPC   H6X 8554   2.758   3.367   2.625  1.7361  0.5421  0.0641
   88SLPC   H6Y 8555   2.660   3.468   2.512 -2.2320 -1.5779  1.1775
   88SLPC   C37 8556   2.635   3.504   2.732  0.1492 -0.9378  0.1391
   88SLPC   H7X 8557   2.585   3.600   2.706 -0.0554 -0.7967  1.0398
   88SLPC   H7Y 8558   2.701   3.508   2.821 -2.4148 -2.1968  2.2035
   88SLPC   C38 8559   2.527   3.407   2.772  0.1403 -0.2684  0.5123
   88SLPC   H8X 8560   2.570   3.306   2.789 -3.3193 -2.2119 -1.1310
   88SLPC   H8Y 8561   2.460   3.398   2.684 -0.3061 -1.6932  0.9621
   88SLPC   C39 8562   2.457   3.457   2.905 -0.0690  0.2413  0.5789
   88SLPC   H9X 8563   2.404   3.547   2.866 -1.1069 -0.0987  1.1667
   88SLPC   H9Y 8564   2.540   3.486   2.972  0.5244  0.0569 -0.0698
   88SLPC  C310 8565   2.364   3.357   2.969 -0.4247 -0.1895  0.2126
   88SLPC  H10X 8566   2.416   3.261   2.986 -1.1268 -0.5740  0.2398
   88SLPC  H10Y 8567   2.282   3.338   2.896 -0.7594  1.8281  0.0041
   88SLPC  C311 8568   2.313   3.412   3.106  0.6093  0.2796 -0.0546
   88SLPC  H11X 8569   2.261   3.508   3.085  2.3857  1.7036  1.7427
   88SLPC  H11Y 8570   2.406   3.443   3.158 -0.0793  0.1316  1.3074
   88SLPC  C312 8571   2.219   3.315   3.183 -0.5335 -0.2221  0.1185
   88SLPC  H12X 8572   2.281   3.223   3.182 -0.8346 -0.4222 -0.2576
   88SLPC  H12Y 8573   2.131   3.293   3.119  0.6072 -1.8471 -0.9774
   88SLPC  C313 8574   2.191   3.360   3.326 -0.0685  0.3693  0.2676
   88SLPC  H13X 8575   2.145   3.461   3.320 -0.5447  0.0610 -3.0680
   88SLPC  H13Y 8576   2.282   3.360   3.390  1.3150  0.1270 -1.5913
   88SLPC  C314 8577   2.085   3.283   3.402 -0.0047  0.0938 -0.2666
   88SLPC  H14X 8578   1.997   3.271   3.335  0.0282 -0.3027 -0.2447
   88SLPC  H14Y 8579   2.054   3.339   3.493 -0.8002  1.7351 -1.5008
   88SLPC  C315 8580   2.143   3.143   3.432 -0.1317 -0.0962  0.5185
   88SLPC  H15X 8581   2.235   3.144   3.494 -2.2465 -0.0104  3.8964
   88SLPC  H15Y 8582   2.167   3.106   3.330  2.8672  2.9331 -0.0534
   88SLPC  C316 8583   2.039   3.056   3.494  0.2432 -0.1861  0.5397
   88SLPC  H16X 8584   1.936   3.078   3.457 -0.5739  0.9585  3.2195
   88SLPC  H16Y 8585   2.032   3.082   3.602  3.1822  0.7979  0.5880
   88SLPC  C317 8586   2.072   2.909   3.472  0.6465  0.8840 -0.5718
   88SLPC  H17X 8587   2.001   2.839   3.523  0.5919  0.1559 -1.6086
   88SLPC  H17Y 8588   2.170   2.890   3.520 -0.6652 -0.5330  1.7883
   88SLPC  C318 8589   2.071   2.863   3.320  0.7882  0.3348 -0.1572
   88SLPC  H18X 8590   1.971   2.883   3.275 -0.8720 -2.1236  2.1342
   88SLPC  H18Y 8591   2.097   2.756   3.308 -1.0858 -0.0730 -0.8984
   88SLPC  H18Z 8592   2.139   2.930   3.263 -1.3508  2.5590 -0.2675
   89SAPE     N 8593   0.716   0.293   6.373 -0.3449  0.2720  1.3380
   89SAPE   HN1 8594   0.695   0.193   6.354 -2.9999  0.5242  2.4980
   89SAPE   HN2 8595   0.818   0.309   6.381 -0.2999  0.0725  1.1634
   89SAPE   HN3 8596   0.669   0.317   6.463 -2.1134 -0.6350  0.7094
   89SAPE   C12 8597   0.653   0.366   6.257 -0.1727  0.4697 -0.0819
   89SAPE  H12A 8598   0.711   0.328   6.170 -0.5912 -3.5327  1.2028
   89SAPE  H12B 8599   0.672   0.473   6.278 -0.3908  0.1562  1.8955
   89SAPE   C11 8600   0.504   0.337   6.251 -0.6766  0.7282 -0.3945
   89SAPE  H11A 8601   0.475   0.387   6.156  0.1357 -2.8176 -2.7134
   89SAPE  H11B 8602   0.456   0.388   6.338 -1.9320 -1.0724  0.0177
   89SAPE     P 8603   0.344   0.144   6.193 -0.2434  0.5077  0.1081
   89SAPE   O13 8604   0.308   0.020   6.268 -0.1747 -0.3585  0.3733
   89SAPE   O14 8605   0.248   0.255   6.204 -0.0211  0.0780 -0.1553
   89SAPE   O12 8606   0.484   0.200   6.249  0.8375 -0.0453 -0.3152
   89SAPE   O11 8607   0.375   0.113   6.040 -0.6353 -0.5068  0.1752
   89SAPE    C1 8608   0.507   0.067   6.000 -0.0678  0.2224  0.3653
   89SAPE    HA 8609   0.578   0.149   6.025 -0.2844  0.8409 -0.9738
   89SAPE    HB 8610   0.544  -0.031   6.037  1.0269  0.3704 -0.2868
   89SAPE    C2 8611   0.518   0.034   5.850 -0.1848  0.1196  0.7316
   89SAPE    HS 8612   0.623   0.051   5.819 -0.4044 -1.5711 -1.1490
   89SAPE   O21 8613   0.433   0.121   5.776  0.5158 -0.1337  0.4516
   89SAPE   C21 8614   0.466   0.256   5.785 -0.1232  0.6004 -0.0293
   89SAPE   O22 8615   0.567   0.295   5.837  0.1024 -0.3654 -0.4943
   89SAPE   C22 8616   0.363   0.328   5.695 -0.2324  0.3087 -0.0027
   89SAPE   H2R 8617   0.400   0.339   5.591 -2.3332  1.6278 -0.6653
   89SAPE   H2S 8618   0.273   0.265   5.679  0.4122 -0.0529 -2.6067
   89SAPE    C3 8619   0.487  -0.117   5.822  0.0262 -0.4897 -0.1005
   89SAPE    HX 8620   0.385  -0.143   5.856 -0.1365 -1.6702 -1.4053
   89SAPE    HY 8621   0.551  -0.178   5.889 -0.9905  0.1740  1.5444
   89SAPE   O31 8622   0.498  -0.147   5.684  0.1214  0.5101  0.0618
   89SAPE   C31 8623   0.389  -0.129   5.615  0.0894  0.3914 -0.6404
   89SAPE   O32 8624   0.287  -0.080   5.659  0.0540  0.1351  0.2366
   89SAPE   C32 8625   0.405  -0.177   5.471  0.1519  0.6753 -0.1265
   89SAPE   H2X 8626   0.377  -0.285   5.472  2.2711  0.0551 -1.1014
   89SAPE   H2Y 8627   0.515  -0.166   5.454 -0.2421  2.4313 -1.8378
   89SAPE   C23 8628   0.334   0.473   5.741  0.0988 -0.2627  0.7952
   89SAPE   H3R 8629   0.429   0.531   5.741 -1.2266  2.0649  1.4669
   89SAPE   H3S 8630   0.297   0.469   5.846 -0.1094  0.9650  0.7807
   89SAPE   C24 8631   0.217   0.543   5.663  0.2360 -0.7074  0.2905
   89SAPE   H4R 8632   0.179   0.621   5.732  1.6622 -0.1572  0.4901
   89SAPE   H4S 8633   0.135   0.470   5.652  0.6371 -1.4103  1.7449
   89SAPE   C25 8634   0.264   0.583   5.530  0.3260 -0.3760 -0.4626
   89SAPE   H5R 8635   0.346   0.657   5.531 -0.5422  0.6010 -0.1186
   89SAPE   C26 8636   0.209   0.553   5.411 -0.4454 -0.3455  0.4486
   89SAPE   H6R 8637   0.259   0.586   5.319 -0.6766  0.7027  0.6812
   89SAPE   C27 8638   0.108   0.455   5.376  0.3696  0.7311 -0.7051
   89SAPE   H7R 8639   0.038   0.498   5.301 -2.0732 -1.1390  0.3505
   89SAPE   H7S 8640   0.037   0.453   5.461 -0.3092 -0.7818 -1.2742
   89SAPE   C28 8641   0.157   0.323   5.339 -0.0154 -0.0071 -0.6804
   89SAPE   H8R 8642   0.192   0.267   5.427 -3.0714 -0.7337  0.2031
   89SAPE   C29 8643   0.151   0.265   5.220 -0.0679 -0.1334 -0.4567
   89SAPE   H9R 8644   0.184   0.161   5.210 -1.4031 -0.7617  1.2876
   89SAPE  C210 8645   0.111   0.321   5.088 -0.5164 -0.2334  0.0325
   89SAPE  H10R 8646   0.204   0.349   5.035  0.6805 -2.4662  0.7958
   89SAPE  H10S 8647   0.061   0.419   5.099  1.5749  0.6413  3.0653
   89SAPE  C211 8648   0.025   0.235   5.001 -0.4714  0.0541  0.2013
   89SAPE  H11R 8649  -0.025   0.152   5.053 -0.5600  0.1885  0.3333
   89SAPE  C212 8650   0.017   0.258   4.871  0.5794  0.1238  0.3094
   89SAPE  H12R 8651  -0.037   0.184   4.811  1.8044  1.4621 -2.6246
   89SAPE  C213 8652   0.083   0.366   4.791 -0.0166  0.1934 -0.5585
   89SAPE  H13R 8653   0.179   0.395   4.838  0.8613  0.2913 -2.3060
   89SAPE  H13S 8654   0.018   0.456   4.800 -0.2993 -0.1319  0.9338
   89SAPE  C214 8655   0.128   0.330   4.649  0.1938  0.1429  0.0482
   89SAPE  H14R 8656   0.232   0.295   4.640  0.1703  0.4827 -2.0823
   89SAPE  C215 8657   0.044   0.313   4.540 -0.0927 -0.1286 -0.6810
   89SAPE  H15R 8658   0.081   0.287   4.440  2.1355 -0.4960  0.1783
   89SAPE  C216 8659  -0.104   0.354   4.540 -0.4427 -0.1407 -0.7374
   89SAPE  H16R 8660  -0.145   0.413   4.625  1.0306 -1.1992  0.7854
   89SAPE  H16S 8661  -0.165   0.262   4.537  0.3730 -0.8087  1.1333
   89SAPE  C217 8662  -0.140   0.430   4.411 -0.4578  0.0500 -0.4647
   89SAPE  H17R 8663  -0.081   0.523   4.406  2.0991 -1.3990  0.5030
   89SAPE  H17S 8664  -0.243   0.471   4.422  0.0999  1.0689  1.3757
   89SAPE  C218 8665  -0.135   0.346   4.284  0.1237 -0.0245  0.1653
   89SAPE  H18R 8666  -0.164   0.244   4.316  0.7346 -0.5615 -0.9341
   89SAPE  H18S 8667  -0.031   0.325   4.254 -0.2490 -2.4328  0.3600
   89SAPE  C219 8668  -0.224   0.401   4.170  0.8967 -0.0847 -0.7748
   89SAPE  H19R 8669  -0.200   0.504   4.134 -1.2370  0.9811  0.6613
   89SAPE  H19S 8670  -0.317   0.417   4.229  1.4683 -0.8065  0.3548
   89SAPE  C220 8671  -0.248   0.301   4.059 -0.1558  0.4774  0.6173
   89SAPE  H20R 8672  -0.254   0.195   4.092  0.4621  0.4057  0.5177
   89SAPE  H20S 8673  -0.175   0.321   3.978  0.6253 -0.6080  1.0351
   89SAPE  H20T 8674  -0.352   0.308   4.020 -1.3101 -1.9572  2.9746
   89SAPE   C33 8675   0.339  -0.103   5.356 -0.1942  0.3944  1.1485
   89SAPE   H3X 8676   0.387  -0.003   5.346  2.9566 -1.2330 -2.7628
   89SAPE   H3Y 8677   0.237  -0.079   5.390  0.2352  0.8565  2.1542
   89SAPE   C34 8678   0.340  -0.189   5.223 -0.2405  0.6342  0.7887
   89SAPE   H4X 8679   0.304  -0.292   5.243  0.5736  0.0142 -0.7772
   89SAPE   H4Y 8680   0.447  -0.197   5.196  0.1621  2.6554  1.5930
   89SAPE   C35 8681   0.255  -0.120   5.113  0.7880  0.3087 -0.4339
   89SAPE   H5X 8682   0.276  -0.012   5.101  0.2961  0.3171 -1.3309
   89SAPE   H5Y 8683   0.153  -0.124   5.156  0.9369 -1.2971 -0.1389
   89SAPE   C36 8684   0.277  -0.176   4.969 -0.0188 -0.6244 -0.2429
   89SAPE   H6X 8685   0.231  -0.277   4.965  0.2672 -0.7941  0.6153
   89SAPE   H6Y 8686   0.379  -0.197   4.931 -1.0338 -1.0189 -2.9761
   89SAPE   C37 8687   0.198  -0.092   4.875  0.2009 -0.7861 -0.4436
   89SAPE   H7X 8688   0.253   0.004   4.860 -0.1753 -0.7278 -1.5154
   89SAPE   H7Y 8689   0.097  -0.064   4.910  0.2925  1.3098 -1.6420
   89SAPE   C38 8690   0.192  -0.159   4.738  0.1358 -0.0223  0.1716
   89SAPE   H8X 8691   0.127  -0.249   4.747 -1.7999  1.2517 -0.5562
   89SAPE   H8Y 8692   0.294  -0.195   4.712 -0.2744  0.3122 -2.0181
   89SAPE   C39 8693   0.130  -0.071   4.628  0.5342 -0.0383 -0.4517
   89SAPE   H9X 8694   0.162   0.035   4.630 -1.9750  0.8101 -0.8970
   89SAPE   H9Y 8695   0.019  -0.075   4.641  0.5178  2.0625  0.4214
   89SAPE  C310 8696   0.154  -0.131   4.490  0.4411  0.6568 -0.2888
   89SAPE  H10X 8697   0.111  -0.233   4.491 -0.0905  0.8803  0.4961
   89SAPE  H10Y 8698   0.262  -0.153   4.479  0.1339 -0.6230 -0.9075
   89SAPE  C311 8699   0.081  -0.065   4.377 -0.4227 -0.6271  0.1307
   89SAPE  H11X 8700   0.153   0.009   4.336  0.1700  0.7362  3.3689
   89SAPE  H11Y 8701   0.003   0.001   4.419 -0.6335  0.6801 -2.1569
   89SAPE  C312 8702   0.043  -0.170   4.273  0.2788 -0.7982 -0.2285
   89SAPE  H12X 8703  -0.050  -0.219   4.310 -1.3918 -1.1633 -4.4136
   89SAPE  H12Y 8704   0.131  -0.237   4.260  0.3024 -0.7749 -0.1860
   89SAPE  C313 8705   0.011  -0.112   4.139 -0.0332 -0.1287  0.0033
   89SAPE  H13X 8706   0.086  -0.036   4.107 -1.9593  1.7615 -0.2403
   89SAPE  H13Y 8707  -0.083  -0.054   4.147 -0.1680 -0.3183 -0.2096
   89SAPE  C314 8708  -0.003  -0.213   4.027 -0.0834  0.2307 -0.2662
   89SAPE  H14X 8709  -0.078  -0.291   4.055 -0.6663  0.4209 -1.2605
   89SAPE  H14Y 8710   0.091  -0.270   4.011  1.1485  1.8760  0.7887
   89SAPE  C315 8711  -0.046  -0.144   3.901 -0.2251  0.0968 -0.3726
   89SAPE  H15X 8712   0.036  -0.075   3.874 -0.2130  0.5853  0.8441
   89SAPE  H15Y 8713  -0.140  -0.085   3.911 -0.0116  0.6693 -1.5150
   89SAPE  C316 8714  -0.080  -0.242   3.785  0.2420  0.2368 -0.2329
   89SAPE  H16X 8715  -0.161  -0.312   3.814 -0.7005  0.9223 -1.1460
   89SAPE  H16Y 8716   0.000  -0.317   3.770 -1.1710 -1.2563 -0.5836
   89SAPE  C317 8717  -0.135  -0.179   3.653 -0.2156  0.5410  1.7393
   89SAPE  H17X 8718  -0.048  -0.120   3.617  1.4194 -1.8735  1.4983
   89SAPE  H17Y 8719  -0.226  -0.117   3.670 -0.6228  1.1466 -1.8658
   89SAPE  C318 8720  -0.173  -0.280   3.551  0.2230  0.0300 -0.4128
   89SAPE  H18X 8721  -0.100  -0.337   3.490 -2.3260 -0.5997 -3.1366
   89SAPE  H18Y 8722  -0.231  -0.233   3.468  0.5515  1.3071  0.0581
   89SAPE  H18Z 8723  -0.236  -0.354   3.605 -0.9771  1.2059 -0.1451
   90SAPE     N 8724   3.610   6.233   6.240 -0.1625  0.7760 -0.1936
   90SAPE   HN1 8725   3.552   6.300   6.186  0.7162  1.3324 -0.4639
   90SAPE   HN2 8726   3.702   6.282   6.246 -0.5574  1.4049  0.9797
   90SAPE   HN3 8727   3.617   6.146   6.184 -0.4365  0.5777  0.0729
   90SAPE   C12 8728   3.557   6.206   6.375  0.5275 -0.2593 -0.2988
   90SAPE  H12A 8729   3.555   6.296   6.440  0.4243 -0.1821 -0.4077
   90SAPE  H12B 8730   3.630   6.142   6.429  0.0001 -1.5472 -1.0485
   90SAPE   C11 8731   3.415   6.157   6.375 -0.0394 -0.4067  0.1045
   90SAPE  H11A 8732   3.351   6.247   6.360 -1.0362 -0.9225  1.1050
   90SAPE  H11B 8733   3.377   6.123   6.474 -1.0541  1.0740  0.2547
   90SAPE     P 8734   3.305   5.954   6.242  0.5516 -0.6666 -0.0534
   90SAPE   O13 8735   3.364   5.850   6.156  0.4527  0.2889  1.1192
   90SAPE   O14 8736   3.226   5.922   6.364  0.1294 -0.3059  0.4483
   90SAPE   O12 8737   3.413   6.056   6.277  0.3393  0.0046  0.0720
   90SAPE   O11 8738   3.210   6.036   6.153  1.1629  0.2890 -0.4591
   90SAPE    C1 8739   3.260   6.140   6.062  0.4204  0.8696  0.4253
   90SAPE    HA 8740   3.259   6.238   6.114  0.2363  1.6732 -1.0439
   90SAPE    HB 8741   3.356   6.112   6.013  0.4244  0.5790  0.5973
   90SAPE    C2 8742   3.153   6.156   5.942 -0.7721  0.0760  0.6399
   90SAPE    HS 8743   3.050   6.150   5.982 -0.6153 -1.0596  0.9019
   90SAPE   O21 8744   3.169   6.043   5.856 -0.1981  0.1260  0.1743
   90SAPE   C21 8745   3.087   6.025   5.749  0.2167  0.3782 -0.2013
   90SAPE   O22 8746   2.976   6.071   5.743  0.6582  0.6804 -0.4663
   90SAPE   C22 8747   3.161   5.941   5.641 -0.6100 -0.3226  0.1678
   90SAPE   H2R 8748   3.256   5.994   5.622 -1.0376  0.3004 -0.2689
   90SAPE   H2S 8749   3.180   5.839   5.681 -1.3094 -1.1012 -1.3861
   90SAPE    C3 8750   3.172   6.286   5.871  0.0936 -0.1746  0.3364
   90SAPE    HX 8751   3.140   6.377   5.927 -1.0264  1.3184 -2.4868
   90SAPE    HY 8752   3.102   6.290   5.785  0.8907  1.7664 -0.2665
   90SAPE   O31 8753   3.313   6.296   5.834 -0.0187  0.2193 -0.3984
   90SAPE   C31 8754   3.332   6.371   5.724  0.2185 -0.2703 -0.6415
   90SAPE   O32 8755   3.247   6.430   5.662 -0.0301 -0.0320 -0.0584
   90SAPE   C32 8756   3.483   6.395   5.697 -0.1700  0.0303 -0.2246
   90SAPE   H2X 8757   3.526   6.306   5.645 -0.2124  0.8731 -1.7704
   90SAPE   H2Y 8758   3.535   6.406   5.794  2.2256 -3.3042 -0.9157
   90SAPE   C23 8759   3.070   5.940   5.507  0.3534 -0.0579 -0.1633
   90SAPE   H3R 8760   2.966   5.911   5.531  0.5852 -0.5466  0.2697
   90SAPE   H3S 8761   3.119   5.870   5.436 -0.2804  3.0397 -3.9800
   90SAPE   C24 8762   3.068   6.074   5.433 -0.0832 -0.1656 -0.5491
   90SAPE   H4R 8763   3.134   6.139   5.494 -1.5637 -0.7230  1.8171
   90SAPE   H4S 8764   2.966   6.116   5.446  1.1875  2.7595  0.9067
   90SAPE   C25 8765   3.118   6.080   5.291  0.0207 -0.3132  0.0620
   90SAPE   H5R 8766   3.181   6.163   5.256 -0.3593 -0.0273  0.0493
   90SAPE   C26 8767   3.073   6.005   5.188  0.0706  0.2574 -0.3039
   90SAPE   H6R 8768   3.126   6.012   5.092 -1.4057 -2.1791 -1.3836
   90SAPE   C27 8769   2.966   5.901   5.170  0.1728 -0.1957 -0.4797
   90SAPE   H7R 8770   2.885   5.900   5.246  0.4273 -0.0063 -0.2040
   90SAPE   H7S 8771   3.007   5.800   5.194  0.4409  0.5196  2.5319
   90SAPE   C28 8772   2.915   5.890   5.026 -0.1518  0.1983 -0.1811
   90SAPE   H8R 8773   2.912   5.789   4.983 -2.6250  0.0848  0.1005
   90SAPE   C29 8774   2.883   5.994   4.942 -0.4026 -0.2672 -0.3559
   90SAPE   H9R 8775   2.839   5.965   4.845 -1.7935 -0.3765  0.2863
   90SAPE  C210 8776   2.871   6.136   4.981 -0.1064 -1.4002 -0.6821
   90SAPE  H10R 8777   2.973   6.179   4.978 -0.3791 -0.6259  0.5025
   90SAPE  H10S 8778   2.837   6.149   5.086 -0.0987 -2.4622 -0.5319
   90SAPE  C211 8779   2.772   6.222   4.899 -0.4487 -0.0664 -0.0068
   90SAPE  H11R 8780   2.672   6.248   4.938 -1.0721  2.3702 -2.7943
   90SAPE  C212 8781   2.799   6.274   4.777  0.0050  0.0649  0.3559
   90SAPE  H12R 8782   2.717   6.330   4.728 -2.2456 -2.8494  0.5184
   90SAPE  C213 8783   2.927   6.253   4.701  0.6603  0.6404 -0.1655
   90SAPE  H13R 8784   2.934   6.145   4.676  2.7796  0.8664 -0.8127
   90SAPE  H13S 8785   3.007   6.255   4.778  1.5912 -0.8082 -1.0495
   90SAPE  C214 8786   2.945   6.340   4.579  0.9408  0.4015  0.1340
   90SAPE  H14R 8787   2.895   6.438   4.577  1.6159  0.7685 -1.9643
   90SAPE  C215 8788   3.017   6.302   4.473  0.6107  0.1363  0.3334
   90SAPE  H15R 8789   3.034   6.376   4.394 -1.0708 -0.8954 -1.0538
   90SAPE  C216 8790   3.097   6.172   4.458 -0.4145 -0.1717  0.2439
   90SAPE  H16R 8791   3.094   6.133   4.354  1.2683 -2.3648  0.9371
   90SAPE  H16S 8792   3.060   6.097   4.531 -0.3378 -1.0104 -0.5638
   90SAPE  C217 8793   3.244   6.175   4.486 -0.2060  0.2435  0.2749
   90SAPE  H17R 8794   3.295   6.241   4.413 -2.0256  0.5165 -0.8020
   90SAPE  H17S 8795   3.310   6.090   4.454  0.4825  0.6357  0.6323
   90SAPE  C218 8796   3.276   6.216   4.620  0.3235 -0.1187 -0.0631
   90SAPE  H18R 8797   3.224   6.306   4.660  0.1807 -0.3625  0.3059
   90SAPE  H18S 8798   3.382   6.249   4.630  0.5590 -0.3702 -1.5275
   90SAPE  C219 8799   3.259   6.105   4.723  0.1672  0.0028  0.0025
   90SAPE  H19R 8800   3.323   6.017   4.699 -1.0509 -1.6897  2.4528
   90SAPE  H19S 8801   3.154   6.069   4.715  0.1631 -0.1853  0.7619
   90SAPE  C220 8802   3.276   6.144   4.866 -0.0080  0.9168 -0.0847
   90SAPE  H20R 8803   3.204   6.225   4.892  1.3280  2.7623 -1.8378
   90SAPE  H20S 8804   3.373   6.193   4.883 -0.8399  2.4513  0.3687
   90SAPE  H20T 8805   3.268   6.060   4.938 -0.5980  0.7343 -0.3484
   90SAPE   C33 8806   3.504   6.514   5.600  0.1210  0.4580 -0.1244
   90SAPE   H3X 8807   3.425   6.517   5.522 -0.9899 -0.5877  0.9020
   90SAPE   H3Y 8808   3.604   6.500   5.553 -0.1825 -2.2077 -0.1298
   90SAPE   C34 8809   3.491   6.649   5.668 -0.4077 -0.5873 -0.4279
   90SAPE   H4X 8810   3.570   6.650   5.747 -0.4290  0.9100 -0.3900
   90SAPE   H4Y 8811   3.395   6.654   5.723  0.2100  0.6694  0.6263
   90SAPE   C35 8812   3.516   6.770   5.572  0.2315 -0.0705 -0.4792
   90SAPE   H5X 8813   3.625   6.793   5.563  0.3127 -0.4762 -0.5707
   90SAPE   H5Y 8814   3.479   6.860   5.625  0.4784 -0.3461  0.1688
   90SAPE   C36 8815   3.449   6.759   5.436 -0.4259  0.5227 -0.2337
   90SAPE   H6X 8816   3.348   6.713   5.442  0.9824 -2.8244  0.6442
   90SAPE   H6Y 8817   3.509   6.677   5.391  2.5916  2.2811  0.3240
   90SAPE   C37 8818   3.469   6.889   5.363 -0.3278  0.8344  0.1697
   90SAPE   H7X 8819   3.573   6.923   5.382  0.1754 -0.7169  0.3149
   90SAPE   H7Y 8820   3.384   6.955   5.393 -1.3673 -0.3532 -0.0942
   90SAPE   C38 8821   3.451   6.875   5.212  0.0415  0.3688 -0.3992
   90SAPE   H8X 8822   3.359   6.816   5.191 -0.4950  1.1743 -0.3683
   90SAPE   H8Y 8823   3.529   6.812   5.164 -0.6739 -1.3720  0.5963
   90SAPE   C39 8824   3.433   7.014   5.152  0.5161  0.1550  0.4825
   90SAPE   H9X 8825   3.538   7.048   5.151  0.0907  1.5297 -0.3308
   90SAPE   H9Y 8826   3.374   7.082   5.217  0.8836 -0.3710  1.3837
   90SAPE  C310 8827   3.389   7.020   5.007 -0.4528 -0.1913  0.1070
   90SAPE  H10X 8828   3.278   7.032   5.009 -0.3794  0.4238  1.2666
   90SAPE  H10Y 8829   3.424   6.922   4.969 -2.2396 -1.1300  0.7618
   90SAPE  C311 8830   3.445   7.138   4.924  0.2752  0.6927 -0.2236
   90SAPE  H11X 8831   3.556   7.136   4.934  0.4337  3.3208 -0.7834
   90SAPE  H11Y 8832   3.418   7.235   4.972  1.6745  1.6765 -1.3320
   90SAPE  C312 8833   3.392   7.128   4.780  0.6769  0.3402  0.1296
   90SAPE  H12X 8834   3.287   7.163   4.777  0.6041  0.0438 -1.2502
   90SAPE  H12Y 8835   3.390   7.020   4.754 -2.0656  0.0332  1.3246
   90SAPE  C313 8836   3.476   7.207   4.686 -0.2515 -0.1353  0.1586
   90SAPE  H13X 8837   3.566   7.144   4.667 -0.7397 -1.0154  0.6433
   90SAPE  H13Y 8838   3.498   7.305   4.734  0.3485  0.1285 -0.6529
   90SAPE  C314 8839   3.401   7.228   4.551  0.4995 -0.2607 -0.7621
   90SAPE  H14X 8840   3.298   7.259   4.577 -0.2541 -2.7362 -0.5422
   90SAPE  H14Y 8841   3.403   7.124   4.510 -1.0233 -0.6545  0.0964
   90SAPE  C315 8842   3.448   7.328   4.444  0.5224  0.0689 -0.0389
   90SAPE  H15X 8843   3.557   7.316   4.428  0.4524  1.0533 -1.3721
   90SAPE  H15Y 8844   3.425   7.434   4.468 -1.3399 -0.5135  1.0027
   90SAPE  C316 8845   3.374   7.317   4.303 -0.1834  0.2162 -0.6355
   90SAPE  H16X 8846   3.445   7.354   4.227  1.8559  0.3492  1.2541
   90SAPE  H16Y 8847   3.290   7.389   4.317 -1.4739 -1.6309  2.0958
   90SAPE  C317 8848   3.324   7.178   4.251  0.1869  0.3525 -0.0117
   90SAPE  H17X 8849   3.254   7.133   4.325  0.2626  1.7831  0.9575
   90SAPE  H17Y 8850   3.413   7.112   4.238  0.4913  0.9990 -1.3435
   90SAPE  C318 8851   3.263   7.176   4.109  0.3234  0.1477 -0.0279
   90SAPE  H18X 8852   3.337   7.194   4.028 -0.0838 -1.1074 -0.7132
   90SAPE  H18Y 8853   3.174   7.240   4.090  0.5560 -0.0049 -1.8157
   90SAPE  H18Z 8854   3.235   7.071   4.090  1.4792 -0.2320  0.2616
   91SAPE     N 8855   4.826   3.051   6.254 -0.3713 -0.0075  0.3614
   91SAPE   HN1 8856   4.838   2.973   6.186  0.2451 -1.1411  1.6918
   91SAPE   HN2 8857   4.767   3.027   6.336  0.1997  2.7924  1.7244
   91SAPE   HN3 8858   4.776   3.123   6.198  0.1161  1.5598  1.8419
   91SAPE   C12 8859   4.962   3.104   6.289 -0.3389  0.6580 -0.2224
   91SAPE  H12A 8860   5.033   3.019   6.292 -0.8697  0.1541 -1.2568
   91SAPE  H12B 8861   4.962   3.151   6.389  1.0940 -0.2715  0.2417
   91SAPE   C11 8862   4.999   3.203   6.189 -0.3671 -0.1080  0.0330
   91SAPE  H11A 8863   5.007   3.154   6.089  3.0472  0.2784  0.0120
   91SAPE  H11B 8864   5.103   3.238   6.204 -0.3066 -1.4167  3.5490
   91SAPE     P 8865   4.806   3.339   6.080  0.2459 -0.1174  0.0489
   91SAPE   O13 8866   4.701   3.234   6.089 -0.4436 -0.0848  0.1719
   91SAPE   O14 8867   4.758   3.475   6.095 -0.4591 -0.0404  0.3942
   91SAPE   O12 8868   4.912   3.316   6.192  0.2281  0.0047 -0.4971
   91SAPE   O11 8869   4.892   3.326   5.948 -0.6897 -0.0478  0.0047
   91SAPE    C1 8870   5.019   3.394   5.933 -0.3750  0.1292 -0.1338
   91SAPE    HA 8871   5.013   3.505   5.938  0.6419  0.1658  0.3120
   91SAPE    HB 8872   5.096   3.362   6.006  0.2299  1.5447 -0.1168
   91SAPE    C2 8873   5.092   3.352   5.800  0.2050  0.1293  0.1448
   91SAPE    HS 8874   5.196   3.389   5.811  0.1514  0.5255 -0.6505
   91SAPE   O21 8875   5.029   3.398   5.678 -0.2450  0.1539  0.7295
   91SAPE   C21 8876   5.033   3.524   5.649  0.4114 -0.4301 -0.0177
   91SAPE   O22 8877   5.052   3.613   5.729  0.2524 -0.3268 -0.0558
   91SAPE   C22 8878   5.013   3.548   5.501 -0.2728 -0.6399  0.2262
   91SAPE   H2R 8879   5.105   3.501   5.459 -0.9668  0.2707 -2.4933
   91SAPE   H2S 8880   4.920   3.493   5.477 -1.0710  1.3602 -1.5715
   91SAPE    C3 8881   5.109   3.192   5.791  0.1604 -0.2734 -0.4717
   91SAPE    HX 8882   5.010   3.143   5.798  0.2761 -0.2810  2.2797
   91SAPE    HY 8883   5.156   3.166   5.889  1.6028  1.8814 -0.5126
   91SAPE   O31 8884   5.197   3.150   5.683  0.7189  0.3141  0.0450
   91SAPE   C31 8885   5.132   3.146   5.569  0.0851 -0.2049 -0.3919
   91SAPE   O32 8886   5.011   3.153   5.553 -0.4651 -0.0109  0.0433
   91SAPE   C32 8887   5.238   3.114   5.459  0.5416  0.4837 -0.0942
   91SAPE   H2X 8888   5.184   3.042   5.394  1.5611  0.7889 -1.3215
   91SAPE   H2Y 8889   5.321   3.051   5.498  0.6398 -1.1560 -2.6810
   91SAPE   C23 8890   4.981   3.695   5.467 -0.0020 -0.5410  0.1216
   91SAPE   H3R 8891   5.061   3.762   5.506  1.4468 -2.1726  0.0935
   91SAPE   H3S 8892   4.880   3.720   5.506  0.7302  2.9771  0.1708
   91SAPE   C24 8893   4.999   3.722   5.316  0.5606 -0.2286 -1.0629
   91SAPE   H4R 8894   5.101   3.681   5.301  0.4539 -0.1839 -1.9724
   91SAPE   H4S 8895   4.988   3.830   5.295 -0.2785  0.3531  1.9694
   91SAPE   C25 8896   4.900   3.662   5.225  0.1068  0.5196  0.0727
   91SAPE   H5R 8897   4.810   3.724   5.217  0.7729  2.0143  2.7119
   91SAPE   C26 8898   4.918   3.548   5.151 -0.1074  0.3788  0.1710
   91SAPE   H6R 8899   4.841   3.503   5.086 -0.3202 -0.9416  1.2909
   91SAPE   C27 8900   5.046   3.467   5.140  0.2632 -0.3479 -0.2921
   91SAPE   H7R 8901   5.111   3.500   5.224 -0.5459  4.1560 -1.1678
   91SAPE   H7S 8902   5.087   3.489   5.039 -0.5974 -1.3018 -0.8673
   91SAPE   C28 8903   5.029   3.318   5.124  0.2112 -0.3750 -0.3809
   91SAPE   H8R 8904   5.032   3.267   5.222 -1.9357  0.7209  0.3258
   91SAPE   C29 8905   5.020   3.249   5.009 -0.3448 -0.3664 -0.2257
   91SAPE   H9R 8906   5.027   3.139   5.012  1.7666 -0.2831 -0.5736
   91SAPE  C210 8907   5.007   3.310   4.872 -0.3360  0.3412  0.2729
   91SAPE  H10R 8908   4.994   3.421   4.877 -1.0748  0.2359  0.8195
   91SAPE  H10S 8909   4.922   3.260   4.821  0.0840 -1.5165  1.3269
   91SAPE  C211 8910   5.126   3.301   4.782  0.4289  0.1496 -0.1502
   91SAPE  H11R 8911   5.214   3.271   4.840 -1.8077 -0.5343  3.1567
   91SAPE  C212 8912   5.125   3.287   4.644  0.2295 -0.0948 -0.4468
   91SAPE  H12R 8913   5.228   3.281   4.606 -0.1519 -2.5415 -1.2884
   91SAPE  C213 8914   5.006   3.320   4.552  1.0139  0.2897 -0.3356
   91SAPE  H13R 8915   5.039   3.388   4.470  1.1680 -0.2439 -0.7212
   91SAPE  H13S 8916   4.918   3.368   4.599 -0.8307 -0.9774 -2.3076
   91SAPE  C214 8917   4.964   3.188   4.482 -0.6204  0.1522  0.5285
   91SAPE  H14R 8918   5.028   3.104   4.515 -0.5617  0.1395  0.3851
   91SAPE  C215 8919   4.848   3.171   4.411 -0.5913 -0.5974  0.6637
   91SAPE  H15R 8920   4.829   3.070   4.370 -1.4624  0.6545 -2.3137
   91SAPE  C216 8921   4.745   3.276   4.378 -0.1831 -0.4151 -0.1383
   91SAPE  H16R 8922   4.782   3.381   4.384 -1.3188 -0.0479  0.6617
   91SAPE  H16S 8923   4.662   3.257   4.449 -0.4471 -1.3305 -0.6737
   91SAPE  C217 8924   4.694   3.267   4.233  0.3329 -0.0809 -0.2309
   91SAPE  H17R 8925   4.781   3.251   4.166 -0.9766 -2.5175 -1.4750
   91SAPE  H17S 8926   4.634   3.358   4.213  0.3099  0.3194  1.4640
   91SAPE  C218 8927   4.607   3.143   4.213  0.1932  0.3071  0.4917
   91SAPE  H18R 8928   4.519   3.146   4.282  0.1499  3.0096  0.4170
   91SAPE  H18S 8929   4.672   3.054   4.229 -0.1761 -0.2527 -0.9780
   91SAPE  C219 8930   4.545   3.133   4.073 -0.6991 -0.6438  0.3585
   91SAPE  H19R 8931   4.481   3.222   4.052  0.4642 -0.0690 -0.9600
   91SAPE  H19S 8932   4.489   3.037   4.074 -0.3884 -0.8254  1.3011
   91SAPE  C220 8933   4.642   3.138   3.950  0.4788  0.1776 -1.0946
   91SAPE  H20R 8934   4.717   3.220   3.953  0.4482  0.2511 -2.0170
   91SAPE  H20S 8935   4.591   3.135   3.851 -2.4759  1.3701  0.2753
   91SAPE  H20T 8936   4.700   3.046   3.928  1.0417  0.9125 -2.8506
   91SAPE   C33 8937   5.302   3.226   5.377  0.3310  0.0168  0.0330
   91SAPE   H3X 8938   5.363   3.286   5.448  0.6143 -1.9218  1.4970
   91SAPE   H3Y 8939   5.229   3.299   5.337  0.5196  0.0244 -0.3008
   91SAPE   C34 8940   5.395   3.182   5.258  0.8098  0.5929  0.1887
   91SAPE   H4X 8941   5.324   3.123   5.197 -0.9837  2.3595  0.4431
   91SAPE   H4Y 8942   5.481   3.118   5.287 -0.9989 -1.8480  0.4229
   91SAPE   C35 8943   5.438   3.303   5.170 -0.4673  0.0589 -0.8444
   91SAPE   H5X 8944   5.501   3.373   5.229  1.7491 -1.6377 -1.0453
   91SAPE   H5Y 8945   5.340   3.352   5.151 -0.4728  1.0859  1.5008
   91SAPE   C36 8946   5.520   3.260   5.047 -0.0743 -0.1675  0.5846
   91SAPE   H6X 8947   5.541   3.355   4.994  0.1870 -1.0979 -1.0486
   91SAPE   H6Y 8948   5.451   3.199   4.986 -1.3881 -0.1321  1.9618
   91SAPE   C37 8949   5.657   3.196   5.073 -0.4351 -0.2484 -0.2134
   91SAPE   H7X 8950   5.658   3.119   5.153  3.5301  0.7672  0.9564
   91SAPE   H7Y 8951   5.730   3.271   5.111  0.2698 -1.9994  2.1104
   91SAPE   C38 8952   5.711   3.133   4.948  0.4828 -0.6227  0.2166
   91SAPE   H8X 8953   5.650   3.042   4.926  0.7320 -1.0854  1.3853
   91SAPE   H8Y 8954   5.819   3.105   4.946  0.8265  0.6388 -2.1287
   91SAPE   C39 8955   5.690   3.215   4.826 -0.1824 -0.6077  0.4284
   91SAPE   H9X 8956   5.753   3.306   4.835  1.5161 -1.2993 -2.8750
   91SAPE   H9Y 8957   5.582   3.237   4.811  0.0063  0.1399  0.1057
   91SAPE  C310 8958   5.739   3.147   4.697  0.3923  0.0537  0.1362
   91SAPE  H10X 8959   5.678   3.056   4.678 -0.5318  0.9095 -1.1587
   91SAPE  H10Y 8960   5.845   3.112   4.700 -0.4846 -2.8376  1.2048
   91SAPE  C311 8961   5.717   3.237   4.575  0.4677 -0.1023 -0.1207
   91SAPE  H11X 8962   5.804   3.304   4.585  0.5433 -0.0000 -1.2462
   91SAPE  H11Y 8963   5.619   3.290   4.569 -0.9934 -2.4084  1.5744
   91SAPE  C312 8964   5.725   3.173   4.434 -0.0546  0.6358 -0.5860
   91SAPE  H12X 8965   5.794   3.087   4.435  0.1717  0.8233  0.3625
   91SAPE  H12Y 8966   5.766   3.237   4.353 -0.5114  1.5442 -0.1227
   91SAPE  C313 8967   5.589   3.110   4.396 -0.0669 -0.6354 -0.1491
   91SAPE  H13X 8968   5.506   3.183   4.390  0.4139 -0.1947 -1.9361
   91SAPE  H13Y 8969   5.563   3.044   4.482  1.6618  0.2915  1.1574
   91SAPE  C314 8970   5.595   3.029   4.275 -0.0090  0.0470  1.0798
   91SAPE  H14X 8971   5.681   2.960   4.290 -0.9566 -1.0130  1.7987
   91SAPE  H14Y 8972   5.622   3.097   4.191 -2.2218  1.9475  1.8132
   91SAPE  C315 8973   5.459   2.964   4.239 -0.6117  0.2988 -0.0946
   91SAPE  H15X 8974   5.384   3.044   4.225  0.9639  1.4812 -2.4702
   91SAPE  H15Y 8975   5.422   2.905   4.325 -1.4217  2.8641  1.3884
   91SAPE  C316 8976   5.467   2.877   4.111  0.0684  0.8450 -0.0036
   91SAPE  H16X 8977   5.527   2.786   4.131 -1.4337  0.0102  0.8355
   91SAPE  H16Y 8978   5.512   2.942   4.032 -0.8105  0.5010 -0.8095
   91SAPE  C317 8979   5.327   2.838   4.057 -0.2067  0.4695 -0.2790
   91SAPE  H17X 8980   5.253   2.913   4.091 -1.1049 -0.3726 -0.3195
   91SAPE  H17Y 8981   5.295   2.740   4.100 -0.4413  0.7100  0.1081
   91SAPE  C318 8982   5.320   2.819   3.903  0.6794 -0.9542  0.5499
   91SAPE  H18X 8983   5.270   2.721   3.891 -1.9822  0.6105 -3.0070
   91SAPE  H18Y 8984   5.420   2.823   3.854  0.1234  1.7375 -0.5444
   91SAPE  H18Z 8985   5.257   2.894   3.851  1.1612 -0.2579  0.9578
   92SAPE     N 8986   6.148   3.022   6.249  0.0740 -0.7132 -0.4320
   92SAPE   HN1 8987   6.073   2.961   6.287 -0.2791  0.1558  0.3106
   92SAPE   HN2 8988   6.236   2.966   6.247 -0.6498 -1.9143  0.0572
   92SAPE   HN3 8989   6.156   3.090   6.327  0.4133 -0.3534 -0.7754
   92SAPE   C12 8990   6.124   3.088   6.121  0.3559 -0.3026  0.5589
   92SAPE  H12A 8991   6.119   3.015   6.037 -0.9040  2.4618 -1.9864
   92SAPE  H12B 8992   6.209   3.158   6.107 -0.0808  0.1445  0.0839
   92SAPE   C11 8993   5.989   3.170   6.125  0.0047  0.1518  0.2146
   92SAPE  H11A 8994   5.906   3.098   6.140 -0.7346  0.2540 -2.7256
   92SAPE  H11B 8995   5.973   3.220   6.027 -0.0922 -2.3710 -1.1533
   92SAPE     P 8996   5.936   3.410   6.203  0.2681 -0.0172  0.0791
   92SAPE   O13 8997   5.855   3.463   6.316 -0.4064  0.0762 -0.0207
   92SAPE   O14 8998   6.050   3.492   6.148 -0.1047  0.0610 -0.5282
   92SAPE   O12 8999   5.985   3.264   6.231  0.0308 -0.1961 -0.1031
   92SAPE   O11 9000   5.828   3.383   6.093 -0.5655  0.5533  0.0090
   92SAPE    C1 9001   5.809   3.471   5.982  0.0675 -0.1439 -0.3248
   92SAPE    HA 9002   5.845   3.576   5.991 -0.6510  0.1741 -1.0482
   92SAPE    HB 9003   5.865   3.442   5.890  1.0573  1.8225 -0.4181
   92SAPE    C2 9004   5.664   3.465   5.945  0.5167  0.0226  0.1015
   92SAPE    HS 9005   5.598   3.472   6.035 -2.4935  2.6504 -2.0508
   92SAPE   O21 9006   5.647   3.334   5.884 -0.2747  0.3530  0.2290
   92SAPE   C21 9007   5.529   3.293   5.873  0.3071  0.2271 -0.1683
   92SAPE   O22 9008   5.428   3.339   5.928  0.2727  0.3075  0.7453
   92SAPE   C22 9009   5.517   3.150   5.807 -0.0442 -0.3532 -0.7133
   92SAPE   H2R 9010   5.463   3.175   5.713 -1.3408  2.7031  0.7035
   92SAPE   H2S 9011   5.622   3.121   5.786  1.5233  3.3671  1.0871
   92SAPE    C3 9012   5.600   3.588   5.870  0.0239 -0.4650  0.7384
   92SAPE    HX 9013   5.631   3.680   5.925 -1.1889  1.6332 -1.8601
   92SAPE    HY 9014   5.489   3.597   5.873  0.1082  0.5831  1.2056
   92SAPE   O31 9015   5.654   3.610   5.742 -0.2338 -0.9446  0.6673
   92SAPE   C31 9016   5.581   3.556   5.641 -0.2434  0.6366  0.1775
   92SAPE   O32 9017   5.467   3.513   5.659  1.0076  0.2333  0.1481
   92SAPE   C32 9018   5.652   3.564   5.514  0.1608 -0.2778 -0.4581
   92SAPE   H2X 9019   5.754   3.605   5.529 -0.0085 -0.4572  1.3812
   92SAPE   H2Y 9020   5.596   3.636   5.450 -0.8808  0.4919  1.2710
   92SAPE   C23 9021   5.441   3.052   5.890  0.1659  0.0412 -0.8478
   92SAPE   H3R 9022   5.344   3.102   5.913 -0.0757 -0.1732 -1.3876
   92SAPE   H3S 9023   5.482   3.022   5.989  0.5974  1.4858 -0.5646
   92SAPE   C24 9024   5.411   2.922   5.817  0.2755  1.0844  0.0865
   92SAPE   H4R 9025   5.379   2.953   5.715  0.4268  0.7200 -0.0713
   92SAPE   H4S 9026   5.314   2.886   5.858 -1.2645  2.9999 -1.6606
   92SAPE   C25 9027   5.516   2.814   5.804 -0.7229  0.1610 -0.3030
   92SAPE   H5R 9028   5.566   2.786   5.898 -0.4994  0.7065 -0.2520
   92SAPE   C26 9029   5.568   2.768   5.685 -0.4901 -0.0746 -0.4362
   92SAPE   H6R 9030   5.652   2.696   5.684  0.7790  1.2952  1.7723
   92SAPE   C27 9031   5.514   2.813   5.546  0.3197  0.3165 -0.1691
   92SAPE   H7R 9032   5.581   2.770   5.469 -1.0397 -0.2350 -1.0759
   92SAPE   H7S 9033   5.516   2.923   5.530 -1.9680  0.3196 -0.6785
   92SAPE   C28 9034   5.375   2.780   5.499 -0.3049 -0.3704  0.1628
   92SAPE   H8R 9035   5.307   2.777   5.586 -0.9195  1.6015 -0.2089
   92SAPE   C29 9036   5.328   2.781   5.373 -0.0238  0.0209  1.0791
   92SAPE   H9R 9037   5.222   2.758   5.355  0.0862 -1.0322  1.7030
   92SAPE  C210 9038   5.409   2.793   5.246 -0.7171  0.1572  0.0134
   92SAPE  H10R 9039   5.519   2.783   5.263 -0.8630  0.1692  1.0325
   92SAPE  H10S 9040   5.406   2.899   5.214 -0.9556 -0.2921 -1.4937
   92SAPE  C211 9041   5.367   2.701   5.140  0.5930  0.2576 -0.0219
   92SAPE  H11R 9042   5.303   2.619   5.174 -0.6875  0.5568 -1.5945
   92SAPE  C212 9043   5.396   2.710   5.010  0.3420  0.3573  0.3504
   92SAPE  H12R 9044   5.362   2.634   4.938  2.1088 -1.2559  1.1415
   92SAPE  C213 9045   5.464   2.832   4.947  0.3290  0.0769  1.3876
   92SAPE  H13R 9046   5.565   2.847   4.989  1.2744  3.8781 -1.6405
   92SAPE  H13S 9047   5.414   2.928   4.969  0.8013  0.9358 -0.9878
   92SAPE  C214 9048   5.493   2.830   4.797 -0.2040 -0.6803  0.6284
   92SAPE  H14R 9049   5.577   2.770   4.758 -1.0111 -1.6434  0.3238
   92SAPE  C215 9050   5.415   2.884   4.705 -1.0845 -0.2009 -0.3263
   92SAPE  H15R 9051   5.462   2.892   4.606 -0.5842 -1.2749 -0.1991
   92SAPE  C216 9052   5.294   2.968   4.717  0.2351  0.4171 -0.6801
   92SAPE  H16R 9053   5.291   3.057   4.650 -0.5886  0.3579 -0.7437
   92SAPE  H16S 9054   5.283   2.997   4.823  0.5419 -1.3968 -0.1063
   92SAPE  C217 9055   5.173   2.891   4.689  0.1892  0.4843 -0.6949
   92SAPE  H17R 9056   5.090   2.962   4.706  0.3616  0.1787  1.7436
   92SAPE  H17S 9057   5.150   2.813   4.766 -1.6468  0.6897 -0.9900
   92SAPE  C218 9058   5.161   2.825   4.554 -0.2213  0.2178  0.6271
   92SAPE  H18R 9059   5.242   2.759   4.516 -3.3907 -2.6904 -1.6446
   92SAPE  H18S 9060   5.166   2.908   4.480  0.7831 -0.5277 -0.1716
   92SAPE  C219 9061   5.025   2.754   4.538  0.4340  0.4022  0.2391
   92SAPE  H19R 9062   4.946   2.827   4.567  2.0636  1.7929  1.3403
   92SAPE  H19S 9063   5.011   2.672   4.612  3.1353 -0.1009  0.2764
   92SAPE  C220 9064   5.000   2.693   4.396  0.0341  0.1055 -0.4002
   92SAPE  H20R 9065   5.083   2.628   4.361 -0.8382 -1.0044 -0.5021
   92SAPE  H20S 9066   4.990   2.785   4.335 -0.9695  0.7012  0.6208
   92SAPE  H20T 9067   4.906   2.633   4.385  0.4220 -0.5195 -0.3637
   92SAPE   C33 9068   5.657   3.429   5.438  0.2057  0.4329 -0.0559
   92SAPE   H3X 9069   5.693   3.450   5.335  2.5016 -0.9063  0.4030
   92SAPE   H3Y 9070   5.563   3.371   5.439  1.2736 -1.3732  0.9155
   92SAPE   C34 9071   5.775   3.345   5.492 -0.6964  0.9122 -0.3068
   92SAPE   H4X 9072   5.745   3.279   5.576  1.2323 -0.2431 -0.4426
   92SAPE   H4Y 9073   5.852   3.409   5.541 -0.0310 -0.0327 -0.0774
   92SAPE   C35 9074   5.843   3.254   5.387 -0.8502 -0.8342  0.0080
   92SAPE   H5X 9075   5.952   3.250   5.409 -1.1779 -1.5591  1.6301
   92SAPE   H5Y 9076   5.827   3.291   5.283  1.1393  1.1937  0.3338
   92SAPE   C36 9077   5.812   3.107   5.398 -0.0277 -0.5562  1.1274
   92SAPE   H6X 9078   5.703   3.091   5.389  0.0313 -0.2681 -0.3733
   92SAPE   H6Y 9079   5.830   3.071   5.502 -0.4563 -0.4707  1.2328
   92SAPE   C37 9080   5.892   3.019   5.311 -0.3662  0.4907 -0.7579
   92SAPE   H7X 9081   5.998   3.022   5.345 -0.6020 -0.5975  0.1168
   92SAPE   H7Y 9082   5.880   3.041   5.203 -1.1768 -0.8007 -0.9587
   92SAPE   C38 9083   5.845   2.874   5.336  0.2546 -0.0573  0.4963
   92SAPE   H8X 9084   5.734   2.868   5.342  0.3260 -0.4862  1.5012
   92SAPE   H8Y 9085   5.881   2.853   5.439  2.2820  0.3137 -0.1025
   92SAPE   C39 9086   5.908   2.774   5.237  0.8409 -0.5795  0.1875
   92SAPE   H9X 9087   5.874   2.669   5.248 -1.2441 -0.1580 -1.4465
   92SAPE   H9Y 9088   6.016   2.769   5.261  1.0166  2.3007  0.4021
   92SAPE  C310 9089   5.864   2.805   5.094  0.3268  0.2335  0.2779
   92SAPE  H10X 9090   5.869   2.911   5.062 -1.0083  0.3128  0.2665
   92SAPE  H10Y 9091   5.756   2.783   5.083  1.0647 -2.2525 -3.9685
   92SAPE  C311 9092   5.953   2.733   4.980  0.2575  0.6582  0.4696
   92SAPE  H11X 9093   5.970   2.628   5.010  1.0742  1.1781  1.9379
   92SAPE  H11Y 9094   6.059   2.766   4.983  0.0998  1.1126  2.9170
   92SAPE  C312 9095   5.883   2.742   4.833 -0.1443  0.1703 -0.1221
   92SAPE  H12X 9096   5.842   2.845   4.821 -0.0927  0.3285  0.9418
   92SAPE  H12Y 9097   5.798   2.671   4.833  0.6900 -0.9621 -2.9811
   92SAPE  C313 9098   5.971   2.706   4.714 -0.8135 -0.3052  0.1791
   92SAPE  H13X 9099   5.920   2.744   4.623 -1.6231 -2.0942 -0.1407
   92SAPE  H13Y 9100   5.975   2.596   4.708  3.0164 -0.2158 -1.3482
   92SAPE  C314 9101   6.120   2.764   4.736  0.2166  0.6309  0.5156
   92SAPE  H14X 9102   6.176   2.702   4.810  1.0384  0.6989 -0.0352
   92SAPE  H14Y 9103   6.114   2.868   4.774 -0.3909  0.1710  1.7208
   92SAPE  C315 9104   6.200   2.760   4.600 -0.1535 -0.4530 -0.0070
   92SAPE  H15X 9105   6.156   2.815   4.514  0.6229 -3.0631 -2.2335
   92SAPE  H15Y 9106   6.218   2.654   4.571 -2.5942 -0.2679 -2.6788
   92SAPE  C316 9107   6.334   2.832   4.625 -0.1198 -0.1753  0.6429
   92SAPE  H16X 9108   6.390   2.786   4.709  0.6209 -0.1807  0.1495
   92SAPE  H16Y 9109   6.308   2.937   4.652 -0.2354 -0.1400  0.3960
   92SAPE  C317 9110   6.433   2.850   4.512  0.3939 -0.0240  0.3913
   92SAPE  H17X 9111   6.510   2.926   4.536 -0.6766  1.5375 -0.8751
   92SAPE  H17Y 9112   6.383   2.882   4.417  2.5317 -0.5567 -0.9813
   92SAPE  C318 9113   6.511   2.725   4.468 -0.7271 -0.2539 -0.0387
   92SAPE  H18X 9114   6.573   2.703   4.558 -0.4165  1.6996  0.2576
   92SAPE  H18Y 9115   6.577   2.754   4.384 -1.8669 -0.1710 -0.9411
   92SAPE  H18Z 9116   6.443   2.638   4.453 -1.0607  0.1306 -0.7783
   93SAPE     N 9117   3.053   0.046   6.717 -0.1002 -0.1938  0.0451
   93SAPE   HN1 9118   2.956   0.085   6.720 -0.4542 -0.6268 -2.9150
   93SAPE   HN2 9119   3.082   0.020   6.814  0.7938 -3.0217 -0.8902
   93SAPE   HN3 9120   3.120   0.119   6.685  0.0279  0.2218  1.2209
   93SAPE   C12 9121   3.045  -0.074   6.626 -0.4162  0.6461 -0.3276
   93SAPE  H12A 9122   3.032  -0.032   6.524 -2.5241  1.7626  0.3263
   93SAPE  H12B 9123   2.967  -0.147   6.657 -0.2032  0.1433 -0.9551
   93SAPE   C11 9124   3.186  -0.141   6.613 -0.3491 -0.2944 -0.3013
   93SAPE  H11A 9125   3.179  -0.224   6.538 -0.5322 -0.6554  0.1109
   93SAPE  H11B 9126   3.208  -0.179   6.715 -2.5759  2.2049  1.2475
   93SAPE     P 9127   3.414  -0.087   6.518 -0.2121 -0.1772  0.4778
   93SAPE   O13 9128   3.519  -0.022   6.593 -0.2252 -0.2959 -0.6696
   93SAPE   O14 9129   3.430  -0.237   6.502 -0.6662 -0.2841 -0.2466
   93SAPE   O12 9130   3.281  -0.043   6.585  0.2547 -0.5060  0.0520
   93SAPE   O11 9131   3.423  -0.023   6.372  0.1567  0.4256  0.5561
   93SAPE    C1 9132   3.412   0.105   6.330  1.0124  0.2920 -1.2660
   93SAPE    HA 9133   3.343   0.111   6.243 -1.7983 -0.6126  0.7683
   93SAPE    HB 9134   3.354   0.164   6.404 -1.5953 -2.0102 -1.3178
   93SAPE    C2 9135   3.547   0.164   6.284  0.1659 -0.6682 -0.5321
   93SAPE    HS 9136   3.602   0.173   6.381  1.3054 -0.7208 -1.1523
   93SAPE   O21 9137   3.516   0.294   6.222 -0.1714  0.9363  0.2062
   93SAPE   C21 9138   3.606   0.384   6.251 -0.4066  0.0871  0.2054
   93SAPE   O22 9139   3.707   0.370   6.318  0.1078  0.6810 -0.4073
   93SAPE   C22 9140   3.568   0.523   6.182  0.4175  0.3177 -0.7543
   93SAPE   H2R 9141   3.528   0.492   6.083 -1.6763 -0.5486  0.3027
   93SAPE   H2S 9142   3.489   0.562   6.249  0.6689 -0.7730  0.2039
   93SAPE    C3 9143   3.611   0.068   6.181  0.1619  0.0375  0.1062
   93SAPE    HX 9144   3.541   0.045   6.098  1.0027  2.7673 -1.4928
   93SAPE    HY 9145   3.633  -0.028   6.231  2.3854  0.5462  0.2120
   93SAPE   O31 9146   3.730   0.125   6.119  0.0322  0.5545 -0.0835
   93SAPE   C31 9147   3.790   0.048   6.027  0.4080 -0.3113  0.1862
   93SAPE   O32 9148   3.736  -0.039   5.967 -0.3228 -0.3389  0.5320
   93SAPE   C32 9149   3.930   0.099   6.007  0.0923 -0.3011 -0.9865
   93SAPE   H2X 9150   3.999   0.014   5.995  1.9327  1.2162 -1.7094
   93SAPE   H2Y 9151   3.950   0.166   6.094 -0.2096 -0.6654 -0.6345
   93SAPE   C23 9152   3.689   0.619   6.150  0.1437  0.1736 -0.2408
   93SAPE   H3R 9153   3.754   0.627   6.240  0.4532 -4.2005  0.1153
   93SAPE   H3S 9154   3.649   0.723   6.145 -0.7289 -0.1665 -0.4479
   93SAPE   C24 9155   3.772   0.576   6.029  0.1103  0.3358  0.5266
   93SAPE   H4R 9156   3.706   0.586   5.941 -0.4107 -0.1828  0.8566
   93SAPE   H4S 9157   3.801   0.470   6.019 -0.7647 -0.2784  3.4367
   93SAPE   C25 9158   3.886   0.679   6.010 -0.3253  0.6675 -0.1605
   93SAPE   H5R 9159   3.918   0.738   6.098  0.6608  0.9765 -0.7127
   93SAPE   C26 9160   3.965   0.697   5.901 -0.2120  0.4499 -0.6814
   93SAPE   H6R 9161   4.037   0.780   5.903 -1.8866  1.9521 -0.1417
   93SAPE   C27 9162   3.945   0.613   5.775 -0.5377  0.2873  0.2907
   93SAPE   H7R 9163   3.889   0.519   5.794 -1.5979  1.0773  1.2167
   93SAPE   H7S 9164   4.047   0.587   5.741  0.6251  0.9450  3.0096
   93SAPE   C28 9165   3.872   0.687   5.672  0.1532 -0.2793 -0.1914
   93SAPE   H8R 9166   3.807   0.768   5.709  1.7649  0.2933  1.5780
   93SAPE   C29 9167   3.871   0.657   5.538 -0.0896 -0.3289  0.4799
   93SAPE   H9R 9168   3.815   0.723   5.471 -1.2157  0.1278  1.8289
   93SAPE  C210 9169   3.949   0.540   5.489  0.3341  0.3210 -0.1943
   93SAPE  H10R 9170   3.898   0.495   5.401  0.1360 -1.3282  0.7236
   93SAPE  H10S 9171   3.956   0.458   5.564  0.4474  0.6108  0.1111
   93SAPE  C211 9172   4.090   0.584   5.446 -0.7461  0.0677 -0.5351
   93SAPE  H11R 9173   4.148   0.643   5.519  0.1608  1.3100 -2.2019
   93SAPE  C212 9174   4.143   0.594   5.322  0.4115  0.9608 -0.4147
   93SAPE  H12R 9175   4.237   0.647   5.304 -0.2271  2.4341  0.3409
   93SAPE  C213 9176   4.076   0.544   5.201  0.5109 -0.7140 -0.5543
   93SAPE  H13R 9177   3.968   0.531   5.221  0.2770  2.5642  0.9388
   93SAPE  H13S 9178   4.123   0.444   5.189  0.4080 -0.8549  0.2063
   93SAPE  C214 9179   4.081   0.637   5.083 -0.2519  0.1822  0.0963
   93SAPE  H14R 9180   4.150   0.722   5.088 -0.4257  0.3993 -0.9930
   93SAPE  C215 9181   4.005   0.626   4.973  0.3676  0.3042 -0.2353
   93SAPE  H15R 9182   4.005   0.700   4.891  0.0654 -0.4990 -0.9748
   93SAPE  C216 9183   3.909   0.509   4.950 -0.2200 -0.6475  0.1042
   93SAPE  H16R 9184   3.849   0.491   5.041 -1.0591  3.4356  0.5382
   93SAPE  H16S 9185   3.973   0.421   4.928  0.0110 -0.1945 -1.1665
   93SAPE  C217 9186   3.824   0.522   4.817  1.1221 -0.1350  0.2687
   93SAPE  H17R 9187   3.791   0.627   4.825  0.7022 -0.2456  0.0033
   93SAPE  H17S 9188   3.729   0.465   4.823  0.8374  0.2980 -0.0398
   93SAPE  C218 9189   3.902   0.502   4.686  0.9272  0.6457 -0.2345
   93SAPE  H18R 9190   3.834   0.444   4.621 -0.2481  1.6428  0.0779
   93SAPE  H18S 9191   3.991   0.437   4.704  0.1600  0.2973  2.9142
   93SAPE  C219 9192   3.927   0.625   4.595 -0.4838 -0.2006 -0.1461
   93SAPE  H19R 9193   3.971   0.584   4.502  0.1681 -2.3014  1.0269
   93SAPE  H19S 9194   3.991   0.701   4.644 -0.7370 -0.0881  0.0171
   93SAPE  C220 9195   3.806   0.703   4.546  0.1008 -0.0383 -0.2392
   93SAPE  H20R 9196   3.852   0.787   4.489 -1.1958  2.1753  1.7982
   93SAPE  H20S 9197   3.737   0.731   4.628 -1.0096  0.3690 -1.2711
   93SAPE  H20T 9198   3.745   0.638   4.479  0.0001  1.4893 -1.7050
   93SAPE   C33 9199   3.945   0.185   5.881 -0.1495  0.1854  0.4241
   93SAPE   H3X 9200   4.039   0.245   5.886 -1.2700  1.9585  0.8866
   93SAPE   H3Y 9201   3.867   0.260   5.858  1.1317  1.2922 -0.5401
   93SAPE   C34 9202   3.947   0.101   5.758 -0.9416  0.5231  0.0993
   93SAPE   H4X 9203   3.855   0.038   5.762  0.1317 -1.1648 -0.6764
   93SAPE   H4Y 9204   4.036   0.035   5.760  1.7406  3.8175 -0.6531
   93SAPE   C35 9205   3.944   0.178   5.628  0.7335  0.5370  0.3912
   93SAPE   H5X 9206   4.043   0.226   5.614 -0.1348  1.8812 -1.5176
   93SAPE   H5Y 9207   3.872   0.262   5.643 -0.2072  0.8120 -4.0749
   93SAPE   C36 9208   3.892   0.091   5.507  0.5309  0.4706  0.3829
   93SAPE   H6X 9209   3.802   0.038   5.545  0.9461 -1.7236 -1.4597
   93SAPE   H6Y 9210   3.960   0.006   5.487 -0.7607 -0.2537 -1.1374
   93SAPE   C37 9211   3.871   0.171   5.382  0.3341 -0.2979 -0.1393
   93SAPE   H7X 9212   3.966   0.228   5.378  0.4757 -0.5889 -1.7392
   93SAPE   H7Y 9213   3.789   0.245   5.386 -0.4460 -1.1581  0.1573
   93SAPE   C38 9214   3.840   0.086   5.261 -1.0450  0.1715  0.5929
   93SAPE   H8X 9215   3.734   0.054   5.263 -0.7989 -0.7691 -0.2462
   93SAPE   H8Y 9216   3.902  -0.006   5.268 -0.1784  0.6405 -0.5362
   93SAPE   C39 9217   3.864   0.157   5.134  0.9743  0.0083  0.0413
   93SAPE   H9X 9218   3.964   0.206   5.141  0.7402  0.2494  3.4254
   93SAPE   H9Y 9219   3.790   0.238   5.117  0.4689 -0.7179 -1.2762
   93SAPE  C310 9220   3.858   0.062   5.018 -0.1760 -0.1356 -0.5722
   93SAPE  H10X 9221   3.765   0.000   5.022 -0.5344  0.4158 -0.1677
   93SAPE  H10Y 9222   3.924  -0.024   5.042 -0.9339 -0.3068  1.0884
   93SAPE  C311 9223   3.883   0.120   4.888  0.0811  0.3019  1.1057
   93SAPE  H11X 9224   3.967   0.189   4.864 -0.1391  1.0313  2.3624
   93SAPE  H11Y 9225   3.802   0.195   4.875  0.6209  0.7907  0.5179
   93SAPE  C312 9226   3.871   0.008   4.779  0.4096  0.1706 -0.3342
   93SAPE  H12X 9227   3.796  -0.061   4.822  0.2886 -1.1998 -2.5444
   93SAPE  H12Y 9228   3.964  -0.052   4.771  0.1806  0.0189 -2.5047
   93SAPE  C313 9229   3.815   0.053   4.655 -0.0077 -0.0885  0.6392
   93SAPE  H13X 9230   3.888   0.128   4.616 -0.6509 -0.3788 -1.2266
   93SAPE  H13Y 9231   3.726   0.113   4.684  1.5091  0.8002  3.8615
   93SAPE  C314 9232   3.782  -0.047   4.540 -0.1452 -0.1212  0.7303
   93SAPE  H14X 9233   3.708  -0.117   4.585  0.4699 -0.3647  1.3723
   93SAPE  H14Y 9234   3.879  -0.096   4.519 -0.3902 -0.1072 -0.5147
   93SAPE  C315 9235   3.724   0.020   4.420  0.0123 -0.5068  0.5711
   93SAPE  H15X 9236   3.800   0.096   4.393 -1.9681  1.9483  1.5283
   93SAPE  H15Y 9237   3.634   0.078   4.449  0.8782  0.5755  1.1571
   93SAPE  C316 9238   3.687  -0.082   4.307 -0.4895  0.0988  0.2675
   93SAPE  H16X 9239   3.774  -0.149   4.289 -0.9563 -0.7036  0.9252
   93SAPE  H16Y 9240   3.652  -0.020   4.222 -0.8744 -2.8055 -1.8139
   93SAPE  C317 9241   3.571  -0.178   4.337  0.0324 -0.1686 -1.2270
   93SAPE  H17X 9242   3.480  -0.120   4.363  0.8652  0.7659 -0.2994
   93SAPE  H17Y 9243   3.579  -0.233   4.434 -0.3571 -0.8734 -1.5842
   93SAPE  C318 9244   3.541  -0.285   4.234 -0.2295 -0.6923  0.0060
   93SAPE  H18X 9245   3.439  -0.328   4.248 -0.8574 -0.1799 -2.5377
   93SAPE  H18Y 9246   3.624  -0.358   4.237  0.6072  0.2424  0.4281
   93SAPE  H18Z 9247   3.548  -0.248   4.129 -0.7556 -0.5745  0.0093
   94SAPE     N 9248   1.327   3.616   6.479 -0.1857 -0.2216  0.0121
   94SAPE   HN1 9249   1.255   3.680   6.440 -0.3116 -0.2307  0.2295
   94SAPE   HN2 9250   1.299   3.523   6.441  1.5379 -1.4315  1.4992
   94SAPE   HN3 9251   1.310   3.611   6.581 -1.1322 -0.4239 -0.1518
   94SAPE   C12 9252   1.471   3.653   6.444  0.0229 -0.0611  0.4692
   94SAPE  H12A 9253   1.535   3.621   6.529 -0.6280  0.2188  1.0804
   94SAPE  H12B 9254   1.473   3.764   6.445 -0.1390 -0.0549  0.1625
   94SAPE   C11 9255   1.519   3.600   6.308  1.1888 -0.1773  0.2657
   94SAPE  H11A 9256   1.600   3.669   6.276 -0.0676  1.2936  0.1340
   94SAPE  H11B 9257   1.437   3.616   6.235  0.0752  0.2169  1.5594
   94SAPE     P 9258   1.472   3.337   6.293 -0.2492 -0.2159  0.0344
   94SAPE   O13 9259   1.548   3.214   6.320 -0.3724 -0.1158 -0.2793
   94SAPE   O14 9260   1.345   3.364   6.362 -0.2779 -0.4663 -0.3436
   94SAPE   O12 9261   1.565   3.462   6.320  0.1122 -0.1267  0.1613
   94SAPE   O11 9262   1.446   3.360   6.138  0.6209  0.0456  0.8346
   94SAPE    C1 9263   1.552   3.350   6.044  0.1548 -0.2976 -0.0802
   94SAPE    HA 9264   1.607   3.446   6.043 -1.3497  0.7197  2.5395
   94SAPE    HB 9265   1.626   3.271   6.070  0.8955 -0.7736 -3.2289
   94SAPE    C2 9266   1.501   3.327   5.906 -0.0055  0.1845  0.2637
   94SAPE    HS 9267   1.584   3.319   5.833  1.0597  0.1202  1.4516
   94SAPE   O21 9268   1.414   3.443   5.875  0.3274  0.5016  0.9503
   94SAPE   C21 9269   1.394   3.451   5.741 -0.3607 -0.1797  0.3459
   94SAPE   O22 9270   1.468   3.404   5.656  0.0734 -0.4846  0.2285
   94SAPE   C22 9271   1.266   3.533   5.700  0.0287  0.4699  0.8401
   94SAPE   H2R 9272   1.176   3.469   5.714  0.5474 -0.5555 -0.2926
   94SAPE   H2S 9273   1.263   3.620   5.768 -3.0213  2.3389 -1.4465
   94SAPE    C3 9274   1.421   3.192   5.897 -0.5315 -0.5332 -0.2367
   94SAPE    HX 9275   1.327   3.223   5.947 -0.7546 -0.1954 -0.8501
   94SAPE    HY 9276   1.468   3.113   5.959  0.3691 -1.8160 -2.4174
   94SAPE   O31 9277   1.390   3.148   5.771  0.4215 -0.4670  0.1223
   94SAPE   C31 9278   1.483   3.096   5.694 -0.4018 -0.0281  0.9723
   94SAPE   O32 9279   1.598   3.074   5.725  0.3619  0.1467  0.5496
   94SAPE   C32 9280   1.417   3.071   5.558  0.0314 -0.3035  0.6684
   94SAPE   H2X 9281   1.398   3.173   5.519  1.0681 -0.5142 -0.4772
   94SAPE   H2Y 9282   1.322   3.021   5.585 -0.3038  0.4603  0.9135
   94SAPE   C23 9283   1.267   3.599   5.558  0.9694  0.5243 -0.1158
   94SAPE   H3R 9284   1.366   3.636   5.526  1.2649 -0.4713 -0.3899
   94SAPE   H3S 9285   1.201   3.688   5.561 -0.9376 -0.8452  0.1832
   94SAPE   C24 9286   1.216   3.509   5.439 -0.3868  0.6215  0.7456
   94SAPE   H4R 9287   1.108   3.489   5.453 -0.5037  1.4052  1.0097
   94SAPE   H4S 9288   1.280   3.419   5.454 -1.0749 -0.2198 -1.1356
   94SAPE   C25 9289   1.226   3.576   5.301 -0.8689  0.0486 -0.4298
   94SAPE   H5R 9290   1.181   3.677   5.296  0.4857  0.6929 -0.2059
   94SAPE   C26 9291   1.279   3.511   5.194  0.1361 -0.3793 -0.5489
   94SAPE   H6R 9292   1.284   3.560   5.095 -1.5038 -2.3330 -1.6906
   94SAPE   C27 9293   1.346   3.374   5.207  0.5993  0.3806  0.9308
   94SAPE   H7R 9294   1.388   3.360   5.309 -0.3771  2.2804  1.6512
   94SAPE   H7S 9295   1.439   3.366   5.146  1.9575 -2.8354  3.1463
   94SAPE   C28 9296   1.250   3.266   5.169 -0.4472  0.1740 -0.1709
   94SAPE   H8R 9297   1.161   3.266   5.234  0.4407  0.6210  1.0985
   94SAPE   C29 9298   1.244   3.192   5.063  0.3590 -0.2994  1.2263
   94SAPE   H9R 9299   1.161   3.121   5.049  1.0065 -0.9398  0.5519
   94SAPE  C210 9300   1.361   3.188   4.971 -0.1621 -0.0136 -0.5590
   94SAPE  H10R 9301   1.456   3.168   5.026 -0.3227 -1.8915 -0.9116
   94SAPE  H10S 9302   1.374   3.291   4.932 -0.4867 -0.0690 -0.8121
   94SAPE  C211 9303   1.336   3.091   4.859  0.1035 -0.0004 -0.4773
   94SAPE  H11R 9304   1.327   2.988   4.896  1.1778  0.8677  2.5632
   94SAPE  C212 9305   1.338   3.117   4.724 -1.0930  0.8569 -0.5316
   94SAPE  H12R 9306   1.309   3.033   4.660 -2.5606  0.0821  1.0464
   94SAPE  C213 9307   1.375   3.245   4.656 -0.0840 -0.2536 -0.1607
   94SAPE  H13R 9308   1.458   3.295   4.710 -0.4627 -1.9442  2.1745
   94SAPE  H13S 9309   1.286   3.310   4.644  0.5995  0.4554 -1.5413
   94SAPE  C214 9310   1.414   3.227   4.509 -0.2517 -0.0459  0.4940
   94SAPE  H14R 9311   1.390   3.134   4.456  0.1855 -0.4582  1.0130
   94SAPE  C215 9312   1.465   3.323   4.431  0.4483  0.1839  0.9454
   94SAPE  H15R 9313   1.498   3.290   4.331  1.9741 -0.9285  1.7790
   94SAPE  C216 9314   1.495   3.467   4.476 -0.7927 -0.0785  0.4570
   94SAPE  H16R 9315   1.598   3.497   4.449 -1.2607  2.8423  1.5247
   94SAPE  H16S 9316   1.495   3.475   4.587  1.5525 -1.1597  0.5953
   94SAPE  C217 9317   1.394   3.567   4.416 -0.4486 -0.1742  0.5722
   94SAPE  H17R 9318   1.421   3.668   4.454  0.1386 -0.6187  1.3709
   94SAPE  H17S 9319   1.295   3.545   4.461 -0.9373  2.4969  0.9641
   94SAPE  C218 9320   1.386   3.577   4.261  0.6319  0.1150 -0.5134
   94SAPE  H18R 9321   1.290   3.614   4.220  0.7423  2.6668  1.2894
   94SAPE  H18S 9322   1.388   3.472   4.223  0.7377  0.8545 -2.6721
   94SAPE  C219 9323   1.498   3.652   4.197  0.4233  0.0692  0.3147
   94SAPE  H19R 9324   1.591   3.603   4.234  1.4230  1.8921  0.3144
   94SAPE  H19S 9325   1.487   3.756   4.234 -1.4591  0.3485 -0.9027
   94SAPE  C220 9326   1.501   3.644   4.043 -0.1523 -0.2523 -0.4075
   94SAPE  H20R 9327   1.601   3.677   4.008  0.5671 -1.7431  0.1545
   94SAPE  H20S 9328   1.429   3.700   3.980 -0.2698  0.3122  0.2143
   94SAPE  H20T 9329   1.477   3.538   4.019 -1.2455 -0.4470  1.3770
   94SAPE   C33 9330   1.517   2.995   5.471 -0.2009  0.2377  0.8489
   94SAPE   H3X 9331   1.531   2.895   5.519 -1.0064  0.3806  1.3904
   94SAPE   H3Y 9332   1.612   3.052   5.466  0.7455 -1.3248 -0.1284
   94SAPE   C34 9333   1.466   2.970   5.327 -0.1874 -0.2335  0.3810
   94SAPE   H4X 9334   1.555   2.968   5.259 -0.3165  0.0712  0.1961
   94SAPE   H4Y 9335   1.405   3.059   5.298  1.7240  0.0737 -3.2706
   94SAPE   C35 9336   1.376   2.847   5.317  0.3624  0.1584 -0.3524
   94SAPE   H5X 9337   1.289   2.877   5.379  0.0024  0.5805 -1.0496
   94SAPE   H5Y 9338   1.426   2.764   5.372 -2.9093 -1.5535  0.2667
   94SAPE   C36 9339   1.334   2.818   5.179  0.2632  0.8585  0.3842
   94SAPE   H6X 9340   1.405   2.859   5.104  0.8742 -1.9608 -0.7401
   94SAPE   H6Y 9341   1.239   2.872   5.159  0.4961  1.8290  1.7966
   94SAPE   C37 9342   1.308   2.667   5.152  0.6751  0.9239 -0.1621
   94SAPE   H7X 9343   1.217   2.641   5.210  0.7953  0.7915 -0.0291
   94SAPE   H7Y 9344   1.387   2.596   5.186  0.4489  0.3959 -0.7173
   94SAPE   C38 9345   1.281   2.627   5.000 -0.4338 -0.1797 -0.9417
   94SAPE   H8X 9346   1.194   2.690   4.973 -0.2083  0.3534 -0.4235
   94SAPE   H8Y 9347   1.267   2.517   4.990  0.4979 -0.8659  3.3637
   94SAPE   C39 9348   1.398   2.663   4.907 -0.9036  0.1437  0.1403
   94SAPE   H9X 9349   1.488   2.674   4.971 -0.5064 -1.8454 -0.0071
   94SAPE   H9Y 9350   1.386   2.763   4.861 -2.0179  0.1173  0.3418
   94SAPE  C310 9351   1.431   2.548   4.808 -0.3617 -0.3091 -0.2704
   94SAPE  H10X 9352   1.443   2.449   4.857  1.8832  0.1746  0.2512
   94SAPE  H10Y 9353   1.533   2.566   4.767 -0.8431 -1.2525 -2.0011
   94SAPE  C311 9354   1.328   2.538   4.693  0.6701  0.5649  0.4937
   94SAPE  H11X 9355   1.298   2.634   4.648 -1.9674 -0.7425 -0.7509
   94SAPE  H11Y 9356   1.231   2.498   4.729  0.4037  0.2755 -0.5225
   94SAPE  C312 9357   1.387   2.454   4.579 -0.3631 -0.0866  0.3987
   94SAPE  H12X 9358   1.402   2.348   4.606  0.2601 -0.5213 -1.5063
   94SAPE  H12Y 9359   1.488   2.498   4.564 -0.4835  0.0996  0.1084
   94SAPE  C313 9360   1.312   2.470   4.444 -0.2946 -0.2320  0.1860
   94SAPE  H13X 9361   1.291   2.579   4.435  2.2834  0.4231  1.1078
   94SAPE  H13Y 9362   1.215   2.417   4.445  0.0557 -0.9084 -1.0334
   94SAPE  C314 9363   1.385   2.426   4.313 -0.3047 -0.0894  0.0841
   94SAPE  H14X 9364   1.478   2.487   4.309 -0.2650 -0.0982  0.7752
   94SAPE  H14Y 9365   1.319   2.461   4.230  1.3060  0.0343 -1.2052
   94SAPE  C315 9366   1.420   2.276   4.303 -0.2203  0.2651 -0.0595
   94SAPE  H15X 9367   1.321   2.226   4.307 -0.5904  0.7506 -2.0963
   94SAPE  H15Y 9368   1.478   2.244   4.392 -1.2556 -1.7060 -0.0400
   94SAPE  C316 9369   1.493   2.250   4.171 -0.1817 -0.2182  0.0541
   94SAPE  H16X 9370   1.592   2.297   4.156  0.2505 -1.1025  0.0474
   94SAPE  H16Y 9371   1.426   2.279   4.087  0.4058  2.5227  0.4529
   94SAPE  C317 9372   1.518   2.099   4.149 -0.1780 -0.5318 -0.0557
   94SAPE  H17X 9373   1.578   2.089   4.056 -1.5951  0.1814 -1.0989
   94SAPE  H17Y 9374   1.419   2.055   4.127 -0.4765  0.2901 -0.4368
   94SAPE  C318 9375   1.590   2.034   4.264  0.0585 -0.0922 -0.4814
   94SAPE  H18X 9376   1.612   1.929   4.236  1.6214  0.1459 -0.2223
   94SAPE  H18Y 9377   1.534   2.026   4.359  2.4255  0.5819  1.0443
   94SAPE  H18Z 9378   1.688   2.084   4.281 -0.6861  0.8100  1.3563
   95SAPE     N 9379   4.938   0.265   6.353 -0.1525  0.1810  0.1829
   95SAPE   HN1 9380   4.864   0.239   6.284  2.8046  0.3705 -3.3788
   95SAPE   HN2 9381   5.016   0.200   6.335 -0.0503  0.9283 -2.5468
   95SAPE   HN3 9382   4.899   0.269   6.449  2.7090  0.0554  1.4350
   95SAPE   C12 9383   4.994   0.400   6.331  0.0207 -0.5814 -0.1535
   95SAPE  H12A 9384   4.913   0.475   6.315  1.7197  0.8558 -3.0003
   95SAPE  H12B 9385   5.052   0.409   6.237  1.7765  2.4975  1.0577
   95SAPE   C11 9386   5.080   0.432   6.456  0.8455  0.0883 -0.4547
   95SAPE  H11A 9387   5.151   0.512   6.429  3.1885 -2.0861 -1.1216
   95SAPE  H11B 9388   5.145   0.346   6.484 -1.2293 -1.8768 -1.2839
   95SAPE     P 9389   4.977   0.616   6.610  0.3192  0.1209  0.0748
   95SAPE   O13 9390   4.903   0.612   6.736 -0.5626 -0.4548  0.2701
   95SAPE   O14 9391   5.098   0.698   6.606 -0.1220 -0.7218 -0.0515
   95SAPE   O12 9392   4.996   0.463   6.572 -0.3593 -0.2067 -0.2744
   95SAPE   O11 9393   4.880   0.662   6.490 -0.2392 -0.0567  0.3050
   95SAPE    C1 9394   4.850   0.795   6.456 -0.2303  0.2711 -0.7330
   95SAPE    HA 9395   4.746   0.812   6.492 -0.1204  0.4150 -0.4837
   95SAPE    HB 9396   4.922   0.862   6.507  0.0911  0.2536 -1.1571
   95SAPE    C2 9397   4.859   0.819   6.307 -0.2602 -0.6664 -0.8019
   95SAPE    HS 9398   4.822   0.921   6.282 -0.8824 -0.5031  0.6844
   95SAPE   O21 9399   4.788   0.717   6.233 -0.3398  0.1585 -0.6300
   95SAPE   C21 9400   4.656   0.736   6.226  0.5394  0.7353 -0.5041
   95SAPE   O22 9401   4.591   0.831   6.276 -0.6473 -0.0611  0.1884
   95SAPE   C22 9402   4.605   0.622   6.141 -0.5073 -0.6064  0.4602
   95SAPE   H2R 9403   4.634   0.527   6.193 -0.9122 -0.5432  0.8040
   95SAPE   H2S 9404   4.495   0.612   6.137 -0.3183 -3.0233 -2.6611
   95SAPE    C3 9405   5.004   0.837   6.263 -0.0468 -0.1303 -0.2854
   95SAPE    HX 9406   5.053   0.740   6.285 -1.7343 -1.3378 -1.6281
   95SAPE    HY 9407   5.055   0.906   6.334 -1.0436  0.6359 -0.2880
   95SAPE   O31 9408   5.022   0.884   6.130 -1.0362  0.3368 -0.0962
   95SAPE   C31 9409   5.115   0.818   6.060  0.9602  0.4184  0.1294
   95SAPE   O32 9410   5.173   0.718   6.095  0.5372 -0.4860  0.4597
   95SAPE   C32 9411   5.141   0.900   5.936 -0.1208 -0.4933  0.1148
   95SAPE   H2X 9412   5.193   0.990   5.975 -0.1876 -0.3064 -0.2154
   95SAPE   H2Y 9413   5.042   0.937   5.903 -0.9023 -1.4604  1.3195
   95SAPE   C23 9414   4.656   0.629   5.987  0.3662 -0.7708  0.1981
   95SAPE   H3R 9415   4.705   0.727   5.970  1.0707 -1.2120 -0.3541
   95SAPE   H3S 9416   4.571   0.618   5.917 -1.3111 -0.6895  2.1247
   95SAPE   C24 9417   4.744   0.512   5.956 -0.1431 -0.3507 -0.6297
   95SAPE   H4R 9418   4.715   0.474   5.856 -0.3189  2.0031 -1.5580
   95SAPE   H4S 9419   4.708   0.434   6.026 -1.6709  0.0863 -0.9075
   95SAPE   C25 9420   4.891   0.525   5.970 -0.2605 -0.5331 -1.0062
   95SAPE   H5R 9421   4.928   0.520   6.074  0.8113  1.2239 -1.2691
   95SAPE   C26 9422   4.977   0.508   5.868 -0.6748  0.7006  0.7413
   95SAPE   H6R 9423   5.084   0.494   5.890 -0.1176  0.3168 -1.8932
   95SAPE   C27 9424   4.933   0.514   5.716 -0.0259  0.1022  0.4054
   95SAPE   H7R 9425   4.867   0.601   5.697 -0.3569 -0.3282 -0.4499
   95SAPE   H7S 9426   4.856   0.440   5.687 -0.6406  0.5899  0.7745
   95SAPE   C28 9427   5.039   0.517   5.617  0.5516  0.3664  0.5370
   95SAPE   H8R 9428   5.141   0.526   5.656  0.3208 -2.0263  1.9209
   95SAPE   C29 9429   5.028   0.543   5.486 -0.0443  0.1804  0.3837
   95SAPE   H9R 9430   5.128   0.545   5.440  0.1624 -0.2498  0.8047
   95SAPE  C210 9431   4.909   0.565   5.401  0.1185  0.0228 -0.0646
   95SAPE  H10R 9432   4.826   0.588   5.471  0.9301  0.8163  0.6581
   95SAPE  H10S 9433   4.894   0.466   5.354  0.8062  1.1381 -2.8635
   95SAPE  C211 9434   4.911   0.679   5.301 -0.6114  0.0744  0.4921
   95SAPE  H11R 9435   4.957   0.769   5.346  0.4732 -0.9750  1.5681
   95SAPE  C212 9436   4.847   0.682   5.183 -0.0981  0.3359 -0.4954
   95SAPE  H12R 9437   4.836   0.772   5.122  0.8224  1.6603  1.2152
   95SAPE  C213 9438   4.756   0.566   5.131  0.3018  0.2422 -0.7621
   95SAPE  H13R 9439   4.805   0.466   5.129  0.4830  0.3055  0.2685
   95SAPE  H13S 9440   4.721   0.594   5.029  0.6001  0.7106 -0.7411
   95SAPE  C214 9441   4.625   0.547   5.208 -0.3628 -0.7227  0.5813
   95SAPE  H14R 9442   4.633   0.479   5.293 -0.9275 -0.2836  0.9910
   95SAPE  C215 9443   4.499   0.591   5.174  0.2521 -0.0943  0.1340
   95SAPE  H15R 9444   4.418   0.560   5.241  0.6360  0.8830  1.0870
   95SAPE  C216 9445   4.477   0.694   5.067  0.4973  0.3551  0.0386
   95SAPE  H16R 9446   4.370   0.675   5.043  0.9663 -2.0620 -0.4094
   95SAPE  H16S 9447   4.529   0.668   4.973 -0.3993  0.5455 -0.5292
   95SAPE  C217 9448   4.487   0.843   5.101  0.1019 -0.4780  0.0564
   95SAPE  H17R 9449   4.588   0.875   5.134 -0.9984  1.3954  1.8550
   95SAPE  H17S 9450   4.429   0.863   5.193 -2.5004 -2.0201 -1.1334
   95SAPE  C218 9451   4.435   0.933   4.985 -0.7810 -0.4964 -0.0316
   95SAPE  H18R 9452   4.330   0.899   4.969 -1.3535  1.2130 -0.0621
   95SAPE  H18S 9453   4.494   0.920   4.892 -0.2626  4.6984 -0.7123
   95SAPE  C219 9454   4.404   1.077   5.023 -0.3566  0.6504  0.1038
   95SAPE  H19R 9455   4.500   1.123   5.057  2.2155 -3.6766 -0.5062
   95SAPE  H19S 9456   4.333   1.074   5.108 -0.7881 -2.3647 -0.2276
   95SAPE  C220 9457   4.358   1.161   4.905 -0.2879  0.0416 -0.3558
   95SAPE  H20R 9458   4.453   1.190   4.855  0.7655 -0.2498  1.3687
   95SAPE  H20S 9459   4.298   1.248   4.937  2.1828  2.5113 -1.9714
   95SAPE  H20T 9460   4.294   1.095   4.843  1.2235 -3.0206  1.0900
   95SAPE   C33 9461   5.223   0.832   5.826  0.3823 -0.6200  0.4541
   95SAPE   H3X 9462   5.189   0.731   5.796 -1.5864 -0.1539  0.9503
   95SAPE   H3Y 9463   5.323   0.812   5.870  1.5063 -1.1478 -2.1909
   95SAPE   C34 9464   5.243   0.926   5.700 -0.0702  0.2405  0.9903
   95SAPE   H4X 9465   5.325   1.000   5.715 -1.2572  1.5906  1.0821
   95SAPE   H4Y 9466   5.152   0.987   5.687 -0.9742 -1.1220  0.7703
   95SAPE   C35 9467   5.273   0.858   5.560 -0.2593  0.8208  0.3087
   95SAPE   H5X 9468   5.194   0.781   5.543  2.2694 -1.4212 -2.3894
   95SAPE   H5Y 9469   5.368   0.802   5.572  2.0813  4.0433 -1.6497
   95SAPE   C36 9470   5.278   0.952   5.441 -1.1861 -0.2536 -0.0629
   95SAPE   H6X 9471   5.362   1.024   5.456  0.2735 -1.9588  0.3180
   95SAPE   H6Y 9472   5.180   1.004   5.434 -0.8458  0.7649  1.8572
   95SAPE   C37 9473   5.317   0.868   5.313  0.1414  0.9274 -0.2908
   95SAPE   H7X 9474   5.239   0.790   5.301  1.3466 -0.4344  0.4557
   95SAPE   H7Y 9475   5.410   0.812   5.339  1.7565  2.9407 -1.3947
   95SAPE   C38 9476   5.318   0.952   5.186 -0.4154 -0.3253  0.8817
   95SAPE   H8X 9477   5.396   1.031   5.198 -1.1493  0.6765 -0.7021
   95SAPE   H8Y 9478   5.216   0.987   5.162 -0.5960 -2.3449 -1.7015
   95SAPE   C39 9479   5.368   0.869   5.062  0.1641 -0.4621 -0.3249
   95SAPE   H9X 9480   5.305   0.778   5.052  0.2288 -0.5928  0.3910
   95SAPE   H9Y 9481   5.474   0.842   5.085 -0.2293 -2.4815 -0.7303
   95SAPE  C310 9482   5.357   0.961   4.929 -0.7676  0.3873  0.1840
   95SAPE  H10X 9483   5.422   1.048   4.948  0.7228 -0.6160 -0.1247
   95SAPE  H10Y 9484   5.253   1.000   4.925 -0.5473  1.1279  1.3496
   95SAPE  C311 9485   5.398   0.885   4.796  0.2628 -0.1465 -0.2213
   95SAPE  H11X 9486   5.344   0.788   4.790  0.1739 -0.0502 -1.1640
   95SAPE  H11Y 9487   5.505   0.857   4.796  0.0101 -1.1600 -0.4597
   95SAPE  C312 9488   5.357   0.956   4.669 -0.0335 -0.1882 -0.0728
   95SAPE  H12X 9489   5.399   1.058   4.680 -1.7201  0.3586  1.9858
   95SAPE  H12Y 9490   5.246   0.966   4.662  0.2081  2.6221 -1.0914
   95SAPE  C313 9491   5.401   0.891   4.542 -0.5124  0.0908  0.1007
   95SAPE  H13X 9492   5.362   0.787   4.541 -0.0139 -0.1472  1.8260
   95SAPE  H13Y 9493   5.512   0.881   4.537 -0.4934  0.4459 -0.1934
   95SAPE  C314 9494   5.351   0.956   4.417 -0.6231 -0.1478  0.1174
   95SAPE  H14X 9495   5.375   1.065   4.421 -1.7349  0.2092 -1.6169
   95SAPE  H14Y 9496   5.240   0.957   4.411 -0.6922  3.4915 -0.2235
   95SAPE  C315 9497   5.413   0.902   4.295  0.0072 -0.4958  0.3834
   95SAPE  H15X 9498   5.402   0.792   4.290 -0.1959 -0.4175 -2.7536
   95SAPE  H15Y 9499   5.523   0.914   4.298  0.1209  0.0042 -2.7394
   95SAPE  C316 9500   5.348   0.969   4.159  0.2760  0.0417  0.1589
   95SAPE  H16X 9501   5.346   1.079   4.172  2.0204 -0.1826  3.4055
   95SAPE  H16Y 9502   5.248   0.920   4.153  0.5597 -0.4874 -0.3702
   95SAPE  C317 9503   5.419   0.930   4.030 -0.0531  0.5146 -0.1696
   95SAPE  H17X 9504   5.381   0.986   3.941 -1.1284  0.1488  0.0419
   95SAPE  H17Y 9505   5.417   0.822   4.007  1.7940  0.9211 -2.6529
   95SAPE  C318 9506   5.563   0.975   4.040 -0.0129 -0.5325 -0.2582
   95SAPE  H18X 9507   5.625   0.917   3.969 -1.8755 -2.4175 -0.4556
   95SAPE  H18Y 9508   5.614   0.948   4.135  1.7462 -0.8606 -1.2442
   95SAPE  H18Z 9509   5.577   1.083   4.017  0.9208 -0.0610  2.2328
   96SAPE     N 9510   2.234   3.668   6.175 -0.8863 -0.2604 -0.3483
   96SAPE   HN1 9511   2.223   3.582   6.231 -0.9892 -0.3320 -0.4796
   96SAPE   HN2 9512   2.140   3.699   6.144 -0.5622  1.1826  0.0363
   96SAPE   HN3 9513   2.293   3.652   6.090  0.6374 -0.3666  0.6936
   96SAPE   C12 9514   2.303   3.778   6.257 -0.0133  0.2021 -0.5020
   96SAPE  H12A 9515   2.396   3.735   6.299  0.1386 -0.4892 -1.5075
   96SAPE  H12B 9516   2.241   3.807   6.344  1.1197 -0.8274  0.6851
   96SAPE   C11 9517   2.327   3.915   6.183  0.1479  0.0175 -0.3288
   96SAPE  H11A 9518   2.381   3.989   6.247  1.3192  0.3726 -1.6736
   96SAPE  H11B 9519   2.228   3.962   6.168  1.4269  1.7605 -4.6147
   96SAPE     P 9520   2.554   3.909   6.049  0.1250 -0.0653  0.3223
   96SAPE   O13 9521   2.614   3.861   6.174 -0.2818  0.0947  0.3949
   96SAPE   O14 9522   2.599   3.849   5.919  0.5584  0.2025  0.1598
   96SAPE   O12 9523   2.394   3.893   6.058  0.1583 -0.0850 -0.5622
   96SAPE   O11 9524   2.566   4.069   6.043 -0.1130  0.0373 -0.1897
   96SAPE    C1 9525   2.479   4.146   5.951  0.7694 -0.7894 -0.5735
   96SAPE    HA 9526   2.409   4.086   5.889 -2.9976 -1.2565  3.6527
   96SAPE    HB 9527   2.419   4.218   6.010 -0.3604 -1.6790 -0.5960
   96SAPE    C2 9528   2.569   4.221   5.849  0.3898 -0.7388 -0.3668
   96SAPE    HS 9529   2.498   4.286   5.794  0.6490  0.1403  0.3133
   96SAPE   O21 9530   2.634   4.128   5.760 -0.5831  0.9129 -0.2663
   96SAPE   C21 9531   2.553   4.087   5.664  0.3415  0.2016 -0.2377
   96SAPE   O22 9532   2.440   4.125   5.636 -0.1572 -0.2186  0.1491
   96SAPE   C22 9533   2.629   3.992   5.572 -0.3446 -0.4251  0.3350
   96SAPE   H2R 9534   2.720   4.049   5.541 -0.9871 -0.1168 -1.0476
   96SAPE   H2S 9535   2.659   3.904   5.633 -0.2439 -0.3744  0.3602
   96SAPE    C3 9536   2.676   4.330   5.903  0.1356 -0.0613  0.3798
   96SAPE    HX 9537   2.757   4.280   5.960  0.2822  0.5541  0.7239
   96SAPE    HY 9538   2.617   4.390   5.975  0.9203  0.0366  0.9559
   96SAPE   O31 9539   2.746   4.411   5.798 -0.3304  0.0622 -0.4309
   96SAPE   C31 9540   2.718   4.542   5.795 -0.3831 -0.7733 -0.5192
   96SAPE   O32 9541   2.638   4.601   5.864 -0.7364  0.3527 -0.3199
   96SAPE   C32 9542   2.800   4.617   5.691  0.1518 -0.0739 -0.0937
   96SAPE   H2X 9543   2.876   4.676   5.745  0.9260 -0.8964 -0.2585
   96SAPE   H2Y 9544   2.733   4.684   5.632 -0.4025 -1.0452 -0.6000
   96SAPE   C23 9545   2.562   3.940   5.447  0.1417 -0.6953  0.1269
   96SAPE   H3R 9546   2.451   3.943   5.449  0.1562 -0.4613  1.1369
   96SAPE   H3S 9547   2.599   3.840   5.416  1.5644 -0.4946  1.1013
   96SAPE   C24 9548   2.607   4.028   5.324 -0.7678  0.9389 -0.8368
   96SAPE   H4R 9549   2.717   4.016   5.318 -0.4628  0.9729  2.6721
   96SAPE   H4S 9550   2.588   4.130   5.364 -0.1259  0.1164  1.7393
   96SAPE   C25 9551   2.547   3.991   5.191  0.4115 -0.4478  0.3632
   96SAPE   H5R 9552   2.441   4.017   5.179  0.2579 -1.2047 -0.0177
   96SAPE   C26 9553   2.627   3.951   5.088  0.0319  0.7430  0.1191
   96SAPE   H6R 9554   2.580   3.922   4.993 -2.0056 -0.2522  1.3719
   96SAPE   C27 9555   2.775   3.920   5.094  0.6773  0.0489 -0.3402
   96SAPE   H7R 9556   2.795   3.858   5.184  2.7629 -0.1924 -0.9335
   96SAPE   H7S 9557   2.851   4.000   5.096  2.0964 -1.2533  2.2476
   96SAPE   C28 9558   2.818   3.848   4.969  0.8668  0.5025  0.3639
   96SAPE   H8R 9559   2.829   3.739   4.977 -1.3396  0.0873 -1.3927
   96SAPE   C29 9560   2.836   3.911   4.852  0.1799 -0.5237 -0.3526
   96SAPE   H9R 9561   2.869   3.856   4.762 -0.3699  0.5465 -1.2338
   96SAPE  C210 9562   2.819   4.060   4.828  0.0538  0.6669  0.1132
   96SAPE  H10R 9563   2.906   4.096   4.769  1.9518 -0.5297  2.0515
   96SAPE  H10S 9564   2.801   4.110   4.926 -3.0797 -1.0385  0.5430
   96SAPE  C211 9565   2.689   4.084   4.744  0.3862  0.7467  0.1834
   96SAPE  H11R 9566   2.606   4.090   4.816  1.2674 -1.2717  1.4719
   96SAPE  C212 9567   2.683   4.113   4.611  0.5595  0.6876 -0.4288
   96SAPE  H12R 9568   2.588   4.139   4.562  0.8349 -0.0137 -1.3656
   96SAPE  C213 9569   2.800   4.129   4.512  0.1637 -0.5471  0.0378
   96SAPE  H13R 9570   2.802   4.045   4.440 -1.4559 -0.1648 -0.4943
   96SAPE  H13S 9571   2.896   4.126   4.568  0.7447  1.5452 -0.7546
   96SAPE  C214 9572   2.789   4.256   4.427  0.7961  0.1697  0.0440
   96SAPE  H14R 9573   2.698   4.313   4.452  0.9694 -0.1169  1.4091
   96SAPE  C215 9574   2.878   4.308   4.344 -0.1541 -0.7527 -0.0817
   96SAPE  H15R 9575   2.854   4.402   4.292 -0.9147 -1.6818 -1.4807
   96SAPE  C216 9576   3.015   4.260   4.311  0.2305  0.4626 -0.9302
   96SAPE  H16R 9577   3.057   4.202   4.396 -1.9109  0.6978  0.3630
   96SAPE  H16S 9578   3.074   4.350   4.281  1.7367 -0.4696 -0.8858
   96SAPE  C217 9579   3.004   4.170   4.184  0.0565  0.3915  0.8061
   96SAPE  H17R 9580   2.949   4.236   4.113 -0.6798 -1.5374 -0.5098
   96SAPE  H17S 9581   2.940   4.081   4.202 -0.4085  0.8304  1.3800
   96SAPE  C218 9582   3.139   4.128   4.124  0.3256  0.5381  0.0955
   96SAPE  H18R 9583   3.174   4.054   4.199  1.4176  2.0593  1.1654
   96SAPE  H18S 9584   3.219   4.205   4.118  2.5211 -1.7339 -2.8529
   96SAPE  C219 9585   3.124   4.075   3.985 -0.8959  0.6229 -0.1134
   96SAPE  H19R 9586   3.228   4.042   3.966 -1.2103 -0.0512 -0.7119
   96SAPE  H19S 9587   3.106   4.169   3.928 -1.1817  0.6892  0.0840
   96SAPE  C220 9588   3.012   3.969   3.963 -0.3456 -0.1907  0.3416
   96SAPE  H20R 9589   2.917   4.026   3.972  0.2387  0.7673  0.5912
   96SAPE  H20S 9590   3.022   3.888   4.038  1.0773  1.7563  2.3898
   96SAPE  H20T 9591   3.030   3.942   3.857  1.5193  1.2931  0.2226
   96SAPE   C33 9592   2.852   4.530   5.578  0.0512  0.2755  0.4261
   96SAPE   H3X 9593   2.910   4.443   5.616  0.2074 -1.0746 -2.5859
   96SAPE   H3Y 9594   2.914   4.593   5.511 -1.4505  2.4822  1.0206
   96SAPE   C34 9595   2.736   4.486   5.485 -0.1669  0.0633 -0.4073
   96SAPE   H4X 9596   2.667   4.571   5.468 -1.5756 -1.1556 -1.0426
   96SAPE   H4Y 9597   2.687   4.396   5.529  1.4849 -0.9505 -0.5458
   96SAPE   C35 9598   2.785   4.431   5.353 -0.2112 -0.6286  0.0053
   96SAPE   H5X 9599   2.847   4.505   5.298  0.4812 -1.7897 -0.8565
   96SAPE   H5Y 9600   2.699   4.416   5.284  0.6375 -1.2757 -0.9504
   96SAPE   C36 9601   2.866   4.304   5.363  0.0426  0.1352 -0.3730
   96SAPE   H6X 9602   2.796   4.222   5.387 -1.4193  1.9888  2.1198
   96SAPE   H6Y 9603   2.934   4.312   5.451  1.2973  3.3929 -1.4746
   96SAPE   C37 9604   2.933   4.267   5.233  0.7073 -0.3770  0.3447
   96SAPE   H7X 9605   2.969   4.359   5.182  0.2979  0.0753  0.8584
   96SAPE   H7Y 9606   2.858   4.222   5.164  0.9576 -0.3986  0.0869
   96SAPE   C38 9607   3.048   4.173   5.247 -0.4080  1.1506 -0.1334
   96SAPE   H8X 9608   3.002   4.083   5.293 -0.6128  2.5840  2.6818
   96SAPE   H8Y 9609   3.118   4.221   5.319  0.1493 -0.3544  0.3610
   96SAPE   C39 9610   3.136   4.152   5.113 -0.1710  1.0950 -0.3904
   96SAPE   H9X 9611   3.160   4.254   5.077  0.9840  0.8311 -0.4077
   96SAPE   H9Y 9612   3.081   4.097   5.033  1.1350 -1.4149  0.3169
   96SAPE  C310 9613   3.258   4.052   5.120  0.0644  0.1193 -0.6556
   96SAPE  H10X 9614   3.221   3.948   5.110  0.1310  0.0437 -0.1451
   96SAPE  H10Y 9615   3.303   4.062   5.221 -1.3400 -1.1448  0.1278
   96SAPE  C311 9616   3.372   4.066   5.014 -0.9249  0.4406  0.4562
   96SAPE  H11X 9617   3.460   3.999   5.021 -0.9860  0.0997 -1.4760
   96SAPE  H11Y 9618   3.405   4.172   5.027 -2.1648  0.9540 -0.3520
   96SAPE  C312 9619   3.304   4.054   4.868  0.2012 -0.3356 -0.3233
   96SAPE  H12X 9620   3.221   4.127   4.858 -0.0287  0.0773  3.3951
   96SAPE  H12Y 9621   3.268   3.949   4.861 -0.0334 -0.4027  1.4175
   96SAPE  C313 9622   3.390   4.115   4.759 -0.7803 -0.2422  0.3428
   96SAPE  H13X 9623   3.480   4.051   4.748 -0.0046  0.8183  0.3929
   96SAPE  H13Y 9624   3.416   4.220   4.786 -2.2996  0.6224 -1.2885
   96SAPE  C314 9625   3.330   4.128   4.613  0.2996 -0.1315  0.2742
   96SAPE  H14X 9626   3.222   4.155   4.621  0.5692  1.3885 -0.8379
   96SAPE  H14Y 9627   3.330   4.029   4.563 -2.1947  0.1448 -0.4211
   96SAPE  C315 9628   3.411   4.226   4.524  0.7154 -0.3030  0.1301
   96SAPE  H15X 9629   3.510   4.181   4.503  0.0822 -1.4131 -0.5613
   96SAPE  H15Y 9630   3.441   4.311   4.590  1.6506 -2.1161  2.1462
   96SAPE  C316 9631   3.350   4.276   4.395  0.1538 -0.3846  0.0879
   96SAPE  H16X 9632   3.254   4.325   4.419 -0.5020  0.0225 -3.0541
   96SAPE  H16Y 9633   3.331   4.180   4.342 -0.4300 -0.6270  0.7085
   96SAPE  C317 9634   3.438   4.371   4.316 -0.3417  0.6702 -0.0601
   96SAPE  H17X 9635   3.460   4.465   4.371 -2.7934  1.4321 -0.2576
   96SAPE  H17Y 9636   3.376   4.402   4.229 -1.0374  0.9448  0.5168
   96SAPE  C318 9637   3.562   4.301   4.261 -0.5802 -0.3050 -0.1340
   96SAPE  H18X 9638   3.632   4.277   4.344 -1.5710  0.9009  1.1235
   96SAPE  H18Y 9639   3.611   4.376   4.195 -0.6948 -0.8573 -0.8507
   96SAPE  H18Z 9640   3.533   4.213   4.201 -1.9761  0.0087  0.0301
   97SAPE     N 9641   4.214   4.239   6.278  0.2397  0.1913 -0.0789
   97SAPE   HN1 9642   4.188   4.175   6.200  1.0942  0.3258 -0.4889
   97SAPE   HN2 9643   4.311   4.222   6.310  0.4483  0.4206 -0.5744
   97SAPE   HN3 9644   4.140   4.220   6.349  1.2801  0.8802  1.2266
   97SAPE   C12 9645   4.174   4.377   6.239 -0.5812  0.7824  0.5499
   97SAPE  H12A 9646   4.191   4.439   6.330  3.5516  1.5828 -0.5407
   97SAPE  H12B 9647   4.068   4.371   6.206 -0.4933  1.0280  0.2167
   97SAPE   C11 9648   4.269   4.434   6.134 -0.6744 -0.6473 -0.2898
   97SAPE  H11A 9649   4.358   4.462   6.194 -1.2165  0.6758 -0.0573
   97SAPE  H11B 9650   4.225   4.531   6.104  4.4503  2.5897  1.3016
   97SAPE     P 9651   4.425   4.357   5.933 -0.1398  0.2098  0.2077
   97SAPE   O13 9652   4.539   4.349   6.032 -0.1682  0.3148 -0.0690
   97SAPE   O14 9653   4.422   4.238   5.842  0.0525  0.5790 -0.2059
   97SAPE   O12 9654   4.292   4.357   6.017  0.6444 -0.1665 -0.0108
   97SAPE   O11 9655   4.430   4.482   5.840 -0.0304 -0.7210 -0.3197
   97SAPE    C1 9656   4.309   4.565   5.830  0.0121  1.4850  0.3508
   97SAPE    HA 9657   4.216   4.514   5.863  0.0352  0.0044 -1.6575
   97SAPE    HB 9658   4.316   4.654   5.896 -0.6742  2.4819 -0.8771
   97SAPE    C2 9659   4.271   4.606   5.684  0.6982 -0.6161 -0.1680
   97SAPE    HS 9660   4.163   4.607   5.660  0.7613 -1.1707 -0.4959
   97SAPE   O21 9661   4.330   4.516   5.586 -0.6461  0.4351  0.2660
   97SAPE   C21 9662   4.282   4.385   5.583  0.1557 -0.1680 -0.0692
   97SAPE   O22 9663   4.182   4.354   5.642 -0.3298  0.4711 -0.1524
   97SAPE   C22 9664   4.369   4.290   5.507 -0.3183 -0.4158 -0.0219
   97SAPE   H2R 9665   4.429   4.337   5.425 -0.6765  2.1608  1.0920
   97SAPE   H2S 9666   4.426   4.245   5.590 -0.5264  1.8092  1.4204
   97SAPE    C3 9667   4.324   4.748   5.646  0.2103 -0.5670  0.5153
   97SAPE    HX 9668   4.432   4.735   5.669  0.4615 -0.7003 -0.6919
   97SAPE    HY 9669   4.280   4.820   5.718  0.3863 -3.1640  3.4899
   97SAPE   O31 9670   4.303   4.780   5.506  0.1025  0.0429 -0.5585
   97SAPE   C31 9671   4.375   4.888   5.479 -0.0468 -0.1098  0.3673
   97SAPE   O32 9672   4.430   4.961   5.562 -0.1676 -0.0934  0.3144
   97SAPE   C32 9673   4.366   4.916   5.333  0.5408 -0.9477  0.2936
   97SAPE   H2X 9674   4.288   4.995   5.320  1.5038 -0.3673 -2.7643
   97SAPE   H2Y 9675   4.340   4.829   5.269 -1.0535 -1.6837  1.8373
   97SAPE   C23 9676   4.287   4.175   5.434 -0.3570 -1.2183 -0.0912
   97SAPE   H3R 9677   4.211   4.133   5.504 -1.4277 -0.3190 -0.6865
   97SAPE   H3S 9678   4.358   4.091   5.418  0.8891 -0.3234  0.5604
   97SAPE   C24 9679   4.236   4.227   5.296  0.7884 -0.2552 -0.4581
   97SAPE   H4R 9680   4.203   4.137   5.239 -1.1300  0.5510 -0.6956
   97SAPE   H4S 9681   4.324   4.270   5.243  1.1844 -0.3158  0.1446
   97SAPE   C25 9682   4.116   4.318   5.300 -0.1229  0.4175  0.5836
   97SAPE   H5R 9683   4.022   4.261   5.308 -0.1986  0.4213 -0.2329
   97SAPE   C26 9684   4.111   4.451   5.284 -0.7075  0.4719  0.2942
   97SAPE   H6R 9685   4.012   4.499   5.283 -0.2032  1.5331 -0.2811
   97SAPE   C27 9686   4.241   4.533   5.267 -0.6519 -0.1613 -0.1369
   97SAPE   H7R 9687   4.331   4.471   5.288 -0.0561  1.0202  0.9462
   97SAPE   H7S 9688   4.243   4.621   5.335 -1.2914  0.6496 -1.1379
   97SAPE   C28 9689   4.271   4.571   5.127 -0.3155  0.2154 -0.1115
   97SAPE   H8R 9690   4.351   4.511   5.081  0.0571  1.6552 -1.4389
   97SAPE   C29 9691   4.223   4.667   5.051 -0.2028 -0.3827  0.0504
   97SAPE   H9R 9692   4.259   4.682   4.948 -2.0549  1.4153 -0.4121
   97SAPE  C210 9693   4.110   4.760   5.101 -0.6299 -0.2666 -0.6783
   97SAPE  H10R 9694   4.157   4.861   5.110  1.6791 -1.3142 -0.2818
   97SAPE  H10S 9695   4.085   4.730   5.205  0.9955 -1.7140 -0.6571
   97SAPE  C211 9696   3.992   4.752   5.015  0.7036 -0.5103 -0.0837
   97SAPE  H11R 9697   3.943   4.653   5.008  0.1701 -0.2122 -0.6195
   97SAPE  C212 9698   3.933   4.852   4.944 -0.7229  0.3856  0.3455
   97SAPE  H12R 9699   3.855   4.823   4.873 -0.7847  1.5624 -0.0874
   97SAPE  C213 9700   3.969   4.999   4.934 -0.0162  0.1891 -0.1946
   97SAPE  H13R 9701   3.951   5.033   4.829 -0.5623 -0.9076 -0.4655
   97SAPE  H13S 9702   4.077   5.015   4.957 -0.8374  3.1155  2.3121
   97SAPE  C214 9703   3.907   5.088   5.040 -0.2305 -0.1946 -0.5248
   97SAPE  H14R 9704   3.963   5.119   5.129 -0.4463 -0.6948 -0.2071
   97SAPE  C215 9705   3.780   5.140   5.026 -0.0486  0.3559 -0.3168
   97SAPE  H15R 9706   3.740   5.196   5.112  0.5760  3.3738 -1.8584
   97SAPE  C216 9707   3.680   5.106   4.914  0.2551  0.1316  0.1223
   97SAPE  H16R 9708   3.592   5.067   4.968  1.6103 -2.1382  0.8064
   97SAPE  H16S 9709   3.719   5.026   4.848 -2.1979  1.0568 -2.6470
   97SAPE  C217 9710   3.635   5.225   4.831 -0.0063  0.6889  0.7936
   97SAPE  H17R 9711   3.609   5.304   4.905  2.4720  1.4273  0.9660
   97SAPE  H17S 9712   3.543   5.191   4.779  0.9129 -3.1194  1.3725
   97SAPE  C218 9713   3.738   5.292   4.746 -0.6971 -0.0425  0.1259
   97SAPE  H18R 9714   3.781   5.213   4.681  0.2893  0.6509 -0.0921
   97SAPE  H18S 9715   3.810   5.320   4.825 -2.6990  1.2899  1.5702
   97SAPE  C219 9716   3.695   5.412   4.667 -0.0172 -0.1110  0.1261
   97SAPE  H19R 9717   3.781   5.482   4.682  2.6840 -2.4586 -2.9684
   97SAPE  H19S 9718   3.608   5.463   4.714 -0.3521 -1.0201  0.5028
   97SAPE  C220 9719   3.687   5.390   4.519  0.3834  0.4312 -0.7496
   97SAPE  H20R 9720   3.622   5.302   4.502  1.2212 -0.4460  0.4320
   97SAPE  H20S 9721   3.782   5.383   4.462  1.2026 -0.7562  0.6924
   97SAPE  H20T 9722   3.635   5.479   4.478 -0.6946 -0.0838 -0.5423
   97SAPE   C33 9723   4.497   4.980   5.295 -0.2117 -0.4803 -0.3650
   97SAPE   H3X 9724   4.576   4.902   5.301 -2.1926 -2.5780 -0.2352
   97SAPE   H3Y 9725   4.525   5.058   5.369 -0.4015 -2.1049  1.4969
   97SAPE   C34 9726   4.496   5.049   5.153 -0.1763  0.6861 -0.3541
   97SAPE   H4X 9727   4.596   5.092   5.131  1.0685 -1.6453  0.4424
   97SAPE   H4Y 9728   4.418   5.129   5.156 -1.3458 -0.4425  0.9437
   97SAPE   C35 9729   4.459   4.945   5.041  0.9666 -0.7399  0.2472
   97SAPE   H5X 9730   4.349   4.943   5.025  1.1728 -0.7219 -1.3397
   97SAPE   H5Y 9731   4.491   4.847   5.084 -0.8014 -1.1768  0.6554
   97SAPE   C36 9732   4.520   4.974   4.903 -0.2379 -0.3190  0.1946
   97SAPE   H6X 9733   4.509   4.881   4.843 -0.0589 -0.7278  0.7909
   97SAPE   H6Y 9734   4.627   4.997   4.922 -0.4482 -0.8793  2.1876
   97SAPE   C37 9735   4.450   5.094   4.828 -0.0151 -0.3437 -0.2593
   97SAPE   H7X 9736   4.437   5.177   4.901 -3.5955  1.3853 -2.5859
   97SAPE   H7Y 9737   4.346   5.058   4.813  0.8401 -2.7169 -0.8188
   97SAPE   C38 9738   4.542   5.135   4.704  0.3136  0.4132  0.0971
   97SAPE   H8X 9739   4.592   5.042   4.672  2.3018  1.5924 -0.3610
   97SAPE   H8Y 9740   4.624   5.198   4.743  0.3679  0.5071 -0.1691
   97SAPE   C39 9741   4.479   5.197   4.581  0.6257 -0.3921  0.2408
   97SAPE   H9X 9742   4.556   5.203   4.502  0.4722 -2.3216 -0.0999
   97SAPE   H9Y 9743   4.454   5.300   4.615 -0.5855 -0.6643  0.2207
   97SAPE  C310 9744   4.350   5.130   4.527 -0.3004 -0.5541  0.2180
   97SAPE  H10X 9745   4.270   5.163   4.596  0.7553  1.0425  0.7522
   97SAPE  H10Y 9746   4.360   5.021   4.541  0.5367 -0.5969 -0.6013
   97SAPE  C311 9747   4.321   5.156   4.376 -0.4559 -0.1814  0.0147
   97SAPE  H11X 9748   4.421   5.154   4.326 -0.6949  1.4172 -0.5788
   97SAPE  H11Y 9749   4.277   5.257   4.361 -0.6114 -0.1120  0.8783
   97SAPE  C312 9750   4.239   5.045   4.305  0.5563  0.1922 -0.1020
   97SAPE  H12X 9751   4.138   5.055   4.350  0.5793  0.2110 -0.0544
   97SAPE  H12Y 9752   4.285   4.948   4.333 -2.6337 -2.1122 -2.0917
   97SAPE  C313 9753   4.226   5.043   4.144 -0.6718 -0.2248 -0.2769
   97SAPE  H13X 9754   4.117   5.022   4.134 -0.5779 -0.0866 -1.7103
   97SAPE  H13Y 9755   4.276   4.963   4.087  1.9280  1.6879 -0.8729
   97SAPE  C314 9756   4.262   5.169   4.068 -0.5791  0.6159  0.5202
   97SAPE  H14X 9757   4.371   5.189   4.076 -0.3775 -0.7101  1.4612
   97SAPE  H14Y 9758   4.210   5.251   4.121 -3.6365  0.3129 -1.6990
   97SAPE  C315 9759   4.221   5.182   3.920  0.0596 -0.1343  0.9819
   97SAPE  H15X 9760   4.110   5.185   3.916  0.0759  0.3433 -2.4134
   97SAPE  H15Y 9761   4.251   5.090   3.865 -0.1327  1.0725 -1.2587
   97SAPE  C316 9762   4.285   5.293   3.842  0.5708 -0.5972  0.3415
   97SAPE  H16X 9763   4.395   5.283   3.852  1.4665  4.4606 -1.3608
   97SAPE  H16Y 9764   4.262   5.386   3.899  0.3667 -0.1249 -0.4948
   97SAPE  C317 9765   4.246   5.297   3.690  0.0782 -0.3455 -0.3570
   97SAPE  H17X 9766   4.290   5.204   3.648 -1.9189 -1.3103 -0.4414
   97SAPE  H17Y 9767   4.294   5.390   3.653 -0.4188  0.2267  0.4186
   97SAPE  C318 9768   4.096   5.299   3.663 -0.6889 -0.3065 -0.5830
   97SAPE  H18X 9769   4.049   5.210   3.709  0.0639  0.0777  0.9913
   97SAPE  H18Y 9770   4.083   5.302   3.553 -0.8845  0.3817 -0.5472
   97SAPE  H18Z 9771   4.052   5.388   3.713  1.5623  1.2007 -1.1163
   98SAPE     N 9772   0.292   6.165   6.378 -0.1639  0.1220  0.0315
   98SAPE   HN1 9773   0.266   6.065   6.376  0.9910 -0.2963  2.1813
   98SAPE   HN2 9774   0.347   6.187   6.464 -0.2420 -0.7642  0.3176
   98SAPE   HN3 9775   0.212   6.231   6.369  0.6760  0.9775 -1.6300
   98SAPE   C12 9776   0.384   6.176   6.267 -0.2621 -0.2543  0.3878
   98SAPE  H12A 9777   0.485   6.140   6.295 -0.0778  1.2515  1.8185
   98SAPE  H12B 9778   0.399   6.285   6.249  0.9756 -0.8105 -2.4967
   98SAPE   C11 9779   0.338   6.110   6.136 -0.5253 -0.0763 -0.4207
   98SAPE  H11A 9780   0.401   6.154   6.055  0.0850  0.4162  0.3040
   98SAPE  H11B 9781   0.234   6.142   6.114 -0.7683  1.4150  2.4311
   98SAPE     P 9782   0.240   5.874   6.190 -0.0890 -0.2548  0.3076
   98SAPE   O13 9783   0.287   5.736   6.213 -0.3298 -0.3838 -0.3536
   98SAPE   O14 9784   0.184   5.935   6.311 -0.0584 -0.0613  0.4156
   98SAPE   O12 9785   0.360   5.965   6.139 -0.7744 -0.4375  0.0280
   98SAPE   O11 9786   0.143   5.876   6.068  0.0748 -0.1200  0.6882
   98SAPE    C1 9787   0.172   5.821   5.941 -0.1571 -0.1623  0.2711
   98SAPE    HA 9788   0.273   5.773   5.945  0.4999  1.2249  1.0029
   98SAPE    HB 9789   0.097   5.746   5.909 -1.6394  1.5130 -0.2993
   98SAPE    C2 9790   0.166   5.931   5.829 -0.7566 -0.2767  0.5040
   98SAPE    HS 9791   0.144   5.871   5.737  0.1614 -0.0842  0.1474
   98SAPE   O21 9792   0.287   6.008   5.825  0.1527 -0.4920  0.9628
   98SAPE   C21 9793   0.388   5.965   5.742  0.7545  0.6926 -0.0414
   98SAPE   O22 9794   0.386   5.862   5.683 -0.5878 -0.1046 -0.3437
   98SAPE   C22 9795   0.501   6.061   5.730 -0.7529 -0.1691 -0.3706
   98SAPE   H2R 9796   0.533   6.077   5.835 -0.5363  0.4978 -0.5305
   98SAPE   H2S 9797   0.581   6.006   5.676 -0.8428 -0.4643 -0.2057
   98SAPE    C3 9798   0.040   6.020   5.848  0.1220  0.5936 -0.3395
   98SAPE    HX 9799   0.056   6.072   5.945 -0.3352 -0.9561  0.6034
   98SAPE    HY 9800  -0.044   5.948   5.858  0.0180  0.6844 -0.5651
   98SAPE   O31 9801   0.020   6.111   5.736 -0.3687 -0.2680  0.0393
   98SAPE   C31 9802   0.043   6.236   5.763 -0.0501  0.0545  0.1964
   98SAPE   O32 9803   0.085   6.287   5.865 -0.0975  0.2130  0.2592
   98SAPE   C32 9804  -0.004   6.333   5.649 -0.7526  0.6074 -0.0355
   98SAPE   H2X 9805  -0.107   6.367   5.669 -0.6878  0.4790  0.5402
   98SAPE   H2Y 9806  -0.012   6.275   5.555  1.1041  0.7882 -0.3486
   98SAPE   C23 9807   0.466   6.199   5.673  0.5931 -0.1859  0.2075
   98SAPE   H3R 9808   0.560   6.253   5.693  0.4773 -0.6829  2.2339
   98SAPE   H3S 9809   0.382   6.248   5.728  0.1023 -0.7545 -0.0203
   98SAPE   C24 9810   0.436   6.202   5.524 -0.3312 -0.0975  0.9677
   98SAPE   H4R 9811   0.504   6.131   5.473 -1.9263  0.6474 -2.4201
   98SAPE   H4S 9812   0.472   6.302   5.494  0.6416 -1.4211 -2.7874
   98SAPE   C25 9813   0.300   6.167   5.484  0.4437 -0.1515 -0.0590
   98SAPE   H5R 9814   0.238   6.124   5.564  1.8400 -0.1048  1.0872
   98SAPE   C26 9815   0.236   6.187   5.367 -0.4911  0.6744 -0.6791
   98SAPE   H6R 9816   0.140   6.136   5.359  0.7464 -2.3303  1.5591
   98SAPE   C27 9817   0.299   6.246   5.249  0.5046 -1.1236  0.3438
   98SAPE   H7R 9818   0.354   6.170   5.188 -0.8988 -2.6712  0.9439
   98SAPE   H7S 9819   0.369   6.329   5.272 -0.1137 -0.7502  0.9136
   98SAPE   C28 9820   0.199   6.310   5.160 -0.4802  0.0968  0.8600
   98SAPE   H8R 9821   0.115   6.369   5.198  0.1134  2.0891 -0.7399
   98SAPE   C29 9822   0.224   6.332   5.030 -0.2971 -0.9587  0.4090
   98SAPE   H9R 9823   0.149   6.388   4.973  1.9289  0.9173 -0.7999
   98SAPE  C210 9824   0.340   6.278   4.944  0.4655 -0.3273  0.5806
   98SAPE  H10R 9825   0.312   6.178   4.904 -1.9208  0.6741 -0.4722
   98SAPE  H10S 9826   0.441   6.270   4.988  0.6429  0.4230  0.3164
   98SAPE  C211 9827   0.357   6.379   4.832 -0.9387 -0.2355  0.0156
   98SAPE  H11R 9828   0.419   6.467   4.854 -1.3231  0.0068  0.1418
   98SAPE  C212 9829   0.317   6.366   4.699 -0.0383 -0.2791  0.1180
   98SAPE  H12R 9830   0.344   6.442   4.624  0.7565 -0.8031 -0.1412
   98SAPE  C213 9831   0.237   6.252   4.644  0.4445 -0.0726  0.0990
   98SAPE  H13R 9832   0.279   6.151   4.666  1.7067  0.0217 -1.6896
   98SAPE  H13S 9833   0.233   6.258   4.533 -0.5003 -1.4319  0.0257
   98SAPE  C214 9834   0.099   6.251   4.695  0.4355 -0.5985 -0.2011
   98SAPE  H14R 9835   0.093   6.219   4.800 -1.9155 -0.6652 -0.3036
   98SAPE  C215 9836  -0.008   6.321   4.650  0.8026 -0.4529 -0.2032
   98SAPE  H15R 9837  -0.093   6.344   4.716  0.4387  0.3914 -0.9367
   98SAPE  C216 9838  -0.009   6.387   4.510  0.3188  0.1560 -0.2976
   98SAPE  H16R 9839   0.092   6.427   4.483  1.8040 -3.5635 -0.8720
   98SAPE  H16S 9840  -0.075   6.476   4.513  0.0739  0.0051 -1.0845
   98SAPE  C217 9841  -0.070   6.300   4.395  0.2246 -0.1436 -0.4624
   98SAPE  H17R 9842  -0.167   6.256   4.427  0.3694 -0.2271 -0.1397
   98SAPE  H17S 9843   0.001   6.215   4.388  1.9380  1.2506 -0.5492
   98SAPE  C218 9844  -0.087   6.364   4.256 -0.4951  0.1202 -0.5256
   98SAPE  H18R 9845   0.011   6.378   4.207 -0.8132  0.3309 -1.1176
   98SAPE  H18S 9846  -0.138   6.461   4.274 -0.5651  0.4771 -2.3818
   98SAPE  C219 9847  -0.178   6.276   4.170  0.2201  0.0379  0.3353
   98SAPE  H19R 9848  -0.268   6.234   4.219 -1.6129  2.4944 -0.7634
   98SAPE  H19S 9849  -0.120   6.188   4.134  1.2013  0.7841  0.0339
   98SAPE  C220 9850  -0.225   6.358   4.051  0.0839 -0.0652  0.1850
   98SAPE  H20R 9851  -0.145   6.363   3.974  0.9243 -0.4578  1.0149
   98SAPE  H20S 9852  -0.272   6.455   4.076 -3.6866 -1.2901 -1.4136
   98SAPE  H20T 9853  -0.304   6.305   3.994  1.8324 -1.2380 -1.2383
   98SAPE   C33 9854   0.085   6.460   5.637  0.0870  0.5194 -0.0431
   98SAPE   H3X 9855   0.191   6.442   5.665 -0.1237 -1.3010 -0.3038
   98SAPE   H3Y 9856   0.051   6.542   5.704  0.0732  1.2106 -0.8819
   98SAPE   C34 9857   0.091   6.511   5.492  0.3979 -0.5521  0.5572
   98SAPE   H4X 9858   0.155   6.441   5.433  0.6529 -0.8120  1.1345
   98SAPE   H4Y 9859   0.138   6.609   5.516  0.2556 -0.7744  1.8037
   98SAPE   C35 9860  -0.045   6.527   5.427  0.4338  0.6314  0.1132
   98SAPE   H5X 9861  -0.112   6.586   5.493  0.9931 -0.2763  1.5203
   98SAPE   H5Y 9862  -0.086   6.426   5.410  2.7776 -0.4356  0.3362
   98SAPE   C36 9863  -0.037   6.605   5.297  0.3750  0.1479  0.4602
   98SAPE   H6X 9864   0.044   6.562   5.234  0.1415 -1.2987  1.0974
   98SAPE   H6Y 9865   0.006   6.703   5.324 -0.9356  0.6409  0.8046
   98SAPE   C37 9866  -0.170   6.630   5.221  0.4160  0.2776 -0.4748
   98SAPE   H7X 9867  -0.221   6.719   5.264  1.0957  0.2942  0.3259
   98SAPE   H7Y 9868  -0.233   6.539   5.222 -1.5673  1.5579 -1.3706
   98SAPE   C38 9869  -0.116   6.652   5.078  0.1542 -0.6308 -0.1070
   98SAPE   H8X 9870  -0.026   6.594   5.047 -0.4178 -1.0333 -1.0363
   98SAPE   H8Y 9871  -0.084   6.759   5.073 -2.0507  0.2589  2.2122
   98SAPE   C39 9872  -0.223   6.621   4.977  1.3832 -0.2550  0.6973
   98SAPE   H9X 9873  -0.318   6.674   5.000  1.1596  0.2192 -1.1280
   98SAPE   H9Y 9874  -0.247   6.513   4.984  0.4485 -0.0490  0.8179
   98SAPE  C310 9875  -0.186   6.659   4.836 -0.1602 -0.2049  0.8123
   98SAPE  H10X 9876  -0.095   6.602   4.808 -1.6898 -1.2685 -2.6464
   98SAPE  H10Y 9877  -0.162   6.767   4.849  0.2454  0.2000 -2.4306
   98SAPE  C311 9878  -0.306   6.642   4.742 -0.1794 -0.4990  0.4771
   98SAPE  H11X 9879  -0.398   6.650   4.804  0.5352  2.8777  1.3012
   98SAPE  H11Y 9880  -0.307   6.544   4.690 -1.4790 -1.0090  1.3955
   98SAPE  C312 9881  -0.312   6.765   4.647 -0.5465  0.6516 -0.5537
   98SAPE  H12X 9882  -0.218   6.764   4.588 -1.2877 -1.9045 -1.8452
   98SAPE  H12Y 9883  -0.313   6.858   4.707 -1.3131  0.5943 -0.4674
   98SAPE  C313 9884  -0.435   6.767   4.562 -0.4208  0.4201  0.3088
   98SAPE  H13X 9885  -0.492   6.861   4.584 -0.5941  0.4507 -0.2385
   98SAPE  H13Y 9886  -0.499   6.677   4.574  0.4968 -0.4054 -0.7885
   98SAPE  C314 9887  -0.398   6.762   4.412  0.5544  0.0473  0.1039
   98SAPE  H14X 9888  -0.336   6.670   4.411  2.3233  1.1721  0.9800
   98SAPE  H14Y 9889  -0.334   6.851   4.394 -1.8348  1.7446 -0.4886
   98SAPE  C315 9890  -0.497   6.760   4.299  0.5241  0.0463  0.2881
   98SAPE  H15X 9891  -0.566   6.846   4.287  1.0133  0.2753 -1.0387
   98SAPE  H15Y 9892  -0.556   6.666   4.310 -0.0228  0.3606  0.0910
   98SAPE  C316 9893  -0.411   6.757   4.172  0.2819 -0.0459 -0.1492
   98SAPE  H16X 9894  -0.352   6.663   4.165  0.9708  0.4858 -2.1199
   98SAPE  H16Y 9895  -0.336   6.838   4.166  0.2423  0.0806  0.8140
   98SAPE  C317 9896  -0.505   6.762   4.052 -0.0881  0.1095 -0.3291
   98SAPE  H17X 9897  -0.578   6.844   4.067 -1.2684 -1.2987  2.5226
   98SAPE  H17Y 9898  -0.571   6.672   4.056  0.5839 -0.4517 -1.2754
   98SAPE  C318 9899  -0.429   6.772   3.916 -1.1888  1.2816 -0.2582
   98SAPE  H18X 9900  -0.369   6.865   3.926  1.4791 -0.2197 -1.1612
   98SAPE  H18Y 9901  -0.496   6.765   3.827  1.8047 -0.1359 -2.5908
   98SAPE  H18Z 9902  -0.356   6.691   3.894  2.0531  4.0489 -0.4736
   99SAPE     N 9903   2.405   5.128   6.458  0.1206 -0.1493 -0.2477
   99SAPE   HN1 9904   2.444   5.172   6.373  0.7674  0.9915  0.6163
   99SAPE   HN2 9905   2.307   5.157   6.477 -0.1608 -1.3590  0.3003
   99SAPE   HN3 9906   2.468   5.154   6.536  2.2125  3.0187 -2.7786
   99SAPE   C12 9907   2.416   4.975   6.457  0.0107  0.1468 -0.3428
   99SAPE  H12A 9908   2.364   4.926   6.541  2.1450  0.0227  0.9713
   99SAPE  H12B 9909   2.522   4.943   6.460 -0.1820 -0.7817 -2.1049
   99SAPE   C11 9910   2.362   4.935   6.319 -0.4837  0.1816 -0.2171
   99SAPE  H11A 9911   2.371   4.825   6.336 -2.4689  0.1757  1.1141
   99SAPE  H11B 9912   2.422   4.956   6.228 -2.9869 -1.5851 -2.4606
   99SAPE     P 9913   2.114   4.881   6.268 -0.1392 -0.6203  0.0292
   99SAPE   O13 9914   2.079   4.832   6.401  0.2470  0.4769  0.3411
   99SAPE   O14 9915   2.015   4.954   6.188  0.2090 -0.0115 -0.2429
   99SAPE   O12 9916   2.235   4.985   6.291 -0.1466 -0.1132 -0.1304
   99SAPE   O11 9917   2.187   4.759   6.182 -0.2292 -0.3868  0.7863
   99SAPE    C1 9918   2.242   4.772   6.048  0.2105 -0.2163 -0.2228
   99SAPE    HA 9919   2.315   4.856   6.055 -1.5763  1.2916  1.7334
   99SAPE    HB 9920   2.299   4.679   6.032 -2.0765 -1.7405  0.0007
   99SAPE    C2 9921   2.132   4.796   5.936 -0.0130  0.6655  0.9953
   99SAPE    HS 9922   2.052   4.862   5.976  1.0433  1.9234  1.0677
   99SAPE   O21 9923   2.094   4.659   5.883 -0.5385 -0.6076  0.2479
   99SAPE   C21 9924   1.977   4.669   5.830  0.5901 -0.0164 -0.0408
   99SAPE   O22 9925   1.888   4.756   5.845 -0.0516 -0.0093 -0.0948
   99SAPE   C22 9926   1.952   4.547   5.751 -0.5108  0.1921 -0.0902
   99SAPE   H2R 9927   2.032   4.532   5.675 -1.4432 -0.6246 -0.9377
   99SAPE   H2S 9928   1.961   4.461   5.821  2.4202  0.3148 -0.1614
   99SAPE    C3 9929   2.189   4.893   5.832  0.5451 -0.7849 -0.4065
   99SAPE    HX 9930   2.283   4.847   5.795  0.0942 -3.3865  1.4640
   99SAPE    HY 9931   2.205   4.987   5.890  0.4888 -1.9606  1.5807
   99SAPE   O31 9932   2.095   4.909   5.717 -0.2747 -0.3126  0.2659
   99SAPE   C31 9933   2.048   5.031   5.692  0.0040  0.1468 -0.4737
   99SAPE   O32 9934   2.061   5.129   5.766  0.6710 -0.1681 -0.5669
   99SAPE   C32 9935   1.973   5.039   5.558 -0.0121  0.4474 -1.1449
   99SAPE   H2X 9936   1.931   4.939   5.534 -0.9795 -0.0164  1.9574
   99SAPE   H2Y 9937   2.052   5.061   5.483  1.0911 -0.0642 -0.1666
   99SAPE   C23 9938   1.810   4.538   5.697  0.3995 -0.1062  0.4194
   99SAPE   H3R 9939   1.782   4.607   5.615 -1.6191 -1.3606 -0.0188
   99SAPE   H3S 9940   1.733   4.554   5.775  0.8204  2.3176  0.4085
   99SAPE   C24 9941   1.757   4.403   5.641 -0.2438 -0.1321 -0.7248
   99SAPE   H4R 9942   1.683   4.434   5.565  1.4792  0.0104 -2.4197
   99SAPE   H4S 9943   1.709   4.344   5.722  0.7482 -0.5541 -0.4276
   99SAPE   C25 9944   1.864   4.323   5.574  0.2339 -0.3075  0.0462
   99SAPE   H5R 9945   1.957   4.297   5.626  0.6412 -1.3802 -1.1460
   99SAPE   C26 9946   1.850   4.282   5.449  0.0578  0.1618 -0.9242
   99SAPE   H6R 9947   1.931   4.220   5.408 -0.8660 -2.1538  0.5258
   99SAPE   C27 9948   1.725   4.281   5.363  0.3294  0.6156 -0.4732
   99SAPE   H7R 9949   1.729   4.364   5.288  0.5023 -0.2326 -1.4311
   99SAPE   H7S 9950   1.627   4.295   5.414 -0.3666 -1.9756 -0.9493
   99SAPE   C28 9951   1.700   4.154   5.290  0.0446 -0.1519 -0.1042
   99SAPE   H8R 9952   1.679   4.073   5.362  0.1098  1.8483  2.3016
   99SAPE   C29 9953   1.720   4.132   5.157 -0.3755  0.0640  0.0375
   99SAPE   H9R 9954   1.703   4.032   5.114  1.3976  0.2925 -1.3105
   99SAPE  C210 9955   1.745   4.237   5.054  0.2282 -0.0493  0.4786
   99SAPE  H10R 9956   1.755   4.339   5.097  0.5339 -0.5283  1.5716
   99SAPE  H10S 9957   1.646   4.247   5.005 -0.5457 -1.7328  1.5979
   99SAPE  C211 9958   1.857   4.204   4.963 -0.4084  0.7851  0.3188
   99SAPE  H11R 9959   1.913   4.114   4.991 -1.8461 -0.6376 -1.1396
   99SAPE  C212 9960   1.878   4.252   4.842 -0.0053  0.3003  0.6425
   99SAPE  H12R 9961   1.962   4.203   4.792  0.5781 -0.6003  2.4109
   99SAPE  C213 9962   1.827   4.375   4.769  0.6770 -0.6058 -0.8509
   99SAPE  H13R 9963   1.855   4.450   4.846 -1.0791  0.6326 -1.3320
   99SAPE  H13S 9964   1.718   4.398   4.772  0.7891 -0.1597  0.9445
   99SAPE  C214 9965   1.879   4.396   4.633 -0.0774  0.4152 -0.1670
   99SAPE  H14R 9966   1.819   4.341   4.559  3.3566 -1.3239 -1.8882
   99SAPE  C215 9967   1.979   4.475   4.587  0.8296 -0.1629 -0.1003
   99SAPE  H15R 9968   1.994   4.465   4.478 -1.2095  0.4991 -0.4967
   99SAPE  C216 9969   2.072   4.574   4.669  0.2656  0.7960 -0.2667
   99SAPE  H16R 9970   2.164   4.518   4.693 -0.8460 -0.7643  0.5521
   99SAPE  H16S 9971   2.019   4.607   4.761 -1.4134  0.3431 -1.0166
   99SAPE  C217 9972   2.122   4.689   4.585  0.2325 -0.5614  0.9363
   99SAPE  H17R 9973   2.178   4.767   4.641  0.9818  2.1650 -3.1797
   99SAPE  H17S 9974   2.031   4.745   4.553  0.4336 -1.0113 -0.4903
   99SAPE  C218 9975   2.208   4.652   4.468 -0.8562 -0.4418  0.3181
   99SAPE  H18R 9976   2.149   4.593   4.394  0.3947 -3.8668  1.8191
   99SAPE  H18S 9977   2.301   4.596   4.491 -0.1714 -0.3474 -2.0260
   99SAPE  C219 9978   2.259   4.778   4.396 -0.1155 -0.6937  0.5187
   99SAPE  H19R 9979   2.323   4.830   4.470  0.0418  1.2815 -0.9065
   99SAPE  H19S 9980   2.175   4.840   4.359  1.0936  0.2888 -0.6803
   99SAPE  C220 9981   2.335   4.746   4.263 -0.1908 -0.2804 -0.0104
   99SAPE  H20R 9982   2.267   4.686   4.200 -1.0251 -0.4438  1.0110
   99SAPE  H20S 9983   2.422   4.680   4.285 -1.6295 -2.6652 -1.0513
   99SAPE  H20T 9984   2.361   4.837   4.206 -1.4964  0.4832  0.5636
   99SAPE   C33 9985   1.848   5.130   5.575  0.0183  0.9133  0.5060
   99SAPE   H3X 9986   1.884   5.235   5.567 -0.8652  1.1512 -0.6687
   99SAPE   H3Y 9987   1.799   5.110   5.673 -0.4527 -0.1280  0.0718
   99SAPE   C34 9988   1.739   5.094   5.469 -0.7401 -0.1923  0.5708
   99SAPE   H4X 9989   1.646   5.155   5.483  0.9896  3.0952 -1.0018
   99SAPE   H4Y 9990   1.710   4.987   5.471 -1.6091 -0.0252 -1.0277
   99SAPE   C35 9991   1.788   5.127   5.329  0.3859 -0.3502 -0.3925
   99SAPE   H5X 9992   1.894   5.096   5.322  0.2438 -0.4176 -3.2215
   99SAPE   H5Y 9993   1.786   5.237   5.311 -0.0351 -0.5135 -1.4280
   99SAPE   C36 9994   1.706   5.069   5.205 -0.0278  0.3567 -0.6050
   99SAPE   H6X 9995   1.603   5.107   5.219  0.4177  1.1020  0.9441
   99SAPE   H6Y 9996   1.698   4.959   5.212  0.6273  0.3081 -0.5307
   99SAPE   C37 9997   1.773   5.101   5.073  0.0554 -1.1561 -0.1611
   99SAPE   H7X 9998   1.882   5.080   5.079  0.3957  0.8932  2.6490
   99SAPE   H7Y 9999   1.768   5.212   5.061 -0.1734 -1.3077 -1.7299
   99SAPE   C3810000   1.707   5.034   4.960 -0.0668 -0.7408 -0.0706
   99SAPE   H8X10001   1.606   5.078   4.946  0.0834 -0.7687 -1.4048
   99SAPE   H8Y10002   1.692   4.926   4.980  0.9715 -0.7187  0.8742
   99SAPE   C3910003   1.776   5.030   4.828 -0.2954  0.4208  0.0008
   99SAPE   H9X10004   1.870   4.972   4.841 -0.0811  0.6142 -0.6600
   99SAPE   H9Y10005   1.799   5.137   4.810 -0.3235  0.1537 -1.9259
   99SAPE  C31010006   1.700   4.961   4.712  0.1858 -0.1469 -0.5219
   99SAPE  H10X10007   1.621   5.030   4.676  0.4846  0.8062  0.6008
   99SAPE  H10Y10008   1.665   4.860   4.742  2.0385 -0.6085  0.2196
   99SAPE  C31110009   1.776   4.941   4.577 -0.2137  0.5688  0.1288
   99SAPE  H11X10010   1.870   4.897   4.617 -1.6109 -1.7824  1.0797
   99SAPE  H11Y10011   1.804   5.037   4.530  0.5284  0.1272 -0.3633
   99SAPE  C31210012   1.701   4.839   4.480  0.3616 -0.3335 -0.3402
   99SAPE  H12X10013   1.604   4.879   4.444 -0.1612 -2.2034 -1.1468
   99SAPE  H12Y10014   1.689   4.756   4.553  0.7177  0.7417  0.9809
   99SAPE  C31310015   1.777   4.790   4.356  0.0806  0.5720  0.1417
   99SAPE  H13X10016   1.730   4.700   4.311 -1.0942  1.4040 -0.3335
   99SAPE  H13Y10017   1.865   4.747   4.409 -0.0761 -0.7660 -0.6361
   99SAPE  C31410018   1.817   4.891   4.251  0.1920 -0.1667  0.6865
   99SAPE  H14X10019   1.890   4.960   4.298 -0.2488  0.3313  0.6537
   99SAPE  H14Y10020   1.731   4.954   4.221  1.2714  0.5298 -1.1319
   99SAPE  C31510021   1.880   4.830   4.126  0.0425 -0.3753  0.2265
   99SAPE  H15X10022   1.936   4.737   4.149  1.3555  0.2020 -0.4441
   99SAPE  H15Y10023   1.964   4.896   4.094 -0.4136 -0.1775 -0.5933
   99SAPE  C31610024   1.777   4.804   4.020 -0.0281 -0.1796 -0.4737
   99SAPE  H16X10025   1.676   4.830   4.058  0.7372  2.8815 -0.3161
   99SAPE  H16Y10026   1.776   4.694   4.003  1.4260 -0.1058 -1.1951
   99SAPE  C31710027   1.815   4.848   3.882  0.1245 -0.1965  0.0595
   99SAPE  H17X10028   1.749   4.806   3.803  0.5994  1.8707 -1.5061
   99SAPE  H17Y10029   1.914   4.808   3.855 -0.4931 -2.2588  0.6453
   99SAPE  C31810030   1.802   4.996   3.858 -0.3268 -0.4621  0.1209
   99SAPE  H18X10031   1.728   5.035   3.930 -0.7712 -0.2182 -0.4569
   99SAPE  H18Y10032   1.758   5.021   3.759  0.2089 -1.1235 -0.3028
   99SAPE  H18Z10033   1.899   5.050   3.869 -0.6130  0.9197 -3.0093
  100SAPE     N10034   4.787   3.265   5.691  0.3815 -0.1440 -0.1499
  100SAPE   HN110035   4.826   3.261   5.787  0.8027 -1.3647 -0.3534
  100SAPE   HN210036   4.851   3.236   5.615  0.0259 -0.3851 -0.3590
  100SAPE   HN310037   4.750   3.360   5.671 -1.2385 -0.8589 -0.7524
  100SAPE   C1210038   4.667   3.171   5.684  0.4098  0.3690 -0.0833
  100SAPE  H12A10039   4.625   3.170   5.581  1.0217 -0.2360 -0.3350
  100SAPE  H12B10040   4.590   3.210   5.753  0.4341 -1.6710  1.2110
  100SAPE   C1110041   4.700   3.031   5.738  0.2025 -0.5517 -0.2354
  100SAPE  H11A10042   4.771   2.985   5.666  1.4791  1.2848 -0.2171
  100SAPE  H11B10043   4.604   2.975   5.743 -0.7519  1.1347  1.3599
  100SAPE     P10044   4.788   2.904   5.946 -0.0762 -0.4125 -0.3447
  100SAPE   O1310045   4.913   2.926   6.026 -0.4995 -0.1575 -0.1333
  100SAPE   O1410046   4.671   2.865   6.036  0.1549 -0.7564  0.5107
  100SAPE   O1210047   4.758   3.042   5.867 -0.0173  0.0923 -0.1449
  100SAPE   O1110048   4.815   2.791   5.837  0.3756 -0.1164 -0.1016
  100SAPE    C110049   4.945   2.757   5.795  0.4064 -0.1344  0.5924
  100SAPE    HA10050   4.995   2.852   5.765 -3.2014  2.0721  1.0179
  100SAPE    HB10051   5.008   2.708   5.873  0.7754 -0.5941  0.0094
  100SAPE    C210052   4.927   2.669   5.667 -0.1292 -0.3119 -0.1095
  100SAPE    HS10053   5.022   2.633   5.621 -1.0250 -0.3028 -2.0622
  100SAPE   O2110054   4.851   2.735   5.564 -0.5824  0.3879  0.1876
  100SAPE   C2110055   4.913   2.833   5.503 -0.6535  0.8964 -0.0576
  100SAPE   O2210056   5.029   2.863   5.513 -0.8967 -0.5905 -0.3108
  100SAPE   C2210057   4.823   2.884   5.390 -0.0003  0.2366 -0.2198
  100SAPE   H2R10058   4.718   2.886   5.426  0.0001  2.3601 -0.1917
  100SAPE   H2S10059   4.855   2.990   5.377 -0.2411  0.7957  2.9882
  100SAPE    C310060   4.854   2.546   5.706 -0.1850 -0.3245  0.1234
  100SAPE    HX10061   4.756   2.577   5.748 -0.5317  1.6642 -1.9553
  100SAPE    HY10062   4.919   2.492   5.778  0.2162  0.7671  0.5894
  100SAPE   O3110063   4.822   2.461   5.586 -0.4386 -0.2869  0.8543
  100SAPE   C3110064   4.765   2.344   5.618 -0.2699 -0.1320 -0.4635
  100SAPE   O3210065   4.736   2.308   5.733 -0.0752  0.0710  0.3945
  100SAPE   C3210066   4.723   2.265   5.493 -0.9482  0.0494  0.4148
  100SAPE   H2X10067   4.733   2.156   5.508 -0.5003  0.0380  0.0533
  100SAPE   H2Y10068   4.796   2.291   5.413 -1.7364 -1.4108 -0.8242
  100SAPE   C2310069   4.847   2.798   5.268 -0.2214  0.2184  0.2819
  100SAPE   H3R10070   4.755   2.806   5.205  0.5083 -0.0690 -0.8552
  100SAPE   H3S10071   4.856   2.688   5.286  2.2478  0.2653 -0.4165
  100SAPE   C2410072   4.942   2.866   5.172 -0.0526 -0.6855 -0.2206
  100SAPE   H4R10073   5.040   2.889   5.218 -0.1717  1.4765 -0.9603
  100SAPE   H4S10074   4.896   2.961   5.139  0.8451 -0.5647 -1.1400
  100SAPE   C2510075   4.966   2.780   5.056  0.0855  0.0278 -0.4691
  100SAPE   H5R10076   5.050   2.712   5.077 -2.3327 -2.2040  3.0093
  100SAPE   C2610077   4.924   2.809   4.926 -0.0141  0.0339 -0.7310
  100SAPE   H6R10078   4.955   2.731   4.855  0.9571 -0.6265  0.3851
  100SAPE   C2710079   4.826   2.907   4.875  0.2486 -0.2860  0.0575
  100SAPE   H7R10080   4.849   2.938   4.771 -2.0268 -0.4769 -0.5640
  100SAPE   H7S10081   4.837   3.002   4.931 -1.6022 -0.1552  0.2597
  100SAPE   C2810082   4.690   2.837   4.883  0.2389 -0.0752  0.1411
  100SAPE   H8R10083   4.673   2.770   4.968  1.5827 -3.0901 -1.7829
  100SAPE   C2910084   4.589   2.862   4.797 -0.2821 -0.2910 -0.2288
  100SAPE   H9R10085   4.489   2.823   4.821 -0.7580  1.3593  0.6510
  100SAPE  C21010086   4.613   2.937   4.667  0.5170 -0.3889 -0.0125
  100SAPE  H10R10087   4.715   2.940   4.624  0.8282 -0.1181  0.7267
  100SAPE  H10S10088   4.597   3.042   4.700  0.1409 -1.0730  2.1913
  100SAPE  C21110089   4.516   2.894   4.553 -0.3023  1.3996 -0.9031
  100SAPE  H11R10090   4.548   2.810   4.489 -1.1073 -1.3096  1.9538
  100SAPE  C21210091   4.395   2.938   4.528 -0.7545 -0.4165  0.3243
  100SAPE  H12R10092   4.337   2.876   4.459  1.8122 -2.5902 -0.0676
  100SAPE  C21310093   4.309   3.031   4.608  0.3001 -0.2958 -0.8777
  100SAPE  H13R10094   4.285   3.114   4.539 -1.0963 -0.9192 -1.1828
  100SAPE  H13S10095   4.362   3.078   4.693  0.8166 -0.3657 -1.1545
  100SAPE  C21410096   4.187   2.974   4.678 -0.4459  0.6107  0.2708
  100SAPE  H14R10097   4.202   2.911   4.767 -0.6843 -2.4696 -1.7182
  100SAPE  C21510098   4.059   2.992   4.631 -0.3154  0.2349 -0.5322
  100SAPE  H15R10099   3.969   2.962   4.687  0.6549  0.4079  1.1814
  100SAPE  C21610100   4.017   3.059   4.501  0.9837 -0.2892 -0.2005
  100SAPE  H16R10101   4.083   3.036   4.415  1.9399 -0.5087  0.5719
  100SAPE  H16S10102   3.997   3.168   4.510 -1.1499 -0.7064  0.9125
  100SAPE  C21710103   3.878   2.999   4.461 -0.0284  0.6990  0.0701
  100SAPE  H17R10104   3.826   3.074   4.398  0.7084  1.8315  0.7582
  100SAPE  H17S10105   3.820   2.983   4.555 -0.0895  1.7750  0.2278
  100SAPE  C21810106   3.880   2.866   4.383  0.3881  0.5903 -0.5293
  100SAPE  H18R10107   3.935   2.788   4.439  0.5583 -0.6876 -2.3904
  100SAPE  H18S10108   3.928   2.879   4.284  1.3871  0.6171 -0.0540
  100SAPE  C21910109   3.731   2.809   4.362 -0.0887  0.0250  0.0072
  100SAPE  H19R10110   3.701   2.768   4.460 -2.0951  2.5585  0.5643
  100SAPE  H19S10111   3.753   2.726   4.292 -0.9529 -0.9646  0.8705
  100SAPE  C22010112   3.623   2.887   4.296 -0.1676 -0.3042 -0.4228
  100SAPE  H20R10113   3.606   2.959   4.378  2.0672 -0.3640  0.1504
  100SAPE  H20S10114   3.532   2.826   4.277 -1.6026  1.8508 -0.8790
  100SAPE  H20T10115   3.667   2.939   4.208  0.6838 -1.5001 -0.7209
  100SAPE   C3310116   4.576   2.293   5.447 -0.1560 -0.2918 -0.1871
  100SAPE   H3X10117   4.503   2.262   5.526  1.4579 -1.1201  1.0398
  100SAPE   H3Y10118   4.551   2.233   5.357 -3.1132  1.1917 -0.4755
  100SAPE   C3410119   4.546   2.443   5.415  1.4000 -0.2626  0.1879
  100SAPE   H4X10120   4.562   2.509   5.503  0.8918  0.6067 -0.3603
  100SAPE   H4Y10121   4.436   2.454   5.401  1.2805 -1.0334  0.4774
  100SAPE   C3510122   4.616   2.498   5.291  0.0827  0.3569  0.5526
  100SAPE   H5X10123   4.726   2.507   5.309  0.6284  0.6864 -2.3896
  100SAPE   H5Y10124   4.575   2.599   5.274 -2.3480 -0.5631  0.5050
  100SAPE   C3610125   4.595   2.412   5.168 -0.4457  0.0783  0.5553
  100SAPE   H6X10126   4.496   2.362   5.175  0.8277 -2.5438  1.4026
  100SAPE   H6Y10127   4.669   2.329   5.164 -0.1900  0.1223  3.0919
  100SAPE   C3710128   4.607   2.494   5.035  0.6509  0.1998  0.6170
  100SAPE   H7X10129   4.677   2.580   5.041  0.4730  0.3162  1.0438
  100SAPE   H7Y10130   4.515   2.555   5.027 -0.0426 -0.6321  1.8373
  100SAPE   C3810131   4.635   2.411   4.905 -0.1013  0.1696  0.3918
  100SAPE   H8X10132   4.580   2.315   4.911  1.7741 -0.9358  0.6816
  100SAPE   H8Y10133   4.739   2.372   4.908 -1.3087 -3.4867 -0.4849
  100SAPE   C3910134   4.608   2.474   4.768  0.2185 -0.5997 -0.1754
  100SAPE   H9X10135   4.658   2.569   4.740 -0.0779  0.0308  1.3159
  100SAPE   H9Y10136   4.500   2.494   4.755  0.3034  0.4232  0.5565
  100SAPE  C31010137   4.659   2.377   4.658  0.2255 -0.3665 -0.4844
  100SAPE  H10X10138   4.604   2.281   4.665 -2.4405  1.0465 -0.4733
  100SAPE  H10Y10139   4.762   2.339   4.669 -0.4809 -2.2531 -0.1341
  100SAPE  C31110140   4.630   2.415   4.508 -0.0822 -0.9931 -0.1585
  100SAPE  H11X10141   4.681   2.511   4.483  1.9337 -1.8891  0.2733
  100SAPE  H11Y10142   4.521   2.433   4.498  0.0614  0.8689  1.0087
  100SAPE  C31210143   4.683   2.312   4.407  0.6491  0.6950  0.4077
  100SAPE  H12X10144   4.629   2.216   4.423 -2.3055  1.4947 -3.1946
  100SAPE  H12Y10145   4.790   2.283   4.414 -0.0376 -2.5530 -0.7513
  100SAPE  C31310146   4.669   2.358   4.259  0.2184  0.0078 -0.8854
  100SAPE  H13X10147   4.738   2.445   4.250 -1.4456  1.4269 -0.5207
  100SAPE  H13Y10148   4.567   2.396   4.237 -0.4679 -1.7615 -0.9460
  100SAPE  C31410149   4.718   2.256   4.157  0.4275 -0.6846  0.4768
  100SAPE  H14X10150   4.664   2.159   4.159  0.6802 -0.8687 -0.8173
  100SAPE  H14Y10151   4.819   2.231   4.195  0.5731 -0.8581 -0.0086
  100SAPE  C31510152   4.721   2.306   4.014 -0.2709 -0.5501  0.2911
  100SAPE  H15X10153   4.760   2.409   4.009 -0.1471 -0.5984  0.2617
  100SAPE  H15Y10154   4.616   2.328   3.983 -0.3848  1.4002  1.8644
  100SAPE  C31610155   4.790   2.216   3.918 -0.6857  0.8452  0.1546
  100SAPE  H16X10156   4.730   2.123   3.904  1.0627 -0.2439 -0.4600
  100SAPE  H16Y10157   4.880   2.179   3.972  0.3283  2.2878 -0.4952
  100SAPE  C31710158   4.815   2.267   3.781 -0.3488  0.1151 -0.3984
  100SAPE  H17X10159   4.882   2.355   3.776 -1.1911  0.7216 -1.4180
  100SAPE  H17Y10160   4.722   2.310   3.737 -1.1995  1.0299  2.1297
  100SAPE  C31810161   4.869   2.150   3.692 -0.0064 -0.2341  0.4884
  100SAPE  H18X10162   4.938   2.204   3.623 -0.9854  1.0669  0.4960
  100SAPE  H18Y10163   4.789   2.093   3.640  0.6163 -1.2457  0.6035
  100SAPE  H18Z10164   4.928   2.085   3.760  2.1275  0.9499 -0.1343
  101SAPE     N10165   4.449   6.001   6.106  0.7372  0.2626  0.4982
  101SAPE   HN110166   4.390   5.995   6.021  0.5072  0.1618  0.6625
  101SAPE   HN210167   4.470   5.907   6.145 -0.6329  0.8397  2.7659
  101SAPE   HN310168   4.394   6.050   6.179 -0.4552 -3.2424  2.1685
  101SAPE   C1210169   4.572   6.088   6.082  0.6957  0.2957  0.2046
  101SAPE  H12A10170   4.620   6.093   6.182  2.9106  1.9567 -0.8713
  101SAPE  H12B10171   4.542   6.186   6.041 -1.5276 -0.4203 -0.0189
  101SAPE   C1110172   4.675   6.014   5.993  0.4668 -0.0733 -0.4798
  101SAPE  H11A10173   4.723   6.080   5.917  3.1099  0.7935  1.7949
  101SAPE  H11B10174   4.624   5.935   5.933 -0.0330 -1.4132  1.6112
  101SAPE     P10175   4.762   5.814   6.137  0.0422 -0.0426  0.2186
  101SAPE   O1310176   4.866   5.778   6.239 -0.0190  0.1221 -1.1794
  101SAPE   O1410177   4.624   5.796   6.194  0.1388  0.1402  0.1135
  101SAPE   O1210178   4.781   5.959   6.069 -0.2487  0.1647 -0.8559
  101SAPE   O1110179   4.779   5.723   6.010 -0.2247  0.3672  0.1407
  101SAPE    C110180   4.918   5.672   5.974  0.5751  0.7105  0.0967
  101SAPE    HA10181   4.959   5.601   6.049  1.2686 -0.6676 -1.5379
  101SAPE    HB10182   4.897   5.609   5.885 -1.7444  0.5081  0.7113
  101SAPE    C210183   5.021   5.770   5.936  0.3320  0.0453  0.4923
  101SAPE    HS10184   5.026   5.840   6.022 -1.5706  1.4699 -0.4678
  101SAPE   O2110185   4.986   5.854   5.822  0.0111  0.2832 -0.2806
  101SAPE   C2110186   5.066   5.963   5.808 -0.3110  0.1890  0.0115
  101SAPE   O2210187   5.159   5.992   5.881  0.6884 -0.0907 -0.5969
  101SAPE   C2210188   5.027   6.057   5.697 -0.0728 -0.2308 -0.1363
  101SAPE   H2R10189   4.971   6.139   5.748  0.9860  0.8380 -0.6275
  101SAPE   H2S10190   5.123   6.103   5.665 -0.2964  0.1850 -0.2130
  101SAPE    C310191   5.153   5.697   5.910 -0.1471 -0.2789  0.1490
  101SAPE    HX10192   5.164   5.635   6.002 -0.3630  0.3043  0.5743
  101SAPE    HY10193   5.246   5.758   5.912  0.0914 -0.6444  2.0145
  101SAPE   O3110194   5.145   5.604   5.796  0.1323 -0.3487  0.7318
  101SAPE   C3110195   5.194   5.651   5.680  0.0422  0.0036  0.3952
  101SAPE   O3210196   5.233   5.762   5.654 -0.7602  0.2157 -0.0278
  101SAPE   C3210197   5.186   5.533   5.584 -0.1998 -0.6172 -0.4018
  101SAPE   H2X10198   5.080   5.502   5.594 -1.1133  1.9097 -1.2595
  101SAPE   H2Y10199   5.257   5.456   5.621 -0.1277 -0.3661 -0.0138
  101SAPE   C2310200   4.963   5.997   5.572 -0.0131 -0.2782  0.5973
  101SAPE   H3R10201   4.865   5.952   5.597  0.1967 -2.0257 -1.4127
  101SAPE   H3S10202   5.022   5.912   5.531 -1.1388 -0.4859 -0.6693
  101SAPE   C2410203   4.940   6.102   5.459  0.1585  0.0675 -0.1757
  101SAPE   H4R10204   5.036   6.146   5.426  1.0110 -2.7653 -1.7689
  101SAPE   H4S10205   4.876   6.182   5.504 -0.8341 -0.3353 -0.8377
  101SAPE   C2510206   4.858   6.050   5.338  0.6464  0.5203 -0.0991
  101SAPE   H5R10207   4.749   6.048   5.353  0.7350 -1.2963  0.5147
  101SAPE   C2610208   4.916   6.004   5.225 -0.3887  0.3411  0.0783
  101SAPE   H6R10209   4.852   5.956   5.149  0.0123 -0.0630 -0.0114
  101SAPE   C2710210   5.064   5.990   5.202  0.4009 -0.4670 -0.6857
  101SAPE   H7R10211   5.117   5.961   5.295  1.9572  1.0343 -1.0524
  101SAPE   H7S10212   5.118   6.086   5.192 -2.3302  1.4132  1.0189
  101SAPE   C2810213   5.102   5.888   5.092  0.1795  0.1877  0.5103
  101SAPE   H8R10214   5.081   5.781   5.109  1.2962 -0.6456 -2.7541
  101SAPE   C2910215   5.137   5.908   4.966  0.0537  0.0980  1.0464
  101SAPE   H9R10216   5.154   5.821   4.902  0.9766  2.4829 -2.2039
  101SAPE  C21010217   5.143   6.046   4.895 -0.1535 -0.2439  0.4774
  101SAPE  H10R10218   5.212   6.116   4.948  5.3475 -2.2668 -3.1535
  101SAPE  H10S10219   5.040   6.085   4.881 -0.0447 -0.6307 -1.6540
  101SAPE  C21110220   5.213   6.052   4.760  0.1522  0.1268 -0.0674
  101SAPE  H11R10221   5.318   6.020   4.756 -0.1066 -1.6591  3.5741
  101SAPE  C21210222   5.160   6.114   4.655 -0.1811  0.0424  0.2284
  101SAPE  H12R10223   5.217   6.110   4.561 -1.1578  3.0541 -0.6259
  101SAPE  C21310224   5.020   6.154   4.634 -0.1479 -0.3815  0.0243
  101SAPE  H13R10225   5.009   6.226   4.550 -0.3660 -0.3639  0.0660
  101SAPE  H13S10226   4.988   6.226   4.713 -0.4424  1.0325 -1.3368
  101SAPE  C21410227   4.926   6.031   4.628  0.3399  0.0464 -0.1341
  101SAPE  H14R10228   4.938   5.959   4.710 -0.8103  1.1672  1.0516
  101SAPE  C21510229   4.849   5.983   4.528  0.6698  0.4153  0.4394
  101SAPE  H15R10230   4.790   5.892   4.545  0.8123  0.5888  2.0543
  101SAPE  C21610231   4.834   6.058   4.404  0.0876  0.2229 -0.2038
  101SAPE  H16R10232   4.855   5.994   4.315  0.7035  0.4802 -0.2501
  101SAPE  H16S10233   4.895   6.151   4.405  0.1339  0.2329  2.2702
  101SAPE  C21710234   4.685   6.096   4.376 -0.1070 -0.2313 -0.2628
  101SAPE  H17R10235   4.615   6.012   4.395 -0.1806 -0.5977 -2.0229
  101SAPE  H17S10236   4.670   6.104   4.266 -0.5062 -2.3646 -0.3939
  101SAPE  C21810237   4.645   6.215   4.463 -0.5515  0.1869 -0.4090
  101SAPE  H18R10238   4.722   6.294   4.452 -1.2059  0.6737 -1.7049
  101SAPE  H18S10239   4.635   6.190   4.571  0.6334 -0.8910 -0.5178
  101SAPE  C21910240   4.516   6.290   4.414 -0.5820 -0.6204 -0.3694
  101SAPE  H19R10241   4.428   6.222   4.408 -0.3363 -0.9498 -0.2465
  101SAPE  H19S10242   4.538   6.317   4.308 -0.2383 -1.7990 -0.6082
  101SAPE  C22010243   4.481   6.415   4.487  0.1516  0.1449  0.1679
  101SAPE  H20R10244   4.567   6.486   4.486  1.8890 -1.7010  2.9636
  101SAPE  H20S10245   4.464   6.404   4.596  1.0072 -0.7784  0.2247
  101SAPE  H20T10246   4.392   6.461   4.441 -0.6742  0.0154  1.5662
  101SAPE   C3310247   5.226   5.584   5.449  0.0973 -0.1391  0.5760
  101SAPE   H3X10248   5.323   5.639   5.448  0.7144 -1.1919 -1.0301
  101SAPE   H3Y10249   5.151   5.662   5.424  0.6074  0.1702 -0.0144
  101SAPE   C3410250   5.233   5.469   5.340 -0.4751  0.0535 -0.0488
  101SAPE   H4X10251   5.135   5.417   5.337 -0.3299 -0.2149 -0.1379
  101SAPE   H4Y10252   5.310   5.398   5.376  0.4162  0.0507 -1.8780
  101SAPE   C3510253   5.277   5.509   5.200 -0.1194 -0.0697 -0.3522
  101SAPE   H5X10254   5.362   5.578   5.216 -0.1847 -0.2618  0.9599
  101SAPE   H5Y10255   5.196   5.565   5.149 -0.3399  1.3772  1.4599
  101SAPE   C3610256   5.333   5.391   5.114  0.6150  0.1310  0.4886
  101SAPE   H6X10257   5.252   5.326   5.075  1.2766  0.0949 -0.8740
  101SAPE   H6Y10258   5.394   5.328   5.182 -0.3029 -0.1175  1.1044
  101SAPE   C3710259   5.412   5.434   4.991 -0.2476  0.3994 -0.3288
  101SAPE   H7X10260   5.451   5.338   4.953 -0.0212 -0.2194  1.3846
  101SAPE   H7Y10261   5.497   5.502   5.016 -2.2039  2.0137  2.5406
  101SAPE   C3810262   5.337   5.502   4.869  0.8148 -0.0220  0.1160
  101SAPE   H8X10263   5.402   5.524   4.781 -0.6230  0.9370 -0.7455
  101SAPE   H8Y10264   5.307   5.600   4.910 -2.0360 -0.3336 -0.9797
  101SAPE   C3910265   5.202   5.442   4.834  0.2904  0.5390  0.7052
  101SAPE   H9X10266   5.149   5.436   4.931 -0.4917 -3.6634  0.1783
  101SAPE   H9Y10267   5.213   5.339   4.794 -0.3145  0.4193  0.8509
  101SAPE  C31010268   5.119   5.527   4.735  0.4632 -0.1885  0.7424
  101SAPE  H10X10269   5.132   5.634   4.762 -0.8294 -0.0207  0.7368
  101SAPE  H10Y10270   5.012   5.502   4.722  0.4805  0.3207 -0.5854
  101SAPE  C31110271   5.176   5.508   4.600 -0.3272 -0.7910  0.8188
  101SAPE  H11X10272   5.183   5.398   4.582 -0.0105 -0.6705  0.1689
  101SAPE  H11Y10273   5.276   5.557   4.596 -0.6939 -0.0516  0.6117
  101SAPE  C31210274   5.087   5.572   4.484 -0.3184  0.4988  0.3987
  101SAPE  H12X10275   5.084   5.678   4.515  1.0269  1.2258 -1.7140
  101SAPE  H12Y10276   4.980   5.543   4.481 -0.1993  0.1228 -0.8882
  101SAPE  C31310277   5.144   5.572   4.338 -0.9636  0.1517 -0.4326
  101SAPE  H13X10278   5.173   5.470   4.306  0.1979  0.1452  0.5650
  101SAPE  H13Y10279   5.239   5.629   4.341 -2.1553  2.1999  0.4226
  101SAPE  C31410280   5.057   5.637   4.237  0.2296 -0.2372  0.7060
  101SAPE  H14X10281   5.020   5.734   4.276  2.3209  0.8456  0.1259
  101SAPE  H14Y10282   4.968   5.573   4.217 -2.1762  1.8937  3.6676
  101SAPE  C31510283   5.129   5.649   4.103  0.1809  0.2240  0.3694
  101SAPE  H15X10284   5.158   5.544   4.079 -0.7942  0.0009  0.0963
  101SAPE  H15Y10285   5.222   5.709   4.108  0.7482 -0.7232  2.5409
  101SAPE  C31610286   5.037   5.694   3.988 -0.0404 -0.2730  0.5352
  101SAPE  H16X10287   4.991   5.792   4.009  1.0009  0.9193 -2.3120
  101SAPE  H16Y10288   4.957   5.617   3.979 -2.5094  2.0423  1.3051
  101SAPE  C31710289   5.116   5.714   3.858 -1.5016  0.5064  0.1487
  101SAPE  H17X10290   5.046   5.749   3.779 -0.2035 -1.5812 -2.0436
  101SAPE  H17Y10291   5.156   5.614   3.834 -0.2017  1.0670 -0.1232
  101SAPE  C31810292   5.240   5.812   3.872  0.3434  0.1279  0.1626
  101SAPE  H18X10293   5.205   5.917   3.872 -2.3335 -0.6527 -1.6506
  101SAPE  H18Y10294   5.301   5.800   3.780 -1.0392 -0.7354 -0.6769
  101SAPE  H18Z10295   5.309   5.796   3.957  1.0613 -2.3760 -0.8029
  102SAPE     N10296   6.045   4.935   6.394 -0.1442 -0.5873 -0.1388
  102SAPE   HN110297   5.949   4.976   6.395  0.4590  0.9128 -0.3221
  102SAPE   HN210298   6.058   4.883   6.305 -0.2684 -2.3643  0.8402
  102SAPE   HN310299   6.056   4.871   6.475  1.7698  1.5348  1.4092
  102SAPE   C1210300   6.148   5.046   6.396  0.3335 -0.3772 -0.6078
  102SAPE  H12A10301   6.244   5.000   6.427  0.3225 -0.4205 -0.6371
  102SAPE  H12B10302   6.121   5.113   6.480 -0.5885  1.8629 -2.5853
  102SAPE   C1110303   6.168   5.123   6.267  0.0436  0.0554  0.5196
  102SAPE  H11A10304   6.246   5.201   6.263 -0.3840  0.5076  0.8442
  102SAPE  H11B10305   6.073   5.176   6.245 -1.8633 -3.1337  0.4708
  102SAPE     P10306   6.340   5.000   6.119  0.1586  0.0197  0.1795
  102SAPE   O1310307   6.418   4.950   6.237  0.3088 -0.0983 -1.1488
  102SAPE   O1410308   6.341   4.908   6.003  0.4595  0.2654  0.0012
  102SAPE   O1210309   6.188   5.024   6.164 -0.2991  0.4411 -0.0803
  102SAPE   O1110310   6.404   5.139   6.077 -0.4123 -0.3074 -0.6394
  102SAPE    C110311   6.363   5.197   5.949 -0.1319  0.3358 -1.0077
  102SAPE    HA10312   6.421   5.289   5.926  0.9069  0.7311  2.5637
  102SAPE    HB10313   6.385   5.133   5.861  2.6475 -1.1629  0.6308
  102SAPE    C210314   6.218   5.247   5.940  0.2826  0.4981  0.6412
  102SAPE    HS10315   6.194   5.288   6.040  1.0741  1.9026  0.2887
  102SAPE   O2110316   6.136   5.132   5.915 -0.5619  0.2273 -0.0301
  102SAPE   C2110317   6.016   5.142   5.957 -0.2453 -0.0333  0.0101
  102SAPE   O2210318   5.966   5.221   6.034  0.2369  0.0237  0.3822
  102SAPE   C2210319   5.921   5.037   5.886  0.8438 -0.0949  0.4129
  102SAPE   H2R10320   5.850   5.098   5.825  1.5725  0.1673 -0.1872
  102SAPE   H2S10321   5.981   4.980   5.812 -0.1301  0.1869 -0.6306
  102SAPE    C310322   6.200   5.349   5.823 -0.3014 -0.5281  0.7340
  102SAPE    HX10323   6.253   5.445   5.838  1.2844 -0.9496 -1.6532
  102SAPE    HY10324   6.093   5.377   5.808 -0.0391  0.1714  0.1148
  102SAPE   O3110325   6.259   5.302   5.701  1.0407  0.3628 -0.0951
  102SAPE   C3110326   6.186   5.226   5.617  0.4412  0.0309 -0.3491
  102SAPE   O3210327   6.064   5.199   5.630 -0.2020 -0.1527 -0.2644
  102SAPE   C3210328   6.271   5.167   5.501  0.9214 -0.1519 -0.4725
  102SAPE   H2X10329   6.287   5.062   5.533  0.3466 -0.2724 -0.5641
  102SAPE   H2Y10330   6.372   5.213   5.503  1.5904 -1.5623  1.0606
  102SAPE   C2310331   5.834   4.963   5.989  0.2466 -0.0582  0.7755
  102SAPE   H3R10332   5.779   5.044   6.040  0.2130  0.1494  0.4117
  102SAPE   H3S10333   5.903   4.899   6.050  0.6993 -0.4559 -0.1385
  102SAPE   C2410334   5.732   4.876   5.916  0.0610 -0.4281  0.1937
  102SAPE   H4R10335   5.650   4.934   5.868 -0.7596 -1.6088  0.1161
  102SAPE   H4S10336   5.680   4.820   5.996 -0.9682  0.0321 -0.1327
  102SAPE   C2510337   5.791   4.767   5.830 -0.2496  0.1411 -0.2438
  102SAPE   H5R10338   5.876   4.708   5.867  0.3683 -0.0667 -1.9380
  102SAPE   C2610339   5.772   4.753   5.698  0.8504  0.3014  0.0985
  102SAPE   H6R10340   5.817   4.661   5.657  0.7865 -0.0886  0.8782
  102SAPE   C2710341   5.679   4.837   5.616 -0.0037 -0.0595 -0.0467
  102SAPE   H7R10342   5.592   4.876   5.673  0.1019  0.8419 -0.4985
  102SAPE   H7S10343   5.644   4.775   5.531  0.5483  1.7047 -1.6002
  102SAPE   C2810344   5.753   4.958   5.567 -0.1765 -0.1500 -0.1972
  102SAPE   H8R10345   5.737   5.045   5.632 -1.5184 -0.6437  0.1558
  102SAPE   C2910346   5.823   4.971   5.457  0.6463  0.1630 -0.1855
  102SAPE   H9R10347   5.878   5.065   5.441 -1.0413  1.2221  0.0193
  102SAPE  C21010348   5.843   4.857   5.349 -0.4922  0.0586 -0.5683
  102SAPE  H10R10349   5.775   4.882   5.265 -2.1544 -4.3998 -0.8054
  102SAPE  H10S10350   5.793   4.766   5.388  0.0695  0.4187  1.0930
  102SAPE  C21110351   5.983   4.828   5.292 -0.6186  0.0462 -0.3604
  102SAPE  H11R10352   6.069   4.884   5.331 -2.1835  4.5216 -2.6746
  102SAPE  C21210353   6.005   4.732   5.199  0.2774  0.3396  0.3281
  102SAPE  H12R10354   6.106   4.705   5.164 -1.4518 -2.4522 -3.1536
  102SAPE  C21310355   5.899   4.646   5.125 -0.1912 -0.8293  0.0231
  102SAPE  H13R10356   5.802   4.647   5.178  1.4265 -0.8730  3.2150
  102SAPE  H13S10357   5.940   4.543   5.133  4.3388  0.7296 -0.1612
  102SAPE  C21410358   5.880   4.702   4.986  0.1158 -0.3889  0.1938
  102SAPE  H14R10359   5.799   4.775   4.975 -0.0292 -0.7702 -1.4740
  102SAPE  C21510360   5.957   4.680   4.878 -0.6007 -0.6838  0.8391
  102SAPE  H15R10361   5.926   4.733   4.787  0.2843  1.3189  1.6434
  102SAPE  C21610362   6.076   4.595   4.869 -0.2986  0.1290 -0.6859
  102SAPE  H16R10363   6.116   4.562   4.967  0.4162 -1.7563 -1.5645
  102SAPE  H16S10364   6.167   4.638   4.822 -0.3128  1.5028  0.4685
  102SAPE  C21710365   6.040   4.462   4.805 -0.2116  0.4973  0.0257
  102SAPE  H17R10366   5.952   4.419   4.858  0.5518 -0.0063  0.9108
  102SAPE  H17S10367   6.121   4.392   4.834 -1.4029 -0.5359  1.0346
  102SAPE  C21810368   6.011   4.483   4.650  0.2215  0.0865 -0.2877
  102SAPE  H18R10369   6.082   4.544   4.590  1.4338 -0.6857  0.3254
  102SAPE  H18S10370   5.909   4.526   4.642 -0.3640 -1.2217 -0.1261
  102SAPE  C21910371   5.991   4.356   4.567 -0.1323  0.1049 -0.5254
  102SAPE  H19R10372   6.089   4.307   4.554  0.8574  1.2345  2.0483
  102SAPE  H19S10373   5.953   4.387   4.467 -0.3835 -1.6135 -0.9982
  102SAPE  C22010374   5.893   4.265   4.642  0.2168 -0.0968  0.5271
  102SAPE  H20R10375   5.835   4.193   4.582 -0.4185  0.1083  0.8834
  102SAPE  H20S10376   5.810   4.322   4.689  1.4382  0.5455  1.9999
  102SAPE  H20T10377   5.942   4.214   4.727  0.4125 -2.7702 -1.0993
  102SAPE   C3310378   6.207   5.184   5.363  0.0621  0.7720  0.6860
  102SAPE   H3X10379   6.176   5.289   5.345 -0.7109  0.1627 -2.0038
  102SAPE   H3Y10380   6.112   5.127   5.363  1.2850 -1.6833 -3.1590
  102SAPE   C3410381   6.289   5.136   5.249  0.1526  0.2782 -0.4340
  102SAPE   H4X10382   6.311   5.029   5.271 -0.9438  0.2321  0.5839
  102SAPE   H4Y10383   6.383   5.194   5.237  0.2989 -0.2441 -2.0423
  102SAPE   C3510384   6.210   5.115   5.123 -0.5586  0.2046  0.1975
  102SAPE   H5X10385   6.164   5.216   5.110 -0.2612  0.3905  0.5573
  102SAPE   H5Y10386   6.135   5.035   5.133  1.5532 -1.5899  3.7633
  102SAPE   C3610387   6.288   5.080   4.993  0.8180 -0.5287  0.0363
  102SAPE   H6X10388   6.321   4.978   5.020 -1.2546 -1.1625  0.3814
  102SAPE   H6Y10389   6.372   5.152   4.984 -0.0733  0.3836 -1.3566
  102SAPE   C3710390   6.199   5.070   4.867 -0.3807 -0.4137 -0.5221
  102SAPE   H7X10391   6.143   5.165   4.853  0.1885 -0.2390 -1.7209
  102SAPE   H7Y10392   6.125   4.992   4.891  1.5574 -2.8619 -2.0617
  102SAPE   C3810393   6.277   5.047   4.743  0.2877  0.8680  0.6498
  102SAPE   H8X10394   6.373   5.101   4.731 -0.2440  1.5921 -0.6105
  102SAPE   H8Y10395   6.220   5.097   4.661 -1.7850 -0.6700  1.0725
  102SAPE   C3910396   6.284   4.900   4.707 -0.3180  0.6398 -0.1284
  102SAPE   H9X10397   6.182   4.857   4.711  0.6317 -1.7211 -0.0798
  102SAPE   H9Y10398   6.340   4.848   4.788 -1.2597  3.3138  2.4401
  102SAPE  C31010399   6.340   4.867   4.562  0.0070  1.0152 -0.0942
  102SAPE  H10X10400   6.277   4.918   4.486 -2.3285  0.1056  1.1466
  102SAPE  H10Y10401   6.323   4.759   4.540  1.0488  0.7470  0.3437
  102SAPE  C31110402   6.488   4.914   4.543  0.5930 -0.2023 -0.5300
  102SAPE  H11X10403   6.550   4.883   4.630  1.2502 -0.9181 -1.2370
  102SAPE  H11Y10404   6.477   5.025   4.547 -0.9726 -0.3550  0.9343
  102SAPE  C31210405   6.565   4.867   4.421 -0.2893  0.2538  0.1070
  102SAPE  H12X10406   6.576   4.956   4.355  1.5969 -0.1192 -0.1398
  102SAPE  H12Y10407   6.508   4.782   4.377  0.7103  0.3604 -1.4673
  102SAPE  C31310408   6.707   4.828   4.465  0.3445 -0.6159  0.5026
  102SAPE  H13X10409   6.692   4.738   4.528 -0.2897 -1.5951 -0.9904
  102SAPE  H13Y10410   6.757   4.907   4.525 -1.3096 -0.1738  1.3668
  102SAPE  C31410411   6.790   4.792   4.348  0.3775  0.4383  0.7427
  102SAPE  H14X10412   6.733   4.749   4.264  1.9304  1.2104 -0.7822
  102SAPE  H14Y10413   6.857   4.715   4.392 -0.3526 -1.6949 -1.6750
  102SAPE  C31510414   6.869   4.904   4.285 -0.1330  0.5633  0.1232
  102SAPE  H15X10415   6.911   4.977   4.358 -0.7904 -0.2234  1.3399
  102SAPE  H15Y10416   6.810   4.962   4.211 -0.1237  0.5959  0.1413
  102SAPE  C31610417   6.989   4.850   4.209 -0.1675  0.0098 -0.0095
  102SAPE  H16X10418   6.969   4.788   4.119  2.6262 -2.1563  0.7179
  102SAPE  H16Y10419   7.041   4.779   4.276  0.2002 -1.1144 -1.4248
  102SAPE  C31710420   7.098   4.952   4.184 -0.0024 -1.1414 -0.1377
  102SAPE  H17X10421   7.187   4.891   4.158 -0.9832 -3.4574  1.5536
  102SAPE  H17Y10422   7.129   5.003   4.277 -0.6430 -2.9695  1.1404
  102SAPE  C31810423   7.077   5.054   4.074 -0.0929 -0.2650  0.3698
  102SAPE  H18X10424   7.045   5.001   3.982  1.1797  0.3382 -0.4418
  102SAPE  H18Y10425   7.172   5.103   4.046 -1.1550  1.1814 -0.8957
  102SAPE  H18Z10426   7.008   5.139   4.096  0.3804 -0.1385  1.4152
  103SAPE     N10427   3.722   6.749   2.338 -1.3114 -0.1806 -0.2073
  103SAPE   HN110428   3.682   6.693   2.416 -0.0740  0.8447  1.2538
  103SAPE   HN210429   3.683   6.846   2.345  0.5072  0.7465 -1.9040
  103SAPE   HN310430   3.705   6.707   2.245  0.9661 -1.4890 -0.1066
  103SAPE   C1210431   3.871   6.773   2.360 -0.2189  0.4805 -0.2484
  103SAPE  H12A10432   3.925   6.677   2.349 -0.2922  0.5723 -1.5578
  103SAPE  H12B10433   3.875   6.818   2.461  0.5777 -1.2556  0.5289
  103SAPE   C1110434   3.931   6.871   2.255 -0.8994 -0.1306 -0.0189
  103SAPE  H11A10435   3.900   6.827   2.157  0.8327  1.5854 -1.4355
  103SAPE  H11B10436   4.040   6.880   2.274 -1.0293 -0.2703  0.8235
  103SAPE     P10437   3.932   7.120   2.166  0.0245  0.2613  0.0587
  103SAPE   O1310438   4.068   7.161   2.199 -0.0263 -0.5283  0.1306
  103SAPE   O1410439   3.914   7.075   2.027  0.0852 -0.1803  0.4923
  103SAPE   O1210440   3.884   7.010   2.264  0.0360 -0.0266  0.1410
  103SAPE   O1110441   3.841   7.241   2.199  0.3794 -0.3148 -0.3241
  103SAPE    C110442   3.712   7.215   2.251 -0.0772 -0.1599 -0.3184
  103SAPE    HA10443   3.647   7.302   2.226  1.9940  1.0949 -1.6201
  103SAPE    HB10444   3.673   7.129   2.193  3.2405 -1.1422 -1.2761
  103SAPE    C210445   3.698   7.201   2.409  0.0076 -0.3901  0.1249
  103SAPE    HS10446   3.750   7.110   2.446 -1.2150 -0.4203  1.9205
  103SAPE   O2110447   3.555   7.202   2.431  0.2921  0.1590 -0.6134
  103SAPE   C2110448   3.511   7.076   2.453 -0.2469  0.7866  0.2791
  103SAPE   O2210449   3.574   6.972   2.432  0.1020 -0.1648  0.1934
  103SAPE   C2210450   3.360   7.074   2.495  0.3542 -0.8836  0.1828
  103SAPE   H2R10451   3.294   7.082   2.406 -1.8025  0.9349  1.8210
  103SAPE   H2S10452   3.344   6.984   2.557  0.4104  0.1753  1.8171
  103SAPE    C310453   3.763   7.324   2.480  0.0300  0.1662 -0.0203
  103SAPE    HX10454   3.700   7.408   2.443 -1.3054 -1.4830 -1.6470
  103SAPE    HY10455   3.870   7.340   2.456  0.1443 -0.7393 -0.1337
  103SAPE   O3110456   3.748   7.320   2.627 -0.1498 -0.1329  0.9944
  103SAPE   C3110457   3.812   7.233   2.695 -0.4041  0.2616 -0.2154
  103SAPE   O3210458   3.892   7.152   2.647  0.1615  0.0323 -0.0920
  103SAPE   C3210459   3.757   7.242   2.840 -0.0791  0.0850  1.2931
  103SAPE   H2X10460   3.662   7.185   2.838 -0.9858  1.5393 -0.6991
  103SAPE   H2Y10461   3.725   7.346   2.861  0.5134  0.5738 -0.1011
  103SAPE   C2310462   3.320   7.185   2.589  0.2045  0.1008 -0.5251
  103SAPE   H3R10463   3.210   7.197   2.576  0.0672 -0.9115 -0.3329
  103SAPE   H3S10464   3.356   7.284   2.553 -1.9924  0.6011 -1.5694
  103SAPE   C2410465   3.355   7.168   2.745 -0.3244  0.2324  0.2742
  103SAPE   H4R10466   3.443   7.102   2.730 -1.0850 -1.1185  1.5050
  103SAPE   H4S10467   3.276   7.109   2.795 -2.2359  2.4522  0.0319
  103SAPE   C2510468   3.384   7.299   2.817  0.0211 -0.0128  0.5189
  103SAPE   H5R10469   3.445   7.370   2.759  0.9954 -1.5227 -0.3690
  103SAPE   C2610470   3.340   7.343   2.937 -0.1959 -0.4841 -0.2188
  103SAPE   H6R10471   3.372   7.442   2.972 -0.6000  0.2463 -1.7931
  103SAPE   C2710472   3.238   7.273   3.022  0.5830 -0.9915 -0.4440
  103SAPE   H7R10473   3.180   7.197   2.966  0.1726  0.8679 -2.6618
  103SAPE   H7S10474   3.168   7.358   3.033  1.9143  0.2554 -1.3028
  103SAPE   C2810475   3.290   7.226   3.152  0.4252 -0.3525  0.0645
  103SAPE   H8R10476   3.369   7.151   3.139 -0.1893 -1.1180  0.6630
  103SAPE   C2910477   3.243   7.266   3.272 -0.1828  1.0403 -0.5223
  103SAPE   H9R10478   3.297   7.233   3.362 -1.4153  0.6188  0.0834
  103SAPE  C21010479   3.137   7.370   3.297  0.5444 -0.1288 -0.9312
  103SAPE  H10R10480   3.041   7.324   3.265 -0.3552  1.2091 -0.2370
  103SAPE  H10S10481   3.154   7.454   3.227 -1.4375  2.5327  1.5615
  103SAPE  C21110482   3.131   7.421   3.441 -0.0880  0.0429  0.6420
  103SAPE  H11R10483   3.178   7.520   3.443  0.2973 -0.0143 -2.1934
  103SAPE  C21210484   3.089   7.359   3.555 -1.2880 -0.5821 -0.8759
  103SAPE  H12R10485   3.094   7.419   3.648 -2.1716 -2.7479  0.6523
  103SAPE  C21310486   3.040   7.217   3.568 -1.1873 -0.0211 -0.1451
  103SAPE  H13R10487   3.057   7.163   3.473  2.7371  0.8393 -0.0823
  103SAPE  H13S10488   2.931   7.224   3.589 -1.0983 -0.2022  0.4140
  103SAPE  C21410489   3.133   7.143   3.666 -0.2330 -0.8186  0.0416
  103SAPE  H14R10490   3.234   7.182   3.685 -0.6255  1.0962 -1.4803
  103SAPE  C21510491   3.104   7.027   3.714  0.4467 -0.4293  0.3135
  103SAPE  H15R10492   3.173   6.977   3.783 -0.4185 -1.3883  0.5042
  103SAPE  C21610493   2.987   6.940   3.672 -0.7885  0.0315  0.9845
  103SAPE  H16R10494   3.015   6.842   3.627 -0.4547  1.3716 -1.9741
  103SAPE  H16S10495   2.926   6.989   3.593 -0.6423 -2.3225 -0.7110
  103SAPE  C21710496   2.882   6.926   3.789  0.1169 -0.4510 -0.0427
  103SAPE  H17R10497   2.864   7.026   3.835 -3.7094 -0.4180 -1.2460
  103SAPE  H17S10498   2.912   6.854   3.867  2.4565 -0.9096 -1.2831
  103SAPE  C21810499   2.744   6.889   3.742 -0.6073 -0.8583 -0.3160
  103SAPE  H18R10500   2.681   6.880   3.833 -0.8096 -0.1881 -0.3832
  103SAPE  H18S10501   2.763   6.786   3.704  2.8423 -0.3469 -0.2908
  103SAPE  C21910502   2.678   6.993   3.650  0.1307 -0.1151  0.0578
  103SAPE  H19R10503   2.725   6.991   3.549  0.9780  0.1534  0.4348
  103SAPE  H19S10504   2.686   7.096   3.692  0.4391  0.1267 -0.5805
  103SAPE  C22010505   2.526   6.968   3.632  0.2150  0.0571 -0.0692
  103SAPE  H20R10506   2.481   7.054   3.578  2.8024  0.0193 -2.5023
  103SAPE  H20S10507   2.477   6.967   3.732  0.3521 -2.0996  0.0162
  103SAPE  H20T10508   2.508   6.879   3.569 -0.2108  0.0298  0.0884
  103SAPE   C3310509   3.854   7.188   2.936 -0.5965 -0.1463 -0.5848
  103SAPE   H3X10510   3.935   7.262   2.955 -1.0667  0.0457  0.7725
  103SAPE   H3Y10511   3.900   7.093   2.902 -0.6655 -0.1038 -0.7975
  103SAPE   C3410512   3.775   7.149   3.066 -0.3871  0.0710  0.2168
  103SAPE   H4X10513   3.844   7.093   3.133  0.4847  0.6863 -0.1454
  103SAPE   H4Y10514   3.693   7.080   3.038 -0.2263  0.3236 -0.9204
  103SAPE   C3510515   3.730   7.269   3.146  0.1538  0.0244  0.2023
  103SAPE   H5X10516   3.645   7.317   3.093  1.9481  1.9251 -1.0521
  103SAPE   H5Y10517   3.810   7.345   3.150  1.9353 -1.7263 -0.3399
  103SAPE   C3610518   3.674   7.241   3.289 -0.2785 -0.2929  0.1622
  103SAPE   H6X10519   3.750   7.199   3.359  0.0572 -0.5468 -0.3450
  103SAPE   H6Y10520   3.583   7.178   3.280 -1.5589  1.7725 -2.2217
  103SAPE   C3710521   3.628   7.371   3.364  0.8206  0.0020  0.0592
  103SAPE   H7X10522   3.539   7.407   3.309 -0.4085 -0.9407  1.3513
  103SAPE   H7Y10523   3.708   7.448   3.366  2.3170 -1.4663 -0.2037
  103SAPE   C3810524   3.599   7.337   3.509  0.3494  0.7237 -0.2580
  103SAPE   H8X10525   3.697   7.323   3.558  0.0411 -0.2863  0.0989
  103SAPE   H8Y10526   3.556   7.235   3.513  0.3438  0.7569  0.9209
  103SAPE   C3910527   3.512   7.437   3.579  0.6537  0.7469 -0.3248
  103SAPE   H9X10528   3.416   7.460   3.528  0.9519  1.3550 -0.6264
  103SAPE   H9Y10529   3.561   7.537   3.577  3.7659 -0.6554 -0.5566
  103SAPE  C31010530   3.471   7.397   3.725 -0.1341 -0.7222 -0.7123
  103SAPE  H10X10531   3.560   7.360   3.780 -0.4707 -1.9140 -0.9317
  103SAPE  H10Y10532   3.405   7.308   3.727 -0.9211 -0.1422  0.6511
  103SAPE  C31110533   3.403   7.500   3.823  0.0840 -0.4422 -0.1555
  103SAPE  H11X10534   3.378   7.439   3.912  1.4546 -1.5605 -0.4972
  103SAPE  H11Y10535   3.317   7.546   3.771 -0.9950 -0.3183  1.6455
  103SAPE  C31210536   3.495   7.617   3.855  0.0191 -0.6564 -0.2081
  103SAPE  H12X10537   3.436   7.709   3.874  2.3243  1.0906 -0.9883
  103SAPE  H12Y10538   3.561   7.634   3.767 -0.5444  2.7766 -0.1044
  103SAPE  C31310539   3.582   7.594   3.979  0.2788 -0.2346  0.0826
  103SAPE  H13X10540   3.641   7.501   3.965 -0.7710 -1.0540  0.8437
  103SAPE  H13Y10541   3.514   7.578   4.066 -1.4231 -0.8674 -1.3097
  103SAPE  C31410542   3.690   7.706   4.015 -0.1033 -0.1230 -0.6329
  103SAPE  H14X10543   3.751   7.719   3.923  1.6365 -1.6246  0.2518
  103SAPE  H14Y10544   3.759   7.668   4.094 -0.5666 -0.6652 -0.4836
  103SAPE  C31510545   3.626   7.833   4.068 -0.2433 -0.4475 -0.4778
  103SAPE  H15X10546   3.544   7.865   4.000 -2.2009  1.1035  2.3611
  103SAPE  H15Y10547   3.696   7.917   4.086 -0.5184 -0.6894  2.2080
  103SAPE  C31610548   3.554   7.825   4.206 -0.5026  0.0010  0.2116
  103SAPE  H16X10549   3.478   7.744   4.199 -2.5267  1.8523 -0.5600
  103SAPE  H16Y10550   3.497   7.920   4.221  2.3461  1.8645 -0.0325
  103SAPE  C31710551   3.643   7.805   4.323  0.1306  0.1066  0.2261
  103SAPE  H17X10552   3.723   7.881   4.337  0.0709  0.3900 -0.8899
  103SAPE  H17Y10553   3.704   7.713   4.311 -0.3578 -0.5418  2.2642
  103SAPE  C31810554   3.557   7.796   4.449  0.4884 -0.0527 -0.0718
  103SAPE  H18X10555   3.617   7.792   4.542  1.5906  2.0845 -0.6318
  103SAPE  H18Y10556   3.495   7.704   4.444 -0.4848  0.6392 -1.6887
  103SAPE  H18Z10557   3.488   7.881   4.472 -1.1758 -1.1754 -0.6929
  104SAPE     N10558   3.594   5.235   1.328  0.3005  0.4439  0.0398
  104SAPE   HN110559   3.533   5.279   1.257  0.1897 -1.0866 -0.8440
  104SAPE   HN210560   3.533   5.229   1.412  1.0632  1.1489  0.6572
  104SAPE   HN310561   3.680   5.292   1.343  0.4103  0.7078 -1.4463
  104SAPE   C1210562   3.647   5.107   1.280  0.1190 -0.0528  0.0995
  104SAPE  H12A10563   3.674   5.126   1.174  0.8384 -1.8735 -0.0787
  104SAPE  H12B10564   3.564   5.033   1.284  1.0847 -1.3472 -1.9782
  104SAPE   C1110565   3.775   5.069   1.359  0.7287 -0.9277 -0.4337
  104SAPE  H11A10566   3.852   5.149   1.357  2.4275 -2.3514  2.3196
  104SAPE  H11B10567   3.815   4.985   1.298  2.7200  1.0474 -2.0454
  104SAPE     P10568   3.827   4.900   1.549  0.4765 -0.2291  0.0739
  104SAPE   O1310569   3.729   4.786   1.526  0.0830 -0.7770  0.4706
  104SAPE   O1410570   3.958   4.895   1.489 -0.3550 -0.2885  0.0219
  104SAPE   O1210571   3.752   5.035   1.496  0.7886 -0.2391  0.4724
  104SAPE   O1110572   3.846   4.936   1.701  0.2891  0.4274 -0.6414
  104SAPE    C110573   3.739   4.996   1.779  0.1076 -0.3493 -0.0445
  104SAPE    HA10574   3.642   4.991   1.725  0.4475 -2.4228 -0.5365
  104SAPE    HB10575   3.729   4.934   1.870  0.9537  0.8400  0.8936
  104SAPE    C210576   3.771   5.145   1.812  0.5067  0.9017 -0.5722
  104SAPE    HS10577   3.798   5.195   1.717  2.3536  1.8430  0.3831
  104SAPE   O2110578   3.876   5.149   1.909 -0.4469  0.1316  0.2676
  104SAPE   C2110579   3.928   5.266   1.908 -0.3657  0.5632 -0.3060
  104SAPE   O2210580   3.904   5.360   1.831  0.0091 -0.0897 -0.0502
  104SAPE   C2210581   4.019   5.270   2.032  0.5877  0.4134  0.2983
  104SAPE   H2R10582   3.953   5.276   2.122 -1.6114  1.6016 -1.3051
  104SAPE   H2S10583   4.071   5.172   2.038 -0.9835 -0.3988  1.5675
  104SAPE    C310584   3.642   5.209   1.872 -0.4285 -0.7734 -0.4545
  104SAPE    HX10585   3.559   5.206   1.797 -0.1890  0.2375 -0.7845
  104SAPE    HY10586   3.660   5.317   1.895 -1.2772 -0.7807  0.3089
  104SAPE   O3110587   3.594   5.140   1.993  0.1446 -0.1212  0.0640
  104SAPE   C3110588   3.649   5.183   2.104 -0.3634  0.0851 -1.0262
  104SAPE   O3210589   3.718   5.281   2.117 -0.3566 -0.2083  0.1442
  104SAPE   C3210590   3.594   5.094   2.214 -0.3108 -0.5252  0.1410
  104SAPE   H2X10591   3.626   4.990   2.193 -1.2669 -0.3233 -2.7202
  104SAPE   H2Y10592   3.483   5.095   2.213 -0.3378  0.0186  1.2944
  104SAPE   C2310593   4.120   5.383   2.025 -0.8385 -0.4844  0.8344
  104SAPE   H3R10594   4.067   5.477   2.001  0.3643 -0.1085 -0.5053
  104SAPE   H3S10595   4.192   5.385   1.941 -1.9554  1.4502 -0.1286
  104SAPE   C2410596   4.216   5.385   2.148 -0.2253 -0.8839 -0.1635
  104SAPE   H4R10597   4.305   5.323   2.125 -0.4562 -2.1408  2.0252
  104SAPE   H4S10598   4.167   5.336   2.235 -1.5319  1.2483  0.3801
  104SAPE   C2510599   4.257   5.533   2.166  0.2729  0.8327 -0.1559
  104SAPE   H5R10600   4.303   5.589   2.082 -1.7978  2.2293 -0.4234
  104SAPE   C2610601   4.256   5.590   2.284  0.4152  0.2020 -0.0187
  104SAPE   H6R10602   4.283   5.697   2.287 -0.0369  0.4676 -2.5551
  104SAPE   C2710603   4.203   5.522   2.411 -0.3058  0.0952  0.1515
  104SAPE   H7R10604   4.278   5.455   2.457 -0.0200  0.2908 -0.0240
  104SAPE   H7S10605   4.121   5.450   2.394  0.1728 -0.6133  0.7452
  104SAPE   C2810606   4.169   5.624   2.514 -0.1613  0.4981  0.3534
  104SAPE   H8R10607   4.177   5.732   2.491 -0.6533  0.2424 -1.1079
  104SAPE   C2910608   4.135   5.601   2.640 -0.0622  0.1924  0.7394
  104SAPE   H9R10609   4.126   5.690   2.703  1.7458  2.1748 -1.6305
  104SAPE  C21010610   4.126   5.465   2.702 -0.6300 -0.6697 -0.8065
  104SAPE  H10R10611   4.165   5.479   2.806 -1.1160  2.5059 -0.9499
  104SAPE  H10S10612   4.191   5.398   2.643 -1.2904  0.3530 -2.7779
  104SAPE  C21110613   3.983   5.414   2.706 -0.6170  0.4733 -0.1812
  104SAPE  H11R10614   3.934   5.406   2.608  0.3988  0.0733 -0.6791
  104SAPE  C21210615   3.909   5.388   2.813  0.0070 -0.0496  0.5191
  104SAPE  H12R10616   3.807   5.351   2.796 -0.6339  1.7549  0.2369
  104SAPE  C21310617   3.929   5.417   2.962  1.1073  0.8809 -0.9465
  104SAPE  H13R10618   3.831   5.429   3.013  1.7538  1.9756  0.0828
  104SAPE  H13S10619   3.978   5.515   2.977 -1.1769  1.8808  0.5256
  104SAPE  C21410620   4.014   5.323   3.045  0.2797 -0.5546 -0.9928
  104SAPE  H14R10621   4.092   5.265   2.993  2.4997  1.4445 -0.0386
  104SAPE  C21510622   4.019   5.320   3.182 -0.9325 -0.1343 -0.0264
  104SAPE  H15R10623   4.093   5.251   3.226 -1.8313 -0.3280  1.2486
  104SAPE  C21610624   3.927   5.385   3.292 -0.0524  0.3617  0.5881
  104SAPE  H16R10625   3.915   5.314   3.376 -0.6404  0.4127  0.5509
  104SAPE  H16S10626   3.829   5.425   3.257 -0.9166 -2.2375 -0.2268
  104SAPE  C21710627   4.007   5.501   3.347  0.2408 -0.3699  0.0652
  104SAPE  H17R10628   4.100   5.464   3.394 -0.0640 -0.4425  0.6284
  104SAPE  H17S10629   3.960   5.565   3.425 -0.5786 -1.4251  0.4555
  104SAPE  C21810630   4.062   5.600   3.246  0.2601  0.3097 -0.1406
  104SAPE  H18R10631   3.985   5.652   3.185  1.2160  3.0837  0.8768
  104SAPE  H18S10632   4.125   5.545   3.173 -0.0630 -0.5713  0.2231
  104SAPE  C21910633   4.136   5.709   3.324 -0.2683 -0.5234 -0.2659
  104SAPE  H19R10634   4.195   5.668   3.408 -2.2471 -0.0470  1.4232
  104SAPE  H19S10635   4.070   5.770   3.389  0.3250 -0.5639  0.3862
  104SAPE  C22010636   4.213   5.808   3.242 -0.1584 -0.2516 -0.3927
  104SAPE  H20R10637   4.268   5.750   3.165 -0.3944 -0.0218 -0.7370
  104SAPE  H20S10638   4.297   5.860   3.295  0.3787 -1.8371  0.3824
  104SAPE  H20T10639   4.149   5.880   3.186 -1.4459 -2.0375 -1.2911
  104SAPE   C3310640   3.637   5.146   2.353  0.1555 -1.0333  0.5330
  104SAPE   H3X10641   3.619   5.255   2.340  0.0881 -1.1586 -0.5019
  104SAPE   H3Y10642   3.747   5.132   2.364  0.0877 -1.7678  0.3298
  104SAPE   C3410643   3.566   5.098   2.475 -0.4068  0.4783  0.5345
  104SAPE   H4X10644   3.592   4.992   2.498  2.1278  1.2641  1.6943
  104SAPE   H4Y10645   3.459   5.096   2.446  0.0447 -1.4660 -1.2246
  104SAPE   C3510646   3.598   5.187   2.590  0.4962  0.0547 -0.7618
  104SAPE   H5X10647   3.573   5.290   2.555  0.9063 -0.3964 -2.4632
  104SAPE   H5Y10648   3.706   5.193   2.617  0.7768 -0.7334 -1.6687
  104SAPE   C3610649   3.512   5.162   2.713 -0.4238  0.3976 -0.4196
  104SAPE   H6X10650   3.519   5.052   2.730  1.5777  0.6199  0.5608
  104SAPE   H6Y10651   3.404   5.170   2.692 -0.0569  1.6080 -1.9497
  104SAPE   C3710652   3.551   5.253   2.825  0.4804 -0.1760  0.3648
  104SAPE   H7X10653   3.549   5.358   2.790  2.8053  0.7470  2.7387
  104SAPE   H7Y10654   3.653   5.229   2.862 -0.2231 -2.0371  1.2264
  104SAPE   C3810655   3.452   5.245   2.939  0.1756 -0.8445 -0.1139
  104SAPE   H8X10656   3.431   5.136   2.951 -0.2617 -0.6638  0.8335
  104SAPE   H8Y10657   3.353   5.284   2.906  0.5410  0.2253  0.0337
  104SAPE   C3910658   3.491   5.322   3.068 -0.1155  0.6703 -0.3188
  104SAPE   H9X10659   3.443   5.422   3.062 -4.5252 -1.2939 -2.2857
  104SAPE   H9Y10660   3.601   5.330   3.066  0.1300 -1.9798 -0.9388
  104SAPE  C31010661   3.429   5.257   3.193 -0.4980 -0.4279  0.2676
  104SAPE  H10X10662   3.465   5.152   3.204 -1.5198 -0.6298  1.9076
  104SAPE  H10Y10663   3.318   5.254   3.192 -0.5333  0.2149  1.0088
  104SAPE  C31110664   3.482   5.327   3.320 -0.1722  0.6843  0.3527
  104SAPE  H11X10665   3.461   5.436   3.311 -0.6764  0.8979  3.2283
  104SAPE  H11Y10666   3.593   5.322   3.318 -0.0361  2.4249 -2.1617
  104SAPE  C31210667   3.415   5.277   3.448 -0.6771  0.3277  0.0137
  104SAPE  H12X10668   3.424   5.168   3.467  1.1306  0.6241  1.0200
  104SAPE  H12Y10669   3.306   5.301   3.444 -1.3623 -2.4035  0.3439
  104SAPE  C31310670   3.475   5.348   3.570 -0.4613  0.0380 -0.3326
  104SAPE  H13X10671   3.437   5.303   3.665 -0.4468 -0.2002 -0.4392
  104SAPE  H13Y10672   3.445   5.455   3.576  1.6078  0.5985  1.0765
  104SAPE  C31410673   3.631   5.330   3.573  0.3170 -0.5594  0.0431
  104SAPE  H14X10674   3.675   5.407   3.505 -1.7041  1.4127  0.8590
  104SAPE  H14Y10675   3.645   5.226   3.536 -0.3788 -0.2166 -1.2404
  104SAPE  C31510676   3.689   5.338   3.716 -0.2333  0.2758  0.0267
  104SAPE  H15X10677   3.603   5.374   3.777  0.2588 -1.1965  1.6753
  104SAPE  H15Y10678   3.772   5.411   3.715  0.3054 -0.3186  0.5608
  104SAPE  C31610679   3.753   5.206   3.765  0.3174 -0.1476  0.0754
  104SAPE  H16X10680   3.837   5.187   3.695 -0.1335 -3.5473  0.2765
  104SAPE  H16Y10681   3.679   5.123   3.754 -0.1482  0.1857  0.6446
  104SAPE  C31710682   3.794   5.187   3.911 -0.4317 -0.0107  0.7244
  104SAPE  H17X10683   3.703   5.194   3.975 -2.8552  0.1186 -2.4459
  104SAPE  H17Y10684   3.869   5.267   3.927  0.5654 -0.5513 -1.0225
  104SAPE  C31810685   3.857   5.053   3.939  0.2146 -0.2178  0.1579
  104SAPE  H18X10686   3.930   5.021   3.861 -1.3627  2.0108 -2.4486
  104SAPE  H18Y10687   3.784   4.969   3.943  1.1209 -1.6185 -4.9496
  104SAPE  H18Z10688   3.902   5.050   4.040 -0.4733  0.2046  0.4845
  105SAPE     N10689   1.313   2.882   1.404 -0.1948  0.1763 -0.1058
  105SAPE   HN110690   1.241   2.956   1.408 -0.2709  0.0702  0.7409
  105SAPE   HN210691   1.405   2.917   1.369  0.0736 -0.3547  0.0544
  105SAPE   HN310692   1.278   2.816   1.331 -0.8378  1.4716 -1.0040
  105SAPE   C1210693   1.310   2.818   1.539  0.4348  0.3554 -0.4402
  105SAPE  H12A10694   1.392   2.865   1.599 -0.5495  0.3952  0.9368
  105SAPE  H12B10695   1.347   2.718   1.507  0.2436  0.1536 -0.0350
  105SAPE   C1110696   1.174   2.818   1.620  0.7813 -0.3942 -0.5325
  105SAPE  H11A10697   1.188   2.743   1.700  0.9345  0.8671  0.6500
  105SAPE  H11B10698   1.094   2.783   1.551 -1.1828  2.4358  0.1150
  105SAPE     P10699   1.086   3.075   1.603  0.0011 -0.3767 -0.3132
  105SAPE   O1310700   1.132   3.198   1.671 -0.8930  0.7322  0.1103
  105SAPE   O1410701   1.115   3.064   1.460  0.4014  0.6075  0.5617
  105SAPE   O1210702   1.146   2.945   1.678 -0.1762 -0.1823  0.4478
  105SAPE   O1110703   0.930   3.058   1.634 -0.4336 -0.0283  0.4524
  105SAPE    C110704   0.843   3.135   1.722 -0.0961 -0.4607  0.4292
  105SAPE    HA10705   0.845   3.242   1.693 -0.8046 -1.1162 -2.4038
  105SAPE    HB10706   0.740   3.098   1.702 -0.6854  2.1407 -2.0211
  105SAPE    C210707   0.887   3.122   1.870 -1.1161 -0.4918  0.3559
  105SAPE    HS10708   0.975   3.187   1.885 -0.6205 -1.2860  1.0160
  105SAPE   O2110709   0.920   2.983   1.892 -0.2147  0.2063  0.7275
  105SAPE   C2110710   1.028   2.968   1.971  0.4563  0.5180  0.2929
  105SAPE   O2210711   1.099   3.059   2.001  0.1006 -0.3855 -0.1155
  105SAPE   C2210712   1.061   2.818   2.008  0.3802  0.1552 -0.7130
  105SAPE   H2R10713   0.976   2.749   1.992  2.1985 -2.2919 -0.4324
  105SAPE   H2S10714   1.143   2.798   1.936  3.4290  2.0764  1.9192
  105SAPE    C310715   0.783   3.167   1.973  0.1827  0.1435 -0.0874
  105SAPE    HX10716   0.705   3.096   1.940  0.5687 -0.1203 -0.4457
  105SAPE    HY10717   0.748   3.270   1.950 -1.3228 -0.2147  0.5034
  105SAPE   O3110718   0.834   3.155   2.108 -0.0971  0.2129  0.3884
  105SAPE   C3110719   0.905   3.257   2.156 -0.0992 -0.0420  0.4132
  105SAPE   O3210720   0.917   3.360   2.097 -0.2922 -0.1988 -0.1708
  105SAPE   C3210721   0.970   3.225   2.287 -0.6083 -0.0047 -0.3496
  105SAPE   H2X10722   1.078   3.206   2.271 -0.3041  0.8912  0.5376
  105SAPE   H2Y10723   0.927   3.136   2.337  0.2411 -0.6172 -0.6833
  105SAPE   C2310724   1.113   2.804   2.152 -0.1360 -0.1614 -0.1617
  105SAPE   H3R10725   1.039   2.849   2.222  1.4455  1.5273  0.5270
  105SAPE   H3S10726   1.199   2.873   2.169  0.2059 -0.6475  0.1322
  105SAPE   C2410727   1.151   2.664   2.188 -0.1493  0.0885 -0.3685
  105SAPE   H4R10728   1.201   2.685   2.285  0.6058 -0.7226 -0.5661
  105SAPE   H4S10729   1.231   2.622   2.124  0.6810  0.9496  0.0737
  105SAPE   C2510730   1.040   2.562   2.181  0.0031 -0.0929 -0.1298
  105SAPE   H5R10731   1.017   2.518   2.082  1.1458 -1.1231  0.0504
  105SAPE   C2610732   0.976   2.511   2.290 -0.3480  0.2079 -0.2796
  105SAPE   H6R10733   0.885   2.450   2.273 -0.8669  1.2015 -1.2349
  105SAPE   C2710734   0.997   2.548   2.434  0.4650  0.4664 -0.0570
  105SAPE   H7R10735   0.903   2.536   2.493 -0.0540  1.6366 -0.6269
  105SAPE   H7S10736   1.009   2.658   2.434  0.9018  0.4631  1.9515
  105SAPE   C2810737   1.117   2.496   2.504  0.6933  0.3213 -0.2220
  105SAPE   H8R10738   1.198   2.472   2.433 -0.3694 -0.9486 -1.0566
  105SAPE   C2910739   1.144   2.504   2.639 -0.1743  0.0862 -0.3150
  105SAPE   H9R10740   1.239   2.461   2.674 -0.4184  0.6624  1.1283
  105SAPE  C21010741   1.048   2.551   2.755 -0.7048 -0.6272  0.2377
  105SAPE  H10R10742   1.036   2.464   2.822  2.1485 -1.7832 -0.6070
  105SAPE  H10S10743   0.947   2.576   2.715 -0.4707 -1.5145 -0.9588
  105SAPE  C21110744   1.098   2.664   2.835 -0.0211 -0.5646 -0.2947
  105SAPE  H11R10745   1.100   2.760   2.782 -0.9994 -0.7157 -0.6204
  105SAPE  C21210746   1.170   2.656   2.951  0.0625  0.3792  0.3324
  105SAPE  H12R10747   1.181   2.755   2.997 -4.3632  0.8258  0.8762
  105SAPE  C21310748   1.207   2.533   3.032  0.6529  0.3356 -0.1604
  105SAPE  H13R10749   1.298   2.549   3.094 -1.1574  0.9550  2.4920
  105SAPE  H13S10750   1.236   2.446   2.969  1.6791  1.0233 -0.6715
  105SAPE  C21410751   1.098   2.490   3.126  0.2384  0.1008  0.0266
  105SAPE  H14R10752   1.032   2.411   3.089  0.3444 -0.3519  0.7696
  105SAPE  C21510753   1.081   2.535   3.257  0.2057  0.4168  0.3442
  105SAPE  H15R10754   0.991   2.501   3.310  0.5705  1.3725  1.6418
  105SAPE  C21610755   1.157   2.647   3.324  0.6920  0.0737 -0.6829
  105SAPE  H16R10756   1.081   2.723   3.354  0.7283  0.0470 -0.5239
  105SAPE  H16S10757   1.232   2.690   3.255  1.9397  1.1735  1.2730
  105SAPE  C21710758   1.248   2.609   3.442 -0.0264  0.3024  0.0352
  105SAPE  H17R10759   1.309   2.700   3.457  0.3867 -0.1586  1.3328
  105SAPE  H17S10760   1.313   2.521   3.421  1.8974  0.8371  3.0313
  105SAPE  C21810761   1.174   2.590   3.572  0.4396  0.8040 -0.9906
  105SAPE  H18R10762   1.107   2.503   3.566  0.6399  0.2780  2.3698
  105SAPE  H18S10763   1.116   2.685   3.580 -0.2051  0.3855 -0.7173
  105SAPE  C21910764   1.266   2.566   3.689 -0.0593  0.2499  0.0905
  105SAPE  H19R10765   1.354   2.635   3.683  0.1251  0.2319  2.0521
  105SAPE  H19S10766   1.298   2.462   3.671 -0.2373  0.4025 -1.2232
  105SAPE  C22010767   1.188   2.580   3.826 -0.1970 -0.2091 -0.4355
  105SAPE  H20R10768   1.138   2.677   3.847  1.2196 -0.0871  3.2762
  105SAPE  H20S10769   1.251   2.565   3.917 -1.6698  1.7654  0.9989
  105SAPE  H20T10770   1.110   2.502   3.839 -0.5243  0.2380  0.3877
  105SAPE   C3310771   0.955   3.334   2.399 -0.0525  0.5228  0.2328
  105SAPE   H3X10772   0.846   3.343   2.416  0.0566 -0.0656  1.3597
  105SAPE   H3Y10773   0.995   3.430   2.361 -2.1080  0.7659 -1.4834
  105SAPE   C3410774   1.037   3.297   2.519 -0.3851 -0.2285 -0.1483
  105SAPE   H4X10775   1.046   3.387   2.582  0.4180  1.5777 -2.6992
  105SAPE   H4Y10776   1.140   3.266   2.492  0.5295  1.9785  0.6068
  105SAPE   C3510777   0.980   3.178   2.597 -0.6944 -0.1786  0.3405
  105SAPE   H5X10778   0.966   3.090   2.531  1.5084  0.2882 -0.8548
  105SAPE   H5Y10779   0.881   3.200   2.643  0.8325  1.0736  3.3039
  105SAPE   C3610780   1.074   3.134   2.714  0.1165 -0.7119  0.0753
  105SAPE   H6X10781   1.114   3.225   2.763  1.3763 -1.0364 -0.3065
  105SAPE   H6Y10782   1.156   3.072   2.673 -0.8880 -0.8819 -1.7733
  105SAPE   C3710783   1.008   3.060   2.830  0.6671 -0.3875 -0.6976
  105SAPE   H7X10784   1.003   2.949   2.818 -0.9313 -0.3362 -0.6257
  105SAPE   H7Y10785   0.901   3.089   2.822  0.7952 -0.1616 -1.7367
  105SAPE   C3810786   1.054   3.115   2.967 -0.8340  0.3851  0.1708
  105SAPE   H8X10787   1.032   3.224   2.960  1.6899  1.1072  2.2312
  105SAPE   H8Y10788   1.163   3.101   2.983 -0.8992 -0.7926 -0.3209
  105SAPE   C3910789   0.974   3.071   3.096 -0.6166 -1.0796  0.0482
  105SAPE   H9X10790   0.972   2.960   3.103 -1.8304 -1.0112  5.1648
  105SAPE   H9Y10791   0.871   3.110   3.083 -0.2879 -0.4372 -0.6793
  105SAPE  C31010792   1.047   3.120   3.229  0.7831 -0.2039 -0.4859
  105SAPE  H10X10793   1.047   3.231   3.232  1.7634 -0.1478 -1.5645
  105SAPE  H10Y10794   1.153   3.087   3.232  1.0778  0.7972  0.7660
  105SAPE  C31110795   0.981   3.071   3.355 -0.4332 -0.0827 -0.5424
  105SAPE  H11X10796   0.997   2.962   3.371 -1.3971 -0.1514  0.0619
  105SAPE  H11Y10797   0.872   3.091   3.342 -0.2802  0.3718 -1.1096
  105SAPE  C31210798   1.025   3.141   3.486  1.4163 -0.1626  0.2526
  105SAPE  H12X10799   0.978   3.242   3.489 -0.0394 -0.8574  1.5490
  105SAPE  H12Y10800   1.135   3.157   3.473  1.4781 -0.9444 -0.2187
  105SAPE  C31310801   1.003   3.066   3.613 -0.5332 -0.2145  0.2246
  105SAPE  H13X10802   1.039   2.963   3.593 -0.3362 -0.0865 -0.0909
  105SAPE  H13Y10803   0.893   3.066   3.631 -0.3750  1.3540  1.4334
  105SAPE  C31410804   1.086   3.121   3.731  0.2245  0.6585 -0.0617
  105SAPE  H14X10805   1.024   3.198   3.782 -1.2176 -1.1717  1.0693
  105SAPE  H14Y10806   1.174   3.181   3.698  0.2273  2.5560  3.0265
  105SAPE  C31510807   1.134   3.020   3.834  0.0746  0.2078  0.2406
  105SAPE  H15X10808   1.201   2.950   3.780 -1.5959 -1.9063  0.7520
  105SAPE  H15Y10809   1.045   2.964   3.872 -0.6273  2.1605  1.6880
  105SAPE  C31610810   1.201   3.082   3.955 -0.0840 -0.2757  0.8523
  105SAPE  H16X10811   1.233   3.011   4.035  0.3703  1.1967  2.0258
  105SAPE  H16Y10812   1.130   3.150   4.007 -2.2872 -1.2809 -0.6878
  105SAPE  C31710813   1.323   3.167   3.916 -0.0077 -0.3596  1.2930
  105SAPE  H17X10814   1.289   3.252   3.854  2.0720  0.3296  1.0293
  105SAPE  H17Y10815   1.401   3.115   3.856 -0.1733  0.7647  0.0542
  105SAPE  C31810816   1.388   3.236   4.039  0.1677 -0.6587 -0.3803
  105SAPE  H18X10817   1.430   3.164   4.112  0.5205 -0.3686 -0.2970
  105SAPE  H18Y10818   1.321   3.304   4.095 -0.3266 -2.3858  1.2278
  105SAPE  H18Z10819   1.465   3.303   3.994  1.1619 -1.2035  0.4783
  106SAPE     N10820   3.230   5.720   1.607 -0.5653  0.0410 -0.3286
  106SAPE   HN110821   3.301   5.643   1.602 -0.6351  0.0512 -1.8503
  106SAPE   HN210822   3.239   5.762   1.513 -1.5034  2.1362  0.4772
  106SAPE   HN310823   3.273   5.797   1.662 -2.3453  0.3332  0.7379
  106SAPE   C1210824   3.095   5.687   1.656  0.0935  0.6814  0.1193
  106SAPE  H12A10825   3.026   5.766   1.618 -0.0322  0.1638 -0.7586
  106SAPE  H12B10826   3.092   5.669   1.766  1.7764 -1.1347 -0.0784
  106SAPE   C1110827   3.036   5.551   1.599 -0.4179 -0.4035  0.7736
  106SAPE  H11A10828   3.088   5.466   1.648  0.7854  0.3849  0.8883
  106SAPE  H11B10829   3.076   5.534   1.497  2.0631 -0.8379  1.7637
  106SAPE     P10830   2.788   5.554   1.520  0.4182  0.2301  0.0276
  106SAPE   O1310831   2.833   5.670   1.439  0.1438 -0.1887  0.1589
  106SAPE   O1410832   2.770   5.426   1.450  0.1133  0.4222 -0.7770
  106SAPE   O1210833   2.898   5.530   1.628  0.8632  0.1625 -0.1404
  106SAPE   O1110834   2.669   5.587   1.605  0.0252 -0.7182 -0.1385
  106SAPE    C110835   2.616   5.717   1.618  0.0939 -0.6112 -0.4087
  106SAPE    HA10836   2.603   5.751   1.513  0.4896 -0.1555 -0.3122
  106SAPE    HB10837   2.512   5.711   1.657  0.0189 -2.3033 -0.7848
  106SAPE    C210838   2.712   5.806   1.705 -0.6405 -0.6856 -0.1783
  106SAPE    HS10839   2.808   5.787   1.652 -1.9264 -1.9397 -2.2123
  106SAPE   O2110840   2.721   5.768   1.845  0.2177 -0.4729 -0.2230
  106SAPE   C2110841   2.833   5.812   1.901  0.3343  0.6910 -0.2700
  106SAPE   O2210842   2.926   5.874   1.843  0.0249  0.4366 -0.2024
  106SAPE   C2210843   2.839   5.779   2.050  0.6737 -1.2081 -0.5477
  106SAPE   H2R10844   2.742   5.793   2.101  0.8084 -1.0720 -0.3277
  106SAPE   H2S10845   2.852   5.669   2.039 -0.1284 -1.2572 -1.0852
  106SAPE    C310846   2.671   5.956   1.685  0.1999 -0.0940 -0.9149
  106SAPE    HX10847   2.674   5.985   1.578 -2.5577 -0.0428 -1.0701
  106SAPE    HY10848   2.746   6.014   1.742  1.1705 -0.5749 -1.6676
  106SAPE   O3110849   2.544   5.986   1.751  0.8393  0.2454  0.1364
  106SAPE   C3110850   2.451   6.038   1.671  0.8372  0.6499 -0.9998
  106SAPE   O3210851   2.465   6.053   1.547  0.0728  0.3445 -0.1158
  106SAPE   C3210852   2.335   6.073   1.761 -0.2114  0.6048  0.1527
  106SAPE   H2X10853   2.374   6.133   1.846 -2.6893 -0.1717  1.9560
  106SAPE   H2Y10854   2.313   5.976   1.812  5.7132 -0.6053  1.1001
  106SAPE   C2310855   2.969   5.834   2.120 -0.4131  0.3562 -0.2244
  106SAPE   H3R10856   2.995   5.932   2.073  0.3322  1.5476  2.4837
  106SAPE   H3S10857   3.052   5.762   2.101  0.8495  1.6539  0.2263
  106SAPE   C2410858   2.955   5.870   2.266  0.5706 -0.0449 -0.6160
  106SAPE   H4R10859   2.878   5.948   2.287 -0.1900 -0.8354 -0.3752
  106SAPE   H4S10860   3.049   5.915   2.303 -0.0313 -0.8274  2.1552
  106SAPE   C2510861   2.933   5.742   2.343 -0.6285 -0.2512 -0.1536
  106SAPE   H5R10862   3.018   5.674   2.326 -0.8330 -0.4212 -0.4956
  106SAPE   C2610863   2.838   5.726   2.440  0.4085  0.6540 -0.5207
  106SAPE   H6R10864   2.847   5.642   2.512 -1.1888  1.0858  0.2301
  106SAPE   C2710865   2.741   5.842   2.467  0.4235 -0.2299  0.3084
  106SAPE   H7R10866   2.648   5.797   2.507  1.2629 -1.4467  0.9632
  106SAPE   H7S10867   2.719   5.912   2.384  1.7267  0.2456  0.3283
  106SAPE   C2810868   2.808   5.938   2.565 -0.2334  0.3465  0.0737
  106SAPE   H8R10869   2.908   5.969   2.533  0.0026  0.8046  1.2058
  106SAPE   C2910870   2.766   5.981   2.684 -0.4672  0.5880 -0.3241
  106SAPE   H9R10871   2.836   6.053   2.730  0.9283 -0.4303 -0.7852
  106SAPE  C21010872   2.642   5.950   2.763  0.3551 -0.3135 -0.4960
  106SAPE  H10R10873   2.673   5.887   2.849 -1.8019 -2.2900 -1.0809
  106SAPE  H10S10874   2.564   5.892   2.709  0.1465 -0.2629 -0.2483
  106SAPE  C21110875   2.575   6.078   2.826 -0.5009 -0.5099 -0.7312
  106SAPE  H11R10876   2.577   6.160   2.752  0.2903 -0.4111 -0.6067
  106SAPE  C21210877   2.530   6.096   2.954  0.7935  0.0232  0.6094
  106SAPE  H12R10878   2.473   6.184   2.988  0.1184 -0.3850  0.5454
  106SAPE  C21310879   2.533   5.972   3.046  0.2924  0.3272 -0.3313
  106SAPE  H13R10880   2.609   5.894   3.029  1.0912  0.7047  1.2892
  106SAPE  H13S10881   2.439   5.912   3.044 -0.9864  2.2385 -2.5733
  106SAPE  C21410882   2.552   6.029   3.189  0.7001  0.7293 -0.3717
  106SAPE  H14R10883   2.463   6.083   3.222  0.0582 -0.4816 -0.0468
  106SAPE  C21510884   2.654   6.020   3.272  0.3235 -0.3183  1.0922
  106SAPE  H15R10885   2.657   6.067   3.371  0.6284  0.0139  0.9270
  106SAPE  C21610886   2.780   5.936   3.237 -0.2822  0.1277  0.1407
  106SAPE  H16R10887   2.752   5.867   3.154  2.3339  0.9774 -1.5905
  106SAPE  H16S10888   2.795   5.869   3.324 -1.3165 -0.3591 -0.0357
  106SAPE  C21710889   2.911   6.012   3.197  0.4078  0.4267  0.4760
  106SAPE  H17R10890   2.993   5.938   3.189  0.3892  0.2494  1.7212
  106SAPE  H17S10891   2.939   6.079   3.282  1.3381 -0.7116  1.1026
  106SAPE  C21810892   2.886   6.085   3.066  1.2299 -0.0991 -0.2260
  106SAPE  H18R10893   2.797   6.151   3.075 -1.1707 -3.0636 -0.5541
  106SAPE  H18S10894   2.873   6.004   2.990  2.8238  0.2364 -0.8996
  106SAPE  C21910895   3.023   6.147   3.030  0.4659  0.0282  0.3844
  106SAPE  H19R10896   3.088   6.057   3.039  0.7235  0.4480  4.3941
  106SAPE  H19S10897   3.062   6.218   3.106 -0.2827  1.2559 -0.3401
  106SAPE  C22010898   3.015   6.211   2.891  0.0910 -0.4609 -0.1134
  106SAPE  H20R10899   3.080   6.301   2.880  0.7330 -1.2074 -3.3982
  106SAPE  H20S10900   2.911   6.247   2.872 -0.8502 -2.2181  1.3482
  106SAPE  H20T10901   3.031   6.141   2.807 -0.4184  0.5329 -1.0637
  106SAPE   C3310902   2.224   6.144   1.684 -0.5391  0.5331  0.3063
  106SAPE   H3X10903   2.190   6.075   1.604 -0.6108 -0.8905  1.5112
  106SAPE   H3Y10904   2.259   6.239   1.638  0.6899 -0.3090 -0.5660
  106SAPE   C3410905   2.100   6.155   1.775  0.5279 -0.5924 -0.1951
  106SAPE   H4X10906   2.067   6.051   1.796  0.4510 -0.3631  0.9274
  106SAPE   H4Y10907   2.018   6.206   1.720 -1.1605 -3.4397 -0.5042
  106SAPE   C3510908   2.125   6.226   1.914 -0.4263 -0.3874  0.5682
  106SAPE   H5X10909   2.198   6.306   1.890 -0.7074 -0.7088 -1.5842
  106SAPE   H5Y10910   2.185   6.163   1.983  1.3313 -0.9052 -1.3045
  106SAPE   C3610911   2.000   6.284   1.974 -0.4808  0.1209 -0.6483
  106SAPE   H6X10912   1.935   6.331   1.897 -1.2676 -0.2963 -0.2601
  106SAPE   H6Y10913   2.029   6.365   2.044 -1.0190  1.1256 -1.5549
  106SAPE   C3710914   1.916   6.179   2.052 -0.1689 -0.5230 -0.1766
  106SAPE   H7X10915   1.889   6.094   1.985  0.0460  0.3795 -1.4404
  106SAPE   H7Y10916   1.812   6.214   2.068  0.9832  3.3749 -0.2742
  106SAPE   C3810917   1.969   6.149   2.197 -0.1039  0.4256  0.0203
  106SAPE   H8X10918   1.972   6.246   2.251  2.3186  0.3928  0.0911
  106SAPE   H8Y10919   2.076   6.120   2.187  0.1434  1.2906  0.1041
  106SAPE   C3910920   1.882   6.050   2.285 -0.1350 -0.1113  0.1750
  106SAPE   H9X10921   1.870   5.950   2.238  1.0273 -0.7263  1.1176
  106SAPE   H9Y10922   1.786   6.105   2.293 -0.9239 -1.3942 -0.2055
  106SAPE  C31010923   1.936   6.034   2.428 -0.4244  0.2843  0.6054
  106SAPE  H10X10924   1.961   6.129   2.479  2.7695  0.8105 -1.6169
  106SAPE  H10Y10925   2.034   5.981   2.420 -0.6470  0.1113 -2.3438
  106SAPE  C31110926   1.831   5.958   2.515 -0.4603  0.0399  0.1275
  106SAPE  H11X10927   1.786   5.878   2.452  0.7726 -1.0444  0.5500
  106SAPE  H11Y10928   1.746   6.023   2.542  1.9425  2.7622  1.7730
  106SAPE  C31210929   1.893   5.902   2.641 -0.2259 -0.2221  0.2007
  106SAPE  H12X10930   1.993   5.943   2.666  0.3592 -1.6631  0.2837
  106SAPE  H12Y10931   1.910   5.793   2.629  3.3695  0.1865  0.4491
  106SAPE  C31310932   1.806   5.908   2.758  0.8827  0.5711 -1.2668
  106SAPE  H13X10933   1.726   5.833   2.747  0.0009  0.9315  1.6548
  106SAPE  H13Y10934   1.763   6.009   2.780  0.0869  0.0054 -0.1485
  106SAPE  C31410935   1.876   5.890   2.893 -0.6085  0.4959 -0.1803
  106SAPE  H14X10936   1.959   5.964   2.905 -0.2772  0.1934 -0.5923
  106SAPE  H14Y10937   1.932   5.795   2.900 -1.4034 -0.0232 -0.7762
  106SAPE  C31510938   1.794   5.913   3.017 -0.0339 -0.4663  0.0488
  106SAPE  H15X10939   1.696   5.859   3.016 -0.3858 -0.0145  2.8386
  106SAPE  H15Y10940   1.770   6.020   3.030 -1.0976 -0.5811 -0.8086
  106SAPE  C31610941   1.870   5.865   3.143 -0.0761  0.1875  0.5160
  106SAPE  H16X10942   1.972   5.908   3.153 -0.4066  0.6113  2.6620
  106SAPE  H16Y10943   1.880   5.755   3.155  2.0549  0.2324 -0.3104
  106SAPE  C31710944   1.813   5.918   3.270 -0.3107 -0.0471  1.1599
  106SAPE  H17X10945   1.707   5.888   3.264  0.1635 -1.4880 -1.8995
  106SAPE  H17Y10946   1.815   6.028   3.256 -0.2803 -0.1799  0.0254
  106SAPE  C31810947   1.880   5.877   3.398  0.3885 -0.1353  0.5010
  106SAPE  H18X10948   1.976   5.930   3.414 -0.6354  1.5716  1.3276
  106SAPE  H18Y10949   1.897   5.767   3.400 -1.1479 -0.3963  1.1771
  106SAPE  H18Z10950   1.814   5.906   3.483  1.1489  0.9925  0.7248
  107SAPE     N10951   0.590   4.597   1.878  0.2677  0.6587 -0.3174
  107SAPE   HN110952   0.566   4.690   1.918  0.4154  1.0385 -1.0809
  107SAPE   HN210953   0.681   4.603   1.828  0.9330  1.9813  0.9801
  107SAPE   HN310954   0.519   4.579   1.805  0.5784 -0.2596 -0.4068
  107SAPE   C1210955   0.588   4.477   1.969  0.0846  0.4504 -0.3243
  107SAPE  H12A10956   0.668   4.489   2.046 -0.5015 -2.6427  0.9228
  107SAPE  H12B10957   0.611   4.384   1.914  0.7774  1.7107 -2.2812
  107SAPE   C1110958   0.450   4.460   2.032  0.3214 -0.4467 -0.2726
  107SAPE  H11A10959   0.430   4.531   2.115 -1.7424  0.0913 -1.1698
  107SAPE  H11B10960   0.461   4.361   2.082 -0.4637  0.1777  1.1967
  107SAPE     P10961   0.232   4.549   1.929 -0.1209  0.1300  0.6777
  107SAPE   O1310962   0.290   4.678   1.902  0.8369  0.4849 -0.2007
  107SAPE   O1410963   0.129   4.490   1.840  0.1309  0.2818  0.2168
  107SAPE   O1210964   0.353   4.451   1.933 -1.0113  0.4967 -0.1842
  107SAPE   O1110965   0.187   4.540   2.079  0.4278  0.2375  0.4271
  107SAPE    C110966   0.119   4.650   2.135 -0.6816 -0.0061  0.8472
  107SAPE    HA10967   0.173   4.746   2.118  1.7586 -1.2332  1.2346
  107SAPE    HB10968   0.016   4.663   2.097 -1.1641 -0.6369  1.8864
  107SAPE    C210969   0.101   4.616   2.290  0.5330  0.2965 -0.1065
  107SAPE    HS10970   0.042   4.696   2.339  0.0117 -0.6213  0.8000
  107SAPE   O2110971   0.223   4.589   2.361  0.0666 -0.4770  0.2159
  107SAPE   C2110972   0.321   4.678   2.350  0.0362 -0.8085  0.2736
  107SAPE   O2210973   0.312   4.788   2.302  0.1641  0.1280 -0.8533
  107SAPE   C2210974   0.445   4.641   2.419 -0.4254  0.6119 -0.1927
  107SAPE   H2R10975   0.477   4.536   2.398 -0.3395  0.6741 -0.3774
  107SAPE   H2S10976   0.529   4.708   2.390 -1.1934  2.0196  0.7143
  107SAPE    C310977  -0.001   4.494   2.297  0.5143 -0.5918 -0.1378
  107SAPE    HX10978   0.032   4.408   2.234  0.5240 -1.4860  1.0610
  107SAPE    HY10979  -0.102   4.520   2.257  1.1073  1.1440 -0.5708
  107SAPE   O3110980  -0.019   4.441   2.425 -0.1716  0.3683 -0.2054
  107SAPE   C3110981  -0.077   4.521   2.523  0.2428 -0.4102 -0.1251
  107SAPE   O3210982  -0.131   4.628   2.494  0.6321 -0.5772  0.2444
  107SAPE   C3210983  -0.063   4.451   2.656 -0.6765 -0.2764  0.2336
  107SAPE   H2X10984   0.043   4.449   2.688 -0.3071  0.5831 -0.8642
  107SAPE   H2Y10985  -0.088   4.345   2.635  0.5286 -0.7225  0.9516
  107SAPE   C2310986   0.433   4.633   2.575  0.1445  0.8908 -0.4712
  107SAPE   H3R10987   0.334   4.587   2.597 -0.1112  1.7684  0.3037
  107SAPE   H3S10988   0.423   4.735   2.619  2.8200  0.3982  1.5381
  107SAPE   C2410989   0.553   4.561   2.638 -0.5968 -0.0491  0.5295
  107SAPE   H4R10990   0.579   4.480   2.565 -0.5813  1.7660 -1.5829
  107SAPE   H4S10991   0.532   4.521   2.740 -1.2067 -0.6172  0.1931
  107SAPE   C2510992   0.673   4.649   2.647 -0.4788 -0.0394 -0.9503
  107SAPE   H5R10993   0.740   4.660   2.561  1.4410  2.1524  0.7144
  107SAPE   C2610994   0.718   4.707   2.760 -0.2911  0.0180 -0.7090
  107SAPE   H6R10995   0.817   4.753   2.740  1.1987 -2.7373 -0.1211
  107SAPE   C2710996   0.659   4.712   2.898  0.4348  0.3160 -0.6566
  107SAPE   H7R10997   0.554   4.746   2.897  0.5628  0.7125 -0.9785
  107SAPE   H7S10998   0.713   4.795   2.949  0.4049 -0.2861  0.3843
  107SAPE   C2810999   0.648   4.584   2.976 -0.5534  0.0039  0.6509
  107SAPE   H8R11000   0.630   4.493   2.918  1.2824 -0.8504  1.3559
  107SAPE   C2911001   0.645   4.580   3.114 -0.2142  0.7546 -0.0652
  107SAPE   H9R11002   0.642   4.477   3.151  1.0036  0.9077  0.5189
  107SAPE  C21011003   0.674   4.686   3.219 -0.2612  0.2955  0.1148
  107SAPE  H10R11004   0.578   4.716   3.268 -0.7542 -1.2869  0.1817
  107SAPE  H10S11005   0.703   4.779   3.167 -0.2627  0.7302  0.8698
  107SAPE  C21111006   0.778   4.672   3.323  0.6050  0.9336 -0.1514
  107SAPE  H11R11007   0.873   4.725   3.306  1.7926 -0.7110  1.0262
  107SAPE  C21211008   0.761   4.605   3.442  0.6856  0.2793 -0.2213
  107SAPE  H12R11009   0.851   4.610   3.504  1.9714 -0.0052 -1.9807
  107SAPE  C21311010   0.640   4.527   3.492 -0.7415 -0.6650  0.9738
  107SAPE  H13R11011   0.565   4.513   3.411  0.4531 -1.8662  0.0128
  107SAPE  H13S11012   0.591   4.577   3.578  0.7983  2.8755  0.0068
  107SAPE  C21411013   0.691   4.399   3.546  0.6086  0.7247 -0.1348
  107SAPE  H14R11014   0.673   4.316   3.476  0.5630  2.4487 -2.2851
  107SAPE  C21511015   0.750   4.369   3.666  0.1124 -0.0792  0.0821
  107SAPE  H15R11016   0.789   4.268   3.683  1.1436 -0.0208 -1.7595
  107SAPE  C21611017   0.785   4.466   3.778  0.0936  0.4494  0.0280
  107SAPE  H16R11018   0.777   4.572   3.747 -0.3523  0.5868  0.6005
  107SAPE  H16S11019   0.887   4.456   3.822  0.6784 -2.2193 -1.6586
  107SAPE  C21711020   0.680   4.459   3.889  0.1858  0.6958 -0.2915
  107SAPE  H17R11021   0.695   4.364   3.944  0.1858  0.0154 -1.4222
  107SAPE  H17S11022   0.573   4.470   3.859  0.4101  1.6956 -0.7820
  107SAPE  C21811023   0.714   4.569   3.990 -0.0407  0.5321  0.0172
  107SAPE  H18R11024   0.686   4.667   3.945 -2.0578  0.8224  1.7592
  107SAPE  H18S11025   0.820   4.567   4.023  0.6352  0.4605 -2.0061
  107SAPE  C21911026   0.627   4.562   4.119 -0.1930 -0.0778  0.2828
  107SAPE  H19R11027   0.696   4.591   4.202 -0.2025 -1.2622  0.7219
  107SAPE  H19S11028   0.595   4.457   4.136 -0.3951 -0.4405 -2.0913
  107SAPE  C22011029   0.493   4.648   4.120 -0.8674  0.7178  0.0609
  107SAPE  H20R11030   0.424   4.623   4.036  0.4099 -0.2571 -0.7454
  107SAPE  H20S11031   0.514   4.757   4.115  0.4699  0.6140  2.2788
  107SAPE  H20T11032   0.435   4.649   4.215 -0.4167 -0.0163  0.3529
  107SAPE   C3311033  -0.157   4.505   2.765  0.0889 -0.4094  1.1011
  107SAPE   H3X11034  -0.262   4.486   2.734  0.4582  0.0060 -0.4913
  107SAPE   H3Y11035  -0.144   4.614   2.775  1.2655 -0.2262 -1.4534
  107SAPE   C3411036  -0.123   4.459   2.900 -0.1459  0.0529  0.9017
  107SAPE   H4X11037  -0.015   4.455   2.925  0.3605 -0.3047 -1.1689
  107SAPE   H4Y11038  -0.160   4.357   2.921  0.0868 -0.0413  0.8641
  107SAPE   C3511039  -0.198   4.540   3.012 -0.2624 -0.2661 -0.1886
  107SAPE   H5X11040  -0.294   4.567   2.963 -0.2685 -0.7314 -0.4430
  107SAPE   H5Y11041  -0.140   4.633   3.033 -0.6854 -0.2339  0.8839
  107SAPE   C3611042  -0.204   4.450   3.139 -0.1820 -0.2450 -0.5190
  107SAPE   H6X11043  -0.100   4.431   3.174  0.1406  0.2641 -1.1966
  107SAPE   H6Y11044  -0.254   4.354   3.114  2.2698 -2.0751  1.1052
  107SAPE   C3711045  -0.284   4.507   3.257 -0.8187  0.3723  0.0163
  107SAPE   H7X11046  -0.383   4.457   3.254 -1.4387  1.4841  0.9419
  107SAPE   H7Y11047  -0.283   4.617   3.241 -0.3037  0.1120 -2.0838
  107SAPE   C3811048  -0.207   4.476   3.386  0.0761 -0.7174 -0.5272
  107SAPE   H8X11049  -0.102   4.498   3.360 -0.3693  0.3382 -1.5258
  107SAPE   H8Y11050  -0.216   4.367   3.407 -1.6124 -0.4624  0.2672
  107SAPE   C3911051  -0.224   4.575   3.503  0.1892  0.5402 -0.3422
  107SAPE   H9X11052  -0.321   4.567   3.556  1.8696  1.3547  3.1777
  107SAPE   H9Y11053  -0.227   4.675   3.455  0.2544  2.0692  2.6213
  107SAPE  C31011054  -0.122   4.572   3.616 -0.0872 -0.5078  0.5904
  107SAPE  H10X11055  -0.126   4.673   3.663 -0.8490  0.4955 -1.4952
  107SAPE  H10Y11056  -0.021   4.562   3.571 -0.6968 -0.2633 -0.8791
  107SAPE  C31111057  -0.143   4.467   3.723 -0.1744  0.1844 -0.3442
  107SAPE  H11X11058  -0.093   4.375   3.687 -0.0952 -1.3810  3.3308
  107SAPE  H11Y11059  -0.250   4.440   3.736 -0.4841 -0.0827 -2.9832
  107SAPE  C31211060  -0.072   4.508   3.854  0.8914 -0.7292  0.2067
  107SAPE  H12X11061  -0.118   4.606   3.879 -2.0171 -1.1086 -2.8870
  107SAPE  H12Y11062   0.037   4.515   3.836  0.7933  0.4925 -0.0114
  107SAPE  C31311063  -0.096   4.430   3.988 -0.2098 -0.3253  0.1648
  107SAPE  H13X11064  -0.060   4.483   4.078 -0.9529  0.1557  0.1807
  107SAPE  H13Y11065  -0.035   4.338   3.972  2.2871  1.5470 -2.0272
  107SAPE  C31411066  -0.242   4.407   4.006 -0.5631  0.7242 -0.8919
  107SAPE  H14X11067  -0.248   4.335   4.091 -0.4807  2.3311  0.5409
  107SAPE  H14Y11068  -0.283   4.349   3.920  0.5935 -0.6612 -0.5357
  107SAPE  C31511069  -0.320   4.540   4.033  0.3132  0.5037 -0.5651
  107SAPE  H15X11070  -0.359   4.563   3.931 -3.2180 -1.3699  0.1886
  107SAPE  H15Y11071  -0.257   4.626   4.064 -1.1422  1.9273 -1.3615
  107SAPE  C31611072  -0.443   4.519   4.128  0.4459 -0.7490  0.7384
  107SAPE  H16X11073  -0.412   4.491   4.231  0.1809 -3.2484  0.1955
  107SAPE  H16Y11074  -0.491   4.426   4.092 -1.5490  1.1928 -2.0737
  107SAPE  C31711075  -0.537   4.643   4.145 -0.2938 -0.1082  0.1330
  107SAPE  H17X11076  -0.575   4.662   4.043  1.3511 -0.5114 -0.6022
  107SAPE  H17Y11077  -0.476   4.729   4.180  0.4370 -0.4770 -0.1971
  107SAPE  C31811078  -0.651   4.615   4.247  0.2726 -0.3980  0.5371
  107SAPE  H18X11079  -0.741   4.679   4.240  0.2996 -0.2690  1.3197
  107SAPE  H18Y11080  -0.614   4.613   4.352 -0.1553 -0.0904  0.6972
  107SAPE  H18Z11081  -0.685   4.512   4.220  0.9546 -0.5294  0.1572
  108SAPE     N11082   1.100   4.659   1.689 -0.0278 -0.7230 -0.4533
  108SAPE   HN111083   1.057   4.666   1.784 -2.3268  0.8343 -1.5216
  108SAPE   HN211084   1.046   4.718   1.622  2.5165  1.3244 -0.8598
  108SAPE   HN311085   1.113   4.559   1.663  2.7756 -0.4748 -0.3176
  108SAPE   C1211086   1.235   4.725   1.701 -0.3150  0.3675  0.0879
  108SAPE  H12A11087   1.213   4.821   1.753  3.2513  0.7557  1.1009
  108SAPE  H12B11088   1.290   4.747   1.607 -1.6045  1.6105 -0.4210
  108SAPE   C1111089   1.327   4.641   1.789 -0.0570  0.8495  0.1688
  108SAPE  H11A11090   1.280   4.606   1.884  0.6859 -0.7350 -0.0014
  108SAPE  H11B11091   1.411   4.704   1.826 -2.0600  0.8776  5.7314
  108SAPE     P11092   1.507   4.527   1.642 -0.1037 -0.0583 -0.3966
  108SAPE   O1311093   1.508   4.421   1.536  0.2947 -0.1415 -0.3742
  108SAPE   O1411094   1.522   4.659   1.597  0.1306 -0.2906 -0.0401
  108SAPE   O1211095   1.372   4.524   1.720 -0.6251  0.0190 -0.4970
  108SAPE   O1111096   1.624   4.486   1.745  1.1293 -0.4487  0.0329
  108SAPE    C111097   1.721   4.594   1.772 -0.0785 -0.3437  1.0596
  108SAPE    HA11098   1.795   4.600   1.689 -1.9487 -0.5139 -0.7053
  108SAPE    HB11099   1.673   4.690   1.797  3.2789  1.5877  0.6473
  108SAPE    C211100   1.797   4.575   1.896 -0.0759  0.0586 -0.4766
  108SAPE    HS11101   1.853   4.483   1.872 -1.3044 -0.5869 -0.9331
  108SAPE   O2111102   1.722   4.558   2.016 -0.2177 -0.0682 -0.0606
  108SAPE   C2111103   1.776   4.550   2.128  0.3578 -0.2305 -0.7904
  108SAPE   O2211104   1.893   4.531   2.153 -0.3562  0.0482  0.4057
  108SAPE   C2211105   1.666   4.564   2.235  0.2100 -0.1964  0.4683
  108SAPE   H2R11106   1.575   4.599   2.182  1.3035 -2.7663 -3.5820
  108SAPE   H2S11107   1.654   4.463   2.279 -1.6317 -0.9148 -1.4778
  108SAPE    C311108   1.903   4.689   1.911 -0.5468 -0.0292  0.1535
  108SAPE    HX11109   1.958   4.690   1.814  0.2202  0.3107  0.5818
  108SAPE    HY11110   1.982   4.674   1.987  0.2629  0.3629 -0.5898
  108SAPE   O3111111   1.835   4.812   1.913  0.7700 -0.2686  0.2181
  108SAPE   C3111112   1.874   4.907   1.994  0.2005 -0.3755  0.1518
  108SAPE   O3211113   1.961   4.898   2.081 -0.3400 -0.2916 -0.0850
  108SAPE   C3211114   1.793   5.032   1.961  0.0542  0.4472 -0.1949
  108SAPE   H2X11115   1.763   5.021   1.855 -1.4682 -0.5530  0.3079
  108SAPE   H2Y11116   1.852   5.124   1.982 -0.1193  0.9963 -1.9398
  108SAPE   C2311117   1.705   4.666   2.348 -1.0291 -0.4518 -0.0057
  108SAPE   H3R11118   1.620   4.705   2.408 -0.3060  2.0201 -0.5164
  108SAPE   H3S11119   1.748   4.759   2.306  2.1927 -1.6973  0.2510
  108SAPE   C2411120   1.795   4.603   2.451 -0.2060 -0.3731 -0.2073
  108SAPE   H4R11121   1.883   4.552   2.406 -1.3759 -0.4401 -2.6367
  108SAPE   H4S11122   1.750   4.513   2.499  1.4664 -0.8804  0.4599
  108SAPE   C2511123   1.829   4.713   2.555 -0.0290  0.9545 -0.0139
  108SAPE   H5R11124   1.873   4.799   2.502 -0.0859  1.7158  1.1103
  108SAPE   C2611125   1.809   4.709   2.688  0.3133  0.3540  0.2203
  108SAPE   H6R11126   1.839   4.793   2.752 -2.3067  0.8443  0.9038
  108SAPE   C2711127   1.732   4.596   2.760 -0.4597  0.0805 -0.2468
  108SAPE   H7R11128   1.784   4.571   2.855 -0.6771 -0.7502 -0.3398
  108SAPE   H7S11129   1.755   4.505   2.702  1.6667  0.0651  0.5227
  108SAPE   C2811130   1.586   4.629   2.796 -0.6699 -0.3982  0.2313
  108SAPE   H8R11131   1.511   4.612   2.718  1.9222 -0.7477 -2.3642
  108SAPE   C2911132   1.558   4.694   2.909  0.5880  0.1613  0.0713
  108SAPE   H9R11133   1.458   4.738   2.924  1.5731  1.8598  2.2172
  108SAPE  C21011134   1.649   4.752   3.018  0.3418 -0.2435  0.2868
  108SAPE  H10R11135   1.622   4.860   3.022  0.2833 -0.1473 -1.5812
  108SAPE  H10S11136   1.757   4.743   2.992  0.6847  1.2825  1.0625
  108SAPE  C21111137   1.624   4.680   3.153 -0.1053 -0.4678  0.5182
  108SAPE  H11R11138   1.615   4.570   3.145  0.2493 -0.3579 -2.6711
  108SAPE  C21211139   1.646   4.743   3.269 -0.2919  0.7690  0.0216
  108SAPE  H12R11140   1.627   4.683   3.360 -0.2096 -0.5655 -0.8175
  108SAPE  C21311141   1.683   4.885   3.309 -0.3741  0.1872 -0.0135
  108SAPE  H13R11142   1.590   4.944   3.295  0.2357  1.2075  0.1502
  108SAPE  H13S11143   1.755   4.920   3.232 -1.2691  1.6152 -0.2499
  108SAPE  C21411144   1.750   4.909   3.439 -0.2667  0.2357 -0.1727
  108SAPE  H14R11145   1.689   4.958   3.516  1.4590 -1.3781  2.3763
  108SAPE  C21511146   1.876   4.870   3.484  0.6687 -0.9110  0.2369
  108SAPE  H15R11147   1.906   4.904   3.584 -0.0300  2.8467 -0.6497
  108SAPE  C21611148   1.985   4.799   3.400  0.7414 -0.9657 -0.1760
  108SAPE  H16R11149   1.962   4.780   3.293 -0.3542 -0.8855  0.0363
  108SAPE  H16S11150   2.006   4.702   3.450 -0.6123  0.1072  2.6598
  108SAPE  C21711151   2.104   4.896   3.399 -0.3836  0.9554 -0.0091
  108SAPE  H17R11152   2.080   4.985   3.338 -1.4904 -0.5286 -1.8585
  108SAPE  H17S11153   2.180   4.849   3.333  1.1790 -1.0796  3.0126
  108SAPE  C21811154   2.165   4.911   3.535 -0.1678 -0.3494  0.1980
  108SAPE  H18R11155   2.167   4.809   3.579  1.4006 -1.6065 -2.5577
  108SAPE  H18S11156   2.103   4.974   3.602  1.3266 -0.2699  1.5880
  108SAPE  C21911157   2.306   4.976   3.534 -0.7419  0.6383  0.2164
  108SAPE  H19R11158   2.284   5.074   3.488 -4.3608  1.1017  2.5505
  108SAPE  H19S11159   2.381   4.923   3.471  0.5949  2.0787  0.5210
  108SAPE  C22011160   2.371   4.988   3.672  0.7939  0.3981 -0.0963
  108SAPE  H20R11161   2.460   5.054   3.668  1.8643 -0.9586  0.4646
  108SAPE  H20S11162   2.408   4.888   3.701 -0.0565 -0.2485 -1.1425
  108SAPE  H20T11163   2.301   5.029   3.748  1.4563  0.2555  0.6021
  108SAPE   C3311164   1.658   5.057   2.037  0.4629  0.7574  0.1447
  108SAPE   H3X11165   1.596   4.965   2.036  0.5601  0.6761  1.0542
  108SAPE   H3Y11166   1.621   5.149   1.985  2.3953  2.3240  1.3886
  108SAPE   C3411167   1.682   5.090   2.183 -0.4085 -0.0868 -0.4211
  108SAPE   H4X11168   1.726   5.192   2.192 -0.6984  0.1016 -1.1347
  108SAPE   H4Y11169   1.757   5.019   2.225 -1.2788 -0.8218 -0.0854
  108SAPE   C3511170   1.555   5.085   2.277  0.0163  0.4524 -0.2912
  108SAPE   H5X11171   1.475   5.151   2.236  0.4700  3.2262  2.8115
  108SAPE   H5Y11172   1.502   4.989   2.260 -0.0094  0.7827 -2.2426
  108SAPE   C3611173   1.572   5.140   2.420 -0.2264 -0.3922 -0.9628
  108SAPE   H6X11174   1.470   5.139   2.465  0.7441  2.0815  1.6318
  108SAPE   H6Y11175   1.602   5.246   2.422 -0.1351 -0.4192  0.1832
  108SAPE   C3711176   1.663   5.053   2.504 -1.3989 -0.4935  0.2171
  108SAPE   H7X11177   1.770   5.075   2.481 -1.0457 -1.1589  1.1710
  108SAPE   H7Y11178   1.644   4.947   2.477  0.1745 -0.6350 -0.4806
  108SAPE   C3811179   1.649   5.061   2.655 -0.0885 -0.4838  0.3229
  108SAPE   H8X11180   1.666   5.168   2.683 -1.7565  0.3692 -1.7313
  108SAPE   H8Y11181   1.732   5.010   2.709 -0.0756  1.0933  1.8885
  108SAPE   C3911182   1.511   5.022   2.713  0.3537  1.2530 -0.3644
  108SAPE   H9X11183   1.503   4.912   2.723 -4.1095  1.4188 -0.2192
  108SAPE   H9Y11184   1.434   5.043   2.636 -1.6005 -1.0025  0.8748
  108SAPE  C31011185   1.484   5.095   2.840  0.2821 -0.2428 -0.2932
  108SAPE  H10X11186   1.478   5.204   2.821 -3.0392  0.0441  1.5757
  108SAPE  H10Y11187   1.565   5.090   2.917  1.0754 -1.8069 -1.1749
  108SAPE  C31111188   1.345   5.045   2.885  0.2593  0.5539 -0.6561
  108SAPE  H11X11189   1.354   4.937   2.911  0.4457  0.2650 -1.8656
  108SAPE  H11Y11190   1.268   5.051   2.805  0.2919 -0.9620 -0.8300
  108SAPE  C31211191   1.286   5.117   3.010 -0.4874  0.0369 -0.5085
  108SAPE  H12X11192   1.187   5.069   3.028 -1.7994  2.6444 -0.3568
  108SAPE  H12Y11193   1.271   5.223   2.980 -0.4891  0.5383  1.1829
  108SAPE  C31311194   1.366   5.096   3.128 -0.0597  0.4088 -0.2314
  108SAPE  H13X11195   1.468   5.132   3.102 -0.8120  2.6151 -0.3021
  108SAPE  H13Y11196   1.364   4.990   3.161 -0.9658  0.8294  1.1905
  108SAPE  C31411197   1.332   5.184   3.258  1.0819  0.4499  0.2747
  108SAPE  H14X11198   1.227   5.153   3.271  1.4234 -1.0439 -0.3102
  108SAPE  H14Y11199   1.338   5.293   3.235  0.4409  0.4795  0.2360
  108SAPE  C31511200   1.417   5.142   3.374 -0.5390  0.2340 -0.5477
  108SAPE  H15X11201   1.524   5.158   3.349  0.2169 -0.7370  1.8373
  108SAPE  H15Y11202   1.409   5.034   3.399  0.1553  0.4681  0.7955
  108SAPE  C31611203   1.405   5.214   3.501 -0.2057  0.3056 -0.1782
  108SAPE  H16X11204   1.321   5.168   3.558  1.3808 -0.3929  1.7296
  108SAPE  H16Y11205   1.388   5.323   3.487  1.0880  0.6480  0.7265
  108SAPE  C31711206   1.526   5.211   3.591 -0.0015  0.5009  0.7356
  108SAPE  H17X11207   1.619   5.250   3.544 -0.4612 -1.4609 -2.0521
  108SAPE  H17Y11208   1.555   5.109   3.623  0.6031 -0.2190 -1.8510
  108SAPE  C31811209   1.503   5.280   3.720 -0.0790  0.0449 -0.1624
  108SAPE  H18X11210   1.569   5.249   3.804  0.1996  0.4811 -0.2166
  108SAPE  H18Y11211   1.396   5.270   3.749  0.8566 -1.9932  3.0943
  108SAPE  H18Z11212   1.532   5.387   3.707  0.1343 -0.1684 -1.6774
  109SAPE     N11213   0.142   2.122   1.864 -0.4374 -0.6055 -0.1409
  109SAPE   HN111214   0.213   2.196   1.878 -0.3761 -0.1138 -2.6105
  109SAPE   HN211215   0.159   2.067   1.778  0.5643  1.3637 -1.2507
  109SAPE   HN311216   0.050   2.170   1.855  0.2189  0.4822 -1.4245
  109SAPE   C1211217   0.144   2.030   1.988  0.0258  0.2962 -0.0129
  109SAPE  H12A11218   0.092   2.082   2.071  1.3631  1.3654  0.1988
  109SAPE  H12B11219   0.243   2.008   2.033 -1.7846 -1.5185  3.4361
  109SAPE   C1111220   0.066   1.896   1.967 -0.5058  0.3214 -0.1143
  109SAPE  H11A11221   0.042   1.853   2.066 -1.6445 -0.6407 -0.7838
  109SAPE  H11B11222   0.130   1.824   1.913 -3.4610 -0.1824 -3.3324
  109SAPE     P11223  -0.194   1.934   1.928 -0.3611 -0.0924 -0.0087
  109SAPE   O1311224  -0.189   2.050   2.016  0.1688 -0.2295 -0.2633
  109SAPE   O1411225  -0.283   1.938   1.809  0.0999  0.1315 -0.2696
  109SAPE   O1211226  -0.045   1.905   1.882  0.0151  0.1042 -0.3248
  109SAPE   O1111227  -0.224   1.800   2.007 -0.6272  0.2959 -0.2695
  109SAPE    C111228  -0.360   1.792   2.065 -0.0952 -0.5855 -0.4106
  109SAPE    HA11229  -0.433   1.872   2.041 -1.6678 -2.2066 -1.2075
  109SAPE    HB11230  -0.406   1.701   2.022  2.6599 -2.5268  0.4741
  109SAPE    C211231  -0.350   1.776   2.217 -0.2775 -0.3597  0.6291
  109SAPE    HS11232  -0.446   1.722   2.232  0.0951 -1.5947 -1.1525
  109SAPE   O2111233  -0.344   1.897   2.289 -0.0213 -0.0443 -0.3442
  109SAPE   C2111234  -0.458   1.964   2.295 -0.1579 -0.8298  0.5422
  109SAPE   O2211235  -0.564   1.926   2.254  0.4390 -0.2448 -0.6383
  109SAPE   C2211236  -0.430   2.080   2.387 -0.2705 -0.2844  0.2427
  109SAPE   H2R11237  -0.371   2.160   2.338 -1.3317  0.0964 -0.4536
  109SAPE   H2S11238  -0.529   2.117   2.420  0.5984  1.8574  0.6251
  109SAPE    C311239  -0.234   1.681   2.267 -0.4225 -0.0100 -0.1964
  109SAPE    HX11240  -0.139   1.703   2.214 -0.2224  0.1088  0.2081
  109SAPE    HY11241  -0.253   1.576   2.234 -1.8171  0.3382 -0.5667
  109SAPE   O3111242  -0.201   1.677   2.408  0.4909  0.1277 -0.2804
  109SAPE   C3111243  -0.111   1.766   2.447 -0.4311 -0.4079  0.1270
  109SAPE   O3211244  -0.038   1.831   2.371 -0.3197  0.3445  0.2384
  109SAPE   C3211245  -0.086   1.747   2.599  0.0096  0.2379  0.0132
  109SAPE   H2X11246  -0.018   1.828   2.634 -0.6685  0.2595  1.3549
  109SAPE   H2Y11247  -0.030   1.652   2.608 -1.1655 -0.5335 -0.5269
  109SAPE   C2311248  -0.341   2.049   2.510  0.3774  0.1644 -0.0339
  109SAPE   H3R11249  -0.240   2.019   2.475  0.0118 -2.3193  0.8265
  109SAPE   H3S11250  -0.392   1.980   2.582  1.3327 -0.9330 -0.3898
  109SAPE   C2411251  -0.322   2.183   2.583 -0.0988  0.2958  0.8936
  109SAPE   H4R11252  -0.300   2.261   2.507  0.6733 -1.2108 -0.4818
  109SAPE   H4S11253  -0.239   2.163   2.654 -1.1080 -0.6471  1.8692
  109SAPE   C2511254  -0.436   2.224   2.666  0.0744  0.5218 -0.1623
  109SAPE   H5R11255  -0.523   2.254   2.607 -0.4875  0.7777  0.7824
  109SAPE   C2611256  -0.454   2.206   2.801 -0.1712 -0.3336  0.2390
  109SAPE   H6R11257  -0.551   2.235   2.845 -0.3886  1.6815 -1.4253
  109SAPE   C2711258  -0.355   2.144   2.894  0.1487  0.2188 -0.3114
  109SAPE   H7R11259  -0.285   2.220   2.935  1.1730 -0.4648 -0.7555
  109SAPE   H7S11260  -0.286   2.074   2.842  0.0557  0.0165 -0.1669
  109SAPE   C2811261  -0.419   2.065   3.005 -0.2087 -0.1410  0.0146
  109SAPE   H8R11262  -0.450   1.965   2.974 -0.8773 -0.9770  3.0162
  109SAPE   C2911263  -0.442   2.101   3.134 -0.1023  0.5774  0.0181
  109SAPE   H9R11264  -0.493   2.036   3.207 -2.3660  0.8426 -1.2629
  109SAPE  C21011265  -0.396   2.230   3.193 -0.7420  0.0431  0.6425
  109SAPE  H10R11266  -0.380   2.296   3.105 -2.5171  0.0507  0.2968
  109SAPE  H10S11267  -0.301   2.220   3.250  0.3693  0.8309 -0.9918
  109SAPE  C21111268  -0.499   2.296   3.278 -0.2100  0.2215 -0.3528
  109SAPE  H11R11269  -0.564   2.368   3.226 -1.6286 -0.6483  0.1517
  109SAPE  C21211270  -0.525   2.272   3.409  0.4627 -0.7599  0.7569
  109SAPE  H12R11271  -0.615   2.325   3.443  0.2065 -1.1897  0.7531
  109SAPE  C21311272  -0.469   2.177   3.509  0.3047  0.2592  0.3473
  109SAPE  H13R11273  -0.408   2.097   3.461  1.0084  0.4190  0.9615
  109SAPE  H13S11274  -0.552   2.112   3.545  1.4312 -0.5517  1.5805
  109SAPE  C21411275  -0.394   2.236   3.618  0.9954 -0.7460 -0.4412
  109SAPE  H14R11276  -0.291   2.266   3.596  1.2608 -1.6099 -0.4088
  109SAPE  C21511277  -0.446   2.287   3.737 -0.4359  0.9011  0.3973
  109SAPE  H15R11278  -0.377   2.339   3.805  2.5548 -2.7384  0.4630
  109SAPE  C21611279  -0.589   2.287   3.780  0.0941  1.0511 -0.2739
  109SAPE  H16R11280  -0.621   2.206   3.849 -3.2384  0.4936 -2.2524
  109SAPE  H16S11281  -0.656   2.291   3.692  0.1494 -0.7726 -0.4397
  109SAPE  C21711282  -0.613   2.422   3.851  0.1027  0.3415  0.3345
  109SAPE  H17R11283  -0.714   2.401   3.892  0.5531  1.2932  2.0479
  109SAPE  H17S11284  -0.613   2.509   3.783 -0.2415 -0.9170 -1.3192
  109SAPE  C21811285  -0.536   2.451   3.976 -0.0159 -0.0775 -0.1870
  109SAPE  H18R11286  -0.432   2.487   3.964 -0.7064  1.9938 -0.2601
  109SAPE  H18S11287  -0.523   2.354   4.030  0.6108  0.3296  0.4229
  109SAPE  C21911288  -0.598   2.560   4.062 -0.3741 -0.4456 -0.0323
  109SAPE  H19R11289  -0.705   2.536   4.081 -0.5876  0.4953 -0.0178
  109SAPE  H19S11290  -0.595   2.661   4.017  1.2524 -0.0418  0.9067
  109SAPE  C22011291  -0.522   2.580   4.197  0.8516  0.0119 -0.4770
  109SAPE  H20R11292  -0.514   2.480   4.246  0.3836  0.4447  0.4973
  109SAPE  H20S11293  -0.576   2.645   4.269 -2.2234 -1.5623 -1.2061
  109SAPE  H20T11294  -0.414   2.607   4.190  1.1939 -0.9698  0.6036
  109SAPE   C3311295  -0.217   1.736   2.678 -0.6452  0.1888 -0.6994
  109SAPE   H3X11296  -0.279   1.658   2.628  0.7736 -1.7726  0.4549
  109SAPE   H3Y11297  -0.287   1.822   2.674 -2.2843 -1.1383 -2.1717
  109SAPE   C3411298  -0.192   1.719   2.831 -1.2353  0.5398 -0.3606
  109SAPE   H4X11299  -0.168   1.816   2.878 -1.9614  0.1378  0.8736
  109SAPE   H4Y11300  -0.102   1.655   2.842 -0.4916  1.4745 -0.8545
  109SAPE   C3511301  -0.292   1.634   2.913  0.4494  0.0873 -0.4298
  109SAPE   H5X11302  -0.297   1.532   2.868  0.1272 -0.1271  0.0946
  109SAPE   H5Y11303  -0.396   1.666   2.895  1.1539  1.0671 -3.3811
  109SAPE   C3611304  -0.268   1.620   3.064 -0.3424  0.0692 -0.0518
  109SAPE   H6X11305  -0.195   1.543   3.099 -1.2766 -1.1772 -0.7617
  109SAPE   H6Y11306  -0.359   1.574   3.107  0.0824  0.2780  1.1294
  109SAPE   C3711307  -0.235   1.750   3.145  0.1194 -0.3122 -0.6958
  109SAPE   H7X11308  -0.322   1.817   3.128  0.1765 -0.5363 -1.9394
  109SAPE   H7Y11309  -0.144   1.802   3.107  0.3593 -0.4567 -0.3238
  109SAPE   C3811310  -0.224   1.716   3.292 -0.1603 -0.0046  0.7463
  109SAPE   H8X11311  -0.127   1.673   3.323 -1.5635 -2.1408  2.4522
  109SAPE   H8Y11312  -0.299   1.639   3.319  0.3535 -1.6822 -2.1582
  109SAPE   C3911313  -0.270   1.831   3.391 -0.8071 -0.1408 -0.2984
  109SAPE   H9X11314  -0.378   1.852   3.386 -0.6614  0.6774 -0.1001
  109SAPE   H9Y11315  -0.219   1.926   3.368 -0.1244  0.0823  1.8758
  109SAPE  C31011316  -0.253   1.797   3.541  0.2525  0.1252 -0.6146
  109SAPE  H10X11317  -0.246   1.899   3.584  2.1901 -1.1526  2.4100
  109SAPE  H10Y11318  -0.151   1.752   3.537 -0.1821 -0.8143 -1.8490
  109SAPE  C31111319  -0.361   1.719   3.615  0.5166 -0.0453  0.2870
  109SAPE  H11X11320  -0.357   1.615   3.576 -2.0030 -1.3680  3.1516
  109SAPE  H11Y11321  -0.463   1.759   3.599  0.7847  0.5064 -0.0801
  109SAPE  C31211322  -0.314   1.725   3.766  1.1068 -1.0129 -0.3132
  109SAPE  H12X11323  -0.324   1.834   3.787  0.2396 -1.0112 -0.6693
  109SAPE  H12Y11324  -0.209   1.690   3.771  1.6609  0.2230 -1.9781
  109SAPE  C31311325  -0.408   1.643   3.863  0.1863  0.5329  0.2125
  109SAPE  H13X11326  -0.335   1.640   3.947  3.2724 -1.0515 -2.2778
  109SAPE  H13Y11327  -0.417   1.542   3.818 -0.9638  0.3401  0.8501
  109SAPE  C31411328  -0.543   1.701   3.886  0.9974 -0.1450  0.2512
  109SAPE  H14X11329  -0.631   1.665   3.829  0.5099 -0.2639  1.0615
  109SAPE  H14Y11330  -0.540   1.812   3.875  1.9250  0.1064  2.5314
  109SAPE  C31511331  -0.592   1.681   4.031  0.6200  0.6576 -0.9288
  109SAPE  H15X11332  -0.689   1.730   4.058  0.2222 -1.7797  2.8056
  109SAPE  H15Y11333  -0.526   1.740   4.099 -1.0230  0.2577  1.1049
  109SAPE  C31611334  -0.598   1.535   4.093  0.1958 -0.8593  0.5491
  109SAPE  H16X11335  -0.508   1.478   4.062  0.6087  0.4384 -0.7677
  109SAPE  H16Y11336  -0.673   1.481   4.031  1.0801 -0.0893 -1.2731
  109SAPE  C31711337  -0.608   1.520   4.241  0.4276 -0.3069  0.1067
  109SAPE  H17X11338  -0.515   1.560   4.287 -0.0734  2.2074 -0.8988
  109SAPE  H17Y11339  -0.617   1.413   4.269 -2.2273  0.2349  1.6822
  109SAPE  C31811340  -0.731   1.604   4.292 -0.4736  0.7058 -0.9320
  109SAPE  H18X11341  -0.728   1.712   4.265 -0.5784  0.6505 -1.1683
  109SAPE  H18Y11342  -0.721   1.597   4.402 -0.8463  0.0033 -0.9367
  109SAPE  H18Z11343  -0.824   1.552   4.260 -0.2167 -0.7426  0.5469
  110SAPE     N11344   5.028   5.313   1.692  0.4528 -0.2906 -0.1019
  110SAPE   HN111345   4.994   5.351   1.783 -0.9637 -0.7839 -0.4017
  110SAPE   HN211346   4.943   5.267   1.655  0.0946  0.5547 -0.3599
  110SAPE   HN311347   5.102   5.241   1.706  1.5572  1.1693  2.3203
  110SAPE   C1211348   5.058   5.420   1.592  0.4492  0.3427 -0.1558
  110SAPE  H12A11349   4.964   5.470   1.560 -0.5652 -0.6613  1.1238
  110SAPE  H12B11350   5.111   5.360   1.516  2.3858 -0.4362  1.7064
  110SAPE   C1111351   5.145   5.535   1.660 -0.4729 -0.0838 -0.5145
  110SAPE  H11A11352   5.173   5.616   1.590  1.1852  0.2151  0.4429
  110SAPE  H11B11353   5.240   5.491   1.696 -0.6570  1.7595  2.6378
  110SAPE     P11354   5.129   5.692   1.871 -0.2733 -0.2063  0.1934
  110SAPE   O1311355   5.178   5.806   1.791 -0.3072 -0.2964  0.6602
  110SAPE   O1411356   5.043   5.714   1.987  0.1496  0.0875  0.2251
  110SAPE   O1211357   5.065   5.590   1.766 -0.1731  0.3535 -0.7639
  110SAPE   O1111358   5.256   5.615   1.922 -0.2985  0.1460 -0.4335
  110SAPE    C111359   5.248   5.509   2.015  0.2472  0.0872  0.7354
  110SAPE    HA11360   5.146   5.466   2.017 -0.9973  2.4270 -2.3806
  110SAPE    HB11361   5.325   5.433   1.993 -0.4155 -0.6189  0.8101
  110SAPE    C211362   5.265   5.559   2.164  0.0020  0.3362 -0.6545
  110SAPE    HS11363   5.187   5.637   2.169 -0.3356  0.0239 -0.9213
  110SAPE   O2111364   5.399   5.615   2.182 -0.9314 -0.2916  0.5949
  110SAPE   C2111365   5.395   5.744   2.221 -1.3102  0.2312 -0.3619
  110SAPE   O2211366   5.295   5.811   2.239 -0.1175  0.1978 -0.0754
  110SAPE   C2211367   5.543   5.795   2.226 -0.0826  0.2790 -0.4194
  110SAPE   H2R11368   5.616   5.715   2.249  0.0047  0.9052  1.6974
  110SAPE   H2S11369   5.550   5.824   2.119  1.4953 -0.0215 -0.4342
  110SAPE    C311370   5.229   5.459   2.276  0.1889 -0.4776 -0.0249
  110SAPE    HX11371   5.134   5.406   2.256 -1.3406  1.4216  1.7586
  110SAPE    HY11372   5.308   5.381   2.268  0.6819  0.0193 -0.0271
  110SAPE   O3111373   5.238   5.527   2.409 -0.3119 -0.5275 -0.0868
  110SAPE   C3111374   5.240   5.436   2.501  0.4504 -0.1435 -0.1987
  110SAPE   O3211375   5.257   5.315   2.487 -0.3415  1.0268 -0.1449
  110SAPE   C3211376   5.188   5.500   2.627 -0.4954  0.2513  0.5649
  110SAPE   H2X11377   5.081   5.524   2.610 -1.2586 -2.4484  1.0923
  110SAPE   H2Y11378   5.241   5.597   2.641 -0.5781  0.4610 -0.5020
  110SAPE   C2311379   5.559   5.921   2.310 -0.1166 -0.3093  0.2267
  110SAPE   H3R11380   5.477   5.992   2.286 -1.2166 -1.6254 -0.0496
  110SAPE   H3S11381   5.655   5.970   2.282 -0.0127 -1.1031 -0.8806
  110SAPE   C2411382   5.555   5.895   2.463  0.1551  0.2172  0.3050
  110SAPE   H4R11383   5.455   5.852   2.487 -1.2872  1.0480 -3.5102
  110SAPE   H4S11384   5.553   5.995   2.510 -2.6174  0.2483  0.2577
  110SAPE   C2511385   5.670   5.823   2.533 -0.0030  0.3365 -0.3198
  110SAPE   H5R11386   5.769   5.868   2.547  1.8038 -3.6175  1.2947
  110SAPE   C2611387   5.664   5.695   2.581  0.2830  0.4553 -0.2113
  110SAPE   H6R11388   5.752   5.646   2.624  1.0527  0.3478 -1.8276
  110SAPE   C2711389   5.551   5.594   2.564 -1.0166 -0.3027  0.6120
  110SAPE   H7R11390   5.453   5.640   2.540 -0.4390  1.4995  1.5140
  110SAPE   H7S11391   5.539   5.554   2.666 -1.0907  2.1170  1.6305
  110SAPE   C2811392   5.580   5.489   2.451  0.1033 -0.0815  0.7427
  110SAPE   H8R11393   5.557   5.532   2.353  2.6297 -0.0819  0.0910
  110SAPE   C2911394   5.617   5.359   2.475  0.3227  0.0201 -0.2613
  110SAPE   H9R11395   5.642   5.300   2.385 -0.6374  1.3874 -1.4836
  110SAPE  C21011396   5.647   5.307   2.609 -0.0444  0.0801 -0.0553
  110SAPE  H10R11397   5.727   5.364   2.659  0.3364 -0.2067 -0.3315
  110SAPE  H10S11398   5.692   5.206   2.598  2.6300  1.0910  0.9849
  110SAPE  C21111399   5.531   5.277   2.704 -0.1171  0.5432 -0.1558
  110SAPE  H11R11400   5.444   5.240   2.648  1.1749  0.9508 -2.5896
  110SAPE  C21211401   5.531   5.277   2.840  0.9230 -0.1242 -0.2718
  110SAPE  H12R11402   5.441   5.263   2.901  1.1135 -0.2629 -0.0205
  110SAPE  C21311403   5.647   5.308   2.929 -0.2372 -0.0500 -0.5348
  110SAPE  H13R11404   5.707   5.396   2.897  0.9099 -0.6918 -0.2306
  110SAPE  H13S11405   5.726   5.230   2.921  0.7884  0.8131  0.7687
  110SAPE  C21411406   5.635   5.333   3.079  0.7612 -0.5966 -0.0996
  110SAPE  H14R11407   5.695   5.267   3.143  1.7757 -1.5178 -1.9289
  110SAPE  C21511408   5.575   5.440   3.144 -0.0281  0.3513 -0.2920
  110SAPE  H15R11409   5.585   5.462   3.251  0.3801  0.5062 -0.3611
  110SAPE  C21611410   5.493   5.544   3.067 -0.5375 -0.8770 -0.8732
  110SAPE  H16R11411   5.398   5.575   3.116 -0.9960 -1.2990 -1.4823
  110SAPE  H16S11412   5.457   5.515   2.966 -1.2463 -0.2404 -0.8098
  110SAPE  C21711413   5.578   5.674   3.035  0.7681 -0.3420  0.0556
  110SAPE  H17R11414   5.611   5.733   3.123  0.8911 -0.4914  0.1084
  110SAPE  H17S11415   5.518   5.744   2.972  2.0933  0.3800 -0.4603
  110SAPE  C21811416   5.699   5.651   2.939  0.4087 -0.0769  0.0384
  110SAPE  H18R11417   5.667   5.617   2.838 -0.9385  0.8369  0.1384
  110SAPE  H18S11418   5.764   5.582   2.998  0.2391  0.2836  0.6583
  110SAPE  C21911419   5.782   5.782   2.925  0.5296 -0.4829 -0.0936
  110SAPE  H19R11420   5.798   5.829   3.024  2.5375  0.2447 -0.7026
  110SAPE  H19S11421   5.726   5.853   2.861 -1.9455  0.0390  2.4642
  110SAPE  C22011422   5.919   5.764   2.866 -0.5108  0.0907  0.4137
  110SAPE  H20R11423   5.915   5.697   2.777 -0.0974 -2.2741  2.0804
  110SAPE  H20S11424   5.992   5.715   2.935  1.4082 -0.4760 -1.8619
  110SAPE  H20T11425   5.954   5.868   2.849 -2.8577  0.6542 -1.6059
  110SAPE   C3311426   5.184   5.414   2.748  0.5030 -0.3625  0.5276
  110SAPE   H3X11427   5.287   5.386   2.778  0.7602 -1.7998 -1.4855
  110SAPE   H3Y11428   5.134   5.318   2.725  0.1305 -0.0766  0.1258
  110SAPE   C3411429   5.110   5.483   2.858  0.5498 -0.1590 -0.0469
  110SAPE   H4X11430   5.012   5.526   2.831  0.1988 -0.3796  0.8413
  110SAPE   H4Y11431   5.180   5.560   2.897  1.2861 -1.3135  0.9898
  110SAPE   C3511432   5.099   5.387   2.981 -0.2204 -0.2570  0.3528
  110SAPE   H5X11433   5.195   5.332   2.992 -0.4121 -0.9102 -0.9945
  110SAPE   H5Y11434   5.023   5.308   2.959 -1.3633  0.9543 -0.1606
  110SAPE   C3611435   5.084   5.466   3.113  0.0817 -0.2940 -0.4564
  110SAPE   H6X11436   5.005   5.543   3.127  1.7326  1.1707  1.4035
  110SAPE   H6Y11437   5.175   5.529   3.124  0.2278 -0.4956 -0.5038
  110SAPE   C3711438   5.084   5.362   3.226 -0.6614  0.1979  0.7427
  110SAPE   H7X11439   5.180   5.306   3.218  0.4194  2.1247 -0.4113
  110SAPE   H7Y11440   4.998   5.294   3.205 -0.8182  0.4543  0.5575
  110SAPE   C3811441   5.063   5.435   3.357 -0.3303 -0.3893 -0.4817
  110SAPE   H8X11442   4.974   5.501   3.350  0.4406  0.7404  0.0348
  110SAPE   H8Y11443   5.149   5.504   3.367  0.0669 -0.7566 -1.2582
  110SAPE   C3911444   5.031   5.346   3.475  0.1720 -0.7958 -0.1536
  110SAPE   H9X11445   5.109   5.270   3.495  0.2626 -0.7782 -0.4275
  110SAPE   H9Y11446   4.947   5.282   3.441 -0.7443  0.0957  0.3988
  110SAPE  C31011447   4.983   5.424   3.594 -0.4221 -0.1492  0.0186
  110SAPE  H10X11448   4.898   5.492   3.570 -1.0286 -0.4339  1.2450
  110SAPE  H10Y11449   5.066   5.485   3.634 -1.0012  0.6786 -0.0091
  110SAPE  C31111450   4.927   5.339   3.708  0.4270  0.8279  0.6371
  110SAPE  H11X11451   4.837   5.284   3.672 -0.0716  1.3231  1.1118
  110SAPE  H11Y11452   4.887   5.405   3.788 -1.2511  2.1043 -1.1537
  110SAPE  C31211453   5.038   5.246   3.772  0.2408  1.4014 -0.0695
  110SAPE  H12X11454   5.070   5.192   3.680 -1.2646  1.9075 -0.9235
  110SAPE  H12Y11455   4.986   5.184   3.848 -1.8224  2.0394 -0.8847
  110SAPE  C31311456   5.145   5.333   3.845 -0.5983  0.1786  0.1826
  110SAPE  H13X11457   5.106   5.398   3.926 -0.2623  1.5081 -0.7037
  110SAPE  H13Y11458   5.197   5.385   3.762  0.8472 -1.3414  0.0768
  110SAPE  C31411459   5.260   5.244   3.892 -0.1287 -0.1560 -0.3247
  110SAPE  H14X11460   5.303   5.178   3.814  0.1145  0.8922 -1.0954
  110SAPE  H14Y11461   5.230   5.169   3.968 -0.6748 -1.0888 -1.4184
  110SAPE  C31511462   5.375   5.335   3.936 -0.5257  0.0479 -0.1583
  110SAPE  H15X11463   5.351   5.381   4.035 -1.2961 -0.0373 -0.3010
  110SAPE  H15Y11464   5.383   5.419   3.863 -2.6556 -1.0559 -1.7472
  110SAPE  C31611465   5.518   5.287   3.942  0.1146 -0.1011  0.8470
  110SAPE  H16X11466   5.592   5.362   3.977  0.3693  0.4682 -0.8290
  110SAPE  H16Y11467   5.545   5.257   3.838 -0.2037  0.3538  0.6282
  110SAPE  C31711468   5.532   5.155   4.018  0.2515  1.0040  0.2760
  110SAPE  H17X11469   5.619   5.093   3.990  0.6224  1.9354 -0.7196
  110SAPE  H17Y11470   5.450   5.087   3.986  2.2120 -0.6540 -1.5886
  110SAPE  C31811471   5.529   5.182   4.170 -0.2826  0.3469  0.0521
  110SAPE  H18X11472   5.607   5.254   4.203 -1.1735  1.9785 -1.2530
  110SAPE  H18Y11473   5.545   5.089   4.230  1.9241  0.4090 -0.3796
  110SAPE  H18Z11474   5.426   5.216   4.192 -0.5885  0.1209 -0.9673
  111SAPE     N11475   5.981   0.380   1.538 -0.5037  0.3957  0.8227
  111SAPE   HN111476   5.977   0.278   1.560  0.8324  0.3654  1.0035
  111SAPE   HN211477   5.945   0.405   1.443 -1.1177 -1.2065  0.6071
  111SAPE   HN311478   6.084   0.395   1.538 -0.1473 -1.6973  2.2149
  111SAPE   C1211479   5.920   0.461   1.645  0.4801  0.5471  0.1414
  111SAPE  H12A11480   5.878   0.555   1.603 -2.8551 -0.6193  0.6141
  111SAPE  H12B11481   6.007   0.499   1.703  0.2149  1.7717 -0.2231
  111SAPE   C1111482   5.824   0.387   1.734  0.4410 -0.2636  0.0739
  111SAPE  H11A11483   5.797   0.461   1.812 -1.6159 -2.2965  1.4376
  111SAPE  H11B11484   5.865   0.295   1.781 -0.9616  0.0501  2.0260
  111SAPE     P11485   5.562   0.388   1.701 -0.0855  0.2779 -0.2057
  111SAPE   O1311486   5.544   0.531   1.678 -0.0642  0.5769 -0.2581
  111SAPE   O1411487   5.468   0.290   1.636 -0.2742 -0.1990  0.3391
  111SAPE   O1211488   5.712   0.351   1.659 -0.0595  0.6622 -0.2408
  111SAPE   O1111489   5.557   0.376   1.855 -0.4397  0.2042 -0.6291
  111SAPE    C111490   5.534   0.241   1.899 -0.1371  0.3776 -1.1098
  111SAPE    HA11491   5.446   0.191   1.854 -1.4320  1.3904  0.1982
  111SAPE    HB11492   5.623   0.177   1.879 -0.1720 -0.3546  0.8946
  111SAPE    C211493   5.518   0.240   2.051  0.2745  0.3157 -0.1758
  111SAPE    HS11494   5.431   0.300   2.083  0.1134 -0.0167  0.0110
  111SAPE   O2111495   5.635   0.289   2.129  0.7742 -0.1822 -0.1761
  111SAPE   C2111496   5.635   0.417   2.153  0.2125  0.1295  1.3380
  111SAPE   O2211497   5.551   0.506   2.129  0.7614  0.6475  1.0329
  111SAPE   C2211498   5.768   0.440   2.218  0.5173 -0.2112  0.0528
  111SAPE   H2R11499   5.759   0.428   2.328  3.1608  0.1642  0.3718
  111SAPE   H2S11500   5.844   0.368   2.180 -0.0127 -0.3109 -0.8506
  111SAPE    C311501   5.501   0.090   2.099 -0.1337 -0.3812 -0.0474
  111SAPE    HX11502   5.596   0.041   2.067 -0.8099 -3.5449  2.2343
  111SAPE    HY11503   5.419   0.036   2.047 -1.0067  2.7236 -2.2056
  111SAPE   O3111504   5.481   0.069   2.243  0.3273  0.7527 -0.1122
  111SAPE   C3111505   5.435  -0.049   2.273  0.1713 -0.1114  0.6567
  111SAPE   O3211506   5.410  -0.140   2.194 -0.4346  0.1491  1.1690
  111SAPE   C3211507   5.425  -0.060   2.422 -0.1822  0.5104 -0.7066
  111SAPE   H2X11508   5.407   0.038   2.472  0.7899 -0.4109  1.5701
  111SAPE   H2Y11509   5.514  -0.119   2.454 -0.0040  1.3851  0.4995
  111SAPE   C2311510   5.817   0.586   2.199 -0.1355  0.1072  0.4248
  111SAPE   H3R11511   5.732   0.656   2.214 -0.6004 -0.3992  0.2336
  111SAPE   H3S11512   5.859   0.594   2.097  3.4556 -0.0095  1.7604
  111SAPE   C2411513   5.928   0.623   2.294 -0.0537  0.5090  0.0290
  111SAPE   H4R11514   5.883   0.603   2.393 -1.2937 -3.1874 -1.1299
  111SAPE   H4S11515   5.950   0.732   2.292  1.7795  0.1696 -1.8602
  111SAPE   C2511516   6.063   0.549   2.275 -0.2965 -1.0054  0.1322
  111SAPE   H5R11517   6.106   0.573   2.177 -1.5218  0.7697 -0.0248
  111SAPE   C2611518   6.124   0.457   2.354  0.3243 -0.0689 -0.0088
  111SAPE   H6R11519   6.228   0.426   2.335  0.8484  1.5313  0.0247
  111SAPE   C2711520   6.069   0.419   2.493  0.1767 -0.1046 -0.3953
  111SAPE   H7R11521   5.971   0.367   2.490  1.4370 -2.7840  1.0903
  111SAPE   H7S11522   6.051   0.511   2.552  0.1807  0.0080 -0.5685
  111SAPE   C2811523   6.168   0.325   2.564 -0.5067  0.6491  0.6792
  111SAPE   H8R11524   6.166   0.221   2.527  2.0520  0.2264  1.4805
  111SAPE   C2911525   6.227   0.347   2.681 -0.3049 -0.4744 -0.2528
  111SAPE   H9R11526   6.275   0.260   2.727  1.3260 -0.0273 -1.0410
  111SAPE  C21011527   6.234   0.478   2.756 -0.9961 -0.0222 -0.3557
  111SAPE  H10R11528   6.211   0.559   2.684 -2.5424  0.9991  1.2154
  111SAPE  H10S11529   6.338   0.487   2.792 -1.7417  1.5475  1.5728
  111SAPE  C21111530   6.135   0.507   2.868  0.3355  0.4862 -0.2075
  111SAPE  H11R11531   6.048   0.573   2.856  0.4772  0.9027  0.9297
  111SAPE  C21211532   6.139   0.447   2.989 -0.5611 -0.9436  0.4518
  111SAPE  H12R11533   6.062   0.483   3.059 -0.3445  1.3300 -0.3902
  111SAPE  C21311534   6.243   0.341   3.038  0.9835  0.3925  0.0937
  111SAPE  H13R11535   6.312   0.307   2.957 -0.7291 -0.7308 -0.9501
  111SAPE  H13S11536   6.189   0.245   3.057  0.7443  0.8849  2.1606
  111SAPE  C21411537   6.318   0.383   3.164  0.0701  0.5851  0.8333
  111SAPE  H14R11538   6.406   0.445   3.141  0.5050 -0.3996 -0.2914
  111SAPE  C21511539   6.289   0.354   3.289  0.2272  0.2037 -0.2623
  111SAPE  H15R11540   6.363   0.386   3.365 -1.4200  0.9775  1.0803
  111SAPE  C21611541   6.166   0.279   3.338  0.3782  0.9566 -0.1425
  111SAPE  H16R11542   6.187   0.171   3.352 -0.3579  0.6972 -0.9626
  111SAPE  H16S11543   6.082   0.301   3.269  0.3350 -0.4254 -0.5686
  111SAPE  C21711544   6.116   0.348   3.470 -0.5604 -0.4245  0.6601
  111SAPE  H17R11545   6.009   0.326   3.488 -0.8972 -1.6631 -2.2136
  111SAPE  H17S11546   6.129   0.454   3.439  4.0384 -1.4458 -1.8224
  111SAPE  C21811547   6.189   0.311   3.600 -0.4161  0.1228  0.1045
  111SAPE  H18R11548   6.185   0.396   3.672 -1.8665 -0.8080  1.1705
  111SAPE  H18S11549   6.299   0.293   3.596 -0.5470 -1.1593  1.5049
  111SAPE  C21911550   6.125   0.199   3.675  0.0285 -0.4173 -0.9172
  111SAPE  H19R11551   6.110   0.107   3.614 -0.4488 -1.6530  0.9665
  111SAPE  H19S11552   6.024   0.229   3.710  0.1978 -1.5159  0.6515
  111SAPE  C22011553   6.199   0.158   3.808 -0.2084  0.1922  1.1892
  111SAPE  H20R11554   6.150   0.197   3.899 -0.3006 -0.2602  1.3325
  111SAPE  H20S11555   6.300   0.204   3.810  0.0435 -0.3037  0.4507
  111SAPE  H20T11556   6.206   0.050   3.834  1.0529 -0.8106 -2.5762
  111SAPE   C3311557   5.310  -0.149   2.465  0.3120  0.2714  0.3274
  111SAPE   H3X11558   5.327  -0.252   2.427 -0.2169  0.3106 -0.0182
  111SAPE   H3Y11559   5.212  -0.108   2.431  0.3436 -0.5510 -0.7996
  111SAPE   C3411560   5.310  -0.159   2.617  0.4229  0.4227 -0.6258
  111SAPE   H4X11561   5.280  -0.067   2.672 -1.3416 -0.7906  0.5719
  111SAPE   H4Y11562   5.405  -0.187   2.665  1.3797  0.8866 -2.1722
  111SAPE   C3511563   5.199  -0.261   2.662 -0.6997  0.5831 -0.1063
  111SAPE   H5X11564   5.240  -0.362   2.641 -0.6941  0.4293  0.6178
  111SAPE   H5Y11565   5.108  -0.246   2.599 -0.4352  1.0227 -0.3891
  111SAPE   C3611566   5.168  -0.263   2.810  0.3451 -0.6913 -0.0120
  111SAPE   H6X11567   5.083  -0.321   2.852  1.0030 -0.8333  1.1652
  111SAPE   H6Y11568   5.134  -0.161   2.837  0.6028 -0.7312  0.4578
  111SAPE   C3711569   5.291  -0.280   2.903 -0.0768  0.3018 -0.2825
  111SAPE   H7X11570   5.376  -0.217   2.871 -1.1505  0.8340 -2.2507
  111SAPE   H7Y11571   5.331  -0.384   2.902 -0.1030  0.2950 -0.7002
  111SAPE   C3811572   5.265  -0.250   3.048  0.1812  0.2862 -0.1592
  111SAPE   H8X11573   5.184  -0.316   3.087  1.3241 -0.7169  0.5850
  111SAPE   H8Y11574   5.243  -0.142   3.057 -0.7356  0.1540 -0.6789
  111SAPE   C3911575   5.383  -0.273   3.139  0.9593 -0.1589 -0.6178
  111SAPE   H9X11576   5.469  -0.214   3.103  1.7795 -2.4408 -2.6803
  111SAPE   H9Y11577   5.414  -0.380   3.138  0.8852 -0.2383  1.2084
  111SAPE  C31011578   5.355  -0.234   3.277 -0.6543  0.1530 -0.1838
  111SAPE  H10X11579   5.312  -0.132   3.265 -1.1886  0.1622  1.5769
  111SAPE  H10Y11580   5.446  -0.207   3.337  0.3582 -0.2156 -1.5060
  111SAPE  C31111581   5.278  -0.340   3.357 -0.2860  0.3131 -0.7137
  111SAPE  H11X11582   5.337  -0.432   3.341 -0.6444  0.1909 -1.3782
  111SAPE  H11Y11583   5.173  -0.354   3.324 -0.4354 -1.4613  0.3803
  111SAPE  C31211584   5.287  -0.314   3.513 -0.1205  0.1243 -0.2301
  111SAPE  H12X11585   5.272  -0.207   3.539 -2.4309 -0.3843  0.7944
  111SAPE  H12Y11586   5.387  -0.342   3.553 -0.4713 -0.2520  0.3892
  111SAPE  C31311587   5.194  -0.407   3.590 -0.2093  0.1082  0.2931
  111SAPE  H13X11588   5.232  -0.511   3.580 -0.1205  0.0750  0.9384
  111SAPE  H13Y11589   5.098  -0.405   3.533  0.2639  1.5339 -0.5076
  111SAPE  C31411590   5.176  -0.379   3.736  0.3566  0.3479 -0.6130
  111SAPE  H14X11591   5.155  -0.474   3.790  1.6444 -0.3861 -1.3398
  111SAPE  H14Y11592   5.079  -0.327   3.741 -0.7338 -1.7022  2.1157
  111SAPE  C31511593   5.290  -0.302   3.798  0.7233  0.1429 -0.3155
  111SAPE  H15X11594   5.284  -0.198   3.759 -1.6142  0.5600  0.9287
  111SAPE  H15Y11595   5.391  -0.344   3.779  1.6324  1.5719  1.0931
  111SAPE  C31611596   5.276  -0.280   3.955 -0.3484 -0.0585 -0.0399
  111SAPE  H16X11597   5.357  -0.208   3.979  0.7452 -0.4535 -2.2184
  111SAPE  H16Y11598   5.299  -0.376   4.007  2.9342  0.4644 -0.2847
  111SAPE  C31711599   5.150  -0.216   4.009 -0.1595  0.2586  0.2228
  111SAPE  H17X11600   5.059  -0.266   3.970  0.0452  1.4391 -1.9645
  111SAPE  H17Y11601   5.148  -0.114   3.965  0.2749 -0.6236 -2.0299
  111SAPE  C31811602   5.144  -0.218   4.157  0.0877  0.0619 -0.8490
  111SAPE  H18X11603   5.241  -0.186   4.200  0.2103 -1.1948 -0.1425
  111SAPE  H18Y11604   5.118  -0.319   4.198  0.9501  0.2611  0.2349
  111SAPE  H18Z11605   5.064  -0.147   4.190 -0.3101 -0.8200  0.1793
  112SAPE     N11606   2.297   1.482   1.750  0.4757 -0.0914 -0.5373
  112SAPE   HN111607   2.351   1.558   1.795 -0.7738  0.4084  0.1758
  112SAPE   HN211608   2.324   1.390   1.788  2.5460  0.0304 -1.5962
  112SAPE   HN311609   2.325   1.477   1.650 -2.2887  2.9501 -1.6724
  112SAPE   C1211610   2.152   1.503   1.762 -0.3004 -1.1881 -0.0215
  112SAPE  H12A11611   2.140   1.594   1.701  0.0908 -0.0695  1.5084
  112SAPE  H12B11612   2.132   1.519   1.870 -1.3045 -0.2898 -0.3274
  112SAPE   C1111613   2.077   1.385   1.700  0.0199 -0.2325 -0.2854
  112SAPE  H11A11614   2.094   1.388   1.590 -1.5740  1.7578 -0.5424
  112SAPE  H11B11615   1.968   1.403   1.715  0.0442 -0.2231 -0.1186
  112SAPE     P11616   2.012   1.148   1.803  0.3518 -0.2289  0.1281
  112SAPE   O1311617   1.937   1.093   1.686  0.4941 -0.0960  0.6360
  112SAPE   O1411618   2.091   1.060   1.897  0.1637 -0.2595 -0.4804
  112SAPE   O1211619   2.108   1.256   1.760 -0.3948  0.3052  0.0610
  112SAPE   O1111620   1.917   1.231   1.896  0.3009 -0.6191  0.4320
  112SAPE    C111621   1.976   1.313   2.001  0.1029 -0.0596 -0.3730
  112SAPE    HA11622   2.086   1.297   2.009 -0.0187 -1.3798 -1.1654
  112SAPE    HB11623   1.960   1.420   1.974 -1.9530 -0.1863  0.1869
  112SAPE    C211624   1.902   1.286   2.131 -0.3321 -0.5023  0.1796
  112SAPE    HS11625   1.886   1.176   2.128 -2.9863 -0.1663 -1.1193
  112SAPE   O2111626   1.781   1.359   2.114 -0.1747 -0.2153  0.2382
  112SAPE   C2111627   1.673   1.310   2.162 -0.0883 -0.2814 -0.2431
  112SAPE   O2211628   1.662   1.204   2.227 -0.1879  0.0975  0.4215
  112SAPE   C2211629   1.562   1.403   2.124  0.4235  0.0020 -0.0657
  112SAPE   H2R11630   1.502   1.374   2.035 -0.4979 -2.9874  1.3932
  112SAPE   H2S11631   1.495   1.408   2.212 -0.4283  1.8617 -0.7561
  112SAPE    C311632   1.979   1.331   2.262 -0.5731  0.0432  0.4843
  112SAPE    HX11633   1.976   1.442   2.263 -3.4010  0.0380  2.3759
  112SAPE    HY11634   2.083   1.292   2.263  0.2490  2.0305 -0.5592
  112SAPE   O3111635   1.911   1.285   2.379  0.0792  0.7321  0.2123
  112SAPE   C3111636   1.900   1.153   2.400 -0.0934 -0.0688 -0.5893
  112SAPE   O3211637   1.953   1.063   2.338 -0.5727 -0.2099  0.3905
  112SAPE   C3211638   1.820   1.140   2.523 -0.0170  0.1526 -0.4027
  112SAPE   H2X11639   1.714   1.160   2.496  0.3192  2.0275 -0.5165
  112SAPE   H2Y11640   1.847   1.221   2.594 -0.3463 -1.8015  2.0456
  112SAPE   C2311641   1.602   1.550   2.110 -0.0965  0.3237 -0.4306
  112SAPE   H3R11642   1.512   1.601   2.070  0.7300  2.3131  0.1492
  112SAPE   H3S11643   1.691   1.562   2.045  1.1718 -2.6316  0.5981
  112SAPE   C2411644   1.633   1.618   2.243 -0.4659 -0.2212  0.7215
  112SAPE   H4R11645   1.675   1.720   2.236  1.5675 -0.9171  1.8145
  112SAPE   H4S11646   1.713   1.548   2.276 -1.0572 -1.6299 -0.6639
  112SAPE   C2511647   1.519   1.621   2.341 -0.0777  0.1495 -0.2972
  112SAPE   H5R11648   1.439   1.687   2.306  0.3847 -0.3343 -2.3584
  112SAPE   C2611649   1.510   1.553   2.456  0.1104 -0.6242 -0.5963
  112SAPE   H6R11650   1.415   1.578   2.506  1.0176  1.4087  0.2042
  112SAPE   C2711651   1.606   1.458   2.521  0.5856  0.2043 -0.0544
  112SAPE   H7R11652   1.647   1.511   2.610  0.2572 -0.8553  0.7519
  112SAPE   H7S11653   1.688   1.430   2.452 -0.0468  0.5630 -0.9647
  112SAPE   C2811654   1.506   1.350   2.566  0.0166  0.9388 -0.8542
  112SAPE   H8R11655   1.475   1.294   2.477  2.6257  1.5158 -2.2330
  112SAPE   C2911656   1.474   1.307   2.693  0.4457  0.0280  0.5741
  112SAPE   H9R11657   1.384   1.245   2.692 -0.0008  0.5572 -2.2787
  112SAPE  C21011658   1.500   1.373   2.829 -0.3022 -0.1003 -0.3375
  112SAPE  H10R11659   1.533   1.479   2.820  0.6817 -0.4795 -1.5419
  112SAPE  H10S11660   1.587   1.320   2.873 -0.3974  2.3024  3.1485
  112SAPE  C21111661   1.380   1.370   2.923 -1.0029 -0.3307  0.2041
  112SAPE  H11R11662   1.331   1.468   2.917  0.5574  0.3867 -3.1184
  112SAPE  C21211663   1.345   1.274   3.017  0.3005  0.0414  0.0663
  112SAPE  H12R11664   1.259   1.294   3.082 -0.5123 -1.2800 -0.5461
  112SAPE  C21311665   1.398   1.136   3.047 -0.3084 -0.2208  0.3807
  112SAPE  H13R11666   1.438   1.099   2.951  2.8535 -1.9400  2.2089
  112SAPE  H13S11667   1.312   1.071   3.073 -2.3832  1.2540 -2.2419
  112SAPE  C21411668   1.518   1.130   3.142 -0.3842 -0.7982  0.2084
  112SAPE  H14R11669   1.590   1.207   3.110 -1.2649 -0.6549 -1.5595
  112SAPE  C21511670   1.541   1.029   3.223  0.2099  0.7060 -0.6482
  112SAPE  H15R11671   1.632   1.036   3.285 -1.3793  1.3045  1.7747
  112SAPE  C21611672   1.453   0.909   3.246  0.6121  0.5650 -0.2160
  112SAPE  H16R11673   1.498   0.821   3.196  1.7116  0.1293  1.4492
  112SAPE  H16S11674   1.349   0.918   3.208 -0.1663 -0.0181  1.6279
  112SAPE  C21711675   1.457   0.860   3.400  0.6901 -1.1101 -0.4479
  112SAPE  H17R11676   1.370   0.792   3.411 -0.0393  0.0879  1.7105
  112SAPE  H17S11677   1.429   0.951   3.458  2.6215  0.3506 -1.6599
  112SAPE  C21811678   1.586   0.814   3.468 -0.4126  0.2682 -0.0192
  112SAPE  H18R11679   1.673   0.870   3.428  0.4858 -0.2963  1.1048
  112SAPE  H18S11680   1.612   0.711   3.435  2.6747  0.6022  1.0729
  112SAPE  C21911681   1.582   0.823   3.622  0.6040  0.1114  0.0076
  112SAPE  H19R11682   1.521   0.740   3.664 -0.8377 -0.4695 -2.9846
  112SAPE  H19S11683   1.531   0.919   3.646 -0.2751 -0.2160 -0.4946
  112SAPE  C22011684   1.720   0.817   3.678  0.1059 -0.0644 -0.7088
  112SAPE  H20R11685   1.719   0.807   3.789  0.7190  1.5733 -0.5321
  112SAPE  H20S11686   1.772   0.913   3.657 -1.6531  1.1832  0.3414
  112SAPE  H20T11687   1.782   0.735   3.635 -0.2355 -1.5405  1.4460
  112SAPE   C3311688   1.834   0.994   2.579 -0.7651 -0.1877  0.4498
  112SAPE   H3X11689   1.942   0.987   2.604 -0.3479  1.5015 -0.7004
  112SAPE   H3Y11690   1.841   0.922   2.494  4.4469 -0.5747  0.8993
  112SAPE   C3411691   1.727   0.953   2.678  0.1104 -0.2730  0.0956
  112SAPE   H4X11692   1.711   0.845   2.694 -0.3020 -0.3324 -0.6917
  112SAPE   H4Y11693   1.627   0.987   2.643 -0.6743 -3.1762 -0.7016
  112SAPE   C3511694   1.753   1.021   2.815 -0.2460 -0.8631  0.2204
  112SAPE   H5X11695   1.669   0.996   2.883 -0.6049  0.1880  0.1801
  112SAPE   H5Y11696   1.758   1.132   2.812 -0.3926 -0.7858  1.8108
  112SAPE   C3611697   1.880   0.966   2.884  0.8123  0.3016 -0.1490
  112SAPE   H6X11698   1.971   1.026   2.859 -0.8742  2.0918 -2.4752
  112SAPE   H6Y11699   1.896   0.865   2.841 -0.5739  0.5213 -1.2447
  112SAPE   C3711700   1.855   0.952   3.033 -0.5701  0.8959 -0.2585
  112SAPE   H7X11701   1.775   0.884   3.068  0.5134  0.5542  1.6836
  112SAPE   H7Y11702   1.830   1.052   3.077  1.6088  0.8245  1.3257
  112SAPE   C3811703   1.984   0.907   3.123 -0.5073  1.0709 -0.0762
  112SAPE   H8X11704   2.065   0.978   3.095  1.1965 -0.4832  0.7107
  112SAPE   H8Y11705   2.021   0.810   3.083 -0.3847  0.8629  0.5321
  112SAPE   C3911706   1.959   0.896   3.273 -0.3153  0.2327 -0.0272
  112SAPE   H9X11707   1.880   0.828   3.312  0.1683  0.8364  2.1526
  112SAPE   H9Y11708   1.931   0.996   3.312 -1.4137 -0.3187  0.6342
  112SAPE  C31011709   2.070   0.833   3.359  0.0173  0.7197  0.7021
  112SAPE  H10X11710   2.168   0.853   3.309 -0.7042  1.2315 -0.5568
  112SAPE  H10Y11711   2.051   0.725   3.376 -1.0609  0.9672  1.1355
  112SAPE  C31111712   2.083   0.901   3.492  0.0808 -1.0499 -0.2159
  112SAPE  H11X11713   1.981   0.928   3.525  0.8500  2.2983 -0.2196
  112SAPE  H11Y11714   2.137   0.998   3.493  0.4527 -1.2278 -1.3287
  112SAPE  C31211715   2.164   0.813   3.583 -0.5461  0.1540 -0.2620
  112SAPE  H12X11716   2.260   0.772   3.547  0.0812  0.3925  1.0734
  112SAPE  H12Y11717   2.099   0.726   3.607  1.2095 -1.5626 -1.4349
  112SAPE  C31311718   2.196   0.894   3.712  0.1710 -0.0314 -0.5466
  112SAPE  H13X11719   2.109   0.963   3.718 -1.6809 -2.4001  2.0887
  112SAPE  H13Y11720   2.293   0.949   3.705  0.2014 -0.0897 -0.5901
  112SAPE  C31411721   2.180   0.814   3.845 -0.0259  0.4220 -0.4029
  112SAPE  H14X11722   2.091   0.748   3.837  0.6072 -0.3977 -0.8055
  112SAPE  H14Y11723   2.163   0.882   3.931 -1.7361 -2.2572  1.5685
  112SAPE  C31511724   2.300   0.727   3.889 -0.8905  0.0838  0.2932
  112SAPE  H15X11725   2.274   0.698   3.993 -0.8508 -0.0204  0.2746
  112SAPE  H15Y11726   2.394   0.785   3.888 -0.2424 -0.8646  2.4447
  112SAPE  C31611727   2.345   0.608   3.803  0.2451  0.0734  0.2638
  112SAPE  H16X11728   2.419   0.558   3.869 -0.1697  1.2081  1.6485
  112SAPE  H16Y11729   2.403   0.639   3.714  2.5583 -0.2977  1.5450
  112SAPE  C31711730   2.234   0.511   3.765 -0.5516 -0.4223 -0.8646
  112SAPE  H17X11731   2.149   0.567   3.720 -1.4867 -0.9723  0.1623
  112SAPE  H17Y11732   2.187   0.473   3.859  1.0489 -0.2734  0.0286
  112SAPE  C31811733   2.279   0.394   3.680 -0.2422 -0.0938  0.2253
  112SAPE  H18X11734   2.325   0.433   3.587 -2.7359  0.8631 -0.6953
  112SAPE  H18Y11735   2.187   0.351   3.635 -1.0604  3.5503 -2.0491
  112SAPE  H18Z11736   2.354   0.326   3.726  0.0249 -0.1919 -0.3511
  113SAPE     N11737   2.020   0.891   1.525  0.1554 -0.1213 -0.1452
  113SAPE   HN111738   1.997   0.977   1.579  1.1902 -0.3967  0.7756
  113SAPE   HN211739   1.954   0.879   1.445  0.6790 -1.6416 -0.3873
  113SAPE   HN311740   2.020   0.803   1.581 -0.5223 -0.5202 -0.7585
  113SAPE   C1211741   2.165   0.920   1.472  1.1729 -0.1001  0.1234
  113SAPE  H12A11742   2.164   1.004   1.400 -1.7516  1.3468  1.6776
  113SAPE  H12B11743   2.196   0.836   1.406 -3.7358 -2.3858  0.2776
  113SAPE   C1111744   2.266   0.930   1.583 -0.5542 -0.7674  0.5292
  113SAPE  H11A11745   2.239   1.015   1.650 -0.5575 -1.8674  1.9584
  113SAPE  H11B11746   2.367   0.948   1.540 -1.3091 -0.6973 -1.2608
  113SAPE     P11747   2.385   0.727   1.699  0.1299 -0.0283  0.4541
  113SAPE   O1311748   2.374   0.599   1.616 -0.3825 -0.0961 -0.2249
  113SAPE   O1411749   2.505   0.809   1.687  0.4089  0.0555 -0.2490
  113SAPE   O1211750   2.266   0.815   1.663 -0.1849 -0.3125  0.2425
  113SAPE   O1111751   2.359   0.690   1.849 -0.4526  0.6055 -0.3352
  113SAPE    C111752   2.327   0.789   1.948 -0.3193 -0.1184  0.3752
  113SAPE    HA11753   2.415   0.855   1.962 -0.9513  0.8580 -0.0946
  113SAPE    HB11754   2.233   0.840   1.918 -0.5681 -0.8348 -0.1119
  113SAPE    C211755   2.296   0.730   2.088  0.5831  0.1066 -0.1088
  113SAPE    HS11756   2.267   0.813   2.155  0.5641 -0.1992  0.2661
  113SAPE   O2111757   2.412   0.672   2.145  0.0571 -0.2220 -0.0987
  113SAPE   C2111758   2.518   0.748   2.180 -0.1673 -0.3367 -0.6943
  113SAPE   O2211759   2.528   0.868   2.174 -0.2144  0.5131  0.2281
  113SAPE   C2211760   2.615   0.648   2.238  0.9297  0.0570  0.0586
  113SAPE   H2R11761   2.603   0.553   2.182  0.5032  0.0856  0.1000
  113SAPE   H2S11762   2.716   0.686   2.211  0.7415 -0.3310 -1.2613
  113SAPE    C311763   2.189   0.621   2.093 -0.1778 -0.1820  0.4192
  113SAPE    HX11764   2.226   0.530   2.040 -2.4148 -0.3841 -0.9333
  113SAPE    HY11765   2.101   0.662   2.041  0.8727  1.2794 -0.2648
  113SAPE   O3111766   2.157   0.594   2.233  0.1969 -1.0557  0.1062
  113SAPE   C3111767   2.113   0.469   2.255  0.6366 -0.2680 -0.1761
  113SAPE   O3211768   2.102   0.385   2.168  0.3359  0.5290 -0.0445
  113SAPE   C3211769   2.089   0.430   2.400  0.3138 -0.0484 -0.6135
  113SAPE   H2X11770   2.183   0.421   2.459 -0.5392 -1.1068  0.6538
  113SAPE   H2Y11771   2.032   0.336   2.390 -4.0346  2.5174 -2.9622
  113SAPE   C2311772   2.582   0.617   2.392  0.2095  0.2373 -0.1274
  113SAPE   H3R11773   2.478   0.576   2.395  0.0164  0.8011  1.2661
  113SAPE   H3S11774   2.595   0.710   2.451 -2.6177 -0.2955  1.5040
  113SAPE   C2411775   2.676   0.509   2.459  0.7555  0.0225 -0.0758
  113SAPE   H4R11776   2.648   0.499   2.566  0.6636  3.8420  0.3809
  113SAPE   H4S11777   2.776   0.557   2.455  0.6649  0.3788  1.4849
  113SAPE   C2511778   2.675   0.374   2.389  0.2002  0.8616 -0.4631
  113SAPE   H5R11779   2.587   0.335   2.336  2.3934 -0.5295 -3.3817
  113SAPE   C2611780   2.769   0.285   2.406 -0.8552 -0.7855 -0.0737
  113SAPE   H6R11781   2.747   0.195   2.348 -1.1254  0.2991 -1.7263
  113SAPE   C2711782   2.896   0.297   2.496  0.3603  0.4181 -0.1444
  113SAPE   H7R11783   2.880   0.374   2.574 -0.6596  1.7500 -1.6085
  113SAPE   H7S11784   2.976   0.346   2.437  1.1909 -1.1742 -0.4019
  113SAPE   C2811785   2.958   0.167   2.540  0.7232  0.3468  0.4096
  113SAPE   H8R11786   2.983   0.091   2.465  1.3139  0.6084  0.3408
  113SAPE   C2911787   2.976   0.134   2.668 -0.4798  0.0419  0.3290
  113SAPE   H9R11788   3.036   0.044   2.687  0.6044  0.9790  1.5123
  113SAPE  C21011789   2.933   0.207   2.798 -0.5552 -0.2747  0.2138
  113SAPE  H10R11790   2.988   0.302   2.811 -1.0205 -0.0318  0.4455
  113SAPE  H10S11791   2.975   0.145   2.880 -0.5886 -1.3088 -0.5369
  113SAPE  C21111792   2.785   0.231   2.815 -0.1747 -0.1151  0.1414
  113SAPE  H11R11793   2.747   0.277   2.722  1.3421 -1.8072 -1.3814
  113SAPE  C21211794   2.711   0.188   2.919  0.6271  0.8359 -0.1897
  113SAPE  H12R11795   2.604   0.209   2.904  0.0268 -1.5572  0.3744
  113SAPE  C21311796   2.758   0.105   3.033  0.3760  0.1508  0.5254
  113SAPE  H13R11797   2.833   0.033   2.992 -0.3153  1.0164 -2.4616
  113SAPE  H13S11798   2.676   0.036   3.063  2.8611 -2.4288  1.8977
  113SAPE  C21411799   2.800   0.184   3.157  0.0694 -0.2878 -0.1280
  113SAPE  H14R11800   2.781   0.293   3.156 -0.5372 -0.3866 -1.7128
  113SAPE  C21511801   2.844   0.131   3.269 -0.0206 -0.4008 -0.4745
  113SAPE  H15R11802   2.883   0.205   3.340 -0.8879  1.7299 -2.0922
  113SAPE  C21611803   2.862  -0.013   3.302 -0.2872  0.3132  0.5964
  113SAPE  H16R11804   2.797  -0.079   3.241 -1.4598 -0.2479  2.3591
  113SAPE  H16S11805   2.831  -0.037   3.406  0.7296 -3.0377  0.2233
  113SAPE  C21711806   3.009  -0.054   3.293 -0.2664 -0.5510  0.7684
  113SAPE  H17R11807   3.071   0.003   3.365  0.2746 -1.2853  0.8951
  113SAPE  H17S11808   3.046  -0.023   3.193 -0.6117  3.6069  1.7703
  113SAPE  C21811809   3.044  -0.202   3.313  0.4672  0.1770  0.0551
  113SAPE  H18R11810   3.154  -0.212   3.307  0.5845  0.3858  1.6180
  113SAPE  H18S11811   2.988  -0.266   3.241 -0.7291  0.6167  0.5627
  113SAPE  C21911812   3.028  -0.255   3.460  0.6154  0.4030  0.4337
  113SAPE  H19R11813   2.925  -0.236   3.496  1.1314  0.0546  2.1641
  113SAPE  H19S11814   3.093  -0.193   3.526 -0.5955  0.1920  1.8502
  113SAPE  C22011815   3.051  -0.406   3.480 -0.1760 -0.1579  0.4692
  113SAPE  H20R11816   3.155  -0.440   3.459  0.0947  0.1689  1.2509
  113SAPE  H20S11817   2.995  -0.468   3.408 -0.4467  0.0281  0.5182
  113SAPE  H20T11818   3.019  -0.442   3.580 -1.0037 -1.0537 -0.1033
  113SAPE   C3311819   1.989   0.531   2.465 -0.3881 -0.1259 -0.1363
  113SAPE   H3X11820   1.896   0.546   2.405  0.2161 -0.5556 -1.2130
  113SAPE   H3Y11821   2.044   0.626   2.478  0.6752 -0.6102 -0.9387
  113SAPE   C3411822   1.965   0.484   2.617 -0.3031 -0.1534  0.2702
  113SAPE   H4X11823   2.067   0.470   2.659  0.4036 -1.7865 -1.7808
  113SAPE   H4Y11824   1.936   0.376   2.611  3.7708 -1.6213  2.8736
  113SAPE   C3511825   1.853   0.562   2.689  0.6500 -0.2912 -0.7677
  113SAPE   H5X11826   1.761   0.561   2.626 -0.2438 -1.2572  0.4941
  113SAPE   H5Y11827   1.882   0.669   2.700  2.1447 -0.8022  0.4305
  113SAPE   C3611828   1.811   0.498   2.819  0.5268  0.2864  0.2915
  113SAPE   H6X11829   1.778   0.394   2.797 -0.8356  0.7506 -0.0252
  113SAPE   H6Y11830   1.726   0.546   2.874 -0.0367  1.1650 -1.2775
  113SAPE   C3711831   1.929   0.494   2.926  0.1535  0.1789 -0.2389
  113SAPE   H7X11832   1.973   0.595   2.939 -0.9543  0.5561  0.9012
  113SAPE   H7Y11833   2.016   0.435   2.893 -1.4415 -1.3875 -1.8938
  113SAPE   C3811834   1.893   0.425   3.058  0.0713 -0.2338 -0.1637
  113SAPE   H8X11835   1.829   0.335   3.044 -0.4757  0.0463  0.4716
  113SAPE   H8Y11836   1.985   0.390   3.109 -1.0876  0.7615  2.8673
  113SAPE   C3911837   1.829   0.523   3.148  0.9663  0.4308  0.7316
  113SAPE   H9X11838   1.719   0.507   3.151  0.6552  1.9947 -0.8366
  113SAPE   H9Y11839   1.828   0.629   3.115 -1.7777  0.3087  0.2208
  113SAPE  C31011840   1.874   0.515   3.300  0.6647  0.1108  0.0013
  113SAPE  H10X11841   1.851   0.609   3.354 -0.9719  0.5828 -1.4361
  113SAPE  H10Y11842   1.984   0.498   3.303  1.1397  2.3441 -1.6974
  113SAPE  C31111843   1.810   0.395   3.378 -0.5235 -0.2509 -0.3080
  113SAPE  H11X11844   1.840   0.303   3.325  0.5762  0.8601 -1.6776
  113SAPE  H11Y11845   1.700   0.406   3.374 -0.6411 -1.2279  0.0242
  113SAPE  C31211846   1.876   0.385   3.514  0.5271 -1.0430 -1.3998
  113SAPE  H12X11847   1.984   0.359   3.502  1.1646 -0.8643  2.4174
  113SAPE  H12Y11848   1.835   0.290   3.555 -1.6295  0.3404 -0.1183
  113SAPE  C31311849   1.840   0.498   3.609 -0.1424 -0.4771 -0.4270
  113SAPE  H13X11850   1.754   0.559   3.574  0.9925  0.8273 -1.0453
  113SAPE  H13Y11851   1.922   0.573   3.599 -0.1071 -0.7697 -2.6886
  113SAPE  C31411852   1.828   0.460   3.753  0.2810 -0.7190 -0.2174
  113SAPE  H14X11853   1.802   0.549   3.814  1.2450 -0.3326 -0.3564
  113SAPE  H14Y11854   1.932   0.440   3.785  0.0693  0.8878  1.5844
  113SAPE  C31511855   1.737   0.348   3.777  0.0564 -0.2169  0.4320
  113SAPE  H15X11856   1.788   0.251   3.761  1.8793  0.6435  0.7993
  113SAPE  H15Y11857   1.649   0.359   3.709  2.4854  1.5381 -2.7491
  113SAPE  C31611858   1.690   0.350   3.925 -0.3021  0.2790  0.7993
  113SAPE  H16X11859   1.630   0.442   3.936  0.1223  0.7008 -0.3010
  113SAPE  H16Y11860   1.775   0.347   3.997 -0.5269  0.8815  1.0865
  113SAPE  C31711861   1.604   0.229   3.968  0.0926  0.1444  0.4693
  113SAPE  H17X11862   1.506   0.227   3.917  0.9915  0.9231 -1.3980
  113SAPE  H17Y11863   1.580   0.244   4.075 -0.7364  0.9849  0.1776
  113SAPE  C31811864   1.671   0.098   3.950 -0.1519 -0.3026  0.5096
  113SAPE  H18X11865   1.781   0.103   3.966 -0.3580  0.4110  1.8313
  113SAPE  H18Y11866   1.671   0.082   3.840 -2.2899  1.6622  0.1654
  113SAPE  H18Z11867   1.641   0.008   4.007  1.0383 -0.0648  1.5578
  114SAPE     N11868   4.256   0.530   1.945  1.0168 -0.7067 -0.4456
  114SAPE   HN111869   4.159   0.558   1.921  0.9680 -1.3082 -0.9646
  114SAPE   HN211870   4.307   0.577   1.867 -0.2711  1.8358  0.1217
  114SAPE   HN311871   4.262   0.426   1.942 -0.4558 -0.8067 -0.7995
  114SAPE   C1211872   4.296   0.578   2.075 -0.0452  0.0989 -0.9057
  114SAPE  H12A11873   4.262   0.507   2.154 -0.5284  0.3087 -0.9184
  114SAPE  H12B11874   4.252   0.679   2.087 -1.5426 -0.5089 -0.9811
  114SAPE   C1111875   4.449   0.572   2.082  0.0253 -0.0425 -0.4262
  114SAPE  H11A11876   4.480   0.596   2.186  0.4097 -0.7400 -0.3697
  114SAPE  H11B11877   4.468   0.653   2.008 -1.4872  0.2342 -0.5468
  114SAPE     P11878   4.639   0.414   1.980  0.0010  0.1059 -0.0502
  114SAPE   O1311879   4.623   0.305   1.885 -0.0875  0.2740 -0.0984
  114SAPE   O1411880   4.691   0.542   1.929  0.6152 -0.5938  0.2369
  114SAPE   O1211881   4.502   0.444   2.051 -0.3911  0.4723  0.0132
  114SAPE   O1111882   4.723   0.364   2.109 -0.1718 -0.1677  0.2248
  114SAPE    C111883   4.651   0.285   2.209 -0.4778  0.4024 -0.0316
  114SAPE    HA11884   4.553   0.328   2.241 -1.8968 -2.3773 -0.2681
  114SAPE    HB11885   4.636   0.185   2.162 -0.0751  0.1464  0.3772
  114SAPE    C211886   4.739   0.247   2.325 -0.1114 -0.1474  0.1370
  114SAPE    HS11887   4.683   0.178   2.391  0.5786 -0.3242  0.5536
  114SAPE   O2111888   4.774   0.367   2.400  0.1905 -0.1754 -0.0290
  114SAPE   C2111889   4.682   0.413   2.480  0.3864 -0.5067 -0.0833
  114SAPE   O2211890   4.584   0.352   2.521  0.1111  0.0773  0.6807
  114SAPE   C2211891   4.711   0.559   2.516 -0.2873 -0.3345 -0.5980
  114SAPE   H2R11892   4.815   0.581   2.481 -0.1167 -2.7147 -1.7304
  114SAPE   H2S11893   4.648   0.636   2.466  0.6146  0.4222 -0.6110
  114SAPE    C311894   4.867   0.180   2.272 -1.1419 -0.2315 -0.0367
  114SAPE    HX11895   4.923   0.267   2.231 -2.6848 -0.9547 -4.1640
  114SAPE    HY11896   4.856   0.115   2.182 -0.7042  1.2193 -1.1865
  114SAPE   O3111897   4.930   0.108   2.378 -0.4292 -0.5446  0.0272
  114SAPE   C3111898   5.012   0.186   2.450  0.1900 -0.1791  0.1437
  114SAPE   O3211899   5.073   0.283   2.412  0.0562  0.0855  0.3377
  114SAPE   C3211900   5.050   0.101   2.571  0.1953  0.2800  0.2593
  114SAPE   H2X11901   5.154   0.067   2.551  0.3325  1.5431 -1.3540
  114SAPE   H2Y11902   4.987   0.009   2.570 -0.2467  0.5397  1.5940
  114SAPE   C2311903   4.694   0.577   2.669 -0.1253  0.1894  0.3810
  114SAPE   H3R11904   4.587   0.548   2.677  0.0826 -2.1446 -3.0622
  114SAPE   H3S11905   4.704   0.684   2.695  3.3403 -0.1248  0.8907
  114SAPE   C2411906   4.786   0.489   2.757 -0.0226  0.1964  0.1981
  114SAPE   H4R11907   4.775   0.383   2.726  1.0133  0.4310 -1.0548
  114SAPE   H4S11908   4.752   0.487   2.862 -0.6650 -0.2375 -0.0153
  114SAPE   C2511909   4.933   0.528   2.755 -0.5215  0.1181 -0.1023
  114SAPE   H5R11910   4.989   0.511   2.662 -2.0218 -0.4057 -0.9533
  114SAPE   C2611911   4.995   0.590   2.856 -0.3486  0.0898  0.5968
  114SAPE   H6R11912   5.099   0.626   2.846 -0.4895  0.0434 -1.5150
  114SAPE   C2711913   4.926   0.630   2.985 -0.2949 -0.0197 -0.2031
  114SAPE   H7R11914   4.819   0.654   2.972 -0.5020 -0.6860  0.2269
  114SAPE   H7S11915   4.978   0.722   3.019 -0.0594 -0.1830 -0.1145
  114SAPE   C2811916   4.927   0.522   3.094 -0.1571 -0.0386 -0.2947
  114SAPE   H8R11917   5.007   0.447   3.092 -0.4541 -0.3544 -2.9310
  114SAPE   C2911918   4.853   0.535   3.208 -0.4452  0.5015 -0.0464
  114SAPE   H9R11919   4.851   0.454   3.283  1.7400 -1.4883 -1.9509
  114SAPE  C21011920   4.755   0.646   3.239  0.3603 -0.6112  0.4843
  114SAPE  H10R11921   4.689   0.667   3.152  1.9986  1.4071 -0.3548
  114SAPE  H10S11922   4.814   0.737   3.262 -0.3009 -0.6549  2.5587
  114SAPE  C21111923   4.664   0.624   3.359  0.2544 -0.2459  0.1068
  114SAPE  H11R11924   4.575   0.561   3.348 -0.7131  0.8616  1.3431
  114SAPE  C21211925   4.693   0.667   3.478  0.1823 -0.1383 -0.0861
  114SAPE  H12R11926   4.609   0.657   3.548  0.2837  1.4231  0.3050
  114SAPE  C21311927   4.810   0.749   3.529  0.2768  0.1556 -0.2474
  114SAPE  H13R11928   4.844   0.818   3.448 -0.3431  0.3781 -0.3253
  114SAPE  H13S11929   4.891   0.673   3.531  0.5200  0.4096 -0.3053
  114SAPE  C21411930   4.798   0.822   3.663 -0.5208  0.0464 -0.3058
  114SAPE  H14R11931   4.710   0.799   3.725 -1.3940  0.2473 -1.4233
  114SAPE  C21511932   4.891   0.906   3.717 -0.2591 -0.1598 -0.1557
  114SAPE  H15R11933   4.883   0.943   3.820 -0.6978  1.8547 -0.8757
  114SAPE  C21611934   5.022   0.955   3.651 -0.7893 -0.5253 -0.3369
  114SAPE  H16R11935   5.040   0.921   3.547  2.2955 -0.9481  0.2327
  114SAPE  H16S11936   5.102   0.918   3.719 -2.8051 -1.7841  1.4793
  114SAPE  C21711937   5.034   1.109   3.636 -0.6543 -0.7914 -0.3906
  114SAPE  H17R11938   4.947   1.143   3.575  0.8720  0.5553 -1.9390
  114SAPE  H17S11939   5.116   1.135   3.566 -1.1187 -2.2499 -1.5162
  114SAPE  C21811940   5.048   1.189   3.774  0.4241 -0.1732 -0.3855
  114SAPE  H18R11941   5.135   1.153   3.833  0.7859 -0.6970 -1.2202
  114SAPE  H18S11942   4.963   1.168   3.842  0.8760  2.5836  1.1732
  114SAPE  C21911943   5.076   1.343   3.766  0.1284 -0.0682 -0.6530
  114SAPE  H19R11944   5.134   1.360   3.673  0.3274  1.2104 -0.3090
  114SAPE  H19S11945   5.130   1.368   3.860  3.0457 -0.1789 -2.1993
  114SAPE  C22011946   4.946   1.429   3.755 -0.2700 -0.7638 -0.2295
  114SAPE  H20R11947   4.980   1.535   3.756  2.2462 -1.5056  0.1807
  114SAPE  H20S11948   4.881   1.406   3.843 -1.2515  0.6476 -0.5661
  114SAPE  H20T11949   4.889   1.427   3.660 -1.0429  2.4787  0.0631
  114SAPE   C3311950   5.034   0.186   2.697  0.0665 -0.1426  1.0241
  114SAPE   H3X11951   4.932   0.230   2.698  0.5473  1.1515  4.1971
  114SAPE   H3Y11952   5.110   0.268   2.705 -0.3258  0.3804 -0.3035
  114SAPE   C3411953   5.031   0.100   2.825 -0.3602 -0.1579 -0.2398
  114SAPE   H4X11954   5.124   0.039   2.829  0.3085  0.7792 -1.1866
  114SAPE   H4Y11955   4.943   0.031   2.825 -2.0115  1.8646  0.0997
  114SAPE   C3511956   5.017   0.179   2.959  0.0157  0.1252  0.3715
  114SAPE   H5X11957   4.925   0.243   2.964  0.0901  0.2606  0.0454
  114SAPE   H5Y11958   5.097   0.255   2.956 -1.3800  1.6425 -0.4394
  114SAPE   C3611959   5.007   0.085   3.086  0.0665  0.3829  0.4053
  114SAPE   H6X11960   5.104   0.031   3.080  1.8564  3.4768 -0.1733
  114SAPE   H6Y11961   4.917   0.022   3.069  0.1700  0.1331  0.7677
  114SAPE   C3711962   4.975   0.170   3.210  0.6145 -0.3082  0.4296
  114SAPE   H7X11963   4.883   0.232   3.207  0.8595  0.4977  4.6239
  114SAPE   H7Y11964   5.060   0.242   3.206 -1.0848  1.7915  0.7612
  114SAPE   C3811965   4.985   0.086   3.336  0.5704  0.7849  0.2024
  114SAPE   H8X11966   5.053  -0.000   3.322  0.5451  0.9445 -0.9749
  114SAPE   H8Y11967   4.887   0.036   3.351  0.0201  2.0203  0.8957
  114SAPE   C3911968   5.017   0.154   3.468 -0.8327 -0.0214  0.2198
  114SAPE   H9X11969   5.109   0.214   3.459  0.5152 -2.0368 -0.1005
  114SAPE   H9Y11970   5.051   0.079   3.543  1.6928 -0.1421 -0.9375
  114SAPE  C31011971   4.897   0.228   3.525  0.5534  0.3058 -0.1522
  114SAPE  H10X11972   4.813   0.158   3.544 -0.4433  1.2971 -0.7646
  114SAPE  H10Y11973   4.851   0.301   3.455 -0.6037 -1.5100 -1.4023
  114SAPE  C31111974   4.907   0.280   3.665 -0.2881 -0.0902  0.2971
  114SAPE  H11X11975   4.994   0.349   3.668 -1.5137  1.5684 -0.5667
  114SAPE  H11Y11976   4.930   0.203   3.741 -0.0667  0.0570  0.3786
  114SAPE  C31211977   4.783   0.335   3.726  0.3118  0.4029 -0.0405
  114SAPE  H12X11978   4.695   0.269   3.744 -0.9746  0.7907 -3.9606
  114SAPE  H12Y11979   4.740   0.400   3.646 -0.8431  0.4249  0.5682
  114SAPE  C31311980   4.812   0.427   3.841 -0.4970 -0.1968 -0.5901
  114SAPE  H13X11981   4.902   0.487   3.820 -1.8542  1.4931 -1.8845
  114SAPE  H13Y11982   4.821   0.370   3.936 -1.3322  2.4321  1.1972
  114SAPE  C31411983   4.689   0.518   3.863 -0.1201  0.4252 -0.4589
  114SAPE  H14X11984   4.599   0.466   3.823 -0.1854  2.0741 -2.6107
  114SAPE  H14Y11985   4.702   0.606   3.796  1.1882  0.0290 -0.7532
  114SAPE  C31511986   4.667   0.557   4.016 -0.3598  0.7472  0.9484
  114SAPE  H15X11987   4.639   0.664   4.010 -1.3025  0.4576 -0.0974
  114SAPE  H15Y11988   4.767   0.552   4.065  0.1001  2.2714  0.2144
  114SAPE  C31611989   4.559   0.478   4.085  0.0736 -0.2978 -0.4993
  114SAPE  H16X11990   4.585   0.370   4.092  0.4765 -0.1088  1.7929
  114SAPE  H16Y11991   4.471   0.476   4.018 -0.8341 -0.7845  0.6674
  114SAPE  C31711992   4.533   0.519   4.230  0.0671 -0.3616 -1.2301
  114SAPE  H17X11993   4.513   0.628   4.230  1.8701  0.0064 -0.9350
  114SAPE  H17Y11994   4.629   0.506   4.284 -0.3147 -0.6035 -0.5922
  114SAPE  C31811995   4.429   0.437   4.305  0.2315  0.6079  0.0545
  114SAPE  H18X11996   4.419   0.448   4.416 -0.0491 -0.9996  0.2198
  114SAPE  H18Y11997   4.450   0.331   4.282  0.5848  0.4329  1.1100
  114SAPE  H18Z11998   4.328   0.456   4.262 -1.1610 -0.4559  2.6040
  115SAPE     N11999   3.161   1.740   2.260  0.5072  0.2035 -0.6037
  115SAPE   HN112000   3.251   1.751   2.312  0.1167  1.0032 -0.0713
  115SAPE   HN212001   3.081   1.740   2.326  0.8908 -1.7065 -0.0860
  115SAPE   HN312002   3.168   1.649   2.211 -1.0891  0.9867 -2.3991
  115SAPE   C1212003   3.136   1.854   2.169  0.1826  0.6106  1.1552
  115SAPE  H12A12004   3.037   1.837   2.122  0.4768  1.0931  0.3381
  115SAPE  H12B12005   3.218   1.850   2.094  0.8957  1.6276  1.8447
  115SAPE   C1112006   3.141   1.991   2.233 -0.3201  0.0706  0.1321
  115SAPE  H11A12007   3.057   2.002   2.306 -0.8091 -0.9331 -0.2604
  115SAPE  H11B12008   3.133   2.066   2.152 -1.0947 -1.6367 -1.4427
  115SAPE     P12009   3.289   2.020   2.466 -0.1292 -0.6445  0.0861
  115SAPE   O1312010   3.234   1.900   2.532 -0.2736  0.5841  0.0099
  115SAPE   O1412011   3.431   2.054   2.495  0.3933  0.1842 -0.1074
  115SAPE   O1212012   3.261   2.019   2.303  0.3078 -0.5368 -0.1653
  115SAPE   O1112013   3.202   2.138   2.514 -0.0867  0.3841  0.5562
  115SAPE    C112014   3.249   2.236   2.602 -0.0342  0.0622  0.4473
  115SAPE    HA12015   3.335   2.292   2.558 -0.8061  1.6741  0.9036
  115SAPE    HB12016   3.173   2.317   2.605 -0.6201 -0.4914  0.6218
  115SAPE    C212017   3.289   2.181   2.737  0.1305  0.3032 -0.4256
  115SAPE    HS12018   3.366   2.101   2.729 -0.4607 -0.6382  2.2346
  115SAPE   O2112019   3.167   2.120   2.784 -0.1898  0.2899  0.0762
  115SAPE   C2112020   3.189   2.015   2.861 -0.2100 -0.4036  0.0090
  115SAPE   O2212021   3.292   1.955   2.875  0.3542  0.7139 -0.0098
  115SAPE   C2212022   3.056   1.977   2.926 -0.4441  0.0942 -0.0473
  115SAPE   H2R12023   3.010   2.071   2.962  0.8117 -0.3840  3.0920
  115SAPE   H2S12024   3.002   1.917   2.849  0.1418 -0.5327  0.0156
  115SAPE    C312025   3.359   2.281   2.834 -0.1586  0.2126  0.1829
  115SAPE    HX12026   3.296   2.371   2.849 -0.4613 -0.2598  1.8655
  115SAPE    HY12027   3.454   2.318   2.790 -1.0954  0.0071 -2.1862
  115SAPE   O3112028   3.370   2.223   2.964 -0.3025  0.1420 -0.2094
  115SAPE   C3112029   3.484   2.146   2.979  0.7922 -0.3623  0.1402
  115SAPE   O3212030   3.566   2.133   2.886 -0.0268 -0.4575 -0.1890
  115SAPE   C3212031   3.493   2.086   3.121  0.1221  0.6160  0.7028
  115SAPE   H2X12032   3.573   2.009   3.113  0.6105  1.1514  0.2796
  115SAPE   H2Y12033   3.401   2.026   3.140  1.2845 -0.8405  2.0109
  115SAPE   C2312034   3.087   1.875   3.047  0.0845 -0.1024 -0.0113
  115SAPE   H3R12035   3.146   1.924   3.127 -0.8129 -1.4745  1.5686
  115SAPE   H3S12036   3.157   1.799   3.006  0.6753 -1.1134  2.6662
  115SAPE   C2412037   2.965   1.798   3.107 -1.3586  0.3850  0.2850
  115SAPE   H4R12038   2.892   1.874   3.142 -1.5250  0.2531  0.2263
  115SAPE   H4S12039   2.984   1.750   3.206 -1.7915  0.4076  0.3798
  115SAPE   C2512040   2.899   1.700   3.010  0.0428  0.1524  0.3936
  115SAPE   H5R12041   2.947   1.694   2.911  0.1610  1.3809  0.3574
  115SAPE   C2612042   2.785   1.636   3.037  0.1099  0.6346 -0.3054
  115SAPE   H6R12043   2.739   1.569   2.962 -0.7575  0.8258  0.0501
  115SAPE   C2712044   2.713   1.641   3.173 -0.5546  1.0410  0.1632
  115SAPE   H7R12045   2.605   1.663   3.158 -0.7369  1.1255  1.4876
  115SAPE   H7S12046   2.745   1.725   3.238 -0.3861 -0.1650  1.7008
  115SAPE   C2812047   2.734   1.505   3.220  0.3564  0.3234 -0.7151
  115SAPE   H8R12048   2.689   1.428   3.155 -0.7046  0.6228 -0.3500
  115SAPE   C2912049   2.792   1.467   3.332  0.2350  0.1477  0.0233
  115SAPE   H9R12050   2.786   1.360   3.357  1.6643  0.2785  1.0489
  115SAPE  C21012051   2.853   1.567   3.431 -0.0615 -0.6502 -0.1637
  115SAPE  H10R12052   2.884   1.665   3.390 -1.6648  1.2292  2.7807
  115SAPE  H10S12053   2.943   1.519   3.476  0.1128 -1.0517 -0.9202
  115SAPE  C21112054   2.755   1.600   3.538  0.4618  0.5006 -0.5888
  115SAPE  H11R12055   2.652   1.628   3.512 -0.3309  0.2733  1.9748
  115SAPE  C21212056   2.783   1.605   3.669  0.4830  0.4756  0.1837
  115SAPE  H12R12057   2.690   1.622   3.726  1.0390 -0.0978  1.2815
  115SAPE  C21312058   2.905   1.579   3.742 -0.1423  0.2143 -0.2185
  115SAPE  H13R12059   2.942   1.671   3.792  0.3323  0.1880 -0.5108
  115SAPE  H13S12060   2.989   1.549   3.676  1.3028  0.1583  1.5631
  115SAPE  C21412061   2.877   1.467   3.845 -0.1695 -0.6915 -0.1495
  115SAPE  H14R12062   2.799   1.395   3.816 -0.5928  0.2031 -1.2808
  115SAPE  C21512063   2.961   1.438   3.949 -0.5094 -0.0961  0.3060
  115SAPE  H15R12064   2.914   1.381   4.030  0.4883 -0.9597  0.3022
  115SAPE  C21612065   3.095   1.497   3.982 -0.3088 -0.2653  0.4711
  115SAPE  H16R12066   3.168   1.501   3.898  1.3959  1.7951  1.9695
  115SAPE  H16S12067   3.144   1.436   4.061  0.3599  1.2492  1.2507
  115SAPE  C21712068   3.095   1.643   4.049 -0.7212  0.2558 -0.1518
  115SAPE  H17R12069   3.066   1.727   3.983 -1.5487  0.6964  0.7430
  115SAPE  H17S12070   3.197   1.665   4.086 -0.9410  0.1676  0.5375
  115SAPE  C21812071   3.015   1.647   4.178 -0.5419  0.2268 -0.4060
  115SAPE  H18R12072   3.025   1.548   4.228 -2.1361  0.5039  0.5305
  115SAPE  H18S12073   2.910   1.666   4.147 -0.7593  2.6510  1.4839
  115SAPE  C21912074   3.048   1.763   4.273 -0.0604  0.4270  0.2669
  115SAPE  H19R12075   3.003   1.850   4.220  0.6419 -0.6200 -2.1937
  115SAPE  H19S12076   3.157   1.775   4.288  0.2665 -1.3138 -0.4805
  115SAPE  C22012077   2.981   1.757   4.406 -0.0534 -0.5821  0.2828
  115SAPE  H20R12078   2.871   1.738   4.410 -1.1918  4.7226  2.6429
  115SAPE  H20S12079   2.989   1.859   4.448 -2.7234  0.1843 -0.8163
  115SAPE  H20T12080   3.031   1.682   4.471 -1.0402 -0.8217  0.7901
  115SAPE   C3312081   3.497   2.184   3.234 -0.3221 -0.1819 -0.3612
  115SAPE   H3X12082   3.403   2.243   3.230 -0.5628 -0.5057  0.3044
  115SAPE   H3Y12083   3.580   2.258   3.230 -1.4424  1.0774 -2.3693
  115SAPE   C3412084   3.482   2.117   3.376 -0.2953 -0.2831  0.0563
  115SAPE   H4X12085   3.543   2.025   3.381  0.0408 -0.0218  1.1352
  115SAPE   H4Y12086   3.374   2.093   3.388 -0.9696  1.7642 -1.3995
  115SAPE   C3512087   3.528   2.218   3.480  0.0520 -0.0179 -0.5140
  115SAPE   H5X12088   3.467   2.311   3.481  1.4990  0.9745  0.9527
  115SAPE   H5Y12089   3.634   2.243   3.456  0.0801 -0.0368 -0.4130
  115SAPE   C3612090   3.516   2.158   3.620  0.4515 -0.2918  0.2853
  115SAPE   H6X12091   3.565   2.058   3.620  0.4460 -0.2976 -0.3472
  115SAPE   H6Y12092   3.411   2.145   3.653 -0.2725  0.5764 -1.5517
  115SAPE   C3712093   3.586   2.252   3.730 -0.0123  0.4468  0.3034
  115SAPE   H7X12094   3.600   2.190   3.822 -0.2804 -2.4970 -1.4893
  115SAPE   H7Y12095   3.513   2.329   3.762  0.5455  1.1752 -0.1737
  115SAPE   C3812096   3.722   2.315   3.689  0.0701 -0.0522 -0.0511
  115SAPE   H8X12097   3.708   2.412   3.636 -0.6100 -1.1193 -1.9065
  115SAPE   H8Y12098   3.767   2.234   3.628  0.1888  0.3595 -0.5239
  115SAPE   C3912099   3.818   2.333   3.803  0.0753 -0.2044  0.3784
  115SAPE   H9X12100   3.917   2.346   3.755  0.0935  0.0668  0.4859
  115SAPE   H9Y12101   3.817   2.236   3.857 -2.8501 -0.1163  0.6161
  115SAPE  C31012102   3.790   2.457   3.891 -0.1287  0.2680  0.0721
  115SAPE  H10X12103   3.682   2.451   3.915  0.1371 -0.7274  1.1668
  115SAPE  H10Y12104   3.798   2.547   3.827 -0.1846  1.2559  1.4019
  115SAPE  C31112105   3.886   2.472   4.017  0.5175 -0.2846  0.3974
  115SAPE  H11X12106   3.871   2.579   4.041 -2.6447 -0.5953  0.2780
  115SAPE  H11Y12107   3.991   2.451   3.988 -0.2742 -1.9687 -1.5203
  115SAPE  C31212108   3.837   2.390   4.131 -0.0492 -1.0549 -0.5123
  115SAPE  H12X12109   3.826   2.281   4.109  0.5942 -1.5290  1.3736
  115SAPE  H12Y12110   3.735   2.423   4.158  0.8485  1.2255  0.2871
  115SAPE  C31312111   3.928   2.394   4.257 -0.0531  0.4940  0.1455
  115SAPE  H13X12112   3.858   2.364   4.338  1.5708 -0.5640  1.2065
  115SAPE  H13Y12113   3.967   2.496   4.277 -0.9143  1.3350 -2.0858
  115SAPE  C31412114   4.049   2.300   4.237 -0.7128  0.0391 -1.2568
  115SAPE  H14X12115   4.038   2.248   4.140 -0.1848 -1.7083 -0.4181
  115SAPE  H14Y12116   4.047   2.232   4.325 -4.2903  3.5345  1.7282
  115SAPE  C31512117   4.187   2.365   4.220 -0.8277  0.4673 -0.3774
  115SAPE  H15X12118   4.207   2.411   4.319  0.5948 -0.1601 -0.3404
  115SAPE  H15Y12119   4.170   2.439   4.139  0.3069  2.2274  0.9186
  115SAPE  C31612120   4.283   2.257   4.195  0.1412 -0.1986 -0.2420
  115SAPE  H16X12121   4.283   2.189   4.282  0.5696  1.4999  1.1328
  115SAPE  H16Y12122   4.387   2.295   4.195  0.4011 -0.5108 -4.0154
  115SAPE  C31712123   4.262   2.168   4.074 -0.3334 -0.0640  0.3720
  115SAPE  H17X12124   4.209   2.218   3.989 -0.7855 -1.2246 -0.0564
  115SAPE  H17Y12125   4.198   2.079   4.093  1.1533 -0.7172  2.7309
  115SAPE  C31812126   4.385   2.106   4.012 -0.0737 -0.5302  0.2466
  115SAPE  H18X12127   4.472   2.095   4.079  1.7724 -0.9797 -2.0979
  115SAPE  H18Y12128   4.407   2.185   3.937 -2.7866  0.5022  0.4165
  115SAPE  H18Z12129   4.367   2.004   3.973 -0.6373  0.2059 -1.5361
  116SAPE     N12130   3.722   2.776   1.665  0.2796 -0.8775  0.5141
  116SAPE   HN112131   3.809   2.804   1.615  0.6534 -3.8840 -0.7427
  116SAPE   HN212132   3.740   2.693   1.726 -0.0798 -3.3723 -2.5471
  116SAPE   HN312133   3.647   2.753   1.597 -0.8098  1.7129  0.7392
  116SAPE   C1212134   3.676   2.890   1.749 -0.7619 -0.4382  0.3697
  116SAPE  H12A12135   3.572   2.860   1.771 -0.2135 -2.4207  0.4264
  116SAPE  H12B12136   3.673   2.981   1.684  2.7653 -0.9483 -0.7344
  116SAPE   C1112137   3.746   2.893   1.885  0.4724 -0.9880  0.0569
  116SAPE  H11A12138   3.717   2.983   1.943 -1.7306 -0.7444 -1.3136
  116SAPE  H11B12139   3.854   2.885   1.862  0.5267 -0.0948 -0.0215
  116SAPE     P12140   3.588   2.763   2.059 -0.4176  0.0440 -0.3609
  116SAPE   O1312141   3.474   2.781   1.969 -0.0413 -0.3253 -1.1707
  116SAPE   O1412142   3.598   2.637   2.138 -0.0843  0.0181  0.0153
  116SAPE   O1212143   3.722   2.776   1.968  0.4104 -0.5365 -0.1733
  116SAPE   O1112144   3.599   2.895   2.147 -0.3811 -0.0435  0.5215
  116SAPE    C112145   3.693   2.916   2.249  0.4478 -0.0576 -0.1826
  116SAPE    HA12146   3.781   2.851   2.233  1.5856  1.3077  0.2338
  116SAPE    HB12147   3.726   3.022   2.252 -1.0887  0.4481  0.0646
  116SAPE    C212148   3.630   2.882   2.385 -0.0507  0.2298  0.1492
  116SAPE    HS12149   3.603   2.774   2.378 -0.1086  0.2821 -0.4733
  116SAPE   O2112150   3.518   2.972   2.398  0.0929  0.1585 -0.6599
  116SAPE   C2112151   3.404   2.915   2.440  0.2769 -0.3189 -0.2592
  116SAPE   O2212152   3.391   2.795   2.459  0.2532  0.0838 -0.2596
  116SAPE   C2212153   3.305   3.024   2.468 -0.2214 -0.1754  0.4130
  116SAPE   H2R12154   3.342   3.118   2.423 -0.7002 -0.9149 -1.6236
  116SAPE   H2S12155   3.208   2.995   2.421  0.5284 -0.1182 -1.2102
  116SAPE    C312156   3.720   2.916   2.502 -0.4572 -0.3541  0.3198
  116SAPE    HX12157   3.748   3.021   2.480 -1.7501 -0.5082 -2.4155
  116SAPE    HY12158   3.822   2.875   2.485 -0.2532  1.1604 -2.6648
  116SAPE   O3112159   3.655   2.899   2.630  0.0341  0.2268  0.2712
  116SAPE   C3112160   3.679   2.784   2.687  0.1592  0.5012  0.2071
  116SAPE   O3212161   3.777   2.714   2.662  0.0554  0.1797 -0.4303
  116SAPE   C3212162   3.567   2.751   2.786 -0.6264  0.1493 -0.3506
  116SAPE   H2X12163   3.523   2.653   2.757  0.5289 -0.3678 -0.3944
  116SAPE   H2Y12164   3.492   2.833   2.778 -1.0250  0.0601  1.8181
  116SAPE   C2312165   3.306   3.050   2.620 -0.4443 -0.4137  0.1534
  116SAPE   H3R12166   3.412   3.075   2.644 -0.2094  0.3161 -1.5090
  116SAPE   H3S12167   3.277   2.962   2.682 -0.5550  0.7703  1.8510
  116SAPE   C2412168   3.235   3.181   2.662 -0.0239  0.1013  0.2910
  116SAPE   H4R12169   3.264   3.269   2.602 -1.5431  0.1349 -0.4342
  116SAPE   H4S12170   3.275   3.199   2.764  2.5029 -0.4086 -0.5479
  116SAPE   C2512171   3.082   3.165   2.671 -0.2849  0.3289 -0.5186
  116SAPE   H5R12172   3.033   3.171   2.572 -0.8763  2.2161 -0.1440
  116SAPE   C2612173   3.010   3.172   2.783  0.3520 -0.9525  0.0599
  116SAPE   H6R12174   2.902   3.182   2.765  0.8761  0.6985 -2.6412
  116SAPE   C2712175   3.053   3.197   2.929  0.8041  0.2256  0.6270
  116SAPE   H7R12176   2.966   3.243   2.981  0.5018 -1.5724  1.8128
  116SAPE   H7S12177   3.138   3.268   2.930  0.3032  0.8834 -0.6611
  116SAPE   C2812178   3.093   3.077   3.000  0.9612 -0.5815 -0.5819
  116SAPE   H8R12179   3.031   2.988   2.982  0.5105 -0.9857  2.5057
  116SAPE   C2912180   3.192   3.063   3.095  0.0273 -0.7254  0.2791
  116SAPE   H9R12181   3.212   2.961   3.131  1.9991  0.0480  1.5673
  116SAPE  C21012182   3.280   3.167   3.152  0.3439 -0.8725 -0.9359
  116SAPE  H10R12183   3.272   3.269   3.108 -1.3215  1.1533  3.4712
  116SAPE  H10S12184   3.372   3.119   3.113  0.6684 -0.4252 -0.7337
  116SAPE  C21112185   3.264   3.187   3.304 -0.3988  0.3514 -0.5575
  116SAPE  H11R12186   3.366   3.199   3.343  0.1611 -1.0118 -1.5311
  116SAPE  C21212187   3.170   3.183   3.399 -0.2006 -0.3494  1.0750
  116SAPE  H12R12188   3.200   3.221   3.498  0.6187  1.4886  0.1562
  116SAPE  C21312189   3.017   3.178   3.375 -0.0268  0.1576 -0.1063
  116SAPE  H13R12190   2.988   3.161   3.270 -0.0502 -0.1427 -0.0532
  116SAPE  H13S12191   2.973   3.278   3.393 -0.4719  1.1823 -5.4754
  116SAPE  C21412192   2.951   3.070   3.464  0.2882 -0.0944  0.0954
  116SAPE  H14R12193   2.978   2.965   3.447 -0.3736 -0.3831  0.7707
  116SAPE  C21512194   2.850   3.092   3.549 -0.2273 -0.9404 -0.4156
  116SAPE  H15R12195   2.810   3.000   3.594 -0.5960 -1.2843 -1.4202
  116SAPE  C21612196   2.781   3.221   3.584 -0.5893  0.2869 -0.2159
  116SAPE  H16R12197   2.678   3.233   3.544 -1.1373 -1.0671  0.7028
  116SAPE  H16S12198   2.846   3.307   3.558  1.2201 -1.1161 -0.5412
  116SAPE  C21712199   2.771   3.235   3.735  0.1814  0.1122  0.7909
  116SAPE  H17R12200   2.874   3.230   3.776 -0.1697 -0.4798  1.6263
  116SAPE  H17S12201   2.733   3.143   3.784  2.3629 -0.2557  1.9023
  116SAPE  C21812202   2.707   3.372   3.770  0.1315 -0.6470 -0.1934
  116SAPE  H18R12203   2.672   3.371   3.876  0.8948 -2.8167  0.0682
  116SAPE  H18S12204   2.615   3.380   3.707 -0.8317 -0.1956  1.2197
  116SAPE  C21912205   2.795   3.496   3.751  0.0525  0.5482  0.6427
  116SAPE  H19R12206   2.801   3.504   3.640 -2.0149  1.0671  0.5380
  116SAPE  H19S12207   2.892   3.472   3.800 -0.0041  1.2134  1.0934
  116SAPE  C22012208   2.744   3.626   3.814 -1.0519 -0.3823 -0.3180
  116SAPE  H20R12209   2.742   3.614   3.924 -1.3012 -0.0906 -0.2876
  116SAPE  H20S12210   2.643   3.650   3.774 -1.3603 -0.2008  0.5459
  116SAPE  H20T12211   2.810   3.713   3.797  0.3625 -1.6695 -1.7814
  116SAPE   C3312212   3.615   2.737   2.931 -0.0770 -0.6498  0.0604
  116SAPE   H3X12213   3.696   2.661   2.936 -1.0453 -1.7508 -0.4912
  116SAPE   H3Y12214   3.527   2.692   2.983 -1.3552  0.7929 -0.7702
  116SAPE   C3412215   3.653   2.873   2.980  0.3772 -0.5422 -0.1680
  116SAPE   H4X12216   3.565   2.936   2.957  0.1664 -1.3615 -1.7603
  116SAPE   H4Y12217   3.743   2.907   2.923 -0.0087  0.4452 -0.2047
  116SAPE   C3512218   3.687   2.874   3.132 -0.1665  0.4873  0.4181
  116SAPE   H5X12219   3.786   2.830   3.155  0.7812  2.3579  0.1503
  116SAPE   H5Y12220   3.606   2.817   3.182 -0.7310 -0.3605 -1.3707
  116SAPE   C3612221   3.688   3.021   3.191 -0.5101  0.5561 -0.1013
  116SAPE   H6X12222   3.600   3.075   3.149 -1.7863 -1.2629  0.0707
  116SAPE   H6Y12223   3.777   3.080   3.163 -1.6718  1.9136 -1.0642
  116SAPE   C3712224   3.653   3.025   3.340 -0.6437 -0.1351  0.2478
  116SAPE   H7X12225   3.728   2.960   3.392  0.1485 -1.0099 -1.8986
  116SAPE   H7Y12226   3.553   2.983   3.362 -1.7867  2.7364  1.0609
  116SAPE   C3812227   3.649   3.173   3.386  0.2834 -0.0052 -0.2821
  116SAPE   H8X12228   3.566   3.225   3.334  1.1752  1.4440 -0.3396
  116SAPE   H8Y12229   3.741   3.230   3.361  1.4366 -1.2276  1.0063
  116SAPE   C3912230   3.645   3.191   3.535  0.0186  0.3918  0.2099
  116SAPE   H9X12231   3.738   3.146   3.574 -0.2352  0.6432  1.1410
  116SAPE   H9Y12232   3.556   3.143   3.582 -0.0843 -0.8077 -1.1586
  116SAPE  C31012233   3.641   3.342   3.566 -0.1340  0.5744 -0.2975
  116SAPE  H10X12234   3.544   3.389   3.541 -1.1257 -0.3039  1.6672
  116SAPE  H10Y12235   3.711   3.384   3.491  1.6799 -0.8742  0.4748
  116SAPE  C31112236   3.685   3.359   3.710  0.2675  0.6488 -0.4966
  116SAPE  H11X12237   3.745   3.270   3.738 -1.7580 -0.5287  0.3585
  116SAPE  H11Y12238   3.595   3.354   3.776  0.3505 -1.2315 -0.4788
  116SAPE  C31212239   3.753   3.493   3.734  0.2385 -0.6291  0.3328
  116SAPE  H12X12240   3.684   3.575   3.705  0.8458  0.0265  0.6956
  116SAPE  H12Y12241   3.843   3.491   3.670  0.9274  0.5038  1.2381
  116SAPE  C31312242   3.794   3.516   3.872 -0.3145 -0.3218 -0.4430
  116SAPE  H13X12243   3.853   3.428   3.907  1.7210  2.0953  2.8439
  116SAPE  H13Y12244   3.714   3.519   3.949 -0.4806 -0.9750 -0.5815
  116SAPE  C31412245   3.890   3.634   3.902  0.6710 -0.2629  0.2732
  116SAPE  H14X12246   3.906   3.650   4.011  1.6172  2.2171 -0.1835
  116SAPE  H14Y12247   3.835   3.721   3.861 -0.0644 -0.7297  0.2428
  116SAPE  C31512248   4.022   3.625   3.826 -0.3324  0.0851 -0.0081
  116SAPE  H15X12249   4.009   3.646   3.718  1.7005  0.5026 -0.2114
  116SAPE  H15Y12250   4.073   3.526   3.824 -0.7427 -0.1207 -0.8533
  116SAPE  C31612251   4.122   3.728   3.882 -0.1656  0.3257  0.2474
  116SAPE  H16X12252   4.077   3.829   3.873 -0.1102  0.3132 -0.1775
  116SAPE  H16Y12253   4.213   3.731   3.819  0.2701  0.8926  0.8860
  116SAPE  C31712254   4.176   3.686   4.021  0.0689 -0.9904 -0.1379
  116SAPE  H17X12255   4.260   3.614   4.024  0.3662 -0.6191  0.7847
  116SAPE  H17Y12256   4.088   3.659   4.084 -1.3936  0.7312 -1.3449
  116SAPE  C31812257   4.221   3.813   4.095 -0.4472 -0.5161  0.9299
  116SAPE  H18X12258   4.142   3.888   4.113  1.2390  1.7214 -0.4511
  116SAPE  H18Y12259   4.298   3.862   4.032 -1.5133  1.1516  0.8589
  116SAPE  H18Z12260   4.247   3.780   4.198  0.5343  0.3932  0.9849
  117SOPE     N12261   1.503   1.974   6.045  0.1492  0.3597 -0.3277
  117SOPE   HN112262   1.606   1.983   6.042  0.0927  1.2530  0.2395
  117SOPE   HN212263   1.468   2.058   6.095 -0.4894  0.0724 -0.2826
  117SOPE   HN312264   1.476   1.891   6.101 -1.1406  0.8997 -0.1004
  117SOPE   C1212265   1.446   1.973   5.907  0.0084 -0.6856  0.3384
  117SOPE  H12A12266   1.336   1.970   5.921 -0.0985  0.1330 -0.2708
  117SOPE  H12B12267   1.494   1.883   5.861  1.0065  0.4190 -0.8633
  117SOPE   C1112268   1.474   2.101   5.824 -0.7672 -0.6942 -0.3180
  117SOPE  H11A12269   1.418   2.109   5.729 -1.3500 -0.1789  0.0607
  117SOPE  H11B12270   1.579   2.085   5.789  0.1629  0.2541  1.8209
  117SOPE     P12271   1.355   2.279   5.997  0.4066  0.3670  0.1597
  117SOPE   O1312272   1.382   2.425   6.029  0.0598 -0.0030  0.7649
  117SOPE   O1412273   1.328   2.190   6.110 -0.0744 -0.4458 -0.5497
  117SOPE   O1212274   1.469   2.221   5.899  0.1158 -0.6303  0.2226
  117SOPE   O1112275   1.238   2.263   5.895 -0.2250 -0.1991 -0.2151
  117SOPE    C112276   1.100   2.275   5.934  0.6143 -0.3428 -0.3980
  117SOPE    HA12277   1.064   2.373   5.898  1.4487 -0.3172 -1.1775
  117SOPE    HB12278   1.103   2.274   6.045  1.8247  1.4014 -0.3920
  117SOPE    C212279   1.007   2.157   5.907  0.0170 -0.0442 -0.2561
  117SOPE    HS12280   1.059   2.065   5.940 -0.4135 -0.4761 -0.7442
  117SOPE   O2112281   0.995   2.161   5.762  0.3471 -0.3477 -0.4740
  117SOPE   C2112282   0.955   2.043   5.724  0.0357 -0.4110  0.4411
  117SOPE   O2212283   0.960   1.936   5.785  0.1965 -0.1342 -0.9455
  117SOPE   C2212284   0.927   2.060   5.577  0.0247  0.4185  0.2796
  117SOPE   H2R12285   0.982   2.146   5.536  1.2161  0.2084  1.3731
  117SOPE   H2S12286   0.819   2.085   5.568  0.6081  2.9939 -0.3238
  117SOPE    C312287   0.865   2.178   5.971 -0.1262 -0.0611  0.5944
  117SOPE    HX12288   0.847   2.285   5.947  1.0840 -0.5706 -3.1475
  117SOPE    HY12289   0.862   2.175   6.082 -0.0509  0.5370  0.6184
  117SOPE   O3112290   0.768   2.088   5.916  0.7529  0.3902 -0.7101
  117SOPE   C3112291   0.647   2.127   5.951 -0.2016 -0.0240  0.9883
  117SOPE   O3212292   0.616   2.228   6.012 -0.2537  0.0359 -0.5778
  117SOPE   C3212293   0.545   2.030   5.896  0.2676  0.2309 -0.3605
  117SOPE   H2X12294   0.463   2.020   5.971  1.0503 -1.1740  0.3326
  117SOPE   H2Y12295   0.578   1.926   5.880 -1.2918  0.0097 -2.7541
  117SOPE   C2312296   0.950   1.935   5.487 -1.0765  0.1059  0.1469
  117SOPE   H3R12297   0.885   1.850   5.516  0.3564 -0.8109  0.7882
  117SOPE   H3S12298   1.049   1.889   5.512 -0.5797  1.1671  0.1920
  117SOPE   C2412299   0.964   1.973   5.343  0.3147  0.0582 -0.2123
  117SOPE   H4R12300   0.881   2.038   5.309 -0.5178 -0.2561  1.1509
  117SOPE   H4S12301   1.059   2.029   5.328  0.6582  0.0101  1.5685
  117SOPE   C2512302   0.957   1.848   5.252  0.9839 -1.1173  0.4150
  117SOPE   H5R12303   1.028   1.770   5.286  1.0697 -0.6560  1.3380
  117SOPE   H5S12304   0.852   1.811   5.261 -1.0065  3.4137 -1.2483
  117SOPE   C2612305   0.979   1.891   5.110  0.4370  0.1293  0.2431
  117SOPE   H6R12306   0.921   1.983   5.091 -0.3189  0.1473  2.4234
  117SOPE   H6S12307   1.087   1.913   5.096  0.3698  1.9131  2.0958
  117SOPE   C2712308   0.924   1.783   5.011  0.3498  1.1674  0.9001
  117SOPE   H7R12309   0.969   1.686   5.038  0.5530  0.9874 -0.0479
  117SOPE   H7S12310   0.815   1.763   5.012  0.6679 -0.7107  1.2764
  117SOPE   C2812311   0.965   1.824   4.867  0.2314  0.2615 -0.6760
  117SOPE   H8R12312   1.076   1.832   4.871  0.3337 -1.3035  0.2812
  117SOPE   H8S12313   0.946   1.730   4.811  0.5129 -0.7301  0.8446
  117SOPE   C2912314   0.879   1.938   4.810 -0.1485 -0.4189  0.2470
  117SOPE   H9112315   0.820   1.997   4.882 -0.7180  0.8184 -1.1749
  117SOPE  C21012316   0.843   1.938   4.681  0.2379  0.0234 -0.3515
  117SOPE  H10112317   0.766   2.009   4.647 -0.6906  0.4037  2.3302
  117SOPE  C21112318   0.881   1.835   4.573  0.1905  0.3332 -0.0578
  117SOPE  H11R12319   0.861   1.729   4.597  0.0729  0.2017 -0.7211
  117SOPE  H11S12320   0.986   1.858   4.544 -0.0777  1.4056 -0.2345
  117SOPE  C21212321   0.794   1.861   4.450 -0.1221  0.7082 -0.3577
  117SOPE  H12R12322   0.859   1.829   4.366  1.6621  0.1183  1.1767
  117SOPE  H12S12323   0.765   1.968   4.447  2.3230  1.4390 -0.0469
  117SOPE  C21312324   0.681   1.763   4.438 -0.1651 -0.6874  0.0248
  117SOPE  H13R12325   0.612   1.759   4.525  0.4692 -1.8367  0.4979
  117SOPE  H13S12326   0.728   1.663   4.436  1.9036  0.2541 -1.0370
  117SOPE  C21412327   0.609   1.776   4.305  0.3601 -0.2237 -0.5338
  117SOPE  H14R12328   0.678   1.750   4.222  0.7255 -2.4521  0.3752
  117SOPE  H14S12329   0.566   1.877   4.287 -0.9698  0.4469  4.7803
  117SOPE  C21512330   0.499   1.673   4.292  0.3947  0.2597 -0.2245
  117SOPE  H15R12331   0.413   1.697   4.358  0.5676 -1.7526  0.7922
  117SOPE  H15S12332   0.537   1.575   4.328 -1.3536 -0.5118 -0.3539
  117SOPE  C21612333   0.459   1.638   4.151  0.2121 -0.1516 -0.0776
  117SOPE  H16R12334   0.549   1.625   4.086  1.9079 -0.8104  2.2588
  117SOPE  H16S12335   0.370   1.691   4.111 -1.8383 -1.9079  1.8989
  117SOPE  C21712336   0.393   1.494   4.154 -0.6078  0.2742 -0.0874
  117SOPE  H17R12337   0.325   1.490   4.241 -0.3021 -2.7438  0.1183
  117SOPE  H17S12338   0.472   1.417   4.171 -0.8782 -0.1972 -0.8723
  117SOPE  C21812339   0.321   1.438   4.025 -0.0216 -0.2044 -0.5211
  117SOPE  H18R12340   0.235   1.503   3.998 -0.3791 -1.6411 -3.1316
  117SOPE  H18S12341   0.285   1.334   4.032 -0.4122 -0.0245  0.3070
  117SOPE  H18T12342   0.393   1.453   3.942  0.9651 -0.8321  0.1968
  117SOPE   C3312343   0.472   2.097   5.772  0.3541  0.8194 -0.0679
  117SOPE   H3X12344   0.426   2.195   5.794 -1.6548  0.0960 -0.8112
  117SOPE   H3Y12345   0.384   2.038   5.739  0.5717 -0.4546  1.4839
  117SOPE   C3412346   0.570   2.111   5.657  0.0368  0.4169 -0.0137
  117SOPE   H4X12347   0.629   2.017   5.659  1.0477  1.0243  2.5348
  117SOPE   H4Y12348   0.635   2.200   5.669  1.3850 -0.5685  0.2369
  117SOPE   C3512349   0.504   2.126   5.524  0.3162  0.1648 -0.0332
  117SOPE   H5X12350   0.550   2.195   5.451 -1.5017  0.9144 -0.5109
  117SOPE   H5Y12351   0.401   2.166   5.534 -0.1123  0.8609 -4.9164
  117SOPE   C3612352   0.480   1.998   5.452 -0.5554  0.0155 -0.0597
  117SOPE   H6X12353   0.414   1.933   5.514 -0.3509  0.5975  0.7795
  117SOPE   H6Y12354   0.579   1.948   5.447 -0.6479 -0.0807 -2.1281
  117SOPE   C3712355   0.431   2.021   5.308  0.3338 -0.2183 -0.4350
  117SOPE   H7X12356   0.486   2.112   5.277  0.4271  0.1548  0.7622
  117SOPE   H7Y12357   0.325   2.055   5.310  0.3651 -0.1563  0.3661
  117SOPE   C3812358   0.459   1.918   5.206 -1.0877  0.2585 -0.2972
  117SOPE   H8X12359   0.404   1.823   5.222 -0.1468 -0.3163 -0.4221
  117SOPE   H8Y12360   0.567   1.891   5.211 -1.5888 -1.7113  0.8842
  117SOPE   C3912361   0.439   1.973   5.063  0.5766  0.2843  0.3499
  117SOPE   H9X12362   0.503   2.061   5.039  0.0505  0.1988 -1.5028
  117SOPE   H9Y12363   0.330   1.995   5.058  0.0777 -2.0092  0.1011
  117SOPE  C31012364   0.478   1.852   4.962 -0.5388 -0.1281  0.7550
  117SOPE  H10X12365   0.387   1.789   4.962 -0.2915 -0.5052 -0.5668
  117SOPE  H10Y12366   0.554   1.788   5.011 -2.4017 -1.4350  2.0973
  117SOPE  C31112367   0.499   1.894   4.819  0.8153  0.4347  0.0201
  117SOPE  H11X12368   0.498   1.802   4.756  3.0239  0.8851 -0.7577
  117SOPE  H11Y12369   0.604   1.929   4.806  0.4948  1.0765 -1.0321
  117SOPE  C31212370   0.388   1.989   4.774  0.4832 -0.2707  0.7191
  117SOPE  H12X12371   0.389   2.087   4.827  0.8636 -0.1210  0.4342
  117SOPE  H12Y12372   0.284   1.952   4.787 -0.0160  0.8477  0.0133
  117SOPE  C31312373   0.413   2.024   4.628 -0.4873 -0.6055  0.5040
  117SOPE  H13X12374   0.429   1.929   4.573 -1.1225 -0.4082 -0.0372
  117SOPE  H13Y12375   0.508   2.080   4.635  0.0919 -0.7452 -3.6273
  117SOPE  C31412376   0.305   2.113   4.566 -0.2076 -0.2973 -0.7644
  117SOPE  H14X12377   0.339   2.197   4.502 -2.0470  0.8111 -0.3599
  117SOPE  H14Y12378   0.245   2.161   4.647 -0.2769 -0.0715 -0.9503
  117SOPE  C31512379   0.203   2.036   4.483  1.1953  0.5862  0.6222
  117SOPE  H15X12380   0.113   2.101   4.477  0.7922  0.1675  1.8888
  117SOPE  H15Y12381   0.173   1.943   4.534  2.6923 -0.3514 -0.1417
  117SOPE  C31612382   0.251   1.989   4.347 -0.4653 -0.1828 -0.9420
  117SOPE  H16X12383   0.169   1.933   4.298  0.4055 -1.6144 -0.7992
  117SOPE  H16Y12384   0.339   1.922   4.354  0.5386  1.1747 -0.0763
  117SOPE  C31712385   0.290   2.102   4.248 -0.4841 -0.3763 -0.0772
  117SOPE  H17X12386   0.392   2.137   4.274 -0.3415  0.8335 -2.1168
  117SOPE  H17Y12387   0.215   2.184   4.252 -2.3784 -2.0295  0.0024
  117SOPE  C31812388   0.285   2.051   4.106  0.9148  0.5815  0.3601
  117SOPE  H18X12389   0.340   1.956   4.095  1.3192  1.0448 -2.3056
  117SOPE  H18Y12390   0.326   2.119   4.028  1.4679  0.7099  0.7613
  117SOPE  H18Z12391   0.179   2.033   4.078  0.6344  0.2004  1.6198
  118SOPE     N12392   1.601   3.064   6.559 -0.6749  0.3872  0.5505
  118SOPE   HN112393   1.513   3.120   6.565 -1.1688 -0.1375 -1.2315
  118SOPE   HN212394   1.688   3.102   6.601  0.1982 -1.2023  0.2669
  118SOPE   HN312395   1.620   3.051   6.458 -0.1749  2.5947  0.3164
  118SOPE   C1212396   1.591   2.926   6.620 -0.4166  0.8141 -0.6643
  118SOPE  H12A12397   1.566   2.946   6.726 -0.7825  0.3107 -0.6567
  118SOPE  H12B12398   1.687   2.870   6.607 -1.1898 -0.9797  0.9887
  118SOPE   C1112399   1.474   2.850   6.551  0.5182  0.4498  0.3340
  118SOPE  H11A12400   1.382   2.911   6.561  0.7024  0.8579 -0.3785
  118SOPE  H11B12401   1.455   2.751   6.597  0.5633 -1.0282 -2.5915
  118SOPE     P12402   1.390   2.783   6.314  0.3760  0.2964 -0.3536
  118SOPE   O1312403   1.369   2.644   6.356 -0.4984  0.5015  0.0243
  118SOPE   O1412404   1.434   2.819   6.176  0.4027  0.5866 -0.1370
  118SOPE   O1212405   1.499   2.836   6.405 -0.2490  0.3460  0.4786
  118SOPE   O1112406   1.275   2.875   6.354 -0.1919 -0.0868  0.3105
  118SOPE    C112407   1.261   3.011   6.305  0.4448 -0.4031 -0.3081
  118SOPE    HA12408   1.356   3.052   6.264  0.2743 -0.0321 -0.3393
  118SOPE    HB12409   1.227   3.073   6.391 -1.0781  1.5254 -2.2002
  118SOPE    C212410   1.159   3.021   6.196 -0.0433  0.2757 -0.0524
  118SOPE    HS12411   1.079   2.953   6.231  1.1070  0.8544  4.3369
  118SOPE   O2112412   1.230   2.973   6.084  0.7270  0.2170  0.7932
  118SOPE   C2112413   1.164   2.888   6.012  0.1634  0.2800  0.3487
  118SOPE   O2212414   1.050   2.849   6.018  0.4299 -0.0778 -0.4128
  118SOPE   C2212415   1.260   2.852   5.893  0.6528  0.0797 -0.6631
  118SOPE   H2R12416   1.369   2.869   5.903  1.1188 -2.0628 -1.4708
  118SOPE   H2S12417   1.220   2.920   5.814 -1.0032 -0.6154 -0.4732
  118SOPE    C312418   1.095   3.161   6.166  0.3646  0.1792 -0.6703
  118SOPE    HX12419   1.181   3.221   6.130  0.6263 -1.3958 -2.8223
  118SOPE    HY12420   1.053   3.200   6.262  0.8492  1.2852 -0.8856
  118SOPE   O3112421   0.988   3.149   6.073  0.0447  0.5361 -0.4275
  118SOPE   C3112422   0.964   3.265   6.004 -0.8690  0.3381 -0.7805
  118SOPE   O3212423   1.035   3.362   5.998  0.0991  0.2738  0.1597
  118SOPE   C3212424   0.841   3.246   5.918  0.0055  0.0656  0.4034
  118SOPE   H2X12425   0.787   3.343   5.916 -1.7909 -0.8809  0.4219
  118SOPE   H2Y12426   0.768   3.179   5.969 -1.8511 -0.2969 -2.5005
  118SOPE   C2312427   1.235   2.708   5.839  0.5027 -0.6351 -0.2411
  118SOPE   H3R12428   1.127   2.685   5.827 -0.2141  1.4661  1.5731
  118SOPE   H3S12429   1.257   2.636   5.921 -1.3645 -1.2223 -0.2125
  118SOPE   C2412430   1.305   2.685   5.703  0.1849 -0.1042  0.5754
  118SOPE   H4R12431   1.257   2.753   5.630  1.7688  0.6935  0.2366
  118SOPE   H4S12432   1.409   2.722   5.696 -1.0543  3.4174 -1.9370
  118SOPE   C2512433   1.285   2.536   5.669 -0.0486  0.0285  0.8414
  118SOPE   H5R12434   1.319   2.470   5.752  2.6469  2.1547  1.5871
  118SOPE   H5S12435   1.177   2.511   5.655  0.6727 -3.3399  0.4194
  118SOPE   C2612436   1.351   2.507   5.531  0.0960  0.0584 -0.2817
  118SOPE   H6R12437   1.320   2.578   5.451  0.7174  1.1400  0.4077
  118SOPE   H6S12438   1.459   2.512   5.558 -0.0056  2.5158 -0.0898
  118SOPE   C2712439   1.315   2.362   5.477 -0.3438 -0.3571  0.3906
  118SOPE   H7R12440   1.345   2.298   5.563  0.9602 -0.5651 -0.1815
  118SOPE   H7S12441   1.205   2.359   5.464 -0.3094  0.2682 -0.0952
  118SOPE   C2812442   1.396   2.331   5.354 -0.2620  0.6806  0.4750
  118SOPE   H8R12443   1.373   2.396   5.267 -0.4510 -2.9034 -2.4304
  118SOPE   H8S12444   1.502   2.356   5.377  0.2029 -1.1142  0.4622
  118SOPE   C2912445   1.381   2.185   5.315 -0.1315 -0.4872  0.5022
  118SOPE   H9112446   1.420   2.106   5.382 -0.7816 -2.1202 -0.9790
  118SOPE  C21012447   1.326   2.134   5.201 -0.4391  0.6884  0.1074
  118SOPE  H10112448   1.323   2.025   5.192  0.0153  0.7026 -0.2928
  118SOPE  C21112449   1.253   2.212   5.099 -0.2527  0.4413  0.3798
  118SOPE  H11R12450   1.256   2.321   5.121 -0.3664  0.4505  0.3483
  118SOPE  H11S12451   1.147   2.185   5.080  0.2832 -1.3867 -0.2402
  118SOPE  C21212452   1.319   2.184   4.962 -0.7404 -0.6447 -0.2280
  118SOPE  H12R12453   1.430   2.175   4.960 -0.6669  0.2299 -0.9513
  118SOPE  H12S12454   1.296   2.269   4.895  4.2015  0.9628 -0.3035
  118SOPE  C21312455   1.263   2.055   4.886  0.1455 -0.5931 -1.1954
  118SOPE  H13R12456   1.154   2.040   4.901  0.0742 -0.6386 -1.7352
  118SOPE  H13S12457   1.324   1.974   4.931 -0.8700 -0.1215  1.1925
  118SOPE  C21412458   1.297   2.069   4.738  0.3942  0.2617  0.5608
  118SOPE  H14R12459   1.407   2.056   4.726  0.2606 -0.3277 -0.1706
  118SOPE  H14S12460   1.271   2.176   4.722  1.8755  0.5942  0.2644
  118SOPE  C21512461   1.226   1.983   4.638 -0.1488 -0.1385 -0.5550
  118SOPE  H15R12462   1.129   2.026   4.605  0.9617  2.9809 -0.1780
  118SOPE  H15S12463   1.207   1.884   4.684  3.2267 -1.1212 -1.0303
  118SOPE  C21612464   1.305   1.954   4.506  0.3462 -0.1161 -0.3949
  118SOPE  H16R12465   1.404   1.911   4.534 -0.7706 -1.2256  2.1578
  118SOPE  H16S12466   1.328   2.055   4.465  0.3803 -0.0907 -0.3150
  118SOPE  C21712467   1.230   1.856   4.412 -0.3666 -0.2445  0.6357
  118SOPE  H17R12468   1.129   1.883   4.374  0.7000 -1.9389 -4.0913
  118SOPE  H17S12469   1.213   1.766   4.475 -4.9534 -0.2133 -0.2650
  118SOPE  C21812470   1.324   1.828   4.285  0.2606  0.4913 -0.4874
  118SOPE  H18R12471   1.297   1.732   4.236 -1.2653  0.5522  0.1814
  118SOPE  H18S12472   1.431   1.823   4.315  0.8003 -0.1920 -2.3903
  118SOPE  H18T12473   1.329   1.908   4.208  0.5916 -1.5493 -2.6980
  118SOPE   C3312474   0.885   3.200   5.775  0.1528 -0.6393 -0.4929
  118SOPE   H3X12475   0.949   3.109   5.781  2.6296  0.8290 -2.6036
  118SOPE   H3Y12476   0.964   3.265   5.731 -0.0686 -0.7774 -1.0989
  118SOPE   C3412477   0.778   3.161   5.667 -0.2066 -0.4581  0.0053
  118SOPE   H4X12478   0.712   3.250   5.658 -0.3667 -0.5733  0.0439
  118SOPE   H4Y12479   0.715   3.081   5.711  2.1359 -0.8100  3.1228
  118SOPE   C3512480   0.850   3.122   5.536  0.3313 -1.2501  0.0558
  118SOPE   H5X12481   0.907   3.210   5.500  0.3812 -1.2911  0.0339
  118SOPE   H5Y12482   0.771   3.090   5.464  0.2107 -0.4640 -0.1686
  118SOPE   C3612483   0.934   2.997   5.542 -0.8153 -0.0225  0.1803
  118SOPE   H6X12484   0.874   2.910   5.576 -0.1058 -0.5187  0.1892
  118SOPE   H6Y12485   1.021   3.013   5.609 -1.2666 -0.2563  0.8296
  118SOPE   C3712486   0.987   2.962   5.404 -0.2942  0.3503 -0.4250
  118SOPE   H7X12487   1.044   2.867   5.409 -1.8708 -0.6353 -0.3556
  118SOPE   H7Y12488   1.057   3.038   5.364  2.7576 -2.4507 -0.8300
  118SOPE   C3812489   0.882   2.933   5.295 -0.5446 -0.1444 -0.7565
  118SOPE   H8X12490   0.827   3.024   5.263 -0.5982  0.2306  0.3654
  118SOPE   H8Y12491   0.809   2.860   5.337  0.0125 -0.8862 -1.0705
  118SOPE   C3912492   0.935   2.880   5.156 -0.2075  0.5679  0.2028
  118SOPE   H9X12493   0.959   2.773   5.173  1.0920  0.9452  0.8909
  118SOPE   H9Y12494   1.033   2.919   5.124  1.4183 -2.2218  1.4244
  118SOPE  C31012495   0.830   2.883   5.042 -0.6832  0.1751  0.5394
  118SOPE  H10X12496   0.792   2.987   5.029 -1.5320 -0.2065 -0.0720
  118SOPE  H10Y12497   0.740   2.822   5.064 -0.5506 -1.2085 -2.3095
  118SOPE  C31112498   0.882   2.816   4.908  0.3024 -0.5603 -0.0613
  118SOPE  H11X12499   0.795   2.810   4.839  1.0145  0.1075 -1.0520
  118SOPE  H11Y12500   0.906   2.712   4.939  1.3170 -0.1824  0.4649
  118SOPE  C31212501   0.994   2.898   4.843  0.1123  0.1363 -0.0105
  118SOPE  H12X12502   1.080   2.904   4.914  1.3229  0.0204 -1.4124
  118SOPE  H12Y12503   0.946   2.994   4.816 -0.4391 -0.5080 -1.4050
  118SOPE  C31312504   1.048   2.825   4.721  0.0291  0.1983  0.2088
  118SOPE  H13X12505   1.076   2.725   4.760 -0.1770  1.0241  2.6967
  118SOPE  H13Y12506   1.141   2.878   4.690  0.5416 -1.0327 -0.4019
  118SOPE  C31412507   0.948   2.808   4.603  0.9651 -0.2350 -0.2703
  118SOPE  H14X12508   0.903   2.905   4.574  1.9696  0.0566 -0.8874
  118SOPE  H14Y12509   0.881   2.724   4.634  2.3941 -1.2172  0.2655
  118SOPE  C31512510   1.028   2.756   4.483 -0.1490  0.2012  0.4546
  118SOPE  H15X12511   1.062   2.659   4.525 -0.1696 -0.0720 -0.1507
  118SOPE  H15Y12512   1.112   2.824   4.457 -2.1809  2.5509 -0.3717
  118SOPE  C31612513   0.942   2.728   4.361 -0.0752  0.0239 -0.0343
  118SOPE  H16X12514   0.896   2.825   4.334  0.0502  0.7517  2.2069
  118SOPE  H16Y12515   0.865   2.653   4.389 -0.3199  0.1648 -0.3235
  118SOPE  C31712516   1.022   2.661   4.247  0.6337  0.4716  0.0976
  118SOPE  H17X12517   0.946   2.631   4.172  0.4355  2.0810 -0.3783
  118SOPE  H17Y12518   1.068   2.566   4.282 -0.2947  0.2938  0.8736
  118SOPE  C31812519   1.128   2.755   4.185 -0.1791  0.5465  0.3070
  118SOPE  H18X12520   1.183   2.715   4.097  0.4578  1.4430  0.2698
  118SOPE  H18Y12521   1.196   2.779   4.270 -2.1194 -0.8319  2.3640
  118SOPE  H18Z12522   1.085   2.845   4.137 -2.3549 -1.9016 -2.6996
  119SOPE     N12523   3.461   2.644   6.350  0.2857  0.1768  0.2511
  119SOPE   HN112524   3.462   2.550   6.305  0.1448  0.5165 -0.4684
  119SOPE   HN212525   3.474   2.715   6.276 -1.7343  2.5015  1.9869
  119SOPE   HN312526   3.542   2.645   6.415  0.7851  1.7431 -0.3577
  119SOPE   C1212527   3.325   2.655   6.409 -0.0457 -0.2601  0.1037
  119SOPE  H12A12528   3.315   2.751   6.464  1.0028  1.1077 -1.9586
  119SOPE  H12B12529   3.317   2.567   6.476  3.3449 -1.4740 -0.9187
  119SOPE   C1112530   3.226   2.652   6.296  0.8857  0.1378 -0.9628
  119SOPE  H11A12531   3.126   2.635   6.342  1.7398 -0.7500  0.6401
  119SOPE  H11B12532   3.241   2.566   6.227 -2.0722 -1.2369 -0.0522
  119SOPE     P12533   3.139   2.801   6.099  0.2935 -0.0519  0.1180
  119SOPE   O1312534   3.089   2.943   6.099 -0.2557  0.2323 -0.0345
  119SOPE   O1412535   3.037   2.700   6.083 -0.0029 -0.1922  0.0363
  119SOPE   O1212536   3.217   2.780   6.237  0.3317 -0.1115 -0.2513
  119SOPE   O1112537   3.250   2.776   5.991 -0.0980  0.0315 -0.4791
  119SOPE    C112538   3.311   2.651   5.960  0.1927  0.2681 -0.0496
  119SOPE    HA12539   3.278   2.563   6.019 -1.1159  0.8432  0.1154
  119SOPE    HB12540   3.421   2.665   5.963  0.3790 -0.9194 -0.6566
  119SOPE    C212541   3.283   2.601   5.810 -0.2667 -0.3966 -0.1852
  119SOPE    HS12542   3.342   2.508   5.800 -1.0561 -1.3582  2.9939
  119SOPE   O2112543   3.308   2.705   5.711  0.3829  0.5751  0.3277
  119SOPE   C2112544   3.432   2.740   5.700  0.6485 -0.5045  0.0031
  119SOPE   O2212545   3.535   2.697   5.749  0.0770 -0.0893  0.1326
  119SOPE   C2212546   3.419   2.838   5.583  0.0346 -0.0708 -0.1329
  119SOPE   H2R12547   3.523   2.859   5.550  0.7835 -1.8336  0.9373
  119SOPE   H2S12548   3.378   2.937   5.612 -0.6919 -0.8175  1.4875
  119SOPE    C312549   3.128   2.570   5.794 -0.0611 -0.2402 -0.1690
  119SOPE    HX12550   3.072   2.665   5.808  0.0227 -0.1153 -0.6768
  119SOPE    HY12551   3.089   2.495   5.867 -0.0749 -0.4523 -0.3936
  119SOPE   O3112552   3.103   2.522   5.658  0.8273 -0.5988  0.7187
  119SOPE   C3112553   3.084   2.399   5.634 -0.3982 -0.2608 -0.0057
  119SOPE   O3212554   3.093   2.308   5.723 -0.0021 -0.5859  0.3932
  119SOPE   C3212555   3.044   2.376   5.490  0.4063  0.1020  0.0830
  119SOPE   H2X12556   2.949   2.432   5.479  0.2579  0.5453  2.9442
  119SOPE   H2Y12557   3.017   2.269   5.478  1.5755 -0.2888  0.7478
  119SOPE   C2312558   3.359   2.775   5.449 -0.8875  0.3403 -0.3529
  119SOPE   H3R12559   3.254   2.748   5.474 -0.8605 -1.6874 -2.2223
  119SOPE   H3S12560   3.425   2.693   5.415 -0.4634 -0.1681  1.5654
  119SOPE   C2412561   3.351   2.884   5.335  0.6091  0.1685  0.0972
  119SOPE   H4R12562   3.274   2.959   5.365 -0.9886 -2.4296  3.1125
  119SOPE   H4S12563   3.452   2.929   5.344  1.1645 -0.4694 -2.2706
  119SOPE   C2512564   3.327   2.817   5.190  0.0248 -0.2915  0.0829
  119SOPE   H5R12565   3.422   2.763   5.168  0.1047 -0.3343  0.5395
  119SOPE   H5S12566   3.240   2.748   5.194 -0.5866  0.3980 -0.9351
  119SOPE   C2612567   3.309   2.926   5.083 -0.5893  0.0794  0.3401
  119SOPE   H6R12568   3.213   2.978   5.106 -1.5835 -1.2184 -0.7130
  119SOPE   H6S12569   3.390   3.001   5.067  2.3449 -2.9098 -0.0951
  119SOPE   C2712570   3.295   2.848   4.949  1.0271  0.1257  0.8134
  119SOPE   H7R12571   3.385   2.791   4.915  0.5976 -0.3647  0.4857
  119SOPE   H7S12572   3.212   2.776   4.967  0.8240 -0.3833 -1.7768
  119SOPE   C2812573   3.234   2.931   4.833 -0.1274  0.2524  1.0956
  119SOPE   H8R12574   3.144   2.980   4.875 -1.3198 -2.8828  2.5131
  119SOPE   H8S12575   3.313   2.999   4.795 -0.1743  0.5271  1.4817
  119SOPE   C2912576   3.200   2.839   4.717 -0.7238  0.7167  0.5713
  119SOPE   H9112577   3.176   2.734   4.741  3.1781 -0.6359 -0.6502
  119SOPE  C21012578   3.217   2.866   4.586  0.1714  0.1458  0.0173
  119SOPE  H10112579   3.193   2.782   4.519  0.6714 -0.8561  1.0591
  119SOPE  C21112580   3.262   2.995   4.521  0.0564 -0.5471  0.9749
  119SOPE  H11R12581   3.367   2.998   4.484 -1.0363  0.8672 -2.4762
  119SOPE  H11S12582   3.261   3.083   4.589  2.2001 -0.6940  1.2863
  119SOPE  C21212583   3.177   3.041   4.401  0.0776 -0.5622  0.1171
  119SOPE  H12R12584   3.080   3.083   4.435  1.5550  2.8944  0.4218
  119SOPE  H12S12585   3.160   2.955   4.332  2.7791 -1.9926  1.1098
  119SOPE  C21312586   3.238   3.147   4.307  0.3511  0.2327 -0.0799
  119SOPE  H13R12587   3.340   3.109   4.284 -0.5762 -3.2950  1.0450
  119SOPE  H13S12588   3.247   3.235   4.376 -0.8931  0.0880  0.2871
  119SOPE  C21412589   3.153   3.183   4.196 -0.2660  1.3454 -0.1983
  119SOPE  H14R12590   3.061   3.232   4.234 -1.1878  1.1558 -2.0588
  119SOPE  H14S12591   3.124   3.101   4.127  3.5483 -1.6629  1.3784
  119SOPE  C21512592   3.218   3.297   4.116 -0.1794 -0.0209  0.4169
  119SOPE  H15R12593   3.321   3.267   4.087  0.4324  1.7902  0.5843
  119SOPE  H15S12594   3.232   3.387   4.179 -1.1790  1.1386 -0.9546
  119SOPE  C21612595   3.160   3.319   3.979 -0.1052 -0.9390  0.3950
  119SOPE  H16R12596   3.080   3.396   3.984  0.1022 -0.6020 -0.9476
  119SOPE  H16S12597   3.102   3.233   3.940 -0.9897  0.5239 -1.7469
  119SOPE  C21712598   3.256   3.381   3.876 -0.3652 -0.0159  0.5692
  119SOPE  H17R12599   3.204   3.380   3.778  0.1545  2.6779  0.1664
  119SOPE  H17S12600   3.345   3.324   3.843 -1.2015 -0.6290 -0.6891
  119SOPE  C21812601   3.290   3.526   3.912 -0.1441 -0.2403 -0.3650
  119SOPE  H18R12602   3.339   3.536   4.011  0.1883  2.8729 -0.7275
  119SOPE  H18S12603   3.205   3.598   3.918 -0.3457 -0.4789 -0.3554
  119SOPE  H18T12604   3.361   3.564   3.836 -0.8279 -0.9285 -1.3685
  119SOPE   C3312605   3.154   2.420   5.387 -0.3873 -0.5004 -0.4735
  119SOPE   H3X12606   3.249   2.367   5.412 -0.7156  0.1645  2.6595
  119SOPE   H3Y12607   3.189   2.525   5.404  3.0388 -1.3768 -1.3403
  119SOPE   C3412608   3.124   2.406   5.240 -0.4372 -0.5427 -0.1342
  119SOPE   H4X12609   3.055   2.491   5.220 -1.3847 -0.2811  3.4432
  119SOPE   H4Y12610   3.065   2.313   5.231 -1.4710  0.0420  0.3684
  119SOPE   C3512611   3.235   2.406   5.137  0.0671 -0.0323  0.2524
  119SOPE   H5X12612   3.311   2.333   5.173  1.1060  0.3927 -0.9787
  119SOPE   H5Y12613   3.277   2.509   5.134 -0.2024  0.0884 -2.9835
  119SOPE   C3612614   3.182   2.392   4.994 -0.6941 -0.0896  0.1421
  119SOPE   H6X12615   3.094   2.458   4.979 -0.5379  0.6296  2.0747
  119SOPE   H6Y12616   3.155   2.285   4.987 -1.0077 -0.4460  4.2845
  119SOPE   C3712617   3.296   2.440   4.893 -0.2523 -0.6192  0.0592
  119SOPE   H7X12618   3.384   2.373   4.900 -0.0684 -0.3885 -0.0591
  119SOPE   H7Y12619   3.321   2.543   4.926  1.7651 -1.4870  1.4996
  119SOPE   C3812620   3.254   2.440   4.751 -0.5514 -0.1907  0.1422
  119SOPE   H8X12621   3.165   2.506   4.744  0.4739  1.3696  1.1848
  119SOPE   H8Y12622   3.222   2.338   4.721 -1.3561 -0.7486  2.6680
  119SOPE   C3912623   3.369   2.491   4.655 -0.2707 -0.0796 -0.8249
  119SOPE   H9X12624   3.459   2.427   4.662 -0.0631  0.0550 -2.0146
  119SOPE   H9Y12625   3.398   2.597   4.675  1.2451 -0.4232 -1.0726
  119SOPE  C31012626   3.300   2.489   4.514 -0.5270 -0.9606 -0.7044
  119SOPE  H10X12627   3.207   2.549   4.525  0.7043  0.6637  2.0345
  119SOPE  H10Y12628   3.268   2.385   4.491  2.1442 -2.2006  0.7257
  119SOPE  C31112629   3.387   2.544   4.404 -0.7430  0.0391  0.3742
  119SOPE  H11X12630   3.464   2.464   4.397 -0.9513 -0.0090 -3.6781
  119SOPE  H11Y12631   3.440   2.638   4.430  1.4400 -0.2197 -2.5733
  119SOPE  C31212632   3.311   2.554   4.278 -0.5241 -0.2753 -1.1606
  119SOPE  H12X12633   3.230   2.627   4.299 -1.2748 -1.1787 -0.8463
  119SOPE  H12Y12634   3.251   2.461   4.264  0.6358 -1.7292  2.3701
  119SOPE  C31312635   3.407   2.571   4.163 -0.3409 -0.2586  0.1057
  119SOPE  H13X12636   3.469   2.479   4.153 -0.3903 -1.0758  4.9179
  119SOPE  H13Y12637   3.476   2.655   4.189 -1.2461 -0.5888  4.4143
  119SOPE  C31412638   3.341   2.616   4.030  0.3770  0.3104 -0.0004
  119SOPE  H14X12639   3.244   2.564   4.022  0.0965  0.8852 -0.4420
  119SOPE  H14Y12640   3.403   2.584   3.944 -0.0117 -1.7186  0.4328
  119SOPE  C31512641   3.308   2.768   4.023  0.0032  0.4600  0.1673
  119SOPE  H15X12642   3.398   2.830   4.043 -0.1730  0.6793  0.2943
  119SOPE  H15Y12643   3.238   2.798   4.104 -0.0406 -1.8564  1.0339
  119SOPE  C31612644   3.255   2.809   3.880  0.3542  0.0002  0.0319
  119SOPE  H16X12645   3.171   2.740   3.853 -0.4132  0.7782  0.3712
  119SOPE  H16Y12646   3.347   2.810   3.818  1.0632  3.0474  0.9549
  119SOPE  C31712647   3.213   2.962   3.880 -0.8531  0.5150  0.1290
  119SOPE  H17X12648   3.274   3.015   3.956 -1.1000 -0.4119  1.0041
  119SOPE  H17Y12649   3.112   2.952   3.924  0.0782 -1.4173  2.0152
  119SOPE  C31812650   3.218   3.027   3.747 -0.0313 -0.0050 -0.1764
  119SOPE  H18X12651   3.196   3.136   3.756 -3.8676 -0.4955 -1.6882
  119SOPE  H18Y12652   3.140   2.998   3.673  2.7935 -1.1021 -2.9207
  119SOPE  H18Z12653   3.316   3.018   3.696  0.4510  1.4576  0.4183
  120SOPE     N12654   4.489   3.907   5.867 -0.1956 -0.0309 -0.7974
  120SOPE   HN112655   4.390   3.889   5.894  0.8964  0.3415  4.4109
  120SOPE   HN212656   4.549   3.825   5.887  0.6593  0.4186 -1.4406
  120SOPE   HN312657   4.531   3.989   5.915 -1.0000  0.9269 -1.6664
  120SOPE   C1212658   4.510   3.948   5.724  0.5735  0.4165  0.4372
  120SOPE  H12A12659   4.612   3.993   5.722  0.1734  1.5835  2.7067
  120SOPE  H12B12660   4.442   4.035   5.713 -0.0471 -0.0094  0.8698
  120SOPE   C1112661   4.485   3.830   5.632 -0.0225  0.0543 -0.5898
  120SOPE  H11A12662   4.492   3.877   5.532 -2.5993  2.5538  0.2559
  120SOPE  H11B12663   4.382   3.788   5.639 -0.7149  1.8568  1.3579
  120SOPE     P12664   4.537   3.578   5.638  0.3513 -0.0181 -0.0854
  120SOPE   O1312665   4.401   3.567   5.691 -0.0149  0.6556  0.1104
  120SOPE   O1412666   4.641   3.496   5.703  0.0289  0.5009  0.2996
  120SOPE   O1212667   4.586   3.729   5.652  1.1482  0.6354 -0.1063
  120SOPE   O1112668   4.531   3.546   5.486 -0.3379  0.8384  0.4693
  120SOPE    C112669   4.472   3.615   5.383 -0.3245 -0.2010 -0.3980
  120SOPE    HA12670   4.533   3.704   5.357 -1.5477  0.2306 -1.9187
  120SOPE    HB12671   4.372   3.650   5.415  1.1455  1.8620  2.3962
  120SOPE    C212672   4.465   3.540   5.246 -0.4609  0.1722  0.4468
  120SOPE    HS12673   4.567   3.522   5.205 -1.4796  0.1427 -2.2082
  120SOPE   O2112674   4.380   3.604   5.154  0.3904 -0.2120  0.2052
  120SOPE   C2112675   4.447   3.709   5.103  0.1915 -0.4032  0.4669
  120SOPE   O2212676   4.560   3.734   5.124 -0.6811 -0.4856 -0.2328
  120SOPE   C2212677   4.351   3.798   5.017  0.0697 -0.8888  0.2484
  120SOPE   H2R12678   4.248   3.807   5.058  0.5277  0.3274  1.2237
  120SOPE   H2S12679   4.346   3.745   4.920  0.7583  0.9279 -0.8413
  120SOPE    C312680   4.405   3.398   5.277  0.0183 -0.1709  0.3766
  120SOPE    HX12681   4.301   3.412   5.313 -1.1733 -1.4252 -2.3615
  120SOPE    HY12682   4.475   3.345   5.345  1.6944  0.1425 -1.0112
  120SOPE   O3112683   4.400   3.321   5.151  0.5339  0.2968 -0.3220
  120SOPE   C3112684   4.507   3.251   5.118 -0.0776 -0.1079  0.0593
  120SOPE   O3212685   4.612   3.256   5.179 -0.0874  0.0016 -0.3167
  120SOPE   C3212686   4.483   3.188   4.982  0.3969  0.3947 -0.3630
  120SOPE   H2X12687   4.388   3.130   4.988  0.3327  0.3278 -1.8016
  120SOPE   H2Y12688   4.558   3.113   4.951 -1.0837 -1.8002  1.0552
  120SOPE   C2312689   4.407   3.945   4.996 -0.2293 -0.2621  0.0814
  120SOPE   H3R12690   4.497   3.943   4.931  1.8126 -2.1065  2.7478
  120SOPE   H3S12691   4.442   3.983   5.094 -1.6022 -0.9696  0.8778
  120SOPE   C2412692   4.308   4.046   4.923 -0.4047 -0.3713  0.2723
  120SOPE   H4R12693   4.268   3.991   4.835  0.5911 -1.8800  0.7263
  120SOPE   H4S12694   4.228   4.074   4.995  0.0464  1.5819  0.0718
  120SOPE   C2512695   4.377   4.178   4.884  0.4655  0.7945 -0.0301
  120SOPE   H5R12696   4.433   4.210   4.974 -0.9208 -2.1368  2.0573
  120SOPE   H5S12697   4.447   4.152   4.802 -2.6157 -0.1927 -2.5484
  120SOPE   C2612698   4.271   4.285   4.850  0.7810 -0.2140 -0.2549
  120SOPE   H6R12699   4.218   4.238   4.764  0.4398  1.7944 -1.2117
  120SOPE   H6S12700   4.201   4.301   4.935  2.2347  0.9449  0.7610
  120SOPE   C2712701   4.335   4.410   4.790  0.0566 -0.3635 -0.4321
  120SOPE   H7R12702   4.387   4.461   4.874 -0.8301 -0.5118  0.2249
  120SOPE   H7S12703   4.414   4.388   4.715  1.6059  1.2801  0.6611
  120SOPE   C2812704   4.240   4.507   4.717 -0.5168  0.3465 -0.2364
  120SOPE   H8R12705   4.186   4.476   4.625  0.6815  1.1230 -1.2337
  120SOPE   H8S12706   4.155   4.547   4.777 -1.7130 -1.5663 -0.5564
  120SOPE   C2912707   4.319   4.635   4.692 -0.4570 -0.1341  0.2781
  120SOPE   H9112708   4.319   4.702   4.779 -0.2282  1.9269 -1.2538
  120SOPE  C21012709   4.373   4.678   4.579 -0.3027  0.3766 -0.5797
  120SOPE  H10112710   4.436   4.768   4.583  1.2312 -0.4209 -3.8072
  120SOPE  C21112711   4.389   4.603   4.447  0.5495 -0.4796 -0.0914
  120SOPE  H11R12712   4.379   4.676   4.364  0.1279 -0.2358  0.1661
  120SOPE  H11S12713   4.294   4.546   4.435 -0.8983  1.5174  1.0643
  120SOPE  C21212714   4.509   4.516   4.405 -0.5502  0.0899 -0.0061
  120SOPE  H12R12715   4.507   4.428   4.472 -1.3142  0.9596  1.1419
  120SOPE  H12S12716   4.603   4.569   4.432 -2.1853  2.3096  1.7418
  120SOPE  C21312717   4.499   4.470   4.264  0.1506  0.2483 -0.3328
  120SOPE  H13R12718   4.506   4.556   4.195  0.2169  0.6232  0.1404
  120SOPE  H13S12719   4.399   4.425   4.246 -0.5781  0.6658  2.2677
  120SOPE  C21412720   4.589   4.357   4.223 -0.1212 -0.6960 -0.0634
  120SOPE  H14R12721   4.566   4.265   4.281  0.4859 -1.4149 -0.9289
  120SOPE  H14S12722   4.684   4.396   4.265 -2.6167  2.5812  3.0700
  120SOPE  C21512723   4.607   4.324   4.072 -0.0764  0.0801 -0.1407
  120SOPE  H15R12724   4.713   4.296   4.053  0.4116  0.9479  1.1751
  120SOPE  H15S12725   4.596   4.419   4.015 -1.8986  0.1086  0.2271
  120SOPE  C21612726   4.512   4.219   4.005 -0.4652 -0.2442 -0.3878
  120SOPE  H16R12727   4.551   4.210   3.901  0.4267  1.8114 -0.2658
  120SOPE  H16S12728   4.403   4.238   4.008 -0.8353 -2.2222  0.2023
  120SOPE  C21712729   4.525   4.080   4.068  0.2255  0.3802  0.2428
  120SOPE  H17R12730   4.468   4.011   4.002  0.3193  1.8246 -1.4274
  120SOPE  H17S12731   4.468   4.089   4.163  1.7243 -1.7281  1.4452
  120SOPE  C21812732   4.663   4.033   4.099 -1.1430 -0.0819  0.1232
  120SOPE  H18R12733   4.715   4.011   4.003  0.8313  1.0070  0.8773
  120SOPE  H18S12734   4.657   3.941   4.160  0.7962 -0.1007  0.3320
  120SOPE  H18T12735   4.724   4.103   4.160  0.1796 -0.6491 -0.5228
  120SOPE   C3312736   4.481   3.293   4.867  0.8246  0.3464  0.6457
  120SOPE   H3X12737   4.407   3.370   4.895  0.8649  0.9940 -0.9483
  120SOPE   H3Y12738   4.441   3.244   4.776 -0.3769 -1.2303  1.9551
  120SOPE   C3412739   4.619   3.350   4.847 -0.0294 -0.2301  0.0735
  120SOPE   H4X12740   4.687   3.269   4.812 -2.2291 -1.7124 -1.0198
  120SOPE   H4Y12741   4.640   3.386   4.950  0.1247 -0.8420  0.2653
  120SOPE   C3512742   4.623   3.459   4.740 -0.0280 -0.4318 -0.3705
  120SOPE   H5X12743   4.566   3.439   4.647 -1.5462 -0.9581  0.6362
  120SOPE   H5Y12744   4.729   3.491   4.726 -0.2496  1.4650  1.6849
  120SOPE   C3612745   4.551   3.578   4.793  0.4961  0.3983 -0.3461
  120SOPE   H6X12746   4.584   3.591   4.899  0.3061 -1.4348 -0.0338
  120SOPE   H6Y12747   4.444   3.549   4.797  0.6377  0.0159  1.8078
  120SOPE   C3712748   4.569   3.702   4.704 -0.1616 -0.4495  0.2658
  120SOPE   H7X12749   4.673   3.721   4.668 -1.0555 -0.8205 -2.8164
  120SOPE   H7Y12750   4.550   3.793   4.764  3.9947 -0.2469  1.6264
  120SOPE   C3812751   4.480   3.700   4.586  0.1760 -0.7240 -0.5678
  120SOPE   H8X12752   4.378   3.672   4.621 -0.6713  0.0608 -2.2915
  120SOPE   H8Y12753   4.502   3.613   4.521 -1.5445 -0.6048 -1.3677
  120SOPE   C3912754   4.474   3.834   4.497  1.1668 -0.0387 -0.3192
  120SOPE   H9X12755   4.398   3.808   4.419 -0.3331  1.1589  0.6803
  120SOPE   H9Y12756   4.561   3.860   4.434  1.0390 -0.3407 -0.6247
  120SOPE  C31012757   4.406   3.957   4.567  0.4408 -0.7243 -0.1106
  120SOPE  H10X12758   4.491   3.991   4.630  0.8871 -2.1846  0.1149
  120SOPE  H10Y12759   4.327   3.922   4.637 -0.2604  2.6607  0.9588
  120SOPE  C31112760   4.357   4.077   4.487  0.3643 -0.2163 -0.2623
  120SOPE  H11X12761   4.425   4.093   4.401 -0.2570  1.4053 -0.4770
  120SOPE  H11Y12762   4.347   4.172   4.544  0.5237 -1.6066  2.2429
  120SOPE  C31212763   4.227   4.049   4.424  0.4157  0.2620  0.1688
  120SOPE  H12X12764   4.146   4.034   4.500  1.0462 -1.0296  0.6117
  120SOPE  H12Y12765   4.242   3.956   4.366  1.8561  1.7819 -2.0532
  120SOPE  C31312766   4.180   4.161   4.326 -0.4702 -0.3027 -1.0264
  120SOPE  H13X12767   4.126   4.109   4.243 -2.0821  1.4415 -1.1530
  120SOPE  H13Y12768   4.266   4.208   4.273  0.6904 -0.0365  0.9928
  120SOPE  C31412769   4.090   4.264   4.391 -0.0775 -0.1437 -0.4013
  120SOPE  H14X12770   4.157   4.309   4.468 -0.3852  2.5127 -1.5906
  120SOPE  H14Y12771   4.002   4.213   4.437 -0.0675  0.7185  0.6042
  120SOPE  C31512772   4.042   4.375   4.295 -0.8082  0.1414  0.1566
  120SOPE  H15X12773   4.134   4.421   4.252 -0.2647  0.3433  1.4928
  120SOPE  H15Y12774   4.000   4.466   4.342  1.1934  2.2596 -1.9177
  120SOPE  C31612775   3.952   4.318   4.185  0.1032 -0.3725 -0.3344
  120SOPE  H16X12776   3.866   4.279   4.244 -0.5792  1.2149 -0.1982
  120SOPE  H16Y12777   4.004   4.239   4.127  0.4517 -0.3391 -0.0685
  120SOPE  C31712778   3.882   4.426   4.099 -0.1353  0.6314  0.3590
  120SOPE  H17X12779   3.958   4.504   4.080 -0.9746  1.6126  0.9230
  120SOPE  H17Y12780   3.804   4.472   4.164 -0.3801  0.4158  0.2253
  120SOPE  C31812781   3.826   4.373   3.971  0.0430  0.2320 -0.5875
  120SOPE  H18X12782   3.750   4.295   3.994  1.5220 -0.6391  1.8182
  120SOPE  H18Y12783   3.903   4.311   3.921 -0.3469  0.4972 -1.5394
  120SOPE  H18Z12784   3.786   4.446   3.898 -0.4796  0.9305  0.3785
  121SOPE     N12785   2.865   3.800   5.924 -0.1145  0.1211 -0.5042
  121SOPE   HN112786   2.763   3.822   5.916 -0.5067 -0.8272  1.3140
  121SOPE   HN212787   2.919   3.882   5.959  1.3178 -1.1975  0.4861
  121SOPE   HN312788   2.908   3.771   5.834  4.3814  2.2691  0.6645
  121SOPE   C1212789   2.871   3.698   6.034  0.3034 -0.2564 -0.5877
  121SOPE  H12A12790   2.850   3.745   6.133  0.9622 -1.8366  0.3386
  121SOPE  H12B12791   2.975   3.657   6.033 -0.3383 -2.0557  1.1239
  121SOPE   C1112792   2.775   3.579   6.016  0.0832  0.3004  0.3753
  121SOPE  H11A12793   2.792   3.525   5.921 -0.9280  1.6527 -0.6143
  121SOPE  H11B12794   2.677   3.631   6.006 -1.1059 -1.5797  1.5887
  121SOPE     P12795   2.899   3.401   6.151 -0.7070 -0.0200  0.3326
  121SOPE   O1312796   2.850   3.273   6.203 -0.6844 -0.4844  0.6489
  121SOPE   O1412797   3.005   3.474   6.227  0.3530 -0.2152 -0.8782
  121SOPE   O1212798   2.778   3.490   6.130 -0.5896 -0.0491 -0.3753
  121SOPE   O1112799   2.960   3.374   6.010  0.1212 -1.0527 -0.1372
  121SOPE    C112800   2.918   3.255   5.936  0.0392 -0.0758 -0.1562
  121SOPE    HA12801   2.835   3.284   5.868 -1.2838  1.4678  1.9993
  121SOPE    HB12802   2.870   3.174   5.995 -1.1298 -0.3539 -1.4190
  121SOPE    C212803   3.029   3.171   5.872 -0.5129  0.3664  0.6450
  121SOPE    HS12804   3.109   3.163   5.948  0.0956 -1.5659 -0.1214
  121SOPE   O2112805   3.069   3.258   5.755 -0.0322  0.0443 -0.6391
  121SOPE   C2112806   3.180   3.220   5.699 -0.0592  0.1509 -0.4746
  121SOPE   O2212807   3.249   3.124   5.734 -0.0040 -0.8319 -0.1261
  121SOPE   C2212808   3.215   3.306   5.566 -0.0312  0.1413 -0.3013
  121SOPE   H2R12809   3.194   3.411   5.594  0.2998  0.3722 -0.9045
  121SOPE   H2S12810   3.146   3.260   5.493 -1.7288 -0.4048  1.5542
  121SOPE    C312811   2.971   3.033   5.826  0.7062 -0.3738  0.6941
  121SOPE    HX12812   2.923   2.968   5.901  0.7558  0.4417  1.4435
  121SOPE    HY12813   3.053   2.976   5.778  0.1634  0.3641 -1.2199
  121SOPE   O3112814   2.867   3.067   5.729 -0.6210  0.1223 -0.3121
  121SOPE   C3112815   2.816   2.960   5.658 -0.0933 -0.1740  0.2036
  121SOPE   O3212816   2.837   2.842   5.666  0.1316 -0.0886  0.5164
  121SOPE   C3212817   2.712   3.022   5.563  0.4810  0.3319  0.1968
  121SOPE   H2X12818   2.637   3.073   5.627  0.3090  0.9848 -0.5196
  121SOPE   H2Y12819   2.665   2.939   5.507 -1.0238 -0.0851  1.9806
  121SOPE   C2312820   3.355   3.279   5.509 -0.5102  0.3854  0.5448
  121SOPE   H3R12821   3.372   3.169   5.513 -2.7489  0.0057  0.7267
  121SOPE   H3S12822   3.424   3.308   5.591  0.8661 -2.7351  0.6197
  121SOPE   C2412823   3.379   3.339   5.362  0.2851  0.0946  0.5010
  121SOPE   H4R12824   3.338   3.442   5.374 -1.5014 -0.7595  2.2087
  121SOPE   H4S12825   3.486   3.349   5.336  0.1412  1.0007  0.2118
  121SOPE   C2512826   3.304   3.271   5.250  0.5242 -0.2381  0.3392
  121SOPE   H5R12827   3.336   3.166   5.233 -0.9695 -0.2266 -3.3192
  121SOPE   H5S12828   3.194   3.268   5.268  0.1029 -0.3635 -2.0060
  121SOPE   C2612829   3.320   3.351   5.122  0.3688 -0.4003  0.1013
  121SOPE   H6R12830   3.300   3.459   5.138 -1.3226 -0.4113 -1.6620
  121SOPE   H6S12831   3.426   3.344   5.089 -0.8574 -1.0005 -4.3251
  121SOPE   C2712832   3.232   3.311   5.005 -0.6417 -0.3959  0.1100
  121SOPE   H7R12833   3.245   3.202   4.986 -3.4593 -0.6842 -0.5753
  121SOPE   H7S12834   3.124   3.317   5.031 -0.7885 -0.9057 -0.3546
  121SOPE   C2812835   3.257   3.392   4.877  0.0816  0.2355 -0.3057
  121SOPE   H8R12836   3.366   3.392   4.856 -0.3591  0.1866 -2.9129
  121SOPE   H8S12837   3.214   3.339   4.790  0.4081  0.1126 -0.3960
  121SOPE   C2912838   3.209   3.534   4.890 -0.1317 -0.1257  0.3230
  121SOPE   H9112839   3.283   3.596   4.943 -2.0223  1.5903  1.1084
  121SOPE  C21012840   3.099   3.583   4.832 -0.7369 -0.6257 -0.7478
  121SOPE  H10112841   3.080   3.691   4.842  0.7992 -0.4108  0.1381
  121SOPE  C21112842   2.994   3.521   4.748 -0.2651  0.2974  0.2629
  121SOPE  H11R12843   2.898   3.570   4.774  0.6430  0.9367  2.7590
  121SOPE  H11S12844   2.981   3.411   4.760 -1.4513  0.2935 -0.8738
  121SOPE  C21212845   3.020   3.547   4.591 -0.1192 -0.4258 -0.5265
  121SOPE  H12R12846   3.032   3.655   4.567 -2.2953 -0.2991 -1.2326
  121SOPE  H12S12847   2.919   3.519   4.555 -1.3929  1.9205  0.9523
  121SOPE  C21312848   3.138   3.464   4.531 -0.3436 -0.2059  0.2620
  121SOPE  H13R12849   3.118   3.432   4.427  0.1270 -2.3365  0.7752
  121SOPE  H13S12850   3.139   3.369   4.588 -1.5411 -0.2579  0.2198
  121SOPE  C21412851   3.278   3.525   4.523 -0.4537  0.1272  0.2599
  121SOPE  H14R12852   3.350   3.443   4.503 -1.6648 -0.3689 -2.6558
  121SOPE  H14S12853   3.298   3.591   4.609  1.8625  1.6171 -1.3003
  121SOPE  C21512854   3.288   3.622   4.408 -0.2546 -0.0360  0.2534
  121SOPE  H15R12855   3.223   3.709   4.430 -1.0684 -1.3563  3.6156
  121SOPE  H15S12856   3.262   3.570   4.314  3.3307  0.5898 -1.2794
  121SOPE  C21612857   3.426   3.683   4.388 -0.2791  0.0851 -0.0937
  121SOPE  H16R12858   3.441   3.751   4.475  4.3313 -0.6304 -0.0860
  121SOPE  H16S12859   3.425   3.746   4.296  0.4526 -2.2988 -1.8279
  121SOPE  C21712860   3.546   3.584   4.386  0.9993 -0.2103 -0.0542
  121SOPE  H17R12861   3.557   3.526   4.480  2.4908 -1.2987 -0.8547
  121SOPE  H17S12862   3.641   3.641   4.378  1.9239 -1.6540  0.2236
  121SOPE  C21812863   3.542   3.468   4.284 -0.2254 -0.5333 -0.0355
  121SOPE  H18R12864   3.469   3.386   4.305  0.7342 -1.5673 -0.5968
  121SOPE  H18S12865   3.641   3.418   4.273  0.7837  0.4939  3.1861
  121SOPE  H18T12866   3.511   3.506   4.184 -1.1709  2.0869  1.1580
  121SOPE   C3312867   2.781   3.129   5.470 -0.1066 -0.1587  0.5388
  121SOPE   H3X12868   2.880   3.093   5.434 -0.9648 -0.5806 -1.5686
  121SOPE   H3Y12869   2.818   3.217   5.526  0.0195  1.2058 -1.5493
  121SOPE   C3412870   2.716   3.151   5.337 -0.5585 -0.6467  0.1305
  121SOPE   H4X12871   2.771   3.228   5.279 -0.4618 -0.6472  0.2214
  121SOPE   H4Y12872   2.612   3.190   5.343 -0.1998  0.0353  2.9052
  121SOPE   C3512873   2.712   3.022   5.245 -0.0749  0.0817  0.0148
  121SOPE   H5X12874   2.609   2.985   5.267  0.1149 -0.3819  0.1208
  121SOPE   H5Y12875   2.790   2.951   5.278  0.2703 -0.4469 -1.8426
  121SOPE   C3612876   2.728   3.047   5.095  0.0383  0.1230  0.3580
  121SOPE   H6X12877   2.637   3.078   5.040  1.6866  2.0508 -1.4215
  121SOPE   H6Y12878   2.738   2.945   5.050 -1.4082 -0.7003  1.7831
  121SOPE   C3712879   2.850   3.130   5.049  0.0756  0.2993 -0.4736
  121SOPE   H7X12880   2.939   3.089   5.101  0.8024 -0.1880 -2.0683
  121SOPE   H7Y12881   2.841   3.236   5.082  0.4866  1.1502 -2.9505
  121SOPE   C3812882   2.878   3.126   4.902 -0.2873 -0.5327 -0.2339
  121SOPE   H8X12883   2.918   3.028   4.866  0.9797 -0.0470 -0.1949
  121SOPE   H8Y12884   2.962   3.198   4.892 -1.7324  1.1695 -0.6635
  121SOPE   C3912885   2.767   3.152   4.796  0.5804  0.1803  0.3356
  121SOPE   H9X12886   2.721   3.253   4.799  0.2340  0.1806 -2.5269
  121SOPE   H9Y12887   2.687   3.076   4.810 -0.0892  0.9110  0.5751
  121SOPE  C31012888   2.810   3.120   4.652  0.0107 -0.8277 -0.3290
  121SOPE  H10X12889   2.814   3.010   4.643 -1.1990 -0.8695 -0.5253
  121SOPE  H10Y12890   2.912   3.163   4.637 -0.2950  0.4646  0.9926
  121SOPE  C31112891   2.721   3.177   4.541 -0.7932 -0.0460  0.6838
  121SOPE  H11X12892   2.701   3.285   4.559 -0.5072  0.6926 -2.7002
  121SOPE  H11Y12893   2.626   3.120   4.538 -1.1790  0.5997 -2.2581
  121SOPE  C31212894   2.796   3.163   4.406 -0.0510  0.2917 -0.4366
  121SOPE  H12X12895   2.832   3.059   4.393 -1.6841 -0.5965  1.4553
  121SOPE  H12Y12896   2.882   3.233   4.410 -0.7455  1.1775  3.0083
  121SOPE  C31312897   2.701   3.198   4.287 -0.1435 -0.2762  0.1440
  121SOPE  H13X12898   2.637   3.110   4.263 -1.3707  0.4938  0.4749
  121SOPE  H13Y12899   2.770   3.210   4.200  0.4639  0.1829  0.6789
  121SOPE  C31412900   2.611   3.321   4.305  0.2772 -0.2123  0.0497
  121SOPE  H14X12901   2.671   3.414   4.303 -1.6779  1.2183  2.1820
  121SOPE  H14Y12902   2.552   3.324   4.399  0.7118 -0.5416  0.3378
  121SOPE  C31512903   2.525   3.336   4.173  0.5946 -0.2515 -0.0064
  121SOPE  H15X12904   2.591   3.329   4.084  1.5292 -0.7737  0.6941
  121SOPE  H15Y12905   2.472   3.433   4.173 -0.9917 -1.0312  2.2931
  121SOPE  C31612906   2.418   3.232   4.163  0.3202 -0.3477  0.6346
  121SOPE  H16X12907   2.346   3.260   4.243 -0.3638  1.9341 -0.6924
  121SOPE  H16Y12908   2.456   3.132   4.193  2.1466  0.0805 -0.1295
  121SOPE  C31712909   2.348   3.240   4.031  0.1774  0.1150  0.6379
  121SOPE  H17X12910   2.319   3.344   4.003 -1.7771 -0.6159 -0.1723
  121SOPE  H17Y12911   2.259   3.175   4.030  0.1851  0.1127 -0.1851
  121SOPE  C31812912   2.437   3.176   3.913 -0.0614  0.2093  0.6328
  121SOPE  H18X12913   2.383   3.169   3.816 -0.4864 -0.1661  0.8905
  121SOPE  H18Y12914   2.456   3.073   3.949 -0.3778  0.0918  0.4583
  121SOPE  H18Z12915   2.539   3.217   3.896  0.2470 -0.2182  1.3899
  122SOPE     N12916   4.505   2.539   5.972 -0.2160  0.2424 -0.2867
  122SOPE   HN112917   4.465   2.455   6.018  0.1663  0.8177  1.1652
  122SOPE   HN212918   4.605   2.551   6.000 -0.3634 -0.6635  0.6489
  122SOPE   HN312919   4.445   2.613   6.012 -1.5027 -1.1192  0.3906
  122SOPE   C1212920   4.480   2.543   5.821  0.5321  0.1634 -0.2478
  122SOPE  H12A12921   4.375   2.513   5.800  1.1742 -2.4171 -0.1143
  122SOPE  H12B12922   4.552   2.469   5.778 -0.9664 -2.4961  1.5338
  122SOPE   C1112923   4.491   2.685   5.750  0.6884 -0.3251 -0.6211
  122SOPE  H11A12924   4.505   2.667   5.642 -2.8618 -0.7029 -1.1506
  122SOPE  H11B12925   4.576   2.748   5.784 -1.3660  0.8789  2.9325
  122SOPE     P12926   4.321   2.835   5.887  0.1566 -0.3002 -0.1204
  122SOPE   O1312927   4.364   2.975   5.871 -0.4358  0.5386  0.1911
  122SOPE   O1412928   4.366   2.769   6.004 -0.1952  0.6833 -0.1262
  122SOPE   O1212929   4.368   2.748   5.765  0.8021 -0.1784  0.8458
  122SOPE   O1112930   4.160   2.818   5.885  0.3475 -0.1509  0.3346
  122SOPE    C112931   4.093   2.724   5.805 -0.5110  0.0838  0.5643
  122SOPE    HA12932   4.006   2.675   5.855 -0.2328 -3.0880 -1.7463
  122SOPE    HB12933   4.159   2.638   5.781  0.8953  1.0864  0.7568
  122SOPE    C212934   4.049   2.802   5.671  0.5506 -0.7112 -0.7114
  122SOPE    HS12935   3.973   2.736   5.624 -0.6096 -0.8053  1.1863
  122SOPE   O2112936   4.152   2.839   5.585 -0.1664  0.3186  0.3167
  122SOPE   C2112937   4.211   2.745   5.510  0.1348  0.1535  0.1486
  122SOPE   O2212938   4.178   2.628   5.515  0.9565  0.0704 -0.6155
  122SOPE   C2212939   4.320   2.801   5.409 -0.0970 -0.1912  0.0473
  122SOPE   H2R12940   4.390   2.718   5.385 -0.3558 -0.3989  0.0032
  122SOPE   H2S12941   4.366   2.890   5.455 -1.0292  0.5389 -0.3808
  122SOPE    C312942   3.960   2.919   5.701 -0.4413 -0.3727 -0.0697
  122SOPE    HX12943   4.014   3.015   5.717  0.5670 -0.8441 -0.5649
  122SOPE    HY12944   3.921   2.914   5.805  1.5327  0.6677  0.7787
  122SOPE   O3112945   3.851   2.941   5.599  0.5495  0.3688 -0.1422
  122SOPE   C3112946   3.880   3.010   5.489  0.6829 -0.3852 -0.4130
  122SOPE   O3212947   3.989   3.059   5.469 -0.0520  0.3486  0.2235
  122SOPE   C3212948   3.760   3.014   5.397  0.3143 -0.3892 -0.4678
  122SOPE   H2X12949   3.683   3.088   5.427  0.4073 -1.2780  2.3119
  122SOPE   H2Y12950   3.712   2.914   5.401  1.6876 -1.0490  0.1894
  122SOPE   C2312951   4.258   2.854   5.280 -0.5446  0.5323 -0.6845
  122SOPE   H3R12952   4.327   2.926   5.232  1.1296 -1.0832 -0.8115
  122SOPE   H3S12953   4.168   2.918   5.295 -0.8729  0.0908 -0.7576
  122SOPE   C2412954   4.232   2.740   5.186  0.0417  0.1821  0.8552
  122SOPE   H4R12955   4.327   2.687   5.161 -0.3203 -0.3657  0.6145
  122SOPE   H4S12956   4.159   2.667   5.227  0.5626  0.0416  1.5436
  122SOPE   C2512957   4.173   2.792   5.055  0.4380  0.3368 -0.0690
  122SOPE   H5R12958   4.083   2.856   5.073  0.3576  0.8739 -2.0778
  122SOPE   H5S12959   4.252   2.849   5.001  1.1865 -0.4346  0.1856
  122SOPE   C2612960   4.126   2.688   4.952  0.1937  0.7506 -0.2667
  122SOPE   H6R12961   4.058   2.624   5.012  3.6573 -2.6737  0.3726
  122SOPE   H6S12962   4.062   2.747   4.884 -0.1048  1.4131  0.5625
  122SOPE   C2712963   4.247   2.611   4.878 -0.4325  0.3288  0.2335
  122SOPE   H7R12964   4.299   2.698   4.833  0.4286  0.9352  2.2969
  122SOPE   H7S12965   4.311   2.569   4.958 -3.2116  0.7484  2.8393
  122SOPE   C2812966   4.208   2.502   4.785 -0.1646  0.1370  0.0386
  122SOPE   H8R12967   4.297   2.437   4.774 -0.2327 -0.2182  1.4228
  122SOPE   H8S12968   4.137   2.443   4.847 -1.1161 -0.2551 -1.3830
  122SOPE   C2912969   4.164   2.541   4.647 -0.2230 -0.0964 -0.7103
  122SOPE   H9112970   4.251   2.575   4.589  0.5158 -0.2164  0.2915
  122SOPE  C21012971   4.045   2.528   4.591 -0.0826 -0.2822  0.1059
  122SOPE  H10112972   4.035   2.562   4.487  1.7481 -2.6946 -0.9692
  122SOPE  C21112973   3.925   2.482   4.665 -0.5188 -0.0098 -0.1295
  122SOPE  H11R12974   3.935   2.398   4.737  0.3275 -2.1062 -2.5566
  122SOPE  H11S12975   3.861   2.428   4.592  1.4457 -1.6296 -0.7677
  122SOPE  C21212976   3.855   2.604   4.727  0.4747  0.1965  0.2319
  122SOPE  H12R12977   3.849   2.680   4.646  0.4921 -1.0372 -0.9567
  122SOPE  H12S12978   3.908   2.659   4.808  1.9164 -1.2945  0.3546
  122SOPE  C21312979   3.716   2.569   4.774  0.5018  0.0470 -0.2910
  122SOPE  H13R12980   3.669   2.503   4.698  0.0918  0.2313 -0.2039
  122SOPE  H13S12981   3.648   2.657   4.782 -0.3380 -0.4832 -1.2765
  122SOPE  C21412982   3.699   2.496   4.909 -0.4697 -0.2332  0.5880
  122SOPE  H14R12983   3.761   2.403   4.911  0.1065  0.0976 -0.5994
  122SOPE  H14S12984   3.594   2.471   4.933 -1.4242  1.4534 -1.5032
  122SOPE  C21512985   3.750   2.574   5.023  0.4038 -0.7862  0.5096
  122SOPE  H15R12986   3.689   2.667   5.027 -1.3143 -1.7103 -2.1439
  122SOPE  H15S12987   3.857   2.601   5.011  0.8255 -3.2366 -2.0712
  122SOPE  C21612988   3.729   2.508   5.158 -0.2259  0.3536 -0.1530
  122SOPE  H16R12989   3.799   2.422   5.167 -0.5550  0.1293  0.2981
  122SOPE  H16S12990   3.621   2.483   5.167 -0.0070 -0.2131  1.1428
  122SOPE  C21712991   3.757   2.610   5.277  0.4248 -0.1621 -0.0934
  122SOPE  H17R12992   3.667   2.674   5.292  0.6720  0.2661 -0.4360
  122SOPE  H17S12993   3.845   2.673   5.257  0.7882 -0.5002  0.4342
  122SOPE  C21812994   3.774   2.541   5.409  0.4515  0.4551 -0.3408
  122SOPE  H18R12995   3.872   2.489   5.414 -0.3078 -0.9476  0.9291
  122SOPE  H18S12996   3.692   2.471   5.431 -0.1521  1.2315 -0.0764
  122SOPE  H18T12997   3.769   2.615   5.492 -0.4067 -0.8942  0.8472
  122SOPE   C3312998   3.797   3.053   5.251 -0.0443  0.3141  1.2490
  122SOPE   H3X12999   3.890   3.006   5.212  1.5324  3.4559  0.8438
  122SOPE   H3Y13000   3.829   3.160   5.257  2.2213 -0.1865 -0.4863
  122SOPE   C3413001   3.687   3.037   5.149 -0.3720  0.0589  0.4063
  122SOPE   H4X13002   3.607   3.111   5.168 -1.1970 -0.3547 -1.2567
  122SOPE   H4Y13003   3.643   2.936   5.145  2.5025 -1.2647 -2.1453
  122SOPE   C3513004   3.734   3.070   5.008 -0.2249  0.0494 -0.4712
  122SOPE   H5X13005   3.799   2.986   4.977  1.2427 -0.1464  2.8109
  122SOPE   H5Y13006   3.789   3.166   4.998 -1.1082  0.4996 -1.2310
  122SOPE   C3613007   3.613   3.076   4.914 -0.5831 -0.0592 -0.2142
  122SOPE   H6X13008   3.535   3.149   4.942 -2.8319 -2.8525  1.2783
  122SOPE   H6Y13009   3.558   2.980   4.919 -0.7863 -0.3536 -4.4337
  122SOPE   C3713010   3.662   3.096   4.767  0.4643 -0.7467 -0.1356
  122SOPE   H7X13011   3.573   3.081   4.702 -0.7711  0.5039  1.1855
  122SOPE   H7Y13012   3.734   3.015   4.744  1.2136 -0.0208 -0.4056
  122SOPE   C3813013   3.724   3.230   4.743  0.4043 -0.0549 -0.6845
  122SOPE   H8X13014   3.767   3.238   4.640  2.5586  0.6961  0.2003
  122SOPE   H8Y13015   3.805   3.245   4.818 -0.9741  0.4501  0.7439
  122SOPE   C3913016   3.625   3.355   4.745  0.4398  0.1728  0.3602
  122SOPE   H9X13017   3.566   3.338   4.837 -0.7770 -0.7314 -0.5540
  122SOPE   H9Y13018   3.551   3.347   4.663 -0.6052  1.3772  1.1475
  122SOPE  C31013019   3.691   3.489   4.763  0.5763  0.3058  0.2018
  122SOPE  H10X13020   3.767   3.513   4.686  1.7284 -1.2323  0.8223
  122SOPE  H10Y13021   3.741   3.490   4.862  1.1854 -0.6337 -0.0886
  122SOPE  C31113022   3.593   3.617   4.773  0.0134 -0.1167 -0.0381
  122SOPE  H11X13023   3.497   3.583   4.817  0.5725  1.0852  2.2529
  122SOPE  H11Y13024   3.557   3.639   4.670 -0.2625 -0.6947 -0.0703
  122SOPE  C31213025   3.650   3.747   4.836 -0.1681 -0.0647  0.4189
  122SOPE  H12X13026   3.690   3.732   4.938  0.0973  0.8830  0.4594
  122SOPE  H12Y13027   3.567   3.821   4.841  0.3188  0.4580  0.8952
  122SOPE  C31313028   3.770   3.801   4.753  1.1600 -0.7518 -0.6834
  122SOPE  H13X13029   3.854   3.728   4.751  1.2240 -0.7010 -0.1315
  122SOPE  H13Y13030   3.808   3.885   4.816 -0.8771  0.2276 -0.6918
  122SOPE  C31413031   3.730   3.847   4.613  0.0814  0.4850 -0.4618
  122SOPE  H14X13032   3.637   3.907   4.622 -1.0174 -1.3153  0.8229
  122SOPE  H14Y13033   3.705   3.760   4.550  1.2619  0.7762 -1.3572
  122SOPE  C31513034   3.834   3.924   4.543 -0.7285  0.3100  0.1108
  122SOPE  H15X13035   3.932   3.878   4.570  0.6444  1.8791 -1.8093
  122SOPE  H15Y13036   3.823   4.031   4.570 -1.9296  0.1809  0.1854
  122SOPE  C31613037   3.830   3.929   4.386  0.0454  0.1729 -0.2584
  122SOPE  H16X13038   3.846   3.824   4.356  2.1162  0.9531 -2.2465
  122SOPE  H16Y13039   3.919   3.980   4.342 -1.2583  2.4547 -0.4400
  122SOPE  C31713040   3.705   3.969   4.318  0.6867 -0.1065 -0.5483
  122SOPE  H17X13041   3.730   4.076   4.304  2.0087 -0.3175  0.0384
  122SOPE  H17Y13042   3.624   3.971   4.394  2.3854  2.1561  1.3841
  122SOPE  C31813043   3.674   3.910   4.180  0.4609 -0.2443 -0.3730
  122SOPE  H18X13044   3.661   3.800   4.194 -0.6751  0.0975  1.5434
  122SOPE  H18Y13045   3.764   3.916   4.114  0.6626  0.4228 -0.0410
  122SOPE  H18Z13046   3.584   3.961   4.139  0.9112  1.2327  0.4191
  123SOPE     N13047   5.392   0.732   1.721  0.4315 -0.5133 -0.0459
  123SOPE   HN113048   5.433   0.641   1.692  0.1750 -0.9840  1.0277
  123SOPE   HN213049   5.460   0.812   1.716  0.1270 -0.2456  0.0587
  123SOPE   HN313050   5.348   0.725   1.814 -1.4529  0.8505 -0.7809
  123SOPE   C1213051   5.299   0.770   1.609  0.3037 -0.1781  0.0897
  123SOPE  H12A13052   5.224   0.691   1.584 -0.3284  0.9257 -1.6051
  123SOPE  H12B13053   5.361   0.788   1.519  1.2501 -1.8636  0.3623
  123SOPE   C1113054   5.224   0.901   1.646 -0.3871 -0.1053  0.2830
  123SOPE  H11A13055   5.163   0.937   1.560 -1.1126  2.5431  1.7894
  123SOPE  H11B13056   5.301   0.981   1.656  0.6483 -1.2787  2.5603
  123SOPE     P13057   5.026   0.998   1.804  0.3600 -0.2737 -0.2139
  123SOPE   O1313058   4.913   0.916   1.859 -0.1737  0.3198  0.2827
  123SOPE   O1413059   4.981   1.089   1.697 -0.0203  0.3448 -0.3248
  123SOPE   O1213060   5.148   0.898   1.767  0.3375  0.4726 -0.0650
  123SOPE   O1113061   5.086   1.081   1.921 -0.3674  0.3693 -0.3725
  123SOPE    C113062   5.197   1.168   1.915 -0.3044  0.3960 -0.0402
  123SOPE    HA13063   5.171   1.272   1.942 -2.0225  0.6296 -2.3035
  123SOPE    HB13064   5.243   1.178   1.814 -0.9312 -0.7891 -0.4629
  123SOPE    C213065   5.294   1.127   2.024  0.0728 -0.0529 -0.4047
  123SOPE    HS13066   5.341   1.029   1.999  2.1594  0.4680  1.1256
  123SOPE   O2113067   5.222   1.128   2.155 -0.3446  0.2798 -0.0290
  123SOPE   C2113068   5.246   1.022   2.225 -0.4708  0.2372  0.2260
  123SOPE   O2213069   5.320   0.926   2.193  0.4301 -0.1846 -0.6654
  123SOPE   C2213070   5.186   1.039   2.364 -0.0207 -0.2949  0.0011
  123SOPE   H2R13071   5.085   0.992   2.360  0.2132 -1.3755  3.3884
  123SOPE   H2S13072   5.176   1.147   2.386 -0.9874 -0.3134 -0.2927
  123SOPE    C313073   5.415   1.223   2.028  0.3221  0.2929  0.2100
  123SOPE    HX13074   5.372   1.325   2.025  1.7962  0.9524  0.3278
  123SOPE    HY13075   5.461   1.201   1.929 -0.4957 -0.3782 -0.0313
  123SOPE   O3113076   5.502   1.209   2.135 -0.1932  0.1767 -0.5716
  123SOPE   C3113077   5.574   1.095   2.122 -0.6134  0.5859 -0.3555
  123SOPE   O3213078   5.594   1.029   2.024 -0.5019 -0.4234 -0.3729
  123SOPE   C3213079   5.652   1.070   2.248  0.1022  0.2189 -0.8586
  123SOPE   H2X13080   5.619   1.144   2.324 -1.0147  0.9242 -1.9825
  123SOPE   H2Y13081   5.762   1.077   2.234  0.3994 -0.6375  0.7453
  123SOPE   C2313082   5.270   0.980   2.477 -0.3347 -0.1586 -0.3717
  123SOPE   H3R13083   5.348   1.057   2.498 -1.3176  0.2942  1.8515
  123SOPE   H3S13084   5.316   0.882   2.452 -0.2814 -0.1406 -0.3462
  123SOPE   C2413085   5.185   0.975   2.608  0.2606 -0.0148  0.8886
  123SOPE   H4R13086   5.161   1.081   2.629  4.6750  1.4995 -0.5873
  123SOPE   H4S13087   5.086   0.928   2.588  0.6757 -0.0755 -1.2954
  123SOPE   C2513088   5.237   0.899   2.720  0.9147  0.2685  0.3263
  123SOPE   H5R13089   5.217   0.791   2.702  1.2436  0.2722 -0.0510
  123SOPE   H5S13090   5.346   0.920   2.729  0.6701  2.0840 -0.4154
  123SOPE   C2613091   5.175   0.924   2.859 -0.0739  0.8068 -0.0734
  123SOPE   H6R13092   5.064   0.916   2.852  0.0021  0.6861 -1.3328
  123SOPE   H6S13093   5.204   0.839   2.924  0.9500 -1.3547 -3.0871
  123SOPE   C2713094   5.209   1.060   2.911 -0.3838 -0.2411 -0.2396
  123SOPE   H7R13095   5.312   1.080   2.875 -0.9071 -2.0474 -3.0010
  123SOPE   H7S13096   5.143   1.142   2.875  0.4189  0.5304  0.0002
  123SOPE   C2813097   5.199   1.058   3.071  0.2559  0.3828 -0.1197
  123SOPE   H8R13098   5.204   1.162   3.111  4.0707  0.3765 -0.2080
  123SOPE   H8S13099   5.107   1.007   3.107 -1.8656  2.6479 -1.9458
  123SOPE   C2913100   5.318   0.979   3.120  0.4149 -0.2725  0.2956
  123SOPE   H9113101   5.398   0.967   3.046 -0.8882  0.8910 -1.3829
  123SOPE  C21013102   5.317   0.903   3.236 -0.3230 -0.1775  0.0137
  123SOPE  H10113103   5.408   0.847   3.259  0.4784  0.6410 -1.0752
  123SOPE  C21113104   5.208   0.896   3.336  0.1783  0.4663 -0.7196
  123SOPE  H11R13105   5.113   0.951   3.316  0.9064  1.4911 -1.4428
  123SOPE  H11S13106   5.258   0.943   3.423 -0.9129 -0.0220  0.1976
  123SOPE  C21213107   5.171   0.749   3.355 -0.3162 -0.8754 -0.0455
  123SOPE  H12R13108   5.146   0.692   3.263 -0.0059  0.2025 -0.8240
  123SOPE  H12S13109   5.080   0.756   3.417  0.1993  0.8764  0.5825
  123SOPE  C21313110   5.266   0.658   3.431  0.2960  0.0191 -0.1655
  123SOPE  H13R13111   5.367   0.651   3.386  0.4943  1.6049 -0.0095
  123SOPE  H13S13112   5.228   0.554   3.419  0.0690 -0.1123  1.4861
  123SOPE  C21413113   5.277   0.692   3.575 -0.1605 -0.0257 -0.7304
  123SOPE  H14R13114   5.179   0.719   3.619  0.7830  0.6242  1.0482
  123SOPE  H14S13115   5.334   0.787   3.581 -3.0573  1.8941 -1.3374
  123SOPE  C21513116   5.344   0.580   3.658  0.0621  0.0168 -0.3517
  123SOPE  H15R13117   5.446   0.569   3.615  0.0552 -2.2459  0.0609
  123SOPE  H15S13118   5.291   0.483   3.650  2.7920 -1.8454  1.8298
  123SOPE  C21613119   5.361   0.612   3.809  0.7434 -0.5116  0.0188
  123SOPE  H16R13120   5.260   0.598   3.855 -0.6570 -4.7582 -3.5779
  123SOPE  H16S13121   5.406   0.711   3.829  2.0242 -0.9010 -0.8541
  123SOPE  C21713122   5.465   0.510   3.866  0.7040 -0.0324  0.8721
  123SOPE  H17R13123   5.553   0.506   3.799  0.3516 -0.1264  0.4079
  123SOPE  H17S13124   5.420   0.408   3.867 -0.9196  0.6313 -0.0701
  123SOPE  C21813125   5.500   0.522   4.013 -0.2183  0.3053 -0.0915
  123SOPE  H18R13126   5.417   0.518   4.086 -0.5816  0.1146 -0.5130
  123SOPE  H18S13127   5.541   0.625   4.025  0.7278 -0.1310  0.4941
  123SOPE  H18T13128   5.582   0.449   4.031 -0.7434 -0.5032 -0.9284
  123SOPE   C3313129   5.631   0.933   2.303  0.2507  0.3745 -1.0467
  123SOPE   H3X13130   5.660   0.853   2.232 -0.1863 -2.2304  1.4932
  123SOPE   H3Y13131   5.532   0.908   2.346 -0.5558 -1.1626 -3.5756
  123SOPE   C3413132   5.728   0.897   2.423  0.1484 -0.5222  0.0885
  123SOPE   H4X13133   5.830   0.940   2.406  0.1933 -0.8901 -0.6451
  123SOPE   H4Y13134   5.741   0.787   2.421  2.0427 -0.3876  1.8554
  123SOPE   C3513135   5.696   0.952   2.560 -0.3293  0.1728  0.1012
  123SOPE   H5X13136   5.590   0.985   2.573 -1.1614 -2.3208  0.2967
  123SOPE   H5Y13137   5.757   1.042   2.581 -0.7048  0.2722  0.7817
  123SOPE   C3613138   5.730   0.854   2.679  0.2940 -0.1934  0.1612
  123SOPE   H6X13139   5.836   0.822   2.663 -0.2471 -1.4605 -1.0575
  123SOPE   H6Y13140   5.685   0.756   2.650 -2.1411  1.0941 -0.6797
  123SOPE   C3713141   5.694   0.899   2.818 -1.3975  0.2881 -0.1816
  123SOPE   H7X13142   5.588   0.929   2.810 -0.6433  3.3240  0.1621
  123SOPE   H7Y13143   5.742   0.997   2.838 -1.0878  0.3320 -1.1022
  123SOPE   C3813144   5.716   0.789   2.927 -0.5624  1.1905 -0.6743
  123SOPE   H8X13145   5.816   0.742   2.923 -0.3726  1.3480  1.3119
  123SOPE   H8Y13146   5.646   0.706   2.907  0.9396 -0.2181 -0.2379
  123SOPE   C3913147   5.710   0.843   3.072  0.1783 -0.4153 -0.1959
  123SOPE   H9X13148   5.610   0.891   3.082  1.5350  2.3182  1.6835
  123SOPE   H9Y13149   5.795   0.913   3.090 -0.3331 -0.1159  1.1618
  123SOPE  C31013150   5.721   0.730   3.173  0.4734 -0.0962 -0.0195
  123SOPE  H10X13151   5.803   0.660   3.146 -0.6654 -1.2049 -0.7058
  123SOPE  H10Y13152   5.629   0.668   3.167  0.6015 -0.2937  0.0096
  123SOPE  C31113153   5.730   0.782   3.321  0.2399  0.6501 -0.0021
  123SOPE  H11X13154   5.648   0.855   3.340 -0.7782  0.9987 -4.5465
  123SOPE  H11Y13155   5.828   0.830   3.341 -0.2893  1.8093 -0.1465
  123SOPE  C31213156   5.718   0.668   3.429  0.3581 -0.2059  0.7939
  123SOPE  H12X13157   5.795   0.590   3.411  0.2255 -0.1979  0.1612
  123SOPE  H12Y13158   5.628   0.602   3.426  0.5228 -0.3882 -0.6448
  123SOPE  C31313159   5.724   0.713   3.576  1.0775  0.1075 -0.1308
  123SOPE  H13X13160   5.709   0.629   3.647  3.1882 -0.4801 -0.3056
  123SOPE  H13Y13161   5.642   0.788   3.584  0.1337 -1.1120  4.1797
  123SOPE  C31413162   5.854   0.784   3.619 -0.4644 -0.2663  0.1757
  123SOPE  H14X13163   5.873   0.870   3.551  2.4930 -0.3361  0.7847
  123SOPE  H14Y13164   5.947   0.728   3.599  0.7417  1.4011  0.8854
  123SOPE  C31513165   5.839   0.828   3.762 -0.0188  0.5940  0.8064
  123SOPE  H15X13166   5.752   0.897   3.761 -3.4493 -3.2884 -0.1538
  123SOPE  H15Y13167   5.935   0.876   3.789  0.2456 -1.0524  3.1761
  123SOPE  C31613168   5.824   0.719   3.872  0.6356 -0.6994  0.3354
  123SOPE  H16X13169   5.729   0.662   3.865  0.0058  0.2021  1.1889
  123SOPE  H16Y13170   5.807   0.760   3.974 -0.9801 -0.0002 -0.1682
  123SOPE  C31713171   5.942   0.619   3.876  0.5354 -0.7942 -0.8051
  123SOPE  H17X13172   6.041   0.669   3.885  0.6794 -1.3943  1.7406
  123SOPE  H17Y13173   5.939   0.561   3.781  1.1936 -0.8352 -0.8068
  123SOPE  C31813174   5.927   0.535   3.997  0.2333  0.5919 -0.5977
  123SOPE  H18X13175   6.000   0.451   3.990 -0.2433 -0.2071  2.5757
  123SOPE  H18Y13176   5.825   0.492   3.996  0.2638  0.5180 -0.6264
  123SOPE  H18Z13177   5.928   0.579   4.099 -2.4187  0.1676 -0.3161
  124SOPE     N13178   2.452   0.150   1.765  0.5542 -0.3217  0.0092
  124SOPE   HN113179   2.544   0.126   1.807 -0.2867 -0.6001  1.7838
  124SOPE   HN213180   2.454   0.229   1.697 -0.9071 -0.2928 -0.0304
  124SOPE   HN313181   2.383   0.183   1.835  0.7673 -1.0359  0.5693
  124SOPE   C1213182   2.410   0.022   1.687 -0.0402  0.0841  0.0269
  124SOPE  H12A13183   2.404   0.031   1.577  1.2132 -2.4165 -0.3306
  124SOPE  H12B13184   2.307  -0.006   1.719 -0.1550 -0.5157 -0.8372
  124SOPE   C1113185   2.505  -0.090   1.721  0.0774 -0.1983 -0.2546
  124SOPE  H11A13186   2.454  -0.180   1.682  1.1016 -1.0082  0.2257
  124SOPE  H11B13187   2.509  -0.089   1.832  1.7414 -0.3867 -0.2776
  124SOPE     P13188   2.740  -0.178   1.693  0.4058  0.1578 -0.2747
  124SOPE   O1313189   2.873  -0.118   1.680 -0.2435  0.6006 -0.0694
  124SOPE   O1413190   2.718  -0.299   1.613  0.1613 -0.0731  0.8650
  124SOPE   O1213191   2.631  -0.069   1.659 -0.0778  0.0220 -0.2624
  124SOPE   O1113192   2.719  -0.215   1.845  0.1099 -0.2253 -1.1207
  124SOPE    C113193   2.823  -0.271   1.930 -0.0591  0.0957 -0.2281
  124SOPE    HA13194   2.904  -0.201   1.963 -0.0578  0.9088 -1.8708
  124SOPE    HB13195   2.890  -0.339   1.874 -0.1476 -0.3385  0.1884
  124SOPE    C213196   2.767  -0.342   2.053 -0.1612  0.4774  1.0736
  124SOPE    HS13197   2.859  -0.360   2.112  0.0554  2.2915  1.3395
  124SOPE   O2113198   2.692  -0.455   2.005 -0.1341  0.5067  0.2450
  124SOPE   C2113199   2.718  -0.567   2.069  0.0329  0.6532 -0.8695
  124SOPE   O2213200   2.798  -0.572   2.158 -1.0478  0.2246 -0.5587
  124SOPE   C2213201   2.645  -0.685   2.001  0.5895 -0.2150  0.0105
  124SOPE   H2R13202   2.725  -0.714   1.930 -1.5103 -1.0709 -2.1389
  124SOPE   H2S13203   2.560  -0.645   1.941  1.1151  1.9777  0.6349
  124SOPE    C313204   2.670  -0.253   2.129  0.8648  0.1340  0.4228
  124SOPE    HX13205   2.575  -0.259   2.072  0.0757 -2.0788  1.8011
  124SOPE    HY13206   2.712  -0.151   2.133 -0.3292  0.6149  1.4274
  124SOPE   O3113207   2.643  -0.317   2.265 -0.4415  0.2240 -0.4868
  124SOPE   C3113208   2.742  -0.310   2.353 -0.5509 -0.1787 -0.2160
  124SOPE   O3213209   2.850  -0.257   2.337 -0.1840 -0.1346  0.6965
  124SOPE   C3213210   2.714  -0.405   2.465  0.8190 -0.3470  0.2265
  124SOPE   H2X13211   2.755  -0.503   2.431  2.7554  0.5554 -0.1772
  124SOPE   H2Y13212   2.605  -0.427   2.469  1.1648 -2.1849  0.1860
  124SOPE   C2313213   2.620  -0.808   2.089  0.1350 -0.4742 -0.1646
  124SOPE   H3R13214   2.710  -0.830   2.151  0.9933  0.2543 -1.1188
  124SOPE   H3S13215   2.618  -0.897   2.022  0.1677 -1.7593  1.4811
  124SOPE   C2413216   2.481  -0.798   2.155  0.1542  0.3084 -0.0684
  124SOPE   H4R13217   2.403  -0.780   2.078 -0.0467  4.4614  0.8316
  124SOPE   H4S13218   2.461  -0.895   2.203  0.0359  1.2518  1.9012
  124SOPE   C2513219   2.474  -0.688   2.262  0.0239 -0.4479  0.0504
  124SOPE   H5R13220   2.568  -0.694   2.321 -0.8626 -0.2448  1.5339
  124SOPE   H5S13221   2.477  -0.581   2.233 -1.0241  0.7516  3.8100
  124SOPE   C2613222   2.357  -0.695   2.356  0.2454  0.2898  0.4824
  124SOPE   H6R13223   2.269  -0.685   2.289  1.2213 -0.3841 -0.9615
  124SOPE   H6S13224   2.361  -0.799   2.394 -0.7043 -1.2996 -3.2689
  124SOPE   C2713225   2.374  -0.593   2.461  0.0802  0.1564  0.0106
  124SOPE   H7R13226   2.460  -0.619   2.526 -0.3680 -0.4536  0.3653
  124SOPE   H7S13227   2.383  -0.487   2.429 -2.1819  0.9659  1.7687
  124SOPE   C2813228   2.241  -0.590   2.540  0.6469  0.2604 -0.7391
  124SOPE   H8R13229   2.237  -0.491   2.590  0.8676 -0.4060  0.6768
  124SOPE   H8S13230   2.156  -0.601   2.470 -1.0010  1.5266  0.9645
  124SOPE   C2913231   2.233  -0.708   2.636  0.1222 -0.2562 -0.2801
  124SOPE   H9113232   2.253  -0.806   2.590  2.1255  1.0571 -2.4372
  124SOPE  C21013233   2.193  -0.695   2.764 -0.2440 -0.0927 -0.3091
  124SOPE  H10113234   2.181  -0.785   2.827 -0.8232 -0.2925 -0.6985
  124SOPE  C21113235   2.183  -0.564   2.840  0.0026 -0.2439  0.1989
  124SOPE  H11R13236   2.113  -0.486   2.802 -1.1205  0.0155  2.6116
  124SOPE  H11S13237   2.284  -0.517   2.833  0.0250 -0.1640  0.9300
  124SOPE  C21213238   2.174  -0.592   2.993  0.6782  0.0286  0.0137
  124SOPE  H12R13239   2.240  -0.674   3.030  0.7282  0.7632  1.6098
  124SOPE  H12S13240   2.070  -0.622   3.022  1.3057 -0.3024  2.0790
  124SOPE  C21313241   2.205  -0.466   3.090 -0.5167  0.8064 -0.1570
  124SOPE  H13R13242   2.154  -0.383   3.037  1.9893  2.4318 -0.1877
  124SOPE  H13S13243   2.311  -0.444   3.113 -0.0753 -1.7522  0.4834
  124SOPE  C21413244   2.140  -0.473   3.228 -0.0429 -0.6646  0.0085
  124SOPE  H14R13245   2.047  -0.532   3.219 -0.9179 -0.0421  3.5215
  124SOPE  H14S13246   2.114  -0.368   3.255 -0.7597 -0.3326 -1.7798
  124SOPE  C21513247   2.239  -0.539   3.326 -1.0796 -1.0436  0.2487
  124SOPE  H15R13248   2.335  -0.483   3.327 -0.3075 -2.1922 -2.0795
  124SOPE  H15S13249   2.255  -0.644   3.294 -2.2708 -1.6201  1.4366
  124SOPE  C21613250   2.175  -0.540   3.467 -0.1190 -0.0956  0.1056
  124SOPE  H16R13251   2.071  -0.580   3.458  0.9643 -2.9034 -1.0931
  124SOPE  H16S13252   2.162  -0.435   3.500  1.5161  0.1917 -0.0714
  124SOPE  C21713253   2.246  -0.629   3.568  0.0308  0.4802  0.3358
  124SOPE  H17R13254   2.355  -0.611   3.555  0.1487 -0.8498 -0.7855
  124SOPE  H17S13255   2.227  -0.734   3.535 -1.4552  0.8522 -0.0586
  124SOPE  C21813256   2.212  -0.617   3.715 -0.5303  0.4087  0.2849
  124SOPE  H18R13257   2.283  -0.675   3.777 -0.2114 -0.8956 -1.2229
  124SOPE  H18S13258   2.109  -0.657   3.726  0.4663 -2.3593  0.1644
  124SOPE  H18T13259   2.227  -0.512   3.747  1.7373  1.9486 -4.7037
  124SOPE   C3313260   2.769  -0.365   2.597  0.2423 -0.3655 -0.3050
  124SOPE   H3X13261   2.868  -0.325   2.569 -0.2263 -0.0958 -1.6585
  124SOPE   H3Y13262   2.796  -0.451   2.662  0.4617 -0.0527  0.0191
  124SOPE   C3413263   2.684  -0.266   2.673 -0.7511 -0.3183 -0.2268
  124SOPE   H4X13264   2.582  -0.309   2.684 -1.2297  0.6615 -0.7219
  124SOPE   H4Y13265   2.670  -0.186   2.597  0.1052 -0.6561 -0.7577
  124SOPE   C3513266   2.754  -0.220   2.799  0.0904  0.4071 -0.2586
  124SOPE   H5X13267   2.690  -0.143   2.849 -1.3489 -0.8137 -0.1207
  124SOPE   H5Y13268   2.859  -0.189   2.784  0.6708  0.1823  2.6371
  124SOPE   C3613269   2.754  -0.342   2.895 -0.6517  0.1127 -0.0742
  124SOPE   H6X13270   2.857  -0.355   2.934 -0.2162 -0.5534 -1.3828
  124SOPE   H6Y13271   2.724  -0.438   2.848  1.9759 -0.1289 -1.4603
  124SOPE   C3713272   2.680  -0.310   3.025 -0.6470  0.2504 -0.6215
  124SOPE   H7X13273   2.570  -0.323   3.011 -0.9231  0.3081  1.2483
  124SOPE   H7Y13274   2.696  -0.202   3.048 -1.0248  0.1150  0.3351
  124SOPE   C3813275   2.710  -0.406   3.144  0.2978 -1.0949 -0.1406
  124SOPE   H8X13276   2.819  -0.417   3.162  0.2540  0.0043  0.9266
  124SOPE   H8Y13277   2.663  -0.502   3.112 -1.0758  0.4862 -3.3021
  124SOPE   C3913278   2.634  -0.362   3.272  0.1575 -0.5263 -0.3591
  124SOPE   H9X13279   2.526  -0.388   3.267 -0.7092  1.9617  2.4920
  124SOPE   H9Y13280   2.634  -0.252   3.291  0.5748 -0.5692 -0.1125
  124SOPE  C31013281   2.688  -0.427   3.397  0.6329  0.2296 -0.7715
  124SOPE  H10X13282   2.778  -0.371   3.430 -0.2043  0.0235  2.1665
  124SOPE  H10Y13283   2.720  -0.530   3.369  1.8083 -0.1688  1.7494
  124SOPE  C31113284   2.588  -0.440   3.518 -0.0825 -0.1317  0.8112
  124SOPE  H11X13285   2.613  -0.534   3.571  0.5552 -1.9221 -2.4082
  124SOPE  H11Y13286   2.483  -0.447   3.483  0.5006  0.5991 -1.2238
  124SOPE  C31213287   2.618  -0.323   3.615  0.2070  0.1161 -0.2912
  124SOPE  H12X13288   2.610  -0.219   3.577 -0.8162  1.0307  2.1881
  124SOPE  H12Y13289   2.721  -0.334   3.655  1.3595  1.1717 -2.8211
  124SOPE  C31313290   2.511  -0.330   3.727  0.2144  0.2425 -0.6601
  124SOPE  H13X13291   2.522  -0.428   3.777 -0.4719  0.7532  0.5271
  124SOPE  H13Y13292   2.409  -0.343   3.686  0.0456 -0.0960 -0.1422
  124SOPE  C31413293   2.511  -0.218   3.834  0.4742  0.1809 -0.1093
  124SOPE  H14X13294   2.481  -0.132   3.769 -0.0677  1.1770  1.4094
  124SOPE  H14Y13295   2.614  -0.202   3.873 -0.0847  1.0406  1.0840
  124SOPE  C31513296   2.414  -0.237   3.956  0.2260  0.3030  0.4503
  124SOPE  H15X13297   2.321  -0.291   3.928  0.9924  0.6727 -3.2440
  124SOPE  H15Y13298   2.384  -0.135   3.989 -1.3253 -0.8948  3.0714
  124SOPE  C31613299   2.479  -0.290   4.085 -0.6883 -0.9256 -0.6041
  124SOPE  H16X13300   2.411  -0.291   4.172 -2.1148  2.9456 -1.4954
  124SOPE  H16Y13301   2.553  -0.212   4.110 -1.2314 -0.7157  0.3707
  124SOPE  C31713302   2.546  -0.426   4.077  0.2709  0.4029 -0.3014
  124SOPE  H17X13303   2.604  -0.435   3.984  0.1681  0.0381 -0.3309
  124SOPE  H17Y13304   2.473  -0.510   4.083 -0.1886  0.8629  1.0388
  124SOPE  C31813305   2.647  -0.446   4.191 -0.5290  0.7725 -0.4060
  124SOPE  H18X13306   2.729  -0.370   4.197 -0.2605  0.4449  0.1583
  124SOPE  H18Y13307   2.688  -0.549   4.187 -1.4395  0.3334  0.9720
  124SOPE  H18Z13308   2.590  -0.436   4.286 -0.8756  0.4501 -0.5803
  125SOPE     N13309   2.687   4.995   1.543  0.6870  0.0304  0.0220
  125SOPE   HN113310   2.719   4.897   1.524  2.6972  0.9160 -1.5312
  125SOPE   HN213311   2.611   4.995   1.614  0.6694 -0.3443  0.0046
  125SOPE   HN313312   2.640   5.026   1.455 -0.9304 -0.9766  0.4881
  125SOPE   C1213313   2.795   5.077   1.598  0.1695 -0.5201  0.1098
  125SOPE  H12A13314   2.789   5.077   1.709  2.8287 -0.8161  0.3330
  125SOPE  H12B13315   2.784   5.183   1.565 -0.5699 -0.8195 -0.6256
  125SOPE   C1113316   2.928   5.024   1.550  0.0880 -0.4992 -0.1849
  125SOPE  H11A13317   3.008   5.070   1.612 -0.1264 -0.9322  0.4205
  125SOPE  H11B13318   2.954   5.059   1.448  1.0071 -0.1832  0.1478
  125SOPE     P13319   3.073   4.804   1.516  0.8832 -0.0729  0.5109
  125SOPE   O1313320   3.142   4.888   1.417  0.3212 -0.1504 -0.3205
  125SOPE   O1413321   3.048   4.667   1.464  0.0468 -0.1797  0.0129
  125SOPE   O1213322   2.937   4.880   1.553 -0.3583 -0.3514 -0.9708
  125SOPE   O1113323   3.155   4.793   1.649  0.0061  0.1053  0.1362
  125SOPE    C113324   3.079   4.760   1.772  0.1331 -0.2373 -0.1076
  125SOPE    HA13325   3.070   4.651   1.792  1.4471 -0.6769 -1.6733
  125SOPE    HB13326   2.971   4.786   1.774  0.2464  0.2242  1.6076
  125SOPE    C213327   3.151   4.821   1.900 -0.0120  0.0100 -0.1032
  125SOPE    HS13328   3.154   4.930   1.879 -0.7719  0.3331  1.3442
  125SOPE   O2113329   3.288   4.772   1.891  0.2149 -0.5538 -0.2713
  125SOPE   C2113330   3.378   4.845   1.943  0.6123  0.3597  0.7777
  125SOPE   O2213331   3.361   4.961   1.988  0.5079  0.1602  0.5079
  125SOPE   C2213332   3.507   4.769   1.956 -0.2623 -0.2035 -0.5683
  125SOPE   H2R13333   3.579   4.848   1.986 -0.8496  1.1389 -2.5187
  125SOPE   H2S13334   3.533   4.734   1.854 -1.3886  1.2780 -1.3994
  125SOPE    C313335   3.083   4.788   2.036 -0.4925  0.0875 -0.4495
  125SOPE    HX13336   3.080   4.677   2.042  0.2447  0.0060 -1.4000
  125SOPE    HY13337   2.977   4.818   2.022 -0.8523 -1.5255 -1.4807
  125SOPE   O3113338   3.152   4.834   2.154  0.3520  0.0442  0.4562
  125SOPE   C3113339   3.132   4.963   2.188 -0.3682  0.1132  0.3124
  125SOPE   O3213340   3.055   5.036   2.119 -0.2653 -0.2949 -0.6246
  125SOPE   C3213341   3.228   4.992   2.302  0.6796 -0.0723  0.2078
  125SOPE   H2X13342   3.231   5.103   2.310  0.9763 -0.0673  0.0511
  125SOPE   H2Y13343   3.333   4.963   2.280  0.0959 -2.5723  0.4552
  125SOPE   C2313344   3.518   4.648   2.053  0.3095  0.6035  0.1646
  125SOPE   H3R13345   3.618   4.600   2.048  0.1656 -0.4978  4.1759
  125SOPE   H3S13346   3.441   4.573   2.026  2.2122 -1.3436 -0.0771
  125SOPE   C2413347   3.491   4.691   2.201  0.5180 -0.0020  1.1732
  125SOPE   H4R13348   3.568   4.764   2.234 -0.3457  1.2441  0.5291
  125SOPE   H4S13349   3.392   4.741   2.208  0.1711 -0.2951 -0.8757
  125SOPE   C2513350   3.492   4.565   2.293 -0.2254 -0.7669 -0.9118
  125SOPE   H5R13351   3.408   4.494   2.278 -0.7043 -0.7935  1.5458
  125SOPE   H5S13352   3.589   4.512   2.285 -0.2407 -0.6946 -1.5918
  125SOPE   C2613353   3.491   4.608   2.444 -0.8964  0.5240 -0.7229
  125SOPE   H6R13354   3.588   4.653   2.475 -0.7420  0.0654 -0.5263
  125SOPE   H6S13355   3.407   4.674   2.472 -0.9386 -0.3030  1.2240
  125SOPE   C2713356   3.475   4.483   2.541 -0.1860 -0.1419  0.3781
  125SOPE   H7R13357   3.408   4.408   2.495 -0.3882  0.4613 -0.3247
  125SOPE   H7S13358   3.572   4.429   2.548 -0.0597 -0.5158 -2.7279
  125SOPE   C2813359   3.415   4.520   2.678 -0.0080  1.1574 -0.4240
  125SOPE   H8R13360   3.468   4.608   2.719 -0.8814  0.4557  2.4958
  125SOPE   H8S13361   3.311   4.551   2.654 -0.7671 -1.0500 -0.2802
  125SOPE   C2913362   3.420   4.403   2.774  0.5657  1.0003  0.7521
  125SOPE   H9113363   3.395   4.306   2.728  1.5673  0.5453  1.1248
  125SOPE  C21013364   3.462   4.393   2.896  0.1088  0.2676  0.1957
  125SOPE  H10113365   3.455   4.299   2.954 -0.9307  0.2852  0.1011
  125SOPE  C21113366   3.516   4.513   2.975 -0.3639  0.3134 -0.3126
  125SOPE  H11R13367   3.486   4.519   3.081  1.5608  1.2007  0.2203
  125SOPE  H11S13368   3.474   4.606   2.931 -0.5299  0.8550  0.9557
  125SOPE  C21213369   3.666   4.508   2.971 -0.7509  0.1156  0.5250
  125SOPE  H12R13370   3.716   4.433   3.037 -0.0701  1.5502  1.7065
  125SOPE  H12S13371   3.702   4.603   3.018  1.5288 -0.5688  0.2788
  125SOPE  C21313372   3.734   4.492   2.833  0.2026 -0.0878 -0.4215
  125SOPE  H13R13373   3.698   4.567   2.758 -3.1655  0.2046  1.3120
  125SOPE  H13S13374   3.710   4.390   2.797 -1.7592  0.6616 -1.4249
  125SOPE  C21413375   3.887   4.497   2.844 -0.0293 -1.0607  0.7222
  125SOPE  H14R13376   3.923   4.428   2.924  0.6142  0.8481  2.1580
  125SOPE  H14S13377   3.926   4.597   2.872 -1.6018 -1.3420  4.5573
  125SOPE  C21513378   3.947   4.461   2.708  0.2066 -0.2630  0.3823
  125SOPE  H15R13379   3.911   4.357   2.690  1.6809 -1.0871  1.8928
  125SOPE  H15S13380   4.057   4.455   2.719  0.6634  1.2839 -2.3845
  125SOPE  C21613381   3.922   4.559   2.587  0.5689  0.8124 -0.2676
  125SOPE  H16R13382   3.963   4.658   2.618 -0.0430  0.6687  1.0707
  125SOPE  H16S13383   3.814   4.581   2.580 -0.0683 -2.1307 -1.1386
  125SOPE  C21713384   3.966   4.509   2.450 -0.3307  0.7674  0.0875
  125SOPE  H17R13385   3.888   4.440   2.411  0.8880 -0.4350 -0.3105
  125SOPE  H17S13386   4.056   4.448   2.472 -0.9266  0.1334  0.8243
  125SOPE  C21813387   3.985   4.609   2.347  0.5328 -0.2701 -0.4711
  125SOPE  H18R13388   3.887   4.654   2.323  0.5537  0.1928  0.2766
  125SOPE  H18S13389   4.026   4.561   2.255  0.6268  1.3772 -1.3167
  125SOPE  H18T13390   4.062   4.684   2.377  1.8029 -1.6304 -0.2028
  125SOPE   C3313391   3.167   4.926   2.430  0.0160 -1.0589  0.1030
  125SOPE   H3X13392   3.176   4.816   2.416  0.4097 -1.0827  0.5476
  125SOPE   H3Y13393   3.065   4.968   2.444  1.1166  1.8871 -0.1465
  125SOPE   C3413394   3.241   4.957   2.560 -0.0998  0.7809  0.4494
  125SOPE   H4X13395   3.242   5.068   2.567 -2.2066  0.8212  0.7382
  125SOPE   H4Y13396   3.343   4.915   2.553  0.0682  1.2618 -0.0150
  125SOPE   C3513397   3.174   4.886   2.689 -0.1660  0.4475  0.9599
  125SOPE   H5X13398   3.161   4.778   2.666  0.3229  0.7661 -0.9825
  125SOPE   H5Y13399   3.066   4.913   2.687  0.2517  2.3007  1.4072
  125SOPE   C3613400   3.239   4.913   2.822 -0.0787 -0.2651  0.4627
  125SOPE   H6X13401   3.254   5.023   2.825 -0.1313 -0.2320 -0.2149
  125SOPE   H6Y13402   3.336   4.858   2.824  0.0377 -0.4520 -3.1984
  125SOPE   C3713403   3.161   4.876   2.949 -0.5165 -0.0967 -0.8497
  125SOPE   H7X13404   3.175   4.768   2.967 -1.2152  0.0855  1.0080
  125SOPE   H7Y13405   3.050   4.888   2.944 -1.0875 -3.6248  0.3535
  125SOPE   C3813406   3.206   4.965   3.072  0.8201  0.4060  0.4914
  125SOPE   H8X13407   3.192   5.069   3.037 -0.0812 -0.3503 -1.5269
  125SOPE   H8Y13408   3.314   4.946   3.092  0.7404 -1.2084 -0.4576
  125SOPE   C3913409   3.134   4.923   3.206 -0.0255  0.2533  0.3519
  125SOPE   H9X13410   3.173   4.822   3.231  0.9016  0.6344  0.4812
  125SOPE   H9Y13411   3.024   4.915   3.196  0.0973 -0.7946 -0.3307
  125SOPE  C31013412   3.178   5.017   3.330 -0.2071 -0.8600  0.4892
  125SOPE  H10X13413   3.165   5.121   3.294  0.8735 -0.4068  1.3457
  125SOPE  H10Y13414   3.285   5.000   3.354  0.1041  1.7096  1.2318
  125SOPE  C31113415   3.089   4.999   3.452  0.0017  0.7227 -0.3220
  125SOPE  H11X13416   3.076   4.891   3.478 -2.0201  0.6946 -1.2951
  125SOPE  H11Y13417   2.983   5.026   3.436  0.3255  1.7639 -0.7909
  125SOPE  C31213418   3.153   5.063   3.579 -0.4002 -0.2120 -0.3527
  125SOPE  H12X13419   3.101   5.157   3.605 -0.3187  0.1234 -1.3323
  125SOPE  H12Y13420   3.257   5.093   3.555 -0.5585  0.2240 -0.4964
  125SOPE  C31313421   3.138   4.967   3.703 -0.0776 -0.2320  0.5326
  125SOPE  H13X13422   3.146   4.863   3.664  0.7434 -0.0291  0.1348
  125SOPE  H13Y13423   3.037   4.982   3.745  0.2664 -3.7861  3.0586
  125SOPE  C31413424   3.246   4.989   3.809  0.5485  0.9391  0.2853
  125SOPE  H14X13425   3.345   4.991   3.759  0.8382  1.6418  0.8631
  125SOPE  H14Y13426   3.243   4.910   3.888 -2.5213  1.1780  0.5087
  125SOPE  C31513427   3.225   5.119   3.881  0.4023 -0.3024 -0.1453
  125SOPE  H15X13428   3.123   5.119   3.926 -0.2511 -3.9394 -1.2557
  125SOPE  H15Y13429   3.234   5.197   3.802 -0.5404  0.0117  0.0353
  125SOPE  C31613430   3.336   5.154   3.983  0.2624  0.5007 -0.3787
  125SOPE  H16X13431   3.436   5.170   3.937  0.3831  3.8595  0.8122
  125SOPE  H16Y13432   3.346   5.066   4.051  0.1903  0.3057 -0.6160
  125SOPE  C31713433   3.303   5.273   4.076 -0.8005  0.2792 -0.3134
  125SOPE  H17X13434   3.316   5.364   4.014  0.4013  1.2164  1.2254
  125SOPE  H17Y13435   3.377   5.288   4.158 -0.3195 -1.6670 -0.3470
  125SOPE  C31813436   3.160   5.273   4.139 -0.3836  0.4244  0.2454
  125SOPE  H18X13437   3.081   5.277   4.061 -1.5884 -2.2259  1.2139
  125SOPE  H18Y13438   3.140   5.360   4.205  1.1612  0.6835  0.3940
  125SOPE  H18Z13439   3.151   5.171   4.182 -2.1109 -0.9468 -2.9747
  126SOPE     N13440   0.735   5.325   1.635 -0.0018  0.4700 -0.4674
  126SOPE   HN113441   0.711   5.425   1.647  0.4524  0.5114  0.1312
  126SOPE   HN213442   0.691   5.285   1.550  0.5990 -0.3985 -0.3857
  126SOPE   HN313443   0.690   5.275   1.715  0.1891  0.8946 -0.0932
  126SOPE   C1213444   0.884   5.305   1.648  0.5522 -0.1025 -0.3922
  126SOPE  H12A13445   0.926   5.392   1.592 -2.9087  0.7476 -1.9733
  126SOPE  H12B13446   0.916   5.212   1.598  2.2084  0.2415 -0.0580
  126SOPE   C1113447   0.925   5.299   1.801 -0.0486  0.1057  0.1860
  126SOPE  H11A13448   0.906   5.395   1.853  1.6710 -0.0743  1.2407
  126SOPE  H11B13449   1.036   5.292   1.792  0.0421 -0.2381  1.4029
  126SOPE     P13450   0.762   5.168   1.950 -0.0057  0.2061 -0.3478
  126SOPE   O1313451   0.758   5.052   2.043 -0.1045  0.3625  0.1360
  126SOPE   O1413452   0.652   5.192   1.858  0.5869 -0.1362  0.0660
  126SOPE   O1213453   0.896   5.168   1.862 -0.4120  0.1727 -0.1615
  126SOPE   O1113454   0.790   5.294   2.031 -0.2251  0.2085  0.3549
  126SOPE    C113455   0.861   5.314   2.158 -0.8762 -0.1971  0.3768
  126SOPE    HA13456   0.895   5.419   2.174  2.0277 -1.3242  2.6364
  126SOPE    HB13457   0.946   5.242   2.160 -0.0587  0.7337  2.4643
  126SOPE    C213458   0.766   5.283   2.272  0.2361  0.5296 -0.5028
  126SOPE    HS13459   0.721   5.183   2.254  2.7804 -0.3109 -2.7846
  126SOPE   O2113460   0.673   5.384   2.276  0.2521 -0.2826  0.3734
  126SOPE   C2113461   0.541   5.367   2.262 -0.3656  0.3003  0.7976
  126SOPE   O2213462   0.485   5.261   2.236  0.3726 -0.6501  0.1024
  126SOPE   C2213463   0.475   5.508   2.263  0.7620 -0.1373  0.2817
  126SOPE   H2R13464   0.542   5.577   2.206  2.2675 -0.8800  1.0844
  126SOPE   H2S13465   0.484   5.538   2.369 -0.3931  0.0278  0.3437
  126SOPE    C313466   0.838   5.283   2.408  0.2851 -0.0014  0.3705
  126SOPE    HX13467   0.871   5.389   2.416 -0.5385  0.4474 -1.5719
  126SOPE    HY13468   0.926   5.216   2.395 -0.8087 -2.1025  2.8724
  126SOPE   O3113469   0.748   5.238   2.512  0.1309  0.6945 -0.1444
  126SOPE   C3113470   0.774   5.126   2.564  0.1053 -0.4427  0.3004
  126SOPE   O3213471   0.874   5.058   2.533  0.2308 -0.4083 -0.2054
  126SOPE   C3213472   0.662   5.079   2.665 -0.0578  0.0343  0.3044
  126SOPE   H2X13473   0.675   4.970   2.682 -3.8722 -0.3758  1.3912
  126SOPE   H2Y13474   0.562   5.092   2.620 -0.6701 -1.4695  1.1348
  126SOPE   C2313475   0.322   5.523   2.225 -0.1539 -0.4505  0.1245
  126SOPE   H3R13476   0.312   5.475   2.125  2.7024 -0.0398 -0.4507
  126SOPE   H3S13477   0.293   5.629   2.210  1.3162 -0.2129 -1.3913
  126SOPE   C2413478   0.235   5.471   2.341  0.6503  0.2089  1.0298
  126SOPE   H4R13479   0.132   5.444   2.310  0.7357  0.4183  0.5553
  126SOPE   H4S13480   0.281   5.376   2.375  0.0536  0.2102  1.8667
  126SOPE   C2513481   0.225   5.570   2.458  0.1527  0.2652 -0.0735
  126SOPE   H5R13482   0.327   5.606   2.483  1.0210 -1.0303 -1.5539
  126SOPE   H5S13483   0.159   5.657   2.438  2.3356  1.9653 -0.2182
  126SOPE   C2613484   0.164   5.507   2.585 -0.5718  0.4142 -0.7921
  126SOPE   H6R13485   0.071   5.450   2.563 -0.5655  0.7039 -1.6443
  126SOPE   H6S13486   0.237   5.429   2.617 -0.9005  1.0304  1.6602
  126SOPE   C2713487   0.150   5.602   2.709 -0.0529  0.2500 -0.8346
  126SOPE   H7R13488   0.220   5.687   2.691  1.1385 -0.2034  1.2953
  126SOPE   H7S13489   0.051   5.652   2.713  0.8380  2.2628  4.7549
  126SOPE   C2813490   0.177   5.544   2.851 -0.1669  0.2081  0.9988
  126SOPE   H8R13491   0.283   5.530   2.882 -0.2236 -0.8410  0.7358
  126SOPE   H8S13492   0.153   5.626   2.922 -0.2657  0.5768  0.5462
  126SOPE   C2913493   0.086   5.426   2.868 -0.5104 -0.6814 -0.4738
  126SOPE   H9113494  -0.020   5.451   2.851 -0.0316  1.5087 -0.5315
  126SOPE  C21013495   0.122   5.298   2.900 -0.6905 -0.1252  0.0655
  126SOPE  H10113496   0.044   5.221   2.907 -0.8124  0.0778  1.0141
  126SOPE  C21113497   0.266   5.262   2.936 -0.2109  0.5160  0.0414
  126SOPE  H11R13498   0.341   5.330   2.891  0.2892 -0.3432 -0.4534
  126SOPE  H11S13499   0.291   5.162   2.894 -1.1851 -1.2351  3.2832
  126SOPE  C21213500   0.287   5.242   3.088 -0.5966 -0.0358 -0.7433
  126SOPE  H12R13501   0.207   5.171   3.119  0.3411 -1.4093 -1.3264
  126SOPE  H12S13502   0.272   5.339   3.140 -2.1983 -0.3062 -0.6399
  126SOPE  C21313503   0.427   5.179   3.125 -0.3456 -0.3680  0.1467
  126SOPE  H13R13504   0.505   5.231   3.066 -0.2355 -1.5365 -0.7825
  126SOPE  H13S13505   0.423   5.070   3.100 -1.2282  0.2907 -3.0016
  126SOPE  C21413506   0.469   5.187   3.278  0.5452 -0.1257  0.0881
  126SOPE  H14R13507   0.513   5.285   3.305  2.6065 -0.5628 -1.3949
  126SOPE  H14S13508   0.543   5.108   3.302 -1.6396 -2.2920  0.0693
  126SOPE  C21513509   0.339   5.173   3.357  0.5702  0.0504  0.2274
  126SOPE  H15R13510   0.288   5.075   3.342 -4.1405  2.2576  0.0128
  126SOPE  H15S13511   0.252   5.236   3.329  0.3036  0.0253  0.9725
  126SOPE  C21613512   0.354   5.207   3.505 -0.5439 -0.3947  1.2165
  126SOPE  H16R13513   0.407   5.303   3.519  0.7962 -0.8555 -0.3801
  126SOPE  H16S13514   0.413   5.121   3.545  0.6594 -0.5150 -0.7092
  126SOPE  C21713515   0.216   5.211   3.569 -0.0592  0.8904 -0.2636
  126SOPE  H17R13516   0.165   5.114   3.551  4.0267 -1.5488 -0.2017
  126SOPE  H17S13517   0.155   5.293   3.526 -2.1247 -1.1141 -1.3362
  126SOPE  C21813518   0.222   5.236   3.719 -0.3649  0.2759  1.1960
  126SOPE  H18R13519   0.118   5.236   3.757  0.1755  1.3872  2.7274
  126SOPE  H18S13520   0.263   5.339   3.721  1.5995 -0.2629 -2.3225
  126SOPE  H18T13521   0.292   5.162   3.766  0.4110 -0.2720 -0.7076
  126SOPE   C3313522   0.681   5.164   2.796 -0.7210 -0.2362 -0.1950
  126SOPE   H3X13523   0.589   5.141   2.854 -0.0214  1.2683  1.6383
  126SOPE   H3Y13524   0.675   5.274   2.781  1.3084  0.1078  1.0340
  126SOPE   C3413525   0.808   5.141   2.880 -0.3715  0.4798 -0.5358
  126SOPE   H4X13526   0.897   5.155   2.816  2.1311 -4.7110  1.2907
  126SOPE   H4Y13527   0.811   5.037   2.917 -0.7445  1.0946  1.3919
  126SOPE   C3513528   0.812   5.229   3.002 -0.7091  0.1219  0.1965
  126SOPE   H5X13529   0.753   5.187   3.087 -0.4316 -0.7095 -0.0173
  126SOPE   H5Y13530   0.758   5.322   2.975  0.2323  0.7266  0.3742
  126SOPE   C3613531   0.959   5.264   3.038  0.7630 -0.1889  0.8864
  126SOPE   H6X13532   1.007   5.293   2.942 -1.3929 -0.4616 -0.3474
  126SOPE   H6Y13533   1.002   5.172   3.083  0.2607 -0.7156  0.3133
  126SOPE   C3713534   0.973   5.382   3.137 -0.3685  0.6135  0.1339
  126SOPE   H7X13535   0.961   5.474   3.075 -3.8806 -0.8239 -1.6004
  126SOPE   H7Y13536   1.082   5.380   3.156  0.5248  1.8857 -3.8513
  126SOPE   C3813537   0.875   5.386   3.256 -0.0407 -0.1914 -0.7089
  126SOPE   H8X13538   0.774   5.418   3.223 -1.8998 -2.9801  1.7825
  126SOPE   H8Y13539   0.916   5.461   3.326 -0.6046 -0.1919 -0.3785
  126SOPE   C3913540   0.866   5.247   3.327  0.0933  0.0703 -0.5688
  126SOPE   H9X13541   0.897   5.166   3.260  1.3991 -1.4271  1.7160
  126SOPE   H9Y13542   0.757   5.238   3.350  0.0755  2.1867  0.4638
  126SOPE  C31013543   0.952   5.222   3.452  0.0054  0.5282  1.3262
  126SOPE  H10X13544   0.931   5.311   3.516 -2.6016  1.3751 -0.5513
  126SOPE  H10Y13545   1.062   5.227   3.436  0.1178  0.5912  2.0439
  126SOPE  C31113546   0.916   5.093   3.527 -0.4494 -0.5850 -0.2846
  126SOPE  H11X13547   1.001   5.065   3.594 -0.9801 -2.4112 -0.3172
  126SOPE  H11Y13548   0.922   5.022   3.442  0.8779 -1.8160  0.7736
  126SOPE  C31213549   0.777   5.066   3.588  0.4287 -0.3258  0.2633
  126SOPE  H12X13550   0.698   5.094   3.516 -1.4763 -0.0840  2.3532
  126SOPE  H12Y13551   0.767   5.127   3.680 -3.4599 -0.1352 -0.1436
  126SOPE  C31313552   0.759   4.917   3.620  0.4712  0.5944  0.4910
  126SOPE  H13X13553   0.807   4.892   3.717 -1.9677 -1.0084  1.3722
  126SOPE  H13Y13554   0.811   4.863   3.539  1.7319  0.9954  1.0070
  126SOPE  C31413555   0.615   4.880   3.621  0.0323 -0.0287  0.3397
  126SOPE  H14X13556   0.607   4.770   3.625 -4.1932  0.1179  0.2388
  126SOPE  H14Y13557   0.559   4.909   3.530 -0.7808 -2.3469  0.0394
  126SOPE  C31513558   0.548   4.933   3.755  0.3820  0.0776  0.5982
  126SOPE  H15X13559   0.512   5.038   3.748  0.7652  0.3331  2.0099
  126SOPE  H15Y13560   0.633   4.927   3.826  0.0741 -1.0344  0.8918
  126SOPE  C31613561   0.443   4.837   3.804 -0.3911  0.3741 -0.0744
  126SOPE  H16X13562   0.400   4.872   3.900 -0.7144 -1.1885  0.3696
  126SOPE  H16Y13563   0.500   4.742   3.805  0.7077  1.0095 -0.8464
  126SOPE  C31713564   0.318   4.824   3.723  0.7241  0.4385  0.6615
  126SOPE  H17X13565   0.336   4.783   3.621 -1.3807 -0.7595  0.7281
  126SOPE  H17Y13566   0.272   4.925   3.713  1.5158  0.9065  1.5760
  126SOPE  C31813567   0.216   4.736   3.786  0.1436  0.1909  0.1377
  126SOPE  H18X13568   0.250   4.630   3.784 -1.7649 -0.4495 -0.8647
  126SOPE  H18Y13569   0.123   4.749   3.727  0.6956  0.2911 -0.7168
  126SOPE  H18Z13570   0.200   4.762   3.893  0.9846  1.7837 -0.1007
  127SOPE     N13571   1.525   6.097   1.447  0.2768  0.0158  0.8210
  127SOPE   HN113572   1.481   6.016   1.496 -0.0272 -1.1921 -1.3280
  127SOPE   HN213573   1.600   6.054   1.390 -1.6502  1.4818 -3.1227
  127SOPE   HN313574   1.550   6.163   1.523  3.0687  0.5691 -0.4905
  127SOPE   C1213575   1.412   6.159   1.365 -0.7037  0.2160 -0.3788
  127SOPE  H12A13576   1.418   6.101   1.271  2.8324  2.2070 -1.5580
  127SOPE  H12B13577   1.444   6.264   1.348  0.0389  0.1551  0.5697
  127SOPE   C1113578   1.290   6.151   1.448  0.6311 -0.3571 -0.2433
  127SOPE  H11A13579   1.206   6.197   1.392  0.3029  0.2715  0.7358
  127SOPE  H11B13580   1.298   6.223   1.533 -1.2559 -1.2391  0.7466
  127SOPE     P13581   1.188   5.912   1.404 -0.3618 -0.1174 -0.0785
  127SOPE   O1313582   1.186   5.779   1.465 -0.2088  0.6197  0.3382
  127SOPE   O1413583   1.230   5.929   1.261  0.1624  0.1684  0.3523
  127SOPE   O1213584   1.267   6.018   1.496  0.6344 -0.1431  0.6540
  127SOPE   O1113585   1.044   5.980   1.423 -0.5290 -0.0637 -0.1532
  127SOPE    C113586   0.951   5.939   1.525  0.5181 -0.1454 -0.6035
  127SOPE    HA13587   0.963   5.833   1.557  3.4744  0.5912  1.0867
  127SOPE    HB13588   0.843   5.948   1.499 -0.5472 -0.0073  3.1766
  127SOPE    C213589   0.978   6.023   1.657  0.0716  0.2884  0.1397
  127SOPE    HS13590   1.081   6.008   1.695 -0.4796 -1.7162  0.9528
  127SOPE   O2113591   0.877   5.988   1.761 -0.6171  0.0844  0.5589
  127SOPE   C2113592   0.910   5.990   1.892 -0.8706 -0.1150  0.5157
  127SOPE   O2213593   1.018   6.026   1.944  0.1205 -0.3634  0.0974
  127SOPE   C2213594   0.806   5.926   1.970  0.0053  0.5401  0.5064
  127SOPE   H2R13595   0.799   5.823   1.930  0.3146  0.3087  1.0495
  127SOPE   H2S13596   0.709   5.981   1.967 -0.4597 -0.3157 -1.3531
  127SOPE    C313597   0.959   6.177   1.622  0.0647 -0.0960  0.2910
  127SOPE    HX13598   0.857   6.191   1.580  0.6274 -0.3242 -1.1885
  127SOPE    HY13599   1.026   6.196   1.536  1.2101 -0.7929  1.0060
  127SOPE   O3113600   1.007   6.269   1.725  0.4615 -0.5572 -0.0345
  127SOPE   C3113601   0.917   6.315   1.808 -1.0811  0.2961 -0.3395
  127SOPE   O3213602   0.801   6.267   1.816 -0.1772  0.5530  0.1465
  127SOPE   C3213603   0.977   6.423   1.897 -0.3790 -0.6775 -1.1943
  127SOPE   H2X13604   0.966   6.508   1.826 -0.7873 -1.8365 -2.5439
  127SOPE   H2Y13605   1.083   6.416   1.930 -0.3701  1.1803 -0.6643
  127SOPE   C2313606   0.833   5.912   2.119 -0.3380 -0.0566  0.2556
  127SOPE   H3R13607   0.822   6.009   2.172 -0.1625  0.6140 -0.8965
  127SOPE   H3S13608   0.943   5.895   2.125 -0.3218  0.4773  2.6863
  127SOPE   C2413609   0.765   5.796   2.194  0.1832  0.2098  0.0223
  127SOPE   H4R13610   0.655   5.813   2.198  0.1052 -0.2982  0.1098
  127SOPE   H4S13611   0.790   5.696   2.154  0.3203 -0.4124  1.5851
  127SOPE   C2513612   0.806   5.775   2.342 -0.2707 -0.4764 -0.2557
  127SOPE   H5R13613   0.911   5.740   2.335  0.0217  0.5541 -1.5363
  127SOPE   H5S13614   0.786   5.873   2.390  0.1818 -0.4970 -0.0209
  127SOPE   C2613615   0.729   5.680   2.423 -0.2079 -0.4142  0.0488
  127SOPE   H6R13616   0.627   5.721   2.438  0.6607  1.1295  2.3046
  127SOPE   H6S13617   0.714   5.578   2.380  0.0488 -0.1353 -0.7103
  127SOPE   C2713618   0.788   5.678   2.568 -0.6328  0.0657 -0.7023
  127SOPE   H7R13619   0.898   5.670   2.555 -0.6245  1.4631 -1.7207
  127SOPE   H7S13620   0.766   5.775   2.618  3.3730 -0.2405  2.1436
  127SOPE   C2813621   0.737   5.559   2.661  0.3894 -0.5410  0.1085
  127SOPE   H8R13622   0.749   5.460   2.611  1.5108 -0.6365  0.5255
  127SOPE   H8S13623   0.799   5.565   2.753  0.2973 -1.3830  0.2411
  127SOPE   C2913624   0.593   5.578   2.700 -0.4808  0.1175 -0.5658
  127SOPE   H9113625   0.518   5.515   2.649  0.0771  0.9120 -2.4626
  127SOPE  C21013626   0.557   5.644   2.812  0.3106  0.1195  0.6256
  127SOPE  H10113627   0.450   5.653   2.837  0.2418 -1.4467  1.0278
  127SOPE  C21113628   0.637   5.732   2.904 -0.4028  0.7914  0.0213
  127SOPE  H11R13629   0.593   5.834   2.908  0.3620  1.1512 -0.5380
  127SOPE  H11S13630   0.735   5.755   2.858 -0.1096 -1.6282 -0.6989
  127SOPE  C21213631   0.655   5.665   3.045 -0.5264 -0.9873  0.6124
  127SOPE  H12R13632   0.699   5.747   3.106  1.5445 -0.8953 -0.9200
  127SOPE  H12S13633   0.733   5.587   3.030  0.5982  0.6328 -3.0672
  127SOPE  C21313634   0.527   5.615   3.112  0.1983  0.4055 -0.3135
  127SOPE  H13R13635   0.490   5.525   3.058 -0.8107 -0.6596  2.0265
  127SOPE  H13S13636   0.449   5.693   3.112  0.8644  1.0853 -0.5724
  127SOPE  C21413637   0.529   5.586   3.269 -0.3060  0.0736  0.5898
  127SOPE  H14R13638   0.585   5.494   3.297 -3.6489 -1.4277  2.9523
  127SOPE  H14S13639   0.425   5.574   3.306 -0.2191  0.8316  1.1062
  127SOPE  C21513640   0.589   5.705   3.343 -0.2939 -0.3700  0.7179
  127SOPE  H15R13641   0.538   5.799   3.313 -0.7839 -1.1615 -1.0332
  127SOPE  H15S13642   0.696   5.708   3.313 -0.5695 -1.0442 -0.3814
  127SOPE  C21613643   0.591   5.698   3.493 -0.6543 -0.7013  0.1668
  127SOPE  H16R13644   0.492   5.721   3.537 -1.1751 -0.2161 -1.2018
  127SOPE  H16S13645   0.650   5.786   3.526 -0.3415  0.0709 -2.2102
  127SOPE  C21713646   0.634   5.554   3.551  0.6761  0.2184  0.6112
  127SOPE  H17R13647   0.732   5.530   3.505 -0.5125  0.7420 -2.4071
  127SOPE  H17S13648   0.562   5.476   3.518  1.3244 -0.8046  1.5628
  127SOPE  C21813649   0.637   5.559   3.706 -0.4286  0.1626  0.0551
  127SOPE  H18R13650   0.628   5.455   3.743 -0.0828 -0.0367 -0.4060
  127SOPE  H18S13651   0.543   5.605   3.743 -0.0104 -1.0124  2.8597
  127SOPE  H18T13652   0.730   5.608   3.742  0.1942 -2.2771  2.0582
  127SOPE   C3313653   0.887   6.442   2.024 -0.5625 -0.3995  0.6396
  127SOPE   H3X13654   0.777   6.442   2.006 -0.5832  0.5126  0.7074
  127SOPE   H3Y13655   0.916   6.536   2.075 -0.0660 -1.8548  3.1997
  127SOPE   C3413656   0.921   6.324   2.118  0.1984 -1.0016 -0.8713
  127SOPE   H4X13657   1.032   6.318   2.127  0.1913  0.1529  0.1552
  127SOPE   H4Y13658   0.881   6.225   2.088  1.7316 -1.9457  0.0723
  127SOPE   C3513659   0.879   6.340   2.264  1.1060 -0.1488 -0.3035
  127SOPE   H5X13660   0.769   6.332   2.268  0.9284 -0.7784 -3.3867
  127SOPE   H5Y13661   0.903   6.439   2.309 -0.7558 -0.0119  0.4404
  127SOPE   C3613662   0.951   6.234   2.341 -0.6309  0.1520 -0.1262
  127SOPE   H6X13663   1.058   6.259   2.325 -1.7119  3.6087 -3.1902
  127SOPE   H6Y13664   0.927   6.133   2.302 -0.3070  0.1643 -0.3580
  127SOPE   C3713665   0.907   6.236   2.488  0.1380  0.2358  0.2915
  127SOPE   H7X13666   0.800   6.209   2.496  0.2386  0.0041  0.8730
  127SOPE   H7Y13667   0.915   6.334   2.539  0.1843  0.6587 -0.5125
  127SOPE   C3813668   0.978   6.122   2.572  0.3300  0.3732  0.6859
  127SOPE   H8X13669   1.083   6.155   2.591  0.1332  0.8645  0.9439
  127SOPE   H8Y13670   0.985   6.026   2.516  0.8129  0.6733  0.2217
  127SOPE   C3913671   0.908   6.096   2.713 -0.0464 -0.2338 -0.0970
  127SOPE   H9X13672   0.800   6.073   2.698 -0.1132 -0.2875  0.4388
  127SOPE   H9Y13673   0.920   6.197   2.758  1.0830 -0.8090  0.9381
  127SOPE  C31013674   0.981   5.994   2.806 -0.0519  0.2330  0.3028
  127SOPE  H10X13675   1.090   6.012   2.803  0.4556 -2.3621  0.1417
  127SOPE  H10Y13676   0.950   5.895   2.764 -0.4334  0.4364  0.0994
  127SOPE  C31113677   0.940   5.999   2.953  0.1401  0.5553 -1.0770
  127SOPE  H11X13678   0.830   5.988   2.963  0.3465  0.6316  2.2429
  127SOPE  H11Y13679   0.970   6.102   2.983  0.6051  0.3467 -0.8217
  127SOPE  C31213680   1.006   5.888   3.037  0.1455 -0.6350  0.2366
  127SOPE  H12X13681   1.113   5.918   3.033  0.0313 -0.2887 -0.2860
  127SOPE  H12Y13682   0.988   5.784   3.001 -0.0261 -0.6248  0.2953
  127SOPE  C31313683   0.960   5.885   3.191  0.3819 -0.4940  0.6513
  127SOPE  H13X13684   0.849   5.891   3.188  0.1918 -2.3207 -3.6820
  127SOPE  H13Y13685   1.001   5.981   3.228  0.6621  0.5137 -2.0214
  127SOPE  C31413686   1.030   5.772   3.273 -0.4599  0.0652 -0.2656
  127SOPE  H14X13687   1.135   5.760   3.238  0.3115  0.6353  1.7152
  127SOPE  H14Y13688   0.973   5.686   3.231 -0.9663 -0.7298  1.9209
  127SOPE  C31513689   1.025   5.792   3.428 -0.0648  1.0459  0.6951
  127SOPE  H15X13690   0.919   5.811   3.458 -0.4352 -0.3892  0.3366
  127SOPE  H15Y13691   1.090   5.881   3.441  0.3634  0.7149  0.8225
  127SOPE  C31613692   1.090   5.672   3.502 -0.3092  0.3840  0.8338
  127SOPE  H16X13693   1.193   5.645   3.472  0.3185  1.0789  2.3263
  127SOPE  H16Y13694   1.021   5.585   3.489  1.2954 -1.2267  2.5066
  127SOPE  C31713695   1.100   5.702   3.652 -0.1228  0.3282  0.0476
  127SOPE  H17X13696   0.991   5.714   3.670 -0.5169 -0.8299 -1.4328
  127SOPE  H17Y13697   1.153   5.797   3.676 -2.3597  1.9256 -0.9694
  127SOPE  C31813698   1.157   5.589   3.738 -0.2658  0.9508  0.2311
  127SOPE  H18X13699   1.262   5.605   3.772 -1.0591  2.9678  1.9213
  127SOPE  H18Y13700   1.142   5.491   3.687  0.8110 -0.3572  2.3188
  127SOPE  H18Z13701   1.097   5.581   3.831 -0.1756  0.8469  0.2795
  128SOPE     N13702   4.543   4.078   1.713  0.3815  0.7208  0.1451
  128SOPE   HN113703   4.597   4.026   1.641 -0.8642 -1.4392  0.6659
  128SOPE   HN213704   4.553   4.181   1.704 -0.0856  1.0298  2.5323
  128SOPE   HN313705   4.582   4.055   1.807 -1.0040 -4.3782 -0.1965
  128SOPE   C1213706   4.396   4.046   1.713  0.3301 -0.8180  0.6287
  128SOPE  H12A13707   4.349   4.105   1.632  0.5192 -0.3729  0.8370
  128SOPE  H12B13708   4.361   4.080   1.813  3.4095 -1.0807  1.9130
  128SOPE   C1113709   4.363   3.897   1.687 -0.4234  0.0280  0.6674
  128SOPE  H11A13710   4.409   3.861   1.592  0.6887 -3.2438  2.2886
  128SOPE  H11B13711   4.254   3.878   1.699 -0.9413  1.7171 -0.9160
  128SOPE     P13712   4.433   3.688   1.836  0.0142  0.2387 -0.4015
  128SOPE   O1313713   4.562   3.625   1.854  0.0105  0.3159 -0.1357
  128SOPE   O1413714   4.331   3.624   1.749 -0.0880  0.3517 -0.1986
  128SOPE   O1213715   4.438   3.832   1.790 -0.1078  0.6499  0.3070
  128SOPE   O1113716   4.379   3.703   1.977 -0.2922  0.2134  0.3048
  128SOPE    C113717   4.241   3.676   2.013  0.0142 -0.5339  0.2774
  128SOPE    HA13718   4.204   3.580   1.971  1.2644 -1.0223  0.2293
  128SOPE    HB13719   4.177   3.755   1.969  0.0728 -0.5623  0.1412
  128SOPE    C213720   4.215   3.666   2.165  0.5428  0.1040 -1.2504
  128SOPE    HS13721   4.238   3.760   2.219  2.2034 -1.2042  0.4625
  128SOPE   O2113722   4.280   3.553   2.220  0.6733 -0.0229 -0.1319
  128SOPE   C2113723   4.388   3.570   2.295  0.1413  0.0363  0.8361
  128SOPE   O2213724   4.421   3.680   2.337  0.2597  0.3808  0.1056
  128SOPE   C2213725   4.462   3.444   2.326 -0.2317 -0.0818 -0.7435
  128SOPE   H2R13726   4.569   3.459   2.303 -0.6125  1.9149 -1.3407
  128SOPE   H2S13727   4.419   3.358   2.269 -0.6008  0.0851 -0.7210
  128SOPE    C313728   4.052   3.655   2.190  0.3707 -0.4987  0.2926
  128SOPE    HX13729   4.031   3.555   2.147 -1.1048 -0.0284 -0.1245
  128SOPE    HY13730   3.993   3.720   2.122 -0.7333 -1.6612  0.1157
  128SOPE   O3113731   4.011   3.671   2.324 -0.2550  0.2861 -0.6121
  128SOPE   C3113732   4.020   3.796   2.369 -0.3077 -0.2576  0.1734
  128SOPE   O3213733   4.053   3.892   2.301  0.0730 -0.2607  0.5096
  128SOPE   C3213734   4.011   3.794   2.520  0.3075 -0.6007 -0.2834
  128SOPE   H2X13735   3.904   3.769   2.539  0.7449 -0.7857  2.3000
  128SOPE   H2Y13736   4.033   3.897   2.556  0.5464 -0.6412 -0.3129
  128SOPE   C2313737   4.447   3.409   2.472  0.0981 -0.4508  0.1051
  128SOPE   H3R13738   4.460   3.299   2.478  2.1206 -0.3242 -1.1088
  128SOPE   H3S13739   4.358   3.451   2.523  0.3237  1.1360 -0.7661
  128SOPE   C2413740   4.563   3.464   2.557 -0.1678  0.2861  0.3117
  128SOPE   H4R13741   4.662   3.417   2.538  0.2693  1.4182 -0.2892
  128SOPE   H4S13742   4.560   3.574   2.545  0.3012  0.2784  0.0985
  128SOPE   C2513743   4.538   3.449   2.712 -0.2355  0.3733  0.2440
  128SOPE   H5R13744   4.607   3.516   2.768 -0.6454  0.0237  1.1939
  128SOPE   H5S13745   4.430   3.470   2.731 -0.5548 -1.3212  0.4930
  128SOPE   C2613746   4.570   3.305   2.757  0.2673 -0.7081 -0.1694
  128SOPE   H6R13747   4.534   3.224   2.689  1.5770 -0.4396 -1.2287
  128SOPE   H6S13748   4.680   3.305   2.742  0.3050 -1.3315  0.0730
  128SOPE   C2713749   4.537   3.272   2.907  0.0629 -0.5205 -0.5976
  128SOPE   H7R13750   4.591   3.342   2.974  1.5464 -0.7149 -1.5318
  128SOPE   H7S13751   4.430   3.299   2.919 -0.0981 -0.3811 -2.1582
  128SOPE   C2813752   4.559   3.129   2.947 -0.1139  0.0241 -0.2523
  128SOPE   H8R13753   4.530   3.107   3.052 -2.0866  1.0950 -0.5161
  128SOPE   H8S13754   4.492   3.065   2.886  0.1965 -0.3478 -0.2049
  128SOPE   C2913755   4.704   3.095   2.926  0.0567  0.4385  0.5219
  128SOPE   H9113756   4.722   3.034   2.837  0.5745  0.2606  0.7454
  128SOPE  C21013757   4.804   3.119   3.017  0.4021 -0.3113  0.2565
  128SOPE  H10113758   4.911   3.116   2.993  0.4215 -1.5152  0.4655
  128SOPE  C21113759   4.784   3.186   3.156  0.0145  0.7840  0.0955
  128SOPE  H11R13760   4.685   3.230   3.183 -1.6495 -1.8004 -1.2816
  128SOPE  H11S13761   4.848   3.276   3.162 -0.5041  1.2438 -0.9488
  128SOPE  C21213762   4.816   3.091   3.275 -0.6584  0.0853  0.3712
  128SOPE  H12R13763   4.911   3.036   3.254  0.8219  2.9022 -0.8071
  128SOPE  H12S13764   4.736   3.014   3.280  0.0666 -0.7135 -0.0651
  128SOPE  C21313765   4.829   3.171   3.418 -0.2063 -0.1930  0.4002
  128SOPE  H13R13766   4.731   3.219   3.438 -1.1863 -1.6733 -0.6476
  128SOPE  H13S13767   4.915   3.240   3.426 -0.3965 -0.1578  2.9342
  128SOPE  C21413768   4.851   3.082   3.548 -0.1128  0.0596  0.0258
  128SOPE  H14R13769   4.935   3.010   3.533 -1.1210 -1.1031 -0.2098
  128SOPE  H14S13770   4.759   3.027   3.578 -0.8978  1.1526 -0.3356
  128SOPE  C21513771   4.862   3.174   3.664  1.0233  0.1475 -0.1872
  128SOPE  H15R13772   4.841   3.117   3.757  0.3285  1.1252  0.2682
  128SOPE  H15S13773   4.785   3.255   3.665 -0.9092 -1.5374 -1.8122
  128SOPE  C21613774   4.999   3.239   3.674 -0.2539  0.0257 -0.7458
  128SOPE  H16R13775   5.005   3.316   3.755  1.1961 -1.1410  0.3099
  128SOPE  H16S13776   5.030   3.292   3.581  0.9458  0.3315 -0.1998
  128SOPE  C21713777   5.123   3.155   3.703  0.2942  0.1346  0.6288
  128SOPE  H17R13778   5.148   3.091   3.616  1.4531  0.0520  1.0001
  128SOPE  H17S13779   5.089   3.082   3.779  0.0668  1.1825  1.5611
  128SOPE  C21813780   5.247   3.239   3.745 -0.9142  0.3551  0.1996
  128SOPE  H18R13781   5.224   3.281   3.845 -0.0409  3.3404 -0.7554
  128SOPE  H18S13782   5.277   3.330   3.689  0.7760 -0.5685 -0.4849
  128SOPE  H18T13783   5.339   3.177   3.750 -0.8857  0.4103  0.3624
  128SOPE   C3313784   4.095   3.683   2.586 -0.5229 -0.4374  0.1344
  128SOPE   H3X13785   4.204   3.699   2.571  0.0461 -3.5354  0.4112
  128SOPE   H3Y13786   4.080   3.583   2.540  0.2654 -1.5685  2.2483
  128SOPE   C3413787   4.058   3.672   2.729  0.7754 -0.7834 -0.5061
  128SOPE   H4X13788   3.948   3.679   2.741  0.8670  1.1236 -0.4521
  128SOPE   H4Y13789   4.086   3.760   2.791 -0.0237 -1.2900  0.5974
  128SOPE   C3513790   4.111   3.548   2.797 -0.1052  0.8132 -0.3430
  128SOPE   H5X13791   4.220   3.530   2.793 -0.4862 -1.9544 -0.3300
  128SOPE   H5Y13792   4.068   3.464   2.738 -0.7020  1.8694 -1.4510
  128SOPE   C3613793   4.048   3.533   2.938  0.0331 -0.5224  0.4109
  128SOPE   H6X13794   3.938   3.526   2.927 -0.2140  1.4563  1.0884
  128SOPE   H6Y13795   4.075   3.623   2.998  0.2251 -0.6629  0.5405
  128SOPE   C3713796   4.094   3.410   3.016  0.6435 -0.3987 -0.6619
  128SOPE   H7X13797   4.204   3.409   3.033  0.6790 -0.0074 -0.8659
  128SOPE   H7Y13798   4.059   3.321   2.959  2.8153 -0.6555 -1.7036
  128SOPE   C3813799   4.046   3.403   3.161 -0.5157 -0.0861 -0.0391
  128SOPE   H8X13800   4.079   3.308   3.208  3.3175  2.0399  2.0876
  128SOPE   H8Y13801   3.936   3.397   3.141 -0.1418  0.0614 -2.4578
  128SOPE   C3913802   4.098   3.514   3.247  0.1988 -0.4877 -0.6728
  128SOPE   H9X13803   4.179   3.575   3.203  0.8308 -1.5353 -0.9887
  128SOPE   H9Y13804   4.154   3.483   3.338 -1.6693  0.8287  1.0173
  128SOPE  C31013805   3.981   3.603   3.299 -0.0779 -0.0268  0.4804
  128SOPE  H10X13806   3.925   3.557   3.383 -2.6336  1.8149 -0.1189
  128SOPE  H10Y13807   3.912   3.616   3.214 -0.2284  2.4789  0.9112
  128SOPE  C31113808   4.036   3.727   3.365 -0.3135  0.6285 -0.0681
  128SOPE  H11X13809   4.061   3.799   3.285 -1.5187 -1.7855 -2.8014
  128SOPE  H11Y13810   4.131   3.690   3.408 -0.0669  1.1400 -0.1729
  128SOPE  C31213811   3.936   3.804   3.458  0.1712  0.0512  0.1974
  128SOPE  H12X13812   3.901   3.735   3.538 -3.4835 -0.0590 -1.2792
  128SOPE  H12Y13813   3.836   3.822   3.414  0.3393 -1.3305 -0.8034
  128SOPE  C31313814   3.993   3.926   3.514  0.2144 -0.7092 -0.3618
  128SOPE  H13X13815   3.997   4.012   3.444  3.6367  1.1940  1.9183
  128SOPE  H13Y13816   4.095   3.907   3.554  0.1698  0.3478  0.2757
  128SOPE  C31413817   3.919   3.987   3.635 -0.1931  0.1722  0.4329
  128SOPE  H14X13818   3.953   4.090   3.656 -1.5677  0.4510  1.3899
  128SOPE  H14Y13819   3.940   3.925   3.725 -1.2404 -0.3101  0.3650
  128SOPE  C31513820   3.764   3.999   3.623 -0.4477  0.9926  0.5401
  128SOPE  H15X13821   3.719   3.898   3.611 -1.9021  1.7358 -0.4377
  128SOPE  H15Y13822   3.741   4.045   3.525 -0.7140 -1.6680 -0.7372
  128SOPE  C31613823   3.703   4.050   3.747 -0.2675  0.2065  0.3639
  128SOPE  H16X13824   3.765   4.136   3.780 -1.2414  1.7440 -1.5674
  128SOPE  H16Y13825   3.700   3.965   3.818 -0.6486 -0.3981 -0.3602
  128SOPE  C31713826   3.562   4.100   3.720  0.1138 -0.4584  0.1662
  128SOPE  H17X13827   3.576   4.158   3.626  1.2762 -0.3029  0.4252
  128SOPE  H17Y13828   3.536   4.182   3.791  2.2881  0.9569 -0.5742
  128SOPE  C31813829   3.471   3.975   3.717  1.0302  0.1921  0.2242
  128SOPE  H18X13830   3.513   3.891   3.657 -0.1689  1.4036 -2.4764
  128SOPE  H18Y13831   3.382   4.004   3.657  0.5729  0.4991  1.0282
  128SOPE  H18Z13832   3.443   3.935   3.817 -0.9627 -0.0340 -0.3653
  129OSM      N13833   1.479   0.195   6.420  0.4475 -0.5563  0.1300
  129OSM    C1513834   1.507   0.108   6.540 -0.0802  0.1163  0.0504
  129OSM   H15A13835   1.417   0.069   6.587  0.0533  1.0673  1.1279
  129OSM   H15B13836   1.560   0.164   6.615 -0.3608  0.6067 -0.1168
  129OSM   H15C13837   1.561   0.018   6.513  0.1489 -0.1139  1.2285
  129OSM    C1413838   1.421   0.326   6.469 -0.1034  0.3806  0.4414
  129OSM   H14A13839   1.346   0.306   6.545  1.1087 -1.7678  1.1567
  129OSM   H14B13840   1.375   0.385   6.391  0.6332  2.9159  1.8079
  129OSM   H14C13841   1.494   0.395   6.506 -1.3911  0.8091  2.3571
  129OSM    C1313842   1.611   0.225   6.360  0.1393  0.4746  0.2253
  129OSM   H13A13843   1.605   0.297   6.280 -0.3686  1.4888  1.1455
  129OSM   H13B13844   1.650   0.134   6.318 -1.2883  0.3582 -0.9252
  129OSM   H13C13845   1.672   0.273   6.435 -0.9914  1.5250  0.5032
  129OSM    C1213846   1.385   0.113   6.320 -0.0420 -0.6465  0.6923
  129OSM   H12A13847   1.301   0.077   6.377 -1.2267 -0.4199 -0.8331
  129OSM   H12B13848   1.433   0.024   6.284  0.0528  0.1098 -1.1864
  129OSM    C1113849   1.319   0.198   6.209  0.3325  0.5879 -0.1786
  129OSM   H11A13850   1.280   0.125   6.136  0.1289  2.2177 -1.7868
  129OSM   H11B13851   1.387   0.263   6.148 -0.9715  3.8797  1.6499
  129OSM      P13852   1.082   0.213   6.309  0.4007  0.0590  0.2637
  129OSM    O1313853   1.100   0.102   6.405  0.5609  0.0029  0.0905
  129OSM    O1413854   0.989   0.321   6.354  0.8476  0.0282 -0.0711
  129OSM    O1113855   1.027   0.171   6.170 -0.1974  0.3105  0.2530
  129OSM    O1213856   1.220   0.274   6.267 -0.1846 -0.2372  0.2571
  129OSM    C1S13857   1.003   0.262   6.067  1.0865 -0.6810  0.6793
  129OSM    H1S13858   1.040   0.364   6.086  2.1752 -1.1113  0.9376
  129OSM    H1T13859   0.893   0.274   6.052  0.8598 -2.6169  0.5078
  129OSM     NF13860   1.029   0.321   5.840  0.0395 -0.2666  0.8761
  129OSM    HNF13861   0.952   0.303   5.780  0.9418  0.1550 -0.4572
  129OSM    C2S13862   1.061   0.215   5.928 -0.6413 -0.3843  0.4963
  129OSM    H2S13863   1.168   0.188   5.921  0.1422  2.5055 -0.1183
  129OSM    C3S13864   0.985   0.074   5.900 -0.2394  0.0469  0.1198
  129OSM    H3S13865   0.877   0.101   5.904  0.2324  1.9134  1.7776
  129OSM     O313866   1.008  -0.022   6.005 -0.4923 -0.2566 -0.4121
  129OSM    HO313867   1.013   0.034   6.083  0.6467  0.6828 -1.1292
  129OSM    C4S13868   1.036   0.025   5.762  0.2561  0.7645  0.4684
  129OSM    H4S13869   0.968   0.052   5.680 -0.5285 -1.0852  0.4446
  129OSM    C5S13870   1.146  -0.051   5.737 -0.4221  0.1526  0.1234
  129OSM    H5S13871   1.212  -0.095   5.812  0.3319 -1.5419 -1.4602
  129OSM    C6S13872   1.201  -0.095   5.597 -0.0876  0.2242  0.4625
  129OSM    H6S13873   1.231  -0.202   5.598  0.8954  0.5013  1.7061
  129OSM    H6T13874   1.286  -0.031   5.568  0.0855 -0.9829 -2.0104
  129OSM    C7S13875   1.100  -0.053   5.485 -0.7166  0.3326 -0.4512
  129OSM    H7S13876   1.061   0.051   5.492 -1.6190  0.1309 -2.1153
  129OSM    H7T13877   1.012  -0.120   5.495 -2.0585  1.9207 -1.1289
  129OSM    C8S13878   1.154  -0.082   5.348  0.1722 -0.5204  0.2110
  129OSM    H8S13879   1.187  -0.188   5.349  2.4925  0.1454  1.4323
  129OSM    H8T13880   1.235  -0.013   5.315 -1.7939  1.3679 -0.9403
  129OSM    C9S13881   1.045  -0.064   5.231  0.5081 -0.2910  0.5327
  129OSM    H9S13882   1.035   0.047   5.227  0.5629 -0.2807  0.6634
  129OSM    H9T13883   0.952  -0.115   5.264  0.8884 -0.8669  0.7276
  129OSM   C10S13884   1.086  -0.123   5.094  0.3664  0.1336  0.6502
  129OSM   H10S13885   1.092  -0.234   5.093 -0.2812  0.0932  0.3836
  129OSM   H10T13886   1.188  -0.082   5.084  0.2874  0.3641  0.7623
  129OSM   C11S13887   1.004  -0.068   4.981 -0.0731 -0.5582  0.6803
  129OSM   H11S13888   1.004   0.043   4.979 -1.2538 -0.5253  1.4105
  129OSM   H11T13889   0.901  -0.108   4.978  0.1247 -1.0819 -2.5512
  129OSM   C12S13890   1.061  -0.096   4.838 -0.4590 -0.5346  0.2256
  129OSM   H12S13891   1.075  -0.202   4.808 -4.1149 -0.7651 -1.1888
  129OSM   H12T13892   1.165  -0.060   4.827 -0.3587 -1.3357 -1.7480
  129OSM   C13S13893   0.978  -0.022   4.731  0.1271  0.1969 -0.0150
  129OSM   H13S13894   0.978   0.088   4.750  0.1836  0.0904  0.6048
  129OSM   H13T13895   0.872  -0.054   4.743  0.2470 -0.4851 -0.6716
  129OSM   C14S13896   1.038  -0.039   4.587  0.7271  0.0358 -0.3189
  129OSM   H14S13897   1.054  -0.144   4.555 -1.9029 -0.8119  0.8900
  129OSM   H14T13898   1.130   0.023   4.573 -0.5240  1.9354 -0.4315
  129OSM   C15S13899   0.937   0.023   4.483 -0.3962 -0.9987 -0.0282
  129OSM   H15S13900   0.935   0.134   4.487 -0.5536 -0.9812 -0.5174
  129OSM   H15T13901   0.835  -0.013   4.507 -1.1181  0.9503 -0.0696
  129OSM   C16S13902   0.972  -0.031   4.341  0.1542 -0.2816  0.4747
  129OSM   H16S13903   0.930  -0.134   4.345  0.4412 -0.4521 -0.5678
  129OSM   H16T13904   1.081  -0.046   4.325  0.4198  0.4249  1.4908
  129OSM   C17S13905   0.907   0.055   4.229 -0.0888 -0.5990  1.0235
  129OSM   H17S13906   0.945   0.158   4.219 -2.7601  0.3125 -0.7122
  129OSM   H17T13907   0.798   0.068   4.246 -0.4292 -2.1070  0.1783
  129OSM   C18S13908   0.919  -0.010   4.084  0.3339 -0.1920  0.1083
  129OSM   H18S13909   0.876   0.061   4.009  1.4580 -0.0817 -0.4538
  129OSM   H18T13910   0.881  -0.114   4.071  3.4186 -1.3381 -0.4115
  129OSM   H18U13911   1.027  -0.023   4.062  0.3391 -0.2776  0.1846
  129OSM    C1F13912   1.108   0.429   5.831 -0.3132 -0.0565 -1.1925
  129OSM     OF13913   1.210   0.433   5.896 -0.2026  0.2089  0.0269
  129OSM    C2F13914   1.048   0.540   5.743  0.2991 -0.0044  0.1648
  129OSM    H2F13915   0.978   0.591   5.812 -0.6196 -0.4956 -0.3731
  129OSM    H2G13916   0.997   0.497   5.654  0.8884  0.2804 -0.3224
  129OSM    C3F13917   1.156   0.645   5.697  0.2584 -0.4610  0.4502
  129OSM    H3F13918   1.205   0.597   5.609  1.1446 -0.8231  1.1249
  129OSM    H3G13919   1.224   0.661   5.783 -0.3113  0.8698  0.6689
  129OSM    C4F13920   1.091   0.780   5.651 -0.5028  0.8309 -0.5481
  129OSM    H4F13921   1.178   0.849   5.646 -0.6103  0.9478 -0.8868
  129OSM    H4G13922   1.012   0.811   5.722  0.3497  1.7381  0.0416
  129OSM    C5F13923   1.033   0.781   5.512  0.2582  0.5339  0.2120
  129OSM    H5F13924   0.969   0.690   5.511  0.7797  0.1552  0.5807
  129OSM    H5G13925   1.115   0.753   5.443  1.3391  0.2918  1.5353
  129OSM    C6F13926   0.967   0.911   5.482  0.7581 -0.2351  0.1273
  129OSM    H6F13927   1.041   0.990   5.457 -0.3205 -0.1387 -3.2558
  129OSM    H6G13928   0.907   0.944   5.569  0.4322  0.0681 -0.2095
  129OSM    C7F13929   0.864   0.912   5.370 -0.4058  0.1607  0.2500
  129OSM    H7F13930   0.846   1.020   5.354 -0.0610  0.3926  1.3821
  129OSM    H7G13931   0.773   0.864   5.413 -0.0507 -0.8039 -0.0514
  129OSM    C8F13932   0.908   0.839   5.240 -0.2203 -0.1241 -0.1951
  129OSM    H8F13933   0.824   0.820   5.169 -0.7867 -0.4617  0.5525
  129OSM    H8G13934   0.934   0.738   5.280 -2.4625 -0.2058  1.2047
  129OSM    C9F13935   1.018   0.908   5.159 -0.2473 -0.3065  0.4145
  129OSM    H9F13936   1.110   0.928   5.216  0.1770 -0.2940 -0.2617
  129OSM   C10F13937   1.019   0.940   5.030 -0.1853 -0.2817 -0.0990
  129OSM   H10F13938   1.114   0.973   4.986 -0.3149  0.9119  0.4734
  129OSM   C11F13939   0.910   0.924   4.923 -0.1800 -0.9155  0.5407
  129OSM   H11F13940   0.883   1.024   4.883 -2.2420 -1.1016  1.3169
  129OSM   H11G13941   0.822   0.878   4.973 -0.9346  1.4828  1.5554
  129OSM   C12F13942   0.935   0.826   4.809 -0.2761 -0.2375 -0.4326
  129OSM   H12F13943   0.843   0.773   4.775 -0.8232  1.3486 -1.5760
  129OSM   H12G13944   1.003   0.746   4.845 -0.4819  0.5601  1.9405
  129OSM   C13F13945   1.003   0.900   4.699  0.1808  0.0758  0.2456
  129OSM   H13F13946   1.085   0.960   4.744 -0.7397  1.7678 -0.2260
  129OSM   H13G13947   0.939   0.975   4.649 -0.2381  0.6430  1.5905
  129OSM   C14F13948   1.050   0.813   4.584 -0.5624 -0.3947 -0.2592
  129OSM   H14F13949   1.113   0.729   4.621  1.4869  0.6725 -1.1377
  129OSM   H14G13950   1.096   0.886   4.514  1.2680 -0.3702  0.9136
  129OSM   C15F13951   0.942   0.748   4.494 -0.2091  0.7025  0.6805
  129OSM   H15F13952   0.874   0.827   4.455 -0.5155 -0.5933 -1.5427
  129OSM   H15G13953   0.885   0.677   4.559  0.8499 -1.7183 -0.8755
  129OSM   C16F13954   1.011   0.670   4.378 -0.1215 -0.0227 -0.2597
  129OSM   H16F13955   1.096   0.609   4.414  1.5787  2.4566  0.2042
  129OSM   H16G13956   1.050   0.744   4.305  0.2005  1.5060  1.3960
  129OSM   C17F13957   0.918   0.576   4.295  0.1046 -0.4414  0.0201
  129OSM   H17F13958   0.871   0.644   4.220  0.3750  2.6464  2.4493
  129OSM   H17G13959   0.841   0.534   4.363 -0.6075  0.1938 -0.3812
  129OSM   C18F13960   0.984   0.460   4.226 -0.6993 -0.1073 -0.0932
  129OSM   H18F13961   0.905   0.409   4.166  1.1880 -1.7234 -1.3339
  129OSM   H18G13962   1.035   0.401   4.306 -1.1653  0.5302  0.6883
  129OSM   H18H13963   1.069   0.495   4.164  0.2755 -2.0230  0.0774
  130OSM      N13964   1.904   4.097   6.765 -0.1026  0.3782 -0.3221
  130OSM    C1513965   1.815   3.986   6.821 -0.2458 -0.1821 -0.4225
  130OSM   H15A13966   1.726   4.023   6.869  0.5258  0.7097  0.3530
  130OSM   H15B13967   1.873   3.934   6.895  1.8450  1.9588 -0.4413
  130OSM   H15C13968   1.790   3.919   6.739 -1.0632 -0.4166  0.0044
  130OSM    C1413969   1.845   4.174   6.654 -0.5650  0.1331 -0.0250
  130OSM   H14A13970   1.820   4.097   6.582 -0.1011  1.4628 -1.6456
  130OSM   H14B13971   1.914   4.246   6.614 -0.3823 -0.8669 -1.5677
  130OSM   H14C13972   1.748   4.211   6.684 -0.8407  0.0140 -0.7389
  130OSM    C1313973   1.934   4.193   6.869  0.7081  0.6986 -0.5714
  130OSM   H13A13974   1.983   4.142   6.950  1.7748  0.6518 -1.2179
  130OSM   H13B13975   1.847   4.246   6.904  0.6456  0.8467 -0.9387
  130OSM   H13C13976   2.002   4.266   6.827  0.1204  2.1746  0.9452
  130OSM    C1213977   2.040   4.028   6.724 -0.1999 -0.3361  0.2244
  130OSM   H12A13978   2.077   3.986   6.816 -0.2370  2.3036  1.5415
  130OSM   H12B13979   2.103   4.102   6.677 -1.8338  1.5551  0.8463
  130OSM    C1113980   2.036   3.904   6.624 -0.5415 -0.8682 -0.1931
  130OSM   H11A13981   2.000   3.810   6.671 -0.5281 -0.5074  0.5513
  130OSM   H11B13982   2.141   3.876   6.604 -0.6268  0.2001 -2.4445
  130OSM      P13983   1.851   3.846   6.465  0.4697  0.2317  0.2980
  130OSM    O1313984   1.896   3.719   6.406 -0.1458  0.1222  0.3067
  130OSM    O1413985   1.761   3.827   6.580  0.4541 -0.7175  0.1095
  130OSM    O1113986   1.784   3.929   6.344 -0.2231  0.4357  0.1545
  130OSM    O1213987   1.975   3.937   6.504 -0.4640 -0.0395  0.2351
  130OSM    C1S13988   1.852   3.973   6.231 -0.3146 -0.4237  0.4843
  130OSM    H1S13989   1.962   3.956   6.228  0.0100  1.5569 -1.0308
  130OSM    H1T13990   1.851   4.084   6.226 -1.2798 -0.4752 -1.9481
  130OSM     NF13991   1.895   3.910   5.985  0.7718  0.2160 -0.5523
  130OSM    HNF13992   1.907   3.999   5.942 -1.0171  0.6101 -0.2966
  130OSM    C2S13993   1.804   3.899   6.098  0.3225  0.1959  0.2816
  130OSM    H2S13994   1.802   3.792   6.130 -1.0901  0.0602 -0.2104
  130OSM    C3S13995   1.661   3.937   6.065 -0.7842  0.3763  0.2463
  130OSM    H3S13996   1.654   4.047   6.050 -0.5858  0.3906  0.2669
  130OSM     O313997   1.568   3.899   6.169  0.0349 -0.4765  0.1032
  130OSM    HO313998   1.622   3.916   6.246 -1.6142  1.3013  0.9531
  130OSM    C4S13999   1.623   3.856   5.945 -0.0937  0.1188  0.4908
  130OSM    H4S14000   1.638   3.748   5.933 -1.7002 -0.0070 -0.8127
  130OSM    C5S14001   1.588   3.913   5.833  0.2528  0.3720 -0.0883
  130OSM    H5S14002   1.573   4.020   5.817 -0.5686  0.4327  1.0082
  130OSM    C6S14003   1.566   3.826   5.712 -0.3145  0.3402 -0.4165
  130OSM    H6S14004   1.475   3.861   5.659  0.2861  1.3480 -0.8007
  130OSM    H6T14005   1.562   3.718   5.739 -0.6774  0.4169 -0.1626
  130OSM    C7S14006   1.688   3.842   5.613  0.0230  0.5513  0.3529
  130OSM    H7S14007   1.772   3.833   5.686  0.6491  2.0337 -0.1464
  130OSM    H7T14008   1.684   3.943   5.566 -3.1336 -0.3932 -1.7411
  130OSM    C8S14009   1.721   3.735   5.509 -0.0678  0.1111 -0.3103
  130OSM    H8S14010   1.699   3.629   5.535  0.7201 -0.5709 -2.1992
  130OSM    H8T14011   1.832   3.740   5.510 -0.0597 -0.1456  0.1170
  130OSM    C9S14012   1.671   3.773   5.366  0.0785  0.3305  0.4464
  130OSM    H9S14013   1.703   3.875   5.336 -5.4614  1.9876 -0.9505
  130OSM    H9T14014   1.561   3.788   5.364  0.2445  1.6925  0.5543
  130OSM   C10S14015   1.699   3.673   5.263  0.6261  0.6694  0.0226
  130OSM   H10S14016   1.625   3.594   5.287  2.3345 -1.3584 -0.9983
  130OSM   H10T14017   1.798   3.622   5.267 -0.4458 -1.4835  1.3818
  130OSM   C11S14018   1.675   3.718   5.113 -0.1033  0.7496  0.0136
  130OSM   H11S14019   1.744   3.798   5.079  2.1146 -2.3320 -3.4150
  130OSM   H11T14020   1.570   3.755   5.118 -0.4747 -0.3292  0.5306
  130OSM   C12S14021   1.694   3.602   5.018  0.1505 -0.2684 -0.4547
  130OSM   H12S14022   1.645   3.508   5.049  2.4046 -0.2696  3.9983
  130OSM   H12T14023   1.801   3.570   5.017  0.0301 -0.7221  0.3897
  130OSM   C13S14024   1.652   3.649   4.881 -0.2171 -0.6260  0.4907
  130OSM   H13S14025   1.549   3.692   4.878  0.7835  1.8447 -0.6882
  130OSM   H13T14026   1.640   3.559   4.817 -0.3131 -0.8007  0.7516
  130OSM   C14S14027   1.747   3.742   4.803  0.1679 -0.3566 -0.3422
  130OSM   H14S14028   1.826   3.683   4.752  0.5239 -2.6708  2.6094
  130OSM   H14T14029   1.803   3.799   4.880  0.3638 -0.9024 -0.0735
  130OSM   C15S14030   1.672   3.830   4.699  0.0894  0.4833  0.1089
  130OSM   H15S14031   1.587   3.777   4.652 -0.6187 -0.3527  2.2031
  130OSM   H15T14032   1.739   3.868   4.619 -2.1152  1.6321 -1.2994
  130OSM   C16S14033   1.608   3.946   4.779  0.4942 -0.0309 -0.1157
  130OSM   H16S14034   1.683   4.014   4.825  0.8078 -1.0307  0.8932
  130OSM   H16T14035   1.533   3.904   4.849 -0.4647  2.5315  0.4740
  130OSM   C17S14036   1.518   4.032   4.691 -0.0932  0.8194 -0.3452
  130OSM   H17S14037   1.474   4.116   4.749  1.3703  3.4161 -2.7527
  130OSM   H17T14038   1.434   3.966   4.659 -0.3768  0.3499  1.2656
  130OSM   C18S14039   1.589   4.086   4.569 -0.3963  0.4795  0.2265
  130OSM   H18S14040   1.685   4.136   4.596 -0.8167  1.1396  0.5262
  130OSM   H18T14041   1.528   4.164   4.518 -0.7771  0.5979  0.8525
  130OSM   H18U14042   1.614   4.000   4.502 -0.8731  0.2509  0.3391
  130OSM    C1F14043   2.002   3.834   5.986  0.3002 -1.1234 -1.1890
  130OSM     OF14044   2.016   3.745   6.066  0.0371  0.0924  0.1229
  130OSM    C2F14045   2.112   3.861   5.888  0.8801  0.1591  0.2687
  130OSM    H2F14046   2.170   3.767   5.887 -1.3054 -1.2484 -0.8228
  130OSM    H2G14047   2.170   3.954   5.909  1.6978 -0.0727 -0.8499
  130OSM    C3F14048   2.044   3.882   5.741 -0.1203  1.1800 -0.2346
  130OSM    H3F14049   1.979   3.972   5.736  0.1386  1.3550 -0.4564
  130OSM    H3G14050   1.994   3.784   5.730  0.5611  0.8520 -0.4594
  130OSM    C4F14051   2.144   3.888   5.626 -0.4725 -0.9590 -0.4839
  130OSM    H4F14052   2.235   3.829   5.649  2.2272  2.1188 -2.4680
  130OSM    H4G14053   2.182   3.992   5.630  0.4680 -1.3178  0.4499
  130OSM    C5F14054   2.090   3.843   5.487 -0.3565 -0.5430  0.8682
  130OSM    H5F14055   2.013   3.915   5.451  2.9518  1.5185 -2.9805
  130OSM    H5G14056   2.050   3.743   5.515  0.7738 -1.1884  0.2655
  130OSM    C6F14057   2.193   3.815   5.376 -0.0516 -0.0823  0.3028
  130OSM    H6F14058   2.168   3.723   5.319 -2.6896  1.3051 -1.0064
  130OSM    H6G14059   2.282   3.802   5.440 -1.3209 -0.8727  1.9882
  130OSM    C7F14060   2.211   3.925   5.268  0.1948  1.2503  0.1938
  130OSM    H7F14061   2.298   3.902   5.202  1.1708 -1.4955  2.2696
  130OSM    H7G14062   2.222   4.020   5.325 -1.9297  1.7400 -0.1046
  130OSM    C8F14063   2.086   3.940   5.172 -0.6911  0.3684 -0.1525
  130OSM    H8F14064   2.096   4.034   5.113  1.7568 -0.3678 -1.0139
  130OSM    H8G14065   2.009   3.968   5.246  1.3995  0.2991  2.1655
  130OSM    C9F14066   2.050   3.812   5.095  0.4266  0.2173  0.5145
  130OSM    H9F14067   1.963   3.755   5.131 -0.7446  1.9838  0.5995
  130OSM   C10F14068   2.121   3.766   4.978 -0.7692 -0.3640  0.3543
  130OSM   H10F14069   2.084   3.677   4.926  1.4091 -2.6072  2.3899
  130OSM   C11F14070   2.232   3.839   4.907  0.3547 -0.4801  1.1009
  130OSM   H11F14071   2.316   3.769   4.887  2.2099  0.6420  4.2672
  130OSM   H11G14072   2.272   3.915   4.977 -0.4429 -1.0365  2.1922
  130OSM   C12F14073   2.184   3.908   4.785 -0.5227  0.0883 -0.0399
  130OSM   H12F14074   2.104   3.984   4.798 -1.1084 -0.7272  1.3822
  130OSM   H12G14075   2.122   3.831   4.734 -0.9683  0.7146 -0.4603
  130OSM   C13F14076   2.296   3.960   4.694 -0.5589  0.0459  0.6022
  130OSM   H13F14077   2.380   3.889   4.683 -0.7433 -0.6326  2.9876
  130OSM   H13G14078   2.325   4.055   4.745  1.1559  0.7715 -1.5712
  130OSM   C14F14079   2.237   3.993   4.550 -0.1765  0.9109  0.5026
  130OSM   H14F14080   2.187   4.091   4.564  0.2960  1.1165  0.7648
  130OSM   H14G14081   2.163   3.915   4.521 -0.1401  0.9882  0.2045
  130OSM   C15F14082   2.341   4.017   4.441 -0.1163  0.3979  0.6389
  130OSM   H15F14083   2.389   3.921   4.415  0.2385  1.2533 -2.0899
  130OSM   H15G14084   2.425   4.077   4.482 -0.9115  1.0736  1.3257
  130OSM   C16F14085   2.272   4.079   4.319  0.1262 -0.2758  0.1532
  130OSM   H16F14086   2.172   4.034   4.301  0.4910 -0.5963 -1.2563
  130OSM   H16G14087   2.329   4.054   4.226  0.3829 -0.1759  0.2829
  130OSM   C17F14088   2.272   4.229   4.337 -0.0885 -0.4084  0.2077
  130OSM   H17F14089   2.255   4.253   4.444 -1.9570  0.4051 -0.2384
  130OSM   H17G14090   2.180   4.270   4.290  0.2523 -0.3039 -0.3790
  130OSM   C18F14091   2.400   4.298   4.284  0.0111  0.1849 -0.5749
  130OSM   H18F14092   2.395   4.409   4.290 -0.9211  0.1471 -0.5678
  130OSM   H18G14093   2.403   4.275   4.176  3.2304  1.0480 -0.7816
  130OSM   H18H14094   2.490   4.255   4.333 -0.3338  1.6182  1.4711
  131OSM      N14095   1.665   0.722   6.146  0.1289 -0.0110 -0.3826
  131OSM    C1514096   1.520   0.717   6.200  0.3391  0.2521 -0.6327
  131OSM   H15A14097   1.490   0.810   6.244  2.4737  0.9040 -0.4154
  131OSM   H15B14098   1.513   0.644   6.280 -0.2076 -0.6284 -1.4607
  131OSM   H15C14099   1.448   0.687   6.126  2.4712  0.2800 -2.8718
  131OSM    C1414100   1.677   0.592   6.066 -0.2698 -0.3395 -0.0448
  131OSM   H14A14101   1.769   0.572   6.013 -1.1461  0.0981 -1.8065
  131OSM   H14B14102   1.593   0.587   5.999 -0.9299 -0.7668  0.7932
  131OSM   H14C14103   1.668   0.507   6.133  0.7949  1.1331  2.0906
  131OSM    C1314104   1.675   0.835   6.052  0.2520 -0.1622 -0.3652
  131OSM   H13A14105   1.772   0.830   6.006 -0.7415 -3.1809 -2.4058
  131OSM   H13B14106   1.660   0.935   6.090 -1.0637 -0.0651 -1.0827
  131OSM   H13C14107   1.601   0.818   5.975 -0.0400 -2.5527  0.3598
  131OSM    C1214108   1.760   0.719   6.267  0.5203  0.1644 -0.0836
  131OSM   H12A14109   1.726   0.796   6.334 -1.9051 -1.0608  0.1992
  131OSM   H12B14110   1.861   0.743   6.236  0.4088 -0.4962 -1.0125
  131OSM    C1114111   1.769   0.588   6.351 -0.6332 -0.3873 -0.3217
  131OSM   H11A14112   1.674   0.552   6.394  0.3947 -1.5430  1.0798
  131OSM   H11B14113   1.826   0.617   6.442 -0.8468  1.1020 -0.6319
  131OSM      P14114   1.981   0.476   6.223  0.0177  0.2755  0.2677
  131OSM    O1314115   2.032   0.617   6.221 -0.3569 -0.5231 -0.2202
  131OSM    O1414116   2.065   0.369   6.281 -0.2429 -0.4502  0.1407
  131OSM    O1114117   1.941   0.431   6.081  0.3622 -0.4254  0.0053
  131OSM    O1214118   1.836   0.475   6.284 -0.4709  0.0593  0.0881
  131OSM    C1S14119   1.875   0.306   6.053 -0.0548 -0.2149  0.5420
  131OSM    H1S14120   1.767   0.320   6.076 -0.0374  3.0241 -0.8147
  131OSM    H1T14121   1.897   0.221   6.120 -0.0718 -1.5962 -1.1505
  131OSM     NF14122   1.789   0.166   5.879  0.5595 -0.1883  0.4902
  131OSM    HNF14123   1.798   0.071   5.907  0.5070 -0.4488 -0.3477
  131OSM    C2S14124   1.901   0.248   5.909 -0.0402 -0.5371 -0.1605
  131OSM    H2S14125   1.901   0.334   5.839 -0.8749  0.8303  1.4476
  131OSM    C3S14126   2.039   0.180   5.913  0.0834  0.6097 -0.4075
  131OSM    H3S14127   2.040   0.107   5.997 -2.1234 -0.9210 -1.5898
  131OSM     O314128   2.144   0.277   5.942  0.3295 -0.0768  0.0181
  131OSM    HO314129   2.092   0.350   5.975 -1.7534 -1.3009 -0.3867
  131OSM    C4S14130   2.065   0.103   5.785 -0.8683 -0.0437 -0.5454
  131OSM    H4S14131   2.016   0.005   5.772 -0.4772 -1.0895  4.2566
  131OSM    C5S14132   2.136   0.152   5.683  0.3859 -0.6235  0.9562
  131OSM    H5S14133   2.188   0.248   5.691 -1.0014  0.4208 -1.5397
  131OSM    C6S14134   2.166   0.091   5.548  0.6524  0.1623 -0.4546
  131OSM    H6S14135   2.271   0.057   5.540  1.4161  1.5470  2.3869
  131OSM    H6T14136   2.147   0.164   5.466  0.5293 -0.7813 -1.2902
  131OSM    C7S14137   2.102  -0.048   5.519  0.2922  0.0006  0.5747
  131OSM    H7S14138   1.993  -0.049   5.539  0.0109 -1.7013 -0.7617
  131OSM    H7T14139   2.146  -0.112   5.598  2.7154  0.5840 -0.1959
  131OSM    C8S14140   2.149  -0.087   5.371  0.3576  0.1088 -0.7161
  131OSM    H8S14141   2.159  -0.197   5.359  1.0928 -0.2173  2.1857
  131OSM    H8T14142   2.256  -0.060   5.359  0.5353  0.4783  1.2662
  131OSM    C9S14143   2.065  -0.032   5.254 -0.0576 -0.1154 -0.0194
  131OSM    H9S14144   2.045   0.076   5.274 -0.7543 -0.0751 -0.8884
  131OSM    H9T14145   1.968  -0.085   5.263 -0.3516  0.3739 -0.2429
  131OSM   C10S14146   2.131  -0.045   5.117  0.1759 -0.0818  0.0377
  131OSM   H10S14147   2.196  -0.134   5.128 -1.3232 -1.1709  0.2692
  131OSM   H10T14148   2.190   0.050   5.117 -0.2119  0.1628  0.6376
  131OSM   C11S14149   2.026  -0.039   5.013 -0.0050 -0.0679  0.4512
  131OSM   H11S14150   1.968   0.055   5.028  1.2702  0.4050  3.0717
  131OSM   H11T14151   1.977  -0.137   5.032 -0.1509  0.2950  2.1561
  131OSM   C12S14152   2.085  -0.056   4.872 -0.7107  0.0432 -0.4128
  131OSM   H12S14153   2.143  -0.150   4.883 -1.7631 -0.4016  2.0695
  131OSM   H12T14154   2.160   0.025   4.854 -0.2880  0.4662  2.6557
  131OSM   C13S14155   1.969  -0.067   4.768 -1.1191 -0.0462  0.0696
  131OSM   H13S14156   1.900   0.020   4.779  0.7675  1.4736  0.3188
  131OSM   H13T14157   1.912  -0.160   4.789 -1.4658  0.2476  0.4433
  131OSM   C14S14158   2.025  -0.066   4.617  0.0136 -0.3533 -1.1033
  131OSM   H14S14159   2.070   0.035   4.603 -2.7242  1.1364 -0.0214
  131OSM   H14T14160   1.937  -0.073   4.549 -0.9305  0.8300 -0.0491
  131OSM   C15S14161   2.131  -0.170   4.585  0.5449  0.5724  0.4779
  131OSM   H15S14162   2.102  -0.270   4.625 -1.7476  0.0340 -2.1931
  131OSM   H15T14163   2.223  -0.143   4.641  0.7279  2.8528 -0.7994
  131OSM   C16S14164   2.161  -0.173   4.433 -0.4720 -0.5202 -0.5956
  131OSM   H16S14165   2.245  -0.241   4.411  1.3397  1.8443 -1.4597
  131OSM   H16T14166   2.173  -0.067   4.400 -2.2825  0.1477  0.7300
  131OSM   C17S14167   2.054  -0.238   4.345 -0.3938  0.3886  0.6652
  131OSM   H17S14168   1.976  -0.159   4.335  1.8649  2.8245  1.4059
  131OSM   H17T14169   2.005  -0.324   4.396 -1.0433  0.5876  0.3996
  131OSM   C18S14170   2.110  -0.294   4.207 -0.4348 -0.1669  0.3719
  131OSM   H18S14171   2.157  -0.208   4.155 -1.2533 -0.7264 -1.3780
  131OSM   H18T14172   2.026  -0.323   4.139  0.5404  0.3930 -1.1334
  131OSM   H18U14173   2.183  -0.377   4.215 -1.2000 -0.8957  0.0161
  131OSM    C1F14174   1.672   0.218   5.851 -0.4642  0.0348 -0.3184
  131OSM     OF14175   1.652   0.340   5.859  0.0426  0.4524  0.3465
  131OSM    C2F14176   1.569   0.119   5.799 -0.0172  0.3949  0.7130
  131OSM    H2F14177   1.538   0.052   5.881  0.3101 -1.5556 -0.6735
  131OSM    H2G14178   1.621   0.049   5.729 -3.0769 -0.0422 -1.2892
  131OSM    C3F14179   1.450   0.183   5.727 -0.2659 -0.3625 -0.3169
  131OSM    H3F14180   1.395   0.246   5.800 -0.8125 -0.4695 -0.6320
  131OSM    H3G14181   1.389   0.091   5.712  0.4762 -0.7745 -0.9405
  131OSM    C4F14182   1.485   0.268   5.608 -0.5328 -1.4187  0.2631
  131OSM    H4F14183   1.558   0.216   5.542 -2.0789  0.3990 -3.1594
  131OSM    H4G14184   1.535   0.364   5.637 -2.2928 -1.3308  3.3876
  131OSM    C5F14185   1.355   0.292   5.530  0.4891 -0.0322  0.9686
  131OSM    H5F14186   1.273   0.333   5.592 -2.0404 -2.0631 -0.8332
  131OSM    H5G14187   1.314   0.199   5.485 -2.5144  0.9079  1.5498
  131OSM    C6F14188   1.377   0.390   5.409 -0.2733  0.5422 -0.4526
  131OSM    H6F14189   1.462   0.351   5.349 -0.4836 -0.6183 -0.0322
  131OSM    H6G14190   1.400   0.495   5.437 -1.4042  0.7598 -0.3228
  131OSM    C7F14191   1.247   0.383   5.329 -0.4345 -0.4625 -0.4415
  131OSM    H7F14192   1.162   0.425   5.386  0.5023 -0.3276  0.8990
  131OSM    H7G14193   1.223   0.278   5.300  2.1854 -1.0615 -0.7245
  131OSM    C8F14194   1.236   0.477   5.206  0.0110  0.7349 -0.1230
  131OSM    H8F14195   1.256   0.579   5.245  0.8359  0.9756 -1.1433
  131OSM    H8G14196   1.135   0.467   5.161  0.0146  1.3861 -0.2777
  131OSM    C9F14197   1.350   0.447   5.111 -0.5530  0.4306  0.3665
  131OSM    H9F14198   1.451   0.479   5.142  0.0636  0.5382 -1.5478
  131OSM   C10F14199   1.344   0.390   4.983 -0.2494 -0.6955  0.4794
  131OSM   H10F14200   1.437   0.376   4.925 -1.3101  2.9603 -2.5636
  131OSM   C11F14201   1.217   0.335   4.917 -1.0662 -0.1397 -0.1389
  131OSM   H11F14202   1.126   0.331   4.981 -0.5201  1.2552  0.7733
  131OSM   H11G14203   1.243   0.230   4.889  1.1537  0.6752 -1.3667
  131OSM   C12F14204   1.182   0.423   4.799 -0.3759  0.1176 -0.1185
  131OSM   H12F14205   1.183   0.531   4.826 -0.5218  0.1877 -0.3920
  131OSM   H12G14206   1.074   0.410   4.774 -1.2317  1.4584  2.4465
  131OSM   C13F14207   1.268   0.411   4.671 -0.6628  0.7539  0.4211
  131OSM   H13F14208   1.377   0.430   4.686 -0.6941  1.9123 -0.6229
  131OSM   H13G14209   1.242   0.495   4.602 -0.2187  0.8247  0.3360
  131OSM   C14F14210   1.256   0.277   4.595  0.2625  0.3116  0.1680
  131OSM   H14F14211   1.174   0.282   4.520 -0.0326 -0.2594  0.4439
  131OSM   H14G14212   1.218   0.202   4.668 -0.0765  2.2500  2.0728
  131OSM   C15F14213   1.380   0.248   4.513 -0.9128 -0.4837 -0.2677
  131OSM   H15F14214   1.366   0.147   4.468 -1.0687  0.5057 -2.5867
  131OSM   H15G14215   1.466   0.246   4.583 -1.2200 -0.0186  0.1328
  131OSM   C16F14216   1.418   0.348   4.398  0.1383  0.1154 -0.4934
  131OSM   H16F14217   1.523   0.331   4.366 -0.0422  1.2845 -1.7958
  131OSM   H16G14218   1.419   0.451   4.441 -1.4908  0.7802 -1.9195
  131OSM   C17F14219   1.324   0.335   4.276 -0.7661 -0.2146 -0.4838
  131OSM   H17F14220   1.347   0.417   4.205  1.2625 -2.6630 -2.9120
  131OSM   H17G14221   1.225   0.360   4.318 -0.7115  1.7757 -1.4369
  131OSM   C18F14222   1.336   0.192   4.215  0.4754 -0.0671  0.3216
  131OSM   H18F14223   1.281   0.190   4.119  0.0571  0.9317  0.5282
  131OSM   H18G14224   1.290   0.118   4.283  0.3348 -1.1460 -0.9216
  131OSM   H18H14225   1.443   0.162   4.215  1.1600  2.0332  1.9842
  132OSM      N14226   2.342   1.630   6.629 -0.0134 -0.0269 -0.0535
  132OSM    C1514227   2.392   1.502   6.562 -0.0443 -0.4876 -0.5454
  132OSM   H15A14228   2.374   1.413   6.622  1.0127  0.9993  2.1704
  132OSM   H15B14229   2.499   1.507   6.552  0.0254  0.6864  0.4682
  132OSM   H15C14230   2.345   1.490   6.466 -1.7937  1.6807 -0.0156
  132OSM    C1414231   2.197   1.602   6.638  0.2306 -0.7124 -0.4336
  132OSM   H14A14232   2.157   1.586   6.539 -0.6477 -2.5652  0.1806
  132OSM   H14B14233   2.154   1.680   6.700 -0.3854 -1.9549  0.7387
  132OSM   H14C14234   2.167   1.516   6.696  1.6147 -0.4601  0.7308
  132OSM    C1314235   2.402   1.654   6.769 -0.2516  0.3234  0.4053
  132OSM   H13A14236   2.504   1.687   6.756 -1.0318  2.5790 -0.3430
  132OSM   H13B14237   2.401   1.562   6.827 -1.2636  1.8563  2.9841
  132OSM   H13C14238   2.346   1.726   6.827 -2.9694 -2.2450  1.2159
  132OSM    C1214239   2.351   1.757   6.545  0.2869  0.4102 -0.3135
  132OSM   H12A14240   2.446   1.794   6.581  0.9556 -2.6506  1.3600
  132OSM   H12B14241   2.273   1.822   6.582  0.2461 -0.4763  1.1875
  132OSM    C1114242   2.363   1.766   6.386  0.2864  0.2813  0.2402
  132OSM   H11A14243   2.367   1.870   6.349  3.7827  0.3831  0.5693
  132OSM   H11B14244   2.269   1.721   6.347  0.6618 -0.3465  0.0351
  132OSM      P14245   2.613   1.737   6.327  0.3223  0.1073  0.2300
  132OSM    O1314246   2.618   1.876   6.382 -1.1907 -0.1872 -0.6009
  132OSM    O1414247   2.705   1.637   6.383 -0.3800 -0.2579  0.2122
  132OSM    O1114248   2.638   1.744   6.173 -0.1926 -0.3448  0.2979
  132OSM    O1214249   2.467   1.674   6.343  0.1506  0.6254  0.0905
  132OSM    C1S14250   2.556   1.659   6.094  0.6408 -0.3812  0.6027
  132OSM    H1S14251   2.450   1.667   6.126  0.1133 -1.6578 -0.7126
  132OSM    H1T14252   2.588   1.553   6.102 -0.9557 -0.9066  0.3323
  132OSM     NF14253   2.458   1.635   5.867  0.1876  0.0346 -0.5390
  132OSM    HNF14254   2.476   1.541   5.838 -1.1923 -0.0219 -1.3320
  132OSM    C2S14255   2.570   1.699   5.940 -1.2559 -0.4185  0.0283
  132OSM    H2S14256   2.553   1.809   5.933 -2.1860 -0.4630  1.3930
  132OSM    C3S14257   2.720   1.668   5.892  0.6999  0.8621 -0.2398
  132OSM    H3S14258   2.726   1.558   5.882 -2.1404  0.6515 -0.5776
  132OSM     O314259   2.823   1.714   5.978  0.7394 -0.3497  0.1443
  132OSM    HO314260   2.777   1.710   6.062 -2.2038 -0.5824 -1.3738
  132OSM    C4S14261   2.738   1.708   5.748 -0.9460  0.7504  0.7758
  132OSM    H4S14262   2.734   1.622   5.680  0.6917  0.3339  1.1565
  132OSM    C5S14263   2.775   1.827   5.706  0.1670 -0.4004  0.7456
  132OSM    H5S14264   2.791   1.901   5.785  0.9393  0.6161 -0.3209
  132OSM    C6S14265   2.805   1.868   5.562 -0.0190  0.2550  0.2821
  132OSM    H6S14266   2.901   1.924   5.561  1.0325 -1.3972  1.9962
  132OSM    H6T14267   2.735   1.945   5.525 -1.9195 -0.2887  2.5422
  132OSM    C7S14268   2.809   1.760   5.444  0.6669 -0.8334 -0.0302
  132OSM    H7S14269   2.709   1.713   5.434  0.0749 -0.0953  2.0501
  132OSM    H7T14270   2.879   1.684   5.486  0.2154 -1.5195 -0.4829
  132OSM    C8S14271   2.858   1.815   5.310 -0.7476  0.8986  0.2615
  132OSM    H8S14272   2.843   1.743   5.226 -0.4062 -0.0171  0.9621
  132OSM    H8T14273   2.969   1.820   5.314 -0.7059  0.2583  0.1051
  132OSM    C9S14274   2.798   1.951   5.269 -0.3574  0.5296  0.1299
  132OSM    H9S14275   2.820   2.035   5.337 -0.4878 -0.3040  1.2299
  132OSM    H9T14276   2.687   1.943   5.273 -0.2897 -1.2513 -0.3974
  132OSM   C10S14277   2.831   1.980   5.118 -0.1257 -0.2994  0.2178
  132OSM   H10S14278   2.788   2.077   5.087 -0.2156 -0.7967 -1.2993
  132OSM   H10T14279   2.777   1.891   5.078 -1.0773 -0.2641  1.3976
  132OSM   C11S14280   2.979   1.973   5.082 -0.3650 -0.2262 -0.6549
  132OSM   H11S14281   3.010   1.866   5.089  0.4173  0.0736  0.9985
  132OSM   H11T14282   3.034   2.027   5.161 -0.3380 -1.6981  0.3750
  132OSM   C12S14283   3.020   2.019   4.949 -0.3225 -0.5121  0.1634
  132OSM   H12S14284   3.012   2.129   4.933  0.5807 -0.5883 -0.9811
  132OSM   H12T14285   2.953   1.961   4.881 -0.2129  0.3566 -0.7142
  132OSM   C13S14286   3.155   1.975   4.904 -0.5206 -0.5745 -0.7079
  132OSM   H13S14287   3.149   1.868   4.876  2.2782 -0.6006 -1.4346
  132OSM   H13T14288   3.231   1.996   4.982  0.3111 -1.4836 -1.2657
  132OSM   C14S14289   3.200   2.048   4.779  0.7442  0.5246  0.1268
  132OSM   H14S14290   3.156   2.149   4.767 -2.3771 -0.7499 -0.1842
  132OSM   H14T14291   3.151   1.992   4.696 -0.5826  1.2779  0.3799
  132OSM   C15S14292   3.343   2.052   4.759 -0.5410 -0.3002 -0.2764
  132OSM   H15S14293   3.387   1.954   4.788 -1.6423 -0.7778 -0.1949
  132OSM   H15T14294   3.387   2.131   4.824  4.5741 -1.8135 -1.4435
  132OSM   C16S14295   3.392   2.091   4.624  0.3496  0.1611  0.4212
  132OSM   H16S14296   3.333   2.180   4.596  0.3232 -0.1241 -0.4380
  132OSM   H16T14297   3.368   2.003   4.561 -0.4295  1.0159 -0.4904
  132OSM   C17S14298   3.543   2.116   4.607 -0.0106  0.1364  0.1023
  132OSM   H17S14299   3.594   2.031   4.657  0.2954 -0.2136 -0.7957
  132OSM   H17T14300   3.563   2.218   4.647 -1.8502  1.4486 -2.0591
  132OSM   C18S14301   3.587   2.119   4.462  0.4248 -0.7531  0.5280
  132OSM   H18S14302   3.521   2.188   4.406  2.5379 -0.7701 -2.1654
  132OSM   H18T14303   3.592   2.022   4.408  0.4130 -0.6948  0.4220
  132OSM   H18U14304   3.688   2.163   4.457  1.5940 -3.2862  0.0389
  132OSM    C1F14305   2.328   1.659   5.891  0.8872  0.1172 -0.2888
  132OSM     OF14306   2.295   1.755   5.960 -0.2883 -0.0726 -0.1526
  132OSM    C2F14307   2.235   1.556   5.839  0.0364 -0.7390 -0.3958
  132OSM    H2F14308   2.189   1.502   5.925 -1.0824  1.3911  0.4000
  132OSM    H2G14309   2.289   1.482   5.775  0.0049 -0.7140 -0.4509
  132OSM    C3F14310   2.127   1.632   5.755  0.4823  0.1880 -0.7013
  132OSM    H3F14311   2.081   1.713   5.816 -0.0401  0.0180 -0.8658
  132OSM    H3G14312   2.049   1.556   5.730 -0.1621  0.3917  0.6232
  132OSM    C4F14313   2.183   1.701   5.630 -0.0802 -0.3197  0.1412
  132OSM    H4F14314   2.253   1.786   5.646  0.2550 -0.9054  2.0800
  132OSM    H4G14315   2.087   1.739   5.589 -0.2675  1.4818  2.0808
  132OSM    C5F14316   2.251   1.601   5.538 -0.7324 -0.6862 -0.0846
  132OSM    H5F14317   2.186   1.512   5.530 -1.6802  0.1109 -1.8197
  132OSM    H5G14318   2.353   1.570   5.571 -0.2633  0.9759  0.1571
  132OSM    C6F14319   2.279   1.648   5.393  0.2390 -0.0780 -0.2167
  132OSM    H6F14320   2.225   1.739   5.361  0.8737  0.7461  0.9943
  132OSM    H6G14321   2.270   1.566   5.318 -0.7244 -1.6350  1.5020
  132OSM    C7F14322   2.428   1.702   5.368  0.4565 -0.7764  0.1024
  132OSM    H7F14323   2.494   1.619   5.400  0.9413 -0.6415 -0.5411
  132OSM    H7G14324   2.426   1.783   5.444  2.1019 -0.4639 -0.1560
  132OSM    C8F14325   2.464   1.750   5.229 -0.1835 -1.1760 -0.1935
  132OSM    H8F14326   2.571   1.781   5.223 -0.2657 -0.8032  0.2057
  132OSM    H8G14327   2.412   1.844   5.201  2.7538  0.5886 -0.1258
  132OSM    C9F14328   2.436   1.632   5.138 -0.6273 -0.3193 -0.2818
  132OSM    H9F14329   2.501   1.544   5.158  1.2184  1.4683  2.3004
  132OSM   C10F14330   2.354   1.629   5.033  0.3529  0.1289  0.1467
  132OSM   H10F14331   2.349   1.543   4.964  0.0759 -0.0632  0.4026
  132OSM   C11F14332   2.252   1.739   4.986 -0.1667 -0.1861 -0.3998
  132OSM   H11F14333   2.294   1.828   4.935  2.7863 -0.8920  0.5946
  132OSM   H11G14334   2.180   1.771   5.065 -2.4742 -2.5870 -1.3637
  132OSM   C12F14335   2.151   1.672   4.891 -0.5052 -0.3018  0.5410
  132OSM   H12F14336   2.075   1.750   4.870 -0.5382 -0.4311  0.1865
  132OSM   H12G14337   2.095   1.585   4.933 -0.3637 -1.0042 -0.6879
  132OSM   C13F14338   2.211   1.639   4.753  0.2491 -0.0417 -0.0159
  132OSM   H13F14339   2.266   1.543   4.748  1.3791  0.6441 -1.5618
  132OSM   H13G14340   2.281   1.718   4.718 -0.6100  0.8301  0.2090
  132OSM   C14F14341   2.095   1.616   4.655 -1.0774 -0.3007  0.0954
  132OSM   H14F14342   2.051   1.718   4.655  1.4418  0.8990  2.1638
  132OSM   H14G14343   2.014   1.552   4.695  1.2185 -2.2559  1.9298
  132OSM   C15F14344   2.130   1.572   4.515  0.4286  0.0812  0.6049
  132OSM   H15F14345   2.036   1.550   4.460  1.1150 -2.8184  0.4321
  132OSM   H15G14346   2.175   1.471   4.524 -0.8817 -0.5848 -0.0339
  132OSM   C16F14347   2.217   1.661   4.437 -0.7706  0.9051 -0.6687
  132OSM   H16F14348   2.230   1.620   4.335  0.0888 -1.6483  0.3829
  132OSM   H16G14349   2.320   1.645   4.477 -1.1801 -1.3611 -0.4215
  132OSM   C17F14350   2.182   1.809   4.431  1.0600 -0.0892  0.1909
  132OSM   H17F14351   2.183   1.845   4.536 -1.4830 -1.4645  0.7570
  132OSM   H17G14352   2.079   1.829   4.395  1.2464 -0.3257 -0.4898
  132OSM   C18F14353   2.286   1.881   4.345  0.6150  0.5809 -0.3211
  132OSM   H18F14354   2.273   1.843   4.242 -3.2216  0.6798 -0.0230
  132OSM   H18G14355   2.385   1.863   4.392 -0.8811 -0.0157  2.8921
  132OSM   H18H14356   2.250   1.986   4.337 -0.1695  0.1685 -3.6887
  133OSM      N14357   0.553   2.727   6.407 -0.1297 -0.5480  0.3800
  133OSM    C1514358   0.616   2.679   6.281  0.1232  0.3020  0.2468
  133OSM   H15A14359   0.545   2.667   6.201 -0.4122 -1.4813  0.9425
  133OSM   H15B14360   0.649   2.577   6.292  0.6943  0.1998 -1.9265
  133OSM   H15C14361   0.701   2.744   6.264  1.8359 -1.6919  0.8092
  133OSM    C1414362   0.445   2.637   6.452  0.1492 -0.0376 -0.1486
  133OSM   H14A14363   0.497   2.546   6.477  1.6354  0.2138 -2.0729
  133OSM   H14B14364   0.372   2.623   6.374 -2.8288 -0.0564  2.4513
  133OSM   H14C14365   0.387   2.657   6.541  0.3328 -2.2480  0.5231
  133OSM    C1314366   0.658   2.735   6.524  0.0515  0.7859 -0.5225
  133OSM   H13A14367   0.735   2.808   6.505  1.0744  0.2344  1.2427
  133OSM   H13B14368   0.704   2.638   6.538 -1.4605 -0.0597 -1.1627
  133OSM   H13C14369   0.607   2.751   6.617 -0.7275 -1.0358 -0.5818
  133OSM    C1214370   0.501   2.869   6.391  0.2639  1.0136 -0.5481
  133OSM   H12A14371   0.586   2.933   6.372  0.6435  0.3057 -1.3085
  133OSM   H12B14372   0.463   2.903   6.487  1.3381 -3.0418  1.5505
  133OSM    C1114373   0.393   2.892   6.274 -0.4924  0.1577 -0.4633
  133OSM   H11A14374   0.430   2.859   6.174 -0.8208 -0.6108 -0.3397
  133OSM   H11B14375   0.388   3.002   6.272  0.8849  0.2988  1.3712
  133OSM      P14376   0.138   2.902   6.319  0.2991 -0.1917  0.2351
  133OSM    O1314377   0.036   2.809   6.370  0.1601  0.5937  0.1470
  133OSM    O1414378   0.173   3.008   6.416  0.6402 -0.0841  0.1401
  133OSM    O1114379   0.110   2.971   6.175 -0.0496  0.6085  0.0311
  133OSM    O1214380   0.276   2.821   6.307  0.1154  0.3534 -0.2756
  133OSM    C1S14381   0.063   2.886   6.066  0.6771  0.5602  0.1593
  133OSM    H1S14382  -0.047   2.883   6.080  0.7946 -2.0371  1.1136
  133OSM    H1T14383   0.089   2.777   6.067 -1.6731 -0.1130 -1.8887
  133OSM     NF14384   0.033   2.839   5.833 -0.0659 -0.7377  0.8521
  133OSM    HNF14385   0.093   2.775   5.786 -0.9562 -1.7438  1.0441
  133OSM    C2S14386   0.091   2.932   5.922 -0.0508  0.4660  0.4392
  133OSM    H2S14387   0.044   3.032   5.909 -2.3551 -0.5170  0.7051
  133OSM    C3S14388   0.243   2.940   5.896  0.0648  0.2836  0.3959
  133OSM    H3S14389   0.292   2.844   5.923  0.8646  0.9007  1.2171
  133OSM     O314390   0.311   3.023   5.994  0.6271  0.3484 -0.5577
  133OSM    HO314391   0.249   3.044   6.065  3.6236 -0.3678  2.5306
  133OSM    C4S14392   0.279   2.988   5.754  0.6310  0.1877 -0.4729
  133OSM    H4S14393   0.290   2.909   5.679  1.8453 -0.1087 -0.0181
  133OSM    C5S14394   0.309   3.111   5.717 -0.0581 -0.9950  0.5976
  133OSM    H5S14395   0.311   3.193   5.791  0.6215  0.9449 -1.4332
  133OSM    C6S14396   0.358   3.168   5.583  0.9578  0.0115 -0.4948
  133OSM    H6S14397   0.459   3.210   5.601 -0.7721  3.1037  4.0566
  133OSM    H6T14398   0.278   3.230   5.538  2.9959  0.8585 -3.1902
  133OSM    C7S14399   0.371   3.064   5.472  1.3600  0.4486  0.4878
  133OSM    H7S14400   0.288   2.991   5.470  0.7323  1.1582 -0.1988
  133OSM    H7T14401   0.460   3.003   5.499  1.9516  1.9389  2.0829
  133OSM    C8S14402   0.390   3.117   5.333  0.3511 -0.7629 -0.3604
  133OSM    H8S14403   0.490   3.167   5.329  0.4492 -1.0222 -1.8558
  133OSM    H8T14404   0.303   3.184   5.318  0.6532 -0.1579  0.5508
  133OSM    C9S14405   0.377   3.015   5.222 -0.5860 -0.2135 -0.7788
  133OSM    H9S14406   0.278   2.964   5.222 -1.8193  2.0308 -1.2446
  133OSM    H9T14407   0.457   2.942   5.246 -0.7315 -0.3388 -0.6778
  133OSM   C10S14408   0.400   3.067   5.086 -0.8188 -0.0189 -0.0333
  133OSM   H10S14409   0.490   3.132   5.086  0.1616 -1.3141 -0.9041
  133OSM   H10T14410   0.315   3.129   5.051 -0.5441  0.7705  0.6674
  133OSM   C11S14411   0.428   2.954   4.982  0.4180  0.1004  0.2086
  133OSM   H11S14412   0.334   2.896   4.974  0.9660 -0.6877 -0.6403
  133OSM   H11T14413   0.502   2.886   5.030 -1.6893 -2.1859  0.4098
  133OSM   C12S14414   0.492   3.005   4.853 -0.1549  0.0968  0.2002
  133OSM   H12S14415   0.520   2.913   4.798 -1.7705  1.0867 -2.4780
  133OSM   H12T14416   0.583   3.062   4.881  1.1065 -0.7242 -1.9643
  133OSM   C13S14417   0.386   3.074   4.771  0.0461 -0.5310  0.9630
  133OSM   H13S14418   0.332   3.155   4.825  2.2494  1.1268  0.8621
  133OSM   H13T14419   0.305   3.004   4.744  1.1621 -0.6659 -2.6163
  133OSM   C14S14420   0.437   3.131   4.642 -0.1737  0.1608 -0.2606
  133OSM   H14S14421   0.509   3.212   4.668  0.9953 -1.2485  1.1903
  133OSM   H14T14422   0.364   3.171   4.570  1.2077 -1.0632 -2.4624
  133OSM   C15S14423   0.513   3.023   4.561 -0.5269 -0.2944 -0.2903
  133OSM   H15S14424   0.458   2.927   4.576 -2.4801  0.4674 -2.0236
  133OSM   H15T14425   0.604   2.992   4.616 -1.7547  1.7905  3.2612
  133OSM   C16S14426   0.558   3.060   4.416 -0.3454 -0.1965 -0.2847
  133OSM   H16S14427   0.622   3.151   4.415  0.0339 -0.4413 -1.7680
  133OSM   H16T14428   0.469   3.096   4.360  0.1854  0.5103 -0.7045
  133OSM   C17S14429   0.605   2.937   4.341  0.3196 -0.1688  0.2843
  133OSM   H17S14430   0.525   2.861   4.346 -0.6192  0.7873  0.2388
  133OSM   H17T14431   0.690   2.904   4.405  0.4883  0.7665  0.5588
  133OSM   C18S14432   0.664   2.952   4.199  0.2826 -0.3097 -0.5354
  133OSM   H18S14433   0.713   3.051   4.194 -0.1203 -0.0288  0.6718
  133OSM   H18T14434   0.585   2.947   4.122  1.3706 -0.0944 -1.6902
  133OSM   H18U14435   0.740   2.876   4.171  0.2041 -0.7495  0.3735
  133OSM    C1F14436  -0.099   2.821   5.815  0.1323 -0.2811 -0.3259
  133OSM     OF14437  -0.182   2.899   5.856 -0.4027 -0.4125 -0.0787
  133OSM    C2F14438  -0.140   2.713   5.719 -0.4898  0.9307  0.4661
  133OSM    H2F14439  -0.108   2.611   5.748 -0.2460  1.1265  0.8846
  133OSM    H2G14440  -0.088   2.740   5.625 -1.9645  1.2066 -0.3072
  133OSM    C3F14441  -0.287   2.709   5.699  0.3432  0.1138  0.3854
  133OSM    H3F14442  -0.327   2.808   5.670  1.5463  0.1351 -1.3716
  133OSM    H3G14443  -0.340   2.673   5.790 -2.1005  0.0097 -1.0115
  133OSM    C4F14444  -0.348   2.597   5.605  0.5936  0.2426  0.4471
  133OSM    H4F14445  -0.457   2.603   5.627  0.3348  0.4663 -0.8148
  133OSM    H4G14446  -0.317   2.496   5.641 -0.6315 -0.3369 -0.0704
  133OSM    C5F14447  -0.309   2.596   5.456 -0.3031 -0.2300 -0.4531
  133OSM    H5F14448  -0.347   2.504   5.407  0.6297 -1.0308  0.2882
  133OSM    H5G14449  -0.199   2.582   5.453 -0.2891 -0.1682 -0.2123
  133OSM    C6F14450  -0.342   2.729   5.380 -0.4800 -0.0823 -0.9039
  133OSM    H6F14451  -0.305   2.738   5.275  0.7665  0.0802 -0.4661
  133OSM    H6G14452  -0.287   2.807   5.437  0.9057 -0.9043 -1.0890
  133OSM    C7F14453  -0.494   2.750   5.383  0.6792  0.6924 -0.7679
  133OSM    H7F14454  -0.545   2.767   5.480 -1.6563 -0.5405 -1.7075
  133OSM    H7G14455  -0.540   2.661   5.335  0.7516  0.4317 -0.3586
  133OSM    C8F14456  -0.535   2.863   5.285  0.2265 -0.3805 -0.0111
  133OSM    H8F14457  -0.646   2.865   5.293  0.3093 -1.2672  1.8916
  133OSM    H8G14458  -0.496   2.830   5.187 -2.8494  2.0004 -2.2332
  133OSM    C9F14459  -0.489   2.999   5.334 -0.1439  0.4505  0.1864
  133OSM    H9F14460  -0.455   2.996   5.438  1.7458  2.2914 -0.2946
  133OSM   C10F14461  -0.493   3.107   5.257 -0.5530 -0.5792  0.1334
  133OSM   H10F14462  -0.455   3.197   5.307  1.0948 -0.6436 -0.9416
  133OSM   C11F14463  -0.546   3.111   5.117  0.4237  0.1683 -0.1616
  133OSM   H11F14464  -0.570   3.009   5.080 -1.4685  1.0872 -1.6835
  133OSM   H11G14465  -0.476   3.146   5.039 -0.7232 -0.6081 -1.5817
  133OSM   C12F14466  -0.687   3.178   5.116 -0.0221 -0.4587 -0.2116
  133OSM   H12F14467  -0.682   3.284   5.148  2.4989 -0.3046 -0.9021
  133OSM   H12G14468  -0.744   3.126   5.195  0.8392 -0.4975  0.3875
  133OSM   C13F14469  -0.759   3.158   4.984  0.1406 -0.0433  0.2569
  133OSM   H13F14470  -0.869   3.165   4.994  0.3462  2.8292  1.4231
  133OSM   H13G14471  -0.737   3.053   4.954 -0.5390 -0.3885  0.9681
  133OSM   C14F14472  -0.720   3.242   4.865 -0.1081 -0.4022  0.7648
  133OSM   H14F14473  -0.698   3.340   4.913  0.4773 -0.3884  0.4758
  133OSM   H14G14474  -0.805   3.261   4.797  1.3822 -0.3745 -1.1918
  133OSM   C15F14475  -0.618   3.186   4.765  0.7668  0.2441  0.0143
  133OSM   H15F14476  -0.671   3.096   4.728 -1.8836  2.5809 -2.3215
  133OSM   H15G14477  -0.522   3.165   4.817  0.3318  1.5121  1.4259
  133OSM   C16F14478  -0.599   3.271   4.636  0.7924  0.8604  0.6680
  133OSM   H16F14479  -0.524   3.351   4.655  2.5726  0.1928 -2.7410
  133OSM   H16G14480  -0.692   3.325   4.611  0.4007 -0.5120 -1.0712
  133OSM   C17F14481  -0.556   3.187   4.508 -0.4798  0.1457 -0.4348
  133OSM   H17F14482  -0.644   3.121   4.487 -2.2243  2.5381 -1.1452
  133OSM   H17G14483  -0.478   3.121   4.550 -0.1003  0.9478  0.1471
  133OSM   C18F14484  -0.508   3.273   4.392  0.5625  0.1043 -0.2328
  133OSM   H18F14485  -0.426   3.340   4.428  0.0601  2.6137 -3.2818
  133OSM   H18G14486  -0.599   3.328   4.358 -0.8817 -2.1012 -0.0875
  133OSM   H18H14487  -0.480   3.206   4.308 -2.5302 -1.7835  0.1007
  134OSM      N14488   6.824   1.444   6.492 -0.3382  0.2935  0.3285
  134OSM    C1514489   6.796   1.570   6.565 -0.0039 -0.9418  0.2429
  134OSM   H15A14490   6.810   1.558   6.672 -0.1298  1.1928  0.5514
  134OSM   H15B14491   6.703   1.620   6.543  1.5059  1.8025 -0.3810
  134OSM   H15C14492   6.873   1.635   6.527  0.1523 -0.2960  1.5918
  134OSM    C1414493   6.959   1.396   6.530  0.2538  0.2223  0.4455
  134OSM   H14A14494   6.955   1.360   6.632 -0.2486 -1.5624 -0.1719
  134OSM   H14B14495   7.039   1.468   6.523  1.8596 -1.5990 -1.2073
  134OSM   H14C14496   6.993   1.314   6.469  1.1134  0.5368  0.4914
  134OSM    C1314497   6.722   1.336   6.540 -0.0448 -0.7716  0.5749
  134OSM   H13A14498   6.619   1.358   6.516  0.2335  0.0895  0.1293
  134OSM   H13B14499   6.715   1.327   6.648  0.2089  3.4268  1.1153
  134OSM   H13C14500   6.735   1.243   6.487 -1.1666 -0.8517  0.4099
  134OSM    C1214501   6.821   1.453   6.340  0.4708 -0.7455  0.2805
  134OSM   H12A14502   6.730   1.498   6.304  1.1479  0.2461 -0.2348
  134OSM   H12B14503   6.809   1.353   6.301  1.5069 -0.2962 -1.2661
  134OSM    C1114504   6.934   1.535   6.268  0.5156 -0.2295 -0.4259
  134OSM   H11A14505   6.920   1.516   6.159 -0.8187 -1.6955 -0.0481
  134OSM   H11B14506   7.026   1.478   6.293 -0.4042 -1.5551  0.0574
  134OSM      P14507   6.854   1.782   6.263  0.0541 -0.0345 -0.3876
  134OSM    O1314508   6.765   1.818   6.378 -0.5238 -0.1231  0.3109
  134OSM    O1414509   6.932   1.905   6.222  0.0193  0.4218  0.5513
  134OSM    O1114510   6.778   1.722   6.143 -0.1880  0.8361  0.1129
  134OSM    O1214511   6.951   1.674   6.312  0.1649 -0.2389  0.1106
  134OSM    C1S14512   6.667   1.773   6.076  0.1519  0.2449 -1.2870
  134OSM    H1S14513   6.629   1.865   6.124 -1.2672 -1.0225  0.1578
  134OSM    H1T14514   6.584   1.699   6.072 -1.3156  1.8016 -0.9176
  134OSM     NF14515   6.612   1.893   5.865 -0.0615  0.4238 -0.1087
  134OSM    HNF14516   6.564   1.837   5.798  2.8899 -1.1162 -1.1150
  134OSM    C2S14517   6.711   1.813   5.933  0.2581 -0.0974  0.3674
  134OSM    H2S14518   6.795   1.885   5.938 -0.0226  0.3361 -0.8499
  134OSM    C3S14519   6.759   1.694   5.846 -0.3888 -0.5125 -0.6146
  134OSM    H3S14520   6.670   1.633   5.821 -3.4495  3.2600  0.1146
  134OSM     O314521   6.843   1.598   5.917  0.2297 -0.0657 -0.1746
  134OSM    HO314522   6.849   1.639   6.003  0.6060  1.3569 -0.8533
  134OSM    C4S14523   6.824   1.746   5.719 -0.0797 -0.4588  0.2103
  134OSM    H4S14524   6.764   1.715   5.632 -0.8870 -0.4474  0.7555
  134OSM    C5S14525   6.957   1.779   5.698 -0.0043 -0.7696  0.3196
  134OSM    H5S14526   7.025   1.763   5.783 -0.9000 -1.1512  0.9839
  134OSM    C6S14527   7.022   1.784   5.563  0.5431 -0.0294  0.6446
  134OSM    H6S14528   7.088   1.695   5.558 -0.0202 -0.4784  0.9933
  134OSM    H6T14529   7.083   1.876   5.554 -3.3152  2.6051 -1.7764
  134OSM    C7S14530   6.937   1.769   5.432 -0.1687  0.2540  0.3158
  134OSM    H7S14531   6.871   1.856   5.414 -0.9728 -0.5962 -1.1101
  134OSM    H7T14532   6.880   1.674   5.447 -1.0012  0.6025 -0.5076
  134OSM    C8S14533   7.016   1.751   5.299  0.4252  0.1206  0.1424
  134OSM    H8S14534   7.074   1.657   5.312  0.5384 -0.1635 -2.0228
  134OSM    H8T14535   7.075   1.844   5.287 -2.0196  1.6633 -0.6590
  134OSM    C9S14536   6.913   1.745   5.185 -0.4229  0.2324  0.1525
  134OSM    H9S14537   6.861   1.843   5.179  1.0150  1.0684  0.5797
  134OSM    H9T14538   6.832   1.670   5.196 -0.6787  0.6513  1.2144
  134OSM   C10S14539   6.985   1.706   5.056 -0.3776 -0.4598  0.2832
  134OSM   H10S14540   7.042   1.613   5.078  2.5338  0.8223 -1.3149
  134OSM   H10T14541   7.053   1.790   5.035 -0.3425 -0.5875 -0.1116
  134OSM   C11S14542   6.903   1.692   4.933  0.1442  0.6178  0.6165
  134OSM   H11S14543   6.884   1.798   4.903  0.9045  1.4764  2.9313
  134OSM   H11T14544   6.803   1.645   4.944 -0.2701  1.4358  0.4396
  134OSM   C12S14545   6.990   1.624   4.828 -0.3198 -0.8944  0.3402
  134OSM   H12S14546   7.000   1.515   4.842 -0.4599 -1.1722 -1.4791
  134OSM   H12T14547   7.092   1.665   4.843  0.7755 -2.9875 -1.0278
  134OSM   C13S14548   6.936   1.655   4.685 -0.7522  0.3604  0.1829
  134OSM   H13S14549   6.972   1.752   4.646  0.9232 -1.0406 -2.0120
  134OSM   H13T14550   6.825   1.649   4.677 -0.6746  1.3280 -2.6849
  134OSM   C14S14551   6.979   1.555   4.579 -0.4100 -0.2555  0.1174
  134OSM   H14S14552   6.965   1.455   4.625  0.9592 -0.8169 -0.6266
  134OSM   H14T14553   7.088   1.546   4.559  0.2879  0.7715  2.9403
  134OSM   C15S14554   6.913   1.563   4.442 -0.3807  0.2367  0.2967
  134OSM   H15S14555   6.809   1.591   4.467  0.6452  2.7999  2.0436
  134OSM   H15T14556   6.926   1.460   4.402  0.0915  0.7722 -0.9886
  134OSM   C16S14557   6.969   1.668   4.343 -0.5660 -0.0083 -0.5431
  134OSM   H16S14558   7.073   1.638   4.320 -0.3395  2.0809 -2.5257
  134OSM   H16T14559   6.969   1.757   4.409 -0.3481 -1.8657  2.1478
  134OSM   C17S14560   6.883   1.668   4.218 -1.1231 -0.0290 -0.0770
  134OSM   H17S14561   6.779   1.696   4.248 -1.2770  0.8991 -1.3822
  134OSM   H17T14562   6.883   1.574   4.160  1.0026  1.1529 -2.1680
  134OSM   C18S14563   6.913   1.783   4.129  0.4124 -0.2094 -0.1747
  134OSM   H18S14564   6.876   1.777   4.024 -1.6393  1.1054  0.4213
  134OSM   H18T14565   7.024   1.789   4.117  0.7590 -0.9547  2.1192
  134OSM   H18U14566   6.864   1.867   4.183  1.0240 -0.0098  0.0772
  134OSM    C1F14567   6.570   2.012   5.895  0.6552  0.3961  0.0595
  134OSM     OF14568   6.622   2.068   5.988  0.1012 -0.7284  0.0784
  134OSM    C2F14569   6.457   2.071   5.808 -0.8025  0.8572  0.1014
  134OSM    H2F14570   6.408   1.986   5.757 -0.5886  0.5805  0.3598
  134OSM    H2G14571   6.513   2.124   5.727  0.4964 -5.2110 -3.5721
  134OSM    C3F14572   6.353   2.154   5.883 -0.4376  0.2161  0.3910
  134OSM    H3F14573   6.407   2.242   5.922 -2.7178  1.2171  1.4538
  134OSM    H3G14574   6.311   2.087   5.961 -2.0261  0.7764  0.0427
  134OSM    C4F14575   6.236   2.204   5.798 -0.1626  0.0187 -0.3447
  134OSM    H4F14576   6.176   2.266   5.867  0.7723 -0.1063  0.6102
  134OSM    H4G14577   6.187   2.109   5.768  2.0991 -0.7851 -1.7534
  134OSM    C5F14578   6.279   2.266   5.664  0.0996  0.1011 -0.3492
  134OSM    H5F14579   6.342   2.184   5.623 -1.3946 -0.8897 -0.7048
  134OSM    H5G14580   6.343   2.356   5.672  0.9053 -0.5558  0.9722
  134OSM    C6F14581   6.160   2.297   5.569  0.7915 -0.3922 -0.0780
  134OSM    H6F14582   6.086   2.371   5.606  2.8456  2.1861 -0.8082
  134OSM    H6G14583   6.108   2.201   5.547  0.6567 -0.8138  1.8901
  134OSM    C7F14584   6.212   2.366   5.438 -0.1497  1.0759  0.2192
  134OSM    H7F14585   6.290   2.302   5.391 -1.1857  0.9983 -1.4964
  134OSM    H7G14586   6.258   2.464   5.464 -1.8494  1.9177  0.1968
  134OSM    C8F14587   6.107   2.405   5.326  0.1999  0.0851 -0.6766
  134OSM    H8F14588   6.153   2.471   5.249 -2.7926  2.4722 -0.6205
  134OSM    H8G14589   6.021   2.464   5.365 -0.8300 -1.1101 -1.0867
  134OSM    C9F14590   6.048   2.291   5.246  0.6344  0.0551  0.4702
  134OSM    H9F14591   6.008   2.216   5.317  0.3593 -0.0971  0.1562
  134OSM   C10F14592   6.042   2.268   5.107  0.5008  0.0433 -0.0570
  134OSM   H10F14593   5.994   2.175   5.073 -0.6380 -0.1678  1.9564
  134OSM   C11F14594   6.112   2.353   5.007  0.6497 -0.0188 -0.0618
  134OSM   H11F14595   6.199   2.291   4.977  2.3600  2.0408  0.3877
  134OSM   H11G14596   6.157   2.442   5.057  1.9608  0.0056 -1.2247
  134OSM   C12F14597   6.046   2.397   4.872 -0.2187 -0.3474 -0.3553
  134OSM   H12F14598   6.111   2.469   4.817 -2.5876  3.1164  1.0418
  134OSM   H12G14599   5.952   2.453   4.893  0.9091  1.9713 -1.1789
  134OSM   C13F14600   6.018   2.286   4.775 -0.6636  0.2480  0.1766
  134OSM   H13F14601   5.946   2.213   4.818  2.0413 -0.9756  3.0578
  134OSM   H13G14602   6.105   2.225   4.745 -1.1576 -0.0358 -0.7014
  134OSM   C14F14603   5.973   2.325   4.627  0.3143  0.0092 -0.5870
  134OSM   H14F14604   6.057   2.387   4.590  0.6147  1.0518  1.6532
  134OSM   H14G14605   5.883   2.390   4.632  0.1744 -0.2302  0.0674
  134OSM   C15F14606   5.958   2.189   4.555  0.1057  0.6362 -0.2254
  134OSM   H15F14607   5.868   2.138   4.596  2.0950 -3.3555 -0.2826
  134OSM   H15G14608   6.047   2.129   4.585  0.0578  0.4582 -0.4308
  134OSM   C16F14609   5.954   2.190   4.399  0.5904 -0.1348  0.2337
  134OSM   H16F14610   5.858   2.223   4.355  1.5740  3.1876  0.3409
  134OSM   H16G14611   5.976   2.084   4.374  2.6059 -0.1964  1.9451
  134OSM   C17F14612   6.061   2.274   4.332  0.3242 -0.1834  0.1422
  134OSM   H17F14613   6.155   2.254   4.387  1.0068 -0.9664 -1.2438
  134OSM   H17G14614   6.028   2.378   4.355  1.2588 -0.0377  0.8890
  134OSM   C18F14615   6.068   2.236   4.184 -0.1471  0.8658  0.2438
  134OSM   H18F14616   6.106   2.133   4.168 -2.3201  0.0512 -0.0803
  134OSM   H18G14617   6.130   2.312   4.131  2.1191 -0.6406  0.6242
  134OSM   H18H14618   5.967   2.241   4.138 -0.4997 -1.2131  0.7197
  135OSM      N14619   6.569   0.405   7.123 -0.2061 -0.9784 -0.1962
  135OSM    C1514620   6.584   0.264   7.175 -0.7376  0.1678  0.7428
  135OSM   H15A14621   6.659   0.203   7.127 -0.6154  0.4116  0.6252
  135OSM   H15B14622   6.491   0.210   7.164 -0.6285  0.1735 -0.2864
  135OSM   H15C14623   6.613   0.262   7.279 -0.3024 -1.2192  0.6155
  135OSM    C1414624   6.462   0.464   7.213  0.0905 -0.2588 -0.2366
  135OSM   H14A14625   6.485   0.456   7.318  1.8366  0.8162 -0.4999
  135OSM   H14B14626   6.369   0.409   7.210 -0.3481  0.3691  1.1811
  135OSM   H14C14627   6.441   0.565   7.179 -0.5497 -0.5263 -0.6736
  135OSM    C1314628   6.696   0.479   7.135  0.0803  0.7591  0.4038
  135OSM   H13A14629   6.721   0.489   7.240  0.1340 -1.1385  0.6118
  135OSM   H13B14630   6.691   0.576   7.088 -1.1754 -0.0690 -1.2749
  135OSM   H13C14631   6.775   0.423   7.087 -0.9244  0.9670 -1.5779
  135OSM    C1214632   6.527   0.395   6.984 -0.0063  0.5988  1.1529
  135OSM   H12A14633   6.471   0.303   6.976  0.9759 -0.2837  3.3779
  135OSM   H12B14634   6.610   0.357   6.926 -0.5044  2.0433 -0.5752
  135OSM    C1114635   6.471   0.523   6.909 -0.3634  0.3555 -0.4394
  135OSM   H11A14636   6.455   0.500   6.801 -1.2630 -1.2909  0.0254
  135OSM   H11B14637   6.546   0.604   6.926  0.2013 -0.3976  0.7728
  135OSM      P14638   6.216   0.510   6.910  0.1843  0.0852  0.3513
  135OSM    O1314639   6.190   0.369   6.954 -0.4135 -0.2887  0.0284
  135OSM    O1414640   6.105   0.604   6.952  0.2195  0.0233  0.0503
  135OSM    O1114641   6.232   0.532   6.748 -0.4453  0.0835  0.1668
  135OSM    O1214642   6.347   0.568   6.964 -0.0180 -0.7361  0.3156
  135OSM    C1S14643   6.156   0.442   6.669 -0.0335  0.3179 -0.5569
  135OSM    H1S14644   6.047   0.464   6.679 -0.6080 -1.6298 -2.0042
  135OSM    H1T14645   6.185   0.338   6.693  0.2893  0.3253 -0.9039
  135OSM     NF14646   6.124   0.362   6.439  0.5261 -0.5240  0.3099
  135OSM    HNF14647   6.182   0.299   6.388 -0.0894 -0.1154 -0.9591
  135OSM    C2S14648   6.176   0.471   6.514 -0.1393 -0.1372 -0.0930
  135OSM    H2S14649   6.120   0.566   6.496 -0.0283 -0.1158 -0.3352
  135OSM    C3S14650   6.323   0.510   6.471  0.3828 -0.5379 -0.0950
  135OSM    H3S14651   6.399   0.432   6.496  1.1332 -0.8316 -2.9740
  135OSM     O314652   6.376   0.633   6.532  0.4060  0.2013  0.3110
  135OSM    HO314653   6.337   0.644   6.619 -0.5760  1.0158 -0.2054
  135OSM    C4S14654   6.327   0.521   6.324  0.6779 -0.0600  0.5916
  135OSM    H4S14655   6.286   0.617   6.287  1.6173  0.2133  0.2348
  135OSM    C5S14656   6.381   0.433   6.241  0.5196  0.2516  0.5331
  135OSM    H5S14657   6.432   0.345   6.283  0.2859  1.3345  3.2811
  135OSM    C6S14658   6.382   0.434   6.089  0.0141 -0.1488  0.0395
  135OSM    H6S14659   6.332   0.341   6.052 -0.3030  0.4074 -0.9524
  135OSM    H6T14660   6.485   0.426   6.049 -0.4606 -3.6015 -0.8456
  135OSM    C7S14661   6.325   0.553   6.005 -0.1407 -0.0099  0.2582
  135OSM    H7S14662   6.376   0.647   6.035 -1.1645  0.3055  1.0678
  135OSM    H7T14663   6.220   0.565   6.039 -1.2638  1.1083 -3.1087
  135OSM    C8S14664   6.322   0.537   5.850 -0.2108  0.5378  0.3248
  135OSM    H8S14665   6.267   0.441   5.837  0.2352  0.0670  1.6972
  135OSM    H8T14666   6.430   0.520   5.833 -0.7574 -1.5095 -1.5754
  135OSM    C9S14667   6.279   0.663   5.774 -0.7812  0.6699  0.1257
  135OSM    H9S14668   6.337   0.749   5.813  0.5485  0.0662 -0.4711
  135OSM    H9T14669   6.168   0.669   5.787 -1.0806  0.1646 -1.8718
  135OSM   C10S14670   6.313   0.662   5.623 -0.6158  0.7056  0.4509
  135OSM   H10S14671   6.307   0.555   5.593 -0.5148  0.2770  1.8947
  135OSM   H10T14672   6.419   0.696   5.611 -0.3141 -0.3483  0.0154
  135OSM   C11S14673   6.216   0.738   5.540  0.3589 -0.3892 -0.2546
  135OSM   H11S14674   6.198   0.842   5.573  1.0703 -0.2559 -0.2535
  135OSM   H11T14675   6.122   0.679   5.538  0.9534 -1.3572 -0.5782
  135OSM   C12S14676   6.261   0.732   5.392 -0.1212 -0.7876  0.9398
  135OSM   H12S14677   6.272   0.629   5.351 -1.1085 -1.3532  2.0271
  135OSM   H12T14678   6.365   0.770   5.396 -0.3261  0.2926 -1.6668
  135OSM   C13S14679   6.167   0.818   5.304 -0.3178 -0.2829 -0.4903
  135OSM   H13S14680   6.176   0.926   5.327  0.3369 -0.5733  0.6528
  135OSM   H13T14681   6.070   0.768   5.323  1.1766 -2.4443  2.1733
  135OSM   C14S14682   6.195   0.809   5.153 -0.5261  0.4578 -0.1966
  135OSM   H14S14683   6.117   0.856   5.091 -0.0375  0.8305 -0.5319
  135OSM   H14T14684   6.199   0.700   5.129 -0.8262  0.2920  0.4848
  135OSM   C15S14685   6.327   0.863   5.088  0.0197 -0.4545 -0.8634
  135OSM   H15S14686   6.407   0.837   5.161  0.2730  0.9848 -0.6085
  135OSM   H15T14687   6.330   0.974   5.088 -0.2564 -0.4319  0.2495
  135OSM   C16S14688   6.369   0.810   4.948 -0.6358 -0.5805  0.0640
  135OSM   H16S14689   6.414   0.709   4.943 -1.3170 -0.8901  0.1177
  135OSM   H16T14690   6.452   0.876   4.916 -1.0622 -0.1957 -0.2817
  135OSM   C17S14691   6.263   0.833   4.839 -0.1946 -0.3672 -0.5533
  135OSM   H17S14692   6.314   0.846   4.741 -0.6164  0.2236 -0.6989
  135OSM   H17T14693   6.196   0.920   4.857 -0.4710 -0.6919  0.0447
  135OSM   C18S14694   6.169   0.715   4.819  0.5172  0.0790 -0.6405
  135OSM   H18S14695   6.113   0.721   4.723 -0.0222 -1.5787 -0.4679
  135OSM   H18T14696   6.109   0.692   4.909  0.3514  1.3976 -0.3935
  135OSM   H18U14697   6.226   0.620   4.813  1.1729  0.1371  2.7261
  135OSM    C1F14698   5.989   0.339   6.437  0.1906  0.2001 -0.7043
  135OSM     OF14699   5.904   0.399   6.505 -0.0362  0.3030 -0.4869
  135OSM    C2F14700   5.950   0.234   6.341 -0.6462  0.2587  0.1295
  135OSM    H2F14701   5.950   0.140   6.401  1.1737  0.2832  0.2094
  135OSM    H2G14702   6.024   0.218   6.260 -2.3782  0.8964 -1.6776
  135OSM    C3F14703   5.811   0.250   6.282 -0.0214  0.0618  0.5033
  135OSM    H3F14704   5.738   0.263   6.364  0.3071  2.4243  0.4822
  135OSM    H3G14705   5.790   0.154   6.229  1.9567 -1.1418  1.7658
  135OSM    C4F14706   5.791   0.371   6.183  0.2058 -0.3656  0.3021
  135OSM    H4F14707   5.687   0.352   6.147  0.0036  2.1643 -0.6800
  135OSM    H4G14708   5.785   0.466   6.240 -0.3394 -0.8318  1.0414
  135OSM    C5F14709   5.882   0.385   6.049  0.0831 -0.1578  0.5515
  135OSM    H5F14710   5.837   0.326   5.967  1.7062 -0.8739  0.1477
  135OSM    H5G14711   5.978   0.337   6.077  2.4197  3.7804  0.0509
  135OSM    C6F14712   5.890   0.523   5.996 -0.4102  0.3935  0.1813
  135OSM    H6F14713   5.973   0.531   5.922 -0.9741 -1.2122 -0.6732
  135OSM    H6G14714   5.913   0.601   6.071  0.0368 -1.4624  2.0868
  135OSM    C7F14715   5.757   0.551   5.925 -0.0411 -0.6228 -0.3681
  135OSM    H7F14716   5.678   0.524   5.999 -0.3685  0.3746 -0.3268
  135OSM    H7G14717   5.738   0.500   5.829 -2.5130 -0.2047 -0.1819
  135OSM    C8F14718   5.739   0.701   5.908 -0.0865 -0.6846 -0.3642
  135OSM    H8F14719   5.725   0.754   6.005  2.1756  0.6349 -0.6767
  135OSM    H8G14720   5.639   0.713   5.863 -0.0392  0.0419 -0.2875
  135OSM    C9F14721   5.850   0.774   5.835  0.9579 -0.1650 -0.5647
  135OSM    H9F14722   5.954   0.757   5.865  0.8332 -0.8663 -0.5323
  135OSM   C10F14723   5.820   0.851   5.725  0.2607  0.7793 -0.2838
  135OSM   H10F14724   5.904   0.917   5.697  0.1574  0.8492 -0.4287
  135OSM   C11F14725   5.680   0.898   5.684 -0.2520 -0.4488 -0.0381
  135OSM   H11F14726   5.627   0.929   5.776  2.2001 -0.8757  1.6204
  135OSM   H11G14727   5.619   0.813   5.647 -2.6915  1.9809 -1.9882
  135OSM   C12F14728   5.679   1.010   5.574 -0.1701  0.6130 -0.5264
  135OSM   H12F14729   5.728   1.099   5.619 -0.7705  1.4117 -1.4104
  135OSM   H12G14730   5.572   1.036   5.557 -0.1172  1.0991 -0.1235
  135OSM   C13F14731   5.741   0.965   5.439  0.2093  0.2524 -0.6079
  135OSM   H13F14732   5.687   0.875   5.403  1.4437 -0.7485 -0.0455
  135OSM   H13G14733   5.849   0.942   5.451  0.3375 -0.0916 -2.2326
  135OSM   C14F14734   5.716   1.059   5.317  0.1976  0.1540  0.1382
  135OSM   H14F14735   5.769   1.155   5.334  0.3968  0.0436  0.1528
  135OSM   H14G14736   5.611   1.093   5.310  1.0390  3.2994  1.0540
  135OSM   C15F14737   5.768   0.988   5.190 -0.0703  0.1384 -0.0449
  135OSM   H15F14738   5.714   0.891   5.189  1.6696 -0.8771 -0.2737
  135OSM   H15G14739   5.871   0.957   5.220 -0.8172 -0.2278  2.3416
  135OSM   C16F14740   5.758   1.060   5.054  0.5030 -0.2245 -0.2777
  135OSM   H16F14741   5.837   1.138   5.058 -2.5223  3.1308 -0.9288
  135OSM   H16G14742   5.665   1.121   5.052  1.3776  1.2144  1.2219
  135OSM   C17F14743   5.758   0.977   4.922  0.3414  0.4013 -0.1878
  135OSM   H17F14744   5.692   0.888   4.926 -0.5956  1.1355  1.5293
  135OSM   H17G14745   5.856   0.928   4.906 -1.5859 -2.8725 -3.4065
  135OSM   C18F14746   5.742   1.076   4.801 -0.2318  0.5294 -0.4585
  135OSM   H18F14747   5.641   1.124   4.802  0.1351  1.3138  0.0537
  135OSM   H18G14748   5.748   1.019   4.706  1.0306  0.6729 -0.4859
  135OSM   H18H14749   5.824   1.150   4.810  0.6201 -0.6022  2.4965
  136OSM      N14750   2.906   1.019   6.667  0.6088  0.1735 -0.0508
  136OSM    C1514751   2.992   0.910   6.613  0.5039 -0.3948  0.4032
  136OSM   H15A14752   3.048   0.861   6.691 -0.8992 -1.4254  0.7907
  136OSM   H15B14753   3.065   0.962   6.552 -0.6857  1.0825  0.1878
  136OSM   H15C14754   2.943   0.833   6.556  0.2900 -0.4889  0.7148
  136OSM    C1414755   2.802   0.955   6.752  0.5614 -0.7605 -0.1150
  136OSM   H14A14756   2.744   0.884   6.695 -1.7973 -0.0541  1.2806
  136OSM   H14B14757   2.728   1.025   6.786  0.8149 -0.2912 -0.5132
  136OSM   H14C14758   2.850   0.920   6.842  3.0678  0.9057 -0.6950
  136OSM    C1314759   2.997   1.109   6.753 -1.0257  0.1936 -0.5962
  136OSM   H13A14760   3.026   1.053   6.840  0.3877  1.9641  0.1365
  136OSM   H13B14761   2.954   1.203   6.785 -1.0143  0.2682 -0.8021
  136OSM   H13C14762   3.088   1.134   6.700 -0.0373 -0.8559  0.5539
  136OSM    C1214763   2.833   1.097   6.561  0.3493 -0.4426  0.7295
  136OSM   H12A14764   2.901   1.155   6.500  0.2622  0.1767  1.2130
  136OSM   H12B14765   2.776   1.179   6.603 -0.8342  0.3408 -2.0879
  136OSM    C1114766   2.740   1.016   6.461  0.7231 -0.4839 -0.2580
  136OSM   H11A14767   2.794   0.929   6.419  0.4358 -0.5798 -0.4317
  136OSM   H11B14768   2.704   1.095   6.391 -1.0470  1.4139  2.5548
  136OSM      P14769   2.549   0.848   6.497  0.1205  0.0352 -0.2260
  136OSM    O1314770   2.610   0.732   6.568 -0.8323 -0.0931 -0.3566
  136OSM    O1414771   2.399   0.873   6.518 -0.2899 -0.0407 -0.2119
  136OSM    O1114772   2.577   0.831   6.342  0.1415  0.0487 -0.2499
  136OSM    O1214773   2.617   0.986   6.531 -0.1437 -0.6392  0.6340
  136OSM    C1S14774   2.492   0.893   6.248  0.0640  0.9156 -0.1074
  136OSM    H1S14775   2.482   1.004   6.258 -2.1704  0.8643 -1.1000
  136OSM    H1T14776   2.391   0.857   6.276 -0.4393  0.3697 -2.3979
  136OSM     NF14777   2.409   0.899   6.016  0.1652 -0.1609 -0.0077
  136OSM    HNF14778   2.334   0.837   5.996 -0.4909  0.8237 -0.6943
  136OSM    C2S14779   2.515   0.850   6.093  0.7703  0.3306 -0.4384
  136OSM    H2S14780   2.608   0.899   6.055  0.4067  0.2907 -1.3891
  136OSM    C3S14781   2.532   0.693   6.084 -0.8486  0.0965 -0.3972
  136OSM    H3S14782   2.435   0.643   6.105 -0.7836 -1.1037 -2.6250
  136OSM     O314783   2.619   0.625   6.165 -0.4006  0.1819  0.5122
  136OSM    HO314784   2.654   0.689   6.228  1.6564  0.7941 -1.1063
  136OSM    C4S14785   2.570   0.669   5.939 -0.0800 -0.0660  0.5413
  136OSM    H4S14786   2.487   0.648   5.870 -0.0071 -1.2311  0.7779
  136OSM    C5S14787   2.690   0.678   5.880 -0.4691  0.2687  0.1285
  136OSM    H5S14788   2.781   0.705   5.935 -0.0505  2.1741 -1.4243
  136OSM    C6S14789   2.724   0.675   5.730  0.3053  0.1858  0.3627
  136OSM    H6S14790   2.762   0.576   5.694  2.0569  0.6101  0.9471
  136OSM    H6T14791   2.809   0.742   5.705 -0.0519  0.7077  0.5454
  136OSM    C7S14792   2.623   0.719   5.626 -0.3049  0.1780 -0.2104
  136OSM    H7S14793   2.577   0.818   5.649  0.2783  0.5455 -0.6104
  136OSM    H7T14794   2.546   0.638   5.629  2.1840 -2.3187  0.2360
  136OSM    C8S14795   2.670   0.739   5.477 -0.1088 -0.1386 -0.1927
  136OSM    H8S14796   2.739   0.656   5.451 -0.0697  0.3200 -1.6910
  136OSM    H8T14797   2.731   0.832   5.469  0.2749 -0.3670  0.0435
  136OSM    C9S14798   2.553   0.751   5.385  0.1888 -0.5339  0.2995
  136OSM    H9S14799   2.495   0.842   5.413 -1.3441 -1.0562 -0.9921
  136OSM    H9T14800   2.476   0.672   5.401 -1.4825  0.7792 -0.8322
  136OSM   C10S14801   2.597   0.770   5.235  0.4037 -0.1504  0.8906
  136OSM   H10S14802   2.675   0.698   5.204 -1.1117 -1.6587  0.4503
  136OSM   H10T14803   2.661   0.860   5.220 -0.9830  0.5513 -1.3724
  136OSM   C11S14804   2.481   0.775   5.134  0.5089 -0.4533 -0.7546
  136OSM   H11S14805   2.435   0.876   5.126  0.3757 -0.2685  1.6095
  136OSM   H11T14806   2.398   0.711   5.170  0.8745  0.8629  2.7719
  136OSM   C12S14807   2.515   0.713   4.999  0.3799  0.7578 -0.0032
  136OSM   H12S14808   2.559   0.611   5.012  0.7888  0.7885 -1.0391
  136OSM   H12T14809   2.607   0.768   4.971  1.1321 -0.6189 -0.3669
  136OSM   C13S14810   2.406   0.725   4.895 -0.2527 -0.0374  0.3898
  136OSM   H13S14811   2.366   0.828   4.888 -0.7708 -0.3547 -2.3944
  136OSM   H13T14812   2.314   0.669   4.922  0.1204 -1.2650 -0.7711
  136OSM   C14S14813   2.455   0.687   4.749  0.1408 -0.1098 -0.3433
  136OSM   H14S14814   2.513   0.592   4.752 -0.5434 -0.5248  0.9842
  136OSM   H14T14815   2.526   0.765   4.718 -0.3142 -0.2041 -1.6811
  136OSM   C15S14816   2.344   0.680   4.640 -0.6975  0.2079  1.4015
  136OSM   H15S14817   2.285   0.773   4.649  0.2084  0.9316  0.1226
  136OSM   H15T14818   2.271   0.601   4.668 -0.3727 -0.3118  0.8309
  136OSM   C16S14819   2.408   0.658   4.498 -0.5783 -0.1598 -0.0738
  136OSM   H16S14820   2.461   0.562   4.486  1.2318  1.0982 -3.3350
  136OSM   H16T14821   2.483   0.739   4.482 -0.5090 -0.3803 -0.8609
  136OSM   C17S14822   2.308   0.677   4.386 -0.9156  0.1248 -0.1055
  136OSM   H17S14823   2.375   0.697   4.299  0.0922  1.2453  0.8897
  136OSM   H17T14824   2.254   0.773   4.397 -3.5185 -1.5106  2.5869
  136OSM   C18S14825   2.217   0.555   4.366 -0.7254 -0.4890 -0.1912
  136OSM   H18S14826   2.265   0.472   4.310  3.1123  0.3419  1.5106
  136OSM   H18T14827   2.125   0.595   4.320  0.8586  1.4734 -1.8300
  136OSM   H18U14828   2.188   0.518   4.467 -0.2246  0.4222  0.3078
  136OSM    C1F14829   2.379   1.027   5.995 -0.3517  0.4781  1.0384
  136OSM     OF14830   2.447   1.114   6.042  0.1928 -0.0431  0.0861
  136OSM    C2F14831   2.245   1.060   5.934 -0.6520 -0.3132  0.1185
  136OSM    H2F14832   2.181   1.100   6.015 -2.2577 -0.6073 -0.9367
  136OSM    H2G14833   2.188   0.975   5.890  1.4474 -0.7574 -1.9446
  136OSM    C3F14834   2.268   1.170   5.836  0.5518  0.1781  0.7405
  136OSM    H3F14835   2.343   1.249   5.859  0.8888 -0.2850  1.2676
  136OSM    H3G14836   2.172   1.225   5.841  0.3083 -0.3156  1.9948
  136OSM    C4F14837   2.289   1.114   5.692  0.3229  0.4494  0.1897
  136OSM    H4F14838   2.201   1.058   5.654 -0.2139  2.5860 -1.9347
  136OSM    H4G14839   2.377   1.046   5.681 -0.5419 -0.4372 -1.6902
  136OSM    C5F14840   2.305   1.226   5.590  0.3989 -0.5271 -0.1703
  136OSM    H5F14841   2.383   1.298   5.623 -1.3150  1.1959  0.2976
  136OSM    H5G14842   2.211   1.283   5.575 -0.3248 -1.8566 -0.8364
  136OSM    C6F14843   2.348   1.165   5.453 -0.5474 -0.2528  0.1956
  136OSM    H6F14844   2.276   1.086   5.423 -0.7425 -0.1865  0.4854
  136OSM    H6G14845   2.443   1.110   5.466 -0.3848  0.1038  0.5679
  136OSM    C7F14846   2.358   1.266   5.340  0.3081  0.6142  0.3214
  136OSM    H7F14847   2.441   1.339   5.351  1.5169 -0.7007  0.1867
  136OSM    H7G14848   2.268   1.331   5.338  0.7548  1.2901 -3.0685
  136OSM    C8F14849   2.378   1.214   5.198 -0.2779  0.0480 -0.3230
  136OSM    H8F14850   2.340   1.287   5.123  2.3532 -0.1664 -1.9894
  136OSM    H8G14851   2.312   1.127   5.181 -2.2168  1.1171  1.3008
  136OSM    C9F14852   2.523   1.170   5.166  0.0328 -0.7117  0.5550
  136OSM    H9F14853   2.572   1.114   5.248  2.3351  0.8370  0.3179
  136OSM   C10F14854   2.588   1.209   5.058 -0.3847 -0.8083  0.1808
  136OSM   H10F14855   2.688   1.169   5.038  0.6000  1.9272 -0.8697
  136OSM   C11F14856   2.532   1.286   4.937 -0.2230 -0.2447  0.0763
  136OSM   H11F14857   2.620   1.343   4.899 -0.7426  0.7539  0.3231
  136OSM   H11G14858   2.455   1.365   4.951 -0.6205 -0.9349  1.9840
  136OSM   C12F14859   2.483   1.180   4.834 -0.1890  0.0448  0.3023
  136OSM   H12F14860   2.383   1.142   4.867  0.0213 -0.4409  0.3869
  136OSM   H12G14861   2.558   1.098   4.833  1.8417  1.8198 -0.3128
  136OSM   C13F14862   2.457   1.243   4.697  0.1328  0.2455 -0.4341
  136OSM   H13F14863   2.544   1.307   4.673 -0.4525  1.4508  0.5757
  136OSM   H13G14864   2.376   1.318   4.708  0.5258  0.3834  2.1777
  136OSM   C14F14865   2.440   1.134   4.587 -0.7128  0.6172 -0.5861
  136OSM   H14F14866   2.390   1.040   4.620  1.3541  0.5832  2.9380
  136OSM   H14G14867   2.535   1.095   4.543  0.0987  1.5360  0.3140
  136OSM   C15F14868   2.351   1.193   4.477  0.9295 -0.1388  0.3130
  136OSM   H15F14869   2.387   1.295   4.453  0.0946  0.4632  1.5222
  136OSM   H15G14870   2.250   1.206   4.521  1.3522  0.4281  1.1478
  136OSM   C16F14871   2.353   1.112   4.351  0.4958 -1.2479 -0.1127
  136OSM   H16F14872   2.310   1.017   4.387  0.1758 -0.4466  1.7483
  136OSM   H16G14873   2.460   1.108   4.322 -0.1070 -1.7392 -2.5282
  136OSM   C17F14874   2.269   1.171   4.237 -0.3187  0.4489  0.3923
  136OSM   H17F14875   2.317   1.262   4.195  0.7523 -0.9595 -1.6096
  136OSM   H17G14876   2.170   1.195   4.281  0.0964 -1.2908  2.4641
  136OSM   C18F14877   2.265   1.073   4.120 -0.2086  0.3239 -0.7760
  136OSM   H18F14878   2.264   0.971   4.163  1.4515  0.9669  0.9113
  136OSM   H18G14879   2.361   1.094   4.068 -0.0762  0.1901 -0.5882
  136OSM   H18H14880   2.173   1.102   4.064 -0.0949 -0.4815 -1.4127
  137OSM      N14881   6.514   6.706   6.152  0.1347 -0.0543  0.3672
  137OSM    C1514882   6.639   6.631   6.187  0.8536 -0.5565 -0.3258
  137OSM   H15A14883   6.625   6.567   6.272 -0.0670 -0.7694 -0.6236
  137OSM   H15B14884   6.723   6.696   6.206  1.0510  0.0727 -2.9106
  137OSM   H15C14885   6.670   6.562   6.109 -1.5952 -2.2845  0.1235
  137OSM    C1414886   6.500   6.810   6.256 -0.1044  0.2421 -0.3167
  137OSM   H14A14887   6.409   6.869   6.251 -1.4033 -1.6353  0.3690
  137OSM   H14B14888   6.579   6.881   6.239 -0.3294  0.0359 -2.6137
  137OSM   H14C14889   6.511   6.774   6.357  1.6621  1.1193 -0.1601
  137OSM    C1314890   6.541   6.768   6.024  0.1233  0.3388  0.4176
  137OSM   H13A14891   6.621   6.840   6.020 -0.5363  1.0182 -2.2079
  137OSM   H13B14892   6.455   6.820   5.985 -0.2490  1.7217  2.8416
  137OSM   H13C14893   6.555   6.685   5.956  2.5615  1.1787 -0.1970
  137OSM    C1214894   6.406   6.603   6.141  0.1200  1.1267  0.1255
  137OSM   H12A14895   6.403   6.535   6.225 -0.2595 -0.2548 -0.9721
  137OSM   H12B14896   6.424   6.535   6.059 -2.3384 -0.1190  0.5235
  137OSM    C1114897   6.266   6.655   6.126 -0.5872 -0.0709  0.9802
  137OSM   H11A14898   6.202   6.565   6.115 -0.6109 -0.0601  1.0274
  137OSM   H11B14899   6.268   6.695   6.022  0.7384 -2.1417  0.1405
  137OSM      P14900   6.115   6.707   6.328  0.2357  0.1441  0.3321
  137OSM    O1314901   6.166   6.583   6.396  0.7856  0.4195  0.4672
  137OSM    O1414902   6.071   6.821   6.412 -0.4038 -0.4180 -0.0494
  137OSM    O1114903   6.006   6.664   6.218 -0.0545  0.4747 -0.0847
  137OSM    O1214904   6.228   6.754   6.221 -0.3227 -0.4837 -0.3384
  137OSM    C1S14905   5.940   6.754   6.133 -0.4594  0.2394 -0.4216
  137OSM    H1S14906   5.986   6.852   6.111 -1.2037  0.7667  0.3342
  137OSM    H1T14907   5.843   6.768   6.183 -0.5069 -0.4889 -0.2923
  137OSM     NF14908   5.859   6.791   5.891  0.5039 -0.3831 -0.0713
  137OSM    HNF14909   5.763   6.787   5.864 -0.5009  0.3377  2.9948
  137OSM    C2S14910   5.901   6.695   5.993 -0.0201 -0.4289  0.1330
  137OSM    H2S14911   6.003   6.663   5.965 -0.8478 -2.4284 -0.7365
  137OSM    C3S14912   5.788   6.580   6.006 -0.2619 -0.1027  0.2623
  137OSM    H3S14913   5.682   6.613   6.010 -1.1027 -1.8239 -3.3338
  137OSM     O314914   5.814   6.500   6.125 -0.2061  0.6734 -0.3323
  137OSM    HO314915   5.875   6.556   6.174  0.5513  0.2233 -0.7413
  137OSM    C4S14916   5.800   6.494   5.883  0.9469  0.0576 -0.0875
  137OSM    H4S14917   5.905   6.469   5.860  0.5367 -0.8515 -1.0763
  137OSM    C5S14918   5.702   6.459   5.792 -1.0004 -0.3304 -0.5948
  137OSM    H5S14919   5.608   6.516   5.797 -0.0200  1.5072 -1.8413
  137OSM    C6S14920   5.719   6.386   5.665  0.0948  0.0024 -0.0498
  137OSM    H6S14921   5.655   6.295   5.672  0.6601 -0.5520 -1.7202
  137OSM    H6T14922   5.823   6.347   5.658  0.5243  1.0180  0.4667
  137OSM    C7S14923   5.683   6.462   5.534  0.4852  0.0554 -0.3237
  137OSM    H7S14924   5.748   6.552   5.523  2.8959 -1.4491  0.7766
  137OSM    H7T14925   5.583   6.500   5.561  0.2502  0.2404 -1.3922
  137OSM    C8S14926   5.667   6.374   5.412  0.5255  0.6911  0.0586
  137OSM    H8S14927   5.575   6.312   5.420 -0.1956  1.8400  0.9276
  137OSM    H8T14928   5.762   6.318   5.402  0.2969  0.5626 -1.6823
  137OSM    C9S14929   5.660   6.465   5.290 -0.6357 -0.0686 -0.2416
  137OSM    H9S14930   5.767   6.493   5.277  0.0558 -2.8095 -1.0426
  137OSM    H9T14931   5.590   6.551   5.302 -1.8141 -1.1503  0.8725
  137OSM   C10S14932   5.632   6.371   5.167  0.1731 -0.1965  0.1650
  137OSM   H10S14933   5.540   6.316   5.197  0.4712  0.3468  2.1782
  137OSM   H10T14934   5.721   6.304   5.161  0.2792  0.0210 -0.8701
  137OSM   C11S14935   5.607   6.457   5.043  0.0621  0.1199 -0.3524
  137OSM   H11S14936   5.691   6.529   5.032  1.4562 -1.6783 -2.0304
  137OSM   H11T14937   5.511   6.511   5.060  0.5309  0.8880 -0.0559
  137OSM   C12S14938   5.601   6.376   4.918 -1.0308  0.5541 -0.2810
  137OSM   H12S14939   5.523   6.297   4.920 -0.9868  0.3700 -2.5548
  137OSM   H12T14940   5.700   6.327   4.911 -1.1223  0.3535 -0.1791
  137OSM   C13S14941   5.571   6.461   4.796 -0.6249  0.0217 -0.6507
  137OSM   H13S14942   5.657   6.525   4.769 -1.1081 -0.3560 -3.4234
  137OSM   H13T14943   5.484   6.517   4.835 -2.9430 -3.6418 -0.0134
  137OSM   C14S14944   5.533   6.389   4.670 -0.8978 -0.4118 -0.0386
  137OSM   H14S14945   5.431   6.347   4.678 -1.8689  1.6727 -0.8532
  137OSM   H14T14946   5.609   6.315   4.637 -0.1413  0.4215 -0.2331
  137OSM   C15S14947   5.548   6.497   4.558 -0.8443 -0.2953 -0.4013
  137OSM   H15S14948   5.655   6.526   4.547 -0.9253  0.4934  0.7154
  137OSM   H15T14949   5.494   6.587   4.594 -0.3960  0.6039 -1.8629
  137OSM   C16S14950   5.501   6.443   4.419  0.0926 -0.5442 -0.0212
  137OSM   H16S14951   5.391   6.437   4.426  0.2108 -2.0071  1.0759
  137OSM   H16T14952   5.539   6.340   4.403 -0.0049 -0.6333  0.3217
  137OSM   C17S14953   5.562   6.540   4.308  0.5707 -0.4329 -0.1826
  137OSM   H17S14954   5.672   6.527   4.317  0.8911  2.6418  1.6587
  137OSM   H17T14955   5.525   6.643   4.330  1.2818 -0.2554  0.1925
  137OSM   C18S14956   5.515   6.516   4.164  0.6974 -0.0526 -0.2890
  137OSM   H18S14957   5.555   6.596   4.097  0.1309 -0.3070 -0.9533
  137OSM   H18T14958   5.407   6.542   4.160  1.3193  3.2872  1.4488
  137OSM   H18U14959   5.536   6.416   4.119  0.3496  1.0050 -2.9790
  137OSM    C1F14960   5.933   6.892   5.829 -0.0693  0.3302 -0.5949
  137OSM     OF14961   6.054   6.900   5.851  0.5652  0.0104 -0.3384
  137OSM    C2F14962   5.861   6.982   5.739  0.2691 -0.0424  0.3404
  137OSM    H2F14963   5.784   7.036   5.798 -0.4559 -1.5625  0.8372
  137OSM    H2G14964   5.818   6.925   5.653 -2.8362  1.2314  0.9055
  137OSM    C3F14965   5.943   7.094   5.674 -0.2009 -0.4593 -0.7159
  137OSM    H3F14966   6.033   7.063   5.617  1.6995 -0.2922  2.0385
  137OSM    H3G14967   5.969   7.165   5.755 -1.5327  0.2364 -0.8735
  137OSM    C4F14968   5.881   7.176   5.562  1.3999 -0.4357 -0.3536
  137OSM    H4F14969   5.794   7.224   5.610 -0.0072 -1.6195 -1.6164
  137OSM    H4G14970   5.835   7.114   5.482 -0.0914 -0.9827  0.8809
  137OSM    C5F14971   5.965   7.286   5.494  0.7646 -0.3408  0.0407
  137OSM    H5F14972   5.996   7.236   5.399 -2.7851 -0.0482 -1.4201
  137OSM    H5G14973   6.041   7.324   5.565  0.6693 -1.4826  0.7691
  137OSM    C6F14974   5.878   7.409   5.445  0.2402  0.0310  0.1273
  137OSM    H6F14975   5.954   7.476   5.400  2.9319 -1.2029  2.4414
  137OSM    H6G14976   5.839   7.457   5.538  1.0814 -0.3312  0.6863
  137OSM    C7F14977   5.757   7.367   5.360 -0.3457  0.2665  0.3517
  137OSM    H7F14978   5.683   7.450   5.371 -1.1516 -0.1974 -1.2400
  137OSM    H7G14979   5.706   7.282   5.408 -1.4908  0.5138 -0.3840
  137OSM    C8F14980   5.773   7.337   5.214  0.5294 -0.1149 -0.1946
  137OSM    H8F14981   5.681   7.303   5.163 -0.6761 -0.9104  2.3347
  137OSM    H8G14982   5.842   7.249   5.223 -0.1398 -0.5084  1.4324
  137OSM    C9F14983   5.845   7.447   5.139  0.0769  0.2033  0.4030
  137OSM    H9F14984   5.928   7.498   5.189  0.3810  2.1156 -1.8836
  137OSM   C10F14985   5.793   7.497   5.026 -0.2327 -0.6195 -0.9190
  137OSM   H10F14986   5.856   7.580   4.990 -0.0751  0.4502  1.6421
  137OSM   C11F14987   5.670   7.439   4.956  0.0150 -0.2497 -0.4066
  137OSM   H11F14988   5.582   7.491   4.999  1.0738  1.2711  0.0007
  137OSM   H11G14989   5.651   7.331   4.975  0.5445 -0.3131 -0.2259
  137OSM   C12F14990   5.667   7.469   4.805 -0.4409 -0.0361 -0.1615
  137OSM   H12F14991   5.682   7.579   4.799  1.0997  0.0947  3.5481
  137OSM   H12G14992   5.568   7.437   4.764 -1.3113  2.1458  0.0884
  137OSM   C13F14993   5.778   7.392   4.733 -0.8425  0.1062  0.0202
  137OSM   H13F14994   5.762   7.282   4.740 -1.0410  0.1831  0.9150
  137OSM   H13G14995   5.872   7.423   4.784 -0.7214 -2.0749  1.2611
  137OSM   C14F14996   5.796   7.447   4.591  0.1196  0.9651 -0.2762
  137OSM   H14F14997   5.900   7.430   4.554  0.2288  0.7315  0.1283
  137OSM   H14G14998   5.779   7.557   4.582 -1.1200  0.6457 -2.4584
  137OSM   C15F14999   5.690   7.384   4.491 -0.2214 -0.0201 -0.1204
  137OSM   H15F15000   5.589   7.428   4.505 -0.7238 -1.4861  1.0657
  137OSM   H15G15001   5.686   7.277   4.519  0.2009  0.3076  1.2710
  137OSM   C16F15002   5.721   7.391   4.344  0.6738 -0.6600  0.3554
  137OSM   H16F15003   5.647   7.330   4.289  0.7625  1.6793 -2.5746
  137OSM   H16G15004   5.823   7.359   4.312  1.0100  1.8724 -1.4102
  137OSM   C17F15005   5.711   7.534   4.276 -0.2891 -0.4887  0.1425
  137OSM   H17F15006   5.619   7.587   4.309  0.3316 -1.2272  3.3777
  137OSM   H17G15007   5.706   7.508   4.168  2.4852 -0.0072 -0.1879
  137OSM   C18F15008   5.845   7.615   4.298 -0.0663  0.2013  0.2534
  137OSM   H18F15009   5.835   7.703   4.230 -1.8045  0.0074  0.2180
  137OSM   H18G15010   5.939   7.560   4.276 -0.5449 -2.0558  3.3136
  137OSM   H18H15011   5.856   7.660   4.399 -0.1928 -1.5032  1.0477
  138OSM      N15012   2.868   6.095   6.322 -0.7721 -0.1611  0.5562
  138OSM    C1515013   2.870   5.951   6.369 -0.1213 -0.2383  0.0277
  138OSM   H15A15014   2.772   5.909   6.354 -0.0914 -0.1919 -0.3174
  138OSM   H15B15015   2.908   5.944   6.470  0.4687  3.8297  0.2536
  138OSM   H15C15016   2.948   5.897   6.316  1.0223 -1.5774  2.8881
  138OSM    C1415017   2.775   6.168   6.408  0.1479 -0.3773  0.1028
  138OSM   H14A15018   2.807   6.162   6.511 -2.2160 -0.2061  0.9194
  138OSM   H14B15019   2.677   6.124   6.400  1.3588 -3.4304  0.8031
  138OSM   H14C15020   2.780   6.274   6.388 -1.8554 -0.3774 -0.6596
  138OSM    C1315021   3.010   6.148   6.336  0.5185  0.0955  0.2776
  138OSM   H13A15022   3.012   6.253   6.309  2.1982  0.3014  1.0642
  138OSM   H13B15023   3.073   6.100   6.263 -0.1220  0.3270 -0.4392
  138OSM   H13C15024   3.047   6.129   6.436 -0.4240  0.9749  0.8132
  138OSM    C1215025   2.823   6.110   6.182  0.3462 -0.3810 -0.0277
  138OSM   H12A15026   2.721   6.076   6.186  0.7179 -1.4722  0.6775
  138OSM   H12B15027   2.872   6.032   6.126  2.2799  0.6555  0.1086
  138OSM    C1115028   2.827   6.250   6.112 -0.4586 -0.4117  0.1071
  138OSM   H11A15029   2.827   6.235   6.002 -1.6753 -1.3635  0.2178
  138OSM   H11B15030   2.930   6.283   6.137 -0.5800 -1.1529  1.6662
  138OSM      P15031   2.731   6.480   6.193  0.3138 -0.2631  0.2033
  138OSM    O1315032   2.604   6.540   6.244  0.0228 -0.5494  0.2029
  138OSM    O1415033   2.853   6.497   6.276 -0.1437 -1.0432 -1.1351
  138OSM    O1115034   2.764   6.538   6.048 -0.1547 -0.1465 -0.1400
  138OSM    O1215035   2.718   6.327   6.161 -0.0797 -0.2355  0.4694
  138OSM    C1S15036   2.717   6.485   5.922  0.3709 -0.5708  0.1408
  138OSM    H1S15037   2.607   6.484   5.916  0.3800 -2.0325 -0.0734
  138OSM    H1T15038   2.756   6.385   5.894 -0.9048 -0.8772 -0.5920
  138OSM     NF15039   2.722   6.539   5.672  0.2758 -0.4989  0.4972
  138OSM    HNF15040   2.787   6.505   5.604  0.2553  0.2718  0.0794
  138OSM    C2S15041   2.776   6.575   5.803 -0.4732 -0.0308  0.2292
  138OSM    H2S15042   2.726   6.670   5.833  0.3503 -0.0495  1.7402
  138OSM    C3S15043   2.929   6.604   5.809  0.0504 -0.2451  0.4410
  138OSM    H3S15044   2.985   6.512   5.782 -1.7230 -1.1998 -0.1805
  138OSM     O315045   2.979   6.618   5.947 -0.8491 -0.0768  0.3264
  138OSM    HO315046   2.908   6.583   6.001 -0.5025 -1.2554  0.0477
  138OSM    C4S15047   2.975   6.721   5.728  0.2982 -0.0658 -0.2260
  138OSM    H4S15048   2.905   6.806   5.730  2.5675  2.1231 -3.1561
  138OSM    C5S15049   3.081   6.737   5.643 -0.1061  0.0039  0.2089
  138OSM    H5S15050   3.151   6.655   5.624  0.1468  0.4773 -0.9425
  138OSM    C6S15051   3.117   6.857   5.564  0.4898  1.1298 -0.0485
  138OSM    H6S15052   3.149   6.830   5.462 -1.8079 -0.3324 -0.4599
  138OSM    H6T15053   3.188   6.908   5.633  0.9365  0.9211 -0.3496
  138OSM    C7S15054   2.996   6.962   5.544 -0.3765  0.4669 -0.2957
  138OSM    H7S15055   2.966   6.999   5.644  0.3419  1.1119 -0.3142
  138OSM    H7T15056   2.914   6.906   5.494  1.3712  0.1737 -3.0347
  138OSM    C8S15057   3.031   7.085   5.463  0.2139  0.2944 -0.1717
  138OSM    H8S15058   3.131   7.125   5.491  0.2540 -1.6160  2.8737
  138OSM    H8T15059   2.968   7.168   5.501  1.7571  0.3015  2.5813
  138OSM    C9S15060   3.024   7.076   5.308  0.3653 -0.3007  0.1736
  138OSM    H9S15061   2.933   7.018   5.281  1.6978 -0.9768 -3.5495
  138OSM    H9T15062   3.111   7.020   5.267  0.6258 -0.1756  0.5487
  138OSM   C10S15063   3.019   7.215   5.241  0.4599  0.0117 -0.5960
  138OSM   H10S15064   3.105   7.267   5.287  0.8172 -1.4447  0.4353
  138OSM   H10T15065   2.939   7.284   5.277 -0.0592 -1.7345  1.8189
  138OSM   C11S15066   3.029   7.212   5.091 -0.2370  0.4423  0.5972
  138OSM   H11S15067   2.961   7.135   5.048 -0.1173  0.1186  0.9806
  138OSM   H11T15068   3.134   7.191   5.064 -0.5384  0.9947 -1.0777
  138OSM   C12S15069   2.993   7.350   5.027  0.4293  0.2652 -0.9394
  138OSM   H12S15070   3.024   7.432   5.095 -0.3315  1.4054 -1.9403
  138OSM   H12T15071   2.883   7.358   5.019  0.4833 -0.0136 -2.0794
  138OSM   C13S15072   3.062   7.384   4.895 -0.1188 -0.2693 -0.2647
  138OSM   H13S15073   3.173   7.384   4.904 -0.1288  3.9506  3.3499
  138OSM   H13T15074   3.022   7.485   4.876 -0.3648 -0.4061 -0.4853
  138OSM   C14S15075   3.003   7.292   4.787 -0.2549 -0.3901  0.1341
  138OSM   H14S15076   2.893   7.278   4.789 -0.2412 -0.6220 -0.5221
  138OSM   H14T15077   3.050   7.191   4.793 -1.2735 -0.8601  0.3832
  138OSM   C15S15078   3.024   7.350   4.644 -0.2621  0.3763  0.8198
  138OSM   H15S15079   3.128   7.389   4.647  0.3985 -1.2932  1.1395
  138OSM   H15T15080   2.952   7.434   4.638 -3.1324 -2.0422 -1.1980
  138OSM   C16S15081   2.990   7.243   4.532  0.5297 -0.7546  0.8221
  138OSM   H16S15082   2.887   7.205   4.548  0.1574  0.7956  2.4234
  138OSM   H16T15083   3.051   7.150   4.529 -0.9441 -1.7843  1.5481
  138OSM   C17S15084   2.998   7.298   4.389  0.3562 -0.2102 -0.7743
  138OSM   H17S15085   3.093   7.333   4.341  1.0170 -0.7024  0.1453
  138OSM   H17T15086   2.926   7.382   4.382  2.7793  2.0649 -0.3561
  138OSM   C18S15087   2.934   7.185   4.309 -0.2359 -0.2316  0.1655
  138OSM   H18S15088   2.941   7.207   4.200 -0.9854 -1.2833 -0.1203
  138OSM   H18T15089   2.826   7.172   4.331 -0.2294 -0.6174 -0.0263
  138OSM   H18U15090   2.986   7.090   4.333  1.4251  0.0796 -1.9139
  138OSM    C1F15091   2.590   6.530   5.645  0.2352  0.8651 -0.3475
  138OSM     OF15092   2.511   6.609   5.699 -0.8374 -0.3888 -0.0664
  138OSM    C2F15093   2.546   6.440   5.546  0.8579  0.7713 -0.5107
  138OSM    H2F15094   2.456   6.396   5.594  0.7177  0.8627 -0.6854
  138OSM    H2G15095   2.620   6.360   5.527 -1.5214 -1.6401 -0.1607
  138OSM    C3F15096   2.512   6.516   5.416 -0.1457  0.8989 -0.1993
  138OSM    H3F15097   2.601   6.577   5.389 -0.0685  1.2518  0.8274
  138OSM    H3G15098   2.425   6.584   5.430 -0.0253  1.9692 -3.6061
  138OSM    C4F15099   2.473   6.424   5.305 -0.4432 -0.5669 -0.3736
  138OSM    H4F15100   2.370   6.385   5.320 -1.0283  1.6304  2.1235
  138OSM    H4G15101   2.539   6.334   5.300 -2.9166 -2.4344 -1.3858
  138OSM    C5F15102   2.473   6.511   5.174 -0.2957 -0.0138  0.0541
  138OSM    H5F15103   2.560   6.579   5.179  0.0899 -0.5578  1.1331
  138OSM    H5G15104   2.381   6.570   5.193 -0.8495 -0.4842 -1.0592
  138OSM    C6F15105   2.467   6.429   5.043  0.2544  0.3326 -0.1141
  138OSM    H6F15106   2.369   6.398   5.002  0.9420  0.8231 -2.2570
  138OSM    H6G15107   2.541   6.346   5.044 -0.2888 -0.1510  0.5955
  138OSM    C7F15108   2.506   6.512   4.914 -0.1953 -0.3602 -1.2929
  138OSM    H7F15109   2.617   6.521   4.904 -0.2151  2.6667  0.0049
  138OSM    H7G15110   2.450   6.605   4.933  1.8430  0.8673 -0.9439
  138OSM    C8F15111   2.439   6.441   4.794  0.0997  0.0178  0.1618
  138OSM    H8F15112   2.328   6.444   4.804  0.2062  1.2358  1.1101
  138OSM    H8G15113   2.472   6.336   4.809  0.0684 -0.1408 -0.8044
  138OSM    C9F15114   2.473   6.486   4.656 -0.3198 -0.0068  0.3495
  138OSM    H9F15115   2.528   6.581   4.661  1.7832 -1.2098  2.1134
  138OSM   C10F15116   2.424   6.428   4.545 -0.3429  0.3011 -0.1656
  138OSM   H10F15117   2.460   6.480   4.455 -0.3806 -0.1718 -0.4581
  138OSM   C11F15118   2.331   6.299   4.532  0.8560 -0.1966  0.1501
  138OSM   H11F15119   2.243   6.321   4.468 -0.5752 -0.1109  2.0367
  138OSM   H11G15120   2.296   6.264   4.632  0.5210 -1.3580 -0.3606
  138OSM   C12F15121   2.405   6.170   4.490  0.4304  0.1713 -0.9453
  138OSM   H12F15122   2.327   6.093   4.508  0.1135  0.7548  0.2460
  138OSM   H12G15123   2.489   6.150   4.561  0.4570 -2.0697 -1.5155
  138OSM   C13F15124   2.470   6.161   4.354 -0.1082  0.2597  0.1000
  138OSM   H13F15125   2.574   6.124   4.363  1.0396  3.4911  1.7670
  138OSM   H13G15126   2.478   6.250   4.289 -1.4787 -0.7725 -1.5702
  138OSM   C14F15127   2.388   6.066   4.270  0.3642 -0.1355  0.4273
  138OSM   H14F15128   2.315   6.118   4.204  2.3176 -0.5366 -2.2346
  138OSM   H14G15129   2.332   5.987   4.324 -0.7706 -0.9015 -1.7561
  138OSM   C15F15130   2.466   6.003   4.154 -0.3966  0.9192 -0.1015
  138OSM   H15F15131   2.552   5.959   4.209  1.0241  1.1372 -2.0163
  138OSM   H15G15132   2.507   6.082   4.087  0.1685 -0.4159 -1.3798
  138OSM   C16F15133   2.390   5.893   4.084  0.5025 -0.1657  0.2899
  138OSM   H16F15134   2.281   5.912   4.088  0.2826 -1.4855  1.2232
  138OSM   H16G15135   2.402   5.801   4.145  3.9049 -0.7120 -0.9580
  138OSM   C17F15136   2.444   5.872   3.943  0.2752 -0.3873 -0.1397
  138OSM   H17F15137   2.416   5.950   3.870  0.3702 -1.2778 -1.1525
  138OSM   H17G15138   2.398   5.784   3.893 -0.5943  1.1796 -2.2461
  138OSM   C18F15139   2.594   5.852   3.940 -0.2568  0.3333 -0.3563
  138OSM   H18F15140   2.660   5.941   3.935  2.2250 -1.1824  2.3408
  138OSM   H18G15141   2.623   5.796   3.849  1.3990 -0.0829  0.3764
  138OSM   H18H15142   2.630   5.791   4.025 -0.5466  2.7036  1.5989
  139OSM      N15143   5.404   2.316   6.859  0.2351 -0.7412  0.1260
  139OSM    C1515144   5.457   2.192   6.926 -0.3154  0.0037 -0.5049
  139OSM   H15A15145   5.422   2.109   6.866 -1.0198  0.0974 -0.2324
  139OSM   H15B15146   5.417   2.184   7.026 -0.7426 -1.0938 -0.7521
  139OSM   H15C15147   5.564   2.190   6.943 -0.5248 -1.3182  0.8854
  139OSM    C1415148   5.260   2.293   6.814  0.1413  0.2979  0.1553
  139OSM   H14A15149   5.216   2.388   6.788  1.6218  0.9847  0.0781
  139OSM   H14B15150   5.197   2.255   6.893  0.8841 -0.6599  0.3068
  139OSM   H14C15151   5.274   2.230   6.727 -0.5964 -1.2916  1.1350
  139OSM    C1315152   5.395   2.419   6.963  0.3393 -0.4295  0.2848
  139OSM   H13A15153   5.489   2.459   6.997  1.9446 -1.3206 -2.6992
  139OSM   H13B15154   5.333   2.375   7.040 -2.4221  1.2598 -0.8052
  139OSM   H13C15155   5.343   2.509   6.933  2.9144  0.3439 -2.3005
  139OSM    C1215156   5.493   2.357   6.749  0.0585 -0.5726  0.2775
  139OSM   H12A15157   5.592   2.379   6.788  1.5874  0.5743 -3.7204
  139OSM   H12B15158   5.453   2.441   6.695 -3.2098 -0.6305  2.3523
  139OSM    C1115159   5.513   2.260   6.628  0.3440 -0.8752 -0.0964
  139OSM   H11A15160   5.534   2.158   6.666  1.2817 -0.7188 -0.1827
  139OSM   H11B15161   5.597   2.295   6.565 -1.5307  1.0983 -1.6825
  139OSM      P15162   5.380   2.366   6.433 -0.2212 -0.2211 -0.1931
  139OSM    O1315163   5.235   2.384   6.391 -0.5716  0.0906 -0.2341
  139OSM    O1415164   5.445   2.490   6.478  0.4653  0.0103 -0.2527
  139OSM    O1115165   5.463   2.304   6.312  0.0332  0.2038  0.6877
  139OSM    O1215166   5.399   2.254   6.545  0.4261  0.0060 -0.0285
  139OSM    C1S15167   5.403   2.201   6.237 -0.2631 -0.6910  0.6698
  139OSM    H1S15168   5.296   2.226   6.218 -0.1450 -1.2734 -0.9411
  139OSM    H1T15169   5.413   2.095   6.269  0.4901 -1.1804 -1.0418
  139OSM     NF15170   5.384   2.131   5.993  0.0676  0.6384 -0.7260
  139OSM    HNF15171   5.420   2.046   5.956  0.2747  1.2979 -2.1053
  139OSM    C2S15172   5.471   2.203   6.090  0.1412  0.3704 -0.3568
  139OSM    H2S15173   5.466   2.312   6.069  0.6882  0.3240 -0.7351
  139OSM    C3S15174   5.617   2.161   6.106 -0.2265  0.3257 -0.7990
  139OSM    H3S15175   5.624   2.055   6.137 -2.7659  0.4231  0.3509
  139OSM     O315176   5.694   2.234   6.200 -0.1493 -0.5624 -0.2177
  139OSM    HO315177   5.629   2.272   6.259  0.7605 -2.1784  1.9252
  139OSM    C4S15178   5.681   2.172   5.972 -0.1316 -0.5541  0.2138
  139OSM    H4S15179   5.685   2.072   5.925 -0.5018 -1.6861  2.4535
  139OSM    C5S15180   5.746   2.280   5.918 -0.4822  0.1743  0.3966
  139OSM    H5S15181   5.738   2.378   5.968 -2.2623  0.6698 -0.7537
  139OSM    C6S15182   5.826   2.294   5.788 -0.5168  0.1877  0.4074
  139OSM    H6S15183   5.825   2.197   5.734  1.3412  1.0725 -1.3175
  139OSM    H6T15184   5.928   2.335   5.796 -0.8597  0.7332  3.1790
  139OSM    C7S15185   5.735   2.384   5.693  0.1433 -0.3695  0.1022
  139OSM    H7S15186   5.707   2.482   5.737  0.1472  1.0244 -2.7520
  139OSM    H7T15187   5.644   2.324   5.670 -0.3469 -0.6377  2.5215
  139OSM    C8S15188   5.810   2.413   5.556 -0.3610  0.0160  0.8233
  139OSM    H8S15189   5.849   2.319   5.513 -2.0614  0.4800 -2.0228
  139OSM    H8T15190   5.895   2.482   5.576 -0.6628  0.1427  1.6920
  139OSM    C9S15191   5.731   2.478   5.444  0.7340  0.0144 -0.0672
  139OSM    H9S15192   5.805   2.531   5.380  0.7827  0.8814  0.6802
  139OSM    H9T15193   5.661   2.552   5.488 -2.2035 -0.2133 -3.8116
  139OSM   C10S15194   5.654   2.371   5.368 -0.6558 -0.1189 -0.8716
  139OSM   H10S15195   5.569   2.325   5.423 -1.0794  1.9291  0.2892
  139OSM   H10T15196   5.707   2.277   5.344 -1.0355 -0.4450 -0.4526
  139OSM   C11S15197   5.600   2.420   5.232 -0.1679  0.1830  0.5508
  139OSM   H11S15198   5.545   2.517   5.240  0.9673  0.8480  0.4354
  139OSM   H11T15199   5.520   2.348   5.207 -0.3376  0.6546 -0.3159
  139OSM   C12S15200   5.705   2.423   5.125 -0.2248  0.4488 -0.7173
  139OSM   H12S15201   5.762   2.328   5.123 -0.5043  0.2002  1.1888
  139OSM   H12T15202   5.780   2.500   5.154  1.9199 -2.5002  2.3010
  139OSM   C13S15203   5.655   2.465   4.983  0.2586 -0.3389 -0.7281
  139OSM   H13S15204   5.738   2.475   4.910 -0.2945 -0.1452 -1.3441
  139OSM   H13T15205   5.604   2.562   5.003  3.3392  1.4195 -0.7409
  139OSM   C14S15206   5.553   2.366   4.936  0.2118  0.3944  0.2475
  139OSM   H14S15207   5.475   2.427   4.885  1.1024  0.2644 -1.3531
  139OSM   H14T15208   5.504   2.313   5.020 -1.7097  2.1413  0.3013
  139OSM   C15S15209   5.612   2.266   4.842  0.7085  0.1381 -0.2434
  139OSM   H15S15210   5.697   2.213   4.890  0.1221 -1.3032 -0.7381
  139OSM   H15T15211   5.637   2.307   4.742 -2.0506  1.6214 -0.4189
  139OSM   C16S15212   5.513   2.153   4.817  0.0812 -0.3575 -1.1912
  139OSM   H16S15213   5.418   2.202   4.785  0.3279  0.1622 -1.1236
  139OSM   H16T15214   5.490   2.109   4.916  0.0789  3.6908  0.7940
  139OSM   C17S15215   5.560   2.038   4.718  1.0051 -0.3167 -0.3792
  139OSM   H17S15216   5.666   2.006   4.725  0.3001 -2.7996  0.0058
  139OSM   H17T15217   5.564   2.083   4.616  2.1927 -1.8514 -1.0514
  139OSM   C18S15218   5.473   1.911   4.715 -0.1206  0.6096 -0.2062
  139OSM   H18S15219   5.514   1.842   4.639 -0.0357 -0.2889  0.6291
  139OSM   H18T15220   5.368   1.944   4.700  0.3283  1.9666 -0.5396
  139OSM   H18U15221   5.486   1.859   4.812 -1.8023  1.8742  0.7506
  139OSM    C1F15222   5.266   2.182   5.955 -0.0247 -0.4694 -0.0205
  139OSM     OF15223   5.227   2.282   6.011 -0.1379 -0.2266  0.1183
  139OSM    C2F15224   5.196   2.124   5.836 -0.9618 -0.1395  0.1315
  139OSM    H2F15225   5.237   2.021   5.826 -1.9018 -0.5346  0.1761
  139OSM    H2G15226   5.241   2.185   5.755 -0.2251  0.3942  0.9267
  139OSM    C3F15227   5.045   2.144   5.837 -0.4963  0.8873 -0.4393
  139OSM    H3F15228   5.005   2.245   5.816 -0.8807  0.4711 -1.8640
  139OSM    H3G15229   5.011   2.116   5.939 -1.7705 -2.1183 -1.5629
  139OSM    C4F15230   4.978   2.040   5.749  0.4438 -0.3380  0.7516
  139OSM    H4F15231   4.867   2.045   5.754  0.1807 -3.6472  0.4552
  139OSM    H4G15232   5.011   1.939   5.783 -0.5338  0.3937  4.2636
  139OSM    C5F15233   5.020   2.044   5.600 -0.2019 -0.3383  0.9897
  139OSM    H5F15234   5.130   2.036   5.582 -0.6861 -2.3815 -1.6386
  139OSM    H5G15235   4.982   2.139   5.558  1.7285  0.6055  1.2448
  139OSM    C6F15236   4.955   1.928   5.530 -0.1082  0.3043 -0.1900
  139OSM    H6F15237   4.845   1.941   5.540  0.1160  1.6722  0.7692
  139OSM    H6G15238   4.974   1.835   5.589  1.1053 -0.9579 -2.4624
  139OSM    C7F15239   4.987   1.902   5.382  0.1735 -0.0582 -0.5016
  139OSM    H7F15240   5.084   1.848   5.373 -1.4906 -3.8572  1.8543
  139OSM    H7G15241   5.002   2.003   5.339 -3.6027  1.2413  0.8442
  139OSM    C8F15242   4.883   1.826   5.299  0.3059 -0.2350  0.0035
  139OSM    H8F15243   4.925   1.831   5.197  2.7044  2.0907  0.9935
  139OSM    H8G15244   4.793   1.891   5.300  0.8119  0.4706  0.5722
  139OSM    C9F15245   4.847   1.697   5.357  0.0344  0.3184  0.0145
  139OSM    H9F15246   4.809   1.698   5.461 -2.2579 -0.5649 -0.7535
  139OSM   C10F15247   4.874   1.578   5.304 -0.3381  0.0258  0.0280
  139OSM   H10F15248   4.835   1.488   5.353 -1.5858  0.5846  0.0854
  139OSM   C11F15249   4.930   1.544   5.165 -0.1880  0.5438 -0.6891
  139OSM   H11F15250   4.952   1.435   5.167  2.0020  0.9325 -0.5380
  139OSM   H11G15251   5.017   1.607   5.138  0.9155 -0.1879  0.9839
  139OSM   C12F15252   4.833   1.561   5.047  0.3022 -0.3246  0.4001
  139OSM   H12F15253   4.892   1.536   4.957  0.5688 -3.3194  1.2940
  139OSM   H12G15254   4.799   1.664   5.022 -0.0082 -1.1045 -2.7864
  139OSM   C13F15255   4.704   1.484   5.048 -0.1090 -0.3633 -0.7053
  139OSM   H13F15256   4.641   1.529   5.128 -3.4751 -0.0695 -3.3150
  139OSM   H13G15257   4.705   1.375   5.072  1.2948 -0.4660 -1.1359
  139OSM   C14F15258   4.620   1.494   4.921  0.0211 -1.1158  0.1912
  139OSM   H14F15259   4.616   1.602   4.898  2.3465 -1.3076 -1.4634
  139OSM   H14G15260   4.515   1.465   4.940 -0.6582  0.9355 -0.2331
  139OSM   C15F15261   4.665   1.417   4.799  0.4178 -0.1151  0.1515
  139OSM   H15F15262   4.665   1.311   4.833  0.5431 -0.2036 -0.1269
  139OSM   H15G15263   4.768   1.447   4.769  0.4220 -0.6612 -0.4020
  139OSM   C16F15264   4.567   1.445   4.685 -0.0613 -0.5061  0.1041
  139OSM   H16F15265   4.580   1.552   4.655 -1.4721 -0.6562 -1.1650
  139OSM   H16G15266   4.461   1.434   4.718 -1.1411  2.1687 -2.0189
  139OSM   C17F15267   4.576   1.348   4.566  0.3986 -0.2576 -0.1033
  139OSM   H17F15268   4.544   1.251   4.608 -6.1254  0.3843 -2.4303
  139OSM   H17G15269   4.683   1.341   4.534 -0.1788  2.4132 -3.1410
  139OSM   C18F15270   4.499   1.378   4.441  0.3027  0.1697  0.5564
  139OSM   H18F15271   4.389   1.369   4.448  0.3652 -1.3192  0.0197
  139OSM   H18G15272   4.528   1.298   4.368 -1.7524 -0.0283 -0.1085
  139OSM   H18H15273   4.514   1.478   4.395 -1.8304  0.6506  0.8332
  140OSM      N15274   5.787   6.362   6.556  0.5529  0.1899 -0.9742
  140OSM    C1515275   5.728   6.494   6.583  0.6663  0.0146  0.3730
  140OSM   H15A15276   5.623   6.487   6.559  1.0921 -0.9535 -1.3623
  140OSM   H15B15277   5.758   6.576   6.519  0.8451 -0.7075 -0.4813
  140OSM   H15C15278   5.751   6.528   6.683  0.5631  1.0051  0.0712
  140OSM    C1415279   5.790   6.329   6.417 -0.6493  0.0844  0.5658
  140OSM   H14A15280   5.694   6.309   6.374 -0.4531  0.0282  0.1476
  140OSM   H14B15281   5.845   6.240   6.390 -0.0025  1.7577 -4.7504
  140OSM   H14C15282   5.828   6.411   6.358 -0.2581  0.7903  1.7569
  140OSM    C1315283   5.931   6.370   6.602  0.4674  0.0794 -0.3763
  140OSM   H13A15284   5.976   6.450   6.545 -0.8158  0.8058 -0.4055
  140OSM   H13B15285   5.973   6.271   6.597 -2.1105 -1.1632  1.0152
  140OSM   H13C15286   5.935   6.398   6.707 -0.6649  0.2553 -0.3751
  140OSM    C1215287   5.713   6.258   6.638 -0.7952  0.2384  0.0776
  140OSM   H12A15288   5.733   6.272   6.743  4.3906 -1.4567 -0.4100
  140OSM   H12B15289   5.754   6.160   6.618  0.1942  0.9817 -1.7925
  140OSM    C1115290   5.560   6.223   6.607  0.2160 -0.4024  0.1031
  140OSM   H11A15291   5.492   6.305   6.638  0.9983 -0.2982  1.6551
  140OSM   H11B15292   5.531   6.138   6.673  1.0709  0.3491  1.4917
  140OSM      P15293   5.548   6.054   6.412 -0.4693 -0.0783  0.1865
  140OSM    O1315294   5.679   5.997   6.459  0.1670 -0.3131 -0.1421
  140OSM    O1415295   5.426   5.976   6.440 -0.1341 -0.3413 -0.4731
  140OSM    O1115296   5.563   6.080   6.252  0.1623  0.0506 -0.1593
  140OSM    O1215297   5.531   6.203   6.469 -0.5320  0.6907 -0.0649
  140OSM    C1S15298   5.452   6.131   6.176  0.4551  0.4386 -0.1146
  140OSM    H1S15299   5.448   6.240   6.199  0.9186  0.3127  0.6083
  140OSM    H1T15300   5.353   6.096   6.213  0.7722  1.1383  1.5100
  140OSM     NF15301   5.368   6.167   5.955 -0.8302 -0.0545  0.4236
  140OSM    HNF15302   5.288   6.116   5.926  0.2540 -0.8698 -1.3511
  140OSM    C2S15303   5.472   6.101   6.026 -0.2718 -0.2017 -0.2410
  140OSM    H2S15304   5.569   6.150   6.001 -0.5224  0.0019 -0.8400
  140OSM    C3S15305   5.483   5.952   6.007  0.5736 -0.1337  0.3809
  140OSM    H3S15306   5.382   5.911   6.029 -0.3335  1.3902 -0.7804
  140OSM     O315307   5.570   5.880   6.090  0.5806 -0.2179  0.2104
  140OSM    HO315308   5.590   5.950   6.152 -0.9553 -0.3781  0.9282
  140OSM    C4S15309   5.512   5.926   5.867 -0.6008 -0.1579 -0.1057
  140OSM    H4S15310   5.426   5.907   5.800  0.1752 -0.8571 -0.9210
  140OSM    C5S15311   5.632   5.928   5.806 -0.5859  0.2046  0.3532
  140OSM    H5S15312   5.722   5.943   5.868 -0.4230  3.4420 -0.4930
  140OSM    C6S15313   5.664   5.895   5.663  0.0460  0.1506  0.5030
  140OSM    H6S15314   5.689   5.788   5.648 -2.4275 -0.4159  0.0365
  140OSM    H6T15315   5.755   5.947   5.627  0.3907 -1.0688 -0.4409
  140OSM    C7S15316   5.551   5.918   5.575  0.6560  0.6757  0.5987
  140OSM    H7S15317   5.519   6.024   5.586  2.1575  1.0801  1.2047
  140OSM    H7T15318   5.464   5.852   5.596 -1.1866  1.9131 -2.4305
  140OSM    C8S15319   5.582   5.885   5.429  0.4633  0.2991  0.4383
  140OSM    H8S15320   5.602   5.777   5.413  0.5199  0.7075 -3.0608
  140OSM    H8T15321   5.683   5.925   5.406  0.7058 -1.0450 -0.9822
  140OSM    C9S15322   5.466   5.944   5.339 -0.2436  1.0425 -0.1316
  140OSM    H9S15323   5.465   6.054   5.345 -0.7869  1.0262  0.1553
  140OSM    H9T15324   5.371   5.907   5.385  0.5977 -1.2343 -0.0588
  140OSM   C10S15325   5.488   5.911   5.193  0.1098 -0.1139  0.0187
  140OSM   H10S15326   5.403   5.954   5.136  0.6977  0.2047 -0.6377
  140OSM   H10T15327   5.496   5.801   5.185  0.3428 -0.0072 -1.4268
  140OSM   C11S15328   5.612   5.981   5.131 -0.7614  0.9332 -0.2273
  140OSM   H11S15329   5.689   5.986   5.212 -2.5100  2.1879  1.4602
  140OSM   H11T15330   5.579   6.082   5.097 -1.7932  1.0235  0.9859
  140OSM   C12S15331   5.660   5.906   5.007 -0.3386  0.1618  0.4241
  140OSM   H12S15332   5.694   5.803   5.032 -2.4474 -1.0929 -1.5501
  140OSM   H12T15333   5.751   5.964   4.980 -1.1240  0.9650 -0.5887
  140OSM   C13S15334   5.568   5.902   4.889 -0.6027  0.5325 -0.3489
  140OSM   H13S15335   5.552   6.006   4.853  0.0374  0.0187 -2.2726
  140OSM   H13T15336   5.470   5.859   4.921 -0.1027 -0.4602 -0.1187
  140OSM   C14S15337   5.628   5.812   4.782 -0.0395  0.7882  0.1973
  140OSM   H14S15338   5.654   5.712   4.821  1.2943  1.4870  1.1832
  140OSM   H14T15339   5.724   5.849   4.741 -0.1437 -0.7871 -1.6037
  140OSM   C15S15340   5.533   5.788   4.657  0.1569  0.1967 -0.6032
  140OSM   H15S15341   5.431   5.771   4.697  1.2532 -0.8907  1.9520
  140OSM   H15T15342   5.559   5.689   4.613 -2.0946 -0.7515  0.0820
  140OSM   C16S15343   5.553   5.898   4.553 -0.4801 -0.4307 -0.1567
  140OSM   H16S15344   5.652   5.884   4.503 -0.3564 -0.3552  0.0645
  140OSM   H16T15345   5.553   5.998   4.601  1.7861 -0.4217 -0.0471
  140OSM   C17S15346   5.439   5.896   4.450 -0.1592 -0.1867  0.1082
  140OSM   H17S15347   5.348   5.902   4.514  0.3775 -0.0807  0.8710
  140OSM   H17T15348   5.431   5.802   4.391 -1.1388  2.0362 -3.6055
  140OSM   C18S15349   5.443   6.023   4.365  0.3739 -0.4782 -0.6066
  140OSM   H18S15350   5.527   6.027   4.292  0.4733 -0.3332 -0.4854
  140OSM   H18T15351   5.438   6.117   4.423  0.8187  0.5263 -2.1372
  140OSM   H18U15352   5.351   6.031   4.303  2.8080 -1.1614 -4.7013
  140OSM    C1F15353   5.366   6.300   5.926 -0.1488  0.3640 -0.5284
  140OSM     OF15354   5.409   6.388   5.997  0.3589  0.3676  0.3285
  140OSM    C2F15355   5.271   6.337   5.816  0.2898 -0.0826 -0.4712
  140OSM    H2F15356   5.167   6.317   5.847  0.5446  0.1574  0.5696
  140OSM    H2G15357   5.297   6.283   5.722 -0.2284  0.8612 -1.1811
  140OSM    C3F15358   5.279   6.492   5.790  1.1861 -0.0541  0.0412
  140OSM    H3F15359   5.383   6.529   5.774 -0.2027  3.0680 -3.0588
  140OSM    H3G15360   5.245   6.548   5.880  0.6317 -0.1574 -0.1023
  140OSM    C4F15361   5.195   6.532   5.666 -1.2916  0.6654 -0.6823
  140OSM    H4F15362   5.192   6.643   5.661  0.0716  0.7126 -1.0321
  140OSM    H4G15363   5.091   6.495   5.676 -1.7173  1.9421 -0.3076
  140OSM    C5F15364   5.259   6.482   5.538 -0.3982 -0.1139 -0.2748
  140OSM    H5F15365   5.253   6.371   5.539  0.8765 -0.2876  3.3970
  140OSM    H5G15366   5.364   6.516   5.526 -0.6315  0.5111 -0.6091
  140OSM    C6F15367   5.175   6.540   5.426 -0.1980 -0.5052  0.1091
  140OSM    H6F15368   5.200   6.646   5.403  0.4039 -1.0394 -1.8963
  140OSM    H6G15369   5.067   6.524   5.444 -0.4611  0.1876 -0.7899
  140OSM    C7F15370   5.202   6.459   5.296 -0.1546 -0.1543  0.3426
  140OSM    H7F15371   5.172   6.354   5.313  1.2942 -0.5368  0.6769
  140OSM    H7G15372   5.309   6.454   5.266 -0.5934  2.6858 -2.2760
  140OSM    C8F15373   5.140   6.512   5.170  0.6149 -0.0555  0.2960
  140OSM    H8F15374   5.205   6.595   5.136 -0.3609  0.4596 -0.3629
  140OSM    H8G15375   5.051   6.564   5.213  1.1298  3.0952 -2.0231
  140OSM    C9F15376   5.118   6.419   5.055 -0.3650  0.8517  0.3615
  140OSM    H9F15377   5.079   6.322   5.089 -0.6001  0.1415 -1.7869
  140OSM   C10F15378   5.121   6.425   4.923 -0.2122 -0.0039  0.0304
  140OSM   H10F15379   5.120   6.327   4.871 -1.2165 -0.2508  0.5033
  140OSM   C11F15380   5.159   6.554   4.859 -0.3030  0.1614  0.6262
  140OSM   H11F15381   5.267   6.544   4.833 -0.1337  3.0447 -0.1996
  140OSM   H11G15382   5.158   6.647   4.920  1.1732  0.4132  0.3174
  140OSM   C12F15383   5.078   6.571   4.732  0.1974  0.4100  1.2661
  140OSM   H12F15384   4.971   6.585   4.758 -0.0618 -2.0462  1.7766
  140OSM   H12G15385   5.091   6.491   4.656 -1.2684 -0.0915  1.5035
  140OSM   C13F15386   5.121   6.703   4.656  0.5709  0.7865 -0.0655
  140OSM   H13F15387   5.216   6.690   4.601 -0.3606  0.5569 -1.7069
  140OSM   H13G15388   5.135   6.786   4.728 -2.6385  0.3827  1.1853
  140OSM   C14F15389   5.025   6.749   4.552 -0.0848  0.5627 -0.3070
  140OSM   H14F15390   4.920   6.748   4.587 -0.2507 -2.2781 -0.5898
  140OSM   H14G15391   5.033   6.679   4.465 -1.8878  1.9540 -1.6755
  140OSM   C15F15392   5.059   6.894   4.514 -0.1622 -1.0718  0.3037
  140OSM   H15F15393   5.170   6.898   4.502  0.0353  0.0157  2.0617
  140OSM   H15G15394   5.043   6.954   4.606 -1.0427  1.7915 -1.5739
  140OSM   C16F15395   4.988   6.954   4.398 -0.1487  0.4266 -0.6061
  140OSM   H16F15396   4.988   6.878   4.318 -1.0665 -0.1010 -0.1154
  140OSM   H16G15397   5.032   7.044   4.350 -1.6048  0.4837 -1.8705
  140OSM   C17F15398   4.844   6.988   4.453  0.3876  0.3959 -0.4884
  140OSM   H17F15399   4.844   7.035   4.553  1.1145 -1.2010  0.3019
  140OSM   H17G15400   4.782   6.898   4.475  1.0583 -0.3919 -1.7153
  140OSM   C18F15401   4.767   7.082   4.360  0.9612  0.2511  0.1023
  140OSM   H18F15402   4.672   7.115   4.407  1.2570  1.4826 -0.1177
  140OSM   H18G15403   4.752   7.039   4.259 -1.9843 -1.5209  1.1808
  140OSM   H18H15404   4.818   7.181   4.350  0.5750  0.2744 -2.3189
  141OSM      N15405   4.521   5.356   6.136 -0.4638  0.3416 -0.6656
  141OSM    C1515406   4.653   5.419   6.119 -0.8805  0.6809  1.0142
  141OSM   H15A15407   4.641   5.506   6.055 -1.6894  1.1106  1.7230
  141OSM   H15B15408   4.724   5.346   6.085 -0.2352  2.0806 -0.8421
  141OSM   H15C15409   4.687   5.450   6.217  0.3875 -1.7074  1.3929
  141OSM    C1415410   4.429   5.440   6.223 -0.3830  0.3933 -0.1772
  141OSM   H14A15411   4.340   5.386   6.250 -0.1848  0.7145  1.1988
  141OSM   H14B15412   4.409   5.534   6.174  1.5490  0.0554 -1.7345
  141OSM   H14C15413   4.475   5.454   6.320  1.6091  0.6829 -1.0963
  141OSM    C1315414   4.447   5.335   6.013  0.8099  0.4176  0.9522
  141OSM   H13A15415   4.347   5.304   6.039 -0.0248  1.6441 -0.5894
  141OSM   H13B15416   4.484   5.266   5.939 -0.3482  2.8749 -2.1746
  141OSM   H13C15417   4.436   5.424   5.952  0.3518 -0.0475  0.3514
  141OSM    C1215418   4.551   5.225   6.218 -0.0995  0.1079  0.0889
  141OSM   H12A15419   4.612   5.243   6.305 -0.7473  0.0146  0.5714
  141OSM   H12B15420   4.620   5.174   6.153 -0.8962 -1.4145  0.3988
  141OSM    C1115421   4.437   5.124   6.243  0.0166 -0.0974  0.0781
  141OSM   H11A15422   4.486   5.039   6.295  0.1324  0.7747  1.4664
  141OSM   H11B15423   4.402   5.095   6.142 -2.3813  0.7717  0.6086
  141OSM      P15424   4.182   5.173   6.307 -0.0658  0.6379 -0.1908
  141OSM    O1315425   4.118   5.044   6.334 -0.7498 -0.0427 -0.3729
  141OSM    O1415426   4.116   5.288   6.380  0.0290  0.4469 -0.6443
  141OSM    O1115427   4.171   5.195   6.148 -0.2983 -0.1182 -0.1941
  141OSM    O1215428   4.340   5.177   6.336 -0.5031 -0.3687 -0.0014
  141OSM    C1S15429   4.074   5.288   6.100 -0.0885 -0.2342  0.3758
  141OSM    H1S15430   4.097   5.392   6.131 -1.0223  0.8948 -2.3938
  141OSM    H1T15431   3.974   5.268   6.144 -0.1319 -0.8044  0.0305
  141OSM     NF15432   3.986   5.403   5.906  0.3752 -0.2714 -0.0706
  141OSM    HNF15433   3.890   5.391   5.885 -0.6059 -0.8458  3.9949
  141OSM    C2S15434   4.044   5.280   5.946 -0.2987  0.3801  1.0405
  141OSM    H2S15435   4.139   5.267   5.890 -0.4560  3.4203 -0.1084
  141OSM    C3S15436   3.956   5.153   5.913 -0.3736  0.8956 -0.7733
  141OSM    H3S15437   3.853   5.188   5.936  0.3616  1.6432  1.7217
  141OSM     O315438   3.985   5.041   6.006 -0.3900  0.0287 -0.2166
  141OSM    HO315439   4.042   5.081   6.072 -0.2882 -1.8917  0.9256
  141OSM    C4S15440   3.963   5.108   5.766  0.4800  0.2576 -0.3177
  141OSM    H4S15441   4.052   5.045   5.749  0.2404  0.0871 -0.9701
  141OSM    C5S15442   3.870   5.128   5.673 -0.4687 -0.4726 -0.0584
  141OSM    H5S15443   3.776   5.178   5.700 -0.1851  1.0836 -1.7910
  141OSM    C6S15444   3.879   5.100   5.527  0.2699  0.3831 -0.1449
  141OSM    H6S15445   3.794   5.150   5.477  0.1052  1.3783  1.0799
  141OSM    H6T15446   3.846   4.996   5.505  0.7125  0.3938 -0.9057
  141OSM    C7S15447   4.007   5.133   5.452 -1.0446  0.1187 -0.5658
  141OSM    H7S15448   3.990   5.138   5.342 -0.8718  0.8516 -0.5676
  141OSM    H7T15449   4.083   5.060   5.486  0.6666  2.4861  0.9755
  141OSM    C8S15450   4.059   5.272   5.488 -0.3516  0.2776 -0.1024
  141OSM    H8S15451   4.072   5.295   5.596 -3.5286  1.3578  0.1553
  141OSM    H8T15452   3.977   5.337   5.451 -1.6553 -0.1317  1.9286
  141OSM    C9S15453   4.200   5.314   5.437 -0.4779  0.2648 -0.7265
  141OSM    H9S15454   4.272   5.244   5.485 -0.3048  2.1412  1.9721
  141OSM    H9T15455   4.223   5.420   5.462  0.0503 -0.0442  0.1654
  141OSM   C10S15456   4.226   5.277   5.291  0.2695 -0.7609 -0.4941
  141OSM   H10S15457   4.190   5.173   5.274 -0.5281 -0.7203  0.8769
  141OSM   H10T15458   4.336   5.276   5.280  0.1633 -0.7214 -1.6926
  141OSM   C11S15459   4.158   5.375   5.193 -0.5213  0.0235 -0.2277
  141OSM   H11S15460   4.195   5.480   5.199  0.1573 -0.1011 -1.8214
  141OSM   H11T15461   4.049   5.374   5.215 -0.8731 -1.9741 -1.8271
  141OSM   C12S15462   4.183   5.338   5.042  0.0731  0.6628 -0.5159
  141OSM   H12S15463   4.148   5.233   5.031  1.6193  0.2822 -2.3985
  141OSM   H12T15464   4.290   5.352   5.014 -0.1264  2.7384 -0.3330
  141OSM   C13S15465   4.106   5.427   4.939  0.4867 -0.4178 -0.2221
  141OSM   H13S15466   4.149   5.529   4.952  0.0730 -0.1381 -1.0391
  141OSM   H13T15467   3.995   5.430   4.947 -0.0137 -0.8429 -4.8020
  141OSM   C14S15468   4.139   5.380   4.796  0.6624 -0.3574 -0.2351
  141OSM   H14S15469   4.080   5.286   4.787 -0.9289  0.3385  1.9499
  141OSM   H14T15470   4.246   5.351   4.796  0.7473 -0.0822  0.6588
  141OSM   C15S15471   4.086   5.472   4.684 -0.2784 -0.0886 -0.9072
  141OSM   H15S15472   4.167   5.545   4.663  1.3832 -1.2153  1.1028
  141OSM   H15T15473   3.987   5.518   4.701 -0.1107  1.0851 -2.7983
  141OSM   C16S15474   4.080   5.386   4.554  0.7460 -0.1234  0.7147
  141OSM   H16S15475   4.001   5.308   4.550 -1.0420  1.6811 -1.9000
  141OSM   H16T15476   4.176   5.332   4.538 -0.5571 -2.0176 -1.3064
  141OSM   C17S15477   4.051   5.473   4.427 -0.7581 -0.0317  0.1679
  141OSM   H17S15478   4.121   5.559   4.412 -1.6109  0.8537  1.1450
  141OSM   H17T15479   3.952   5.523   4.433 -1.0370 -0.5368 -0.1702
  141OSM   C18S15480   4.049   5.392   4.303  0.1542 -0.4206  0.8566
  141OSM   H18S15481   3.971   5.424   4.231  0.6234  2.6489  1.5824
  141OSM   H18T15482   4.035   5.284   4.326 -1.8747  0.1097  2.4004
  141OSM   H18U15483   4.143   5.410   4.247  0.4716 -1.0374  1.1782
  141OSM    C1F15484   4.055   5.513   5.883  0.5120  0.0875  0.3466
  141OSM     OF15485   4.173   5.523   5.892  0.4295 -0.6353 -0.3154
  141OSM    C2F15486   3.971   5.636   5.848  0.0280  0.4515  0.3844
  141OSM    H2F15487   3.966   5.684   5.948  1.9648  4.1602 -1.1069
  141OSM    H2G15488   3.875   5.587   5.820 -0.1506 -0.2496  2.0789
  141OSM    C3F15489   4.038   5.743   5.763 -0.2623 -0.5858  0.5320
  141OSM    H3F15490   4.138   5.769   5.804  1.0187 -2.6702 -1.0531
  141OSM    H3G15491   3.972   5.832   5.754  1.6003  0.8153  0.1588
  141OSM    C4F15492   4.080   5.696   5.626 -0.9737 -0.4717  0.3491
  141OSM    H4F15493   4.115   5.590   5.625 -1.3026 -0.5777  0.1653
  141OSM    H4G15494   4.166   5.760   5.598 -2.2233  1.7461  1.3754
  141OSM    C5F15495   3.971   5.719   5.519  0.2431 -0.1520  0.1818
  141OSM    H5F15496   3.942   5.826   5.524  1.5144  0.1600  1.4958
  141OSM    H5G15497   3.883   5.664   5.558 -0.3678  1.3718  1.0385
  141OSM    C6F15498   4.020   5.668   5.380 -0.1432 -0.0540  0.0761
  141OSM    H6F15499   4.010   5.557   5.381 -0.9984 -0.0587 -2.6545
  141OSM    H6G15500   4.125   5.701   5.365 -0.4187  0.7702 -0.0676
  141OSM    C7F15501   3.921   5.724   5.272  0.2890  0.2273 -0.8872
  141OSM    H7F15502   3.920   5.835   5.278 -1.0793  0.2305 -0.7877
  141OSM    H7G15503   3.820   5.699   5.312  1.4107 -1.7196  0.9083
  141OSM    C8F15504   3.959   5.687   5.128 -0.1426  1.0929 -0.8969
  141OSM    H8F15505   3.862   5.689   5.073  0.6881 -0.5668 -2.5494
  141OSM    H8G15506   3.988   5.580   5.125 -1.4284  0.7216 -0.6734
  141OSM    C9F15507   4.066   5.763   5.063 -0.2315  0.4892  0.8810
  141OSM    H9F15508   4.166   5.757   5.108  0.1822  1.6032  0.1472
  141OSM   C10F15509   4.056   5.823   4.946 -0.0308  0.5155 -0.1078
  141OSM   H10F15510   4.149   5.856   4.896  0.6244 -1.5508 -0.3365
  141OSM   C11F15511   3.928   5.845   4.872  0.0856 -0.0829 -0.4005
  141OSM   H11F15512   3.841   5.785   4.907 -0.9670  1.8080  0.3823
  141OSM   H11G15513   3.947   5.797   4.774  0.1970  0.9519 -0.8904
  141OSM   C12F15514   3.875   5.982   4.861  0.6391  0.4993 -0.7464
  141OSM   H12F15515   3.947   6.059   4.826 -0.2712  0.3532 -3.1437
  141OSM   H12G15516   3.854   6.014   4.965 -0.6502 -2.5231  0.0486
  141OSM   C13F15517   3.760   6.007   4.757 -0.1243  0.4783 -0.6387
  141OSM   H13F15518   3.726   6.112   4.762 -0.6216  0.2503  1.5807
  141OSM   H13G15519   3.678   5.938   4.789 -0.8559  0.3412 -2.6068
  141OSM   C14F15520   3.793   5.980   4.617  0.5870  0.1129  0.7689
  141OSM   H14F15521   3.851   5.890   4.588  1.4059  0.9538 -0.2770
  141OSM   H14G15522   3.876   6.050   4.594  0.9071  0.0576  1.7041
  141OSM   C15F15523   3.690   6.015   4.507 -0.1187 -0.4578  0.0424
  141OSM   H15F15524   3.689   6.126   4.518 -0.4366 -0.3254 -1.1771
  141OSM   H15G15525   3.593   5.967   4.531 -0.5652  1.3943  2.2969
  141OSM   C16F15526   3.727   5.968   4.361 -0.2101  0.6514  0.2832
  141OSM   H16F15527   3.726   5.859   4.380 -0.3600  0.8963  1.8424
  141OSM   H16G15528   3.831   6.000   4.341  0.2228 -0.1437  1.1805
  141OSM   C17F15529   3.626   6.004   4.258  0.5599 -0.0467  0.8672
  141OSM   H17F15530   3.526   5.975   4.299 -0.0126  1.1941  0.3748
  141OSM   H17G15531   3.637   5.936   4.171 -0.3953  0.1143  0.6069
  141OSM   C18F15532   3.620   6.149   4.215 -0.4684  0.1784 -0.5621
  141OSM   H18F15533   3.550   6.176   4.132 -1.3309 -0.3947 -0.0464
  141OSM   H18G15534   3.720   6.182   4.181 -0.6112 -0.5034 -1.7090
  141OSM   H18H15535   3.587   6.202   4.307  0.3842  0.4146 -0.3838
  142OSM      N15536   5.815   5.561   6.549  0.5556  0.3661 -0.2974
  142OSM    C1515537   5.704   5.463   6.562  0.2740 -0.8055 -0.1183
  142OSM   H15A15538   5.726   5.385   6.634 -1.1088 -0.2213  0.9931
  142OSM   H15B15539   5.677   5.432   6.463 -1.6012  0.6377 -0.1187
  142OSM   H15C15540   5.621   5.510   6.613  0.6708 -0.3193  0.0907
  142OSM    C1415541   5.835   5.633   6.683 -0.2950  0.1041 -0.1793
  142OSM   H14A15542   5.900   5.719   6.681  1.7827 -1.3788 -0.0547
  142OSM   H14B15543   5.890   5.555   6.735 -2.0011 -1.2558 -0.3042
  142OSM   H14C15544   5.741   5.649   6.734 -0.5876 -0.5871 -0.4769
  142OSM    C1315545   5.943   5.481   6.507 -0.1976 -1.1066  0.3457
  142OSM   H13A15546   5.946   5.438   6.408 -1.0361 -0.8112  0.1865
  142OSM   H13B15547   5.972   5.411   6.583  0.7371  1.0000  2.0229
  142OSM   H13C15548   6.018   5.559   6.508 -1.3158  0.0469 -1.1745
  142OSM    C1215549   5.766   5.664   6.444  0.0969 -0.0920 -0.2040
  142OSM   H12A15550   5.843   5.739   6.437  0.9109 -0.9340 -0.3689
  142OSM   H12B15551   5.677   5.708   6.487 -1.3021 -1.3544 -1.6610
  142OSM    C1115552   5.732   5.621   6.302  0.4261  0.7893  0.0103
  142OSM   H11A15553   5.709   5.718   6.253  2.2853  1.5825  0.6007
  142OSM   H11B15554   5.649   5.547   6.293  1.9998 -1.0735 -0.0413
  142OSM      P15555   5.946   5.656   6.149 -0.0626 -0.0596 -0.0534
  142OSM    O1315556   5.961   5.788   6.207  0.4218  0.0855  0.2838
  142OSM    O1415557   6.065   5.572   6.143 -0.2917  0.2443 -0.0244
  142OSM    O1115558   5.894   5.657   5.994 -0.1108 -0.2235 -0.0286
  142OSM    O1215559   5.842   5.574   6.231  0.2134  0.5487 -0.0894
  142OSM    C1S15560   5.885   5.537   5.912  0.3465  0.5223  0.5584
  142OSM    H1S15561   5.788   5.490   5.940  0.6977 -0.9453 -0.5562
  142OSM    H1T15562   5.971   5.469   5.930  2.9396  3.0489 -1.2802
  142OSM     NF15563   5.809   5.480   5.684  0.4802 -0.4313  0.2977
  142OSM    HNF15564   5.864   5.441   5.611  2.5716  0.8654  1.0978
  142OSM    C2S15565   5.865   5.587   5.772 -0.0916 -0.0218 -0.0579
  142OSM    H2S15566   5.795   5.673   5.769  0.0497  0.0812 -2.5277
  142OSM    C3S15567   5.997   5.652   5.723 -0.5409  0.1551 -0.5813
  142OSM    H3S15568   6.067   5.567   5.706 -0.5670  0.0083  0.0209
  142OSM     O315569   6.059   5.755   5.804  0.1624 -0.8271  0.3500
  142OSM    HO315570   6.005   5.763   5.883  0.1809  2.0190  0.1589
  142OSM    C4S15571   5.971   5.713   5.583  0.7002 -0.0712  0.1602
  142OSM    H4S15572   5.865   5.737   5.566  1.0490  1.6247  0.2716
  142OSM    C5S15573   6.054   5.708   5.477  0.4006  0.3796  0.1323
  142OSM    H5S15574   6.149   5.655   5.494  0.6418  0.6807 -0.2809
  142OSM    C6S15575   6.015   5.736   5.334  0.4336 -0.3451  0.0878
  142OSM    H6S15576   5.904   5.746   5.330  0.4846 -0.2533 -1.4721
  142OSM    H6T15577   6.037   5.651   5.266 -1.3013 -2.5689  2.0945
  142OSM    C7S15578   6.065   5.873   5.278 -0.0856 -0.2659 -0.8184
  142OSM    H7S15579   6.176   5.874   5.276  0.2006  1.1004  3.6221
  142OSM    H7T15580   6.050   5.960   5.345  0.1873  0.2713 -1.4556
  142OSM    C8S15581   5.997   5.909   5.145  0.2956  0.7506  0.7599
  142OSM    H8S15582   6.028   6.007   5.102  2.9064 -0.7495 -1.0440
  142OSM    H8T15583   5.888   5.900   5.165  0.3956  0.3893  1.1499
  142OSM    C9S15584   6.030   5.816   5.024 -0.3783  0.0369  0.9714
  142OSM    H9S15585   5.953   5.738   5.042 -1.5447  1.2726  1.4187
  142OSM    H9T15586   6.133   5.776   5.038 -0.4169 -1.4437 -2.0989
  142OSM   C10S15587   6.021   5.866   4.883 -0.2717 -0.7869 -0.6088
  142OSM   H10S15588   6.081   5.960   4.887 -0.8544 -0.4684  2.3421
  142OSM   H10T15589   5.919   5.894   4.850  0.9691  1.7620 -2.7134
  142OSM   C11S15590   6.093   5.785   4.773  0.2172 -0.4589  0.6110
  142OSM   H11S15591   6.021   5.700   4.768 -1.5553  1.0683 -1.2931
  142OSM   H11T15592   6.190   5.740   4.804 -0.9508 -1.4692  3.0409
  142OSM   C12S15593   6.105   5.865   4.638 -0.3318  0.3895  0.2104
  142OSM   H12S15594   6.194   5.931   4.649 -0.3003  1.0450 -3.0783
  142OSM   H12T15595   6.011   5.924   4.624  0.7316  2.5330  1.4992
  142OSM   C13S15596   6.123   5.763   4.524  0.4598  0.1878 -0.0193
  142OSM   H13S15597   6.056   5.677   4.544  1.3185 -0.2128  1.2917
  142OSM   H13T15598   6.229   5.729   4.529  1.1394  2.3363  1.4681
  142OSM   C14S15599   6.092   5.811   4.386 -0.0478 -0.9444  0.4070
  142OSM   H14S15600   6.116   5.726   4.319 -0.7166 -0.4996 -0.4299
  142OSM   H14T15601   6.162   5.895   4.368 -0.6170 -0.4842  0.2859
  142OSM   C15S15602   5.945   5.857   4.375 -0.3347  0.1838  0.4541
  142OSM   H15S15603   5.925   5.958   4.416  1.5838  0.6798  0.2875
  142OSM   H15T15604   5.875   5.785   4.422 -1.7414  2.3948  1.9221
  142OSM   C16S15605   5.895   5.859   4.230  0.0556 -0.2030 -0.0502
  142OSM   H16S15606   5.787   5.872   4.211 -0.0462  0.8527  1.1475
  142OSM   H16T15607   5.923   5.764   4.179  0.6623  1.3206 -2.7518
  142OSM   C17S15608   5.962   5.961   4.137  0.3698 -0.6185  0.4225
  142OSM   H17S15609   6.071   5.938   4.142  0.2606 -1.0447  0.8399
  142OSM   H17T15610   5.950   6.063   4.180 -2.5571 -0.4222 -0.6263
  142OSM   C18S15611   5.927   5.953   3.992  0.0552  0.2118 -0.0797
  142OSM   H18S15612   5.991   6.027   3.939  0.3546  0.2965  0.3915
  142OSM   H18T15613   5.821   5.974   3.968  0.4637  1.1878 -1.1591
  142OSM   H18U15614   5.956   5.854   3.952 -1.5506  0.6529 -2.5618
  142OSM    C1F15615   5.683   5.441   5.702  0.2995 -1.0169  0.1460
  142OSM     OF15616   5.604   5.502   5.778 -0.4722 -0.1119  0.2701
  142OSM    C2F15617   5.631   5.324   5.624  0.3033  0.1670  0.4358
  142OSM    H2F15618   5.575   5.256   5.692 -0.5966 -0.9098 -1.2874
  142OSM    H2G15619   5.716   5.266   5.581 -0.6951  0.8354 -2.7153
  142OSM    C3F15620   5.541   5.367   5.515 -0.1473 -0.9065  0.8959
  142OSM    H3F15621   5.458   5.432   5.551  0.0218  0.3146 -0.7712
  142OSM    H3G15622   5.490   5.279   5.470  1.5666 -1.7761  0.5574
  142OSM    C4F15623   5.610   5.448   5.404 -1.3408  0.2395  0.3871
  142OSM    H4F15624   5.677   5.525   5.448 -1.2885  0.5269 -0.1906
  142OSM    H4G15625   5.529   5.492   5.342 -1.2675  0.0141  0.1321
  142OSM    C5F15626   5.679   5.366   5.291 -0.3032  0.0896 -0.3960
  142OSM    H5F15627   5.605   5.325   5.219  0.9216  0.6756 -2.0444
  142OSM    H5G15628   5.748   5.291   5.334 -1.9119 -0.7895  0.7719
  142OSM    C6F15629   5.764   5.462   5.200 -0.2121  0.0580  0.1455
  142OSM    H6F15630   5.786   5.554   5.258  1.0365  0.5571 -1.0583
  142OSM    H6G15631   5.711   5.496   5.109 -0.1955 -1.3002 -0.4008
  142OSM    C7F15632   5.894   5.399   5.131  0.0097 -0.0248  0.2527
  142OSM    H7F15633   5.958   5.379   5.220  0.2959 -1.5390 -0.2552
  142OSM    H7G15634   5.938   5.474   5.063  1.4769  0.5317  1.7537
  142OSM    C8F15635   5.878   5.262   5.056 -0.4733  0.2953 -0.1503
  142OSM    H8F15636   5.860   5.186   5.135  2.4046 -0.9514 -0.5903
  142OSM    H8G15637   5.970   5.238   5.000 -0.0607  1.2459  0.0858
  142OSM    C9F15638   5.763   5.281   4.960  1.0296 -0.6331  0.5339
  142OSM    H9F15639   5.672   5.231   4.994 -1.5455  1.5809 -2.4964
  142OSM   C10F15640   5.756   5.361   4.857 -0.1830  1.2077 -0.2166
  142OSM   H10F15641   5.657   5.366   4.808 -1.5620  0.0389  2.2823
  142OSM   C11F15642   5.871   5.430   4.796  0.1790  0.2960  0.1976
  142OSM   H11F15643   5.965   5.374   4.819  0.6759  1.3642  0.8575
  142OSM   H11G15644   5.889   5.532   4.836  1.5432  0.6835 -1.2992
  142OSM   C12F15645   5.869   5.440   4.644  0.4588 -0.0409  0.3564
  142OSM   H12F15646   5.852   5.337   4.607 -2.2309 -0.2831  1.9737
  142OSM   H12G15647   5.963   5.469   4.592  1.1559 -2.1322  0.3598
  142OSM   C13F15648   5.759   5.526   4.576  0.3156  0.2873 -0.5385
  142OSM   H13F15649   5.785   5.634   4.570  1.5915 -0.0827 -3.5055
  142OSM   H13G15650   5.663   5.507   4.628  1.0597 -2.9641 -0.0852
  142OSM   C14F15651   5.748   5.489   4.427 -1.1152  0.0706 -0.0017
  142OSM   H14F15652   5.735   5.381   4.402 -0.2389  0.0338 -0.3184
  142OSM   H14G15653   5.847   5.501   4.378 -0.5485 -0.1398  1.0840
  142OSM   C15F15654   5.645   5.568   4.337  0.2881 -1.0868  0.0278
  142OSM   H15F15655   5.639   5.673   4.374  0.9659 -0.8026 -0.6508
  142OSM   H15G15656   5.549   5.515   4.355 -0.5977  0.4201 -0.0184
  142OSM   C16F15657   5.676   5.567   4.187  1.2548  0.2416 -0.2500
  142OSM   H16F15658   5.689   5.470   4.135 -3.6355  0.2622 -2.0400
  142OSM   H16G15659   5.773   5.618   4.169  1.2496  0.9605  1.5207
  142OSM   C17F15660   5.568   5.647   4.112 -0.0822  0.5684 -0.3843
  142OSM   H17F15661   5.556   5.741   4.169  0.4169  0.4251 -0.0401
  142OSM   H17G15662   5.467   5.601   4.113 -0.8794  2.2567 -0.4732
  142OSM   C18F15663   5.606   5.673   3.965 -0.3651 -0.2892 -0.1603
  142OSM   H18F15664   5.666   5.589   3.924 -2.0655 -1.2389 -0.7686
  142OSM   H18G15665   5.669   5.765   3.964 -3.5828  2.1810  2.0491
  142OSM   H18H15666   5.516   5.701   3.908  0.4302  0.6929 -0.9794
  143OSM      N15667   5.936   1.932   6.439 -0.2669 -0.4361  0.0004
  143OSM    C1515668   6.004   2.048   6.492 -0.0379  0.3468  0.3127
  143OSM   H15A15669   5.946   2.100   6.566  1.1327  2.9544 -0.4776
  143OSM   H15B15670   6.022   2.113   6.408 -1.5910 -0.2788 -0.5495
  143OSM   H15C15671   6.098   2.017   6.536  0.7037  0.1072 -1.3534
  143OSM    C1415672   6.022   1.873   6.328  0.1819 -0.2732 -0.3361
  143OSM   H14A15673   5.983   1.775   6.305 -3.0491  0.4570  1.4434
  143OSM   H14B15674   6.124   1.861   6.362 -0.2045 -2.2185  0.2192
  143OSM   H14C15675   6.021   1.937   6.240  2.8411  2.2062  1.2145
  143OSM    C1315676   5.917   1.832   6.543  0.3653 -0.6423 -0.8494
  143OSM   H13A15677   6.006   1.783   6.579  0.8255  1.3261  0.8690
  143OSM   H13B15678   5.854   1.753   6.506 -0.4365  0.4488 -1.8986
  143OSM   H13C15679   5.865   1.867   6.630  1.1262 -2.8442  0.5786
  143OSM    C1215680   5.805   1.965   6.377  0.7785 -0.7177  0.6816
  143OSM   H12A15681   5.776   1.876   6.323  0.4768  0.4829 -1.2537
  143OSM   H12B15682   5.804   2.048   6.308 -0.1192 -2.0085 -0.9208
  143OSM    C1115683   5.681   1.992   6.475  0.5942 -0.1251  0.4877
  143OSM   H11A15684   5.603   2.053   6.426  1.4775  2.4593  2.0435
  143OSM   H11B15685   5.705   2.067   6.554 -2.8079 -0.0760  1.6325
  143OSM      P15686   5.534   1.782   6.455  0.0552  0.2029  0.2606
  143OSM    O1315687   5.497   1.658   6.529 -0.0116 -0.5616  0.3072
  143OSM    O1415688   5.423   1.868   6.418  0.4381 -0.9955 -0.1838
  143OSM    O1115689   5.613   1.749   6.326  0.0162  0.5311 -0.1881
  143OSM    O1215690   5.632   1.871   6.544 -0.3458  0.0418  0.2433
  143OSM    C1S15691   5.546   1.672   6.225  0.2913 -0.1233  0.1475
  143OSM    H1S15692   5.442   1.703   6.204  0.7533  0.1451 -2.0155
  143OSM    H1T15693   5.547   1.563   6.245  1.3888 -0.0716  0.4424
  143OSM     NF15694   5.555   1.664   5.975  0.3247  0.1890 -0.6492
  143OSM    HNF15695   5.567   1.569   5.947  0.0055  0.2565 -1.0118
  143OSM    C2S15696   5.624   1.694   6.095  0.0614  0.2487  0.0237
  143OSM    H2S15697   5.653   1.802   6.091  0.8849  0.0508  0.4766
  143OSM    C3S15698   5.760   1.621   6.104  0.1020 -1.0038  0.2005
  143OSM    H3S15699   5.735   1.513   6.116  0.7562 -1.1398  0.3537
  143OSM     O315700   5.838   1.654   6.221 -0.5354 -0.0396 -0.0463
  143OSM    HO315701   5.782   1.706   6.279 -0.2639  0.3211 -0.1008
  143OSM    C4S15702   5.835   1.635   5.976 -0.3780  0.5308  0.2591
  143OSM    H4S15703   5.816   1.555   5.903  3.5273 -0.5442  0.1963
  143OSM    C5S15704   5.925   1.725   5.940 -0.6318  0.5833  0.3096
  143OSM    H5S15705   5.945   1.810   6.008 -0.1762  0.7801 -0.0691
  143OSM    C6S15706   5.986   1.719   5.799  0.4244  0.4984  0.2387
  143OSM    H6S15707   5.920   1.658   5.734  0.7330  1.7905 -1.3447
  143OSM    H6T15708   6.083   1.666   5.789 -0.2962 -0.7067 -0.6891
  143OSM    C7S15709   6.004   1.856   5.735 -0.2632 -0.1034  0.1959
  143OSM    H7S15710   6.073   1.918   5.796 -0.7982  1.4414 -0.6896
  143OSM    H7T15711   5.913   1.919   5.745 -0.4628 -0.5916  1.7398
  143OSM    C8S15712   6.047   1.860   5.590 -0.7823  0.6348 -0.5109
  143OSM    H8S15713   6.138   1.797   5.589 -0.6154  0.7264  2.0482
  143OSM    H8T15714   6.060   1.968   5.568 -1.3577  1.1173  1.3411
  143OSM    C9S15715   5.932   1.825   5.492  0.4174  0.0547 -0.3033
  143OSM    H9S15716   5.840   1.860   5.543  0.7388 -1.0459  1.1061
  143OSM    H9T15717   5.920   1.715   5.499 -1.3708  0.2177 -0.3717
  143OSM   C10S15718   5.947   1.872   5.349  0.2841  0.3448 -0.2018
  143OSM   H10S15719   6.047   1.837   5.315  0.3928  0.6646 -0.2193
  143OSM   H10T15720   5.949   1.983   5.345 -1.9033  0.3855 -1.8646
  143OSM   C11S15721   5.846   1.810   5.246 -0.3624 -0.1272  0.7939
  143OSM   H11S15722   5.752   1.775   5.293 -1.3437 -1.2165 -1.7717
  143OSM   H11T15723   5.881   1.713   5.205 -1.0661 -1.2234  2.6443
  143OSM   C12S15724   5.815   1.905   5.131 -0.0422 -0.1898  0.2629
  143OSM   H12S15725   5.914   1.927   5.085 -0.6197 -0.9046 -1.4165
  143OSM   H12T15726   5.779   1.991   5.191  1.7301 -0.7091  2.1941
  143OSM   C13S15727   5.715   1.852   5.034  0.6707 -0.7479  0.0821
  143OSM   H13S15728   5.676   1.936   4.972  2.0137 -1.2539 -1.5035
  143OSM   H13T15729   5.626   1.811   5.087 -0.0156  1.0574  0.4180
  143OSM   C14S15730   5.770   1.758   4.928 -0.6840 -0.3610  0.0829
  143OSM   H14S15731   5.677   1.723   4.878 -1.5579  2.2441 -0.2325
  143OSM   H14T15732   5.825   1.676   4.979 -0.8244  0.5456  1.7708
  143OSM   C15S15733   5.878   1.818   4.838 -1.1183 -0.3516  0.7328
  143OSM   H15S15734   5.975   1.795   4.887 -1.8434 -0.8847  1.9740
  143OSM   H15T15735   5.863   1.927   4.822  1.5056 -0.3283 -2.7884
  143OSM   C16S15736   5.875   1.759   4.696 -0.1658  0.0288 -0.3890
  143OSM   H16S15737   5.912   1.831   4.621  0.8565  0.7625  0.7708
  143OSM   H16T15738   5.769   1.750   4.665 -0.2048  0.3947 -0.3622
  143OSM   C17S15739   5.935   1.618   4.691 -0.5334 -0.1562 -0.2816
  143OSM   H17S15740   5.906   1.559   4.781  1.7860  1.1441  1.4684
  143OSM   H17T15741   6.046   1.623   4.699 -0.5032 -2.0815  1.2029
  143OSM   C18S15742   5.902   1.527   4.571  0.3251 -0.1565  0.4390
  143OSM   H18S15743   5.793   1.535   4.551  0.1386  0.4892  1.6120
  143OSM   H18T15744   5.932   1.421   4.586  0.4898 -0.3872 -1.2924
  143OSM   H18U15745   5.950   1.569   4.480  0.1021  0.6875  0.7026
  143OSM    C1F15746   5.447   1.730   5.932 -0.1626  0.0994 -0.4310
  143OSM     OF15747   5.429   1.845   5.974 -0.3403 -0.5462  0.3331
  143OSM    C2F15748   5.354   1.654   5.848  0.5209 -0.1306 -0.5604
  143OSM    H2F15749   5.340   1.552   5.889  1.7809  0.6224  1.9779
  143OSM    H2G15750   5.378   1.644   5.740  0.0031 -2.5148 -0.5170
  143OSM    C3F15751   5.211   1.713   5.858  0.2604 -0.2354 -0.3864
  143OSM    H3F15752   5.203   1.823   5.853 -0.2000  0.0359  3.6210
  143OSM    H3G15753   5.171   1.688   5.958  1.9785 -1.3069  0.0785
  143OSM    C4F15754   5.107   1.664   5.758  0.4190  0.3422 -0.3342
  143OSM    H4F15755   5.173   1.683   5.670  1.6672  0.0998  0.5259
  143OSM    H4G15756   5.008   1.713   5.767 -0.4019 -1.6064  2.4005
  143OSM    C5F15757   5.090   1.510   5.756  0.4489  0.0957 -0.5049
  143OSM    H5F15758   5.029   1.495   5.847  0.6948  1.5611 -0.0745
  143OSM    H5G15759   5.188   1.463   5.780  0.6614  1.0911  0.7112
  143OSM    C6F15760   5.007   1.469   5.633  0.5207 -0.0823 -0.7590
  143OSM    H6F15761   5.061   1.488   5.537 -0.2808 -0.3651 -1.2782
  143OSM    H6G15762   4.908   1.517   5.620  0.4092 -0.2910 -0.6867
  143OSM    C7F15763   4.996   1.317   5.635 -0.0033 -0.3038 -0.0168
  143OSM    H7F15764   4.956   1.290   5.734  1.6869  0.3318  0.8963
  143OSM    H7G15765   5.094   1.264   5.634 -0.6178 -1.4639  0.6590
  143OSM    C8F15766   4.896   1.266   5.531  0.1295 -0.4430  0.7629
  143OSM    H8F15767   4.919   1.298   5.427  0.0968 -0.6234  0.7009
  143OSM    H8G15768   4.799   1.312   5.562  0.2960  0.3619  0.1310
  143OSM    C9F15769   4.896   1.121   5.534 -0.6862 -0.0356 -0.1159
  143OSM    H9F15770   4.848   1.088   5.628  0.7676  0.3158  0.7959
  143OSM   C10F15771   4.931   1.025   5.443 -0.4244 -0.0352  0.4398
  143OSM   H10F15772   4.911   0.921   5.473 -1.0087 -0.3338 -0.8904
  143OSM   C11F15773   4.975   1.055   5.302 -0.5004 -0.3778  0.3994
  143OSM   H11F15774   5.044   0.980   5.258 -0.4128  1.2865 -2.5637
  143OSM   H11G15775   5.029   1.151   5.288 -1.0953 -0.0974 -0.0045
  143OSM   C12F15776   4.861   1.069   5.203  0.6567  0.1834  0.1870
  143OSM   H12F15777   4.785   1.146   5.225  0.3802 -0.5892  2.1251
  143OSM   H12G15778   4.812   0.970   5.207  2.4447 -0.8955 -2.0719
  143OSM   C13F15779   4.905   1.094   5.056  0.1102 -0.3107 -0.1454
  143OSM   H13F15780   5.001   1.042   5.036  0.9109  1.0226  0.1123
  143OSM   H13G15781   4.931   1.202   5.051 -0.3467 -0.2057 -0.2768
  143OSM   C14F15782   4.799   1.044   4.958  0.0010 -0.7316  0.1278
  143OSM   H14F15783   4.703   1.091   4.989  0.1238  0.3927 -1.0987
  143OSM   H14G15784   4.794   0.933   4.961  1.0971 -0.7758  0.6075
  143OSM   C15F15785   4.846   1.069   4.807  0.2934  0.8094 -0.4696
  143OSM   H15F15786   4.942   1.014   4.793  0.1598  0.7487 -1.2167
  143OSM   H15G15787   4.859   1.180   4.805  0.4054  0.7894 -1.1568
  143OSM   C16F15788   4.731   1.011   4.717  0.4300 -0.1583 -0.5538
  143OSM   H16F15789   4.645   1.074   4.749  0.3950 -0.3733 -0.2160
  143OSM   H16G15790   4.710   0.908   4.753 -0.0555 -0.1221 -0.7266
  143OSM   C17F15791   4.749   1.020   4.565  0.2792 -0.3643 -0.1982
  143OSM   H17F15792   4.829   0.950   4.534  0.1094 -0.2012 -1.0325
  143OSM   H17G15793   4.792   1.122   4.553  0.1437 -0.2531  0.2432
  143OSM   C18F15794   4.628   0.989   4.476 -0.2078 -0.0390 -0.1541
  143OSM   H18F15795   4.538   1.052   4.490 -1.9546 -2.0142 -1.7707
  143OSM   H18G15796   4.599   0.882   4.482  0.4616 -0.1953  0.3011
  143OSM   H18H15797   4.664   1.002   4.371 -0.5480  3.6952  0.0620
  144OSM      N15798   2.885   2.141   6.218 -0.0170 -1.1427 -0.6967
  144OSM    C1515799   2.819   2.247   6.298 -0.5481 -0.2935 -0.0914
  144OSM   H15A15800   2.883   2.288   6.374  0.3502 -1.9035  0.0702
  144OSM   H15B15801   2.738   2.212   6.359 -0.7617 -0.3564 -0.4074
  144OSM   H15C15802   2.764   2.318   6.238  0.4575  0.1230 -0.5579
  144OSM    C1415803   2.964   2.059   6.318 -0.0790  0.2794  0.0556
  144OSM   H14A15804   2.904   2.007   6.391  0.4706 -1.6433 -0.7919
  144OSM   H14B15805   3.034   2.123   6.370 -1.8926  0.1362  2.8685
  144OSM   H14C15806   3.023   1.983   6.268 -0.1479  0.3544 -0.1403
  144OSM    C1315807   2.781   2.060   6.155  0.3236 -0.1971 -0.3330
  144OSM   H13A15808   2.821   1.973   6.104  0.5741  0.2254 -0.8705
  144OSM   H13B15809   2.724   2.110   6.078 -2.5182  0.4043  1.9615
  144OSM   H13C15810   2.707   2.025   6.226 -0.0843  0.5900 -0.3615
  144OSM    C1215811   2.974   2.209   6.122 -0.1234  0.3588 -0.0911
  144OSM   H12A15812   2.915   2.272   6.056 -0.2944  2.4226  1.9406
  144OSM   H12B15813   3.015   2.130   6.061 -2.4619 -1.2117  0.2324
  144OSM    C1115814   3.078   2.314   6.182  0.6107 -0.0164  0.6467
  144OSM   H11A15815   3.013   2.396   6.218  1.7466  1.0433  0.3710
  144OSM   H11B15816   3.133   2.352   6.093  0.8959  0.8036  1.1693
  144OSM      P15817   3.320   2.254   6.263 -0.0510 -0.4009  0.0113
  144OSM    O1315818   3.377   2.392   6.291 -0.4989 -0.0582 -0.5737
  144OSM    O1415819   3.374   2.146   6.346  0.4483 -0.0965  0.2992
  144OSM    O1115820   3.339   2.223   6.109 -0.2077 -0.3726 -0.0975
  144OSM    O1215821   3.165   2.270   6.283 -0.0933  0.0452 -0.2231
  144OSM    C1S15822   3.370   2.097   6.048 -0.4064 -0.1759  0.0810
  144OSM    H1S15823   3.283   2.028   6.058  1.2534 -2.4631 -0.2394
  144OSM    H1T15824   3.456   2.042   6.093 -0.5298 -1.1667 -0.8579
  144OSM     NF15825   3.408   1.975   5.840  0.4004 -0.0104 -0.1305
  144OSM    HNF15826   3.498   1.933   5.829  0.3164  0.4469 -3.6052
  144OSM    C2S15827   3.391   2.108   5.897 -0.4282 -0.2974  0.3958
  144OSM    H2S15828   3.298   2.151   5.852 -0.7731  1.0246  2.2197
  144OSM    C3S15829   3.513   2.191   5.857 -0.4038 -0.1651  0.3964
  144OSM    H3S15830   3.605   2.141   5.896  2.3557 -2.7222 -7.4066
  144OSM     O315831   3.514   2.319   5.911 -0.7523 -0.2620 -0.0602
  144OSM    HO315832   3.463   2.307   5.991  1.1350 -0.3432  1.1781
  144OSM    C4S15833   3.520   2.208   5.705 -0.0983  0.3297  0.4408
  144OSM    H4S15834   3.451   2.288   5.674 -2.7675 -1.7280  0.6617
  144OSM    C5S15835   3.602   2.155   5.614  0.6757  0.2409 -0.2405
  144OSM    H5S15836   3.672   2.082   5.658  0.5699  0.6028  0.5371
  144OSM    C6S15837   3.604   2.181   5.466 -0.4416 -0.0472  0.3053
  144OSM    H6S15838   3.703   2.215   5.430  0.0973 -0.9780  0.8897
  144OSM    H6T15839   3.541   2.270   5.443 -1.9584 -0.8494  1.1608
  144OSM    C7S15840   3.546   2.057   5.385 -0.3052  0.3910  0.3361
  144OSM    H7S15841   3.438   2.041   5.410 -0.2224  1.9691  1.8969
  144OSM    H7T15842   3.603   1.963   5.402 -0.4108 -0.3886 -3.0338
  144OSM    C8S15843   3.558   2.059   5.226  0.0680 -0.3737  0.0179
  144OSM    H8S15844   3.495   2.143   5.191  0.7660  0.0295 -0.2936
  144OSM    H8T15845   3.504   1.967   5.194  1.2244 -0.8788 -0.5434
  144OSM    C9S15846   3.701   2.064   5.170  0.6680  1.0680  0.0986
  144OSM    H9S15847   3.738   1.961   5.190  0.9959  1.3958  1.2746
  144OSM    H9T15848   3.772   2.137   5.214  1.2204 -0.0928  1.2103
  144OSM   C10S15849   3.700   2.105   5.017 -0.6145  0.0429  0.2061
  144OSM   H10S15850   3.666   2.209   4.995  0.3252  0.2501 -0.2877
  144OSM   H10T15851   3.617   2.042   4.977 -0.3374 -1.9121  2.4939
  144OSM   C11S15852   3.838   2.069   4.959 -0.0703  0.0909  0.0100
  144OSM   H11S15853   3.866   1.963   4.976  0.1515  0.0534 -0.5755
  144OSM   H11T15854   3.915   2.118   5.022 -0.5699 -1.8868  2.3017
  144OSM   C12S15855   3.861   2.106   4.813 -0.5050  0.4206  0.5035
  144OSM   H12S15856   3.836   2.212   4.793  1.1581  0.5159 -1.4162
  144OSM   H12T15857   3.797   2.047   4.744 -0.0242  0.1785  0.2568
  144OSM   C13S15858   4.006   2.083   4.771 -0.3806  0.0194  0.3883
  144OSM   H13S15859   4.039   1.979   4.795  0.3469  0.5056  1.6083
  144OSM   H13T15860   4.066   2.152   4.834 -0.6568  0.6440 -0.0233
  144OSM   C14S15861   4.035   2.108   4.617  0.3244  0.4121 -0.5655
  144OSM   H14S15862   3.970   2.192   4.585  1.7490  1.1026 -1.7542
  144OSM   H14T15863   4.017   2.016   4.558 -0.0325  0.9581 -1.3214
  144OSM   C15S15864   4.177   2.146   4.599  0.0014  0.2270 -0.0942
  144OSM   H15S15865   4.210   2.217   4.677  0.6153 -0.1253 -0.0215
  144OSM   H15T15866   4.204   2.197   4.504 -1.5809  0.0551 -0.6654
  144OSM   C16S15867   4.266   2.015   4.599 -0.6380  0.7566 -0.1078
  144OSM   H16S15868   4.219   1.940   4.532 -0.1411 -0.0889  0.4631
  144OSM   H16T15869   4.258   1.968   4.700  0.4005  1.0173  0.1143
  144OSM   C17S15870   4.415   2.034   4.562  0.7061 -0.1161 -0.0577
  144OSM   H17S15871   4.455   2.115   4.627 -0.3186 -0.5266  1.1299
  144OSM   H17T15872   4.426   2.054   4.453 -1.5859 -2.8560 -0.9235
  144OSM   C18S15873   4.500   1.906   4.590  0.0164  0.1341 -0.1021
  144OSM   H18S15874   4.467   1.825   4.521 -2.5734  0.6888  0.3657
  144OSM   H18T15875   4.470   1.870   4.690  1.7057  0.3099  0.5004
  144OSM   H18U15876   4.606   1.938   4.593  0.1255 -0.2260 -0.1339
  144OSM    C1F15877   3.307   1.881   5.831 -0.2187 -0.0539 -0.0100
  144OSM     OF15878   3.190   1.909   5.854 -0.2965  0.4875 -0.7652
  144OSM    C2F15879   3.346   1.744   5.801 -0.4042  0.1424 -0.1536
  144OSM    H2F15880   3.327   1.679   5.890 -0.0007  0.6539  0.3157
  144OSM    H2G15881   3.455   1.731   5.782 -0.9189 -1.6822 -2.2574
  144OSM    C3F15882   3.273   1.686   5.675  0.0181 -0.1976  0.4531
  144OSM    H3F15883   3.163   1.683   5.684 -0.1253  0.2076 -0.9558
  144OSM    H3G15884   3.301   1.579   5.658  0.4380 -0.2822  1.6171
  144OSM    C4F15885   3.303   1.768   5.543  0.5146  1.1073 -0.2502
  144OSM    H4F15886   3.413   1.779   5.528  0.5234  1.6213  0.1668
  144OSM    H4G15887   3.263   1.871   5.556  1.1927  1.2277  0.9970
  144OSM    C5F15888   3.249   1.706   5.413 -0.4118 -0.8098  0.3396
  144OSM    H5F15889   3.139   1.722   5.403 -0.0816  0.8835 -0.9545
  144OSM    H5G15890   3.271   1.597   5.409  1.2380 -0.4790 -3.0823
  144OSM    C6F15891   3.317   1.777   5.291 -0.3068  0.4344 -0.3773
  144OSM    H6F15892   3.427   1.768   5.306  0.0608  0.1041 -2.8408
  144OSM    H6G15893   3.284   1.883   5.285 -0.2110  0.6207  1.5544
  144OSM    C7F15894   3.319   1.710   5.157  0.2485 -0.4260 -0.1394
  144OSM    H7F15895   3.218   1.717   5.111 -0.1150  1.7404  0.8725
  144OSM    H7G15896   3.341   1.601   5.165  0.0726 -0.5478 -1.1621
  144OSM    C8F15897   3.420   1.766   5.056 -0.6841 -0.1470 -0.2534
  144OSM    H8F15898   3.525   1.755   5.094 -0.3581 -0.6514 -1.2585
  144OSM    H8G15899   3.393   1.872   5.043 -2.1271 -0.3890  0.5208
  144OSM    C9F15900   3.409   1.678   4.934  0.0204  0.9963  0.6569
  144OSM    H9F15901   3.314   1.624   4.933  0.0871  0.7741 -2.7592
  144OSM   C10F15902   3.504   1.676   4.836  0.5327  0.3417 -0.1186
  144OSM   H10F15903   3.486   1.610   4.750 -1.0898  0.7266 -0.1165
  144OSM   C11F15904   3.635   1.751   4.825  0.4718  0.1146 -0.6650
  144OSM   H11F15905   3.679   1.777   4.924 -0.0106 -1.0933 -0.1131
  144OSM   H11G15906   3.601   1.845   4.777 -1.3987 -0.2900 -0.1851
  144OSM   C12F15907   3.733   1.685   4.727  0.1621 -0.3552 -0.8592
  144OSM   H12F15908   3.736   1.575   4.740  3.6804 -0.4015 -1.2283
  144OSM   H12G15909   3.835   1.728   4.741 -0.0957  0.5366 -1.6049
  144OSM   C13F15910   3.681   1.725   4.583  0.1540  0.2058 -0.1165
  144OSM   H13F15911   3.673   1.835   4.572  0.0807  0.1774 -0.3392
  144OSM   H13G15912   3.583   1.675   4.566 -0.6463  2.4403 -2.5874
  144OSM   C14F15913   3.780   1.676   4.476  0.2958 -0.3167 -0.6032
  144OSM   H14F15914   3.725   1.689   4.381  0.4256  0.5122 -0.5708
  144OSM   H14G15915   3.807   1.569   4.488  2.3670  0.1827 -0.3736
  144OSM   C15F15916   3.913   1.755   4.471 -0.2551 -0.7148  0.5652
  144OSM   H15F15917   3.938   1.791   4.573 -0.1023 -1.4394  0.7911
  144OSM   H15G15918   3.891   1.846   4.411  2.7955 -0.9785 -1.1602
  144OSM   C16F15919   4.026   1.692   4.395  0.2162 -0.1543  0.3517
  144OSM   H16F15920   4.108   1.765   4.380 -0.2316  0.7906  2.2137
  144OSM   H16G15921   3.994   1.648   4.298 -3.4268  1.9872  0.4220
  144OSM   C17F15922   4.096   1.567   4.463 -0.3130  0.3362  0.0417
  144OSM   H17F15923   4.146   1.511   4.381  0.8975  2.8478 -1.0389
  144OSM   H17G15924   4.020   1.496   4.503  2.8848 -3.2438  0.3153
  144OSM   C18F15925   4.203   1.586   4.572  0.6541 -0.5007  0.0734
  144OSM   H18F15926   4.292   1.646   4.543  0.0955  2.0674  3.1262
  144OSM   H18G15927   4.248   1.494   4.615  1.4958  1.0797  2.7397
  144OSM   H18H15928   4.156   1.642   4.655 -2.3020  0.7260 -2.2335
  145OSM      N15929   5.388   3.852   6.337  0.3056 -0.0047  0.1601
  145OSM    C1515930   5.294   3.781   6.244  0.5257 -0.1588  0.2475
  145OSM   H15A15931   5.288   3.675   6.263  0.3951 -0.1841  0.0698
  145OSM   H15B15932   5.341   3.795   6.148  1.4963 -1.5300  0.4798
  145OSM   H15C15933   5.193   3.819   6.250  0.0784 -1.2702  0.0774
  145OSM    C1415934   5.411   3.989   6.282  0.3435  0.2879  0.0813
  145OSM   H14A15935   5.448   3.988   6.180  0.5851 -0.6638  0.1697
  145OSM   H14B15936   5.489   4.036   6.339 -0.1190  3.0856 -1.4234
  145OSM   H14C15937   5.323   4.050   6.296  0.4573  0.1083  1.7584
  145OSM    C1315938   5.317   3.873   6.465 -0.1873 -0.3290 -1.3051
  145OSM   H13A15939   5.285   3.779   6.507  1.1115 -0.7897 -1.3229
  145OSM   H13B15940   5.227   3.934   6.463  0.4632  0.8847  1.6203
  145OSM   H13C15941   5.384   3.925   6.531 -2.9674 -0.8355  2.1772
  145OSM    C1215942   5.515   3.770   6.355 -0.3360 -0.0950  0.4698
  145OSM   H12A15943   5.493   3.666   6.376  0.8393 -0.4188  0.2256
  145OSM   H12B15944   5.577   3.808   6.434  0.6079 -0.3256 -0.1363
  145OSM    C1115945   5.603   3.749   6.226 -0.4845  0.0868  0.2766
  145OSM   H11A15946   5.535   3.724   6.141  1.4536 -0.2629 -1.2312
  145OSM   H11B15947   5.679   3.668   6.230  0.9223  1.2578 -1.4745
  145OSM      P15948   5.794   3.933   6.269 -0.1155  0.0445  0.4176
  145OSM    O1315949   5.818   4.069   6.222 -0.1403  0.0577  0.0931
  145OSM    O1415950   5.789   3.909   6.415 -0.0366  0.1284 -0.1684
  145OSM    O1115951   5.921   3.853   6.212 -0.3894  0.1638 -0.8043
  145OSM    O1215952   5.679   3.864   6.191  0.6798 -0.2341 -0.0064
  145OSM    C1S15953   5.950   3.831   6.075  0.1475 -0.4610 -0.0213
  145OSM    H1S15954   5.853   3.814   6.022 -0.3640  1.9625  0.0544
  145OSM    H1T15955   6.015   3.741   6.065  1.0070  0.3191 -1.8844
  145OSM     NF15956   6.033   3.923   5.862  0.2220  0.1682  0.0672
  145OSM    HNF15957   6.119   3.902   5.815 -0.0185 -3.0575  0.8491
  145OSM    C2S15958   6.026   3.955   6.003 -0.1392  0.4419 -0.9936
  145OSM    H2S15959   5.967   4.048   6.016 -1.0537 -0.4942  2.3820
  145OSM    C3S15960   6.162   3.981   6.079 -0.6290  0.5829 -0.1041
  145OSM    H3S15961   6.225   3.889   6.073 -0.2498  0.7329  1.1514
  145OSM     O315962   6.142   4.003   6.214  0.2099 -0.1207 -0.6998
  145OSM    HO315963   6.059   3.959   6.236  0.2993 -0.9142 -1.8773
  145OSM    C4S15964   6.249   4.088   6.012  0.1267  0.4348  0.1990
  145OSM    H4S15965   6.203   4.187   6.026  0.0757  0.5276 -0.5390
  145OSM    C5S15966   6.370   4.077   5.955 -0.5812 -0.2255 -0.0178
  145OSM    H5S15967   6.416   3.979   5.971 -1.5167 -0.7327 -0.3376
  145OSM    C6S15968   6.444   4.189   5.887 -0.3841  0.1936 -0.7484
  145OSM    H6S15969   6.479   4.264   5.961  1.2658 -0.5773 -0.7145
  145OSM    H6T15970   6.380   4.246   5.816 -0.2367 -1.0877 -1.9538
  145OSM    C7S15971   6.566   4.157   5.804 -0.7586 -0.0011 -0.0900
  145OSM    H7S15972   6.624   4.099   5.879  0.3942  1.6884  0.3860
  145OSM    H7T15973   6.623   4.251   5.790 -1.5279  0.5082  0.1389
  145OSM    C8S15974   6.552   4.075   5.673 -0.1595  0.2982 -0.8005
  145OSM    H8S15975   6.522   4.144   5.591 -3.0245  0.8617  0.6092
  145OSM    H8T15976   6.472   4.001   5.692  0.1033  0.6477  2.2001
  145OSM    C9S15977   6.681   3.999   5.637 -0.1317 -0.0986  0.2886
  145OSM    H9S15978   6.733   3.980   5.734  0.6373  0.6245  0.0336
  145OSM    H9T15979   6.740   4.070   5.575 -0.3693 -0.4218 -0.3098
  145OSM   C10S15980   6.644   3.867   5.573  0.4022  0.2530 -0.4869
  145OSM   H10S15981   6.583   3.890   5.483 -1.2482 -1.0505  0.2361
  145OSM   H10T15982   6.584   3.805   5.642  0.3604  0.8111 -0.0159
  145OSM   C11S15983   6.771   3.796   5.508  0.8493 -0.3748  0.1682
  145OSM   H11S15984   6.723   3.704   5.468  1.1144  0.6557 -2.7483
  145OSM   H11T15985   6.839   3.774   5.593  0.4085 -0.4118  0.5178
  145OSM   C12S15986   6.841   3.887   5.399  0.4948  0.2845 -0.4783
  145OSM   H12S15987   6.940   3.838   5.393  0.7792  0.6715  0.7326
  145OSM   H12T15988   6.858   3.996   5.414  0.2496  0.3444 -0.6340
  145OSM   C13S15989   6.778   3.873   5.257 -0.1713 -0.5319 -0.2371
  145OSM   H13S15990   6.680   3.923   5.269  0.5366  0.4455  2.0669
  145OSM   H13T15991   6.764   3.765   5.232 -3.9563 -0.5056  1.0501
  145OSM   C14S15992   6.874   3.937   5.162  0.5307  0.3664  0.0429
  145OSM   H14S15993   6.970   3.883   5.160  0.6649  0.4935  1.6130
  145OSM   H14T15994   6.888   4.042   5.197  0.8518 -0.1008  1.3743
  145OSM   C15S15995   6.816   3.948   5.024 -0.1234  0.8714  0.1244
  145OSM   H15S15996   6.728   4.013   5.006  1.4249  2.1474 -3.8564
  145OSM   H15T15997   6.774   3.847   5.004  0.2020  0.4545  1.4351
  145OSM   C16S15998   6.918   3.972   4.917 -0.0214 -0.2716 -0.4643
  145OSM   H16S15999   6.975   3.877   4.907  0.5602 -0.0405  0.5123
  145OSM   H16T16000   6.982   4.059   4.944 -0.6201 -0.4537  1.7637
  145OSM   C17S16001   6.859   3.992   4.772 -0.1836  0.1593 -0.5799
  145OSM   H17S16002   6.817   4.095   4.763 -0.9702 -0.1796 -0.9003
  145OSM   H17T16003   6.780   3.917   4.749 -0.4907 -0.3449  1.8664
  145OSM   C18S16004   6.961   3.983   4.659  0.5150 -0.4300  0.2353
  145OSM   H18S16005   7.042   4.059   4.659 -0.6671  0.8813  0.6241
  145OSM   H18T16006   6.915   3.982   4.558 -2.0397  0.1598  1.3288
  145OSM   H18U16007   7.017   3.888   4.670  0.8835  0.0119  2.7765
  145OSM    C1F16008   5.930   3.900   5.778 -0.5301  0.3745 -0.5780
  145OSM     OF16009   5.815   3.940   5.804  0.0968  0.4800 -0.3621
  145OSM    C2F16010   5.971   3.812   5.663  0.4328 -0.0092 -0.2385
  145OSM    H2F16011   5.940   3.708   5.688  0.8232  0.0706  0.5827
  145OSM    H2G16012   6.081   3.812   5.650  0.6438 -4.7627 -0.0019
  145OSM    C3F16013   5.898   3.842   5.527 -0.3418 -0.4353 -0.1742
  145OSM    H3F16014   5.913   3.949   5.503 -1.1722  0.2544  2.1173
  145OSM    H3G16015   5.791   3.819   5.545  0.0559 -0.8246  1.9772
  145OSM    C4F16016   5.970   3.748   5.431  0.1482  0.2628  0.2226
  145OSM    H4F16017   5.975   3.649   5.483  1.2056 -0.1362 -0.6097
  145OSM    H4G16018   6.075   3.770   5.402  0.4063  0.4645  1.2582
  145OSM    C5F16019   5.900   3.723   5.295 -0.7440  0.7871 -0.3371
  145OSM    H5F16020   5.884   3.815   5.235 -0.9261 -0.8080 -2.8582
  145OSM    H5G16021   5.797   3.688   5.319 -1.1329  1.6501 -0.6875
  145OSM    C6F16022   5.972   3.618   5.213 -0.5446 -0.5061  0.1553
  145OSM    H6F16023   6.029   3.553   5.282 -0.0698 -0.3723 -0.1079
  145OSM    H6G16024   6.053   3.663   5.151  0.9883 -2.5787  0.5582
  145OSM    C7F16025   5.879   3.538   5.115 -0.7584  0.3383  0.0548
  145OSM    H7F16026   5.808   3.471   5.168  0.1258  0.5481  1.5808
  145OSM    H7G16027   5.946   3.465   5.063 -0.7181  0.0887  0.4522
  145OSM    C8F16028   5.812   3.634   5.011  0.0208  0.0241 -0.0606
  145OSM    H8F16029   5.745   3.710   5.057 -0.8754 -0.2175 -0.9277
  145OSM    H8G16030   5.746   3.569   4.950  2.3667 -0.8974 -1.7958
  145OSM    C9F16031   5.912   3.710   4.931 -0.2401 -0.0293  0.8068
  145OSM    H9F16032   5.946   3.803   4.977 -1.2436  0.7121  0.0892
  145OSM   C10F16033   5.960   3.682   4.805  0.7410 -0.2086  0.3224
  145OSM   H10F16034   6.039   3.745   4.763  0.4894  1.5127  2.2708
  145OSM   C11F16035   5.922   3.553   4.730  0.3943  0.9353  0.0593
  145OSM   H11F16036   5.814   3.534   4.744  0.4395  0.2277 -0.5069
  145OSM   H11G16037   5.984   3.466   4.758  1.1119  0.7752 -1.8469
  145OSM   C12F16038   5.925   3.582   4.572  1.3382  0.6747 -0.1810
  145OSM   H12F16039   5.856   3.667   4.558  2.9103  1.7211 -2.1056
  145OSM   H12G16040   5.869   3.504   4.516 -0.9491  1.4567  0.8803
  145OSM   C13F16041   6.058   3.599   4.499  0.2122 -0.2628  0.4388
  145OSM   H13F16042   6.113   3.502   4.494 -1.0714 -1.0997  1.7142
  145OSM   H13G16043   6.120   3.683   4.538  1.1495  1.3070 -3.8614
  145OSM   C14F16044   6.031   3.652   4.355  0.1364  0.2734  0.5700
  145OSM   H14F16045   5.961   3.585   4.301  0.1245 -0.3393  1.3186
  145OSM   H14G16046   6.128   3.651   4.301 -1.2688  0.6993 -2.1173
  145OSM   C15F16047   5.985   3.795   4.354  0.2857 -0.7599  0.2947
  145OSM   H15F16048   5.896   3.819   4.417  0.4646 -1.0118  0.6478
  145OSM   H15G16049   5.958   3.815   4.248 -2.6627  0.1301  1.1279
  145OSM   C16F16050   6.094   3.897   4.395  0.0869  0.1668 -0.3516
  145OSM   H16F16051   6.198   3.878   4.361  0.0404  1.7254 -1.4692
  145OSM   H16G16052   6.088   3.883   4.505 -1.1946 -1.7304 -0.6095
  145OSM   C17F16053   6.070   4.047   4.363  0.1718 -0.2788 -0.0365
  145OSM   H17F16054   6.148   4.103   4.419  0.3668  0.6005 -1.1429
  145OSM   H17G16055   5.985   4.084   4.425  2.1987  2.1530  1.5083
  145OSM   C18F16056   6.072   4.085   4.216  0.1151  0.2776  0.0252
  145OSM   H18F16057   6.148   4.020   4.168  1.2460  1.4351  0.2140
  145OSM   H18G16058   6.097   4.193   4.213  0.3964  0.1931 -0.7135
  145OSM   H18H16059   5.970   4.074   4.172 -0.5464  1.5117  1.1775
  146OSM      N16060   5.061   4.581   6.494 -0.1804 -0.0646  0.2428
  146OSM    C1516061   5.104   4.438   6.476 -0.2541  0.9959 -0.1070
  146OSM   H15A16062   5.128   4.390   6.570 -1.0528 -1.0055 -0.8732
  146OSM   H15B16063   5.204   4.441   6.434 -0.0021  0.9449  0.4822
  146OSM   H15C16064   5.034   4.381   6.417  1.7077 -1.9834  0.2528
  146OSM    C1416065   4.919   4.572   6.536  1.1810 -0.2009 -0.1638
  146OSM   H14A16066   4.904   4.514   6.626 -0.6850  1.6642  0.8127
  146OSM   H14B16067   4.856   4.526   6.461 -3.1698 -0.2323  3.1513
  146OSM   H14C16068   4.884   4.671   6.560 -0.6991 -0.3581 -1.9741
  146OSM    C1316069   5.136   4.640   6.609 -0.0421 -0.6835  0.3084
  146OSM   H13A16070   5.084   4.606   6.698  1.5244 -1.2473  1.0492
  146OSM   H13B16071   5.133   4.747   6.597 -1.0018 -0.8637 -1.3643
  146OSM   H13C16072   5.242   4.617   6.607 -0.2217 -1.7974  1.7912
  146OSM    C1216073   5.081   4.658   6.365  0.4182  0.0740  0.0127
  146OSM   H12A16074   5.035   4.610   6.280  1.8562 -1.2063 -0.0957
  146OSM   H12B16075   5.188   4.663   6.346  0.7086 -0.9743  1.1835
  146OSM    C1116076   5.027   4.801   6.360  0.8746  0.3363  0.3374
  146OSM   H11A16077   4.919   4.818   6.382  0.8009  0.4826 -0.1352
  146OSM   H11B16078   5.041   4.828   6.253 -1.6048  4.7257  0.8618
  146OSM      P16079   5.071   5.038   6.445 -0.0966 -0.2803 -0.0959
  146OSM    O1316080   4.957   5.065   6.535  0.1006 -0.1147 -0.5823
  146OSM    O1416081   5.194   5.118   6.478  0.6447 -0.1799  0.2837
  146OSM    O1116082   5.041   5.077   6.293  0.1219 -0.1052  0.7189
  146OSM    O1216083   5.113   4.888   6.435 -0.1037  0.2499 -0.2300
  146OSM    C1S16084   5.154   5.098   6.204 -0.5895 -0.1079  0.0886
  146OSM    H1S16085   5.222   5.012   6.188  1.2175  1.0852  1.0038
  146OSM    H1T16086   5.220   5.181   6.239 -2.0759  1.4594 -0.6270
  146OSM     NF16087   5.215   5.124   5.965  0.6144  0.0010  0.3178
  146OSM    HNF16088   5.268   5.202   5.931 -2.8108  3.0982  1.4163
  146OSM    C2S16089   5.106   5.148   6.059 -0.4227  0.9893  0.1592
  146OSM    H2S16090   5.018   5.088   6.029  0.1609 -0.0401  0.4362
  146OSM    C3S16091   5.060   5.294   6.066  0.1165  1.0084 -0.4063
  146OSM    H3S16092   5.144   5.361   6.096  0.4021  1.1159 -1.3958
  146OSM     O316093   4.956   5.308   6.157  0.9342  0.2388 -0.4057
  146OSM    HO316094   4.952   5.223   6.201  0.0069 -0.0779 -1.0933
  146OSM    C4S16095   5.020   5.338   5.929  0.6402  0.0586 -0.4820
  146OSM    H4S16096   5.098   5.374   5.860  1.1146  0.2527  0.1427
  146OSM    C5S16097   4.899   5.320   5.871  0.5050  0.4938  0.2972
  146OSM    H5S16098   4.815   5.274   5.925 -0.0152  1.7154  0.5815
  146OSM    C6S16099   4.860   5.349   5.726 -0.4217  0.5303 -0.3183
  146OSM    H6S16100   4.949   5.351   5.659 -0.3628  0.3909 -0.2443
  146OSM    H6T16101   4.820   5.452   5.720 -1.7304  0.1550  1.2325
  146OSM    C7S16102   4.749   5.251   5.674  0.4155 -0.9101 -0.0643
  146OSM    H7S16103   4.662   5.258   5.742 -0.3714  0.5042 -1.1788
  146OSM    H7T16104   4.791   5.148   5.671 -0.2152 -1.1995  0.8373
  146OSM    C8S16105   4.697   5.296   5.538  0.2963 -0.4907  0.3738
  146OSM    H8S16106   4.654   5.397   5.552 -1.2956 -1.2821  1.5193
  146OSM    H8T16107   4.619   5.226   5.501  1.1160 -0.9510 -0.5350
  146OSM    C9S16108   4.800   5.290   5.425  0.0264  0.1774 -0.1061
  146OSM    H9S16109   4.851   5.191   5.429 -0.0448  0.1483  3.6387
  146OSM    H9T16110   4.889   5.355   5.444 -0.8556  1.7316 -1.1512
  146OSM   C10S16111   4.742   5.295   5.286 -0.2371 -0.5430  0.0236
  146OSM   H10S16112   4.678   5.386   5.282  0.9302  0.4376  2.1717
  146OSM   H10T16113   4.665   5.215   5.287  0.3255 -1.0862 -0.1449
  146OSM   C11S16114   4.836   5.286   5.168 -0.0997  0.3805  0.1764
  146OSM   H11S16115   4.910   5.367   5.181  0.0507  0.4096 -0.7653
  146OSM   H11T16116   4.786   5.301   5.070  1.3397 -0.7128 -0.7799
  146OSM   C12S16117   4.892   5.140   5.137  0.2859  0.4253  0.3221
  146OSM   H12S16118   4.808   5.068   5.134 -1.9725  2.9186 -0.8764
  146OSM   H12T16119   4.944   5.113   5.231 -2.9805 -0.4573  2.0373
  146OSM   C13S16120   4.980   5.133   5.013 -0.1805  0.5532 -0.7413
  146OSM   H13S16121   5.018   5.029   4.997 -0.0149  0.3232  0.9578
  146OSM   H13T16122   5.071   5.195   5.024  0.2078 -0.0563 -0.4169
  146OSM   C14S16123   4.904   5.175   4.882 -0.1123  0.0816  0.3276
  146OSM   H14S16124   4.913   5.285   4.869  0.3685 -0.1244 -1.3764
  146OSM   H14T16125   4.800   5.134   4.877  0.2189 -0.6961 -3.5424
  146OSM   C15S16126   4.980   5.113   4.755 -0.0312 -0.1352  0.0363
  146OSM   H15S16127   4.945   5.009   4.739 -3.1719  1.0776 -2.1522
  146OSM   H15T16128   5.090   5.118   4.749  0.2574 -1.7263  2.4263
  146OSM   C16S16129   4.936   5.180   4.619  0.4956 -0.4441 -0.4139
  146OSM   H16S16130   4.952   5.290   4.629 -4.2047  0.3186  1.5163
  146OSM   H16T16131   4.826   5.163   4.614  0.0814  1.2301  1.3944
  146OSM   C17S16132   5.004   5.117   4.502 -0.2341  0.0789 -0.3605
  146OSM   H17S16133   4.943   5.029   4.471 -1.1739 -0.9564  3.7173
  146OSM   H17T16134   5.102   5.079   4.538 -0.2730 -1.0096 -1.3518
  146OSM   C18S16135   5.040   5.210   4.386  0.1271  0.2822  0.5936
  146OSM   H18S16136   5.091   5.159   4.302 -0.6642  0.1270  0.1989
  146OSM   H18T16137   5.115   5.281   4.426  0.3515 -0.2473  1.1145
  146OSM   H18U16138   4.952   5.270   4.353  0.3713 -0.5012 -1.6507
  146OSM    C1F16139   5.240   5.001   5.908 -0.2148 -0.8187  0.2033
  146OSM     OF16140   5.161   4.911   5.934 -1.1921  0.3174  0.1944
  146OSM    C2F16141   5.346   4.983   5.811 -0.4387 -0.2363  0.1839
  146OSM    H2F16142   5.339   4.879   5.774 -1.0170 -0.1019 -0.0887
  146OSM    H2G16143   5.441   5.008   5.865  0.2637  0.0262 -1.1387
  146OSM    C3F16144   5.333   5.086   5.687  0.7046  0.6275 -0.3653
  146OSM    H3F16145   5.403   5.059   5.606  1.3654 -0.4528  0.5302
  146OSM    H3G16146   5.351   5.186   5.731  0.8783  0.6654 -0.5229
  146OSM    C4F16147   5.200   5.082   5.614 -1.0310  0.5298 -0.0663
  146OSM    H4F16148   5.118   5.106   5.685  0.8868 -1.6817  3.1975
  146OSM    H4G16149   5.177   4.976   5.589 -0.0112  0.1639  0.4805
  146OSM    C5F16150   5.194   5.182   5.499  0.4487 -0.9447 -0.5068
  146OSM    H5F16151   5.288   5.241   5.503  1.3367 -2.2786 -0.9978
  146OSM    H5G16152   5.118   5.262   5.511  1.9047  0.0697  3.6700
  146OSM    C6F16153   5.187   5.110   5.364  0.4009  0.1633 -0.1983
  146OSM    H6F16154   5.170   5.202   5.304  0.9142  1.3121  1.3564
  146OSM    H6G16155   5.107   5.035   5.350 -0.1823  0.3833  1.6932
  146OSM    C7F16156   5.317   5.046   5.319 -0.0724  0.2788 -0.2868
  146OSM    H7F16157   5.342   4.966   5.391 -3.2224 -1.1180 -0.5641
  146OSM    H7G16158   5.392   5.128   5.322 -0.4707  0.6019  1.7578
  146OSM    C8F16159   5.296   4.999   5.177 -0.7013  0.4104  0.2635
  146OSM    H8F16160   5.259   5.085   5.117 -0.8355  1.0789  1.2879
  146OSM    H8G16161   5.218   4.920   5.188  0.5219 -0.6423  1.9548
  146OSM    C9F16162   5.429   4.959   5.118  0.6014 -0.3411 -0.4606
  146OSM    H9F16163   5.511   4.932   5.186  1.0607 -2.2801 -1.6977
  146OSM   C10F16164   5.457   4.955   4.988 -0.2825 -0.2974  0.3695
  146OSM   H10F16165   5.565   4.937   4.978  0.7773  3.2818  3.3767
  146OSM   C11F16166   5.365   4.994   4.874 -0.5296 -0.0804 -1.0746
  146OSM   H11F16167   5.273   5.039   4.918  0.6396  0.0276  1.4493
  146OSM   H11G16168   5.339   4.900   4.821  1.4405 -1.4718  0.2574
  146OSM   C12F16169   5.419   5.089   4.760 -0.6989 -0.3823 -0.0800
  146OSM   H12F16170   5.462   5.184   4.799  2.2565 -0.9152 -1.7332
  146OSM   H12G16171   5.336   5.116   4.691 -0.2737 -2.0947 -1.3252
  146OSM   C13F16172   5.536   5.016   4.676  1.1936 -0.2122 -0.3609
  146OSM   H13F16173   5.480   4.944   4.612  2.0048 -0.5621 -0.6998
  146OSM   H13G16174   5.615   4.968   4.738  1.4452  1.1149  0.3789
  146OSM   C14F16175   5.609   5.118   4.587  0.3222 -0.1767  0.7564
  146OSM   H14F16176   5.533   5.160   4.518 -0.8769  0.8995  2.6323
  146OSM   H14G16177   5.640   5.207   4.647 -2.8538  1.2420  0.5363
  146OSM   C15F16178   5.728   5.066   4.504  0.7512 -0.5285  0.3310
  146OSM   H15F16179   5.763   5.143   4.432  0.2253  1.4673  2.0961
  146OSM   H15G16180   5.684   4.984   4.445 -1.4030  0.2395  0.7553
  146OSM   C16F16181   5.857   5.029   4.573 -0.1721 -0.7996 -0.2181
  146OSM   H16F16182   5.837   4.956   4.654 -2.3483 -2.3544 -2.0001
  146OSM   H16G16183   5.894   5.122   4.621 -0.7387  0.6107 -2.3560
  146OSM   C17F16184   5.958   4.978   4.477 -0.6309 -0.7102 -0.0102
  146OSM   H17F16185   6.055   4.973   4.532 -1.4544 -1.2863  1.4452
  146OSM   H17G16186   5.973   5.047   4.391  2.0316  0.8449  1.5378
  146OSM   C18F16187   5.933   4.832   4.438 -0.4198  0.6243  0.3956
  146OSM   H18F16188   6.033   4.789   4.412  0.5253  3.9082 -2.0667
  146OSM   H18G16189   5.866   4.829   4.349  0.5322  0.7009 -0.3512
  146OSM   H18H16190   5.877   4.783   4.520  0.8292 -1.9972 -0.2066
  147OSM      N16191   6.213   5.199   1.530 -0.2411 -0.0971  0.4739
  147OSM    C1516192   6.093   5.137   1.589  0.4655  0.1877  0.5533
  147OSM   H15A16193   6.129   5.064   1.660  0.5997 -1.1801 -0.8623
  147OSM   H15B16194   6.032   5.085   1.517  2.3743 -2.6004  0.7839
  147OSM   H15C16195   6.039   5.208   1.650 -2.4007 -1.4619  0.1249
  147OSM    C1416196   6.314   5.234   1.634  0.0020  0.1201 -0.6975
  147OSM   H14A16197   6.371   5.150   1.672 -2.2125 -1.0881  0.1468
  147OSM   H14B16198   6.260   5.265   1.722 -0.0593 -2.0009  0.0673
  147OSM   H14C16199   6.375   5.315   1.597 -0.6310  1.3096  0.7652
  147OSM    C1316200   6.266   5.088   1.444 -0.3905 -0.2620 -0.1512
  147OSM   H13A16201   6.335   5.129   1.371  0.8321  2.0201  2.1261
  147OSM   H13B16202   6.185   5.034   1.397 -0.4486 -0.6591  0.3990
  147OSM   H13C16203   6.329   5.023   1.503 -1.7244 -1.4362  0.0405
  147OSM    C1216204   6.170   5.326   1.453 -0.0961 -0.6429  0.0146
  147OSM   H12A16205   6.127   5.397   1.522 -3.2560 -0.5069 -1.9075
  147OSM   H12B16206   6.090   5.302   1.384 -1.3374  0.9257  0.8336
  147OSM    C1116207   6.278   5.398   1.369 -0.0100 -0.1511 -0.2328
  147OSM   H11A16208   6.222   5.472   1.308  0.7794  0.5667 -0.1013
  147OSM   H11B16209   6.331   5.326   1.304 -1.4795 -2.3869  0.9014
  147OSM      P16210   6.364   5.598   1.526  0.0244  0.0630  0.5532
  147OSM    O1316211   6.438   5.690   1.439  0.6036 -0.2247 -0.3158
  147OSM    O1416212   6.224   5.637   1.557 -0.2667  0.1065 -0.0202
  147OSM    O1116213   6.446   5.561   1.659  0.6179 -0.2961  0.5526
  147OSM    O1216214   6.371   5.452   1.452  0.5059 -0.0766 -0.1848
  147OSM    C1S16215   6.395   5.592   1.786  0.3622 -0.2951 -0.6569
  147OSM    H1S16216   6.289   5.567   1.808  0.9564 -1.5297  0.9645
  147OSM    H1T16217   6.416   5.695   1.823 -0.2706 -0.6085  0.6351
  147OSM     NF16218   6.398   5.498   2.014  0.3773  0.5107 -0.3451
  147OSM    HNF16219   6.454   5.513   2.095  0.1982  0.7745 -0.2664
  147OSM    C2S16220   6.468   5.496   1.894 -0.0285  0.0755  0.1663
  147OSM    H2S16221   6.449   5.397   1.848 -1.2833  1.3274 -2.2350
  147OSM    C3S16222   6.613   5.538   1.904 -0.0524 -0.1323 -0.3296
  147OSM    H3S16223   6.610   5.640   1.947  0.3193  0.0491 -0.7309
  147OSM     O316224   6.686   5.561   1.776 -0.3069  0.4398 -0.2792
  147OSM    HO316225   6.615   5.574   1.713 -0.8156  1.4727  0.4996
  147OSM    C4S16226   6.684   5.431   1.988 -0.2060 -0.2831  0.0750
  147OSM    H4S16227   6.710   5.463   2.090  0.4131 -2.7753  0.7706
  147OSM    C5S16228   6.725   5.305   1.947  0.9290 -1.0660  0.4504
  147OSM    H5S16229   6.708   5.276   1.842 -2.6003 -2.0926  1.1718
  147OSM    C6S16230   6.797   5.200   2.014 -0.3585  0.6546  0.0058
  147OSM    H6S16231   6.907   5.203   2.002 -0.2695 -2.1104 -0.5042
  147OSM    H6T16232   6.760   5.104   1.971  3.2228  0.2089 -2.5135
  147OSM    C7S16233   6.773   5.191   2.166  0.3654 -0.4723  0.1531
  147OSM    H7S16234   6.667   5.164   2.185 -0.0875  0.3092 -1.1587
  147OSM    H7T16235   6.802   5.294   2.194  0.9237 -0.4133 -0.6139
  147OSM    C8S16236   6.861   5.085   2.233  0.1563 -0.5558 -0.3808
  147OSM    H8S16237   6.968   5.101   2.206 -0.1916 -2.5972 -3.4382
  147OSM    H8T16238   6.839   4.989   2.181  1.7958  1.2227 -4.9192
  147OSM    C9S16239   6.846   5.068   2.383 -0.0173 -0.6874 -0.0660
  147OSM    H9S16240   6.743   5.028   2.397 -0.7336  1.5618  1.8148
  147OSM    H9T16241   6.846   5.172   2.423  0.7598 -1.0773  0.9655
  147OSM   C10S16242   6.961   4.996   2.455  0.3663 -0.1775  0.3124
  147OSM   H10S16243   7.063   5.031   2.429  0.6381 -0.5984  0.7844
  147OSM   H10T16244   6.961   4.894   2.411  1.1858 -0.8413  1.7783
  147OSM   C11S16245   6.933   4.985   2.604 -0.5065  0.0741  0.7601
  147OSM   H11S16246   6.825   4.964   2.620 -1.0260  1.1119 -1.0975
  147OSM   H11T16247   6.955   5.080   2.656  0.6456 -0.0519  0.5123
  147OSM   C12S16248   7.018   4.880   2.681 -0.6601  0.4209  0.0548
  147OSM   H12S16249   7.124   4.911   2.686 -0.4653 -0.1798 -0.3967
  147OSM   H12T16250   7.012   4.783   2.629  1.4259  0.7874 -0.9676
  147OSM   C13S16251   6.969   4.875   2.829  0.2931 -0.2671  1.2104
  147OSM   H13S16252   6.867   4.832   2.822  0.1789  0.1703 -4.1523
  147OSM   H13T16253   6.961   4.981   2.860 -1.0991 -0.4152  1.4153
  147OSM   C14S16254   7.062   4.804   2.920  0.2505  0.4137 -0.3162
  147OSM   H14S16255   7.162   4.852   2.927  0.7932 -0.6665 -0.4158
  147OSM   H14T16256   7.071   4.696   2.894 -2.6219 -0.0012  0.1261
  147OSM   C15S16257   7.003   4.821   3.062  0.3291 -0.2007  0.4358
  147OSM   H15S16258   6.896   4.789   3.060  0.9121 -2.2677  0.0696
  147OSM   H15T16259   7.010   4.925   3.098 -1.0474  0.0752 -0.0423
  147OSM   C16S16260   7.081   4.732   3.161  0.3145  1.1388 -0.6840
  147OSM   H16S16261   7.176   4.787   3.178  0.6318  0.5745 -0.6329
  147OSM   H16T16262   7.110   4.638   3.110 -0.5317  1.5231 -1.9081
  147OSM   C17S16263   7.006   4.677   3.288 -0.4918 -0.2431 -0.5480
  147OSM   H17S16264   7.064   4.591   3.329  0.8497  0.7046 -0.3847
  147OSM   H17T16265   6.913   4.631   3.247 -0.8658  0.2739 -0.2913
  147OSM   C18S16266   6.984   4.792   3.385  0.1992  0.2872 -0.4238
  147OSM   H18S16267   7.082   4.824   3.425  0.7068 -0.6778 -0.8732
  147OSM   H18T16268   6.922   4.762   3.472 -0.2190  0.3790 -0.6839
  147OSM   H18U16269   6.946   4.878   3.326 -0.1707  0.1747 -0.3532
  147OSM    C1F16270   6.268   5.454   2.036 -0.3002  0.0827 -0.5422
  147OSM     OF16271   6.214   5.372   1.956  0.1067 -0.1599 -0.4744
  147OSM    C2F16272   6.196   5.487   2.168 -0.1837  0.7379  0.0624
  147OSM    H2F16273   6.194   5.597   2.183 -0.0699  0.8507 -0.7293
  147OSM    H2G16274   6.264   5.449   2.247 -2.0139  1.9870  2.3803
  147OSM    C3F16275   6.057   5.423   2.182  0.2561  0.4001 -0.2714
  147OSM    H3F16276   6.059   5.313   2.165 -0.1068  0.5550 -1.4755
  147OSM    H3G16277   5.990   5.453   2.098 -1.7184 -1.4668  0.5313
  147OSM    C4F16278   5.977   5.462   2.311 -0.6146  0.3836 -0.0275
  147OSM    H4F16279   5.871   5.428   2.305 -0.3029 -0.5689 -0.2569
  147OSM    H4G16280   5.969   5.573   2.316 -1.0230  0.3471  0.1652
  147OSM    C5F16281   6.053   5.422   2.448 -0.4227 -0.1041 -0.6560
  147OSM    H5F16282   6.148   5.479   2.439 -0.7426  0.2499 -2.2377
  147OSM    H5G16283   6.075   5.313   2.441 -0.6623 -0.1190 -1.2892
  147OSM    C6F16284   5.984   5.472   2.569  0.1737 -0.3608 -0.3486
  147OSM    H6F16285   5.880   5.432   2.573  0.3431 -0.7257  2.3389
  147OSM    H6G16286   5.972   5.582   2.565 -0.2467 -0.4119 -0.5323
  147OSM    C7F16287   6.068   5.444   2.692  0.2354 -0.3812  0.4067
  147OSM    H7F16288   6.034   5.506   2.777 -3.5401 -0.1890 -1.0503
  147OSM    H7G16289   6.170   5.481   2.668 -0.1260  0.2107 -0.2406
  147OSM    C8F16290   6.076   5.293   2.740  0.0156 -0.2227 -0.9089
  147OSM    H8F16291   6.091   5.227   2.652  2.3999  0.4896 -1.1028
  147OSM    H8G16292   5.978   5.266   2.786 -0.2207  2.6089  0.4420
  147OSM    C9F16293   6.196   5.265   2.834 -0.8722 -0.3451  0.5837
  147OSM    H9F16294   6.289   5.243   2.779 -0.1631  2.3195  0.5624
  147OSM   C10F16295   6.199   5.259   2.967 -0.9164  0.6395  0.3090
  147OSM   H10F16296   6.290   5.227   3.021 -1.4373  0.3303  1.0283
  147OSM   C11F16297   6.084   5.266   3.058  0.4763  0.2009 -0.5014
  147OSM   H11F16298   6.116   5.198   3.140  0.0282  0.3059 -0.2373
  147OSM   H11G16299   5.985   5.241   3.015 -0.5669 -0.0551  1.8899
  147OSM   C12F16300   6.073   5.407   3.114  0.0082  0.1184  1.1043
  147OSM   H12F16301   6.018   5.466   3.037  2.0537  0.1734 -0.3856
  147OSM   H12G16302   6.176   5.447   3.126  0.6569 -1.3858  0.7992
  147OSM   C13F16303   5.983   5.410   3.240  0.2294  0.2786 -0.0933
  147OSM   H13F16304   6.014   5.333   3.313 -0.4685  1.1910  1.2072
  147OSM   H13G16305   5.877   5.380   3.229  0.4023 -1.6928  2.5573
  147OSM   C14F16306   5.970   5.546   3.310  0.2018  0.2531 -0.0647
  147OSM   H14F16307   5.962   5.620   3.228  0.8202  0.3942 -0.0027
  147OSM   H14G16308   6.060   5.569   3.370  0.6495  0.0173 -0.6378
  147OSM   C15F16309   5.845   5.556   3.398 -0.0489 -0.0702 -0.5822
  147OSM   H15F16310   5.848   5.486   3.484 -0.1369  2.5359  1.6837
  147OSM   H15G16311   5.749   5.549   3.342  0.2269 -0.1819 -1.0485
  147OSM   C16F16312   5.828   5.697   3.458  0.0331  0.7278 -0.5654
  147OSM   H16F16313   5.730   5.708   3.508  0.0687 -1.2962  0.0409
  147OSM   H16G16314   5.832   5.771   3.376 -1.9659 -0.8588 -2.1876
  147OSM   C17F16315   5.938   5.730   3.561 -0.3765  0.1237  0.2642
  147OSM   H17F16316   6.032   5.718   3.502 -0.7237  0.3709 -0.3550
  147OSM   H17G16317   5.937   5.660   3.647 -0.8754  0.1101  0.2499
  147OSM   C18F16318   5.915   5.873   3.606  0.7603  0.8715  0.0605
  147OSM   H18F16319   5.922   5.953   3.528  3.8310  2.2081  1.5128
  147OSM   H18G16320   6.010   5.895   3.659  2.2724  0.1981 -2.1981
  147OSM   H18H16321   5.817   5.892   3.653  0.5013  1.3870 -0.6586
  148OSM      N16322   1.411   6.776   1.698 -0.7527  0.8409 -0.1569
  148OSM    C1516323   1.460   6.906   1.757 -0.3399  0.3266 -0.2201
  148OSM   H15A16324   1.450   6.992   1.692  0.2742  0.3376 -0.3010
  148OSM   H15B16325   1.562   6.893   1.789 -0.8047 -1.1860  0.7571
  148OSM   H15C16326   1.411   6.920   1.852  1.5612 -0.5567  0.9428
  148OSM    C1416327   1.272   6.791   1.645 -0.9204 -0.2722  0.2240
  148OSM   H14A16328   1.234   6.697   1.607  0.3977 -0.7284 -0.0041
  148OSM   H14B16329   1.278   6.841   1.550  1.5514 -0.6703  0.1272
  148OSM   H14C16330   1.204   6.839   1.714 -1.0578  2.4537 -1.6510
  148OSM    C1316331   1.496   6.740   1.579  0.1797  0.3052 -0.3793
  148OSM   H13A16332   1.476   6.637   1.554 -0.3931  0.8475 -2.3824
  148OSM   H13B16333   1.601   6.735   1.604  0.3358  2.1835 -0.5103
  148OSM   H13C16334   1.492   6.804   1.491  1.6700 -0.4211 -1.0010
  148OSM    C1216335   1.405   6.664   1.802  0.2989  0.4901  0.7838
  148OSM   H12A16336   1.350   6.706   1.885  0.0968  1.6097  0.1090
  148OSM   H12B16337   1.507   6.649   1.835 -0.1460 -2.1150  1.1730
  148OSM    C1116338   1.340   6.523   1.768 -0.2498 -0.6617 -0.0740
  148OSM   H11A16339   1.239   6.542   1.727 -0.9251  3.7561  3.0338
  148OSM   H11B16340   1.341   6.472   1.867 -0.5379 -1.6599 -0.5684
  148OSM      P16341   1.554   6.389   1.702  0.3125  0.3158 -0.1500
  148OSM    O1316342   1.602   6.309   1.584  0.3293 -0.2509  0.2073
  148OSM    O1416343   1.654   6.485   1.755  0.0319 -0.6041 -0.3417
  148OSM    O1116344   1.511   6.287   1.816 -0.1552  0.3153 -0.1813
  148OSM    O1216345   1.421   6.466   1.667  0.0876  0.6230  0.2445
  148OSM    C1S16346   1.408   6.196   1.804  0.1109  0.4709  0.1797
  148OSM    H1S16347   1.412   6.122   1.722 -1.2983 -0.2324  0.7134
  148OSM    H1T16348   1.308   6.238   1.779 -0.6417 -1.8023 -0.9465
  148OSM     NF16349   1.297   5.999   1.909 -0.2044  0.4293 -0.0030
  148OSM    HNF16350   1.198   5.996   1.923 -0.5769 -2.8857 -2.1773
  148OSM    C2S16351   1.377   6.115   1.939 -0.4340 -0.4126  0.1116
  148OSM    H2S16352   1.477   6.087   1.980 -0.2267 -0.5312 -0.4697
  148OSM    C3S16353   1.319   6.212   2.045  0.8021  0.3420  0.0440
  148OSM    H3S16354   1.218   6.246   2.013 -0.3381 -1.2959  1.6780
  148OSM     O316355   1.397   6.332   2.059  0.0483  0.2434 -0.3276
  148OSM    HO316356   1.438   6.328   1.972 -0.1295 -1.2026 -0.3747
  148OSM    C4S16357   1.299   6.147   2.184  0.3605 -0.2159 -0.0912
  148OSM    H4S16358   1.197   6.110   2.202  0.6288 -1.2325 -0.6180
  148OSM    C5S16359   1.393   6.137   2.284  0.1379 -0.6984 -0.4152
  148OSM    H5S16360   1.493   6.182   2.278  0.4734 -1.3400  0.1953
  148OSM    C6S16361   1.352   6.072   2.415  0.2459 -0.3527  0.2230
  148OSM    H6S16362   1.253   6.020   2.406  0.5416 -0.9825  0.5573
  148OSM    H6T16363   1.340   6.153   2.489  0.1728  0.9762 -1.1826
  148OSM    C7S16364   1.456   5.966   2.456 -0.1150  0.4829  0.3670
  148OSM    H7S16365   1.547   6.030   2.463 -1.2545  2.0340  1.5822
  148OSM    H7T16366   1.470   5.880   2.388  3.2027 -0.0142  1.5101
  148OSM    C8S16367   1.431   5.901   2.596 -0.1500  0.4182 -0.1601
  148OSM    H8S16368   1.497   5.812   2.610 -1.0871 -0.0420  1.7455
  148OSM    H8T16369   1.331   5.853   2.595  0.2513 -0.4510 -0.1697
  148OSM    C9S16370   1.445   5.989   2.718 -0.5196 -0.3809 -0.1953
  148OSM    H9S16371   1.358   6.058   2.707 -0.3427 -0.0461  0.4379
  148OSM    H9T16372   1.537   6.051   2.707 -0.5670 -0.1724  0.5224
  148OSM   C10S16373   1.428   5.919   2.847 -0.2137 -0.6442  0.4772
  148OSM   H10S16374   1.516   5.857   2.874 -0.2064 -0.7572  0.1937
  148OSM   H10T16375   1.337   5.856   2.849 -1.3541  0.9603  0.7412
  148OSM   C11S16376   1.405   6.026   2.964  0.0044  0.1235 -0.0483
  148OSM   H11S16377   1.316   6.092   2.958  0.4197  0.6663 -0.3549
  148OSM   H11T16378   1.495   6.091   2.970  1.8156 -1.7032 -3.9094
  148OSM   C12S16379   1.399   5.960   3.103 -0.0853  0.0972 -0.9478
  148OSM   H12S16380   1.486   5.891   3.104  0.4991  0.5721  3.6168
  148OSM   H12T16381   1.307   5.900   3.119  0.4074 -0.7335 -1.1874
  148OSM   C13S16382   1.409   6.061   3.214 -0.0479  0.8167  0.1396
  148OSM   H13S16383   1.317   6.123   3.225 -1.0491 -0.7492  0.9899
  148OSM   H13T16384   1.494   6.132   3.201 -1.6009  2.7305 -0.0981
  148OSM   C14S16385   1.430   5.991   3.353 -0.0385  0.3390  0.9712
  148OSM   H14S16386   1.535   5.956   3.354 -0.8457 -2.7587 -2.3620
  148OSM   H14T16387   1.366   5.900   3.345 -1.6294  1.4642  0.3365
  148OSM   C15S16388   1.387   6.091   3.460  0.3909  0.1368  0.5854
  148OSM   H15S16389   1.296   6.148   3.431 -0.0511 -1.2813 -1.0149
  148OSM   H15T16390   1.466   6.165   3.482  0.7391 -0.1211  0.2251
  148OSM   C16S16391   1.371   6.013   3.589 -0.6480  0.0106 -0.1624
  148OSM   H16S16392   1.269   5.969   3.580 -0.1138 -1.3686  0.4135
  148OSM   H16T16393   1.366   6.085   3.673 -2.2234 -1.3556  0.9957
  148OSM   C17S16394   1.474   5.908   3.607  0.0666 -0.1586  0.1201
  148OSM   H17S16395   1.580   5.937   3.593  0.4197 -2.0662 -1.6628
  148OSM   H17T16396   1.446   5.828   3.535  0.5767 -2.8278  2.7085
  148OSM   C18S16397   1.471   5.843   3.739 -0.2113 -0.0999 -0.8866
  148OSM   H18S16398   1.524   5.746   3.731  2.3014  1.1929 -0.7639
  148OSM   H18T16399   1.376   5.830   3.795 -0.4953  0.3652 -1.2417
  148OSM   H18U16400   1.537   5.909   3.799  0.5729 -1.3500 -0.3454
  148OSM    C1F16401   1.358   5.889   1.859  0.0507  0.0890  0.0511
  148OSM     OF16402   1.478   5.895   1.842  0.3401  0.1541 -0.1435
  148OSM    C2F16403   1.276   5.773   1.821  0.7777  0.0972  0.9837
  148OSM    H2F16404   1.337   5.691   1.777  1.0084  0.2416  1.0320
  148OSM    H2G16405   1.194   5.812   1.757  0.9970 -0.6539  0.2354
  148OSM    C3F16406   1.196   5.720   1.937 -0.0681 -0.0466 -0.3494
  148OSM    H3F16407   1.152   5.631   1.888  1.4802 -1.8734  1.3895
  148OSM    H3G16408   1.121   5.788   1.983  1.0915 -0.2480  2.0377
  148OSM    C4F16409   1.285   5.666   2.055  0.3487 -0.0833  0.0084
  148OSM    H4F16410   1.355   5.751   2.075 -1.7248  1.5620  0.6252
  148OSM    H4G16411   1.348   5.582   2.020 -0.6737 -0.2536 -1.5495
  148OSM    C5F16412   1.194   5.630   2.174 -0.0942 -0.1556 -0.4270
  148OSM    H5F16413   1.124   5.548   2.147  0.4694 -0.2841 -1.5732
  148OSM    H5G16414   1.135   5.719   2.205 -0.0319 -0.2088 -0.1510
  148OSM    C6F16415   1.274   5.596   2.299  0.0856  0.2252 -0.4608
  148OSM    H6F16416   1.304   5.686   2.357  1.1068 -0.3279 -0.1166
  148OSM    H6G16417   1.359   5.541   2.253 -0.8839 -0.5865 -1.3244
  148OSM    C7F16418   1.203   5.503   2.401 -0.7847 -0.1674  0.2487
  148OSM    H7F16419   1.150   5.423   2.345 -0.5653 -0.7068  0.8005
  148OSM    H7G16420   1.119   5.547   2.457 -1.2284 -1.7138  0.8504
  148OSM    C8F16421   1.306   5.414   2.475 -0.4357  0.7508  0.4352
  148OSM    H8F16422   1.379   5.485   2.519  0.1084 -0.3692  1.4345
  148OSM    H8G16423   1.351   5.341   2.404 -0.4543  0.7501  0.4238
  148OSM    C9F16424   1.248   5.331   2.584  0.4784  0.3723 -0.3062
  148OSM    H9F16425   1.232   5.225   2.561 -2.1909  0.5279  0.4965
  148OSM   C10F16426   1.203   5.374   2.704 -0.1517 -0.0067 -0.1666
  148OSM   H10F16427   1.150   5.315   2.779 -1.1429 -1.2779 -1.7910
  148OSM   C11F16428   1.205   5.522   2.744 -1.0909 -0.1875 -0.5018
  148OSM   H11F16429   1.103   5.567   2.746 -0.4827  1.2680 -1.0582
  148OSM   H11G16430   1.263   5.589   2.676  0.1676 -0.2663  0.4599
  148OSM   C12F16431   1.276   5.544   2.882 -0.7617 -0.6396 -0.0723
  148OSM   H12F16432   1.208   5.493   2.954 -1.9429  0.6990 -0.2004
  148OSM   H12G16433   1.280   5.654   2.894  0.5193 -0.3334 -2.6718
  148OSM   C13F16434   1.418   5.487   2.880 -0.1713 -0.0424  0.3973
  148OSM   H13F16435   1.468   5.518   2.785  0.2631  0.7572  0.8765
  148OSM   H13G16436   1.429   5.378   2.897 -1.2173 -0.0467  1.1542
  148OSM   C14F16437   1.508   5.558   2.977  0.3753 -0.2171 -0.0091
  148OSM   H14F16438   1.531   5.665   2.959  3.3767 -0.6192  0.8485
  148OSM   H14G16439   1.608   5.510   2.968  0.0109 -0.9978  0.0466
  148OSM   C15F16440   1.465   5.548   3.124 -0.2906 -0.0790 -0.1241
  148OSM   H15F16441   1.436   5.442   3.140 -1.1037  0.1195 -0.2406
  148OSM   H15G16442   1.369   5.601   3.140 -0.1682 -0.2154  1.1753
  148OSM   C16F16443   1.570   5.593   3.225 -0.7676 -0.1073  0.3373
  148OSM   H16F16444   1.577   5.702   3.202 -0.5191 -0.2555 -0.3055
  148OSM   H16G16445   1.669   5.550   3.201 -0.9870  0.1374 -1.1039
  148OSM   C17F16446   1.526   5.598   3.374 -0.4640 -0.6482 -0.0747
  148OSM   H17F16447   1.485   5.498   3.400  1.1309 -1.4945 -0.7290
  148OSM   H17G16448   1.438   5.666   3.384 -2.4779 -2.6205 -2.8069
  148OSM   C18F16449   1.641   5.630   3.469  0.7129  0.6648 -0.2523
  148OSM   H18F16450   1.611   5.596   3.571 -0.7727  0.1621 -0.8228
  148OSM   H18G16451   1.674   5.736   3.472 -1.5046  1.3860  1.3914
  148OSM   H18H16452   1.724   5.571   3.425  1.4957  0.6811  1.1461
  149OSM      N16453   0.705   3.645   1.824 -0.1719 -0.3225 -0.0848
  149OSM    C1516454   0.828   3.606   1.898 -0.5664  0.8062 -0.3142
  149OSM   H15A16455   0.893   3.548   1.834 -0.6475 -0.2394  0.5163
  149OSM   H15B16456   0.812   3.537   1.979 -1.5219 -1.0347 -1.9764
  149OSM   H15C16457   0.876   3.690   1.947 -0.7770 -0.6296  2.5439
  149OSM    C1416458   0.739   3.731   1.711 -0.0288  0.1111  0.0444
  149OSM   H14A16459   0.797   3.819   1.736  0.5727 -0.2089 -0.1905
  149OSM   H14B16460   0.645   3.753   1.664  0.1186  0.3281 -0.1515
  149OSM   H14C16461   0.798   3.679   1.638 -0.3911  0.8351 -0.7732
  149OSM    C1316462   0.631   3.527   1.767 -0.4327  0.3795 -0.2958
  149OSM   H13A16463   0.676   3.460   1.696 -1.8857  0.0957 -0.9983
  149OSM   H13B16464   0.535   3.555   1.725 -1.3820 -0.5766  1.1070
  149OSM   H13C16465   0.601   3.455   1.843  1.5490 -2.8110 -2.3284
  149OSM    C1216466   0.614   3.723   1.921  0.7782  0.7606 -0.3775
  149OSM   H12A16467   0.676   3.788   1.981 -1.0711  1.3432  0.9606
  149OSM   H12B16468   0.568   3.660   1.996  0.3564  3.4093  1.7049
  149OSM    C1116469   0.494   3.789   1.849  0.3175  0.0013 -0.1224
  149OSM   H11A16470   0.513   3.835   1.749 -1.8934  1.0949 -0.1217
  149OSM   H11B16471   0.451   3.871   1.911 -0.2733  0.4588 -1.0968
  149OSM      P16472   0.309   3.638   1.939 -0.2739 -0.1966  0.4491
  149OSM    O1316473   0.204   3.541   1.894  0.4916  1.0334 -0.5821
  149OSM    O1416474   0.401   3.602   2.047  0.0196  0.1572  0.4203
  149OSM    O1116475   0.236   3.766   1.982  0.0847 -0.1759  0.4430
  149OSM    O1216476   0.398   3.688   1.812 -1.1469  0.0170 -0.1940
  149OSM    C1S16477   0.154   3.777   2.104  0.1274 -0.6648  0.3153
  149OSM    H1S16478   0.112   3.681   2.141  1.0169 -2.9201 -3.8794
  149OSM    H1T16479   0.066   3.834   2.067 -0.0846 -1.4913 -0.4952
  149OSM     NF16480   0.156   3.810   2.355 -0.0991 -0.0138 -0.3878
  149OSM    HNF16481   0.092   3.871   2.401  0.4846  1.4883 -1.4534
  149OSM    C2S16482   0.211   3.857   2.227  0.3700 -0.5181 -0.2460
  149OSM    H2S16483   0.321   3.843   2.235  0.5726  1.6052  1.1808
  149OSM    C3S16484   0.196   4.005   2.206 -0.1223 -0.0970  0.3221
  149OSM    H3S16485   0.088   4.029   2.200 -0.0317  0.7216  1.4448
  149OSM     O316486   0.237   4.061   2.075  0.2296  0.0997 -0.0893
  149OSM    HO316487   0.225   3.986   2.016  1.0522  0.5261 -0.8287
  149OSM    C4S16488   0.256   4.082   2.317  0.7178  0.1475 -0.3563
  149OSM    H4S16489   0.363   4.059   2.329  0.5118  0.1713  2.1438
  149OSM    C5S16490   0.202   4.185   2.377 -0.2052 -0.7977 -0.1698
  149OSM    H5S16491   0.105   4.218   2.339 -0.9735 -1.0073  1.5160
  149OSM    C6S16492   0.264   4.273   2.487  0.8231 -0.5953 -0.1473
  149OSM    H6S16493   0.247   4.379   2.461  1.5374 -0.7446 -1.2919
  149OSM    H6T16494   0.374   4.260   2.490  0.7562 -1.0903  1.5433
  149OSM    C7S16495   0.223   4.217   2.619  0.6452  0.7115  0.2390
  149OSM    H7S16496   0.230   4.107   2.624  1.3086  0.8029  1.8897
  149OSM    H7T16497   0.120   4.253   2.635  0.6608 -0.2163  2.8276
  149OSM    C8S16498   0.308   4.297   2.732 -0.5065  0.5984  0.4603
  149OSM    H8S16499   0.310   4.407   2.716 -1.4230  0.6491  0.6008
  149OSM    H8T16500   0.408   4.249   2.733 -1.0011 -0.4567  0.1306
  149OSM    C9S16501   0.240   4.270   2.869  0.2028 -0.4551  0.3687
  149OSM    H9S16502   0.240   4.161   2.887  2.1395 -0.2263  2.2298
  149OSM    H9T16503   0.138   4.315   2.870  0.4798  0.2535 -0.6268
  149OSM   C10S16504   0.324   4.330   2.992  0.2607 -0.6586 -0.0825
  149OSM   H10S16505   0.331   4.440   2.982 -0.0830 -0.2004  3.5266
  149OSM   H10T16506   0.425   4.285   2.991  0.2284 -0.8769  2.0564
  149OSM   C11S16507   0.249   4.297   3.122 -0.1843 -0.0722  0.1457
  149OSM   H11S16508   0.226   4.188   3.130 -0.8416  0.2078  2.6785
  149OSM   H11T16509   0.150   4.344   3.111 -0.3029 -0.2614  0.4068
  149OSM   C12S16510   0.312   4.336   3.258  0.1388  0.4916  0.2478
  149OSM   H12S16511   0.360   4.436   3.258  1.3869 -0.0490 -1.9819
  149OSM   H12T16512   0.388   4.256   3.271 -1.5496 -1.6352 -1.9487
  149OSM   C13S16513   0.216   4.317   3.376  0.6814 -0.0220 -0.2516
  149OSM   H13S16514   0.162   4.220   3.376 -0.1782  0.3734  2.5327
  149OSM   H13T16515   0.133   4.388   3.357  2.0929  1.2885 -1.8562
  149OSM   C14S16516   0.281   4.339   3.513 -0.3212 -0.0209 -0.1967
  149OSM   H14S16517   0.196   4.354   3.583 -1.2232 -0.4872 -1.1646
  149OSM   H14T16518   0.343   4.431   3.509  0.7328 -0.4128  3.5716
  149OSM   C15S16519   0.379   4.226   3.549  0.3319 -0.0571 -0.5151
  149OSM   H15S16520   0.463   4.259   3.483 -1.0446 -0.6641 -2.6745
  149OSM   H15T16521   0.355   4.121   3.521  2.3371 -0.4909 -0.7711
  149OSM   C16S16522   0.413   4.246   3.694 -0.1290  0.3343 -0.0262
  149OSM   H16S16523   0.446   4.351   3.698 -1.8660  0.9155  0.0547
  149OSM   H16T16524   0.496   4.180   3.728 -0.6321 -0.5519 -0.4613
  149OSM   C17S16525   0.296   4.227   3.794  0.3028 -0.1136  0.0876
  149OSM   H17S16526   0.252   4.127   3.771  2.2423 -0.4162 -2.8568
  149OSM   H17T16527   0.223   4.309   3.784  1.4429  0.8039 -1.0725
  149OSM   C18S16528   0.347   4.221   3.939  0.4036  0.5772 -0.8491
  149OSM   H18S16529   0.409   4.310   3.964  4.3707 -1.3688 -2.7961
  149OSM   H18T16530   0.410   4.130   3.948 -0.3653  0.0733 -0.4935
  149OSM   H18U16531   0.268   4.200   4.013 -1.4958 -1.8748 -3.3597
  149OSM    C1F16532   0.166   3.689   2.414  0.2141  0.2812  0.1887
  149OSM     OF16533   0.232   3.598   2.359 -0.6294 -0.2053  0.0298
  149OSM    C2F16534   0.090   3.676   2.546 -0.0778 -0.2090  0.3558
  149OSM    H2F16535  -0.011   3.720   2.539  0.0030  0.0845  0.9038
  149OSM    H2G16536   0.145   3.744   2.616  1.1963 -0.1611 -0.6591
  149OSM    C3F16537   0.098   3.536   2.601 -0.3438 -0.2051  0.1368
  149OSM    H3F16538   0.206   3.514   2.610 -0.0284  1.1577 -0.0926
  149OSM    H3G16539   0.047   3.471   2.527 -0.8340  0.4186 -0.0854
  149OSM    C4F16540   0.042   3.512   2.743 -0.2430 -0.2751  0.3951
  149OSM    H4F16541   0.046   3.406   2.778 -0.1667 -0.1268  0.8431
  149OSM    H4G16542  -0.066   3.537   2.741  0.0572  1.0566 -1.1957
  149OSM    C5F16543   0.108   3.606   2.843 -0.1931 -0.0180 -0.4379
  149OSM    H5F16544   0.107   3.712   2.810  1.6346  0.1265 -0.1300
  149OSM    H5G16545   0.216   3.580   2.852 -0.3447  0.0235  2.5903
  149OSM    C6F16546   0.047   3.587   2.985  0.0584 -0.2011 -0.1835
  149OSM    H6F16547   0.065   3.483   3.020  0.1519  0.4235  1.7840
  149OSM    H6G16548  -0.059   3.616   2.967  0.3607 -0.0654 -1.8707
  149OSM    C7F16549   0.110   3.681   3.093 -0.0454 -0.0894 -0.1255
  149OSM    H7F16550   0.103   3.783   3.050  0.7863 -0.1585 -0.4413
  149OSM    H7G16551   0.218   3.661   3.110 -0.1400 -0.4850  0.0288
  149OSM    C8F16552   0.030   3.680   3.226 -0.0377  0.9183 -0.2954
  149OSM    H8F16553  -0.074   3.710   3.202 -1.4759 -1.1714  2.6815
  149OSM    H8G16554   0.072   3.764   3.285  2.2679  0.7969 -1.6018
  149OSM    C9F16555   0.048   3.560   3.309 -1.0682 -0.8957 -0.8361
  149OSM    H9F16556  -0.009   3.469   3.284 -3.0277  1.0594 -4.3172
  149OSM   C10F16557   0.123   3.552   3.417  0.4387  0.2095  0.1707
  149OSM   H10F16558   0.131   3.452   3.462  0.4747  0.2042  0.1535
  149OSM   C11F16559   0.215   3.661   3.464 -0.5105  0.0194 -0.3113
  149OSM   H11F16560   0.223   3.756   3.407  2.0974  1.8613  2.7367
  149OSM   H11G16561   0.314   3.611   3.458  1.2262  3.1157  0.2944
  149OSM   C12F16562   0.184   3.681   3.613  0.2349 -0.1650  0.0395
  149OSM   H12F16563   0.187   3.587   3.672 -0.8270 -0.6174 -0.6030
  149OSM   H12G16564   0.078   3.713   3.624  0.1713 -0.5490  0.5608
  149OSM   C13F16565   0.277   3.787   3.670 -0.3949  0.4483 -0.1563
  149OSM   H13F16566   0.221   3.849   3.744  0.3355  3.5581 -2.0193
  149OSM   H13G16567   0.305   3.868   3.599 -2.6664  2.1281  0.7325
  149OSM   C14F16568   0.395   3.731   3.754  0.2244  0.5303 -0.5267
  149OSM   H14F16569   0.458   3.687   3.674 -1.0002 -0.2900 -1.0664
  149OSM   H14G16570   0.358   3.643   3.811  1.7090  0.0730 -0.1963
  149OSM   C15F16571   0.468   3.835   3.838 -0.0527  0.0735  0.5156
  149OSM   H15F16572   0.409   3.875   3.923 -0.0667  0.1095  0.4890
  149OSM   H15G16573   0.488   3.921   3.770 -0.7800  0.0435  0.2610
  149OSM   C16F16574   0.612   3.793   3.876  0.1589  0.0196  0.1043
  149OSM   H16F16575   0.667   3.747   3.791  1.7392  1.0510  0.5424
  149OSM   H16G16576   0.606   3.706   3.945 -0.2405 -0.0919 -0.0670
  149OSM   C17F16577   0.697   3.912   3.934  0.1151 -0.0502 -1.0157
  149OSM   H17F16578   0.677   4.003   3.874  0.6539 -0.9458 -2.5958
  149OSM   H17G16579   0.806   3.894   3.923  0.4865 -1.8929  3.3212
  149OSM   C18F16580   0.677   3.937   4.088  0.8583 -0.4800 -0.2392
  149OSM   H18F16581   0.670   3.834   4.130  1.4437 -0.3174  0.2627
  149OSM   H18G16582   0.582   3.991   4.107  1.4355  0.8051 -0.9258
  149OSM   H18H16583   0.749   4.004   4.139 -0.7281  0.0116  1.4868
  150OSM      N16584   2.376   4.346   1.778 -0.7184  0.0326  0.1299
  150OSM    C1516585   2.250   4.362   1.694  0.0425  0.9697 -0.0224
  150OSM   H15A16586   2.262   4.444   1.625  0.0673  0.6462 -0.4130
  150OSM   H15B16587   2.179   4.379   1.772 -0.2846  2.5134 -0.6210
  150OSM   H15C16588   2.226   4.269   1.644 -0.3364  1.4892 -0.8159
  150OSM    C1416589   2.353   4.266   1.893 -0.0519  0.2953 -0.1891
  150OSM   H14A16590   2.450   4.244   1.936 -0.4999  0.1421  0.7703
  150OSM   H14B16591   2.309   4.173   1.860  1.3008 -0.1879 -0.6944
  150OSM   H14C16592   2.298   4.309   1.975 -0.2498  1.3520 -0.8651
  150OSM    C1316593   2.470   4.267   1.697 -0.3099  0.9697  0.1372
  150OSM   H13A16594   2.549   4.235   1.763  0.1295  0.9950 -0.3734
  150OSM   H13B16595   2.511   4.327   1.617  1.6399 -1.4117 -0.7977
  150OSM   H13C16596   2.436   4.172   1.658  0.5119 -0.9866  3.7075
  150OSM    C1216597   2.426   4.488   1.809  0.1661  0.1171  0.1026
  150OSM   H12A16598   2.516   4.478   1.868 -0.9490 -1.1073  1.6972
  150OSM   H12B16599   2.360   4.538   1.878 -0.3219 -0.6322  0.1928
  150OSM    C1116600   2.439   4.589   1.691  0.1468 -0.0127 -0.3383
  150OSM   H11A16601   2.473   4.690   1.723  1.6220 -0.8531  0.9640
  150OSM   H11B16602   2.337   4.601   1.650 -0.3557  1.8258  1.3128
  150OSM      P16603   2.692   4.587   1.593 -0.4232 -0.2785 -0.5431
  150OSM    O1316604   2.771   4.469   1.546  0.2888  0.1856  0.5098
  150OSM    O1416605   2.710   4.717   1.519  0.4377  0.3281 -0.1843
  150OSM    O1116606   2.715   4.616   1.745  0.4918 -0.1801  0.0319
  150OSM    O1216607   2.537   4.546   1.593  0.1066 -0.5940  0.3599
  150OSM    C1S16608   2.779   4.509   1.817  0.1888 -0.3524  0.0151
  150OSM    H1S16609   2.878   4.490   1.771 -0.8963  1.0178 -3.1550
  150OSM    H1T16610   2.715   4.418   1.813  0.5389 -0.6174  0.3578
  150OSM     NF16611   2.864   4.413   2.023 -0.4555  0.2343 -0.0914
  150OSM    HNF16612   2.803   4.358   2.079 -1.2242  0.9892 -0.1704
  150OSM    C2S16613   2.811   4.532   1.970  0.1001 -0.3901  0.4189
  150OSM    H2S16614   2.893   4.604   1.951  0.1507 -1.2491 -3.4401
  150OSM    C3S16615   2.701   4.599   2.044  0.5499 -0.2793 -0.3798
  150OSM    H3S16616   2.615   4.529   2.047 -2.1879  2.7480  3.5016
  150OSM     O316617   2.649   4.723   1.989  0.6139  0.3122  0.2718
  150OSM    HO316618   2.687   4.707   1.902 -1.2074 -1.6529 -0.2376
  150OSM    C4S16619   2.734   4.610   2.194 -0.0011  0.9773 -0.0696
  150OSM    H4S16620   2.713   4.527   2.263  0.2479 -0.4680 -1.6572
  150OSM    C5S16621   2.790   4.721   2.242 -0.5184  0.7749  0.0177
  150OSM    H5S16622   2.808   4.814   2.185 -0.4812  0.7369 -0.0323
  150OSM    C6S16623   2.859   4.736   2.371  0.2925  0.0576 -0.7506
  150OSM    H6S16624   2.831   4.830   2.423 -1.7580  2.2098 -5.2222
  150OSM    H6T16625   2.967   4.737   2.344  0.6400 -0.1284  0.5834
  150OSM    C7S16626   2.823   4.625   2.482  0.1919 -0.4536  0.0180
  150OSM    H7S16627   2.839   4.523   2.441  0.9278  0.1753 -1.3224
  150OSM    H7T16628   2.720   4.649   2.515  0.7459  0.2051  1.3344
  150OSM    C8S16629   2.908   4.649   2.610  0.5063 -0.3560  0.1490
  150OSM    H8S16630   2.904   4.757   2.635  0.7364  0.0701 -1.5843
  150OSM    H8T16631   3.016   4.631   2.593  1.0833  2.4293  0.4327
  150OSM    C9S16632   2.866   4.568   2.734  0.0896 -0.3165  1.1953
  150OSM    H9S16633   2.894   4.466   2.700 -0.1802  0.2490 -0.8293
  150OSM    H9T16634   2.755   4.573   2.743  0.0276  2.3450 -0.2832
  150OSM   C10S16635   2.937   4.610   2.857 -0.1192  0.3191  0.0613
  150OSM   H10S16636   2.897   4.705   2.898  2.7487  1.8646 -0.5106
  150OSM   H10T16637   3.045   4.625   2.841 -0.1804 -0.6825 -1.6087
  150OSM   C11S16638   2.917   4.505   2.974  0.3664 -0.2571 -0.9639
  150OSM   H11S16639   2.922   4.398   2.943 -0.1696 -1.0165  1.3351
  150OSM   H11T16640   2.815   4.527   3.014  0.4380  0.1254 -0.9942
  150OSM   C12S16641   3.014   4.551   3.085 -0.3285 -0.2103  0.1664
  150OSM   H12S16642   3.000   4.660   3.104 -2.5201 -0.2525 -0.8782
  150OSM   H12T16643   3.114   4.548   3.038 -0.5042 -0.4327 -0.2009
  150OSM   C13S16644   3.015   4.473   3.222 -0.3865  0.3601  0.4650
  150OSM   H13S16645   3.073   4.379   3.222 -0.9755 -0.0112  0.6913
  150OSM   H13T16646   2.907   4.452   3.240 -0.6520  0.9213 -0.4133
  150OSM   C14S16647   3.079   4.558   3.336 -0.0675 -0.0151 -0.2269
  150OSM   H14S16648   3.020   4.652   3.330 -1.6975 -0.8189  1.9914
  150OSM   H14T16649   3.183   4.584   3.305  0.2686  0.0484  0.9178
  150OSM   C15S16650   3.057   4.511   3.483 -0.1132  0.3070 -0.3250
  150OSM   H15S16651   2.950   4.491   3.508  0.4794  0.0686  2.2411
  150OSM   H15T16652   3.084   4.597   3.548 -0.3135  0.5080 -0.5041
  150OSM   C16S16653   3.131   4.380   3.511  0.1742  0.5510  0.3905
  150OSM   H16S16654   3.232   4.388   3.466 -0.1092  0.5506 -0.2515
  150OSM   H16T16655   3.076   4.293   3.471  0.4247  0.0726  1.0670
  150OSM   C17S16656   3.140   4.355   3.663 -0.1450  1.0984 -0.3366
  150OSM   H17S16657   3.170   4.249   3.678  0.6367  1.2123 -1.0026
  150OSM   H17T16658   3.042   4.374   3.712  0.3894  1.7530  0.4951
  150OSM   C18S16659   3.245   4.443   3.735 -0.5013 -0.0148 -0.3968
  150OSM   H18S16660   3.204   4.546   3.743 -0.7280 -0.1004 -0.4281
  150OSM   H18T16661   3.340   4.449   3.678 -0.7063  0.3347 -0.7033
  150OSM   H18U16662   3.269   4.407   3.837 -0.4447 -0.2333 -0.4863
  150OSM    C1F16663   2.986   4.363   1.996 -0.2217  0.6760 -0.4791
  150OSM     OF16664   3.059   4.411   1.909 -0.2337  0.4160 -0.6311
  150OSM    C2F16665   3.042   4.251   2.080  0.3044 -0.2371  0.1003
  150OSM    H2F16666   3.047   4.162   2.013 -2.0235 -1.4501  1.4263
  150OSM    H2G16667   2.964   4.224   2.153  0.0402 -1.0252 -0.4585
  150OSM    C3F16668   3.182   4.286   2.130 -0.3845  0.5075 -0.1254
  150OSM    H3F16669   3.183   4.392   2.163  1.0840  1.1266 -1.9271
  150OSM    H3G16670   3.243   4.280   2.037 -0.8007 -0.9098 -0.3401
  150OSM    C4F16671   3.247   4.190   2.235 -0.3297  0.5649 -0.6301
  150OSM    H4F16672   3.351   4.215   2.264 -0.2672 -0.1908 -0.1608
  150OSM    H4G16673   3.264   4.092   2.185 -0.2372  0.8843 -1.2421
  150OSM    C5F16674   3.159   4.168   2.361 -0.7128  0.0615 -0.6261
  150OSM    H5F16675   3.061   4.138   2.317 -1.5121 -0.4180  1.4039
  150OSM    H5G16676   3.141   4.254   2.429  1.4464 -1.2630  1.7793
  150OSM    C6F16677   3.196   4.045   2.448 -0.0153  0.7678  0.2220
  150OSM    H6F16678   3.297   4.044   2.494  1.0659 -1.0667 -2.0037
  150OSM    H6G16679   3.209   3.956   2.383  1.7500  2.1085 -1.3690
  150OSM    C7F16680   3.089   4.018   2.556 -0.2197 -0.2436 -0.3235
  150OSM    H7F16681   2.992   3.992   2.509 -1.1994  2.4550  0.0700
  150OSM    H7G16682   3.085   4.116   2.609 -2.3446  0.4090 -1.5924
  150OSM    C8F16683   3.152   3.908   2.648 -0.2975  1.0218 -0.3002
  150OSM    H8F16684   3.255   3.937   2.678  0.0478 -0.4461  0.0302
  150OSM    H8G16685   3.175   3.819   2.586  0.4007  0.8188  0.2356
  150OSM    C9F16686   3.070   3.882   2.768  0.2593  0.2068 -0.0602
  150OSM    H9F16687   3.022   3.783   2.774  0.1008  0.2181 -0.9054
  150OSM   C10F16688   3.068   3.952   2.882 -0.4740  0.0609  0.5526
  150OSM   H10F16689   3.024   3.906   2.971  0.1505  0.5565  1.1309
  150OSM   C11F16690   3.133   4.087   2.896 -0.6258  0.9681 -0.6093
  150OSM   H11F16691   3.061   4.164   2.861 -1.1290  0.2572 -1.1706
  150OSM   H11G16692   3.215   4.110   2.826  0.0209 -1.0279 -0.5626
  150OSM   C12F16693   3.193   4.109   3.034  0.1032  0.2032 -0.0617
  150OSM   H12F16694   3.118   4.080   3.110 -0.6285  1.1334 -0.4181
  150OSM   H12G16695   3.215   4.217   3.042  0.4053  0.2029 -0.8012
  150OSM   C13F16696   3.318   4.020   3.044  0.2253  0.5676  0.0708
  150OSM   H13F16697   3.409   4.079   3.019  2.4613 -3.4519 -2.2773
  150OSM   H13G16698   3.320   3.929   2.980  1.1870  2.0581 -2.1369
  150OSM   C14F16699   3.350   3.977   3.184 -0.4986 -0.1351 -0.0949
  150OSM   H14F16700   3.451   3.932   3.177 -0.3017 -0.2448  2.5091
  150OSM   H14G16701   3.287   3.890   3.214  0.9053 -0.4704  2.1394
  150OSM   C15F16702   3.340   4.082   3.297 -0.1036  0.5445 -1.0793
  150OSM   H15F16703   3.337   4.027   3.394 -0.2721  1.8289 -0.3254
  150OSM   H15G16704   3.242   4.133   3.282 -1.1736 -0.1452  2.5740
  150OSM   C16F16705   3.459   4.174   3.294 -0.1615 -0.5017  0.0680
  150OSM   H16F16706   3.485   4.185   3.186 -0.3951  2.6129  0.2489
  150OSM   H16G16707   3.542   4.130   3.354  2.4273  1.4178 -1.8830
  150OSM   C17F16708   3.436   4.309   3.357 -0.0956 -0.2421  0.3985
  150OSM   H17F16709   3.417   4.299   3.465  0.2552 -1.2299  0.3721
  150OSM   H17G16710   3.343   4.353   3.316  0.1279 -1.6275 -1.7252
  150OSM   C18F16711   3.563   4.399   3.332 -0.1036  0.6969 -0.4102
  150OSM   H18F16712   3.643   4.371   3.404  1.4444  0.8742 -1.9865
  150OSM   H18G16713   3.540   4.507   3.331  1.3884  1.0399 -1.3102
  150OSM   H18H16714   3.608   4.373   3.234 -2.9461 -1.3811 -1.3015
  151OSM      N16715   2.446   3.679   1.840  0.4108  0.0832  0.2818
  151OSM    C1516716   2.529   3.662   1.966 -0.2331 -0.2401 -0.4756
  151OSM   H15A16717   2.585   3.752   1.985  1.0237 -1.0089 -0.4244
  151OSM   H15B16718   2.594   3.576   1.965 -0.3402 -0.3970  1.6078
  151OSM   H15C16719   2.463   3.644   2.050  0.7308  0.7902  0.5416
  151OSM    C1416720   2.414   3.543   1.791  0.3838  0.5467  0.3221
  151OSM   H14A16721   2.504   3.483   1.791  0.2212  0.3030  0.4843
  151OSM   H14B16722   2.377   3.547   1.690 -0.9078  1.4915  0.8075
  151OSM   H14C16723   2.335   3.488   1.840  0.9104 -0.9382 -0.4179
  151OSM    C1316724   2.314   3.739   1.871 -0.4253  0.7927 -0.5316
  151OSM   H13A16725   2.266   3.687   1.952  0.7415  0.3644 -0.0970
  151OSM   H13B16726   2.246   3.714   1.791 -2.8106 -0.6126  1.7417
  151OSM   H13C16727   2.312   3.845   1.893 -1.2841  0.5831  0.4784
  151OSM    C1216728   2.522   3.753   1.731 -0.2422 -0.5081  0.4454
  151OSM   H12A16729   2.458   3.768   1.645 -0.6324 -0.8893  0.6697
  151OSM   H12B16730   2.605   3.699   1.689 -0.4162  0.9752 -2.0052
  151OSM    C1116731   2.565   3.900   1.766  0.2394 -0.2615 -0.3993
  151OSM   H11A16732   2.476   3.966   1.774 -1.2454 -2.0628 -1.0533
  151OSM   H11B16733   2.619   3.937   1.677  1.5854 -2.9744 -0.8079
  151OSM      P16734   2.706   4.041   1.935 -0.0303  0.1197  0.0811
  151OSM    O1316735   2.796   4.010   2.049 -0.3819  0.4765  0.0482
  151OSM    O1416736   2.758   4.122   1.821  0.0594 -0.3051 -0.3051
  151OSM    O1116737   2.573   4.112   1.987 -0.6494  0.0276  0.3393
  151OSM    O1216738   2.648   3.906   1.884 -0.0516 -0.1120  0.6494
  151OSM    C1S16739   2.496   4.042   2.085 -0.1683 -0.2149 -0.1622
  151OSM    H1S16740   2.497   3.933   2.065 -1.7059 -0.2137 -0.2967
  151OSM    H1T16741   2.395   4.087   2.084 -0.1813 -0.0160  2.6828
  151OSM     NF16742   2.468   3.995   2.330  0.3927 -0.1943 -1.2458
  151OSM    HNF16743   2.405   4.042   2.392  2.2189 -0.6526  1.0761
  151OSM    C2S16744   2.548   4.068   2.235 -0.0992 -0.4614  0.3742
  151OSM    H2S16745   2.652   4.030   2.235 -0.3768 -1.2678  1.6440
  151OSM    C3S16746   2.557   4.219   2.246 -0.7753  0.1902 -0.0251
  151OSM    H3S16747   2.472   4.277   2.205 -1.0092  0.4097  0.7483
  151OSM     O316748   2.673   4.277   2.187  0.5203  0.4498  0.4408
  151OSM    HO316749   2.721   4.199   2.160 -2.8796 -1.3522 -0.9214
  151OSM    C4S16750   2.554   4.250   2.391 -0.7341 -0.1922  0.4724
  151OSM    H4S16751   2.454   4.269   2.433 -0.2151  1.0941  1.1968
  151OSM    C5S16752   2.657   4.252   2.478 -0.9330 -0.2285 -0.1909
  151OSM    H5S16753   2.758   4.227   2.444 -1.4145 -0.6860 -1.3298
  151OSM    C6S16754   2.627   4.269   2.624 -0.2431 -0.1197 -0.5217
  151OSM    H6S16755   2.517   4.276   2.642  0.1415  1.3193  1.5506
  151OSM    H6T16756   2.662   4.370   2.655  0.9905 -0.1014 -1.8606
  151OSM    C7S16757   2.693   4.156   2.711 -0.0936 -0.1379  0.0136
  151OSM    H7S16758   2.801   4.157   2.683 -0.7492  0.8466 -2.8022
  151OSM    H7T16759   2.656   4.055   2.684  0.7674  0.1424 -2.5669
  151OSM    C8S16760   2.666   4.180   2.864 -0.0211 -0.4486  0.7169
  151OSM    H8S16761   2.560   4.176   2.896  0.0054 -3.3639  0.6224
  151OSM    H8T16762   2.710   4.279   2.890 -0.6634 -0.6741  2.7811
  151OSM    C9S16763   2.735   4.078   2.947  0.5277 -0.5117 -0.3988
  151OSM    H9S16764   2.844   4.095   2.932  0.6453 -0.0272  0.8564
  151OSM    H9T16765   2.705   3.975   2.917 -0.7491  0.7228 -3.8125
  151OSM   C10S16766   2.705   4.086   3.097 -0.0685  0.3203 -0.1390
  151OSM   H10S16767   2.766   4.003   3.138  1.7117  1.1273 -1.0599
  151OSM   H10T16768   2.598   4.068   3.122  0.3831 -1.4361  0.7087
  151OSM   C11S16769   2.733   4.222   3.157  0.1204 -0.3124  0.5071
  151OSM   H11S16770   2.675   4.303   3.107  0.2319 -0.7828 -0.3871
  151OSM   H11T16771   2.837   4.245   3.127  0.3597  0.3587  1.7844
  151OSM   C12S16772   2.714   4.232   3.307 -0.1108 -0.2242 -0.1330
  151OSM   H12S16773   2.753   4.331   3.338 -1.1163  0.0460  0.2846
  151OSM   H12T16774   2.771   4.157   3.365  1.6020  1.2227  0.1439
  151OSM   C13S16775   2.569   4.231   3.352  0.4207 -0.3969  0.4449
  151OSM   H13S16776   2.519   4.137   3.319 -0.2297  0.2396 -0.4218
  151OSM   H13T16777   2.514   4.313   3.301  0.1738  0.2586  1.7421
  151OSM   C14S16778   2.548   4.246   3.505 -0.8207  0.0974 -0.0937
  151OSM   H14S16779   2.442   4.251   3.538 -0.0196  0.3754  2.7478
  151OSM   H14T16780   2.584   4.347   3.534  0.1580  0.3094 -1.9091
  151OSM   C15S16781   2.604   4.145   3.598 -1.0351 -0.3353  0.7156
  151OSM   H15S16782   2.707   4.184   3.609 -1.0429 -0.5514  1.6435
  151OSM   H15T16783   2.604   4.049   3.541  1.1953  0.5663 -0.9303
  151OSM   C16S16784   2.543   4.134   3.733 -0.6920  0.0713 -0.0482
  151OSM   H16S16785   2.443   4.085   3.732  0.2664 -2.2088  3.0093
  151OSM   H16T16786   2.535   4.237   3.775  4.0747  0.8087 -0.4676
  151OSM   C17S16787   2.634   4.068   3.837 -0.1995  0.6643 -0.1320
  151OSM   H17S16788   2.729   4.125   3.845  0.7367 -0.6088 -1.6548
  151OSM   H17T16789   2.651   3.972   3.784 -0.9951  1.3203 -1.6380
  151OSM   C18S16790   2.567   4.045   3.981 -0.2339  0.1379  0.4239
  151OSM   H18S16791   2.648   4.017   4.051  0.3149 -0.1564 -0.3145
  151OSM   H18T16792   2.497   3.958   3.975 -0.0476  0.0461 -0.5541
  151OSM   H18U16793   2.509   4.131   4.020 -3.6991 -1.7925 -0.0076
  151OSM    C1F16794   2.481   3.865   2.346  0.0957  0.1954  0.4394
  151OSM     OF16795   2.561   3.796   2.288  0.1459 -0.1344 -0.6773
  151OSM    C2F16796   2.401   3.818   2.463  0.7407 -0.0443  0.1149
  151OSM    H2F16797   2.404   3.707   2.452  0.6980 -0.1563  1.1040
  151OSM    H2G16798   2.293   3.841   2.458  0.7380  0.7360  2.4948
  151OSM    C3F16799   2.459   3.860   2.606  0.3348  0.0293 -0.0564
  151OSM    H3F16800   2.470   3.970   2.621 -0.3401 -0.0458  1.1369
  151OSM    H3G16801   2.567   3.833   2.601  0.9799  2.5250 -0.8603
  151OSM    C4F16802   2.385   3.794   2.728  0.3752  0.2167  0.4122
  151OSM    H4F16803   2.370   3.686   2.708 -4.0023  0.7651 -0.1875
  151OSM    H4G16804   2.279   3.827   2.731  1.1496  2.9272  1.7280
  151OSM    C5F16805   2.458   3.816   2.857  0.1698 -0.5102 -0.6817
  151OSM    H5F16806   2.506   3.915   2.837  1.0053 -1.0807 -1.5555
  151OSM    H5G16807   2.549   3.756   2.872  1.3755  1.1875 -0.8916
  151OSM    C6F16808   2.348   3.816   2.961  1.2454  0.3766  0.4344
  151OSM    H6F16809   2.309   3.712   2.957  1.1450  0.4528 -1.1412
  151OSM    H6G16810   2.260   3.880   2.937 -0.0773 -0.9786  1.4548
  151OSM    C7F16811   2.401   3.848   3.102  0.2553  0.6066  0.5796
  151OSM    H7F16812   2.436   3.953   3.096 -2.2561  1.4871 -0.2705
  151OSM    H7G16813   2.487   3.780   3.115 -0.5206 -0.3551  0.7967
  151OSM    C8F16814   2.289   3.834   3.205 -0.6076  0.3448  0.3043
  151OSM    H8F16815   2.245   3.733   3.190 -0.6304  0.5064 -0.8370
  151OSM    H8G16816   2.204   3.901   3.180  0.1675  1.7495  1.2760
  151OSM    C9F16817   2.347   3.873   3.334 -0.2409  0.3742  0.3929
  151OSM    H9F16818   2.330   3.973   3.375 -1.2094  0.6146 -0.5321
  151OSM   C10F16819   2.429   3.785   3.401  0.3576 -0.2769 -0.0252
  151OSM   H10F16820   2.473   3.821   3.494 -1.2551  2.9585 -0.3540
  151OSM   C11F16821   2.470   3.645   3.370 -0.6460  0.7886 -0.2409
  151OSM   H11F16822   2.428   3.610   3.273  1.4724 -1.6053 -0.4104
  151OSM   H11G16823   2.429   3.571   3.443  1.1387 -0.8856 -0.8493
  151OSM   C12F16824   2.621   3.624   3.358  0.0805 -0.0882 -0.1114
  151OSM   H12F16825   2.666   3.656   3.454  0.1200 -0.1511 -0.1087
  151OSM   H12G16826   2.662   3.684   3.274 -0.8862 -0.3501 -0.7917
  151OSM   C13F16827   2.657   3.474   3.327  0.2907 -0.3406  0.3878
  151OSM   H13F16828   2.593   3.447   3.240 -1.0010  0.5336  1.0417
  151OSM   H13G16829   2.633   3.415   3.418 -0.9731  3.5216  2.8066
  151OSM   C14F16830   2.802   3.448   3.272 -0.3180  0.0520 -0.3082
  151OSM   H14F16831   2.829   3.341   3.260 -0.3279  0.0882 -0.6886
  151OSM   H14G16832   2.877   3.489   3.342 -0.2717 -0.1562 -0.2372
  151OSM   C15F16833   2.814   3.506   3.131 -0.2106  0.1803  0.1506
  151OSM   H15F16834   2.760   3.602   3.119 -1.0100 -0.4399 -1.4678
  151OSM   H15G16835   2.771   3.432   3.061 -2.2359  2.0028 -0.6563
  151OSM   C16F16836   2.964   3.528   3.092 -0.5038  0.1868  0.1541
  151OSM   H16F16837   3.020   3.445   3.140  0.3201 -0.1793 -1.3600
  151OSM   H16G16838   2.995   3.622   3.144 -4.4293  1.8879 -0.2005
  151OSM   C17F16839   3.003   3.543   2.946  0.6358 -0.7290 -0.2144
  151OSM   H17F16840   2.950   3.632   2.906  1.6613  1.0719  2.1714
  151OSM   H17G16841   2.962   3.454   2.896 -0.1872  1.1794 -3.1689
  151OSM   C18F16842   3.153   3.548   2.915 -0.0052 -0.0316 -0.0316
  151OSM   H18F16843   3.159   3.531   2.806  0.9421 -0.3177  0.0636
  151OSM   H18G16844   3.213   3.479   2.977 -0.7512 -1.1259 -0.4956
  151OSM   H18H16845   3.205   3.642   2.942  0.5174 -0.8714  2.0701
  152OSM      N16846   5.837   4.540   1.460 -0.5421 -0.2246  0.0558
  152OSM    C1516847   5.750   4.536   1.343 -0.1851 -0.4557 -0.3348
  152OSM   H15A16848   5.737   4.434   1.310  0.0073 -1.1916  1.7144
  152OSM   H15B16849   5.776   4.599   1.259  0.0308 -1.4716 -1.0468
  152OSM   H15C16850   5.653   4.573   1.373  0.9623  0.9131  2.0210
  152OSM    C1416851   5.778   4.446   1.564 -0.0953  0.2139  0.0805
  152OSM   H14A16852   5.845   4.433   1.649 -0.9585 -0.6004  0.6584
  152OSM   H14B16853   5.747   4.351   1.524 -0.3008  0.7559 -1.0843
  152OSM   H14C16854   5.697   4.496   1.616 -1.3607 -0.4676 -1.1685
  152OSM    C1316855   5.973   4.502   1.416  0.0864  0.2341  0.1456
  152OSM   H13A16856   5.997   4.559   1.327 -0.3735 -1.3052 -1.0192
  152OSM   H13B16857   5.976   4.399   1.382  0.1996 -0.0072  0.8775
  152OSM   H13C16858   6.051   4.499   1.490  0.8608  2.3469 -0.5263
  152OSM    C1216859   5.828   4.678   1.517 -0.1904 -0.5901 -0.4910
  152OSM   H12A16860   5.725   4.692   1.544  0.0627  1.1442 -0.3144
  152OSM   H12B16861   5.859   4.747   1.440 -1.9475 -0.8210 -1.4410
  152OSM    C1116862   5.905   4.705   1.644  0.4324 -0.7756  0.6092
  152OSM   H11A16863   6.013   4.680   1.645  0.2660 -1.5307  0.7605
  152OSM   H11B16864   5.867   4.634   1.721  2.2282 -2.8319 -0.3010
  152OSM      P16865   5.750   4.893   1.736  0.0528 -0.2099 -0.3192
  152OSM    O1316866   5.766   5.041   1.758 -0.7534 -0.2415 -0.0690
  152OSM    O1416867   5.632   4.850   1.656  0.4524  0.2967  0.1064
  152OSM    O1116868   5.743   4.813   1.870 -0.3580 -0.2186 -0.5972
  152OSM    O1216869   5.891   4.842   1.671  0.4142  0.7373  0.6650
  152OSM    C1S16870   5.827   4.857   1.978  0.2620  0.9352 -0.0354
  152OSM    H1S16871   5.807   4.964   2.003  0.5974  1.0055 -0.0659
  152OSM    H1T16872   5.932   4.836   1.951 -0.3629 -2.1723 -0.4692
  152OSM     NF16873   5.893   4.804   2.213 -0.1027 -0.3068 -0.1080
  152OSM    HNF16874   5.962   4.734   2.232 -0.7786 -0.4068  2.4664
  152OSM    C2S16875   5.805   4.771   2.104  0.5747 -0.1241  0.9699
  152OSM    H2S16876   5.701   4.800   2.133  0.2014 -0.4315 -0.0427
  152OSM    C3S16877   5.806   4.614   2.086 -0.0008  0.4102 -0.0219
  152OSM    H3S16878   5.915   4.593   2.090  0.0703  0.7493 -0.1980
  152OSM     O316879   5.758   4.559   1.960 -0.4457  0.0624  0.0024
  152OSM    HO316880   5.743   4.638   1.908 -1.6274 -0.2331 -0.1309
  152OSM    C4S16881   5.762   4.533   2.209  0.4175 -0.5560  0.9660
  152OSM    H4S16882   5.658   4.547   2.243 -1.2205 -1.5634 -2.9946
  152OSM    C5S16883   5.835   4.447   2.273  0.2637  0.2091 -0.6559
  152OSM    H5S16884   5.940   4.431   2.248 -0.0241 -1.2229 -0.9920
  152OSM    C6S16885   5.785   4.374   2.400  0.8211 -0.7443  0.2334
  152OSM    H6S16886   5.789   4.265   2.384  1.8158 -0.3570 -2.7502
  152OSM    H6T16887   5.677   4.392   2.418  0.8115  1.7004 -1.6715
  152OSM    C7S16888   5.846   4.419   2.538 -0.3624 -0.3543  0.0021
  152OSM    H7S16889   5.820   4.524   2.566  1.6429  1.1030 -3.0425
  152OSM    H7T16890   5.957   4.423   2.535 -0.1396 -2.1463  2.6194
  152OSM    C8S16891   5.802   4.334   2.653 -0.3360 -0.0914 -0.7515
  152OSM    H8S16892   5.808   4.223   2.648 -0.9422 -0.2131  0.6025
  152OSM    H8T16893   5.696   4.349   2.683 -0.4848 -1.5784 -0.4300
  152OSM    C9S16894   5.879   4.381   2.780  0.3534 -0.2021  0.0392
  152OSM    H9S16895   5.898   4.489   2.763  0.1684 -0.0917  0.5152
  152OSM    H9T16896   5.979   4.334   2.786  0.8635  0.9764  1.6259
  152OSM   C10S16897   5.798   4.346   2.908 -0.2843 -0.7710 -0.2957
  152OSM   H10S16898   5.790   4.239   2.937 -1.6257  0.0440  2.7723
  152OSM   H10T16899   5.693   4.381   2.895 -0.3215 -0.6937  0.1995
  152OSM   C11S16900   5.857   4.432   3.026 -0.1961  0.1509 -0.0677
  152OSM   H11S16901   5.868   4.539   2.998 -0.0971 -0.1166 -1.1097
  152OSM   H11T16902   5.965   4.405   3.027 -0.2976 -0.2469  0.9674
  152OSM   C12S16903   5.799   4.410   3.164  0.2024 -0.2508  0.0723
  152OSM   H12S16904   5.790   4.301   3.186  0.1560 -0.5648 -1.4024
  152OSM   H12T16905   5.695   4.448   3.155  0.1436 -0.6265 -0.9767
  152OSM   C13S16906   5.859   4.482   3.291 -0.0568 -0.4427 -0.5911
  152OSM   H13S16907   5.854   4.593   3.282  1.6230 -0.3916 -1.0948
  152OSM   H13T16908   5.967   4.460   3.285  0.2431  0.2076  1.4954
  152OSM   C14S16909   5.814   4.430   3.424 -0.0244  0.6124 -0.4652
  152OSM   H14S16910   5.840   4.323   3.436 -3.4607 -0.4373 -1.1695
  152OSM   H14T16911   5.704   4.446   3.410 -0.2824  0.1705  0.9434
  152OSM   C15S16912   5.872   4.526   3.541 -0.3951 -0.9562 -0.4100
  152OSM   H15S16913   5.830   4.627   3.518 -2.4046 -1.3088  1.3301
  152OSM   H15T16914   5.981   4.526   3.520 -0.1092 -2.4800  0.8945
  152OSM   C16S16915   5.844   4.495   3.690 -0.0320 -0.1598  0.5471
  152OSM   H16S16916   5.882   4.391   3.702  0.9905  0.0347 -0.7810
  152OSM   H16T16917   5.736   4.476   3.707 -0.2575  1.1373  0.6600
  152OSM   C17S16918   5.901   4.591   3.791 -0.0617  0.3527  0.8536
  152OSM   H17S16919   5.836   4.675   3.825  2.2265  2.4928  0.2565
  152OSM   H17T16920   5.986   4.642   3.741  0.2965  0.5893  1.6823
  152OSM   C18S16921   5.946   4.523   3.927  0.7242  0.0685  0.1054
  152OSM   H18S16922   6.004   4.590   3.994  0.2883  1.3709 -0.7713
  152OSM   H18T16923   6.005   4.434   3.896 -0.2908 -1.3683  2.0758
  152OSM   H18U16924   5.855   4.492   3.982  0.1672  0.4413 -0.5814
  152OSM    C1F16925   5.882   4.923   2.284  0.2551  0.6023 -0.3829
  152OSM     OF16926   5.787   4.999   2.276  0.0206  0.2643 -0.2481
  152OSM    C2F16927   5.998   4.958   2.376  0.2668  0.0760  0.3388
  152OSM    H2F16928   6.007   5.068   2.377 -0.9366  0.3827 -3.5632
  152OSM    H2G16929   6.093   4.923   2.330  1.3648  1.2964  1.6028
  152OSM    C3F16930   5.986   4.886   2.513  0.8713  1.0165 -0.0335
  152OSM    H3F16931   6.080   4.913   2.565  0.1629 -1.5539  2.8370
  152OSM    H3G16932   5.991   4.777   2.495 -0.3753  1.2791 -2.5420
  152OSM    C4F16933   5.860   4.926   2.599 -0.5558 -0.9760 -0.0315
  152OSM    H4F16934   5.767   4.911   2.540 -0.6773 -1.1883  0.2103
  152OSM    H4G16935   5.868   5.034   2.624  0.2134 -1.2283  0.8665
  152OSM    C5F16936   5.854   4.832   2.721  0.0923 -0.3179  0.1309
  152OSM    H5F16937   5.952   4.829   2.771  1.1566 -2.6209 -1.8873
  152OSM    H5G16938   5.815   4.732   2.690 -1.9390 -0.4609  2.7765
  152OSM    C6F16939   5.749   4.897   2.814  0.0686  0.2371  0.2476
  152OSM    H6F16940   5.652   4.902   2.759 -0.7177  0.2254  1.5797
  152OSM    H6G16941   5.784   4.999   2.841  2.6447 -0.2961 -0.7658
  152OSM    C7F16942   5.724   4.829   2.949 -0.3053 -0.1484 -0.3673
  152OSM    H7F16943   5.702   4.722   2.926 -2.3963  0.1077  0.2061
  152OSM    H7G16944   5.634   4.872   2.999  1.6155  0.3516  2.9262
  152OSM    C8F16945   5.846   4.841   3.046 -0.1106  0.0002  0.1184
  152OSM    H8F16946   5.937   4.811   2.990  0.5583 -0.5857  1.4698
  152OSM    H8G16947   5.819   4.763   3.121  0.8263 -0.7240 -0.2853
  152OSM    C9F16948   5.858   4.980   3.105 -0.1046 -0.3058  0.4170
  152OSM    H9F16949   5.889   5.048   3.024  0.6321 -1.1587 -0.0376
  152OSM   C10F16950   5.844   5.017   3.230  0.1545 -0.5441  0.9041
  152OSM   H10F16951   5.853   5.127   3.235  0.1039 -0.5093  0.3720
  152OSM   C11F16952   5.812   4.950   3.357  0.6667  0.1587  0.2486
  152OSM   H11F16953   5.890   4.956   3.435  1.6930  0.5070 -0.7749
  152OSM   H11G16954   5.808   4.839   3.349  0.0794  0.1979 -0.0651
  152OSM   C12F16955   5.674   4.988   3.415  0.2303  0.4866  0.1061
  152OSM   H12F16956   5.650   4.926   3.505  2.3495  0.6610  0.8386
  152OSM   H12G16957   5.590   4.976   3.343  0.8136 -0.9199 -0.3713
  152OSM   C13F16958   5.676   5.137   3.460 -0.2937 -0.4684 -0.5400
  152OSM   H13F16959   5.724   5.201   3.383 -2.5148  0.0820 -1.5514
  152OSM   H13G16960   5.732   5.139   3.556 -0.9137  0.2349 -0.1735
  152OSM   C14F16961   5.533   5.194   3.477  0.4833  0.6470 -0.3019
  152OSM   H14F16962   5.487   5.139   3.562 -1.4611  2.2502 -0.2463
  152OSM   H14G16963   5.477   5.182   3.382 -1.7052 -1.7045  1.1450
  152OSM   C15F16964   5.525   5.347   3.516 -0.6357 -0.6277  0.2631
  152OSM   H15F16965   5.602   5.398   3.454  1.4248 -2.4967  1.1176
  152OSM   H15G16966   5.557   5.359   3.622  0.2786 -0.3165 -0.0438
  152OSM   C16F16967   5.386   5.404   3.499 -0.1519  0.4579 -0.1878
  152OSM   H16F16968   5.314   5.335   3.548 -0.7192  1.0890 -0.1100
  152OSM   H16G16969   5.364   5.407   3.390 -1.8453  2.5930  0.1357
  152OSM   C17F16970   5.383   5.552   3.551 -0.2057  0.3680 -0.0523
  152OSM   H17F16971   5.437   5.570   3.646  1.8603  0.0158 -1.0890
  152OSM   H17G16972   5.277   5.582   3.564 -0.7236 -1.0668 -0.7856
  152OSM   C18F16973   5.444   5.655   3.454 -0.4341 -0.2136  0.6247
  152OSM   H18F16974   5.408   5.642   3.349 -1.2116 -2.5689  1.1327
  152OSM   H18G16975   5.550   5.634   3.427 -0.0692  2.9491 -0.9363
  152OSM   H18H16976   5.440   5.764   3.477  1.3128 -0.0625  0.2934
  153OSM      N16977   5.064   6.442   1.814 -0.2028 -1.0038 -0.3892
  153OSM    C1516978   5.007   6.331   1.898  1.3033  0.1213 -0.1536
  153OSM   H15A16979   5.028   6.236   1.850 -0.7700 -0.2766 -0.3490
  153OSM   H15B16980   4.901   6.345   1.904  1.2670 -0.6088  1.3607
  153OSM   H15C16981   5.051   6.327   1.996 -2.5574 -0.7787  1.6903
  153OSM    C1416982   5.213   6.440   1.827  0.0420  0.1799  0.8547
  153OSM   H14A16983   5.255   6.345   1.797  1.7114  1.1182  0.0537
  153OSM   H14B16984   5.249   6.464   1.926 -2.1979  2.9791  1.1079
  153OSM   H14C16985   5.256   6.510   1.756 -1.4027 -1.5659 -1.9320
  153OSM    C1316986   5.024   6.424   1.670  0.3885  0.1572  0.4594
  153OSM   H13A16987   5.059   6.502   1.604  0.1981  0.2528  0.4713
  153OSM   H13B16988   4.917   6.419   1.662  0.3652  0.7815  0.3234
  153OSM   H13C16989   5.057   6.329   1.632 -0.3371  0.9757 -2.4152
  153OSM    C1216990   5.005   6.580   1.857  0.2763  0.0055 -0.3875
  153OSM   H12A16991   4.898   6.579   1.840  0.0192 -3.0668  0.7456
  153OSM   H12B16992   5.059   6.651   1.797  0.9458  0.4491  0.7036
  153OSM    C1116993   5.025   6.624   1.998  0.2058 -0.9674 -0.8206
  153OSM   H11A16994   5.133   6.650   2.007  0.2223 -1.4665  0.7350
  153OSM   H11B16995   5.002   6.549   2.077 -1.8924  0.8902  0.4299
  153OSM      P16996   4.789   6.733   2.027 -0.0664 -0.0635 -0.1715
  153OSM    O1316997   4.738   6.871   2.000  0.1748  0.3555  0.0366
  153OSM    O1416998   4.743   6.630   1.933 -0.2538  0.0484  0.1915
  153OSM    O1116999   4.765   6.684   2.176 -0.7161 -0.3396 -0.2144
  153OSM    O1217000   4.947   6.742   2.013 -0.4567 -0.0238 -0.2792
  153OSM    C1S17001   4.647   6.727   2.244  1.0199  0.1135 -0.0637
  153OSM    H1S17002   4.561   6.673   2.198  0.7276  1.0256 -0.6063
  153OSM    H1T17003   4.622   6.835   2.238  0.8966  0.0283 -1.3617
  153OSM     NF17004   4.512   6.724   2.457  0.4117 -0.5307 -0.6323
  153OSM    HNF17005   4.531   6.791   2.528 -1.8538 -0.3864 -0.1017
  153OSM    C2S17006   4.638   6.680   2.393  0.6499  0.2936 -0.1153
  153OSM    H2S17007   4.622   6.570   2.386  0.0743  0.2988  0.8997
  153OSM    C3S17008   4.771   6.708   2.475  0.0412 -0.8859 -0.3247
  153OSM    H3S17009   4.776   6.818   2.492 -5.2782  0.3473 -4.1022
  153OSM     O317010   4.899   6.683   2.415  0.1238  0.6554 -0.6241
  153OSM    HO317011   4.881   6.672   2.322 -1.5554  0.8060 -0.3597
  153OSM    C4S17012   4.765   6.647   2.612  0.0698 -0.1333  0.2997
  153OSM    H4S17013   4.731   6.728   2.678 -0.4062 -0.4807  0.4893
  153OSM    C5S17014   4.800   6.527   2.664  0.0532  0.5495 -0.0954
  153OSM    H5S17015   4.814   6.446   2.590 -2.4125  1.5632 -1.8239
  153OSM    C6S17016   4.793   6.474   2.805  0.1877 -0.0972 -0.4564
  153OSM    H6S17017   4.890   6.420   2.809  1.2914  1.7899 -0.5027
  153OSM    H6T17018   4.717   6.395   2.825  0.0066 -0.2107 -1.5468
  153OSM    C7S17019   4.800   6.578   2.913  0.0318  0.0178 -0.0273
  153OSM    H7S17020   4.712   6.646   2.905 -0.9829 -1.2940 -0.5384
  153OSM    H7T17021   4.900   6.625   2.901  1.4614 -2.8676 -0.1345
  153OSM    C8S17022   4.806   6.524   3.055  0.2353 -0.2727  0.2457
  153OSM    H8S17023   4.900   6.467   3.073  1.1497  1.1999  0.3720
  153OSM    H8T17024   4.732   6.443   3.068  1.0443 -2.2543 -4.9309
  153OSM    C9S17025   4.800   6.630   3.165 -0.4159 -0.1872 -0.5053
  153OSM    H9S17026   4.701   6.679   3.176  0.0129  0.7826 -0.8511
  153OSM    H9T17027   4.871   6.708   3.132 -0.0660 -0.5527 -0.6254
  153OSM   C10S17028   4.834   6.578   3.306  0.5194  0.0714  0.9563
  153OSM   H10S17029   4.852   6.669   3.368  1.1437  0.2556  0.5126
  153OSM   H10T17030   4.931   6.526   3.292  0.4987  0.5880 -1.7508
  153OSM   C11S17031   4.739   6.482   3.381 -0.2917  0.2567  0.2528
  153OSM   H11S17032   4.746   6.382   3.335  2.3402  0.4269  0.1483
  153OSM   H11T17033   4.637   6.524   3.368 -0.6767 -1.1846 -1.7903
  153OSM   C12S17034   4.762   6.459   3.528 -0.4145  0.2042 -0.3316
  153OSM   H12S17035   4.861   6.411   3.545 -0.7825 -0.5806 -0.3526
  153OSM   H12T17036   4.678   6.392   3.556  1.1171 -2.0463 -0.8682
  153OSM   C13S17037   4.760   6.585   3.612  0.3853 -0.0070  0.1715
  153OSM   H13S17038   4.677   6.653   3.584  0.3900 -0.4182 -0.8881
  153OSM   H13T17039   4.856   6.637   3.593  0.3590  0.2055  0.6110
  153OSM   C14S17040   4.723   6.550   3.756  0.9507 -0.0698  0.1866
  153OSM   H14S17041   4.778   6.456   3.779  1.9887  0.5979  0.5184
  153OSM   H14T17042   4.613   6.539   3.755  0.7585  1.7018 -0.1536
  153OSM   C15S17043   4.766   6.658   3.857 -0.7129 -0.5046 -0.1445
  153OSM   H15S17044   4.718   6.751   3.819 -1.8304 -0.9080  0.2435
  153OSM   H15T17045   4.877   6.668   3.861 -0.5949 -0.2976 -2.6584
  153OSM   C16S17046   4.713   6.625   4.002 -0.6045  0.5483  0.6935
  153OSM   H16S17047   4.771   6.545   4.053 -0.3743 -0.0757 -0.5057
  153OSM   H16T17048   4.609   6.587   3.994 -0.2629 -0.4963  0.9416
  153OSM   C17S17049   4.703   6.759   4.074  0.8176 -0.3615 -0.4859
  153OSM   H17S17050   4.680   6.848   4.011  1.1964 -0.2345 -0.4450
  153OSM   H17T17051   4.803   6.780   4.117 -0.2379  0.1204  1.9272
  153OSM   C18S17052   4.608   6.747   4.190  0.1042  0.8041  0.6461
  153OSM   H18S17053   4.507   6.751   4.144  0.1074  2.8501  0.7291
  153OSM   H18T17054   4.618   6.831   4.263  0.4770 -1.4783  3.4261
  153OSM   H18U17055   4.618   6.649   4.241 -0.3546  0.7066  0.5573
  153OSM    C1F17056   4.385   6.696   2.417 -0.9679  0.4816  0.1843
  153OSM     OF17057   4.365   6.635   2.311 -0.1907 -0.2605 -0.1375
  153OSM    C2F17058   4.273   6.748   2.500 -0.3264 -0.0524  0.4153
  153OSM    H2F17059   4.223   6.821   2.434 -0.8309 -0.8383 -0.0925
  153OSM    H2G17060   4.321   6.804   2.582  2.2121 -0.8293 -0.4251
  153OSM    C3F17061   4.164   6.643   2.541 -0.1426  0.8705  0.4018
  153OSM    H3F17062   4.129   6.575   2.461  2.4409  3.6597 -3.4879
  153OSM    H3G17063   4.089   6.711   2.587  0.3518  2.2589 -0.7338
  153OSM    C4F17064   4.219   6.550   2.644 -0.2354 -0.5832 -0.0873
  153OSM    H4F17065   4.307   6.506   2.593  0.2478 -0.1222  0.3259
  153OSM    H4G17066   4.152   6.462   2.655 -1.0080  0.1477  1.3130
  153OSM    C5F17067   4.243   6.606   2.785 -0.3683 -0.1303  0.1328
  153OSM    H5F17068   4.147   6.627   2.837 -0.4388  0.2893 -0.1654
  153OSM    H5G17069   4.297   6.699   2.758  1.3407 -1.9621 -3.3908
  153OSM    C6F17070   4.331   6.500   2.854  0.1911 -0.3979 -0.0910
  153OSM    H6F17071   4.408   6.465   2.782  0.9539  0.6579  0.1781
  153OSM    H6G17072   4.285   6.406   2.890 -0.9712  0.1548 -0.0960
  153OSM    C7F17073   4.414   6.568   2.968  0.0118  0.4391 -0.5257
  153OSM    H7F17074   4.475   6.644   2.914  1.9990  0.4569  1.5545
  153OSM    H7G17075   4.486   6.493   3.008  0.4000  0.7729 -0.5836
  153OSM    C8F17076   4.344   6.643   3.081 -0.1286 -0.2905 -0.5402
  153OSM    H8F17077   4.280   6.725   3.042  0.1178  0.7289  1.0945
  153OSM    H8G17078   4.424   6.687   3.144  1.8366  1.1238 -3.7818
  153OSM    C9F17079   4.252   6.558   3.166  0.0419  0.2363 -0.0230
  153OSM    H9F17080   4.178   6.506   3.103  2.0081 -2.2629 -0.4028
  153OSM   C10F17081   4.259   6.532   3.295 -0.3605  0.0551 -0.5810
  153OSM   H10F17082   4.180   6.473   3.345  0.0589 -2.0318 -2.2569
  153OSM   C11F17083   4.354   6.589   3.399 -0.1645 -0.1716  0.6834
  153OSM   H11F17084   4.426   6.658   3.350 -1.5012  0.0096 -1.1317
  153OSM   H11G17085   4.411   6.500   3.431 -1.2542 -1.5175 -0.9323
  153OSM   C12F17086   4.291   6.665   3.517  0.3424  0.0371  0.2501
  153OSM   H12F17087   4.208   6.732   3.487 -0.3808 -1.4913 -1.3211
  153OSM   H12G17088   4.368   6.726   3.569  0.9507 -1.0936  0.7233
  153OSM   C13F17089   4.234   6.569   3.626 -0.5110 -0.3003 -0.5344
  153OSM   H13F17090   4.170   6.493   3.576 -1.0676 -1.1370  1.3283
  153OSM   H13G17091   4.162   6.624   3.690  0.4462  0.2874  0.0611
  153OSM   C14F17092   4.335   6.507   3.719 -0.3405 -0.3269  0.0769
  153OSM   H14F17093   4.389   6.583   3.779  1.4728 -0.1279 -1.6989
  153OSM   H14G17094   4.412   6.457   3.656 -0.8058 -0.4305 -0.4187
  153OSM   C15F17095   4.276   6.406   3.818 -0.2105  0.1310  0.3804
  153OSM   H15F17096   4.213   6.323   3.779  0.2555 -1.3789  2.6837
  153OSM   H15G17097   4.212   6.468   3.884 -0.5297  0.1245  0.0796
  153OSM   C16F17098   4.374   6.335   3.914 -0.1044  0.0096  0.6221
  153OSM   H16F17099   4.452   6.402   3.956  0.5552  0.8099 -1.7622
  153OSM   H16G17100   4.422   6.258   3.850 -1.9284 -0.7784  0.1239
  153OSM   C17F17101   4.312   6.256   4.032 -0.4708 -0.4567  0.5079
  153OSM   H17F17102   4.390   6.198   4.086  0.3932  0.4277  0.2610
  153OSM   H17G17103   4.236   6.184   3.996  0.7776 -0.6312 -2.0323
  153OSM   C18F17104   4.259   6.354   4.135  0.7284 -0.0278 -0.0311
  153OSM   H18F17105   4.344   6.425   4.140 -0.4016  1.6910 -2.9457
  153OSM   H18G17106   4.230   6.306   4.231  0.3514 -0.2951 -0.2793
  153OSM   H18H17107   4.172   6.410   4.094 -1.3974 -2.8768  0.2618
  154OSM      N17108   3.222   2.455   2.164  0.2649  0.0939 -0.1750
  154OSM    C1517109   3.373   2.460   2.176 -0.0483  0.0745 -0.2292
  154OSM   H15A17110   3.420   2.557   2.164 -0.4681  0.2625 -0.3790
  154OSM   H15B17111   3.411   2.417   2.085  1.5306  0.7670  0.0642
  154OSM   H15C17112   3.417   2.418   2.266  1.0980  0.6423 -0.5029
  154OSM    C1417113   3.189   2.314   2.197  0.7892  0.5048 -0.4752
  154OSM   H14A17114   3.247   2.280   2.282 -0.6081 -0.6275  0.0639
  154OSM   H14B17115   3.211   2.249   2.114 -0.8437 -0.1817 -0.4009
  154OSM   H14C17116   3.088   2.298   2.233  1.0870  1.5496  0.9470
  154OSM    C1317117   3.151   2.546   2.259 -0.0231 -0.1780 -0.0402
  154OSM   H13A17118   3.158   2.511   2.361  0.2418 -1.8439 -0.6030
  154OSM   H13B17119   3.055   2.570   2.217  0.1288  0.4068 -0.0624
  154OSM   H13C17120   3.207   2.638   2.250  2.0146 -1.3424  0.1543
  154OSM    C1217121   3.180   2.490   2.019 -0.3501 -0.5007 -0.2117
  154OSM   H12A17122   3.236   2.433   1.946  0.9390  0.2775  0.1351
  154OSM   H12B17123   3.212   2.592   2.005  1.7893 -0.9645  0.9604
  154OSM    C1117124   3.035   2.465   1.992  0.0897  0.8406 -1.0990
  154OSM   H11A17125   3.002   2.367   2.032  1.9478  0.7638  0.3721
  154OSM   H11B17126   3.029   2.471   1.881  1.9288  0.3547 -1.2516
  154OSM      P17127   2.943   2.713   1.993  0.5165 -0.3101 -0.3424
  154OSM    O1317128   3.086   2.762   1.978  0.0957 -0.7039  0.1469
  154OSM    O1417129   2.845   2.723   1.881 -0.4598 -0.2187  0.0648
  154OSM    O1117130   2.879   2.790   2.119  0.0678  0.0891 -0.2269
  154OSM    O1217131   2.943   2.562   2.045  0.2578  0.8033  0.0259
  154OSM    C1S17132   2.772   2.742   2.197  0.0310  0.5809  0.2628
  154OSM    H1S17133   2.718   2.656   2.151  0.3583  0.8295 -0.6111
  154OSM    H1T17134   2.683   2.807   2.208  0.0970  0.2533  4.2270
  154OSM     NF17135   2.694   2.659   2.409 -0.2334 -0.4069 -0.6559
  154OSM    HNF17136   2.629   2.731   2.432  1.9361  2.2151 -2.1404
  154OSM    C2S17137   2.812   2.716   2.349 -0.3631 -0.0410  0.5653
  154OSM    H2S17138   2.897   2.645   2.361  0.1927  0.8493  2.1879
  154OSM    C3S17139   2.859   2.849   2.408  0.4392 -0.3786 -0.7758
  154OSM    H3S17140   2.769   2.912   2.395 -0.8209 -2.1052 -0.7294
  154OSM     O317141   2.951   2.927   2.336  0.0445  0.1468  0.5261
  154OSM    HO317142   2.946   2.887   2.249 -0.6799  0.2258  0.5268
  154OSM    C4S17143   2.906   2.823   2.550  0.0184  0.4407  0.2903
  154OSM    H4S17144   2.832   2.835   2.630  1.1521  0.7505  1.3140
  154OSM    C5S17145   3.035   2.789   2.582 -0.4417 -0.6911 -1.2484
  154OSM    H5S17146   3.111   2.778   2.503  0.4980  1.9798 -0.8215
  154OSM    C6S17147   3.089   2.764   2.716  0.1443 -0.1578 -0.3376
  154OSM    H6S17148   3.046   2.837   2.787 -1.7607 -1.2009 -0.3358
  154OSM    H6T17149   3.200   2.762   2.709  0.1383 -0.9072 -0.2814
  154OSM    C7S17150   3.047   2.620   2.768  0.7705 -0.2222  0.1320
  154OSM    H7S17151   3.085   2.549   2.692  0.5600  0.2147 -0.3890
  154OSM    H7T17152   2.936   2.613   2.776  0.8516  0.4911  3.0821
  154OSM    C8S17153   3.093   2.591   2.909 -0.5739 -0.3371 -0.0328
  154OSM    H8S17154   3.061   2.679   2.969 -1.2078 -0.4615 -0.1753
  154OSM    H8T17155   3.203   2.587   2.896 -0.2990  2.7462  0.6758
  154OSM    C9S17156   3.029   2.464   2.951 -0.3545  0.2090 -0.6424
  154OSM    H9S17157   3.030   2.402   2.859  1.8793  0.2226 -0.6898
  154OSM    H9T17158   2.923   2.483   2.975 -0.5280 -1.2113 -0.1928
  154OSM   C10S17159   3.093   2.400   3.074 -0.4263  0.3303 -0.3974
  154OSM   H10S17160   3.202   2.387   3.061 -0.6481 -2.9832  0.1339
  154OSM   H10T17161   3.044   2.301   3.087 -0.4252  0.3635 -0.1271
  154OSM   C11S17162   3.082   2.473   3.207 -0.2057  0.0358 -0.1056
  154OSM   H11S17163   2.976   2.506   3.213  0.2110  1.1398  2.0532
  154OSM   H11T17164   3.146   2.563   3.212  0.7611 -0.5733 -1.0585
  154OSM   C12S17165   3.117   2.374   3.324  0.0507  0.8874  0.5302
  154OSM   H12S17166   3.226   2.356   3.335  0.1818  0.0367 -1.7533
  154OSM   H12T17167   3.061   2.282   3.297  1.3802  0.2895 -0.3027
  154OSM   C13S17168   3.070   2.424   3.457  0.0540  0.7655  0.1069
  154OSM   H13S17169   3.115   2.524   3.474  1.2479  0.7873 -2.6259
  154OSM   H13T17170   3.103   2.345   3.526 -0.1379 -1.2799 -2.0108
  154OSM   C14S17171   2.919   2.445   3.477 -0.0860 -0.5362  0.3029
  154OSM   H14S17172   2.856   2.366   3.432 -0.9584  0.6237 -0.6088
  154OSM   H14T17173   2.899   2.542   3.426  2.7131  1.0638  1.9560
  154OSM   C15S17174   2.880   2.454   3.623 -0.0833 -0.4844 -0.8036
  154OSM   H15S17175   2.937   2.531   3.679  0.3834 -1.4212  0.0596
  154OSM   H15T17176   2.890   2.361   3.683 -2.5695  0.1803  0.8070
  154OSM   C16S17177   2.733   2.488   3.650 -0.5482 -0.1612  0.7800
  154OSM   H16S17178   2.716   2.476   3.759 -0.6685 -0.3392  0.7424
  154OSM   H16T17179   2.670   2.410   3.603 -1.9963  0.3680  1.7877
  154OSM   C17S17180   2.671   2.620   3.594 -0.1033 -0.0205 -0.3510
  154OSM   H17S17181   2.702   2.624   3.487 -1.6816  1.3961 -0.7854
  154OSM   H17T17182   2.718   2.711   3.636 -0.1194 -1.2131  2.5395
  154OSM   C18S17183   2.520   2.620   3.607  0.6899  0.2355  0.0647
  154OSM   H18S17184   2.497   2.534   3.541  1.7258  0.6439 -0.8617
  154OSM   H18T17185   2.475   2.711   3.564 -0.9140  0.2299  1.6208
  154OSM   H18U17186   2.479   2.616   3.711  1.8602  1.7513  0.6262
  154OSM    C1F17187   2.659   2.534   2.387 -0.7833  0.3335 -0.3995
  154OSM     OF17188   2.728   2.458   2.325  1.0055 -0.2902 -0.1809
  154OSM    C2F17189   2.516   2.501   2.437 -0.2188  0.5577 -0.0405
  154OSM    H2F17190   2.468   2.423   2.374  1.7568 -0.6094 -0.1932
  154OSM    H2G17191   2.447   2.588   2.444  0.9184  1.3657  1.8848
  154OSM    C3F17192   2.522   2.434   2.580  0.1158  0.0166  0.6376
  154OSM    H3F17193   2.565   2.331   2.580 -0.9891 -0.4645 -0.1001
  154OSM    H3G17194   2.415   2.419   2.609  0.4838 -0.3809  1.8874
  154OSM    C4F17195   2.578   2.524   2.690  0.2746  0.3681 -0.3958
  154OSM    H4F17196   2.561   2.633   2.686 -1.2790  0.1850  0.3511
  154OSM    H4G17197   2.689   2.518   2.681  0.3839 -1.5313  1.4330
  154OSM    C5F17198   2.533   2.472   2.828 -0.5282  0.4217 -0.3495
  154OSM    H5F17199   2.564   2.365   2.838 -1.1171  0.3140  0.4583
  154OSM    H5G17200   2.422   2.467   2.822 -0.3896 -1.9442 -3.7332
  154OSM    C6F17201   2.588   2.562   2.943 -0.0107 -0.2176 -0.0769
  154OSM    H6F17202   2.553   2.666   2.922  0.3301  0.1889  1.2752
  154OSM    H6G17203   2.698   2.556   2.935 -0.1857 -4.2255 -1.9059
  154OSM    C7F17204   2.551   2.526   3.085  0.4821 -0.0681 -0.7321
  154OSM    H7F17205   2.604   2.434   3.115  1.8938  1.3411  1.4091
  154OSM    H7G17206   2.445   2.497   3.072  0.3903  1.3056 -3.8348
  154OSM    C8F17207   2.569   2.630   3.197  0.6080 -0.0836 -0.9104
  154OSM    H8F17208   2.530   2.588   3.293  3.0442  0.5954  0.4739
  154OSM    H8G17209   2.495   2.710   3.176  0.3107 -0.3527 -0.9035
  154OSM    C9F17210   2.710   2.677   3.202 -0.0549 -0.1806  0.0310
  154OSM    H9F17211   2.780   2.597   3.173  1.1179  0.2387  1.5529
  154OSM   C10F17212   2.761   2.805   3.230 -0.0309  0.4553 -0.8030
  154OSM   H10F17213   2.869   2.826   3.236 -0.1673  1.0554 -0.3951
  154OSM   C11F17214   2.666   2.919   3.258 -1.1592 -0.0303  0.3354
  154OSM   H11F17215   2.676   2.955   3.363 -0.3974 -0.9896  0.5989
  154OSM   H11G17216   2.559   2.894   3.242 -0.6037 -1.4241 -1.4888
  154OSM   C12F17217   2.694   3.032   3.155 -0.3038  0.0332 -0.2005
  154OSM   H12F17218   2.798   3.070   3.157 -0.3797  0.2092  0.5395
  154OSM   H12G17219   2.622   3.112   3.181  1.7047  1.4174  1.4650
  154OSM   C13F17220   2.661   2.985   3.008 -0.3581 -0.5557 -0.3818
  154OSM   H13F17221   2.717   2.899   2.966  2.0604  2.0979 -3.1544
  154OSM   H13G17222   2.689   3.084   2.966 -0.0895 -0.5872 -0.2802
  154OSM   C14F17223   2.509   2.974   2.976 -0.5367  0.0865  1.1543
  154OSM   H14F17224   2.446   3.055   3.018 -2.4815 -1.6138  1.7104
  154OSM   H14G17225   2.479   2.874   3.016  1.1627 -1.0645 -0.2676
  154OSM   C15F17226   2.495   2.969   2.825  0.0687  0.1458 -0.4236
  154OSM   H15F17227   2.562   2.891   2.782 -1.6952 -1.7010  0.0425
  154OSM   H15G17228   2.525   3.068   2.784 -0.7092  0.1893 -0.9029
  154OSM   C16F17229   2.353   2.939   2.782 -0.0656  0.1381  0.3181
  154OSM   H16F17230   2.315   2.874   2.863 -1.6379  3.2111  2.2026
  154OSM   H16G17231   2.362   2.893   2.681  0.7797  1.3206 -0.1635
  154OSM   C17F17232   2.265   3.065   2.771  0.0009  0.7922  0.1023
  154OSM   H17F17233   2.327   3.156   2.764 -1.5915  2.0159  1.2254
  154OSM   H17G17234   2.217   3.077   2.870 -2.0989 -0.6999 -0.6435
  154OSM   C18F17235   2.162   3.071   2.663  0.2097 -0.3935 -0.3646
  154OSM   H18F17236   2.207   3.072   2.562 -1.7774  0.1685 -1.2808
  154OSM   H18G17237   2.105   3.166   2.659  1.0707  0.1169 -0.8361
  154OSM   H18H17238   2.099   2.980   2.652  1.3026 -0.8881 -3.5816
  155OSM      N17239   5.037   1.820   2.040  0.5854  0.0740 -0.1766
  155OSM    C1517240   5.036   1.684   1.979 -0.3149  0.5220  0.1478
  155OSM   H15A17241   5.126   1.676   1.920 -1.3425  0.5641 -1.4924
  155OSM   H15B17242   4.951   1.668   1.914  0.0486 -0.1064 -0.1742
  155OSM   H15C17243   5.041   1.603   2.051 -1.3351  1.2474  1.0847
  155OSM    C1417244   4.896   1.847   2.096 -0.4129  0.3681  0.0943
  155OSM   H14A17245   4.815   1.853   2.026 -1.3479  0.3895  1.1579
  155OSM   H14B17246   4.901   1.943   2.146  0.1132 -0.0514  0.8614
  155OSM   H14C17247   4.861   1.776   2.168 -1.4293 -0.5457 -1.2543
  155OSM    C1317248   5.138   1.805   2.154  0.3560  0.1448  0.1260
  155OSM   H13A17249   5.118   1.719   2.216  1.1014  1.9405  3.0245
  155OSM   H13B17250   5.145   1.891   2.219  4.4138 -0.3802  0.6166
  155OSM   H13C17251   5.237   1.796   2.112 -0.1057 -1.8047 -0.6412
  155OSM    C1217252   5.081   1.924   1.939  0.4713 -0.1372  0.2033
  155OSM   H12A17253   4.995   1.942   1.875 -1.8555  1.8780  3.5135
  155OSM   H12B17254   5.154   1.894   1.866 -0.0158  0.1412 -0.4086
  155OSM    C1117255   5.118   2.065   1.992 -0.2619 -0.2878 -0.0507
  155OSM   H11A17256   5.137   2.141   1.913 -1.2565 -0.2780 -0.2823
  155OSM   H11B17257   5.210   2.047   2.052 -1.2794 -0.8137  1.4173
  155OSM      P17258   5.028   2.169   2.218  0.0307  0.2438 -0.1162
  155OSM    O1317259   4.906   2.239   2.259 -0.6849  0.0383 -0.1780
  155OSM    O1417260   5.076   2.054   2.300  0.0299  0.1318 -0.1236
  155OSM    O1117261   5.140   2.280   2.214  0.4680 -0.0494 -0.1344
  155OSM    O1217262   5.011   2.126   2.071  0.4814  0.2403  0.1736
  155OSM    C1S17263   5.202   2.334   2.334 -0.1153 -0.1189  0.3318
  155OSM    H1S17264   5.133   2.344   2.420  1.3237  0.8539  1.4217
  155OSM    H1T17265   5.227   2.439   2.309 -1.2977 -0.3082 -1.9470
  155OSM     NF17266   5.407   2.305   2.494  0.1809  0.3383 -0.6805
  155OSM    HNF17267   5.488   2.362   2.490  0.3070  0.6028  2.8759
  155OSM    C2S17268   5.339   2.256   2.364 -0.5940  0.1513  0.3162
  155OSM    H2S17269   5.323   2.147   2.376  1.5643 -0.5797 -2.3811
  155OSM    C3S17270   5.438   2.269   2.239 -0.1941  0.3696 -0.8890
  155OSM    H3S17271   5.466   2.377   2.237 -1.8969  0.9248  1.2270
  155OSM     O317272   5.378   2.241   2.116 -0.5655 -0.0544  0.4295
  155OSM    HO317273   5.283   2.243   2.132 -0.5806 -2.1763  0.8604
  155OSM    C4S17274   5.562   2.189   2.264 -0.2964  0.2389 -0.6092
  155OSM    H4S17275   5.649   2.249   2.295  0.8404  0.8456 -4.4031
  155OSM    C5S17276   5.580   2.058   2.235 -0.0512  0.7664 -0.6991
  155OSM    H5S17277   5.507   1.996   2.181  0.9554 -1.4524  0.3357
  155OSM    C6S17278   5.710   1.982   2.254  0.0204 -0.4551  0.0104
  155OSM    H6S17279   5.754   1.964   2.153 -0.2714 -1.5708  0.0735
  155OSM    H6T17280   5.688   1.881   2.293  0.1628 -0.4776  0.0348
  155OSM    C7S17281   5.814   2.047   2.355 -0.2219 -0.0765 -0.9688
  155OSM    H7S17282   5.752   2.084   2.439  0.9663  0.0471 -0.1249
  155OSM    H7T17283   5.858   2.136   2.304 -0.9666 -0.5972 -2.6201
  155OSM    C8S17284   5.909   1.942   2.407 -0.5680 -0.5760  0.7432
  155OSM    H8S17285   5.971   1.898   2.326  0.5096  0.0243  1.2151
  155OSM    H8T17286   5.845   1.859   2.444  0.7260 -1.5650  0.8631
  155OSM    C9S17287   6.006   1.982   2.525  0.0878 -0.0530 -0.0407
  155OSM    H9S17288   5.945   2.032   2.603 -0.1647 -0.9475  0.3404
  155OSM    H9T17289   6.092   2.039   2.483  0.1568 -0.4134 -0.3986
  155OSM   C10S17290   6.084   1.868   2.592  0.0569  0.0534  0.0948
  155OSM   H10S17291   6.147   1.825   2.511 -1.0592 -1.2622 -0.1247
  155OSM   H10T17292   6.014   1.786   2.621  0.1066 -0.3515 -0.8885
  155OSM   C11S17293   6.162   1.912   2.713  0.5902  0.3569 -0.2646
  155OSM   H11S17294   6.098   1.956   2.792  2.1712  0.1899  1.1872
  155OSM   H11T17295   6.230   1.991   2.674 -1.0091  1.8728 -0.1053
  155OSM   C12S17296   6.254   1.802   2.770  0.5103 -0.3818  0.0183
  155OSM   H12S17297   6.324   1.835   2.849  0.2676 -0.7703  0.4004
  155OSM   H12T17298   6.312   1.766   2.682  0.6879  1.0338 -0.4729
  155OSM   C13S17299   6.184   1.686   2.830  0.3762  0.7071  0.6763
  155OSM   H13S17300   6.243   1.598   2.864 -1.2354 -1.4325 -1.6697
  155OSM   H13T17301   6.138   1.643   2.738  0.7318  0.2953  0.6873
  155OSM   C14S17302   6.082   1.728   2.943  0.9456  0.1219  0.2599
  155OSM   H14S17303   6.043   1.632   2.984 -1.1341 -0.4790 -2.8296
  155OSM   H14T17304   5.994   1.775   2.896 -1.0061 -1.7326  1.8543
  155OSM   C15S17305   6.149   1.822   3.046 -0.5246 -0.2897  0.6910
  155OSM   H15S17306   6.167   1.922   3.001 -0.5172 -0.4015  0.4397
  155OSM   H15T17307   6.251   1.786   3.072  0.6420  2.3170  0.0622
  155OSM   C16S17308   6.055   1.843   3.163  0.2748  0.0446 -0.2929
  155OSM   H16S17309   6.033   1.747   3.214  0.3485  0.4289  0.4731
  155OSM   H16T17310   5.960   1.885   3.124  0.6703  0.3827 -0.9116
  155OSM   C17S17311   6.111   1.944   3.274  0.3453  0.6740  1.0142
  155OSM   H17S17312   6.035   1.990   3.341 -0.1079  1.3766  0.0293
  155OSM   H17T17313   6.163   2.029   3.225  1.1937 -0.3204  0.1352
  155OSM   C18S17314   6.214   1.881   3.370 -0.4713  0.0032 -1.0253
  155OSM   H18S17315   6.159   1.817   3.441  0.8360 -0.2917 -0.2459
  155OSM   H18T17316   6.267   1.965   3.421  0.3274  0.0799 -1.9532
  155OSM   H18U17317   6.291   1.826   3.312  1.8613  1.5523  0.4160
  155OSM    C1F17318   5.351   2.296   2.614 -0.1060 -0.2302  0.7266
  155OSM     OF17319   5.242   2.246   2.622  0.1883 -0.0353 -0.3692
  155OSM    C2F17320   5.430   2.348   2.734  1.0286 -0.3125  0.2300
  155OSM    H2F17321   5.414   2.458   2.729 -0.5326 -0.5688 -2.7240
  155OSM    H2G17322   5.538   2.324   2.723  0.3626 -2.6405 -2.4467
  155OSM    C3F17323   5.372   2.298   2.872 -0.2156  0.5578  0.2285
  155OSM    H3F17324   5.411   2.196   2.894 -1.3622  0.1574  0.4506
  155OSM    H3G17325   5.261   2.290   2.871 -0.1268 -1.8502  1.4886
  155OSM    C4F17326   5.427   2.380   2.987  0.2043 -0.5650  0.4110
  155OSM    H4F17327   5.391   2.484   2.972 -0.1839 -0.7398  0.1293
  155OSM    H4G17328   5.537   2.382   2.971  0.1954  0.2142  0.3900
  155OSM    C5F17329   5.382   2.321   3.124 -0.4987  0.6244  0.0414
  155OSM    H5F17330   5.374   2.211   3.106 -0.1045  0.7820 -1.2602
  155OSM    H5G17331   5.283   2.366   3.146  0.3658  2.4416  0.3130
  155OSM    C6F17332   5.485   2.334   3.238  0.0345  0.3970 -0.5329
  155OSM    H6F17333   5.497   2.439   3.272  0.7167  0.2874 -0.4091
  155OSM    H6G17334   5.589   2.317   3.203  1.2209  0.9376  2.3976
  155OSM    C7F17335   5.439   2.246   3.355 -0.2874  0.1979  0.6869
  155OSM    H7F17336   5.452   2.140   3.326  1.4964  0.2450  1.2207
  155OSM    H7G17337   5.336   2.276   3.383 -0.6672 -1.9232  1.7207
  155OSM    C8F17338   5.510   2.265   3.490 -0.2187  0.0159  0.5008
  155OSM    H8F17339   5.456   2.192   3.554 -0.1951  0.8416  1.4916
  155OSM    H8G17340   5.486   2.370   3.518 -1.5621 -0.0101 -0.4404
  155OSM    C9F17341   5.655   2.239   3.503  0.1960 -0.5592 -0.9046
  155OSM    H9F17342   5.700   2.169   3.431  0.0883 -2.1693  0.5294
  155OSM   C10F17343   5.744   2.291   3.593 -0.2163 -0.7456 -0.4179
  155OSM   H10F17344   5.848   2.260   3.580 -0.8463 -2.6266 -1.3813
  155OSM   C11F17345   5.724   2.404   3.695  0.2885  0.0790  0.9469
  155OSM   H11F17346   5.622   2.448   3.696 -0.3598 -1.1951 -1.2454
  155OSM   H11G17347   5.798   2.486   3.704  0.1352  0.0781  2.5938
  155OSM   C12F17348   5.719   2.333   3.836  0.1037 -0.2758 -0.4164
  155OSM   H12F17349   5.819   2.309   3.878 -0.0802  1.3721  1.0886
  155OSM   H12G17350   5.657   2.242   3.850  2.3679 -1.8415 -0.0109
  155OSM   C13F17351   5.657   2.431   3.938 -0.3280 -0.4147 -0.2504
  155OSM   H13F17352   5.560   2.467   3.898  0.3330  3.3523  1.0954
  155OSM   H13G17353   5.740   2.505   3.942  0.7592 -1.4370 -2.3566
  155OSM   C14F17354   5.648   2.367   4.078  0.0479  0.5773  0.0173
  155OSM   H14F17355   5.739   2.306   4.098 -1.4070 -1.9424 -0.5542
  155OSM   H14G17356   5.564   2.295   4.086 -0.2339  0.7540 -1.0851
  155OSM   C15F17357   5.638   2.480   4.181 -0.2586  0.6062 -0.2657
  155OSM   H15F17358   5.547   2.544   4.169 -0.8044 -0.2327 -0.6970
  155OSM   H15G17359   5.724   2.547   4.163  1.0554 -1.2685 -1.2724
  155OSM   C16F17360   5.643   2.422   4.324  0.3851 -0.2303 -0.1859
  155OSM   H16F17361   5.746   2.390   4.350  0.8243  0.2788 -1.2368
  155OSM   H16G17362   5.570   2.337   4.327 -0.2115  0.2957  1.2618
  155OSM   C17F17363   5.603   2.516   4.438 -0.3652  0.0932 -0.0858
  155OSM   H17F17364   5.666   2.608   4.442 -0.0215 -0.0758 -1.2096
  155OSM   H17G17365   5.613   2.445   4.523  2.4447  0.9432  0.4004
  155OSM   C18F17366   5.462   2.570   4.428  0.6160 -1.0532  0.5825
  155OSM   H18F17367   5.389   2.488   4.414  0.0559 -0.5177  0.3125
  155OSM   H18G17368   5.456   2.646   4.348  2.4070 -1.2126  0.2630
  155OSM   H18H17369   5.433   2.623   4.522  2.2427  0.2640  0.3883
  156OSM      N17370   6.574   1.336   1.586 -0.1320 -0.7598 -0.5981
  156OSM    C1517371   6.593   1.209   1.507  0.6570 -0.3782 -0.4918
  156OSM   H15A17372   6.606   1.123   1.572 -0.7416 -0.5650 -0.4241
  156OSM   H15B17373   6.687   1.206   1.453  0.7920  0.8103 -0.3404
  156OSM   H15C17374   6.509   1.204   1.439 -3.1098  1.5572  3.5573
  156OSM    C1417375   6.546   1.451   1.492 -0.7075  0.3389 -0.1832
  156OSM   H14A17376   6.522   1.542   1.545 -2.3901  0.8043 -1.6300
  156OSM   H14B17377   6.460   1.444   1.427  0.3709  0.2583 -1.6686
  156OSM   H14C17378   6.625   1.466   1.419 -0.4798 -1.0548 -0.2356
  156OSM    C1317379   6.461   1.321   1.680 -0.0791 -0.0048  0.0386
  156OSM   H13A17380   6.388   1.280   1.613  1.4435  1.2880 -2.5745
  156OSM   H13B17381   6.424   1.418   1.711 -0.4107 -0.0426 -0.2367
  156OSM   H13C17382   6.480   1.254   1.763  1.5163  0.7978  0.3684
  156OSM    C1217383   6.696   1.366   1.674 -0.1950  0.3103  0.5688
  156OSM   H12A17384   6.686   1.464   1.719 -1.8224  0.3697  0.1629
  156OSM   H12B17385   6.780   1.377   1.607  0.7378  0.1847  1.6992
  156OSM    C1117386   6.732   1.278   1.786  1.0660 -0.2167 -0.4061
  156OSM   H11A17387   6.652   1.279   1.863  1.7278 -2.1242  0.3550
  156OSM   H11B17388   6.805   1.327   1.853 -0.0844  0.5928  0.3067
  156OSM      P17389   6.753   1.020   1.843  0.6157 -0.1952 -0.6854
  156OSM    O1317390   6.686   1.070   1.964 -0.7023  0.1268  0.0047
  156OSM    O1417391   6.690   0.920   1.758  0.2890 -0.4929  0.3366
  156OSM    O1117392   6.897   0.981   1.883 -0.2837  0.6032  0.2226
  156OSM    O1217393   6.772   1.150   1.747 -0.0400 -0.4411  0.2482
  156OSM    C1S17394   7.010   1.069   1.895 -0.9806 -0.8751 -0.6638
  156OSM    H1S17395   7.010   1.154   1.823 -2.2560 -0.1431  0.1529
  156OSM    H1T17396   7.107   1.018   1.878  0.8878  1.5361  1.8126
  156OSM     NF17397   7.156   1.209   2.038 -1.0367 -0.0510 -0.3344
  156OSM    HNF17398   7.239   1.176   2.081 -2.0846 -0.8912  1.0997
  156OSM    C2S17399   7.038   1.120   2.039 -0.4310 -0.7422  0.5897
  156OSM    H2S17400   6.958   1.191   2.069  0.3297  0.3598  0.0957
  156OSM    C3S17401   7.048   1.012   2.145 -0.2236 -0.6899  0.5809
  156OSM    H3S17402   7.134   0.950   2.110  0.9288  2.1306 -1.9825
  156OSM     O317403   6.936   0.928   2.140 -0.1694  0.3240  0.1498
  156OSM    HO317404   6.899   0.955   2.056  0.1543 -1.2388 -0.5453
  156OSM    C4S17405   7.068   1.066   2.279 -0.4588 -1.0630 -0.0211
  156OSM    H4S17406   6.979   1.110   2.326 -1.3762 -1.7670 -1.0599
  156OSM    C5S17407   7.181   1.052   2.350  0.3420 -0.9755  0.0122
  156OSM    H5S17408   7.268   0.987   2.331  1.6412  0.2251  1.6646
  156OSM    C6S17409   7.201   1.116   2.485  0.4996 -0.2165  1.0707
  156OSM    H6S17410   7.112   1.178   2.509  0.6762  0.1971  0.6884
  156OSM    H6T17411   7.290   1.179   2.466 -0.8043  0.8972 -2.0547
  156OSM    C7S17412   7.244   1.019   2.596 -0.1820 -0.2872 -0.0175
  156OSM    H7S17413   7.305   0.931   2.566  1.6838  1.0427 -0.3120
  156OSM    H7T17414   7.151   0.969   2.630 -0.4986  1.7392  2.3450
  156OSM    C8S17415   7.314   1.086   2.713 -0.1539 -0.5008  0.0971
  156OSM    H8S17416   7.258   1.178   2.742  0.8917  0.7713 -1.7172
  156OSM    H8T17417   7.415   1.117   2.679 -1.2268  1.8974 -1.1570
  156OSM    C9S17418   7.312   1.000   2.843 -0.3335 -0.1379  0.3573
  156OSM    H9S17419   7.352   0.899   2.818  1.1433  0.4246  0.3984
  156OSM    H9T17420   7.205   0.981   2.867 -0.1865 -0.1329  1.0130
  156OSM   C10S17421   7.386   1.077   2.954  0.9413 -0.6416  0.3661
  156OSM   H10S17422   7.347   1.180   2.961 -0.4770 -1.0604 -0.7120
  156OSM   H10T17423   7.493   1.091   2.930  1.2398 -1.2439  1.2876
  156OSM   C11S17424   7.376   0.996   3.084  0.0631 -0.1878  0.5698
  156OSM   H11S17425   7.434   0.903   3.064  0.2100 -0.0006  0.1067
  156OSM   H11T17426   7.275   0.966   3.119 -0.7412  3.2166  1.6278
  156OSM   C12S17427   7.451   1.072   3.196  0.2778 -0.3195  0.1758
  156OSM   H12S17428   7.408   1.174   3.209 -0.7585 -0.8021  0.6436
  156OSM   H12T17429   7.552   1.088   3.152 -0.4017  2.1927 -0.6190
  156OSM   C13S17430   7.464   0.982   3.321  0.5682  0.1153  0.0721
  156OSM   H13S17431   7.555   1.003   3.381 -0.7333  1.4300  1.6340
  156OSM   H13T17432   7.491   0.885   3.272  2.2111  0.7504 -0.3710
  156OSM   C14S17433   7.349   0.987   3.417  0.4647 -0.6940 -0.7072
  156OSM   H14S17434   7.385   0.926   3.503 -0.3897 -0.9871 -0.5403
  156OSM   H14T17435   7.266   0.932   3.368  1.8709 -0.7271 -3.1807
  156OSM   C15S17436   7.327   1.124   3.476  0.5448  0.7459 -0.2958
  156OSM   H15S17437   7.249   1.128   3.555 -2.9166  1.0087 -3.4150
  156OSM   H15T17438   7.288   1.176   3.385 -1.5720 -0.3540 -0.0820
  156OSM   C16S17439   7.458   1.189   3.540  0.1511 -0.1347  0.3344
  156OSM   H16S17440   7.531   1.210   3.459 -0.9587  1.5583 -0.2897
  156OSM   H16T17441   7.492   1.114   3.614  1.5669  0.4452  0.2970
  156OSM   C17S17442   7.416   1.331   3.599 -0.3473 -0.2480  0.0266
  156OSM   H17S17443   7.322   1.321   3.657 -0.6888  0.2316 -0.4308
  156OSM   H17T17444   7.381   1.385   3.508 -2.0857 -1.6279 -0.1599
  156OSM   C18S17445   7.516   1.414   3.680 -0.9996  0.0846  0.1708
  156OSM   H18S17446   7.594   1.456   3.613 -0.2830 -0.1529  0.8436
  156OSM   H18T17447   7.563   1.346   3.754  0.4201  2.6307  1.7667
  156OSM   H18U17448   7.469   1.504   3.724  0.5794  1.4906 -0.8962
  156OSM    C1F17449   7.166   1.338   1.989  0.0603  0.8821  0.1671
  156OSM     OF17450   7.077   1.388   1.919 -0.1396 -0.0095  0.5090
  156OSM    C2F17451   7.292   1.407   2.027 -0.0299  0.3884  0.3237
  156OSM    H2F17452   7.311   1.470   1.938  1.6603 -1.2168 -0.5234
  156OSM    H2G17453   7.384   1.345   2.038  0.0801  0.6865  1.1361
  156OSM    C3F17454   7.276   1.503   2.148 -0.0586  0.4392  0.2526
  156OSM    H3F17455   7.189   1.571   2.143  1.4748  2.4024 -2.3636
  156OSM    H3G17456   7.355   1.581   2.147 -0.4968  0.8807 -0.2501
  156OSM    C4F17457   7.273   1.434   2.286  0.4747 -0.1555  0.0999
  156OSM    H4F17458   7.370   1.380   2.293 -0.1071 -1.1594  0.6362
  156OSM    H4G17459   7.182   1.371   2.298  0.1982 -0.3601 -2.4453
  156OSM    C5F17460   7.250   1.546   2.396 -0.1619  0.2955 -0.2230
  156OSM    H5F17461   7.175   1.618   2.360  0.0522  1.0025  0.7208
  156OSM    H5G17462   7.351   1.586   2.419 -0.4346  0.9558 -0.1575
  156OSM    C6F17463   7.199   1.479   2.524  0.2808 -0.3409 -0.6543
  156OSM    H6F17464   7.276   1.408   2.562 -0.1180 -0.7769 -0.6492
  156OSM    H6G17465   7.116   1.406   2.511  0.3331 -0.6107  0.3909
  156OSM    C7F17466   7.147   1.584   2.624 -0.1977  0.0297 -0.1904
  156OSM    H7F17467   7.061   1.645   2.589  0.1772 -0.1309 -1.4172
  156OSM    H7G17468   7.234   1.652   2.637  0.4848 -0.6168 -1.2704
  156OSM    C8F17469   7.128   1.513   2.762 -0.3636 -0.0433 -0.0897
  156OSM    H8F17470   7.230   1.482   2.791 -0.3866 -1.3063 -1.2547
  156OSM    H8G17471   7.073   1.421   2.734 -1.5794 -0.2566  2.6971
  156OSM    C9F17472   7.032   1.592   2.853  0.1145 -0.1241  0.4449
  156OSM    H9F17473   6.973   1.672   2.807  2.4039  2.9169  2.4092
  156OSM   C10F17474   7.040   1.584   2.985 -0.5223 -0.2680 -0.6457
  156OSM   H10F17475   6.975   1.642   3.052 -1.8430 -1.2294 -1.0529
  156OSM   C11F17476   7.135   1.494   3.064 -0.6224  0.9182 -0.0527
  156OSM   H11F17477   7.232   1.544   3.087  2.0683 -3.9339  0.4081
  156OSM   H11G17478   7.179   1.408   3.010  0.1687  1.2095  0.1122
  156OSM   C12F17479   7.089   1.421   3.195 -0.4243 -0.8912 -0.6399
  156OSM   H12F17480   7.142   1.327   3.221 -0.5595 -0.7204  0.2694
  156OSM   H12G17481   6.979   1.404   3.198 -0.8786  1.4011 -1.8409
  156OSM   C13F17482   7.129   1.517   3.310 -0.1012  0.4932  0.1845
  156OSM   H13F17483   7.093   1.619   3.285 -1.2667  0.1665  0.4898
  156OSM   H13G17484   7.240   1.515   3.318 -0.1135  0.0889  0.2855
  156OSM   C14F17485   7.067   1.472   3.439 -0.6723 -0.0799  0.6886
  156OSM   H14F17486   7.077   1.365   3.469 -0.5908 -0.0656  0.7119
  156OSM   H14G17487   6.958   1.469   3.419 -0.5481 -0.0859  0.0087
  156OSM   C15F17488   7.103   1.580   3.538  0.0837  0.1215  0.3163
  156OSM   H15F17489   7.051   1.673   3.507  0.7219 -0.2868 -2.1423
  156OSM   H15G17490   7.213   1.597   3.544  0.0189  0.4116  0.7519
  156OSM   C16F17491   7.048   1.542   3.678  0.7990  0.4095 -0.3947
  156OSM   H16F17492   7.108   1.467   3.734 -1.7449 -0.1845  1.7916
  156OSM   H16G17493   6.947   1.495   3.668  0.9603  0.2830 -1.5537
  156OSM   C17F17494   7.035   1.672   3.763 -0.6609 -0.2208 -0.0292
  156OSM   H17F17495   6.983   1.652   3.859 -0.0043 -0.3844  0.2964
  156OSM   H17G17496   6.979   1.753   3.711 -1.2653 -0.1129  0.7731
  156OSM   C18F17497   7.172   1.741   3.799 -0.3947 -0.2591  0.0796
  156OSM   H18F17498   7.228   1.666   3.859 -1.2218  1.6638  3.5132
  156OSM   H18G17499   7.166   1.829   3.867  2.5586 -0.5110  0.8422
  156OSM   H18H17500   7.219   1.770   3.703 -0.2681 -0.9890 -0.0851
  157OSM      N17501   1.403   1.995   1.954  0.3914 -0.1536 -0.1102
  157OSM    C1517502   1.486   2.055   1.846 -0.1584  0.1012  0.4180
  157OSM   H15A17503   1.591   2.033   1.860  0.3463  1.7988 -0.3749
  157OSM   H15B17504   1.479   2.163   1.836 -0.0601 -0.0948 -5.2913
  157OSM   H15C17505   1.456   2.019   1.749  0.8666 -1.9594  0.8110
  157OSM    C1417506   1.433   1.855   1.977 -0.8710 -0.0186  0.2154
  157OSM   H14A17507   1.405   1.818   2.074  2.2590  0.8335  1.5808
  157OSM   H14B17508   1.540   1.856   1.969 -0.9174 -1.2593 -1.0115
  157OSM   H14C17509   1.390   1.795   1.898  2.6299 -3.4353  0.6300
  157OSM    C1317510   1.427   2.062   2.087 -0.4872 -0.2954 -0.5046
  157OSM   H13A17511   1.353   2.013   2.150 -0.4291  1.0192  0.6343
  157OSM   H13B17512   1.418   2.169   2.089  1.6969 -0.0770 -0.0555
  157OSM   H13C17513   1.533   2.053   2.104 -0.4154  0.0403 -0.7720
  157OSM    C1217514   1.254   2.020   1.902 -0.4265  0.0961  0.3559
  157OSM   H12A17515   1.251   1.999   1.796 -2.4183  2.2965 -0.1110
  157OSM   H12B17516   1.234   2.125   1.910 -1.5894 -0.2380  5.2651
  157OSM    C1117517   1.147   1.939   1.967 -0.5608 -0.0825  0.0719
  157OSM   H11A17518   1.067   2.016   1.963 -1.1664 -0.6188  1.2050
  157OSM   H11B17519   1.161   1.916   2.075  1.3319  1.0257  0.1063
  157OSM      P17520   1.002   1.808   1.791 -0.0970 -0.3706  0.6406
  157OSM    O1317521   1.037   1.903   1.683  0.4817 -0.1338  0.2193
  157OSM    O1417522   0.979   1.667   1.755  0.1194 -0.0336 -0.1531
  157OSM    O1117523   0.871   1.861   1.852  0.0213  0.1343  0.1119
  157OSM    O1217524   1.113   1.817   1.904 -0.2241  0.5847 -0.2594
  157OSM    C1S17525   0.807   1.810   1.972  0.1568 -0.1702  0.3223
  157OSM    H1S17526   0.852   1.711   1.993  2.7412  0.6796 -0.8690
  157OSM    H1T17527   0.705   1.775   1.946  0.3922 -0.0279 -0.8117
  157OSM     NF17528   0.750   1.807   2.203  0.4059 -0.4810 -0.3292
  157OSM    HNF17529   0.653   1.826   2.220  0.1294 -0.8394 -1.4320
  157OSM    C2S17530   0.804   1.893   2.099 -0.7577  0.5346  1.0388
  157OSM    H2S17531   0.911   1.914   2.121 -0.9422  0.5567  1.9653
  157OSM    C3S17532   0.748   2.035   2.079 -0.0529 -0.4911  0.1944
  157OSM    H3S17533   0.639   2.024   2.060 -0.3225 -1.0047  1.8699
  157OSM     O317534   0.789   2.102   1.958  0.0797  0.4632 -0.0026
  157OSM    HO317535   0.805   2.028   1.899 -0.6594  0.4221 -0.1638
  157OSM    C4S17536   0.787   2.117   2.199  0.4421  0.7363 -0.1319
  157OSM    H4S17537   0.890   2.155   2.198 -0.1200  2.3955  0.8659
  157OSM    C5S17538   0.705   2.158   2.290  0.4121  0.0559  0.5343
  157OSM    H5S17539   0.605   2.113   2.291  0.5264 -0.1980  0.4257
  157OSM    C6S17540   0.742   2.250   2.395  0.2605 -0.4743 -0.7570
  157OSM    H6S17541   0.688   2.345   2.375  1.1100  0.0455 -0.6482
  157OSM    H6T17542   0.847   2.282   2.412 -0.5047  1.0487  1.6268
  157OSM    C7S17543   0.684   2.207   2.539 -0.5526 -0.2848  1.0002
  157OSM    H7S17544   0.724   2.105   2.560  3.0939  0.6481 -0.5929
  157OSM    H7T17545   0.574   2.199   2.528 -0.3386 -1.8860 -0.6056
  157OSM    C8S17546   0.723   2.292   2.655  0.3255  0.1252  0.2899
  157OSM    H8S17547   0.706   2.396   2.621  1.7689  0.3262  0.0893
  157OSM    H8T17548   0.828   2.266   2.680 -0.1343 -1.4646  0.6802
  157OSM    C9S17549   0.637   2.273   2.775 -0.6828  0.6431  0.6187
  157OSM    H9S17550   0.572   2.183   2.769 -1.7817  1.3594  1.3986
  157OSM    H9T17551   0.565   2.358   2.771 -0.6239  0.6444 -1.2906
  157OSM   C10S17552   0.712   2.268   2.916 -0.2171  0.1484 -0.0626
  157OSM   H10S17553   0.766   2.363   2.932 -0.8291  0.4812  0.0424
  157OSM   H10T17554   0.789   2.188   2.920 -1.3543 -0.9151  3.0254
  157OSM   C11S17555   0.607   2.234   3.021 -0.1662 -0.3888  0.1494
  157OSM   H11S17556   0.592   2.124   3.028  1.0598 -0.5154  1.3072
  157OSM   H11T17557   0.512   2.292   3.011  0.6401  1.2860  1.5924
  157OSM   C12S17558   0.657   2.282   3.159  0.5862 -0.2631  0.1095
  157OSM   H12S17559   0.706   2.382   3.162 -1.0957  0.6763 -1.4109
  157OSM   H12T17560   0.731   2.219   3.212 -0.3006 -0.5241  1.0911
  157OSM   C13S17561   0.534   2.288   3.250 -0.0051 -0.1028 -0.8421
  157OSM   H13S17562   0.475   2.194   3.245 -0.9933  0.5654 -3.0166
  157OSM   H13T17563   0.488   2.388   3.231  1.7126  0.7806 -0.5721
  157OSM   C14S17564   0.576   2.295   3.397  0.7469 -0.2114 -0.3837
  157OSM   H14S17565   0.487   2.302   3.464  0.7461 -2.4388 -0.0874
  157OSM   H14T17566   0.639   2.385   3.413 -2.0394  1.5680  1.6727
  157OSM   C15S17567   0.651   2.177   3.474 -0.0856  0.7026 -0.0588
  157OSM   H15S17568   0.754   2.174   3.434 -0.0192  1.9278 -0.0301
  157OSM   H15T17569   0.607   2.078   3.449  1.7567 -0.8422  2.4760
  157OSM   C16S17570   0.650   2.186   3.623  0.1944  0.3949  0.6413
  157OSM   H16S17571   0.713   2.101   3.659  2.7910  0.7630 -2.5333
  157OSM   H16T17572   0.546   2.175   3.661  0.2279 -1.1552  0.3472
  157OSM   C17S17573   0.702   2.317   3.676 -0.3022 -0.1005 -0.1124
  157OSM   H17S17574   0.701   2.309   3.787  0.5003  1.0738  0.0013
  157OSM   H17T17575   0.636   2.403   3.655  0.7903  0.7337 -0.2232
  157OSM   C18S17576   0.847   2.340   3.623  0.0148 -0.9027  0.7434
  157OSM   H18S17577   0.900   2.242   3.621  2.4004  0.2873  0.9217
  157OSM   H18T17578   0.912   2.400   3.691 -0.8143  0.5416  0.2972
  157OSM   H18U17579   0.841   2.372   3.517 -0.5623 -1.3206  0.6479
  157OSM    C1F17580   0.823   1.709   2.260 -1.2113  0.1506  0.9853
  157OSM     OF17581   0.925   1.666   2.200 -0.5197 -0.0216  0.0357
  157OSM    C2F17582   0.791   1.657   2.398  1.0348  0.3897  0.3455
  157OSM    H2F17583   0.868   1.581   2.423  0.2490 -0.7031 -0.4729
  157OSM    H2G17584   0.688   1.616   2.391  1.1963  0.2345 -2.0080
  157OSM    C3F17585   0.780   1.766   2.505  0.3885 -0.5839  0.0431
  157OSM    H3F17586   0.800   1.867   2.463 -0.0103 -0.6000 -0.1927
  157OSM    H3G17587   0.858   1.743   2.581 -1.0166 -1.3326  1.3061
  157OSM    C4F17588   0.640   1.772   2.574  0.5123 -0.4948 -0.0114
  157OSM    H4F17589   0.588   1.675   2.588 -0.4721  0.1817  1.3906
  157OSM    H4G17590   0.581   1.837   2.505  0.5768 -1.9083 -1.4549
  157OSM    C5F17591   0.653   1.838   2.711  0.1893 -0.2716  0.6476
  157OSM    H5F17592   0.565   1.905   2.724 -0.6761 -1.4177  0.7994
  157OSM    H5G17593   0.733   1.913   2.696  0.2896 -0.7874 -1.9457
  157OSM    C6F17594   0.656   1.744   2.826 -1.2317  0.1679  0.5357
  157OSM    H6F17595   0.737   1.670   2.814 -1.4784  0.3357 -5.5313
  157OSM    H6G17596   0.563   1.684   2.832 -1.0543 -0.3432 -1.2356
  157OSM    C7F17597   0.670   1.814   2.958 -0.2595 -0.9736 -0.7666
  157OSM    H7F17598   0.604   1.903   2.965  0.8939 -0.2129  1.1449
  157OSM    H7G17599   0.776   1.847   2.949 -0.3998 -1.0164 -3.2846
  157OSM    C8F17600   0.644   1.718   3.079 -0.3255 -0.6462  0.2324
  157OSM    H8F17601   0.729   1.723   3.150  0.8211 -0.7502 -1.1001
  157OSM    H8G17602   0.645   1.612   3.045  0.0007 -0.2382 -1.0645
  157OSM    C9F17603   0.519   1.752   3.161  0.6418  0.0560  0.5929
  157OSM    H9F17604   0.421   1.753   3.110  0.4935 -0.2763  0.8669
  157OSM   C10F17605   0.519   1.767   3.289  0.1062  0.3341 -1.0752
  157OSM   H10F17606   0.429   1.784   3.348  0.1431  0.2566 -0.9958
  157OSM   C11F17607   0.643   1.768   3.376 -0.0665  0.5729 -0.0862
  157OSM   H11F17608   0.710   1.851   3.344  2.4380 -1.5503 -0.6284
  157OSM   H11G17609   0.702   1.674   3.368 -0.9237  0.1702 -2.1693
  157OSM   C12F17610   0.615   1.803   3.522  0.0365 -0.0375 -0.1930
  157OSM   H12F17611   0.550   1.725   3.567  0.4864 -0.6064 -0.5134
  157OSM   H12G17612   0.570   1.903   3.537 -0.2399 -0.2022  0.0722
  157OSM   C13F17613   0.747   1.810   3.605 -0.0687  0.4791 -0.5102
  157OSM   H13F17614   0.802   1.899   3.569  1.2879  0.3314  1.0959
  157OSM   H13G17615   0.799   1.716   3.575 -0.2680  0.1014  0.2903
  157OSM   C14F17616   0.726   1.825   3.756 -0.2521 -0.7172 -1.0575
  157OSM   H14F17617   0.669   1.740   3.801  0.5767 -0.7644 -0.0695
  157OSM   H14G17618   0.666   1.914   3.785 -0.0607 -1.0943  0.6296
  157OSM   C15F17619   0.868   1.835   3.831  0.0879  0.4295 -0.3097
  157OSM   H15F17620   0.900   1.940   3.814  1.0368  0.3560  0.8681
  157OSM   H15G17621   0.940   1.773   3.774  2.4962  2.2157  0.6072
  157OSM   C16F17622   0.890   1.791   3.973  0.1728  0.1207 -0.8331
  157OSM   H16F17623   0.798   1.828   4.023 -1.0184 -0.2685 -2.6495
  157OSM   H16G17624   0.983   1.834   4.017 -0.6559  0.5816  0.5470
  157OSM   C17F17625   0.917   1.640   3.990  0.2586 -0.8878  1.1223
  157OSM   H17F17626   1.001   1.602   3.928 -0.5444 -2.5525  1.0048
  157OSM   H17G17627   0.831   1.598   3.934  1.6501  0.2613 -2.1501
  157OSM   C18F17628   0.926   1.584   4.129 -0.1993  0.2122  0.2476
  157OSM   H18F17629   0.921   1.473   4.137 -1.3695  0.0894 -1.6243
  157OSM   H18G17630   0.837   1.612   4.190  0.0247 -1.2669  1.3235
  157OSM   H18H17631   1.014   1.623   4.185 -0.0546 -1.5617  1.3357
  158OSM      N17632   4.819   1.244   2.058  0.3599 -0.2488  0.6149
  158OSM    C1517633   4.934   1.216   2.148  0.1630 -1.2097  0.1059
  158OSM   H15A17634   4.971   1.305   2.198  1.5241 -1.4290 -0.4756
  158OSM   H15B17635   5.021   1.188   2.090  0.7401  0.8195 -0.0789
  158OSM   H15C17636   4.906   1.143   2.223  0.2439  0.8019  2.1984
  158OSM    C1417637   4.870   1.316   1.938 -0.4141  0.3347 -1.0952
  158OSM   H14A17638   4.918   1.409   1.964  0.2276 -0.0237 -0.9722
  158OSM   H14B17639   4.787   1.332   1.872  0.3081  0.4826 -1.9800
  158OSM   H14C17640   4.951   1.265   1.888 -1.5450  1.0917 -3.8579
  158OSM    C1317641   4.758   1.120   2.019 -0.2848  0.2924  0.2265
  158OSM   H13A17642   4.663   1.143   1.974 -0.3867 -0.6611 -0.0596
  158OSM   H13B17643   4.715   1.057   2.096  1.2404 -1.8876 -0.6180
  158OSM   H13C17644   4.811   1.063   1.944 -0.2044 -1.3352  1.4495
  158OSM    C1217645   4.721   1.330   2.141  0.3705 -0.4259 -0.0777
  158OSM   H12A17646   4.784   1.399   2.196  0.7903 -0.6292 -0.3014
  158OSM   H12B17647   4.661   1.273   2.211 -0.5905  0.0749 -0.4808
  158OSM    C1117648   4.625   1.427   2.061  0.2243 -1.0720 -0.1747
  158OSM   H11A17649   4.683   1.497   1.998 -0.6580  1.0431  1.2389
  158OSM   H11B17650   4.576   1.486   2.141  0.3899 -0.2263 -0.6909
  158OSM      P17651   4.403   1.273   1.989 -0.2795 -0.0852  0.1929
  158OSM    O1317652   4.305   1.339   1.905  0.2216 -0.0600  0.8363
  158OSM    O1417653   4.416   1.127   1.985 -0.2006 -0.3991  0.4283
  158OSM    O1117654   4.367   1.311   2.135 -0.0432 -0.3304 -0.0686
  158OSM    O1217655   4.543   1.351   1.970  0.0970  0.9087  0.2072
  158OSM    C1S17656   4.244   1.256   2.194 -0.3252 -0.6160 -0.2492
  158OSM    H1S17657   4.229   1.147   2.177 -1.5936 -0.4065 -0.5859
  158OSM    H1T17658   4.160   1.312   2.147 -0.0022 -0.3121 -0.4713
  158OSM     NF17659   4.125   1.204   2.408  0.4288 -0.4026 -0.0795
  158OSM    HNF17660   4.042   1.258   2.422 -0.1658 -0.7466 -2.0473
  158OSM    C2S17661   4.247   1.266   2.351  0.5296 -0.8653 -0.3560
  158OSM    H2S17662   4.343   1.228   2.391  1.3252  0.5038 -0.9043
  158OSM    C3S17663   4.253   1.416   2.388  0.3151  0.1880 -0.3090
  158OSM    H3S17664   4.164   1.469   2.350  2.3159  1.5935 -3.4465
  158OSM     O317665   4.346   1.493   2.315 -0.1411 -0.1816 -0.1582
  158OSM    HO317666   4.346   1.444   2.232  1.7243  0.7199 -0.7480
  158OSM    C4S17667   4.263   1.438   2.537 -0.2657 -0.4772  0.1837
  158OSM    H4S17668   4.167   1.432   2.590  0.2578 -3.0175  0.9619
  158OSM    C5S17669   4.366   1.449   2.618 -0.4045 -0.6616  0.1417
  158OSM    H5S17670   4.469   1.433   2.583  0.5305  1.2158  1.8370
  158OSM    C6S17671   4.345   1.451   2.769 -0.3970 -0.8079 -0.4103
  158OSM    H6S17672   4.323   1.548   2.818 -0.9764 -0.3996 -1.4354
  158OSM    H6T17673   4.446   1.434   2.812  0.6505  2.7946 -1.0986
  158OSM    C7S17674   4.240   1.347   2.813  0.0318  0.0747  0.0805
  158OSM    H7S17675   4.242   1.261   2.743 -2.6181  0.6968 -0.8671
  158OSM    H7T17676   4.143   1.398   2.796  0.1970  1.3090  2.3831
  158OSM    C8S17677   4.256   1.316   2.963  0.1046  0.1304 -0.2963
  158OSM    H8S17678   4.356   1.270   2.981  1.3440  2.6184 -0.4299
  158OSM    H8T17679   4.176   1.245   2.993 -0.3277 -0.1467 -2.0326
  158OSM    C9S17680   4.249   1.439   3.064 -0.0116 -0.2007  0.2735
  158OSM    H9S17681   4.142   1.467   3.071 -0.0774 -0.7551  1.9313
  158OSM    H9T17682   4.316   1.521   3.031  0.9580 -0.7207  0.9199
  158OSM   C10S17683   4.302   1.410   3.201  0.1948 -0.0520  0.6276
  158OSM   H10S17684   4.409   1.386   3.188  0.6442  1.1814  1.8821
  158OSM   H10T17685   4.257   1.316   3.239 -1.1813 -0.1708 -1.1289
  158OSM   C11S17686   4.274   1.525   3.296 -0.3055  0.4210  0.4616
  158OSM   H11S17687   4.167   1.555   3.298 -0.7412 -1.0870  0.4230
  158OSM   H11T17688   4.338   1.603   3.250  0.0953 -0.0347  0.2393
  158OSM   C12S17689   4.320   1.483   3.432  0.5443 -0.0983  0.0426
  158OSM   H12S17690   4.429   1.463   3.432  1.0638  2.3332  1.2621
  158OSM   H12T17691   4.266   1.392   3.465 -1.6791  1.4867  1.0949
  158OSM   C13S17692   4.285   1.585   3.536  0.4817 -0.9463  1.0390
  158OSM   H13S17693   4.178   1.612   3.536  0.8575  0.6150  0.4761
  158OSM   H13T17694   4.327   1.685   3.515  0.4496 -0.6416  2.3647
  158OSM   C14S17695   4.328   1.524   3.670 -0.1574 -0.2346 -0.3967
  158OSM   H14S17696   4.438   1.530   3.659  0.2435 -1.4804  2.1205
  158OSM   H14T17697   4.302   1.417   3.689 -1.2240  0.2123  0.7661
  158OSM   C15S17698   4.284   1.607   3.789  0.3355  0.3437 -0.2063
  158OSM   H15S17699   4.173   1.604   3.788  0.3434  0.1031 -0.4938
  158OSM   H15T17700   4.325   1.710   3.793 -2.1322  1.3981 -0.0123
  158OSM   C16S17701   4.320   1.550   3.923  0.0667  0.4472 -0.1812
  158OSM   H16S17702   4.430   1.531   3.923 -0.0810 -0.8307  1.9900
  158OSM   H16T17703   4.274   1.450   3.934  0.1363  0.5013  0.7792
  158OSM   C17S17704   4.288   1.642   4.039 -0.6517 -0.0126  0.2416
  158OSM   H17S17705   4.181   1.670   4.035 -0.7149 -0.1259  1.0166
  158OSM   H17T17706   4.333   1.743   4.027  1.1855 -0.9063 -0.8849
  158OSM   C18S17707   4.326   1.579   4.176 -0.4806  0.7043 -0.7099
  158OSM   H18S17708   4.429   1.542   4.159 -1.3311 -2.1238 -0.3097
  158OSM   H18T17709   4.256   1.496   4.202  0.2281  0.3908  0.2527
  158OSM   H18U17710   4.313   1.660   4.250  2.5904  1.6337 -1.0586
  158OSM    C1F17711   4.125   1.075   2.413 -0.4895  0.4805 -0.1884
  158OSM     OF17712   4.229   1.021   2.418  0.0742 -0.1597  0.1228
  158OSM    C2F17713   3.996   1.000   2.417  0.0483  0.6471  0.6130
  158OSM    H2F17714   4.016   0.891   2.411  0.8346  0.7860  0.5385
  158OSM    H2G17715   3.944   1.024   2.321 -0.3422 -0.8969  0.4027
  158OSM    C3F17716   3.918   1.042   2.541  0.0374  0.8415 -0.1411
  158OSM    H3F17717   3.821   0.989   2.553 -0.4357  1.8078  0.4187
  158OSM    H3G17718   3.885   1.147   2.524  0.8586  1.0465 -0.5115
  158OSM    C4F17719   4.007   1.029   2.669  0.9525  0.0545  0.0565
  158OSM    H4F17720   4.091   1.101   2.671  0.4966  0.5986  2.0198
  158OSM    H4G17721   4.051   0.928   2.684  0.9019 -0.1391 -1.0004
  158OSM    C5F17722   3.927   1.047   2.804  0.0030  0.5495 -0.0639
  158OSM    H5F17723   3.983   1.003   2.889  0.0281  0.8214  0.0624
  158OSM    H5G17724   3.836   0.983   2.798  0.0407  0.4372  0.5224
  158OSM    C6F17725   3.893   1.195   2.822  0.0395  0.3150 -0.3722
  158OSM    H6F17726   3.838   1.229   2.731 -0.5987 -1.0532 -0.5199
  158OSM    H6G17727   3.990   1.248   2.828  0.6116 -0.6633 -0.6854
  158OSM    C7F17728   3.809   1.212   2.949 -0.2799 -0.1411 -0.8164
  158OSM    H7F17729   3.707   1.171   2.938 -0.3598 -0.0665 -0.3869
  158OSM    H7G17730   3.794   1.321   2.967 -0.4158 -0.5570  1.9532
  158OSM    C8F17731   3.870   1.165   3.090  0.0119  0.5159  0.7388
  158OSM    H8F17732   3.972   1.210   3.092  1.4983 -2.3483 -2.0702
  158OSM    H8G17733   3.882   1.055   3.082 -0.0413  0.6141 -0.9614
  158OSM    C9F17734   3.775   1.211   3.193  0.9980 -0.2117 -0.2921
  158OSM    H9F17735   3.675   1.165   3.186  0.8626  0.2833 -2.7706
  158OSM   C10F17736   3.795   1.286   3.302 -0.7530 -0.5727  0.0163
  158OSM   H10F17737   3.721   1.332   3.370 -0.3607 -0.6103  0.4739
  158OSM   C11F17738   3.929   1.348   3.341 -0.2755 -0.4688 -0.4355
  158OSM   H11F17739   3.950   1.444   3.290  2.4193  0.0956  1.5608
  158OSM   H11G17740   4.018   1.293   3.305  0.9067  0.6704  0.6605
  158OSM   C12F17741   3.939   1.373   3.491  0.8690  0.2429 -0.0045
  158OSM   H12F17742   3.853   1.434   3.525 -1.6185 -1.5380 -2.6357
  158OSM   H12G17743   4.036   1.427   3.503 -0.5290  2.6886  0.9469
  158OSM   C13F17744   3.952   1.242   3.566  0.6437 -0.7364 -0.0717
  158OSM   H13F17745   4.009   1.168   3.507 -0.1782  0.2354 -2.1775
  158OSM   H13G17746   3.854   1.189   3.566  0.6977 -0.8637  1.1657
  158OSM   C14F17747   4.012   1.273   3.696  0.3571  0.1669  0.0780
  158OSM   H14F17748   3.944   1.342   3.751 -0.5285 -0.1746 -0.5548
  158OSM   H14G17749   4.114   1.313   3.683  0.3138 -0.1669 -1.5202
  158OSM   C15F17750   4.034   1.147   3.790  0.6651  0.0737 -0.1288
  158OSM   H15F17751   4.144   1.127   3.787  0.6423  0.0298 -2.3361
  158OSM   H15G17752   3.982   1.070   3.730 -1.5749  0.1845  1.5738
  158OSM   C16F17753   3.972   1.161   3.928 -0.3868  0.0329 -0.0147
  158OSM   H16F17754   3.968   1.055   3.963 -0.5979 -0.5951 -1.8477
  158OSM   H16G17755   3.878   1.218   3.915  1.2888  2.7574 -1.0522
  158OSM   C17F17756   4.070   1.227   4.028 -0.2746  0.4674  0.0160
  158OSM   H17F17757   4.007   1.213   4.118 -0.8831 -0.7228 -0.5647
  158OSM   H17G17758   4.068   1.335   4.002 -2.0432  0.6467  0.7259
  158OSM   C18F17759   4.198   1.152   4.050 -0.3286 -0.1083  0.1075
  158OSM   H18F17760   4.268   1.173   3.967  0.1071  0.7905  0.6840
  158OSM   H18G17761   4.177   1.043   4.052  0.4229 -0.2518  0.8833
  158OSM   H18H17762   4.235   1.196   4.146 -1.2414  3.1825 -0.9201
  159OSM      N17763   0.477   2.872   1.449  0.2180  0.1434 -0.0308
  159OSM    C1517764   0.472   2.992   1.360 -1.3936  0.2370 -0.4140
  159OSM   H15A17765   0.557   2.995   1.293  0.0669 -1.1568  1.3046
  159OSM   H15B17766   0.475   3.086   1.414 -0.3055 -0.1815  0.2802
  159OSM   H15C17767   0.383   2.995   1.299 -3.1310  1.1211  1.9921
  159OSM    C1417768   0.561   2.898   1.568 -0.3912 -0.4928 -0.5395
  159OSM   H14A17769   0.519   2.981   1.623  2.1141  0.7621 -0.4053
  159OSM   H14B17770   0.662   2.916   1.536 -0.4910  0.1352 -0.5134
  159OSM   H14C17771   0.561   2.811   1.633 -1.7811 -0.2288 -0.1425
  159OSM    C1317772   0.337   2.833   1.495 -0.3034 -0.5102 -0.4750
  159OSM   H13A17773   0.274   2.816   1.409 -1.4013  1.0891 -0.0474
  159OSM   H13B17774   0.298   2.914   1.554 -2.7217 -1.4071 -0.7054
  159OSM   H13C17775   0.345   2.742   1.553 -0.8283 -1.5862 -2.0356
  159OSM    C1217776   0.546   2.750   1.373  0.8409 -0.1623  0.1364
  159OSM   H12A17777   0.648   2.774   1.346  0.8686 -2.5567 -2.2885
  159OSM   H12B17778   0.482   2.722   1.291 -0.6786 -0.3812  1.3450
  159OSM    C1117779   0.557   2.624   1.463  0.2745 -0.2953  0.4916
  159OSM   H11A17780   0.635   2.631   1.542 -1.3916  0.9334  2.1148
  159OSM   H11B17781   0.600   2.546   1.396 -1.6785 -1.0962  0.1204
  159OSM      P17782   0.439   2.446   1.616  0.2437  0.5304  0.0630
  159OSM    O1317783   0.304   2.391   1.602 -0.2709  0.2128  0.1921
  159OSM    O1417784   0.549   2.358   1.585 -0.1062  0.0905  0.0820
  159OSM    O1117785   0.470   2.535   1.741 -0.6078 -0.2804 -0.6641
  159OSM    O1217786   0.437   2.572   1.513  0.1386  0.0401 -0.4351
  159OSM    C1S17787   0.362   2.596   1.817 -0.1925  0.0151  0.3004
  159OSM    H1S17788   0.299   2.510   1.849  0.1302 -0.5295 -0.5115
  159OSM    H1T17789   0.299   2.662   1.754  0.3754  0.2378 -0.0318
  159OSM     NF17790   0.306   2.752   2.004  0.6144  0.5297  0.1166
  159OSM    HNF17791   0.298   2.851   1.994  0.2057  0.3595 -1.4765
  159OSM    C2S17792   0.415   2.680   1.936 -0.0120 -0.0966 -0.3061
  159OSM    H2S17793   0.461   2.609   2.008 -0.1465 -0.3682 -0.4869
  159OSM    C3S17794   0.526   2.776   1.909 -0.2186 -0.5725 -1.1204
  159OSM    H3S17795   0.488   2.864   1.852  1.7887  0.5868 -0.7901
  159OSM     O317796   0.632   2.727   1.827 -0.0843 -0.0154 -0.1723
  159OSM    HO317797   0.595   2.646   1.791  0.1560 -0.3403  0.3024
  159OSM    C4S17798   0.584   2.839   2.037  0.8495 -1.1140  0.6007
  159OSM    H4S17799   0.562   2.944   2.062  0.7801 -0.2526 -2.7148
  159OSM    C5S17800   0.652   2.773   2.125 -0.2514 -0.3740 -0.1233
  159OSM    H5S17801   0.678   2.669   2.101 -0.9872 -0.7791  0.7555
  159OSM    C6S17802   0.713   2.825   2.256 -0.3047  0.4341 -0.2561
  159OSM    H6S17803   0.693   2.934   2.261 -0.2129  0.4232  0.6088
  159OSM    H6T17804   0.823   2.804   2.255 -0.4730 -0.5133 -1.7589
  159OSM    C7S17805   0.672   2.740   2.378  0.2430 -0.2316  0.1098
  159OSM    H7S17806   0.703   2.635   2.361  2.0999 -0.0546  1.9821
  159OSM    H7T17807   0.561   2.736   2.380  0.2426 -0.0400  0.5124
  159OSM    C8S17808   0.724   2.801   2.511  0.0348 -0.2587 -0.4304
  159OSM    H8S17809   0.688   2.906   2.521 -1.1754 -0.6362 -0.6859
  159OSM    H8T17810   0.834   2.801   2.494 -0.2850  0.5023 -3.0107
  159OSM    C9S17811   0.669   2.723   2.635 -0.0459 -0.4524 -0.0274
  159OSM    H9S17812   0.708   2.619   2.627  1.3354 -0.0085  0.6015
  159OSM    H9T17813   0.560   2.714   2.617  0.0401 -0.8589 -0.3805
  159OSM   C10S17814   0.725   2.788   2.765  0.7368  0.5494 -0.3846
  159OSM   H10S17815   0.695   2.895   2.779  0.2959  0.4018 -0.1895
  159OSM   H10T17816   0.835   2.797   2.752  0.8024  0.3186  0.0031
  159OSM   C11S17817   0.686   2.721   2.896 -0.0804 -0.1814  0.3748
  159OSM   H11S17818   0.721   2.616   2.900  1.1981  0.2161  0.2031
  159OSM   H11T17819   0.577   2.708   2.912  0.0923 -1.1387  0.8013
  159OSM   C12S17820   0.748   2.780   3.018 -1.0529  0.4315 -0.0040
  159OSM   H12S17821   0.709   2.879   3.046  0.6540  1.0874  0.1824
  159OSM   H12T17822   0.858   2.779   3.004 -1.0121  0.5212  0.3026
  159OSM   C13S17823   0.721   2.695   3.149 -0.0749 -0.1593  0.1540
  159OSM   H13S17824   0.792   2.610   3.151 -0.0673 -0.2163  3.5609
  159OSM   H13T17825   0.616   2.661   3.137 -0.0213  0.3956 -2.5761
  159OSM   C14S17826   0.734   2.783   3.277  0.3502  0.2117  0.7643
  159OSM   H14S17827   0.648   2.853   3.286 -1.1750 -1.3931 -0.5342
  159OSM   H14T17828   0.827   2.841   3.261 -0.0748  0.3787 -1.3139
  159OSM   C15S17829   0.717   2.706   3.407 -0.7910  0.4209 -0.1655
  159OSM   H15S17830   0.793   2.625   3.406  0.4952  1.5578 -2.4997
  159OSM   H15T17831   0.617   2.659   3.419 -0.3291 -0.7672 -0.8658
  159OSM   C16S17832   0.731   2.804   3.518 -0.1170 -0.3000 -0.0435
  159OSM   H16S17833   0.670   2.895   3.498  0.1846  0.3510  1.8756
  159OSM   H16T17834   0.829   2.855   3.527 -0.4111  0.5515 -1.3532
  159OSM   C17S17835   0.700   2.746   3.656  0.2100  0.1764  0.1744
  159OSM   H17S17836   0.772   2.672   3.697 -1.0056  0.8226  3.8286
  159OSM   H17T17837   0.602   2.694   3.647  0.6517 -1.0255  1.8836
  159OSM   C18S17838   0.677   2.851   3.762  0.2933 -0.1347  0.3672
  159OSM   H18S17839   0.772   2.906   3.784  0.5566 -0.9455  1.3324
  159OSM   H18T17840   0.642   2.806   3.857  2.4682  1.5153  2.0604
  159OSM   H18U17841   0.605   2.928   3.727  1.7773  0.7603 -0.8679
  159OSM    C1F17842   0.197   2.699   2.066 -0.0828  1.0491 -0.5571
  159OSM     OF17843   0.205   2.577   2.101  0.2737 -0.2542  0.2201
  159OSM    C2F17844   0.074   2.783   2.102 -0.1144  0.2203  0.2986
  159OSM    H2F17845   0.004   2.749   2.023 -0.5823  0.6180  0.5425
  159OSM    H2G17846   0.093   2.892   2.112  0.6957 -0.0925  3.1673
  159OSM    C3F17847   0.006   2.735   2.229  0.3224 -0.7140 -0.1624
  159OSM    H3F17848  -0.011   2.625   2.239  1.5386 -0.8248  0.9763
  159OSM    H3G17849  -0.093   2.784   2.238  1.2272  0.8133  3.1350
  159OSM    C4F17850   0.076   2.793   2.349 -0.1241 -0.3766  0.6241
  159OSM    H4F17851   0.055   2.902   2.360  2.9862  0.8270 -3.1218
  159OSM    H4G17852   0.184   2.778   2.332 -0.0655  1.0949 -0.5461
  159OSM    C5F17853   0.032   2.728   2.482 -0.1356 -0.1653 -0.0831
  159OSM    H5F17854   0.042   2.618   2.468 -2.9777 -0.9940  2.8913
  159OSM    H5G17855  -0.076   2.743   2.504 -0.3523 -1.5117 -0.1616
  159OSM    C6F17856   0.104   2.784   2.608 -0.1478  0.2693 -0.1288
  159OSM    H6F17857   0.091   2.719   2.697  0.2443  0.6154  0.1860
  159OSM    H6G17858   0.062   2.883   2.637  0.1376 -0.3084  2.4874
  159OSM    C7F17859   0.255   2.805   2.587  0.4597 -0.4977  0.1165
  159OSM    H7F17860   0.270   2.893   2.521  0.3701  0.2136  1.0274
  159OSM    H7G17861   0.299   2.719   2.532 -1.4934 -0.9985 -0.7410
  159OSM    C8F17862   0.326   2.824   2.724  0.8070  0.5860 -0.7166
  159OSM    H8F17863   0.258   2.898   2.771 -0.6972 -0.2530 -1.5021
  159OSM    H8G17864   0.428   2.865   2.711 -0.1462  3.5421  0.3443
  159OSM    C9F17865   0.330   2.694   2.804 -0.5164  0.0575  0.9405
  159OSM    H9F17866   0.394   2.619   2.756 -1.0629 -0.6059  1.2372
  159OSM   C10F17867   0.278   2.666   2.927 -0.5911  0.2448  0.9675
  159OSM   H10F17868   0.288   2.566   2.972 -0.2149 -0.6265 -0.9630
  159OSM   C11F17869   0.181   2.743   3.015 -0.2620  0.1211 -0.1711
  159OSM   H11F17870   0.116   2.681   3.081  0.9935  0.1027  1.0845
  159OSM   H11G17871   0.111   2.804   2.953 -0.2809  1.0835  0.7487
  159OSM   C12F17872   0.251   2.852   3.105 -0.0311  0.2991  0.9521
  159OSM   H12F17873   0.164   2.905   3.148 -2.1310 -0.6389 -1.8268
  159OSM   H12G17874   0.312   2.922   3.044 -2.0114 -0.9540 -2.7873
  159OSM   C13F17875   0.326   2.794   3.228 -1.0265  0.3518  0.1163
  159OSM   H13F17876   0.389   2.867   3.284 -1.3396 -0.4745  1.6047
  159OSM   H13G17877   0.388   2.705   3.203  1.1656  1.3691  1.5972
  159OSM   C14F17878   0.220   2.751   3.340 -0.2951 -1.2541 -0.0289
  159OSM   H14F17879   0.138   2.689   3.299  0.5071 -2.9303  0.7761
  159OSM   H14G17880   0.175   2.847   3.375  4.2979  1.2490 -0.1878
  159OSM   C15F17881   0.281   2.680   3.465  0.2362 -0.8615 -0.0084
  159OSM   H15F17882   0.355   2.755   3.500  0.7736 -0.9860 -0.8511
  159OSM   H15G17883   0.334   2.585   3.442  1.3556 -0.0281 -1.0008
  159OSM   C16F17884   0.170   2.647   3.569 -0.7464 -0.3161 -0.2388
  159OSM   H16F17885   0.108   2.570   3.517  1.9322 -2.2823 -0.7543
  159OSM   H16G17886   0.109   2.738   3.584  0.1238  0.4351 -1.1289
  159OSM   C17F17887   0.241   2.588   3.695  0.1923 -0.0440  0.0247
  159OSM   H17F17888   0.162   2.587   3.772 -0.9376  1.6972 -1.0339
  159OSM   H17G17889   0.311   2.665   3.734 -0.1231  1.6465 -2.5207
  159OSM   C18F17890   0.316   2.457   3.682 -0.0545 -0.0488  0.2527
  159OSM   H18F17891   0.257   2.394   3.611  2.0256 -0.0671 -1.5973
  159OSM   H18G17892   0.327   2.411   3.782 -1.6500  1.5166  1.1863
  159OSM   H18H17893   0.416   2.481   3.639 -0.0286  1.0041  0.8894
  160OSM      N17894   4.157   1.737   2.034 -0.1168 -0.3014 -0.3158
  160OSM    C1517895   4.206   1.733   2.171  0.1439  0.4685 -0.1168
  160OSM   H15A17896   4.218   1.632   2.208 -0.1214  0.8353  1.0142
  160OSM   H15B17897   4.138   1.783   2.239  0.4241  0.1229  0.4261
  160OSM   H15C17898   4.306   1.773   2.163  0.0313  0.4293 -2.1704
  160OSM    C1417899   4.017   1.690   2.026 -0.8171  0.2760 -0.3011
  160OSM   H14A17900   3.974   1.702   1.928 -0.4130  1.5362 -0.3443
  160OSM   H14B17901   3.965   1.764   2.086  0.6545  0.8967  0.2606
  160OSM   H14C17902   4.009   1.592   2.070 -0.6418 -0.9175 -2.7640
  160OSM    C1317903   4.166   1.885   1.993 -0.0910  0.0575  0.2831
  160OSM   H13A17904   4.114   1.901   1.899 -2.5318  1.5540  1.7810
  160OSM   H13B17905   4.270   1.910   1.983  0.1083 -0.7277  0.3276
  160OSM   H13C17906   4.124   1.951   2.067  0.0642  0.1269  0.3093
  160OSM    C1217907   4.247   1.655   1.935  0.2606  0.0850 -0.3481
  160OSM   H12A17908   4.199   1.672   1.840  0.5598 -0.5619 -0.6200
  160OSM   H12B17909   4.241   1.551   1.962  0.5886  0.7279  2.5235
  160OSM    C1117910   4.396   1.693   1.921 -0.2662 -0.1280 -0.3362
  160OSM   H11A17911   4.427   1.620   1.843 -0.2557 -0.3551 -0.1251
  160OSM   H11B17912   4.455   1.668   2.013 -0.1607  0.8126 -0.1379
  160OSM      P17913   4.541   1.911   1.946  0.2824 -0.1766  0.1934
  160OSM    O1317914   4.661   1.846   1.891  0.1788 -0.4836  0.4302
  160OSM    O1417915   4.505   2.050   1.905 -0.5914 -0.2318  0.5331
  160OSM    O1117916   4.535   1.883   2.101  0.0694  0.0224 -0.0383
  160OSM    O1217917   4.420   1.827   1.884  0.2729 -0.1644 -0.1281
  160OSM    C1S17918   4.541   1.986   2.202  0.5990  0.2730  0.0799
  160OSM    H1S17919   4.449   2.047   2.186  0.3713  0.4043  1.6857
  160OSM    H1T17920   4.622   2.062   2.195  0.2888  0.5914 -0.1109
  160OSM     NF17921   4.525   2.044   2.442 -0.2802  0.3382  0.2793
  160OSM    HNF17922   4.607   2.095   2.468  0.8131 -1.4799  0.5596
  160OSM    C2S17923   4.543   1.930   2.347 -0.5788 -0.1248 -0.7788
  160OSM    H2S17924   4.462   1.857   2.371 -0.5467  0.2415  0.5003
  160OSM    C3S17925   4.672   1.845   2.375 -0.2247  0.8451  0.2528
  160OSM    H3S17926   4.761   1.910   2.360 -0.8423  2.1715  1.9886
  160OSM     O317927   4.689   1.730   2.291  0.1129 -0.0799  0.1625
  160OSM    HO317928   4.642   1.743   2.208 -0.2259 -0.4522  0.2932
  160OSM    C4S17929   4.695   1.803   2.517  0.1050  0.5952  0.1050
  160OSM    H4S17930   4.761   1.875   2.568  0.6718  1.2642 -1.5003
  160OSM    C5S17931   4.654   1.692   2.586 -0.0123 -0.1471 -0.4503
  160OSM    H5S17932   4.580   1.628   2.536 -1.6427 -0.1663  1.8540
  160OSM    C6S17933   4.678   1.661   2.732 -0.7163  0.5427 -0.5923
  160OSM    H6S17934   4.787   1.673   2.750 -0.6640  1.0540 -1.2029
  160OSM    H6T17935   4.642   1.556   2.735  1.7841 -0.4629 -2.0205
  160OSM    C7S17936   4.616   1.757   2.840  0.0524  0.8522  0.9736
  160OSM    H7S17937   4.516   1.790   2.807 -0.9528 -1.8520  1.1161
  160OSM    H7T17938   4.680   1.848   2.848  0.3580  0.7555 -0.2314
  160OSM    C8S17939   4.622   1.685   2.977  0.6701  0.0849 -0.2066
  160OSM    H8S17940   4.724   1.646   2.996  0.9368  0.8467 -0.0135
  160OSM    H8T17941   4.550   1.601   2.983 -1.7332  2.0778  0.6818
  160OSM    C9S17942   4.596   1.783   3.091 -0.1838 -0.2640 -0.1571
  160OSM    H9S17943   4.490   1.816   3.095 -0.0986 -0.0709  2.2436
  160OSM    H9T17944   4.662   1.871   3.087 -1.0664  0.4608  0.6446
  160OSM   C10S17945   4.627   1.712   3.226 -0.4063  0.1236 -0.2551
  160OSM   H10S17946   4.736   1.689   3.232 -0.0674  1.6055 -0.1101
  160OSM   H10T17947   4.571   1.617   3.230  2.3188 -1.5503  1.8367
  160OSM   C11S17948   4.581   1.791   3.341  0.2962  0.1240 -0.2016
  160OSM   H11S17949   4.475   1.823   3.340  0.2384 -0.0271  0.4249
  160OSM   H11T17950   4.637   1.887   3.341  2.8702 -1.2688 -0.1333
  160OSM   C12S17951   4.624   1.725   3.473  0.2821  0.2855  0.5229
  160OSM   H12S17952   4.731   1.695   3.469  0.4783  1.0846 -0.7587
  160OSM   H12T17953   4.564   1.632   3.484 -0.3072  0.5850 -0.0945
  160OSM   C13S17954   4.609   1.811   3.599 -0.3773 -0.6540 -0.1790
  160OSM   H13S17955   4.511   1.863   3.596 -0.2763 -0.5020 -1.1531
  160OSM   H13T17956   4.672   1.900   3.582 -3.8380  2.6894  2.7451
  160OSM   C14S17957   4.639   1.740   3.732 -0.0172 -0.2004  0.0785
  160OSM   H14S17958   4.737   1.687   3.734 -0.0310 -0.2067  1.8522
  160OSM   H14T17959   4.560   1.662   3.739 -1.5770  1.0212 -2.4539
  160OSM   C15S17960   4.644   1.837   3.844  0.1762  0.0392  0.1700
  160OSM   H15S17961   4.557   1.906   3.846  0.8083  0.8571 -0.0313
  160OSM   H15T17962   4.734   1.901   3.843  1.4751 -1.6862 -1.7056
  160OSM   C16S17963   4.648   1.761   3.983  0.3358 -0.1107 -0.1010
  160OSM   H16S17964   4.745   1.709   3.994 -0.5872 -2.0729 -0.7650
  160OSM   H16T17965   4.562   1.690   3.980  0.3766 -0.1391 -0.8215
  160OSM   C17S17966   4.641   1.860   4.096 -0.2558  0.2658  0.5886
  160OSM   H17S17967   4.557   1.927   4.066 -1.3514 -1.6610 -0.8962
  160OSM   H17T17968   4.734   1.921   4.099 -0.1754  0.0982  2.6963
  160OSM   C18S17969   4.623   1.801   4.232  0.0436 -0.0432 -0.0176
  160OSM   H18S17970   4.534   1.734   4.227 -0.2887  0.4600 -1.1966
  160OSM   H18T17971   4.617   1.885   4.305 -0.6109 -1.0362  1.0912
  160OSM   H18U17972   4.706   1.736   4.267 -0.5849 -0.3758  0.8945
  160OSM    C1F17973   4.407   2.090   2.482 -0.0764  0.3093 -0.0172
  160OSM     OF17974   4.305   2.071   2.411  0.2406 -0.0184  0.0720
  160OSM    C2F17975   4.410   2.176   2.608  0.9514  0.2152  0.2893
  160OSM    H2F17976   4.305   2.200   2.632 -0.7861 -1.6520 -4.2523
  160OSM    H2G17977   4.459   2.272   2.579 -0.9577  1.8490  2.2048
  160OSM    C3F17978   4.490   2.116   2.725  0.3620 -0.5628 -0.4379
  160OSM    H3F17979   4.596   2.091   2.704  0.7889 -0.4839  1.4301
  160OSM    H3G17980   4.436   2.029   2.768 -0.3069  0.3851  0.6899
  160OSM    C4F17981   4.493   2.215   2.840  0.1590  0.6748 -0.1164
  160OSM    H4F17982   4.391   2.259   2.847 -0.2822  0.0633 -2.0633
  160OSM    H4G17983   4.560   2.298   2.809  0.1595  0.0083 -2.0522
  160OSM    C5F17984   4.553   2.170   2.975  0.8701  0.2273  0.0052
  160OSM    H5F17985   4.644   2.107   2.972  1.6125  1.1954  1.1317
  160OSM    H5G17986   4.480   2.097   3.014  2.1629 -0.5435  1.0555
  160OSM    C6F17987   4.587   2.281   3.070  0.6527  0.4975  0.4731
  160OSM    H6F17988   4.511   2.362   3.067 -1.9073 -1.8086 -0.4947
  160OSM    H6G17989   4.686   2.327   3.047  0.2002  0.5675 -1.5375
  160OSM    C7F17990   4.598   2.233   3.218 -0.8052  0.9540 -0.6177
  160OSM    H7F17991   4.695   2.179   3.223 -2.0704 -1.3680  2.1364
  160OSM    H7G17992   4.538   2.144   3.247  0.5218  0.6711  1.4824
  160OSM    C8F17993   4.583   2.341   3.315  0.3072 -0.2677 -0.0583
  160OSM    H8F17994   4.476   2.367   3.305  0.6172  0.2825 -2.7836
  160OSM    H8G17995   4.637   2.436   3.293 -1.6529  1.0197  0.4282
  160OSM    C9F17996   4.608   2.303   3.457  1.1382 -0.0881  0.3606
  160OSM    H9F17997   4.708   2.329   3.493  0.5301  1.1985  1.1637
  160OSM   C10F17998   4.514   2.267   3.547  0.7636 -1.0697  0.5227
  160OSM   H10F17999   4.540   2.272   3.654 -0.0968  2.0757  0.6619
  160OSM   C11F18000   4.368   2.247   3.520 -0.9782 -0.3630 -0.1227
  160OSM   H11F18001   4.346   2.144   3.483 -1.3385 -0.6002  0.7185
  160OSM   H11G18002   4.330   2.318   3.444  0.1350 -0.2218 -0.5604
  160OSM   C12F18003   4.276   2.284   3.642  0.3708 -0.2359 -0.2405
  160OSM   H12F18004   4.298   2.215   3.726 -0.6816  0.5326  0.6982
  160OSM   H12G18005   4.176   2.264   3.599 -0.6598  2.4303  0.7174
  160OSM   C13F18006   4.311   2.430   3.689  0.4502  0.0643  0.4922
  160OSM   H13F18007   4.337   2.489   3.599  0.1694  0.6038  0.7539
  160OSM   H13G18008   4.403   2.436   3.751  1.0913 -0.1304 -0.4314
  160OSM   C14F18009   4.192   2.486   3.777 -0.3743 -0.4114  0.4695
  160OSM   H14F18010   4.178   2.423   3.868  1.1866 -1.7627 -0.1657
  160OSM   H14G18011   4.103   2.474   3.712  0.6040  1.3084 -1.2789
  160OSM   C15F18012   4.211   2.636   3.816 -0.0129  0.9095  0.4419
  160OSM   H15F18013   4.110   2.673   3.845  0.8827  3.0125  1.1029
  160OSM   H15G18014   4.241   2.691   3.724 -2.6466  0.5804 -0.7069
  160OSM   C16F18015   4.325   2.653   3.930 -0.0133 -0.7485  0.2837
  160OSM   H16F18016   4.412   2.605   3.881 -1.3298 -0.4085 -2.6125
  160OSM   H16G18017   4.287   2.593   4.014 -1.7846 -0.1068 -0.0228
  160OSM   C17F18018   4.355   2.803   3.967 -0.6234  0.0367  0.2068
  160OSM   H17F18019   4.369   2.861   3.874  1.0798 -2.5903 -1.2994
  160OSM   H17G18020   4.452   2.804   4.021 -0.5054  1.2851 -0.0172
  160OSM   C18F18021   4.262   2.874   4.069  0.4281 -0.9695 -1.1093
  160OSM   H18F18022   4.157   2.844   4.049 -1.0560  3.0939 -0.5003
  160OSM   H18G18023   4.263   2.982   4.044 -1.6057 -0.9319 -1.1892
  160OSM   H18H18024   4.287   2.858   4.176  1.8200  0.7440 -1.1358
  161OSM      N18025   1.774   0.129   1.314 -0.1747  1.3521  0.1428
  161OSM    C1518026   1.718   0.153   1.449  0.2412 -0.6360 -0.4978
  161OSM   H15A18027   1.620   0.114   1.473 -0.0916  0.5093  0.0387
  161OSM   H15B18028   1.711   0.259   1.464  0.3747 -0.2646 -2.6620
  161OSM   H15C18029   1.784   0.126   1.529 -1.7599  0.7804  1.7612
  161OSM    C1418030   1.821  -0.014   1.308 -0.5038 -0.0373  0.0484
  161OSM   H14A18031   1.877  -0.032   1.218  0.0105 -0.0534  0.3692
  161OSM   H14B18032   1.735  -0.080   1.312 -2.0153  1.8694  0.5587
  161OSM   H14C18033   1.889  -0.026   1.391  0.6224  1.2421 -0.6506
  161OSM    C1318034   1.672   0.156   1.220  0.2030  0.2476  0.2928
  161OSM   H13A18035   1.584   0.094   1.232 -0.2087  0.4824 -1.2297
  161OSM   H13B18036   1.711   0.132   1.122  2.0904 -1.3657  1.3652
  161OSM   H13C18037   1.651   0.261   1.215  0.2524  0.2463 -3.8562
  161OSM    C1218038   1.893   0.215   1.288 -0.6337  0.7520  0.2004
  161OSM   H12A18039   1.919   0.204   1.184 -0.6490 -1.2335  0.3730
  161OSM   H12B18040   1.978   0.181   1.346 -1.0004  0.6566  0.6991
  161OSM    C1118041   1.874   0.364   1.320  1.3559 -0.2571  0.2214
  161OSM   H11A18042   1.969   0.414   1.289 -0.7623  2.3523 -2.7409
  161OSM   H11B18043   1.852   0.367   1.429 -2.0241 -0.7558 -0.3336
  161OSM      P18044   1.647   0.511   1.302  0.2806 -0.6449 -0.2719
  161OSM    O1318045   1.676   0.654   1.285  0.2713  0.4516 -0.8888
  161OSM    O1418046   1.531   0.458   1.234  0.6361 -0.2295 -0.1894
  161OSM    O1118047   1.642   0.488   1.461  0.2347  0.1860 -0.2041
  161OSM    O1218048   1.768   0.427   1.246 -0.5157 -0.1142 -0.0149
  161OSM    C1S18049   1.728   0.562   1.560 -0.4203  0.2723 -0.1451
  161OSM    H1S18050   1.728   0.671   1.543 -3.5704  0.1475 -1.4846
  161OSM    H1T18051   1.831   0.518   1.561 -0.9725 -1.1494  2.6578
  161OSM     NF18052   1.735   0.618   1.797  0.1075 -0.1342  0.5120
  161OSM    HNF18053   1.794   0.560   1.853 -1.2027 -0.6685  1.3748
  161OSM    C2S18054   1.662   0.546   1.695 -0.2929  0.0598 -0.3143
  161OSM    H2S18055   1.564   0.600   1.693 -0.8771 -0.9189  0.7755
  161OSM    C3S18056   1.619   0.397   1.722  0.7307  0.0542  0.6379
  161OSM    H3S18057   1.714   0.340   1.704  0.4455 -0.8718  1.9004
  161OSM     O318058   1.511   0.350   1.645 -0.3613  0.1627  0.3491
  161OSM    HO318059   1.510   0.412   1.572  0.3045 -0.8636 -0.5660
  161OSM    C4S18060   1.571   0.376   1.862 -0.2624 -0.6148  0.7845
  161OSM    H4S18061   1.481   0.434   1.887  0.2863 -0.3687  2.2740
  161OSM    C5S18062   1.632   0.291   1.946  0.4423 -0.4155  0.5092
  161OSM    H5S18063   1.721   0.230   1.922  0.2532 -1.1679  1.6361
  161OSM    C6S18064   1.589   0.270   2.087 -0.0576 -0.3779  0.0799
  161OSM    H6S18065   1.559   0.164   2.099 -2.5017  0.1201 -1.1003
  161OSM    H6T18066   1.501   0.333   2.113  1.0249  0.2062  2.7122
  161OSM    C7S18067   1.694   0.319   2.188  0.3918  0.5708 -0.6226
  161OSM    H7S18068   1.698   0.429   2.172 -0.8312  0.9731  1.3831
  161OSM    H7T18069   1.794   0.277   2.165  0.4870  0.0117  0.7171
  161OSM    C8S18070   1.666   0.295   2.335  0.1445  0.3839 -0.3826
  161OSM    H8S18071   1.744   0.347   2.395 -0.6559  1.2590 -0.0762
  161OSM    H8T18072   1.686   0.187   2.355 -0.4930  0.0583 -1.4043
  161OSM    C9S18073   1.527   0.322   2.389 -0.0643  0.6310 -0.1234
  161OSM    H9S18074   1.460   0.252   2.335  0.0204  0.9112 -0.6017
  161OSM    H9T18075   1.487   0.415   2.343  1.1902  1.6481  0.7625
  161OSM   C10S18076   1.517   0.331   2.538  0.2018 -0.0339 -0.3918
  161OSM   H10S18077   1.414   0.369   2.558  0.6290  0.0748  1.8561
  161OSM   H10T18078   1.587   0.409   2.575  0.7653 -0.4116 -0.6510
  161OSM   C11S18079   1.542   0.206   2.620  0.6439 -0.3505 -0.5551
  161OSM   H11S18080   1.648   0.176   2.611  0.4206 -1.0149 -1.1920
  161OSM   H11T18081   1.475   0.135   2.565  0.5636 -1.1805  0.5902
  161OSM   C12S18082   1.503   0.239   2.766  0.3165  0.0363 -0.3756
  161OSM   H12S18083   1.393   0.258   2.770  0.3680  1.7044 -3.4145
  161OSM   H12T18084   1.551   0.336   2.791  1.3096 -0.4210 -0.4990
  161OSM   C13S18085   1.542   0.132   2.865 -0.3593  0.2422 -0.1461
  161OSM   H13S18086   1.650   0.111   2.851 -0.2417 -0.6920  1.8234
  161OSM   H13T18087   1.492   0.034   2.847 -1.5202  0.2800  2.4539
  161OSM   C14S18088   1.529   0.170   3.012 -0.1350  0.0912 -0.3280
  161OSM   H14S18089   1.423   0.201   3.026 -0.8668 -1.4837 -1.9263
  161OSM   H14T18090   1.596   0.258   3.024 -0.6563  0.6882 -1.5777
  161OSM   C15S18091   1.560   0.054   3.112  0.0416 -0.3712  0.0517
  161OSM   H15S18092   1.659   0.013   3.081  0.7064  1.6501 -0.6571
  161OSM   H15T18093   1.497  -0.037   3.100  3.0058 -2.9368  2.1607
  161OSM   C16S18094   1.541   0.082   3.266 -0.1405 -0.2072 -0.1497
  161OSM   H16S18095   1.435   0.112   3.281 -0.2005 -0.4630 -0.0600
  161OSM   H16T18096   1.605   0.172   3.282 -1.8485  1.3289 -1.5505
  161OSM   C17S18097   1.586  -0.038   3.346 -0.5874  0.0568 -0.0488
  161OSM   H17S18098   1.671  -0.079   3.288 -0.5895 -0.6163  0.4129
  161OSM   H17T18099   1.518  -0.125   3.359  1.9033 -2.0331 -0.1950
  161OSM   C18S18100   1.640  -0.001   3.489  0.2229 -0.6616 -0.8492
  161OSM   H18S18101   1.542   0.036   3.526  0.3708 -0.1418 -0.9672
  161OSM   H18T18102   1.721   0.075   3.492 -0.1141 -0.3211  1.4702
  161OSM   H18U18103   1.684  -0.095   3.527  0.0519 -0.3715  0.0897
  161OSM    C1F18104   1.753   0.756   1.801  0.6226  0.2067 -0.2780
  161OSM     OF18105   1.684   0.835   1.747  0.4766 -0.4235  0.0763
  161OSM    C2F18106   1.872   0.801   1.887  0.6155  0.4962 -0.5348
  161OSM    H2F18107   1.917   0.887   1.833  0.0026  0.7239 -0.6970
  161OSM    H2G18108   1.948   0.721   1.879 -2.0379 -2.1998 -0.7558
  161OSM    C3F18109   1.845   0.853   2.031 -0.3347  0.4723 -0.0836
  161OSM    H3F18110   1.784   0.947   2.031 -0.3190  0.4843 -0.3927
  161OSM    H3G18111   1.938   0.889   2.081 -0.0229  2.7100 -2.0639
  161OSM    C4F18112   1.778   0.756   2.124 -0.0361 -0.2668  0.1425
  161OSM    H4F18113   1.840   0.710   2.204 -0.9737 -0.1191  0.9837
  161OSM    H4G18114   1.755   0.664   2.066  0.4461  0.3983 -1.1427
  161OSM    C5F18115   1.664   0.833   2.205  0.2023  0.3233 -0.0782
  161OSM    H5F18116   1.578   0.857   2.138 -1.6425  0.3201  2.1735
  161OSM    H5G18117   1.703   0.934   2.231 -0.0067  0.5643 -0.6678
  161OSM    C6F18118   1.621   0.760   2.327 -0.2245  0.3787  0.0361
  161OSM    H6F18119   1.703   0.756   2.402 -0.4923 -0.3428  0.2942
  161OSM    H6G18120   1.598   0.652   2.316  0.5707 -0.0519  2.0878
  161OSM    C7F18121   1.494   0.819   2.390  0.4006 -0.4201  0.2144
  161OSM    H7F18122   1.416   0.810   2.311  1.0823  1.8717 -0.7951
  161OSM    H7G18123   1.518   0.927   2.400 -0.7089 -0.2945  1.7025
  161OSM    C8F18124   1.434   0.736   2.508  0.0276  0.0833 -0.5885
  161OSM    H8F18125   1.515   0.701   2.576 -2.9766 -0.5081  2.9790
  161OSM    H8G18126   1.382   0.648   2.465  0.3342 -0.6342  0.4592
  161OSM    C9F18127   1.341   0.824   2.589 -0.1396 -0.5913 -0.2756
  161OSM    H9F18128   1.280   0.896   2.533 -0.0937  1.7515  2.4798
  161OSM   C10F18129   1.342   0.831   2.721 -0.6485 -0.5271  0.3974
  161OSM   H10F18130   1.281   0.903   2.778  1.6403  1.5413  0.3860
  161OSM   C11F18131   1.417   0.744   2.820  0.3983 -0.6411 -0.2717
  161OSM   H11F18132   1.507   0.803   2.847 -1.4003  2.2282 -0.1266
  161OSM   H11G18133   1.458   0.653   2.771 -1.4157 -0.7557 -1.6688
  161OSM   C12F18134   1.334   0.719   2.946  0.3694 -0.5708 -0.3011
  161OSM   H12F18135   1.232   0.680   2.923 -0.3774  0.6313  0.8408
  161OSM   H12G18136   1.320   0.807   3.013  0.5513  0.1002 -1.1347
  161OSM   C13F18137   1.406   0.609   3.042  0.4510  0.4041 -0.0992
  161OSM   H13F18138   1.511   0.643   3.051  0.4072  0.7156 -0.7070
  161OSM   H13G18139   1.404   0.514   2.984  0.4988  1.4494 -1.8992
  161OSM   C14F18140   1.332   0.602   3.178  0.3967  0.0498  0.1258
  161OSM   H14F18141   1.231   0.558   3.171 -0.2994  1.4166  1.0721
  161OSM   H14G18142   1.315   0.700   3.228 -0.2968 -0.0491  0.0845
  161OSM   C15F18143   1.410   0.508   3.272  0.7841 -0.6810 -0.0773
  161OSM   H15F18144   1.512   0.550   3.278 -0.2572  2.0313  0.2693
  161OSM   H15G18145   1.404   0.407   3.227  0.0190 -1.0012  0.7123
  161OSM   C16F18146   1.343   0.487   3.403  0.0144 -0.0013 -0.3221
  161OSM   H16F18147   1.233   0.470   3.404 -0.0292  0.3076  0.1060
  161OSM   H16G18148   1.358   0.574   3.469 -1.0278 -1.0985  1.4428
  161OSM   C17F18149   1.407   0.370   3.482  0.7463 -0.0213 -0.6533
  161OSM   H17F18150   1.518   0.372   3.480  0.8402 -0.2803  1.8872
  161OSM   H17G18151   1.367   0.274   3.443 -1.8890  0.5465  0.4755
  161OSM   C18F18152   1.362   0.363   3.630  0.1234  0.1323  0.0464
  161OSM   H18F18153   1.424   0.285   3.680 -0.3341  0.8355  1.8132
  161OSM   H18G18154   1.254   0.344   3.647  0.4511  0.2490  2.6611
  161OSM   H18H18155   1.381   0.460   3.682  3.2848 -0.0924 -0.4580
  162OSM      N18156   2.917   1.417   1.864  0.1427 -0.4787 -0.1009
  162OSM    C1518157   3.041   1.375   1.796 -0.2757  0.4065  0.1717
  162OSM   H15A18158   3.093   1.446   1.733  3.5648 -0.5122  2.0166
  162OSM   H15B18159   3.035   1.281   1.743  1.2124  0.1447  0.4256
  162OSM   H15C18160   3.113   1.348   1.872 -0.0807 -0.8605 -0.4273
  162OSM    C1418161   2.938   1.546   1.932 -0.4217  0.5665  0.5441
  162OSM   H14A18162   3.015   1.537   2.007 -0.2432 -0.5714  0.2355
  162OSM   H14B18163   2.854   1.585   1.988 -0.4280 -1.5700  2.1396
  162OSM   H14C18164   2.964   1.623   1.860  1.3615 -0.8952 -0.4755
  162OSM    C1318165   2.802   1.432   1.761  0.4805  0.3845  0.4410
  162OSM   H13A18166   2.770   1.331   1.739  0.1262 -0.2200  3.3815
  162OSM   H13B18167   2.836   1.485   1.673 -0.2420 -0.9109 -0.6706
  162OSM   H13C18168   2.713   1.483   1.795 -1.1877 -1.9780 -0.0941
  162OSM    C1218169   2.884   1.301   1.964  0.3489  0.6998  0.0164
  162OSM   H12A18170   2.893   1.201   1.924  0.9607  1.0731 -0.7865
  162OSM   H12B18171   2.780   1.314   1.990 -0.4771  0.3417 -2.7972
  162OSM    C1118172   2.961   1.292   2.098  0.1272  0.4190 -0.1095
  162OSM   H11A18173   2.921   1.209   2.160  0.0278 -0.0461 -0.7784
  162OSM   H11B18174   2.931   1.378   2.161 -1.9064  0.0148 -0.4608
  162OSM      P18175   3.218   1.371   2.147  0.2306  0.2734  0.0937
  162OSM    O1318176   3.347   1.336   2.082 -0.2560  0.1763 -0.1597
  162OSM    O1418177   3.173   1.513   2.125 -0.4953 -0.1229 -0.1468
  162OSM    O1118178   3.218   1.337   2.304  0.2080  0.4081 -0.3037
  162OSM    O1218179   3.100   1.272   2.090 -0.0733 -0.4618 -0.6016
  162OSM    C1S18180   3.125   1.391   2.404 -0.0878 -0.0037  0.3897
  162OSM    H1S18181   3.021   1.355   2.388  0.3587 -0.9209 -0.5078
  162OSM    H1T18182   3.126   1.502   2.408  1.4940 -0.0159  1.1660
  162OSM     NF18183   3.059   1.393   2.645 -0.6744  0.0047  0.1491
  162OSM    HNF18184   3.067   1.489   2.669  0.5192 -0.1166  0.2626
  162OSM    C2S18185   3.163   1.347   2.557 -0.0217 -0.3790  0.2317
  162OSM    H2S18186   3.154   1.236   2.557 -1.9778 -0.2758 -1.0459
  162OSM    C3S18187   3.302   1.407   2.586  0.0083  0.6633 -0.4417
  162OSM    H3S18188   3.297   1.518   2.588  1.6553  0.7566  0.2529
  162OSM     O318189   3.398   1.379   2.488 -0.4780  0.5442 -0.1684
  162OSM    HO318190   3.344   1.367   2.409  0.8497  0.3614 -1.0867
  162OSM    C4S18191   3.363   1.359   2.712  0.0544 -0.1605  0.0556
  162OSM    H4S18192   3.368   1.250   2.727  0.5573  0.0782  1.8361
  162OSM    C5S18193   3.425   1.437   2.804 -0.4097  0.1942 -0.2474
  162OSM    H5S18194   3.434   1.545   2.786  0.9015  0.2393  0.5455
  162OSM    C6S18195   3.496   1.371   2.929  0.3438 -0.0803 -0.0902
  162OSM    H6S18196   3.595   1.418   2.949  0.0572  0.9277 -0.9805
  162OSM    H6T18197   3.507   1.260   2.922  1.4649 -0.0521  0.9344
  162OSM    C7S18198   3.415   1.385   3.064 -0.5408  0.0401 -0.1005
  162OSM    H7S18199   3.454   1.318   3.144 -1.4004 -2.6037 -1.7551
  162OSM    H7T18200   3.318   1.337   3.039 -0.9768  0.4932  0.6826
  162OSM    C8S18201   3.388   1.526   3.114  0.0279  0.8283 -0.3977
  162OSM    H8S18202   3.283   1.548   3.144 -0.3182 -0.8834 -0.2792
  162OSM    H8T18203   3.416   1.602   3.038 -0.8873  1.9071  0.3145
  162OSM    C9S18204   3.472   1.570   3.232  0.5071 -0.0514  0.1782
  162OSM    H9S18205   3.580   1.549   3.213 -0.2512 -3.8458 -0.9295
  162OSM    H9T18206   3.454   1.505   3.320  0.7813  0.7294  0.8249
  162OSM   C10S18207   3.453   1.724   3.267  0.3754 -0.4577 -0.6145
  162OSM   H10S18208   3.440   1.784   3.174 -1.9752  1.0975  0.6155
  162OSM   H10T18209   3.535   1.763   3.330 -0.4397  1.2130 -0.5473
  162OSM   C11S18210   3.317   1.740   3.336  0.4321 -0.3132 -0.1146
  162OSM   H11S18211   3.240   1.685   3.277  1.7044 -2.0971 -0.1734
  162OSM   H11T18212   3.312   1.850   3.327  4.2977 -0.0747 -1.0597
  162OSM   C12S18213   3.320   1.688   3.480  0.6136 -0.6390  0.0214
  162OSM   H12S18214   3.372   1.590   3.490  0.7033 -0.5616  0.3306
  162OSM   H12T18215   3.216   1.671   3.514 -1.0347  1.6604 -3.3206
  162OSM   C13S18216   3.394   1.781   3.579  0.4435 -0.3795  0.6463
  162OSM   H13S18217   3.336   1.876   3.573 -0.4160 -0.8790  0.7929
  162OSM   H13T18218   3.502   1.794   3.560  0.2123 -0.8544 -1.2315
  162OSM   C14S18219   3.388   1.730   3.724 -0.4680 -0.5986 -0.1577
  162OSM   H14S18220   3.439   1.631   3.726  1.2227  0.2321 -0.4864
  162OSM   H14T18221   3.282   1.712   3.753 -1.0213 -1.3221 -2.4291
  162OSM   C15S18222   3.454   1.820   3.829  0.2602 -0.0302 -0.8756
  162OSM   H15S18223   3.544   1.869   3.785  0.3546  2.5596  1.8945
  162OSM   H15T18224   3.489   1.755   3.912 -1.3436  1.0476  0.7131
  162OSM   C16S18225   3.359   1.927   3.885 -0.2951  0.4138 -0.3944
  162OSM   H16S18226   3.268   1.875   3.922  0.2236 -0.1385  0.1356
  162OSM   H16T18227   3.316   2.002   3.816  0.6634  1.4849  0.1429
  162OSM   C17S18228   3.416   2.021   3.999 -0.0047  0.5968  0.3019
  162OSM   H17S18229   3.343   2.098   4.029 -1.3996 -0.2642 -0.7657
  162OSM   H17T18230   3.503   2.070   3.948 -0.5463  0.8806 -0.3669
  162OSM   C18S18231   3.469   1.947   4.117  0.1770  0.2403  0.0890
  162OSM   H18S18232   3.456   1.837   4.104 -1.0952  0.4360 -0.4450
  162OSM   H18T18233   3.404   1.968   4.205 -0.4081 -0.4908 -0.1619
  162OSM   H18U18234   3.577   1.969   4.130 -0.0449  1.3176  0.2163
  162OSM    C1F18235   2.936   1.339   2.646 -0.4363 -0.4493  0.2649
  162OSM     OF18236   2.917   1.237   2.588  0.1625  0.2014 -1.0172
  162OSM    C2F18237   2.831   1.429   2.706  0.3344 -0.2177  0.8355
  162OSM    H2F18238   2.793   1.500   2.629 -2.4063 -1.3811  0.9766
  162OSM    H2G18239   2.863   1.477   2.801 -1.1998  1.3453  0.6218
  162OSM    C3F18240   2.710   1.350   2.759  0.3067 -1.1322 -0.3660
  162OSM    H3F18241   2.689   1.271   2.685 -0.0162  0.6967 -2.3248
  162OSM    H3G18242   2.624   1.419   2.778  0.9565 -0.3707 -0.1339
  162OSM    C4F18243   2.753   1.275   2.887  0.3123 -0.3544 -0.9323
  162OSM    H4F18244   2.810   1.345   2.951 -0.5947 -0.5910  0.1712
  162OSM    H4G18245   2.814   1.183   2.872 -0.9879 -1.6552  1.1007
  162OSM    C5F18246   2.621   1.220   2.959 -0.7305 -0.6612  0.1512
  162OSM    H5F18247   2.591   1.150   2.878  0.8190 -1.1563 -0.0298
  162OSM    H5G18248   2.548   1.302   2.973  1.6466  1.7976 -0.8515
  162OSM    C6F18249   2.648   1.149   3.098 -0.2910  0.1533  0.2603
  162OSM    H6F18250   2.689   1.228   3.165 -0.6629  1.6071 -1.1694
  162OSM    H6G18251   2.720   1.068   3.071 -0.1025  1.2219 -2.8604
  162OSM    C7F18252   2.527   1.073   3.158  0.1632 -0.8644  0.3190
  162OSM    H7F18253   2.471   1.018   3.079 -3.0124  1.1686  0.9589
  162OSM    H7G18254   2.448   1.146   3.185  0.8643 -0.5993  1.7194
  162OSM    C8F18255   2.569   0.987   3.276  0.4480  0.3285  0.2363
  162OSM    H8F18256   2.652   1.040   3.327  1.4555 -0.3878 -0.5809
  162OSM    H8G18257   2.610   0.886   3.250 -1.5319 -0.7201  0.9655
  162OSM    C9F18258   2.458   0.975   3.376 -0.2834 -0.0638  0.7761
  162OSM    H9F18259   2.377   0.903   3.354  0.1914 -0.1934 -0.6422
  162OSM   C10F18260   2.431   1.058   3.475 -0.2917 -0.3158 -0.2674
  162OSM   H10F18261   2.341   1.042   3.536  0.2718 -0.3910  0.5704
  162OSM   C11F18262   2.502   1.188   3.522  0.8153 -0.0578  0.3776
  162OSM   H11F18263   2.421   1.261   3.547  0.8299 -0.1533  0.7046
  162OSM   H11G18264   2.559   1.244   3.445 -1.8334  2.5579  0.1017
  162OSM   C12F18265   2.581   1.185   3.651  0.3234  1.1675 -0.1053
  162OSM   H12F18266   2.636   1.281   3.648  3.1079 -0.2178  1.7288
  162OSM   H12G18267   2.665   1.112   3.655 -0.5204  0.2186  2.9964
  162OSM   C13F18268   2.500   1.175   3.774 -1.1064  0.0211  0.1085
  162OSM   H13F18269   2.440   1.082   3.782  1.3127 -1.5709  0.7991
  162OSM   H13G18270   2.434   1.264   3.785  2.3069  2.5285  3.0360
  162OSM   C14F18271   2.584   1.178   3.901  0.0930  0.0429 -0.3075
  162OSM   H14F18272   2.520   1.199   3.990  1.3341 -0.0331  0.6331
  162OSM   H14G18273   2.648   1.267   3.915 -2.2773  1.5871  1.5595
  162OSM   C15F18274   2.664   1.048   3.924 -0.0795  0.4225 -0.2359
  162OSM   H15F18275   2.772   1.074   3.925 -0.2733  1.3780 -1.4443
  162OSM   H15G18276   2.649   0.981   3.836  0.8401 -1.1159  0.7350
  162OSM   C16F18277   2.628   0.965   4.051  0.3940  0.7960  0.6666
  162OSM   H16F18278   2.659   0.859   4.042  0.6473  1.0806 -3.6728
  162OSM   H16G18279   2.517   0.970   4.061 -0.0308  1.9071 -3.2275
  162OSM   C17F18280   2.698   1.000   4.178 -0.0057 -0.2199 -0.4904
  162OSM   H17F18281   2.671   1.105   4.204  0.9597 -0.3845  1.3608
  162OSM   H17G18282   2.804   0.992   4.148  0.4059 -2.4517  1.2909
  162OSM   C18F18283   2.662   0.917   4.306 -0.2295 -0.5080  0.8709
  162OSM   H18F18284   2.706   0.817   4.287  1.2477  0.6216 -2.3935
  162OSM   H18G18285   2.552   0.897   4.307  0.0915 -2.4554  0.7453
  162OSM   H18H18286   2.694   0.966   4.400  0.8485  0.9300 -0.2044
  163OSM      N18287   0.206   0.090   1.232 -0.4291 -0.0094  0.0981
  163OSM    C1518288   0.171  -0.013   1.132 -0.1108  0.4991  0.3441
  163OSM   H15A18289   0.142  -0.104   1.183 -0.8413  1.2839  1.3519
  163OSM   H15B18290   0.245  -0.034   1.056 -0.4413 -0.8013  0.3582
  163OSM   H15C18291   0.079   0.023   1.087 -0.9469 -0.4684  1.2330
  163OSM    C1418292   0.232   0.220   1.158 -0.1713  0.3116  0.1464
  163OSM   H14A18293   0.316   0.213   1.090 -0.6670 -1.1563 -0.3629
  163OSM   H14B18294   0.252   0.297   1.231 -1.4565  0.3526  0.4808
  163OSM   H14C18295   0.144   0.235   1.097  0.9900  1.8718 -1.2274
  163OSM    C1318296   0.090   0.111   1.323  0.9253  0.0511 -0.4065
  163OSM   H13A18297   0.049   0.022   1.369 -0.9429  0.9887 -0.1450
  163OSM   H13B18298   0.004   0.157   1.276  1.3739  0.5620 -0.7429
  163OSM   H13C18299   0.113   0.178   1.404 -0.5198 -0.4498  0.4563
  163OSM    C1218300   0.333   0.047   1.307 -0.3501 -0.0153  0.2419
  163OSM   H12A18301   0.415   0.044   1.237 -0.0167  1.9158  0.4845
  163OSM   H12B18302   0.324  -0.055   1.342 -0.9715 -1.1914 -2.9753
  163OSM    C1118303   0.367   0.134   1.418  0.4252  0.3349 -0.0059
  163OSM   H11A18304   0.449   0.072   1.458 -0.3142  0.1322  1.2578
  163OSM   H11B18305   0.285   0.137   1.493  0.2539  0.5069 -0.1997
  163OSM      P18306   0.557   0.309   1.370 -0.4207  0.1085 -0.1575
  163OSM    O1318307   0.630   0.195   1.312  0.1415  0.2143 -0.3035
  163OSM    O1418308   0.569   0.437   1.293  0.3112  1.2265 -0.1334
  163OSM    O1118309   0.610   0.335   1.515 -0.3787 -0.1757 -0.4040
  163OSM    O1218310   0.406   0.265   1.381  0.1363 -0.0136  0.6152
  163OSM    C1S18311   0.519   0.376   1.618 -0.0229 -0.4127 -0.3527
  163OSM    H1S18312   0.410   0.359   1.605 -1.2153  4.5857  0.9309
  163OSM    H1T18313   0.530   0.486   1.629 -0.7582 -0.3469 -0.2386
  163OSM     NF18314   0.467   0.359   1.871 -0.0927 -0.1917  0.3128
  163OSM    HNF18315   0.501   0.424   1.938  0.3694 -0.1109  0.0062
  163OSM    C2S18316   0.556   0.323   1.764 -0.0060  1.3001 -0.3709
  163OSM    H2S18317   0.544   0.213   1.752 -0.7717  1.4768 -1.4619
  163OSM    C3S18318   0.709   0.350   1.793 -0.3665 -0.5877 -0.0700
  163OSM    H3S18319   0.728   0.459   1.806 -1.2245 -0.3983 -0.3344
  163OSM     O318320   0.802   0.308   1.690  0.9118  0.0315 -0.6187
  163OSM    HO318321   0.743   0.271   1.624 -0.9887 -0.5314  1.2627
  163OSM    C4S18322   0.746   0.280   1.916 -0.3098  0.0535 -0.0643
  163OSM    H4S18323   0.741   0.172   1.900 -3.2584  0.2208 -0.8055
  163OSM    C5S18324   0.788   0.331   2.038  0.6332 -0.0760 -0.2617
  163OSM    H5S18325   0.806   0.439   2.049  2.4041 -0.6247  3.5298
  163OSM    C6S18326   0.823   0.236   2.143 -1.0992 -0.2282 -0.1046
  163OSM    H6S18327   0.929   0.247   2.175 -1.2772  0.0477  0.4125
  163OSM    H6T18328   0.818   0.132   2.104  0.5359 -0.5965  0.5829
  163OSM    C7S18329   0.741   0.244   2.279  0.2942 -0.3294  0.3143
  163OSM    H7S18330   0.631   0.240   2.260  0.5831 -2.9155 -1.3766
  163OSM    H7T18331   0.774   0.344   2.312  1.0242 -0.3627 -0.2751
  163OSM    C8S18332   0.777   0.136   2.384  0.4996  0.5777  0.3822
  163OSM    H8S18333   0.887   0.130   2.392  0.7217 -0.9871 -2.4951
  163OSM    H8T18334   0.740   0.035   2.356 -2.1778  0.7860  2.6832
  163OSM    C9S18335   0.708   0.146   2.522  0.1605 -0.3998  0.1523
  163OSM    H9S18336   0.600   0.155   2.498 -0.4274  1.1105  2.8767
  163OSM    H9T18337   0.723   0.241   2.578 -1.8129 -0.7483  1.3881
  163OSM   C10S18338   0.736   0.029   2.615 -0.0411 -0.7242 -0.3420
  163OSM   H10S18339   0.847   0.034   2.624 -0.1422  1.4047  0.3442
  163OSM   H10T18340   0.692  -0.066   2.579 -1.1350 -0.2628 -0.2779
  163OSM   C11S18341   0.682   0.059   2.758  0.5626 -0.2530 -0.1776
  163OSM   H11S18342   0.574   0.037   2.773  1.0245 -0.1924  4.6560
  163OSM   H11T18343   0.696   0.163   2.794  0.6512 -1.2645  2.9655
  163OSM   C12S18344   0.749  -0.044   2.860  0.4508 -0.9072  0.6369
  163OSM   H12S18345   0.858  -0.023   2.869  0.5803  0.6819 -2.8946
  163OSM   H12T18346   0.728  -0.143   2.814 -0.7156 -0.8885  1.1041
  163OSM   C13S18347   0.676  -0.043   2.995  1.0113  0.0142 -0.3655
  163OSM   H13S18348   0.567  -0.065   2.989  0.6851 -0.3074  3.8922
  163OSM   H13T18349   0.679   0.060   3.037 -0.8374  0.2514 -0.7308
  163OSM   C14S18350   0.737  -0.147   3.093 -0.0491 -0.1277  0.9855
  163OSM   H14S18351   0.844  -0.124   3.107  0.1921 -0.2170 -0.5497
  163OSM   H14T18352   0.725  -0.248   3.048 -0.4129 -0.3454  1.5658
  163OSM   C15S18353   0.663  -0.147   3.227  0.3121  0.5009  0.1300
  163OSM   H15S18354   0.553  -0.145   3.211 -0.0451  0.8199  2.3097
  163OSM   H15T18355   0.692  -0.052   3.278  1.1356  0.8577 -0.9771
  163OSM   C16S18356   0.691  -0.263   3.323 -0.0017 -0.0885  0.5881
  163OSM   H16S18357   0.794  -0.297   3.297 -0.2600  0.8701 -1.9633
  163OSM   H16T18358   0.634  -0.353   3.293  0.1142  0.1223 -0.3197
  163OSM   C17S18359   0.673  -0.230   3.465 -0.4792  0.5232  0.0967
  163OSM   H17S18360   0.565  -0.219   3.487 -0.3941  3.7471 -0.5814
  163OSM   H17T18361   0.708  -0.127   3.487  0.6645 -0.0824  1.2527
  163OSM   C18S18362   0.740  -0.333   3.557 -0.0621  0.1670  0.2743
  163OSM   H18S18363   0.746  -0.289   3.659 -0.9852  0.7218  0.0923
  163OSM   H18T18364   0.839  -0.360   3.515  0.0250 -0.2105  0.7136
  163OSM   H18U18365   0.672  -0.421   3.563 -1.7497  1.2118 -2.2391
  163OSM    C1F18366   0.339   0.308   1.878 -0.0621 -0.9861  1.3664
  163OSM     OF18367   0.301   0.221   1.801  0.2751  0.1195  0.2311
  163OSM    C2F18368   0.251   0.365   1.984 -0.3551 -0.0345 -0.6170
  163OSM    H2F18369   0.193   0.443   1.931 -0.7509  0.5645  0.6489
  163OSM    H2G18370   0.308   0.418   2.064 -1.8268 -2.6051  2.3430
  163OSM    C3F18371   0.164   0.259   2.050  0.0518  0.2005 -0.0914
  163OSM    H3F18372   0.218   0.177   2.103 -2.4258 -0.8028  1.0333
  163OSM    H3G18373   0.113   0.196   1.975 -1.0538 -0.6271  1.3000
  163OSM    C4F18374   0.053   0.319   2.135 -1.1127 -0.2782  0.9233
  163OSM    H4F18375  -0.023   0.239   2.150  0.0597 -1.5761  0.1267
  163OSM    H4G18376   0.007   0.402   2.077 -0.6491  0.7159  1.9371
  163OSM    C5F18377   0.091   0.362   2.277 -0.3696 -0.4818 -0.4021
  163OSM    H5F18378  -0.005   0.378   2.332 -0.1847 -2.8077  0.7406
  163OSM    H5G18379   0.149   0.455   2.262  1.1783 -1.3978 -0.3249
  163OSM    C6F18380   0.171   0.255   2.358  0.3325 -0.5436  0.3400
  163OSM    H6F18381   0.276   0.240   2.326  0.0787 -2.8545  0.4694
  163OSM    H6G18382   0.126   0.155   2.345  0.4645 -0.5304 -0.2406
  163OSM    C7F18383   0.193   0.286   2.504 -0.4012  0.1682 -0.2962
  163OSM    H7F18384   0.098   0.284   2.562 -1.3374 -1.0126 -1.7941
  163OSM    H7G18385   0.226   0.392   2.507  0.2525 -0.0402  2.4245
  163OSM    C8F18386   0.305   0.210   2.574  0.5114  0.8252 -0.8321
  163OSM    H8F18387   0.325   0.281   2.657  0.8146 -1.5092  1.2059
  163OSM    H8G18388   0.398   0.212   2.514 -0.3295 -0.8640 -2.2497
  163OSM    C9F18389   0.277   0.067   2.617 -0.1078 -0.0986 -0.3990
  163OSM    H9F18390   0.266  -0.004   2.534 -0.4534  0.5139 -0.8939
  163OSM   C10F18391   0.258   0.029   2.745 -0.1701  0.0655 -0.2705
  163OSM   H10F18392   0.218  -0.068   2.777 -3.2270  1.2767 -0.0904
  163OSM   C11F18393   0.266   0.129   2.863 -0.7004 -0.0062 -0.0291
  163OSM   H11F18394   0.179   0.197   2.873 -1.8067 -1.2414 -0.8621
  163OSM   H11G18395   0.359   0.189   2.850 -1.9651  2.0855  0.0722
  163OSM   C12F18396   0.278   0.039   2.994 -0.2021 -0.7132  0.0475
  163OSM   H12F18397   0.344  -0.049   2.980  0.1809 -0.6316  1.2206
  163OSM   H12G18398   0.177  -0.003   3.013  0.1169 -0.6069  2.1883
  163OSM   C13F18399   0.303   0.118   3.121  0.0476  0.2789 -0.1806
  163OSM   H13F18400   0.221   0.193   3.112 -0.6014 -0.5902 -1.8892
  163OSM   H13G18401   0.396   0.178   3.112  0.0087  1.0814  3.3516
  163OSM   C14F18402   0.297   0.032   3.247 -0.1007 -0.0192  0.5235
  163OSM   H14F18403   0.383  -0.038   3.235  2.8203  3.1833  0.9896
  163OSM   H14G18404   0.200  -0.020   3.259 -1.4900  2.3862  0.3596
  163OSM   C15F18405   0.327   0.117   3.378 -0.2456  0.6707 -0.1633
  163OSM   H15F18406   0.258   0.203   3.386  0.1880  0.8719  1.9997
  163OSM   H15G18407   0.427   0.165   3.365 -0.1944  0.3745 -0.9386
  163OSM   C16F18408   0.325   0.037   3.511  0.2444  0.4635 -0.8929
  163OSM   H16F18409   0.388  -0.054   3.498  0.9411  1.0342 -1.6581
  163OSM   H16G18410   0.220   0.007   3.526  0.5837 -0.6174 -0.6214
  163OSM   C17F18411   0.383   0.115   3.631  0.1634  0.2366  0.5016
  163OSM   H17F18412   0.358   0.047   3.715 -1.0371  0.8006  0.6310
  163OSM   H17G18413   0.322   0.205   3.654  1.2250  0.6124  1.9952
  163OSM   C18F18414   0.532   0.151   3.618  0.3972 -1.1143 -0.0274
  163OSM   H18F18415   0.588   0.088   3.545  2.5929 -0.8849  1.3532
  163OSM   H18G18416   0.570   0.145   3.722 -0.9121 -1.5106  0.4521
  163OSM   H18H18417   0.528   0.258   3.590 -0.4469 -0.7171  1.5209
  164OSM      N18418   4.329   2.409   1.512  0.7502  0.2689 -0.0303
  164OSM    C1518419   4.331   2.524   1.415  0.4479 -0.1095  0.2718
  164OSM   H15A18420   4.304   2.613   1.470 -1.1788 -1.0348  1.0313
  164OSM   H15B18421   4.262   2.508   1.333  0.3596  1.4723  0.0151
  164OSM   H15C18422   4.433   2.543   1.384  0.4606  0.5030  0.6823
  164OSM    C1418423   4.362   2.284   1.430  0.3087  0.6202  0.1378
  164OSM   H14A18424   4.288   2.279   1.352 -1.0574  2.7880  1.1891
  164OSM   H14B18425   4.360   2.200   1.498  3.1404 -0.0668 -0.4925
  164OSM   H14C18426   4.457   2.282   1.378 -0.7252 -2.7087 -1.8924
  164OSM    C1318427   4.437   2.424   1.615 -0.7099 -0.5128 -0.8824
  164OSM   H13A18428   4.440   2.347   1.690 -0.3668 -1.1051 -1.4894
  164OSM   H13B18429   4.407   2.509   1.674  0.9021 -1.4708  1.4341
  164OSM   H13C18430   4.534   2.432   1.568 -1.3380 -0.4220 -2.2226
  164OSM    C1218431   4.193   2.384   1.588 -0.2840 -0.0571 -0.3647
  164OSM   H12A18432   4.204   2.296   1.650 -1.1061  0.7674  1.0080
  164OSM   H12B18433   4.114   2.379   1.515  1.3428 -0.9024 -2.1654
  164OSM    C1118434   4.136   2.501   1.680 -0.2007 -0.4734  0.7232
  164OSM   H11A18435   4.205   2.521   1.765  0.5733 -0.6086  0.1391
  164OSM   H11B18436   4.045   2.459   1.729  0.1664 -0.5108  1.3796
  164OSM      P18437   4.099   2.765   1.645 -0.0815 -0.2423  0.8234
  164OSM    O1318438   4.226   2.838   1.607 -0.0205  0.0366  0.1126
  164OSM    O1418439   3.979   2.833   1.589  0.0316 -0.3286 -0.3617
  164OSM    O1118440   4.087   2.759   1.804  0.5943 -0.6798  0.3574
  164OSM    O1218441   4.098   2.616   1.598 -0.3825  0.0567 -0.6487
  164OSM    C1S18442   4.123   2.880   1.877  0.0679 -0.1024  0.5037
  164OSM    H1S18443   4.069   2.962   1.824  0.9493  0.1565 -0.0128
  164OSM    H1T18444   4.233   2.888   1.867 -0.2189  1.9107 -1.9835
  164OSM     NF18445   4.130   3.000   2.077 -0.1680 -0.5446 -0.6199
  164OSM    HNF18446   4.216   3.004   2.129 -0.0450  1.6308 -0.8763
  164OSM    C2S18447   4.085   2.879   2.025  0.8641  0.7781 -0.0417
  164OSM    H2S18448   3.975   2.867   2.036  0.7991  0.4722 -0.9384
  164OSM    C3S18449   4.156   2.749   2.086  0.1702 -0.0978  0.4505
  164OSM    H3S18450   4.262   2.769   2.060 -0.6398  1.0844 -2.2822
  164OSM     O318451   4.119   2.624   2.025 -0.0118 -0.0185  0.4447
  164OSM    HO318452   4.084   2.642   1.937  0.6878 -0.2317  0.1215
  164OSM    C4S18453   4.139   2.734   2.241 -0.1279 -0.1890  0.6901
  164OSM    H4S18454   4.226   2.775   2.294  0.1501 -1.0675  0.9333
  164OSM    C5S18455   4.039   2.667   2.300  0.4582 -0.3089 -0.1237
  164OSM    H5S18456   3.957   2.615   2.248  0.4977 -1.7396  1.1697
  164OSM    C6S18457   4.039   2.660   2.452  0.6771  0.7936  0.6454
  164OSM    H6S18458   3.970   2.578   2.481 -0.0633  0.5280 -1.6600
  164OSM    H6T18459   3.996   2.753   2.494 -0.1048  0.7675 -0.0702
  164OSM    C7S18460   4.188   2.630   2.495 -0.5141 -0.0317 -1.4530
  164OSM    H7S18461   4.245   2.724   2.482 -2.0798  1.4338  1.3434
  164OSM    H7T18462   4.232   2.547   2.436  0.1126 -0.4267 -0.4465
  164OSM    C8S18463   4.191   2.596   2.646 -0.1251 -0.3233  0.3155
  164OSM    H8S18464   4.147   2.681   2.703  1.4465  0.5227  0.3203
  164OSM    H8T18465   4.298   2.595   2.675 -0.3234  1.2371  1.2376
  164OSM    C9S18466   4.151   2.453   2.677 -0.4790  0.0966  0.3276
  164OSM    H9S18467   4.222   2.387   2.624 -0.3936 -0.6172  1.3039
  164OSM    H9T18468   4.048   2.440   2.639 -0.1891  0.2340 -0.5214
  164OSM   C10S18469   4.150   2.431   2.826 -0.5801 -0.1592 -0.1190
  164OSM   H10S18470   4.228   2.494   2.874 -2.2584  1.4217  0.7022
  164OSM   H10T18471   4.182   2.328   2.849 -0.8733 -0.3433 -0.5210
  164OSM   C11S18472   4.009   2.455   2.887  0.1182  0.6303  0.1251
  164OSM   H11S18473   3.947   2.384   2.829  3.1359 -0.5367 -1.9360
  164OSM   H11T18474   3.971   2.557   2.866 -2.1692 -0.2333 -0.1690
  164OSM   C12S18475   4.009   2.414   3.040 -0.5125  0.1608 -0.4464
  164OSM   H12S18476   4.033   2.309   3.065  0.9602  0.8127  0.9932
  164OSM   H12T18477   3.903   2.440   3.063  0.1128  3.4077 -0.7145
  164OSM   C13S18478   4.106   2.499   3.128 -0.2833  0.4999 -0.1643
  164OSM   H13S18479   4.106   2.605   3.095  0.2043  0.8419  0.8823
  164OSM   H13T18480   4.209   2.463   3.107  1.0425  3.7613  0.2286
  164OSM   C14S18481   4.080   2.489   3.281  0.0965 -0.1011  0.0103
  164OSM   H14S18482   4.166   2.531   3.337  0.5602 -1.5879  0.4418
  164OSM   H14T18483   4.069   2.381   3.300 -0.3941 -0.2573 -1.1038
  164OSM   C15S18484   3.945   2.549   3.316  0.6989 -0.4185 -0.2555
  164OSM   H15S18485   3.858   2.489   3.282  0.2796 -1.5242  2.4774
  164OSM   H15T18486   3.930   2.651   3.275 -0.1196 -1.4704 -2.7208
  164OSM   C16S18487   3.925   2.562   3.466  0.7968  0.2646  0.0299
  164OSM   H16S18488   4.004   2.613   3.525  0.2172 -1.2790  2.2852
  164OSM   H16T18489   3.916   2.454   3.490  0.2850 -0.1109 -1.6983
  164OSM   C17S18490   3.790   2.634   3.501 -0.5552  0.4359 -0.2335
  164OSM   H17S18491   3.812   2.741   3.478  0.5716  0.7007  1.8032
  164OSM   H17T18492   3.783   2.633   3.612 -2.0699  1.4473 -0.3001
  164OSM   C18S18493   3.661   2.587   3.442 -0.2276 -0.3366  0.2977
  164OSM   H18S18494   3.580   2.637   3.498  0.1692 -0.8028  1.3160
  164OSM   H18T18495   3.662   2.476   3.453 -0.4919 -0.4723 -0.9023
  164OSM   H18U18496   3.662   2.616   3.334  2.7176  1.8846  0.8014
  164OSM    C1F18497   4.060   3.111   2.057  0.9297  0.1504  0.6171
  164OSM     OF18498   3.952   3.109   1.996 -0.2294  0.1991  0.5777
  164OSM    C2F18499   4.114   3.237   2.120  0.4344  0.1660  0.1669
  164OSM    H2F18500   4.100   3.316   2.043  0.6838 -1.9419 -2.1785
  164OSM    H2G18501   4.223   3.218   2.112  0.1493 -1.2127 -0.6393
  164OSM    C3F18502   4.062   3.251   2.263  0.5006  0.1700  0.3380
  164OSM    H3F18503   3.952   3.254   2.257  0.5293 -0.5907 -1.0520
  164OSM    H3G18504   4.095   3.349   2.302  1.8632 -0.4619  0.8703
  164OSM    C4F18505   4.109   3.143   2.356 -0.1303  0.3557  0.5118
  164OSM    H4F18506   4.221   3.142   2.353 -0.1361 -1.2943 -0.6039
  164OSM    H4G18507   4.064   3.050   2.314 -1.5020  1.1176  0.2669
  164OSM    C5F18508   4.056   3.179   2.499  0.9022 -0.1783 -0.1401
  164OSM    H5F18509   3.945   3.174   2.500  0.9641 -1.7021  0.8526
  164OSM    H5G18510   4.100   3.274   2.537  1.3406 -0.4805  0.1172
  164OSM    C6F18511   4.100   3.082   2.609 -0.3688  0.0984  0.4725
  164OSM    H6F18512   4.209   3.081   2.631 -0.2603 -1.4702  0.0386
  164OSM    H6G18513   4.079   2.984   2.559  0.2436  0.7688 -1.1750
  164OSM    C7F18514   4.032   3.099   2.738 -0.0297  0.2777 -0.3133
  164OSM    H7F18515   3.921   3.112   2.736 -0.3204 -1.8419 -2.0373
  164OSM    H7G18516   4.069   3.195   2.781 -0.8662  1.5938 -2.3491
  164OSM    C8F18517   4.059   2.983   2.835 -0.0814  0.7010 -0.2136
  164OSM    H8F18518   4.044   2.889   2.778  0.9517  0.7537 -0.5859
  164OSM    H8G18519   3.980   2.988   2.913 -0.7712  1.2069 -0.9329
  164OSM    C9F18520   4.193   2.989   2.905  0.6891 -1.0081  0.6733
  164OSM    H9F18521   4.280   3.029   2.851  0.2278  0.7867  1.2011
  164OSM   C10F18522   4.211   2.958   3.031  0.3828  1.1091  0.3375
  164OSM   H10F18523   4.315   2.963   3.068  0.5661 -0.6254  0.1535
  164OSM   C11F18524   4.107   2.899   3.126  0.8390 -0.8807 -0.3329
  164OSM   H11F18525   4.150   2.809   3.176 -1.4547 -1.3548  0.9358
  164OSM   H11G18526   4.024   2.856   3.066 -1.0784  1.5837  0.3995
  164OSM   C12F18527   4.046   2.976   3.244 -0.4062  0.5887 -0.2822
  164OSM   H12F18528   3.967   2.908   3.280  0.8552 -0.8511 -0.1199
  164OSM   H12G18529   3.989   3.067   3.215  0.0380  0.1384 -2.8828
  164OSM   C13F18530   4.143   3.018   3.354  0.9322  0.1912 -0.1507
  164OSM   H13F18531   4.201   3.105   3.318  3.5503  0.3474  3.8274
  164OSM   H13G18532   4.218   2.940   3.377  0.6775  0.2406  0.8785
  164OSM   C14F18533   4.073   3.068   3.480  0.1445  0.5873  0.4080
  164OSM   H14F18534   4.002   3.147   3.449  1.3808  0.8947 -1.8607
  164OSM   H14G18535   4.147   3.128   3.538  0.8046 -0.5694  0.7960
  164OSM   C15F18536   4.006   2.957   3.564  0.3992  0.6371  0.3405
  164OSM   H15F18537   4.058   2.860   3.560 -1.1639 -0.1967 -2.2380
  164OSM   H15G18538   3.909   2.937   3.513  0.9642  2.0220 -1.4218
  164OSM   C16F18539   3.984   2.987   3.706  0.2851 -0.3719 -0.4794
  164OSM   H16F18540   3.959   3.095   3.712  0.2910 -0.2670 -2.0207
  164OSM   H16G18541   4.086   2.981   3.749  0.1502 -0.3274 -0.1496
  164OSM   C17F18542   3.870   2.904   3.765  0.1299  0.1750  0.0287
  164OSM   H17F18543   3.889   2.801   3.729 -2.3537 -0.9349  1.6026
  164OSM   H17G18544   3.777   2.932   3.710  1.1238 -1.9091 -2.9632
  164OSM   C18F18545   3.855   2.919   3.922  0.1887  0.1538 -0.1473
  164OSM   H18F18546   3.779   2.844   3.952 -0.5887  0.7817 -0.5294
  164OSM   H18G18547   3.814   3.014   3.962  1.9006  0.1074  1.9582
  164OSM   H18H18548   3.953   2.894   3.968  1.5350  2.7359 -1.4283
  165SAPS     N18549   2.235   2.129   6.215  0.4159  0.2127 -0.6431
  165SAPS   HN118550   2.308   2.127   6.290 -0.7089 -1.4211  0.4787
  165SAPS   HN218551   2.267   2.055   6.149 -0.1617  0.2149 -0.9260
  165SAPS   HN318552   2.238   2.221   6.168 -2.0934  0.6229 -0.1232
  165SAPS   C1218553   2.098   2.101   6.268  0.4181 -0.9622 -0.0403
  165SAPS  H12A18554   2.071   1.997   6.259 -0.2772 -1.1149  2.9296
  165SAPS   C1318555   2.079   2.143   6.416  0.7739 -0.3596 -0.8059
  165SAPS  O13A18556   2.161   2.220   6.474  0.1923 -0.2418  0.3213
  165SAPS  O13B18557   1.968   2.105   6.473  0.1440  0.5530  0.8513
  165SAPS   C1118558   1.986   2.173   6.192  0.3947 -0.1785  0.2004
  165SAPS  H11A18559   1.997   2.283   6.196 -0.6437 -0.0556  0.0703
  165SAPS  H11B18560   1.888   2.153   6.240 -0.4662  0.3950 -1.2428
  165SAPS     P18561   1.855   2.139   5.966 -0.5325  0.3381  0.2713
  165SAPS   O1318562   1.753   2.046   6.027 -0.0923  0.1088  0.1115
  165SAPS   O1418563   1.821   2.279   5.937  0.8744  0.0322  0.0985
  165SAPS   O1218564   1.981   2.132   6.055 -0.5620  0.1180  0.2776
  165SAPS   O1118565   1.901   2.067   5.831  0.0105  0.5283 -0.3866
  165SAPS    C118566   2.037   2.060   5.804  0.3299 -0.2949  0.7975
  165SAPS    HA18567   2.097   2.016   5.887 -0.6870  0.5176  2.0036
  165SAPS    HB18568   2.059   1.999   5.714  3.3302  0.1090  1.1414
  165SAPS    C218569   2.108   2.195   5.757  0.3017  0.0009  0.4258
  165SAPS    HS18570   2.140   2.248   5.849 -0.3796  1.8111 -0.3184
  165SAPS   O2118571   2.019   2.269   5.678  0.4214 -0.2658  0.0277
  165SAPS   C2118572   2.060   2.385   5.632  0.3454 -0.1667  0.1268
  165SAPS   O2218573   2.161   2.439   5.668  0.3141  0.2000 -0.0666
  165SAPS   C2218574   1.958   2.412   5.519  0.5226  0.0728 -0.0801
  165SAPS   H2R18575   1.957   2.314   5.467  0.1893  0.0177  0.0316
  165SAPS   H2S18576   1.871   2.444   5.581  0.3015  0.6417 -0.6735
  165SAPS    C318577   2.241   2.166   5.684  0.2627  0.3269  0.6923
  165SAPS    HX18578   2.301   2.097   5.747  0.8104  1.7490  1.7815
  165SAPS    HY18579   2.303   2.257   5.676 -0.0774  0.4216 -1.3911
  165SAPS   O3118580   2.232   2.114   5.548 -1.0207 -0.3219  0.6369
  165SAPS   C3118581   2.340   2.070   5.494  0.3992  0.3947  0.1929
  165SAPS   O3218582   2.452   2.062   5.541  0.2676  0.3232 -0.6723
  165SAPS   C3218583   2.315   2.055   5.346  0.4053  0.1451  0.2315
  165SAPS   H2X18584   2.241   1.973   5.330  1.6962 -1.1711  0.7798
  165SAPS   H2Y18585   2.406   2.027   5.288 -0.9469 -1.3519 -1.3069
  165SAPS   C2318586   2.008   2.517   5.412 -0.3845 -0.2593 -0.3582
  165SAPS   H3R18587   1.941   2.505   5.325  0.4649  1.6987 -1.3590
  165SAPS   H3S18588   2.112   2.500   5.375  1.6136  4.4435  2.1854
  165SAPS   C2418589   1.995   2.660   5.457  0.0905  0.6633 -0.0194
  165SAPS   H4R18590   2.066   2.722   5.398  0.3122  0.4060 -0.0224
  165SAPS   H4S18591   2.029   2.664   5.563  0.0462 -1.7717  0.1375
  165SAPS   C2518592   1.852   2.706   5.451 -0.0757  0.8042 -0.6195
  165SAPS   H5R18593   1.802   2.716   5.549 -1.6905  2.2961 -1.5468
  165SAPS   C2618594   1.789   2.766   5.352  0.5298 -0.4039  0.3165
  165SAPS   H6R18595   1.679   2.775   5.356  0.4546 -0.3136 -1.3690
  165SAPS   C2718596   1.852   2.816   5.219  0.0589  0.2351 -0.5161
  165SAPS   H7R18597   1.951   2.856   5.249 -0.7532  1.3183  0.8468
  165SAPS   H7S18598   1.788   2.901   5.189 -0.0086 -0.1677 -1.5632
  165SAPS   C2818599   1.848   2.723   5.108  0.1138  0.2762  0.0444
  165SAPS   H8R18600   1.861   2.614   5.122 -1.7516  0.2263  1.8817
  165SAPS   C2918601   1.800   2.755   4.984 -0.1536  0.8658  0.1046
  165SAPS   H9R18602   1.801   2.674   4.910  1.9527  0.0801  0.8945
  165SAPS  C21018603   1.767   2.882   4.924 -0.1458  0.3956 -0.2306
  165SAPS  H10R18604   1.863   2.938   4.920 -0.2660  0.8275  1.8833
  165SAPS  H10S18605   1.702   2.939   4.994 -0.5151 -1.8313  1.3345
  165SAPS  C21118606   1.705   2.857   4.786 -0.0146  0.1864  0.4690
  165SAPS  H11R18607   1.596   2.841   4.792  0.1518 -1.4344 -0.0947
  165SAPS  C21218608   1.761   2.837   4.662 -0.1278  0.1066  0.4335
  165SAPS  H12R18609   1.705   2.832   4.568  3.1175 -1.6081 -1.5900
  165SAPS  C21318610   1.910   2.829   4.639  1.2380  0.8604 -0.2950
  165SAPS  H13R18611   1.972   2.819   4.730  0.4750 -0.3456  0.1083
  165SAPS  H13S18612   1.938   2.930   4.602  0.5419  0.9582 -0.5825
  165SAPS  C21418613   1.927   2.712   4.550  0.4366  0.1836  0.3959
  165SAPS  H14R18614   1.943   2.616   4.603  1.7880 -0.3724 -0.9444
  165SAPS  C21518615   1.958   2.725   4.422 -1.2249  0.2203  0.5633
  165SAPS  H15R18616   1.986   2.633   4.368 -1.9865  0.4486 -0.2291
  165SAPS  C21618617   1.978   2.848   4.339 -0.0536  0.2038  0.1274
  165SAPS  H16R18618   2.083   2.882   4.345 -0.3056  1.0169  0.0487
  165SAPS  H16S18619   1.917   2.923   4.393  0.8419  0.4256  0.8537
  165SAPS  C21718620   1.941   2.847   4.188  0.3275 -0.4555 -0.3682
  165SAPS  H17R18621   1.838   2.809   4.171  0.2049 -0.8630  1.1606
  165SAPS  H17S18622   2.020   2.782   4.144 -1.4958 -2.9015 -0.1980
  165SAPS  C21818623   1.950   2.987   4.134  0.2309 -0.4682 -0.7547
  165SAPS  H18R18624   2.048   3.026   4.169 -0.8593  1.2725  0.5143
  165SAPS  H18S18625   1.875   3.055   4.181  2.4006  0.7214  1.2200
  165SAPS  C21918626   1.948   3.007   3.983 -0.5908 -0.2828  0.8005
  165SAPS  H19R18627   1.863   2.949   3.943  0.7086 -2.8059  1.5099
  165SAPS  H19S18628   2.032   2.947   3.945 -1.0227 -0.3713 -0.0266
  165SAPS  C22018629   1.933   3.154   3.939 -0.7719 -0.3207  0.1214
  165SAPS  H20R18630   1.967   3.161   3.834 -1.7395 -0.8057 -0.2441
  165SAPS  H20S18631   1.995   3.223   4.001 -2.3091 -2.2232  4.1900
  165SAPS  H20T18632   1.834   3.205   3.938 -1.1791 -1.0584  0.9442
  165SAPS   C3318633   2.259   2.182   5.279 -0.4519  1.4275 -0.6480
  165SAPS   H3X18634   2.317   2.265   5.324  1.3651  0.2846 -0.7322
  165SAPS   H3Y18635   2.151   2.196   5.301  0.1051  2.2692  1.7803
  165SAPS   C3418636   2.299   2.193   5.131  0.4861  0.9807 -0.8233
  165SAPS   H4X18637   2.287   2.093   5.083 -0.1406  1.1584 -1.0472
  165SAPS   H4Y18638   2.408   2.207   5.121  0.8184  1.0616  2.0945
  165SAPS   C3518639   2.217   2.304   5.059 -1.0221  0.5299 -0.4426
  165SAPS   H5X18640   2.115   2.312   5.103 -0.9843  0.9695 -0.4267
  165SAPS   H5Y18641   2.222   2.292   4.949  0.8159  0.0708 -0.3378
  165SAPS   C3618642   2.276   2.446   5.076 -0.5634 -0.3803 -0.8251
  165SAPS   H6X18643   2.377   2.462   5.033 -0.1726  2.2998  0.8655
  165SAPS   H6Y18644   2.298   2.469   5.182  2.6064  0.2015 -1.5027
  165SAPS   C3718645   2.187   2.559   5.023  0.2104  0.1640  0.2743
  165SAPS   H7X18646   2.251   2.648   5.040 -1.3731  1.1898  1.0974
  165SAPS   H7Y18647   2.096   2.558   5.087  0.9269  2.0999  1.3941
  165SAPS   C3818648   2.161   2.548   4.875  0.2500  0.1367 -0.2189
  165SAPS   H8X18649   2.122   2.643   4.831 -0.1132  0.1255  0.0765
  165SAPS   H8Y18650   2.079   2.473   4.868 -0.2410  0.3037  2.5883
  165SAPS   C3918651   2.274   2.505   4.786 -0.1040  0.3993 -0.0023
  165SAPS   H9X18652   2.325   2.408   4.804 -0.2220  0.1808 -0.7729
  165SAPS   H9Y18653   2.357   2.575   4.809  0.5918 -0.9110  1.6708
  165SAPS  C31018654   2.252   2.494   4.637 -0.2972 -0.5160 -0.0885
  165SAPS  H10X18655   2.227   2.593   4.592  3.8685  1.2694  1.1031
  165SAPS  H10Y18656   2.162   2.429   4.631  0.3127 -1.2544 -1.9050
  165SAPS  C31118657   2.380   2.442   4.565 -0.3023  1.4002 -0.5555
  165SAPS  H11X18658   2.424   2.367   4.634 -0.2606  2.1515  0.2486
  165SAPS  H11Y18659   2.458   2.520   4.553  0.8668  0.3061 -0.3403
  165SAPS  C31218660   2.365   2.376   4.418 -0.3521 -0.1926 -0.4297
  165SAPS  H12X18661   2.297   2.441   4.358  0.7126  1.4325  0.0666
  165SAPS  H12Y18662   2.300   2.286   4.428  0.9412 -1.4798 -2.6095
  165SAPS  C31318663   2.492   2.343   4.343 -0.1657 -0.0512  0.4886
  165SAPS  H13X18664   2.558   2.277   4.403 -0.0918  0.4322  0.9536
  165SAPS  H13Y18665   2.550   2.438   4.347 -0.9222  0.4670 -0.3427
  165SAPS  C31418666   2.466   2.291   4.200 -0.5651 -0.1110 -0.3223
  165SAPS  H14X18667   2.412   2.364   4.136  1.3606  0.7704 -1.0085
  165SAPS  H14Y18668   2.400   2.203   4.215 -2.2068  0.9797 -0.9465
  165SAPS  C31518669   2.597   2.244   4.132  0.0671  0.5799 -0.4252
  165SAPS  H15X18670   2.653   2.167   4.190  0.2201 -0.0122 -1.3340
  165SAPS  H15Y18671   2.675   2.321   4.116  0.9384 -0.7051 -2.9153
  165SAPS  C31618672   2.553   2.196   3.992 -0.0103  0.5077  0.1072
  165SAPS  H16X18673   2.500   2.280   3.943  2.4812  1.1357 -1.7135
  165SAPS  H16Y18674   2.469   2.124   4.004 -2.2922  2.8987 -0.4458
  165SAPS  C31718675   2.662   2.124   3.910  0.3960  0.3092 -1.0388
  165SAPS  H17X18676   2.708   2.049   3.978  0.0586  0.7525 -0.3119
  165SAPS  H17Y18677   2.744   2.194   3.882 -0.7214  1.5728 -1.2606
  165SAPS  C31818678   2.603   2.064   3.782 -0.2186  0.5330  0.2160
  165SAPS  H18X18679   2.520   1.994   3.808  0.1236 -0.0036 -0.1153
  165SAPS  H18Y18680   2.668   1.989   3.732 -1.2162 -0.6236  0.5997
  165SAPS  H18Z18681   2.562   2.130   3.703 -0.7104  0.2614  0.2338
  166SAPS     N18682   6.770   2.311   6.375  0.2132  0.0336  0.4733
  166SAPS   HN118683   6.669   2.327   6.353  0.2301  0.5312  0.7580
  166SAPS   HN218684   6.823   2.399   6.363 -0.3378  0.2866 -0.1945
  166SAPS   HN318685   6.803   2.242   6.304  0.0093  0.2541  0.1595
  166SAPS   C1218686   6.803   2.252   6.509  0.8570 -0.6146 -0.3073
  166SAPS  H12A18687   6.829   2.334   6.574 -0.1354 -0.4178 -0.1499
  166SAPS   C1318688   6.682   2.174   6.568 -0.1827  0.3081  0.3547
  166SAPS  O13A18689   6.571   2.174   6.509  0.2282 -0.4902 -0.0221
  166SAPS  O13B18690   6.707   2.128   6.683  0.6201 -0.0764  0.7979
  166SAPS   C1118691   6.932   2.162   6.492  0.2372  0.0442 -0.6122
  166SAPS  H11A18692   6.892   2.070   6.445  0.1187 -0.0742 -0.2806
  166SAPS  H11B18693   6.975   2.130   6.590 -0.6566  0.5004 -0.0646
  166SAPS     P18694   7.126   2.347   6.432  0.1922 -0.0476 -0.1045
  166SAPS   O1318695   7.040   2.474   6.427 -0.0391 -0.2587 -0.1723
  166SAPS   O1418696   7.211   2.335   6.553  0.6285 -0.4282 -0.4614
  166SAPS   O1218697   7.032   2.215   6.409 -0.5438 -0.4851  0.1860
  166SAPS   O1118698   7.228   2.345   6.314 -0.2295 -0.6419  0.1470
  166SAPS    C118699   7.189   2.294   6.182  0.5070  0.0390 -0.4205
  166SAPS    HA18700   7.271   2.271   6.111 -1.5266 -3.7079 -1.7913
  166SAPS    HB18701   7.124   2.204   6.187 -1.7195  1.5242 -1.0277
  166SAPS    C218702   7.100   2.400   6.111 -0.4128  0.4604 -0.4882
  166SAPS    HS18703   7.012   2.418   6.176  0.7757 -1.1664  1.7021
  166SAPS   O2118704   7.082   2.353   5.977  0.2317  0.4353 -0.0038
  166SAPS   C2118705   6.970   2.388   5.922  0.2583  0.0933 -0.7487
  166SAPS   O2218706   6.889   2.463   5.980  0.2372  0.1819  0.3772
  166SAPS   C2218707   6.964   2.334   5.777  0.2612 -1.4920  0.2093
  166SAPS   H2R18708   6.888   2.398   5.728  0.7739 -2.0322 -1.3751
  166SAPS   H2S18709   7.060   2.362   5.727  0.0946 -1.5136 -0.1230
  166SAPS    C318710   7.161   2.542   6.107  0.1316 -0.2418 -0.2334
  166SAPS    HX18711   7.152   2.575   6.213  0.8337  1.9286 -0.8131
  166SAPS    HY18712   7.097   2.612   6.049 -0.0630 -0.8485 -0.7765
  166SAPS   O3118713   7.301   2.533   6.064  0.1433 -0.1415  0.3554
  166SAPS   C3118714   7.331   2.536   5.932 -0.2775 -0.1696  0.5322
  166SAPS   O3218715   7.247   2.538   5.841 -0.2111  0.6955 -0.4456
  166SAPS   C3218716   7.480   2.522   5.904  0.1761  0.0244  0.2844
  166SAPS   H2X18717   7.522   2.427   5.941 -2.0710 -1.1576 -0.0205
  166SAPS   H2Y18718   7.535   2.607   5.949  0.4959 -0.1127  0.1533
  166SAPS   C2318719   6.925   2.188   5.777 -0.0876  0.8061  0.0861
  166SAPS   H3R18720   6.861   2.155   5.862  1.5132  0.0608  1.0308
  166SAPS   H3S18721   7.022   2.137   5.794 -1.2414 -1.1605  1.0541
  166SAPS   C2418722   6.859   2.156   5.647  0.4297  0.2279  0.2089
  166SAPS   H4R18723   6.760   2.202   5.627  0.3495 -0.4975 -1.1635
  166SAPS   H4S18724   6.839   2.047   5.643 -0.3239  0.3935 -1.9808
  166SAPS   C2518725   6.961   2.173   5.537 -0.1760  0.1588  0.8551
  166SAPS   H5R18726   7.065   2.162   5.571  0.1619  0.7735  0.0559
  166SAPS   C2618727   6.935   2.225   5.415 -0.1409 -0.3086 -0.1795
  166SAPS   H6R18728   7.014   2.218   5.339 -1.0122  1.8223 -1.3652
  166SAPS   C2718729   6.807   2.266   5.356 -0.0094 -0.7251  0.6516
  166SAPS   H7R18730   6.823   2.349   5.284 -1.7243 -2.0166 -1.3540
  166SAPS   H7S18731   6.736   2.286   5.439  1.1314 -1.2648  1.7879
  166SAPS   C2818732   6.759   2.145   5.271  0.3983  0.0703  0.4288
  166SAPS   H8R18733   6.694   2.073   5.322 -0.6767  1.6302  1.3667
  166SAPS   C2918734   6.757   2.124   5.135 -0.3932  1.3104  0.0116
  166SAPS   H9R18735   6.721   2.030   5.091  1.2237  0.5704  0.2069
  166SAPS  C21018736   6.830   2.208   5.037 -0.5320 -0.3667  0.0884
  166SAPS  H10R18737   6.903   2.276   5.086 -3.4349  2.8423  0.2788
  166SAPS  H10S18738   6.759   2.271   4.978 -2.3025 -0.7690  1.7100
  166SAPS  C21118739   6.916   2.124   4.939  0.6346  0.3127 -0.7913
  166SAPS  H11R18740   7.005   2.075   4.981 -0.7334 -0.4659  1.3876
  166SAPS  C21218741   6.886   2.096   4.811  0.9407 -0.0735  0.5662
  166SAPS  H12R18742   6.957   2.029   4.760 -1.5835 -2.5892  0.1544
  166SAPS  C21318743   6.767   2.142   4.719  0.4410 -1.0621 -0.2902
  166SAPS  H13R18744   6.679   2.176   4.777  0.4927  0.5057 -1.0744
  166SAPS  H13S18745   6.737   2.054   4.658 -0.4821 -0.2899 -0.9927
  166SAPS  C21418746   6.805   2.260   4.632 -0.0784 -0.0475  0.3798
  166SAPS  H14R18747   6.911   2.262   4.605 -0.0300 -1.7260  0.3649
  166SAPS  C21518748   6.725   2.365   4.604 -0.5913 -0.1021 -0.2045
  166SAPS  H15R18749   6.764   2.441   4.536 -0.9636  1.7913  1.6011
  166SAPS  C21618750   6.585   2.390   4.649 -0.6038 -0.4966 -0.3153
  166SAPS  H16R18751   6.536   2.291   4.664 -0.2278 -0.8783 -1.4839
  166SAPS  H16S18752   6.523   2.428   4.565 -2.0711 -0.0881  0.9074
  166SAPS  C21718753   6.566   2.466   4.782 -0.0742  0.3458 -0.0861
  166SAPS  H17R18754   6.623   2.562   4.782 -0.8787  0.8738 -1.8990
  166SAPS  H17S18755   6.607   2.405   4.865 -1.4017 -1.2923 -0.5795
  166SAPS  C21818756   6.420   2.491   4.817 -0.8482 -0.0560 -0.6131
  166SAPS  H18R18757   6.357   2.400   4.810 -0.4730 -0.4478  0.7873
  166SAPS  H18S18758   6.375   2.557   4.740 -0.4178  0.3594 -0.5215
  166SAPS  C21918759   6.399   2.580   4.949  0.3200 -0.2547  0.0082
  166SAPS  H19R18760   6.290   2.583   4.972  0.1142 -1.7090 -0.6789
  166SAPS  H19S18761   6.433   2.685   4.934 -2.0503  0.9337  2.1048
  166SAPS  C22018762   6.485   2.528   5.065  0.4138 -0.0798  0.8074
  166SAPS  H20R18763   6.591   2.559   5.056  0.9230 -1.8478  0.2349
  166SAPS  H20S18764   6.479   2.417   5.063  0.2492 -0.0721  0.8735
  166SAPS  H20T18765   6.436   2.559   5.159 -1.0009 -1.2704  0.5143
  166SAPS   C3318766   7.521   2.516   5.752  0.3142 -0.0485 -0.2983
  166SAPS   H3X18767   7.515   2.618   5.709  0.2437 -0.2135 -0.6866
  166SAPS   H3Y18768   7.444   2.459   5.695 -1.2096 -0.0244  1.6356
  166SAPS   C3418769   7.661   2.450   5.733 -0.4214  0.6461  0.2820
  166SAPS   H4X18770   7.644   2.340   5.738  0.9081  0.3389 -1.1821
  166SAPS   H4Y18771   7.720   2.480   5.822 -1.0111  0.6515  0.6778
  166SAPS   C3518772   7.726   2.493   5.597 -0.1104 -0.5229  0.3580
  166SAPS   H5X18773   7.834   2.466   5.604 -0.0441  0.0760  3.2170
  166SAPS   H5Y18774   7.722   2.604   5.600 -3.0575 -0.5174 -0.3943
  166SAPS   C3618775   7.668   2.431   5.471  0.6066 -0.0111  0.5148
  166SAPS   H6X18776   7.569   2.481   5.461 -0.1575 -1.7981 -1.4759
  166SAPS   H6Y18777   7.642   2.326   5.492 -0.4985  0.5046  1.8757
  166SAPS   C3718778   7.762   2.449   5.350  0.2618  1.5620 -0.0155
  166SAPS   H7X18779   7.868   2.424   5.373 -0.3323 -1.4777 -0.1987
  166SAPS   H7Y18780   7.763   2.559   5.335  0.5360  1.4408 -0.9292
  166SAPS   C3818781   7.718   2.374   5.231 -0.7528  0.2058  0.8512
  166SAPS   H8X18782   7.609   2.381   5.210 -0.0440  3.2080 -2.7091
  166SAPS   H8Y18783   7.740   2.265   5.229 -3.9695 -0.5762  2.0435
  166SAPS   C3918784   7.781   2.443   5.107 -0.0600 -0.3160 -0.3269
  166SAPS   H9X18785   7.891   2.460   5.102  0.1429 -1.7031 -1.0796
  166SAPS   H9Y18786   7.730   2.542   5.096 -0.0037 -0.3336 -0.7827
  166SAPS  C31018787   7.743   2.356   4.986 -0.7431  0.9834  0.2196
  166SAPS  H10X18788   7.633   2.355   4.977 -0.7278 -1.7522 -0.3294
  166SAPS  H10Y18789   7.782   2.253   5.003  0.5946  1.2198 -1.1769
  166SAPS  C31118790   7.810   2.403   4.859  0.4619 -0.3170  0.0062
  166SAPS  H11X18791   7.911   2.437   4.892 -0.5055  0.6727  2.1350
  166SAPS  H11Y18792   7.761   2.489   4.810 -0.0390 -0.3075  0.5154
  166SAPS  C31218793   7.810   2.299   4.755 -0.8460 -0.1422  0.3627
  166SAPS  H12X18794   7.704   2.264   4.749 -2.5018  4.4001 -1.4845
  166SAPS  H12Y18795   7.880   2.216   4.776 -2.4307 -1.6678 -0.0750
  166SAPS  C31318796   7.831   2.356   4.619  0.3435  0.0517 -0.1080
  166SAPS  H13X18797   7.934   2.394   4.601  1.2757 -0.5540  3.3118
  166SAPS  H13Y18798   7.758   2.437   4.596 -1.6296 -1.3747  0.8160
  166SAPS  C31418799   7.808   2.239   4.521 -0.1019  0.6692 -0.5244
  166SAPS  H14X18800   7.699   2.227   4.508  0.0493 -0.4882 -0.7525
  166SAPS  H14Y18801   7.841   2.139   4.556 -0.1036  0.5511 -0.8558
  166SAPS  C31518802   7.863   2.259   4.376  0.6621 -0.0346  0.9423
  166SAPS  H15X18803   7.974   2.262   4.383  0.6060  0.1623  1.9867
  166SAPS  H15Y18804   7.828   2.355   4.332  1.0169 -0.9094 -1.3825
  166SAPS  C31618805   7.824   2.144   4.280  0.3194  0.2356  0.0343
  166SAPS  H16X18806   7.719   2.165   4.250 -0.0667  1.4112  2.0042
  166SAPS  H16Y18807   7.835   2.044   4.327  2.7908  0.6419  0.4420
  166SAPS  C31718808   7.909   2.146   4.151 -0.7227  0.3827  0.5771
  166SAPS  H17X18809   7.923   2.052   4.094  0.7862  1.5716 -1.1314
  166SAPS  H17Y18810   8.017   2.160   4.175 -0.1127  0.5571 -1.9809
  166SAPS  C31818811   7.880   2.259   4.055 -0.6411  0.5300  0.0421
  166SAPS  H18X18812   7.909   2.356   4.101 -0.4226  0.5059 -0.0461
  166SAPS  H18Y18813   7.776   2.268   4.017  0.3870  1.1304 -2.9081
  166SAPS  H18Z18814   7.949   2.249   3.969  0.4309  1.5785  0.7579
  167SAPS     N18815   2.261   2.577   5.882 -0.5552 -0.4584  0.4703
  167SAPS   HN118816   2.167   2.547   5.849 -0.7379  2.7893 -2.5989
  167SAPS   HN218817   2.275   2.675   5.852 -0.6732 -0.6529 -0.2518
  167SAPS   HN318818   2.332   2.511   5.843 -0.2822 -0.6999  1.3635
  167SAPS   C1218819   2.269   2.594   6.027  0.3087 -0.2565 -0.2179
  167SAPS  H12A18820   2.181   2.653   6.045 -0.5039 -0.7633 -2.1696
  167SAPS   C1318821   2.257   2.467   6.113 -0.4802 -0.2909  0.0288
  167SAPS  O13A18822   2.261   2.351   6.059 -0.1334 -0.8059  0.3787
  167SAPS  O13B18823   2.240   2.482   6.238 -0.0555 -0.2707 -0.0919
  167SAPS   C1118824   2.397   2.668   6.075  0.8342  0.2109 -0.0012
  167SAPS  H11A18825   2.484   2.605   6.045 -0.1542 -1.7155  1.0256
  167SAPS  H11B18826   2.381   2.682   6.184 -1.6922 -0.3701 -0.2263
  167SAPS     P18827   2.510   2.903   6.046 -0.2902  0.2319  0.0870
  167SAPS   O1318828   2.489   2.972   6.179  0.3874 -0.1460  0.4606
  167SAPS   O1418829   2.641   2.842   6.030 -0.4400 -0.0111  0.1896
  167SAPS   O1218830   2.397   2.797   6.015  0.0133 -0.3342  0.6822
  167SAPS   O1118831   2.491   3.009   5.930  0.9166  0.2325 -0.6826
  167SAPS    C118832   2.545   3.140   5.947 -0.1837 -0.3723  0.2138
  167SAPS    HA18833   2.631   3.134   6.017 -0.6692  0.6565  0.9219
  167SAPS    HB18834   2.581   3.171   5.847  0.0723 -0.2091  0.3540
  167SAPS    C218835   2.435   3.239   6.001  0.2457  0.4273  0.7034
  167SAPS    HS18836   2.410   3.204   6.103  2.0388  2.0210  1.7435
  167SAPS   O2118837   2.307   3.237   5.928 -0.6592  0.3890 -0.0919
  167SAPS   C2118838   2.201   3.286   5.992  0.5470 -0.8958 -0.8104
  167SAPS   O2218839   2.203   3.336   6.103 -0.7033  0.1698 -0.3049
  167SAPS   C2218840   2.077   3.277   5.913  0.4142  0.3946 -0.1791
  167SAPS   H2R18841   2.088   3.271   5.803  1.3055 -1.8988 -0.0384
  167SAPS   H2S18842   2.027   3.182   5.943  1.5875 -0.5014 -0.9793
  167SAPS    C318843   2.494   3.379   6.018 -0.0772  0.1157  0.6728
  167SAPS    HX18844   2.598   3.361   6.053 -0.3820 -1.8241  0.7062
  167SAPS    HY18845   2.443   3.442   6.094 -0.7569 -0.3943  0.6496
  167SAPS   O3118846   2.515   3.452   5.893  0.0065  0.5035  0.1392
  167SAPS   C3118847   2.432   3.549   5.872  0.5296 -0.6413 -0.3230
  167SAPS   O3218848   2.342   3.586   5.951 -0.5043 -0.0000  0.5568
  167SAPS   C3218849   2.432   3.599   5.725  0.4313  0.8504 -0.2549
  167SAPS   H2X18850   2.537   3.594   5.689  0.7653  0.7214  0.6933
  167SAPS   H2Y18851   2.410   3.708   5.738  0.5367  0.6449  2.2242
  167SAPS   C2318852   1.991   3.400   5.935 -0.3772 -0.3389  0.2884
  167SAPS   H3R18853   2.056   3.486   5.912  0.8841 -0.9448  1.5080
  167SAPS   H3S18854   1.957   3.416   6.039  1.7744 -1.1352  1.1683
  167SAPS   C2418855   1.870   3.403   5.834 -0.7948 -0.0215 -0.6401
  167SAPS   H4R18856   1.802   3.483   5.869 -0.6917  0.2215 -0.9883
  167SAPS   H4S18857   1.818   3.305   5.845 -1.6429  0.5383  0.5729
  167SAPS   C2518858   1.923   3.430   5.698 -0.3281  0.4348  0.6026
  167SAPS   H5R18859   1.992   3.516   5.698 -1.8244  1.6733  0.3472
  167SAPS   C2618860   1.882   3.372   5.584 -0.0720 -0.2451 -0.0051
  167SAPS   H6R18861   1.931   3.400   5.490 -1.9087  0.0824 -0.9123
  167SAPS   C2718862   1.775   3.273   5.557  0.3056  0.7990  0.4884
  167SAPS   H7R18863   1.702   3.261   5.640 -0.3445  1.8242  0.0913
  167SAPS   H7S18864   1.821   3.172   5.549 -0.4907  0.4340  0.4870
  167SAPS   C2818865   1.705   3.299   5.423 -0.7078  0.1771 -0.1711
  167SAPS   H8R18866   1.605   3.343   5.439 -0.5640  0.4000  0.1137
  167SAPS   C2918867   1.751   3.274   5.299  0.6119  0.0354  0.8724
  167SAPS   H9R18868   1.684   3.287   5.213  0.4778  2.0555  1.2229
  167SAPS  C21018869   1.876   3.211   5.255  0.0147  0.1125  0.1959
  167SAPS  H10R18870   1.836   3.147   5.174  0.7656 -0.5930  0.3727
  167SAPS  H10S18871   1.932   3.154   5.331 -0.4583  1.4652  1.6177
  167SAPS  C21118872   1.954   3.333   5.197  0.5229 -0.6041  0.4702
  167SAPS  H11R18873   1.992   3.404   5.271 -2.0060  0.6184  0.6693
  167SAPS  C21218874   1.984   3.357   5.064  0.4779  0.1084 -0.8898
  167SAPS  H12R18875   2.027   3.453   5.031 -1.4286  1.0675 -0.7496
  167SAPS  C21318876   1.946   3.264   4.946 -0.6169 -1.0709 -0.1262
  167SAPS  H13R18877   1.977   3.168   4.992 -0.2282 -0.9561 -0.1405
  167SAPS  H13S18878   2.018   3.283   4.864  0.1268 -0.2846  0.6876
  167SAPS  C21418879   1.807   3.280   4.901 -0.2427 -1.1118  0.3042
  167SAPS  H14R18880   1.731   3.296   4.979  0.2593  0.3005  0.5338
  167SAPS  C21518881   1.763   3.281   4.774  0.1938 -0.3765 -0.1241
  167SAPS  H15R18882   1.657   3.308   4.760 -0.2292 -0.9447  1.6228
  167SAPS  C21618883   1.848   3.269   4.648  0.3286  0.8514  0.5531
  167SAPS  H16R18884   1.813   3.193   4.575 -0.0934 -0.1346  1.7614
  167SAPS  H16S18885   1.948   3.225   4.668  0.0638 -0.2726 -0.4562
  167SAPS  C21718886   1.868   3.409   4.583  0.4118 -0.2759 -0.8569
  167SAPS  H17R18887   1.945   3.467   4.638  1.4664 -1.1968 -1.3211
  167SAPS  H17S18888   1.772   3.465   4.582  1.5837  1.7861 -1.3022
  167SAPS  C21818889   1.911   3.407   4.433 -0.2302 -0.2880  0.3144
  167SAPS  H18R18890   1.924   3.510   4.393 -0.7722  0.1390  1.1934
  167SAPS  H18S18891   1.823   3.362   4.381 -0.5669  0.1634  0.4829
  167SAPS  C21918892   2.038   3.319   4.401 -0.2160  0.0274 -0.3620
  167SAPS  H19R18893   2.026   3.309   4.291 -1.3615  1.3565 -0.3788
  167SAPS  H19S18894   2.018   3.221   4.450 -1.2517 -0.5003 -1.7762
  167SAPS  C22018895   2.174   3.370   4.458 -0.4444 -0.7115 -0.0262
  167SAPS  H20R18896   2.179   3.383   4.568  2.4235  2.0408 -0.3493
  167SAPS  H20S18897   2.199   3.466   4.409  1.2134 -1.9107 -1.6940
  167SAPS  H20T18898   2.254   3.302   4.421  0.7871  0.8948 -0.4182
  167SAPS   C3318899   2.336   3.525   5.633  0.3520  0.1809 -0.4056
  167SAPS   H3X18900   2.318   3.572   5.534 -1.3093 -0.6499 -0.5317
  167SAPS   H3Y18901   2.238   3.538   5.683  1.1031  0.2499  1.0962
  167SAPS   C3418902   2.374   3.373   5.609  0.1323 -0.7567  0.8210
  167SAPS   H4X18903   2.378   3.318   5.705 -0.0796 -0.7180  0.8513
  167SAPS   H4Y18904   2.474   3.376   5.560 -0.4070  0.5106 -0.2802
  167SAPS   C3518905   2.273   3.299   5.524  0.1196 -0.0091  0.2537
  167SAPS   H5X18906   2.268   3.339   5.421  1.6021 -1.6270 -0.4962
  167SAPS   H5Y18907   2.168   3.319   5.555 -1.6545  1.7862 -5.5740
  167SAPS   C3618908   2.290   3.142   5.529 -0.4866 -0.3477 -0.6170
  167SAPS   H6X18909   2.240   3.108   5.623  0.1064 -1.2726 -0.6151
  167SAPS   H6Y18910   2.396   3.125   5.555 -0.8495 -0.5566  0.8537
  167SAPS   C3718911   2.246   3.051   5.416  0.1862 -0.8284  0.2042
  167SAPS   H7X18912   2.136   3.039   5.418  0.0171  0.6673  0.7147
  167SAPS   H7Y18913   2.287   2.948   5.428  1.0613 -0.4226  0.7844
  167SAPS   C3818914   2.290   3.094   5.279 -0.5377 -0.3213  0.4192
  167SAPS   H8X18915   2.393   3.136   5.279 -1.1226  1.2432  2.1000
  167SAPS   H8Y18916   2.227   3.176   5.239  0.5397  1.4440  2.1844
  167SAPS   C3918917   2.270   2.986   5.168  0.5292  0.3015  0.9296
  167SAPS   H9X18918   2.162   2.959   5.164  0.9525 -1.3717 -2.1572
  167SAPS   H9Y18919   2.323   2.897   5.206 -1.8758 -2.3070 -1.3761
  167SAPS  C31018920   2.324   3.028   5.026 -0.3746 -0.2932 -0.3302
  167SAPS  H10X18921   2.429   3.059   5.043 -1.0144  0.7413  2.2354
  167SAPS  H10Y18922   2.265   3.116   4.993  0.1898 -0.2086 -1.1334
  167SAPS  C31118923   2.292   2.918   4.921 -1.2447 -0.5618 -0.4395
  167SAPS  H11X18924   2.183   2.892   4.919 -1.6861  1.2228 -2.3112
  167SAPS  H11Y18925   2.351   2.831   4.958 -0.4370  0.9186  1.9815
  167SAPS  C31218926   2.321   2.971   4.784 -0.0117  0.3468  0.1328
  167SAPS  H12X18927   2.428   2.997   4.772  0.1280  1.1195  2.4669
  167SAPS  H12Y18928   2.258   3.061   4.771 -1.5068 -0.6095  0.4758
  167SAPS  C31318929   2.280   2.878   4.668 -0.0946  0.0753  1.0450
  167SAPS  H13X18930   2.169   2.868   4.659  0.2567 -3.0806 -1.5277
  167SAPS  H13Y18931   2.324   2.779   4.691 -0.0182 -0.1851 -0.1588
  167SAPS  C31418932   2.324   2.919   4.527 -0.2946 -0.0506 -0.1439
  167SAPS  H14X18933   2.424   2.967   4.532 -0.5960  0.4857  1.1760
  167SAPS  H14Y18934   2.256   2.989   4.474 -1.0929 -1.5106 -1.1199
  167SAPS  C31518935   2.334   2.794   4.443  0.6593 -0.4583  0.3711
  167SAPS  H15X18936   2.230   2.754   4.449  0.3472 -0.4504 -3.0852
  167SAPS  H15Y18937   2.401   2.723   4.495  0.3227 -0.0301  1.4094
  167SAPS  C31618938   2.369   2.827   4.298  0.2913  0.5101  0.3700
  167SAPS  H16X18939   2.477   2.853   4.292  0.8208 -1.3689  1.1064
  167SAPS  H16Y18940   2.313   2.920   4.273 -1.4699 -0.2875  1.1870
  167SAPS  C31718941   2.336   2.713   4.197 -0.3132  0.1806  0.2486
  167SAPS  H17X18942   2.232   2.687   4.228 -0.9035  0.1918 -1.6128
  167SAPS  H17Y18943   2.396   2.622   4.217 -2.1651 -0.4007  4.1835
  167SAPS  C31818944   2.323   2.749   4.048 -0.5718 -0.0187 -0.2927
  167SAPS  H18X18945   2.420   2.787   4.009 -1.0441  1.1063 -0.3956
  167SAPS  H18Y18946   2.255   2.835   4.034  4.6811  4.4123 -2.4001
  167SAPS  H18Z18947   2.284   2.656   4.001 -0.5829 -0.4245  0.4988
  168SAPS     N18948   0.595   4.686   6.622 -0.7037 -0.5718  0.0168
  168SAPS   HN118949   0.604   4.783   6.660 -2.2691 -0.9839  1.5800
  168SAPS   HN218950   0.584   4.690   6.519 -3.3645 -2.9184  0.1083
  168SAPS   HN318951   0.507   4.641   6.655 -0.0726 -2.4786 -0.7348
  168SAPS   C1218952   0.717   4.613   6.666  0.1357  0.3749 -0.7178
  168SAPS  H12A18953   0.803   4.679   6.665  0.4661 -0.0261  0.2252
  168SAPS   C1318954   0.712   4.564   6.811  0.3463  0.8822 -0.1383
  168SAPS  O13A18955   0.610   4.578   6.889  0.3380  0.4794  0.7699
  168SAPS  O13B18956   0.823   4.528   6.861 -0.0815  0.6153  0.3516
  168SAPS   C1118957   0.744   4.483   6.570  0.1927 -0.3555  0.0855
  168SAPS  H11A18958   0.667   4.407   6.595  1.2148 -0.8558  1.8718
  168SAPS  H11B18959   0.846   4.448   6.598 -0.0506 -0.9854  0.1860
  168SAPS     P18960   0.808   4.443   6.321 -0.1074  0.1419 -0.1814
  168SAPS   O1318961   0.953   4.429   6.340 -0.1454 -0.3350  0.3516
  168SAPS   O1418962   0.721   4.322   6.304 -0.5639  0.1100  0.1872
  168SAPS   O1218963   0.741   4.523   6.438 -0.1653  0.3895 -0.2569
  168SAPS   O1118964   0.790   4.551   6.204  0.1663 -0.2427 -0.5212
  168SAPS    C118965   0.880   4.661   6.195  0.0827  0.6782 -0.0535
  168SAPS    HA18966   0.913   4.704   6.292 -3.3092  0.9137  1.1197
  168SAPS    HB18967   0.973   4.627   6.145  1.4809  1.9596  1.5400
  168SAPS    C218968   0.815   4.766   6.102 -0.8934  0.5070 -0.4692
  168SAPS    HS18969   0.724   4.803   6.153  1.1233  0.7673  3.2234
  168SAPS   O2118970   0.789   4.714   5.972 -0.3402 -0.7007 -0.2047
  168SAPS   C2118971   0.677   4.647   5.951  0.6684  0.3611  0.3944
  168SAPS   O2218972   0.588   4.632   6.035 -0.2367 -0.2605  0.0137
  168SAPS   C2218973   0.685   4.607   5.810 -0.4049 -0.1348  0.2030
  168SAPS   H2R18974   0.701   4.704   5.758  1.7121 -0.4707  0.1029
  168SAPS   H2S18975   0.769   4.534   5.805 -1.2509 -1.0705 -0.8049
  168SAPS    C318976   0.908   4.886   6.097 -0.1090  0.8040 -0.0091
  168SAPS    HX18977   1.012   4.848   6.083 -0.2392 -0.4266  1.9708
  168SAPS    HY18978   0.907   4.918   6.203  1.0165  1.2153 -0.1096
  168SAPS   O3118979   0.867   4.995   6.014 -0.4288 -0.0980  0.1906
  168SAPS   C3118980   0.909   4.988   5.891 -0.7455 -0.2191  0.3060
  168SAPS   O3218981   0.975   4.903   5.839 -0.6119  0.2786  0.2814
  168SAPS   C3218982   0.860   5.111   5.820  0.5416  1.3106 -0.6771
  168SAPS   H2X18983   0.952   5.165   5.790  1.1950 -0.6095 -2.3492
  168SAPS   H2Y18984   0.805   5.170   5.897  1.2853  0.9721  0.1297
  168SAPS   C2318985   0.552   4.536   5.749  0.5372 -0.3712 -0.3017
  168SAPS   H3R18986   0.457   4.590   5.769  0.8051 -0.9565  3.0586
  168SAPS   H3S18987   0.550   4.436   5.797  1.9848 -0.5317 -0.5146
  168SAPS   C2418988   0.568   4.505   5.599 -0.1112 -0.1972 -0.0353
  168SAPS   H4R18989   0.480   4.454   5.555  0.8277 -1.1691 -0.8492
  168SAPS   H4S18990   0.659   4.441   5.593 -0.0603 -0.0038 -2.8169
  168SAPS   C2518991   0.578   4.639   5.524  0.6191  0.1558  0.4883
  168SAPS   H5R18992   0.508   4.718   5.554 -3.6182 -2.6553 -1.0808
  168SAPS   C2618993   0.652   4.659   5.416  0.2731  0.1038 -0.0782
  168SAPS   H6R18994   0.650   4.762   5.378  2.6352  0.8503  1.6595
  168SAPS   C2718995   0.757   4.566   5.364 -0.8304 -0.3159  0.0262
  168SAPS   H7R18996   0.732   4.459   5.382 -1.2907 -0.3091 -0.5677
  168SAPS   H7S18997   0.846   4.585   5.429 -0.2044  0.1333 -0.9253
  168SAPS   C2818998   0.800   4.564   5.223  0.1217  0.3242 -0.6984
  168SAPS   H8R18999   0.880   4.637   5.202 -0.8905  1.6143 -0.2269
  168SAPS   C2919000   0.751   4.492   5.126  0.6584  0.3224 -0.0240
  168SAPS   H9R19001   0.810   4.508   5.034  2.3039  2.9287  1.3597
  168SAPS  C21019002   0.649   4.384   5.141 -0.1930 -1.0841  1.0381
  168SAPS  H10R19003   0.555   4.425   5.098  1.7595  2.1102 -0.6011
  168SAPS  H10S19004   0.626   4.363   5.247 -2.3093  2.2553  1.3731
  168SAPS  C21119005   0.678   4.253   5.070 -0.1485  0.0239  0.3281
  168SAPS  H11R19006   0.708   4.175   5.142 -0.2766  0.2795  0.6626
  168SAPS  C21219007   0.696   4.225   4.940  0.8529 -0.4142 -0.5095
  168SAPS  H12R19008   0.726   4.127   4.900  4.0408  0.7327 -1.2207
  168SAPS  C21319009   0.664   4.321   4.829 -0.8556 -0.1060  0.0879
  168SAPS  H13R19010   0.634   4.417   4.877 -0.8594 -1.1939  2.4207
  168SAPS  H13S19011   0.572   4.290   4.774 -2.1688  0.4724  1.8241
  168SAPS  C21419012   0.789   4.342   4.754  0.0769  1.0332  0.1325
  168SAPS  H14R19013   0.866   4.370   4.826 -1.9753  1.0828  2.4507
  168SAPS  C21519014   0.808   4.343   4.623  0.4169 -0.4265 -0.3273
  168SAPS  H15R19015   0.912   4.363   4.592  0.6439 -0.9242  0.0964
  168SAPS  C21619016   0.720   4.314   4.508  0.7362  0.2360 -0.3189
  168SAPS  H16R19017   0.691   4.409   4.458  2.1197  1.2759  0.7772
  168SAPS  H16S19018   0.632   4.257   4.544  0.6609  0.1032 -0.7030
  168SAPS  C21719019   0.779   4.221   4.394  0.4505 -0.1690 -0.2110
  168SAPS  H17R19020   0.706   4.195   4.314 -1.6905  1.7556  0.9835
  168SAPS  H17S19021   0.807   4.122   4.436 -1.8576  0.0656  2.2179
  168SAPS  C21819022   0.884   4.291   4.306 -0.1610  0.1124 -0.1065
  168SAPS  H18R19023   0.979   4.285   4.363 -0.2860 -0.9453  0.0178
  168SAPS  H18S19024   0.860   4.396   4.278 -2.1282 -0.4419 -0.7027
  168SAPS  C21919025   0.901   4.228   4.165  0.3553 -0.3273  0.0214
  168SAPS  H19R19026   0.797   4.235   4.128  0.2947 -1.3706 -0.0257
  168SAPS  H19S19027   0.941   4.125   4.180 -2.4033 -1.4358  0.4066
  168SAPS  C22019028   0.991   4.305   4.076 -0.1294 -0.2901  0.3784
  168SAPS  H20R19029   1.013   4.255   3.979  1.7703  1.5493 -0.2260
  168SAPS  H20S19030   1.086   4.329   4.129 -0.0560 -0.1292  0.1758
  168SAPS  H20T19031   0.940   4.399   4.046  2.0875  0.2917 -1.9913
  168SAPS   C3319032   0.788   5.057   5.703  0.3208 -0.3244  0.1577
  168SAPS   H3X19033   0.690   5.109   5.693  1.7412  2.6157  0.3770
  168SAPS   H3Y19034   0.773   4.947   5.706 -0.2602 -0.2387  0.4448
  168SAPS   C3419035   0.881   5.067   5.586 -0.8219 -0.1223  0.4402
  168SAPS   H4X19036   0.986   5.038   5.604  0.2128  1.6440 -2.1795
  168SAPS   H4Y19037   0.892   5.176   5.568  1.5083 -0.3857 -0.0284
  168SAPS   C3519038   0.835   5.002   5.462 -0.1253 -0.2215 -0.0279
  168SAPS   H5X19039   0.730   5.020   5.428  0.1401  0.2513 -0.6174
  168SAPS   H5Y19040   0.832   4.892   5.473 -0.0057 -0.3051 -0.8130
  168SAPS   C3619041   0.925   5.035   5.351  0.2168 -0.1997 -0.1659
  168SAPS   H6X19042   1.030   5.008   5.377  0.6988  0.5539 -1.2100
  168SAPS   H6Y19043   0.925   5.145   5.331  0.1741 -0.2328 -0.3488
  168SAPS   C3719044   0.889   4.950   5.223  0.6621  0.0154  0.2472
  168SAPS   H7X19045   0.783   4.967   5.193  1.1459  1.6145 -0.6903
  168SAPS   H7Y19046   0.884   4.841   5.245  1.2349 -0.0307  0.1779
  168SAPS   C3819047   0.953   4.983   5.089  0.4814  0.4898  0.0619
  168SAPS   H8X19048   1.060   4.951   5.091  0.4370  0.3116 -0.3798
  168SAPS   H8Y19049   0.959   5.090   5.060 -2.9070  0.5001 -0.9821
  168SAPS   C3919050   0.872   4.924   4.971 -0.3240  0.4344  0.3558
  168SAPS   H9X19051   0.763   4.937   4.993 -0.6733 -1.7007  0.1213
  168SAPS   H9Y19052   0.883   4.813   4.976 -2.0543  0.2522  5.1255
  168SAPS  C31019053   0.914   4.984   4.841 -0.3964 -0.5660  0.3832
  168SAPS  H10X19054   1.013   4.944   4.810 -0.4830 -0.3205 -0.2121
  168SAPS  H10Y19055   0.921   5.095   4.844 -1.2525 -0.5022  0.1848
  168SAPS  C31119056   0.817   4.953   4.736  0.9042 -0.4034 -0.1750
  168SAPS  H11X19057   0.716   4.993   4.761  0.9261 -0.1016 -0.5554
  168SAPS  H11Y19058   0.798   4.844   4.748 -0.8559  0.0106  1.3098
  168SAPS  C31219059   0.859   4.981   4.591  0.2827 -0.0370 -0.3053
  168SAPS  H12X19060   0.904   5.082   4.580 -1.8627  0.7950 -2.0530
  168SAPS  H12Y19061   0.763   4.983   4.535 -1.1355 -3.2508  1.6866
  168SAPS  C31319062   0.942   4.865   4.526  0.0018 -0.3605  0.6568
  168SAPS  H13X19063   0.904   4.764   4.551 -0.9167  0.1486  1.3932
  168SAPS  H13Y19064   1.046   4.887   4.556 -0.6383 -0.1458  2.8700
  168SAPS  C31419065   0.950   4.882   4.373 -0.1190  0.3684  0.8691
  168SAPS  H14X19066   0.996   4.979   4.343 -0.5108  0.0048 -0.9657
  168SAPS  H14Y19067   0.850   4.882   4.325  0.0331  0.9910  0.5501
  168SAPS  C31519068   1.019   4.773   4.293 -0.0789 -0.2634 -0.7031
  168SAPS  H15X19069   0.979   4.673   4.319 -1.6450  0.2444 -1.0434
  168SAPS  H15Y19070   1.121   4.779   4.336 -0.9899 -0.0167  1.5766
  168SAPS  C31619071   1.033   4.791   4.147 -0.1847 -0.5632  0.0243
  168SAPS  H16X19072   1.081   4.891   4.136  0.8179 -1.0684 -0.3130
  168SAPS  H16Y19073   0.931   4.798   4.105  0.3105  2.8456 -0.8987
  168SAPS  C31719074   1.122   4.682   4.081 -0.2602 -0.0458  0.2105
  168SAPS  H17X19075   1.105   4.582   4.126  2.1845 -1.4498 -1.7267
  168SAPS  H17Y19076   1.231   4.703   4.094 -0.4685  1.0562  0.3316
  168SAPS  C31819077   1.093   4.681   3.938  0.8346 -0.5188  0.4652
  168SAPS  H18X19078   1.124   4.582   3.900 -0.3638 -1.0731  0.8951
  168SAPS  H18Y19079   1.144   4.771   3.897  2.0022 -0.3602  2.1363
  168SAPS  H18Z19080   0.984   4.693   3.919  0.8311 -0.2489  0.6440
  169SAPS     N19081   3.733   4.235   6.330  0.2280  0.0458  0.3475
  169SAPS   HN119082   3.770   4.234   6.232  0.3094  0.4881  0.3754
  169SAPS   HN219083   3.755   4.141   6.370 -1.5888 -0.5009  0.1556
  169SAPS   HN319084   3.630   4.230   6.323  0.3439 -2.4133 -0.8196
  169SAPS   C1219085   3.788   4.345   6.416 -0.8919  0.0457 -0.1520
  169SAPS  H12A19086   3.740   4.328   6.511 -0.3323 -1.2168 -0.0785
  169SAPS   C1319087   3.938   4.327   6.453 -0.1800 -0.8119  0.3983
  169SAPS  O13A19088   3.993   4.218   6.427  0.2739  0.5002 -0.4384
  169SAPS  O13B19089   3.995   4.413   6.521 -0.9025  0.5802 -0.8358
  169SAPS   C1119090   3.760   4.480   6.346  0.2106  0.0839  0.1527
  169SAPS  H11A19091   3.820   4.549   6.410  0.9983 -0.4840  0.0294
  169SAPS  H11B19092   3.650   4.490   6.360  0.1079 -1.4848  0.6347
  169SAPS     P19093   3.849   4.612   6.126  0.2386 -0.1343 -0.0558
  169SAPS   O1319094   3.917   4.707   6.214 -0.4577  0.0073  0.2559
  169SAPS   O1419095   3.919   4.572   6.002 -0.2736 -0.1391  0.4800
  169SAPS   O1219096   3.803   4.476   6.208 -0.4769  0.7825  1.1499
  169SAPS   O1119097   3.710   4.667   6.085  0.3884 -0.0190 -0.2674
  169SAPS    C119098   3.619   4.594   6.006 -0.3688  0.0444 -0.6594
  169SAPS    HA19099   3.630   4.484   6.012 -2.1307 -0.0731  1.7206
  169SAPS    HB19100   3.513   4.599   6.040 -1.1947 -2.9897 -2.3844
  169SAPS    C219101   3.619   4.638   5.854 -0.1301 -0.6049 -0.1074
  169SAPS    HS19102   3.528   4.604   5.799 -1.1123  1.9584 -0.2309
  169SAPS   O2119103   3.730   4.596   5.787 -0.7317 -0.2353  0.6118
  169SAPS   C2119104   3.723   4.470   5.738 -0.6743 -0.0531 -0.1364
  169SAPS   O2219105   3.631   4.392   5.753  0.0259  0.3591 -0.5655
  169SAPS   C2219106   3.844   4.437   5.653 -0.8456  0.4907 -0.2911
  169SAPS   H2R19107   3.925   4.387   5.710 -0.9803 -3.0532 -2.8840
  169SAPS   H2S19108   3.817   4.359   5.578  0.7740 -0.2079 -0.1807
  169SAPS    C319109   3.610   4.797   5.834  1.0696  0.8667 -0.8809
  169SAPS    HX19110   3.713   4.836   5.839  1.8057 -0.9608 -0.9246
  169SAPS    HY19111   3.556   4.823   5.928  1.5211  1.3631 -0.7580
  169SAPS   O3119112   3.543   4.830   5.712 -0.8581 -0.5195  0.2263
  169SAPS   C3119113   3.524   4.964   5.695  0.4267 -0.0572  0.2431
  169SAPS   O3219114   3.533   5.043   5.791  0.2066  0.1557  0.2657
  169SAPS   C3219115   3.490   5.003   5.553 -0.7380  0.1765 -0.2884
  169SAPS   H2X19116   3.553   4.934   5.492  0.8727 -0.8437  2.3863
  169SAPS   H2Y19117   3.538   5.100   5.529 -0.3593  0.0696  0.0213
  169SAPS   C2319118   3.900   4.559   5.570 -1.0171 -1.1652  0.2104
  169SAPS   H3R19119   3.980   4.512   5.510 -0.4344 -1.3395  1.1046
  169SAPS   H3S19120   3.942   4.640   5.633 -0.7840 -1.0751 -0.0610
  169SAPS   C2419121   3.793   4.633   5.492  0.0344  0.2522  0.4158
  169SAPS   H4R19122   3.722   4.684   5.561 -0.5148 -2.8611  2.3160
  169SAPS   H4S19123   3.725   4.567   5.435  0.7462  0.4891 -0.7494
  169SAPS   C2519124   3.854   4.735   5.400 -0.0785 -0.1814  0.5642
  169SAPS   H5R19125   3.958   4.766   5.417  0.4927 -0.6702 -1.6263
  169SAPS   C2619126   3.793   4.783   5.290 -0.6811  0.2072  0.1725
  169SAPS   H6R19127   3.847   4.850   5.222 -0.2960 -0.9558 -0.7166
  169SAPS   C2719128   3.663   4.747   5.236  0.0308 -0.0910 -0.0287
  169SAPS   H7R19129   3.626   4.827   5.168 -0.3794 -0.9687 -0.8555
  169SAPS   H7S19130   3.587   4.722   5.313  0.8893 -1.7226  0.3235
  169SAPS   C2819131   3.691   4.621   5.154  0.5372  0.2248 -1.0986
  169SAPS   H8R19132   3.746   4.537   5.198 -0.3136 -0.0410 -0.5250
  169SAPS   C2919133   3.630   4.590   5.036 -1.4628 -0.3055 -0.3931
  169SAPS   H9R19134   3.670   4.500   4.987  0.5321  0.8788 -1.1081
  169SAPS  C21019135   3.541   4.677   4.947 -0.2966  0.0189 -0.0688
  169SAPS  H10R19136   3.582   4.780   4.953 -2.2088  0.7397  1.2863
  169SAPS  H10S19137   3.441   4.680   4.995 -0.2757  1.0900 -0.0611
  169SAPS  C21119138   3.520   4.629   4.808 -0.2862  0.1524 -0.4787
  169SAPS  H11R19139   3.545   4.529   4.770 -2.1940 -0.1616 -0.9733
  169SAPS  C21219140   3.471   4.706   4.713 -0.5594  0.2000  0.6564
  169SAPS  H12R19141   3.464   4.674   4.608  2.1445 -0.5279  0.6367
  169SAPS  C21319142   3.436   4.850   4.725 -0.0126  0.4829  0.1053
  169SAPS  H13R19143   3.531   4.907   4.716  0.3879 -0.3387 -1.0921
  169SAPS  H13S19144   3.392   4.876   4.824  0.1200 -1.1372  0.6077
  169SAPS  C21419145   3.341   4.896   4.618 -0.3848 -0.2789 -0.3941
  169SAPS  H14R19146   3.236   4.894   4.651 -1.1029 -0.9518 -2.5500
  169SAPS  C21519147   3.367   4.938   4.487  0.4556  0.4849 -0.1956
  169SAPS  H15R19148   3.285   4.977   4.426  1.7105  4.3705  0.3690
  169SAPS  C21619149   3.507   4.946   4.440 -0.1013 -0.2196  0.0938
  169SAPS  H16R19150   3.574   4.879   4.497 -0.6302 -1.9341 -1.2387
  169SAPS  H16S19151   3.547   5.050   4.452  1.8869 -1.1005  1.7603
  169SAPS  C21719152   3.541   4.904   4.296 -0.7615  0.2028  0.1626
  169SAPS  H17R19153   3.648   4.927   4.275 -0.1560 -1.5402  1.1151
  169SAPS  H17S19154   3.493   4.974   4.224  1.4066  0.9527 -0.6568
  169SAPS  C21819155   3.503   4.763   4.251 -0.2525 -0.0652 -0.1283
  169SAPS  H18R19156   3.405   4.762   4.199 -0.9657  0.5045  1.1531
  169SAPS  H18S19157   3.497   4.684   4.329 -0.6744 -1.9211 -1.9556
  169SAPS  C21919158   3.615   4.696   4.166  0.4304 -0.1087 -0.4115
  169SAPS  H19R19159   3.592   4.587   4.157  2.9136 -0.6161 -1.4825
  169SAPS  H19S19160   3.715   4.703   4.215 -0.7013  0.2491  1.9934
  169SAPS  C22019161   3.629   4.748   4.026  0.1831 -0.2033  0.5505
  169SAPS  H20R19162   3.587   4.850   4.015 -0.1468 -0.2370  1.4114
  169SAPS  H20S19163   3.548   4.693   3.974  2.1133 -2.2174 -0.4884
  169SAPS  H20T19164   3.727   4.730   3.976 -0.0707  1.0310 -0.4228
  169SAPS   C3319165   3.343   4.999   5.502 -0.2634 -0.2417  0.7912
  169SAPS   H3X19166   3.343   5.019   5.393 -1.7015  0.3018  0.8766
  169SAPS   H3Y19167   3.291   5.084   5.552  0.3081  0.3610  0.3855
  169SAPS   C3419168   3.287   4.860   5.519  0.0203  0.1745  0.3018
  169SAPS   H4X19169   3.257   4.849   5.625  3.2521 -2.4465  1.1434
  169SAPS   H4Y19170   3.371   4.787   5.508  0.4183  0.6747 -0.0134
  169SAPS   C3519171   3.182   4.832   5.418  0.6623  0.3538  0.1080
  169SAPS   H5X19172   3.123   4.925   5.405  1.6859  1.0395  0.1907
  169SAPS   H5Y19173   3.126   4.743   5.453  1.6788 -0.6112 -0.6370
  169SAPS   C3619174   3.231   4.783   5.284 -0.6468 -0.0053 -1.2336
  169SAPS   H6X19175   3.305   4.703   5.305  0.9261  1.9159  1.0129
  169SAPS   H6Y19176   3.284   4.866   5.234 -2.6184  3.0947  1.4506
  169SAPS   C3719177   3.123   4.733   5.196  0.3654  0.5842 -0.2761
  169SAPS   H7X19178   3.053   4.818   5.184 -0.3816  0.2795  1.6137
  169SAPS   H7Y19179   3.077   4.644   5.245  1.4751  0.6293  0.8950
  169SAPS   C3819180   3.179   4.678   5.056 -0.1424 -0.3103  0.2406
  169SAPS   H8X19181   3.246   4.589   5.057  1.8498  1.0969 -0.9349
  169SAPS   H8Y19182   3.236   4.763   5.014 -0.8739 -1.0926 -2.5073
  169SAPS   C3919183   3.067   4.641   4.962 -0.5094 -0.4402 -0.2684
  169SAPS   H9X19184   3.000   4.727   4.943 -1.1605 -0.8363  0.1784
  169SAPS   H9Y19185   3.007   4.564   5.014 -0.1761 -0.8202 -0.4435
  169SAPS  C31019186   3.120   4.592   4.826  0.7933  0.2085 -0.0289
  169SAPS  H10X19187   3.155   4.489   4.847 -2.2481 -0.8966  0.0655
  169SAPS  H10Y19188   3.198   4.660   4.785  0.0676  1.7257  0.9906
  169SAPS  C31119189   3.007   4.582   4.729  0.7676  0.1476  0.7762
  169SAPS  H11X19190   2.973   4.687   4.715 -0.1805  0.1525  2.7436
  169SAPS  H11Y19191   2.917   4.527   4.764 -0.4080  0.2982 -1.7730
  169SAPS  C31219192   3.034   4.543   4.584  0.3998 -0.2617  0.3662
  169SAPS  H12X19193   2.930   4.527   4.547  1.0097  0.4550 -1.8166
  169SAPS  H12Y19194   3.077   4.443   4.562  2.7960  1.0600 -1.3748
  169SAPS  C31319195   3.085   4.658   4.501 -0.2135  0.2351  0.8823
  169SAPS  H13X19196   3.186   4.677   4.541 -0.0121 -2.1355  1.6246
  169SAPS  H13Y19197   3.031   4.755   4.514 -0.0454  0.5586 -0.5913
  169SAPS  C31419198   3.082   4.631   4.352  0.5306 -0.2849  0.1401
  169SAPS  H14X19199   2.984   4.593   4.318  0.3661 -0.5108  0.8554
  169SAPS  H14Y19200   3.153   4.548   4.331 -1.4048 -1.0099 -5.0868
  169SAPS  C31519201   3.138   4.755   4.272 -0.3186 -0.3309  0.4291
  169SAPS  H15X19202   3.239   4.781   4.312 -0.6263  0.3687  0.7678
  169SAPS  H15Y19203   3.075   4.841   4.302  0.8960 -0.2399  3.0577
  169SAPS  C31619204   3.147   4.740   4.113  0.4778  0.4210 -0.4526
  169SAPS  H16X19205   3.244   4.692   4.090  2.1855  4.3429 -2.2971
  169SAPS  H16Y19206   3.153   4.846   4.080  0.9355  0.4256 -0.3505
  169SAPS  C31719207   3.017   4.679   4.041  0.4616  1.0683 -0.2272
  169SAPS  H17X19208   3.017   4.721   3.938  0.4279  0.4111 -0.4964
  169SAPS  H17Y19209   2.921   4.709   4.089  0.1869 -1.0758  0.6431
  169SAPS  C31819210   3.018   4.522   4.035  0.0841 -0.2045  0.7183
  169SAPS  H18X19211   2.960   4.474   3.954 -0.6623  0.3926  0.8922
  169SAPS  H18Y19212   2.965   4.491   4.128  0.7353 -3.0815  0.2493
  169SAPS  H18Z19213   3.126   4.497   4.033  0.2238  0.4576 -0.9930
  170SAPS     N19214   2.973   1.563   6.452  0.4754  0.3821  0.2410
  170SAPS   HN119215   2.882   1.610   6.466 -0.7062 -2.0159  1.3500
  170SAPS   HN219216   3.041   1.622   6.400  0.9891 -0.3242  0.0960
  170SAPS   HN319217   2.957   1.479   6.393  2.2283 -0.3108  0.6633
  170SAPS   C1219218   3.042   1.528   6.576 -0.2325 -0.3178 -0.4761
  170SAPS  H12A19219   3.062   1.622   6.627  1.6853 -1.3809  0.8773
  170SAPS   C1319220   2.964   1.446   6.680  0.4153  0.8623 -0.4802
  170SAPS  O13A19221   2.840   1.432   6.667  0.0680 -0.1459  0.4059
  170SAPS  O13B19222   3.012   1.419   6.790 -0.2559  0.6491 -0.1786
  170SAPS   C1119223   3.170   1.446   6.531 -0.2666 -0.1481 -0.1219
  170SAPS  H11A19224   3.240   1.429   6.615 -0.8100  1.2924  0.6673
  170SAPS  H11B19225   3.218   1.506   6.450 -2.3187 -0.4376 -1.6424
  170SAPS     P19226   3.229   1.221   6.421  0.3123  0.0235  0.2295
  170SAPS   O1319227   3.319   1.299   6.339  0.2381 -0.0088  0.1669
  170SAPS   O1419228   3.285   1.131   6.530 -0.1184  0.0292 -0.2667
  170SAPS   O1219229   3.122   1.327   6.486 -0.2780  0.7510 -0.1173
  170SAPS   O1119230   3.123   1.139   6.329  0.3146 -0.1769 -0.2445
  170SAPS    C119231   3.156   1.010   6.280  0.2674  0.3567 -0.4119
  170SAPS    HA19232   3.265   1.005   6.265  0.7694  0.4754  2.5106
  170SAPS    HB19233   3.121   0.918   6.331 -0.2934 -0.2620 -1.8684
  170SAPS    C219234   3.092   1.003   6.137 -0.3073  0.1678 -0.2531
  170SAPS    HS19235   3.132   0.918   6.078 -2.3323 -0.1421 -1.2751
  170SAPS   O2119236   3.106   1.129   6.068 -0.1449 -0.2977  0.1904
  170SAPS   C2119237   3.229   1.159   6.035 -0.3625 -0.4564 -0.1048
  170SAPS   O2219238   3.316   1.076   6.015 -0.7882 -0.0968  1.2783
  170SAPS   C2219239   3.244   1.316   6.021  0.3213  0.0951  0.1739
  170SAPS   H2R19240   3.148   1.359   5.986  0.3925 -1.3294 -2.0122
  170SAPS   H2S19241   3.271   1.367   6.115  2.2253  4.3772 -2.3679
  170SAPS    C319242   2.942   0.963   6.147  0.3436  0.2588  0.2111
  170SAPS    HX19243   2.887   1.025   6.220  0.4370  0.7789 -0.1477
  170SAPS    HY19244   2.945   0.860   6.187 -1.1605  1.4221  3.6493
  170SAPS   O3119245   2.873   0.971   6.021  0.3115  0.2150  0.2285
  170SAPS   C3119246   2.807   1.085   6.000  0.3918  0.6186  0.7518
  170SAPS   O3219247   2.798   1.184   6.071 -0.1300  0.1292 -0.3511
  170SAPS   C3219248   2.744   1.082   5.859  0.1339 -0.1979 -0.5496
  170SAPS   H2X19249   2.670   1.165   5.859 -0.1895 -0.4854 -0.4223
  170SAPS   H2Y19250   2.692   0.985   5.845 -0.3911  0.2297 -1.7218
  170SAPS   C2319251   3.352   1.362   5.913 -0.0333  0.2247 -0.4459
  170SAPS   H3R19252   3.455   1.326   5.932  0.2111  0.9727 -0.3220
  170SAPS   H3S19253   3.360   1.472   5.919 -0.7057  0.2622 -0.0939
  170SAPS   C2419254   3.314   1.321   5.770  0.5701 -0.2347 -0.0797
  170SAPS   H4R19255   3.214   1.363   5.748  0.3135 -0.7663  0.0570
  170SAPS   H4S19256   3.308   1.210   5.771  2.1464 -0.3618  1.8447
  170SAPS   C2519257   3.414   1.362   5.665  0.9539 -0.4271  0.5174
  170SAPS   H5R19258   3.450   1.465   5.675  0.5800 -0.0608 -1.3968
  170SAPS   C2619259   3.468   1.294   5.553  0.2420 -0.2145  0.3345
  170SAPS   H6R19260   3.541   1.345   5.489 -0.0793  1.0270  0.9171
  170SAPS   C2719261   3.421   1.156   5.522  0.8282 -0.3280  0.3946
  170SAPS   H7R19262   3.315   1.157   5.488  0.3828 -1.4405  1.6853
  170SAPS   H7S19263   3.419   1.084   5.606  0.3526 -2.3018 -1.2426
  170SAPS   C2819264   3.491   1.084   5.412  0.1813 -0.1147  0.0324
  170SAPS   H8R19265   3.552   1.001   5.450  0.5336 -0.0060 -0.2892
  170SAPS   C2919266   3.477   1.108   5.278 -0.0159  0.3978 -0.0345
  170SAPS   H9R19267   3.529   1.042   5.206  1.5986  0.1316  1.3100
  170SAPS  C21019268   3.386   1.207   5.206 -0.4626 -0.3051 -0.8239
  170SAPS  H10R19269   3.318   1.260   5.276  1.1855 -0.7512  1.2233
  170SAPS  H10S19270   3.324   1.150   5.134  1.1546  0.3108 -2.8100
  170SAPS  C21119271   3.462   1.313   5.140  0.0878 -0.5960 -0.1544
  170SAPS  H11R19272   3.491   1.398   5.203  1.5836  0.1749 -1.7970
  170SAPS  C21219273   3.482   1.324   5.003 -0.1046  0.2490 -0.1552
  170SAPS  H12R19274   3.548   1.407   4.977  1.1918 -0.6693  0.0780
  170SAPS  C21319275   3.428   1.218   4.904  0.1997  1.0544  0.8244
  170SAPS  H13R19276   3.317   1.217   4.894  0.1676 -2.5274  0.1149
  170SAPS  H13S19277   3.458   1.116   4.936 -0.4494  1.1192  1.6850
  170SAPS  C21419278   3.486   1.248   4.772 -0.4531  0.1401 -0.6511
  170SAPS  H14R19279   3.591   1.216   4.766  0.4721  2.1780  2.4425
  170SAPS  C21519280   3.441   1.307   4.663 -0.3291 -0.3520  0.2312
  170SAPS  H15R19281   3.509   1.319   4.577 -1.8412 -2.7791 -1.4294
  170SAPS  C21619282   3.301   1.365   4.643 -0.0375  0.2096  0.1986
  170SAPS  H16R19283   3.301   1.476   4.654  0.5732  0.5972 -2.8361
  170SAPS  H16S19284   3.222   1.327   4.711 -1.0779 -1.7419 -1.9873
  170SAPS  C21719285   3.260   1.343   4.498 -0.0727  0.3212 -0.5780
  170SAPS  H17R19286   3.327   1.394   4.425  1.0303 -1.0089 -0.5432
  170SAPS  H17S19287   3.160   1.388   4.483  0.1229  0.9140 -0.1365
  170SAPS  C21819288   3.236   1.197   4.463  0.5357  0.5416  0.0929
  170SAPS  H18R19289   3.168   1.152   4.539 -0.4084  1.5053 -0.1461
  170SAPS  H18S19290   3.328   1.135   4.466 -0.2533 -0.6572  0.4166
  170SAPS  C21919291   3.154   1.171   4.334 -0.1138  0.0380 -0.1228
  170SAPS  H19R19292   3.058   1.226   4.338  0.5894  1.2939  0.3287
  170SAPS  H19S19293   3.118   1.066   4.330 -2.9049  0.8794  0.6563
  170SAPS  C22019294   3.222   1.196   4.200  0.1536 -0.1401  0.0341
  170SAPS  H20R19295   3.328   1.164   4.190 -0.0643 -0.1379 -3.1856
  170SAPS  H20S19296   3.230   1.307   4.192  0.3960 -0.0823  0.9457
  170SAPS  H20T19297   3.155   1.150   4.124 -0.5687 -2.3963  1.9125
  170SAPS   C3319298   2.844   1.100   5.746  0.2715 -0.4427 -0.7385
  170SAPS   H3X19299   2.914   1.013   5.747  0.0564 -0.6250 -1.0593
  170SAPS   H3Y19300   2.909   1.188   5.766  0.6692 -0.7652 -0.5970
  170SAPS   C3419301   2.780   1.100   5.608  0.0107  0.7755  0.8608
  170SAPS   H4X19302   2.748   0.996   5.583 -1.1309  0.9817  1.4084
  170SAPS   H4Y19303   2.862   1.116   5.535 -0.5793  1.4419  0.3270
  170SAPS   C3519304   2.677   1.203   5.578 -0.4209 -0.3748 -0.4928
  170SAPS   H5X19305   2.594   1.217   5.651 -2.5895  0.2138 -2.8990
  170SAPS   H5Y19306   2.640   1.185   5.474 -0.3545  1.8839 -0.9807
  170SAPS   C3619307   2.730   1.347   5.589 -0.0673  0.4593 -0.1591
  170SAPS   H6X19308   2.766   1.365   5.693 -0.5219  2.2010 -0.2645
  170SAPS   H6Y19309   2.644   1.416   5.573 -0.0344  0.2771 -1.1560
  170SAPS   C3719310   2.840   1.390   5.489 -0.1799 -0.3137  0.2038
  170SAPS   H7X19311   2.928   1.322   5.493  0.2064  0.1608 -0.0778
  170SAPS   H7Y19312   2.877   1.492   5.514  1.7491 -0.9214  0.0078
  170SAPS   C3819313   2.784   1.393   5.343  0.2837 -0.3205 -0.4370
  170SAPS   H8X19314   2.691   1.454   5.353 -1.2656 -2.4957 -0.7223
  170SAPS   H8Y19315   2.740   1.294   5.315 -0.4654  0.1356 -0.9257
  170SAPS   C3919316   2.890   1.431   5.237 -0.6979  0.5489  0.9362
  170SAPS   H9X19317   2.974   1.360   5.242 -2.8307 -2.3276 -0.6910
  170SAPS   H9Y19318   2.932   1.532   5.258  0.4087  0.4968 -0.7949
  170SAPS  C31019319   2.837   1.435   5.095 -0.4337 -0.1356  0.8293
  170SAPS  H10X19320   2.737   1.483   5.091 -1.5635 -2.4136 -0.8376
  170SAPS  H10Y19321   2.826   1.330   5.061 -0.3469  0.3588 -0.7673
  170SAPS  C31119322   2.934   1.496   4.999  0.1701  1.0000  1.1690
  170SAPS  H11X19323   3.020   1.429   4.980 -1.8337 -0.7975 -2.5342
  170SAPS  H11Y19324   2.974   1.584   5.055 -3.2343  1.9704  2.3380
  170SAPS  C31219325   2.883   1.560   4.870  0.1116 -0.4177 -0.1070
  170SAPS  H12X19326   2.832   1.490   4.801  0.3740  1.7287 -2.6532
  170SAPS  H12Y19327   2.959   1.589   4.795 -0.8130 -3.1602 -2.2815
  170SAPS  C31319328   2.783   1.674   4.887  0.1063 -0.1481  0.1263
  170SAPS  H13X19329   2.835   1.763   4.929  0.5328  0.5859 -1.8376
  170SAPS  H13Y19330   2.704   1.644   4.958 -0.2761 -0.5857 -0.4765
  170SAPS  C31419331   2.734   1.722   4.750 -0.7339 -0.0045 -0.1676
  170SAPS  H14X19332   2.666   1.644   4.712 -0.8901  0.1455 -0.1964
  170SAPS  H14Y19333   2.823   1.727   4.684 -0.2652 -0.2906  0.4310
  170SAPS  C31519334   2.666   1.856   4.748  0.6186 -0.8518  0.1880
  170SAPS  H15X19335   2.740   1.938   4.760 -1.0265  0.5695  0.9469
  170SAPS  H15Y19336   2.589   1.862   4.827  0.4477 -0.7539  0.0156
  170SAPS  C31619337   2.607   1.889   4.610  0.5853  0.5555 -0.2422
  170SAPS  H16X19338   2.527   1.815   4.588  1.0566 -0.3565  1.0326
  170SAPS  H16Y19339   2.688   1.889   4.533  0.4423  2.0327 -0.4187
  170SAPS  C31719340   2.535   2.022   4.613  0.4241 -0.1246 -0.7329
  170SAPS  H17X19341   2.522   2.046   4.505  0.3553 -1.2249 -0.9778
  170SAPS  H17Y19342   2.593   2.106   4.656 -1.1534  1.6787 -1.9200
  170SAPS  C31819343   2.405   2.027   4.693 -0.5727  0.2037 -0.7952
  170SAPS  H18X19344   2.335   2.107   4.663 -0.8349 -0.6650 -2.6190
  170SAPS  H18Y19345   2.431   2.034   4.801 -2.1620  0.1206 -0.3727
  170SAPS  H18Z19346   2.350   1.930   4.688 -0.7216  0.3203 -1.4921
  171SAPS     N19347   3.451   3.750   5.984 -0.0094  0.2556  0.3862
  171SAPS   HN119348   3.416   3.830   5.928  0.6425 -0.6685 -1.4234
  171SAPS   HN219349   3.554   3.760   5.989  0.1853 -1.8815  3.0767
  171SAPS   HN319350   3.434   3.665   5.926  2.1348  1.3921 -2.0908
  171SAPS   C1219351   3.393   3.757   6.123 -0.6791 -0.0758  0.3619
  171SAPS  H12A19352   3.384   3.656   6.161 -0.1710 -0.2965 -0.0913
  171SAPS   C1319353   3.491   3.837   6.220  0.1519  0.3472  0.9518
  171SAPS  O13A19354   3.600   3.873   6.174  0.4264 -0.5440  0.0777
  171SAPS  O13B19355   3.457   3.850   6.338 -0.5716 -0.2912 -1.4114
  171SAPS   C1119356   3.256   3.828   6.123  0.1883  0.1403  0.4431
  171SAPS  H11A19357   3.215   3.815   6.225  1.2839 -2.8849  0.5873
  171SAPS  H11B19358   3.196   3.782   6.041  1.7468 -2.3327  0.5911
  171SAPS     P19359   3.156   4.053   6.034 -0.3684 -0.1204 -0.2836
  171SAPS   O1319360   3.038   3.973   6.008  0.6193 -0.3036 -0.1786
  171SAPS   O1419361   3.139   4.174   6.117  0.2752  0.1895 -0.1050
  171SAPS   O1219362   3.274   3.966   6.093  0.4926  0.6833 -0.0609
  171SAPS   O1119363   3.219   4.103   5.895  0.2469 -0.5504  0.3126
  171SAPS    C119364   3.143   4.139   5.776  0.0874  0.9518  0.0771
  171SAPS    HA19365   3.038   4.172   5.795 -0.4628  1.8154 -3.5859
  171SAPS    HB19366   3.183   4.228   5.722  0.2006 -0.0334 -1.5027
  171SAPS    C219367   3.143   4.022   5.676  0.0960  0.5439  0.6394
  171SAPS    HS19368   3.107   3.932   5.729  0.8593 -0.4818 -0.5499
  171SAPS   O2119369   3.275   4.012   5.617 -0.5276  0.5023 -0.3292
  171SAPS   C2119370   3.362   3.938   5.685  0.4881  0.0815  0.7640
  171SAPS   O2219371   3.336   3.876   5.782  0.3651  0.5570 -0.3586
  171SAPS   C2219372   3.492   3.937   5.608  0.4602 -0.0144  0.6082
  171SAPS   H2R19373   3.529   4.037   5.640 -2.4472  1.3102  0.1730
  171SAPS   H2S19374   3.556   3.854   5.645  1.8958  0.0699 -1.5014
  171SAPS    C319375   3.038   4.039   5.565 -0.3529  0.5733 -0.0134
  171SAPS    HX19376   3.086   4.106   5.490 -0.7356  0.6902 -0.1582
  171SAPS    HY19377   2.942   4.081   5.603  0.2509  0.2458  1.9663
  171SAPS   O3119378   3.018   3.913   5.491 -0.0627 -0.3949 -0.2244
  171SAPS   C3119379   2.943   3.813   5.541 -0.1993 -0.2840  0.4810
  171SAPS   O3219380   2.881   3.813   5.650  0.4114  0.3498 -0.1838
  171SAPS   C3219381   2.962   3.698   5.434 -0.5396 -0.2674  0.4494
  171SAPS   H2X19382   3.071   3.681   5.422 -0.3142  0.9285  0.6171
  171SAPS   H2Y19383   2.922   3.741   5.340  0.5419 -0.1132  0.0384
  171SAPS   C2319384   3.473   3.908   5.451 -0.0223 -0.0942 -0.1994
  171SAPS   H3R19385   3.574   3.925   5.408  0.0597 -3.2936 -1.4936
  171SAPS   H3S19386   3.410   3.983   5.399 -2.2581 -2.3203 -0.8968
  171SAPS   C2419387   3.405   3.776   5.416 -0.1176  0.5275 -0.2068
  171SAPS   H4R19388   3.300   3.785   5.451  0.3073 -0.2304  1.3699
  171SAPS   H4S19389   3.461   3.699   5.473  1.3369 -0.1904 -2.4633
  171SAPS   C2519390   3.421   3.746   5.263  0.4898 -0.0323 -0.5569
  171SAPS   H5R19391   3.335   3.772   5.199 -0.4516 -0.8523  0.3364
  171SAPS   C2619392   3.509   3.682   5.185 -0.0424  0.5636  0.4188
  171SAPS   H6R19393   3.497   3.684   5.076 -0.2400 -2.1018  0.3131
  171SAPS   C2719394   3.644   3.630   5.227  0.0078  0.2007 -0.8916
  171SAPS   H7R19395   3.645   3.620   5.337 -2.6477 -0.6934 -0.8744
  171SAPS   H7S19396   3.723   3.706   5.209 -0.4610  1.1122  0.6740
  171SAPS   C2819397   3.686   3.504   5.163 -0.1406  0.1334 -0.1762
  171SAPS   H8R19398   3.616   3.420   5.174  1.0418 -0.7672  0.8371
  171SAPS   C2919399   3.806   3.481   5.108 -0.2699 -0.1084  0.7710
  171SAPS   H9R19400   3.833   3.385   5.062  1.9720  0.9151 -0.2126
  171SAPS  C21019401   3.919   3.588   5.090 -0.6320  0.6035  0.0787
  171SAPS  H10R19402   3.926   3.663   5.173  1.1844 -1.1225  1.5817
  171SAPS  H10S19403   3.896   3.641   4.995 -1.5083 -0.3132 -0.2354
  171SAPS  C21119404   4.054   3.525   5.082 -0.2397 -0.7193 -0.4632
  171SAPS  H11R19405   4.098   3.489   5.176  2.9064 -2.0312 -2.3115
  171SAPS  C21219406   4.130   3.486   4.979 -0.0920 -0.0208 -0.9291
  171SAPS  H12R19407   4.229   3.439   4.993  0.6693  0.7021 -3.3849
  171SAPS  C21319408   4.096   3.509   4.834  0.4599  0.4746  0.4353
  171SAPS  H13R19409   4.152   3.596   4.792 -0.7508  1.0981  0.0537
  171SAPS  H13S19410   3.989   3.535   4.819  0.9984  2.7727  0.0993
  171SAPS  C21419411   4.134   3.390   4.740 -0.3206 -0.0344 -0.4707
  171SAPS  H14R19412   4.122   3.293   4.791 -1.4291  0.9906  1.3321
  171SAPS  C21519413   4.172   3.390   4.607 -0.2297  0.4562 -0.0757
  171SAPS  H15R19414   4.191   3.298   4.551 -2.2861  0.7281 -1.3000
  171SAPS  C21619415   4.190   3.510   4.513  1.1907  0.4297 -0.3226
  171SAPS  H16R19416   4.295   3.522   4.477  2.0292 -0.1517  1.7745
  171SAPS  H16S19417   4.167   3.604   4.568 -0.5177  2.1356 -3.6922
  171SAPS  C21719418   4.083   3.493   4.401 -0.4207 -0.0524  0.0891
  171SAPS  H17R19419   4.081   3.591   4.348 -1.1323  0.0653  0.3230
  171SAPS  H17S19420   3.976   3.483   4.429  0.3394 -0.2054  3.3353
  171SAPS  C21819421   4.124   3.395   4.294 -0.1470 -0.2103  0.2577
  171SAPS  H18R19422   4.140   3.291   4.331 -2.1045 -0.1741  1.3465
  171SAPS  H18S19423   4.221   3.427   4.251  0.2473 -0.3638  1.0132
  171SAPS  C21919424   4.010   3.377   4.185 -0.4997  0.0019  0.0278
  171SAPS  H19R19425   4.047   3.334   4.090 -1.7788 -0.3523 -0.3338
  171SAPS  H19S19426   3.974   3.482   4.192 -0.0214  0.1267  0.7125
  171SAPS  C22019427   3.901   3.284   4.217  0.4642  0.0171 -0.5501
  171SAPS  H20R19428   3.830   3.333   4.287  1.3532 -1.4933  1.5363
  171SAPS  H20S19429   3.933   3.188   4.264  0.7292 -0.6585 -2.0676
  171SAPS  H20T19430   3.845   3.252   4.127  0.6828  0.2447 -0.7666
  171SAPS   C3319431   2.893   3.574   5.487  0.3580 -0.0474 -1.0509
  171SAPS   H3X19432   2.915   3.558   5.595 -0.2118  3.3772 -0.3243
  171SAPS   H3Y19433   2.928   3.485   5.429 -3.3889 -1.0594 -2.0414
  171SAPS   C3419434   2.741   3.552   5.464 -0.0094 -0.5150 -0.4830
  171SAPS   H4X19435   2.689   3.641   5.505  1.4855  0.9291 -1.5934
  171SAPS   H4Y19436   2.706   3.463   5.520 -0.5164 -0.7932 -1.2198
  171SAPS   C3519437   2.708   3.544   5.316  0.1506 -0.7383  0.4864
  171SAPS   H5X19438   2.752   3.459   5.259 -0.1489  0.5014 -1.7005
  171SAPS   H5Y19439   2.737   3.641   5.272  0.5471  0.2832  2.8431
  171SAPS   C3619440   2.555   3.544   5.299 -0.4687  0.2304  0.4586
  171SAPS   H6X19441   2.520   3.645   5.329 -0.7374  0.4526 -0.5580
  171SAPS   H6Y19442   2.510   3.467   5.366  0.9864 -1.2760 -0.2107
  171SAPS   C3719443   2.506   3.530   5.158  0.7198 -0.6848 -0.4927
  171SAPS   H7X19444   2.511   3.631   5.111 -3.7860  0.7035  1.4288
  171SAPS   H7Y19445   2.396   3.522   5.171  0.9243  0.1990  2.6396
  171SAPS   C3819446   2.556   3.414   5.081  0.2973  0.2505  0.0607
  171SAPS   H8X19447   2.586   3.329   5.145 -2.5603 -0.9734 -0.0859
  171SAPS   H8Y19448   2.642   3.450   5.020  0.0792  0.4772 -0.1145
  171SAPS   C3919449   2.461   3.362   4.973  0.0667 -0.1964 -0.1297
  171SAPS   H9X19450   2.371   3.326   5.026  1.9895  0.3156  3.8887
  171SAPS   H9Y19451   2.499   3.277   4.912  1.7429  1.4172 -1.4588
  171SAPS  C31019452   2.416   3.469   4.875 -0.0612 -0.0228  0.2941
  171SAPS  H10X19453   2.391   3.567   4.920 -2.2006  0.5985 -1.9766
  171SAPS  H10Y19454   2.328   3.428   4.819  1.5660 -2.5623 -0.5539
  171SAPS  C31119455   2.526   3.504   4.774  0.6979 -0.0153  0.4449
  171SAPS  H11X19456   2.549   3.403   4.734 -1.5429 -0.0670 -0.8685
  171SAPS  H11Y19457   2.614   3.547   4.827  2.4534 -1.8159 -0.8812
  171SAPS  C31219458   2.482   3.597   4.663  0.1052  0.2420 -0.5411
  171SAPS  H12X19459   2.453   3.697   4.702  1.0400 -0.2379  1.5247
  171SAPS  H12Y19460   2.394   3.554   4.611  1.3035 -0.0833 -2.4115
  171SAPS  C31319461   2.593   3.615   4.556  0.7101  0.1051 -0.3080
  171SAPS  H13X19462   2.597   3.514   4.508 -3.2729 -0.4278  0.1646
  171SAPS  H13Y19463   2.686   3.647   4.606  1.4691 -1.0364 -0.9334
  171SAPS  C31419464   2.557   3.719   4.445 -0.1241  0.6082 -0.4822
  171SAPS  H14X19465   2.576   3.819   4.490 -3.8563  1.5069 -0.5311
  171SAPS  H14Y19466   2.446   3.725   4.439 -0.1766 -0.4763 -0.8258
  171SAPS  C31519467   2.639   3.706   4.320  0.6798  0.2790  0.2242
  171SAPS  H15X19468   2.609   3.789   4.253  0.2188  0.0125  0.0995
  171SAPS  H15Y19469   2.617   3.612   4.264  2.0531 -0.7298  1.2992
  171SAPS  C31619470   2.787   3.725   4.336 -0.3507 -0.5294  0.0832
  171SAPS  H16X19471   2.840   3.657   4.406  1.7248  1.7880  0.9013
  171SAPS  H16Y19472   2.799   3.832   4.367  1.6518 -0.2782 -1.3556
  171SAPS  C31719473   2.854   3.728   4.203  0.7924 -0.9162 -0.0403
  171SAPS  H17X19474   2.836   3.828   4.158  0.7544 -1.2296 -0.7187
  171SAPS  H17Y19475   2.798   3.664   4.133  0.8286 -1.7789  0.6972
  171SAPS  C31819476   3.006   3.697   4.206  0.3025  0.0893  0.0303
  171SAPS  H18X19477   3.033   3.648   4.303 -0.6407  0.6766  0.6087
  171SAPS  H18Y19478   3.070   3.788   4.203 -0.7975  0.9098  0.8607
  171SAPS  H18Z19479   3.030   3.612   4.138  2.1400  0.3797  0.2501
  172SAPS     N19480   4.796   3.703   6.239 -0.6823  0.3195 -0.2101
  172SAPS   HN119481   4.766   3.642   6.160 -0.9971  1.8716 -1.3227
  172SAPS   HN219482   4.881   3.750   6.203 -0.9894  0.9833 -0.0862
  172SAPS   HN319483   4.811   3.650   6.328  0.4507 -0.3015 -0.7456
  172SAPS   C1219484   4.698   3.810   6.258  0.1363  1.5324 -0.9646
  172SAPS  H12A19485   4.666   3.836   6.158 -0.4431  1.6530 -0.7512
  172SAPS   C1319486   4.585   3.766   6.355  0.3339  1.0708 -0.2344
  172SAPS  O13A19487   4.582   3.654   6.414 -0.3048 -0.1930 -0.1312
  172SAPS  O13B19488   4.486   3.846   6.364  0.0376 -0.0553  0.5032
  172SAPS   C1119489   4.764   3.931   6.327  0.0867 -0.0540 -0.5251
  172SAPS  H11A19490   4.788   3.906   6.432 -2.3344  0.4323  0.2101
  172SAPS  H11B19491   4.680   4.005   6.332  0.0386 -0.2038  1.4355
  172SAPS     P19492   4.965   4.097   6.299  0.1712  0.5129  0.4144
  172SAPS   O1319493   4.893   4.228   6.291 -0.1277  0.0572  0.1287
  172SAPS   O1419494   5.016   4.053   6.427 -0.1463  0.1589 -0.3322
  172SAPS   O1219495   4.869   3.981   6.250 -0.3671 -0.4488 -0.0312
  172SAPS   O1119496   5.083   4.091   6.195  0.4408  0.0308 -0.0278
  172SAPS    C119497   5.121   4.206   6.121  0.2595  0.0217  1.0781
  172SAPS    HA19498   5.025   4.259   6.105 -1.9376 -3.1841  2.6260
  172SAPS    HB19499   5.193   4.278   6.167 -1.1764  2.2063  0.0996
  172SAPS    C219500   5.176   4.175   5.986  0.9995 -0.1141  0.2674
  172SAPS    HS19501   5.168   4.267   5.923  1.1269  1.4219  2.3908
  172SAPS   O2119502   5.105   4.059   5.927  0.1434 -0.7465 -0.2921
  172SAPS   C2119503   4.975   4.077   5.889 -0.5041 -0.0189 -0.1204
  172SAPS   O2219504   4.908   4.173   5.918  0.2204 -0.1887 -0.4109
  172SAPS   C2219505   4.925   3.966   5.794  1.0742  0.5577 -0.3596
  172SAPS   H2R19506   4.962   3.869   5.833  1.6010  0.4154 -1.1873
  172SAPS   H2S19507   4.815   3.972   5.809  1.0618  1.0510 -0.6398
  172SAPS    C319508   5.319   4.124   5.991  0.2475  0.1016  0.4121
  172SAPS    HX19509   5.329   4.033   6.054  1.0673 -0.1801 -0.1156
  172SAPS    HY19510   5.379   4.192   6.055 -0.2585 -0.5963  1.6687
  172SAPS   O3119511   5.380   4.109   5.870  0.3133  0.0174 -0.0571
  172SAPS   C3119512   5.418   3.986   5.836 -0.2182 -0.0597  0.9249
  172SAPS   O3219513   5.414   3.883   5.903  0.6974 -0.4864  0.0502
  172SAPS   C3219514   5.478   3.988   5.696 -0.0706 -0.4711 -0.6380
  172SAPS   H2X19515   5.544   3.898   5.707  0.7034  0.2983  1.5825
  172SAPS   H2Y19516   5.541   4.077   5.675  1.6570 -0.6912  2.8050
  172SAPS   C2319517   4.957   3.989   5.646  0.3405  0.1237  0.4417
  172SAPS   H3R19518   4.884   3.930   5.587  2.0052 -3.8715  2.0500
  172SAPS   H3S19519   5.061   3.953   5.628  1.2992  2.6731  0.3948
  172SAPS   C2419520   4.941   4.136   5.602 -0.0501  0.5758 -0.2160
  172SAPS   H4R19521   4.963   4.146   5.493  2.0652 -0.2463  0.0946
  172SAPS   H4S19522   5.027   4.184   5.654  0.5501  0.0596 -0.7041
  172SAPS   C2519523   4.814   4.213   5.625 -0.1063 -0.0685  0.3317
  172SAPS   H5R19524   4.796   4.234   5.732 -0.0777 -2.2330  0.7912
  172SAPS   C2619525   4.725   4.259   5.530  0.2420  0.6112 -0.3719
  172SAPS   H6R19526   4.636   4.311   5.565  0.2907 -0.6119  1.7631
  172SAPS   C2719527   4.721   4.225   5.381 -0.1343 -0.1646  0.0065
  172SAPS   H7R19528   4.801   4.286   5.333  0.1257  0.8038  1.6230
  172SAPS   H7S19529   4.623   4.257   5.338 -0.5168 -3.0072 -1.4638
  172SAPS   C2819530   4.729   4.077   5.349 -0.1790  0.5937 -0.2271
  172SAPS   H8R19531   4.710   4.008   5.432  1.4014  0.5204  0.1056
  172SAPS   C2919532   4.766   4.031   5.229 -0.2812 -0.2221  0.3403
  172SAPS   H9R19533   4.768   3.923   5.212 -1.1147  0.1903 -2.9457
  172SAPS  C21019534   4.816   4.108   5.106  0.2461  0.5687  0.8700
  172SAPS  H10R19535   4.926   4.120   5.101  0.0376  2.0605 -1.8803
  172SAPS  H10S19536   4.790   4.215   5.094  0.9530  0.4808 -2.5105
  172SAPS  C21119537   4.766   4.043   4.979  0.1969  0.6824 -0.6681
  172SAPS  H11R19538   4.659   4.060   4.961  0.5977  4.9248 -0.2071
  172SAPS  C21219539   4.835   3.961   4.900 -0.1099 -0.2267 -0.5587
  172SAPS  H12R19540   4.771   3.923   4.819 -1.7533  1.3701 -0.0536
  172SAPS  C21319541   4.977   3.913   4.918 -0.5234 -0.0519 -1.0161
  172SAPS  H13R19542   4.981   3.802   4.908 -0.4344 -0.0472 -1.0341
  172SAPS  H13S19543   5.004   3.932   5.024 -1.2921  0.5011 -0.9167
  172SAPS  C21419544   5.075   3.983   4.822  0.1853 -0.3138 -0.0126
  172SAPS  H14R19545   5.146   4.055   4.866 -0.4920 -1.0074  2.3967
  172SAPS  C21519546   5.081   3.966   4.688  0.0558 -0.2562 -0.3787
  172SAPS  H15R19547   5.164   4.013   4.633 -0.4613 -0.2448 -1.1568
  172SAPS  C21619548   4.999   3.871   4.601  0.2053 -0.2617  0.0271
  172SAPS  H16R19549   4.910   3.928   4.564 -0.2165 -1.0024 -0.1136
  172SAPS  H16S19550   4.954   3.800   4.673 -0.7360 -0.2430 -0.5295
  172SAPS  C21719551   5.073   3.783   4.488 -0.0748  0.0340  0.0065
  172SAPS  H17R19552   5.163   3.743   4.539  1.3661  0.6988 -1.8820
  172SAPS  H17S19553   5.112   3.849   4.407 -0.4637 -1.5466 -1.5275
  172SAPS  C21819554   4.980   3.681   4.412  0.3010  0.2496  0.2260
  172SAPS  H18R19555   4.945   3.605   4.485 -0.2664  1.9233  1.7879
  172SAPS  H18S19556   5.029   3.628   4.328  0.3530 -1.0425  1.0411
  172SAPS  C21919557   4.851   3.755   4.361 -0.0853 -0.2202 -0.5886
  172SAPS  H19R19558   4.894   3.850   4.321  0.2896  0.3554  1.1023
  172SAPS  H19S19559   4.794   3.783   4.452 -0.0008 -2.1370  0.0877
  172SAPS  C22019560   4.769   3.676   4.265  0.2033  0.4523 -0.1513
  172SAPS  H20R19561   4.696   3.744   4.215  1.3021  1.5330 -0.3325
  172SAPS  H20S19562   4.710   3.598   4.317  0.7441 -0.9437 -1.5648
  172SAPS  H20T19563   4.842   3.625   4.199 -0.7317 -2.7276  1.1076
  172SAPS   C3319564   5.369   3.951   5.593 -0.0039  0.6810  0.7415
  172SAPS   H3X19565   5.288   4.028   5.589  0.1254  0.9416  2.5064
  172SAPS   H3Y19566   5.326   3.856   5.630 -0.0432  1.0049  1.5486
  172SAPS   C3419567   5.428   3.926   5.449  0.3999 -0.4273 -1.0666
  172SAPS   H4X19568   5.521   3.867   5.461  0.1155 -0.9911 -1.5697
  172SAPS   H4Y19569   5.454   4.020   5.397  2.5751 -0.3632  0.0188
  172SAPS   C3519570   5.332   3.863   5.359 -0.1144 -0.3440  0.1011
  172SAPS   H5X19571   5.240   3.925   5.355  0.7380  0.9248 -0.4443
  172SAPS   H5Y19572   5.310   3.760   5.392  0.4838  0.0090  1.6841
  172SAPS   C3619573   5.380   3.852   5.221 -0.4898  0.1983  0.8501
  172SAPS   H6X19574   5.467   3.783   5.219 -1.7017 -1.3841 -0.9329
  172SAPS   H6Y19575   5.417   3.946   5.174  0.5713  0.1624  1.5710
  172SAPS   C3719576   5.286   3.783   5.125  0.0228 -0.0901 -0.9563
  172SAPS   H7X19577   5.181   3.815   5.144  0.1857 -0.1521  0.0980
  172SAPS   H7Y19578   5.274   3.675   5.150  2.1801 -0.4342 -1.2642
  172SAPS   C3819579   5.320   3.795   4.975  0.3326  0.4793  0.6062
  172SAPS   H8X19580   5.337   3.902   4.946  1.0424  0.0682 -0.5955
  172SAPS   H8Y19581   5.234   3.761   4.913  2.6886 -2.0681 -1.5619
  172SAPS   C3919582   5.439   3.717   4.926  0.8659  0.3278  0.3594
  172SAPS   H9X19583   5.419   3.609   4.942 -1.0020  0.3301 -1.4719
  172SAPS   H9Y19584   5.540   3.737   4.968  1.4653 -2.5352  0.4921
  172SAPS  C31019585   5.447   3.729   4.767  0.0840  0.1028 -0.1010
  172SAPS  H10X19586   5.454   3.838   4.747 -1.6645  0.5768  1.5723
  172SAPS  H10Y19587   5.354   3.689   4.720 -0.0799 -2.0986  1.9284
  172SAPS  C31119588   5.575   3.662   4.708 -0.5443  0.3797 -0.6137
  172SAPS  H11X19589   5.621   3.615   4.798  2.8112  0.7856 -1.9705
  172SAPS  H11Y19590   5.639   3.751   4.692  0.1791 -0.3386 -1.8944
  172SAPS  C31219591   5.561   3.574   4.585 -0.0443 -0.2176 -0.0617
  172SAPS  H12X19592   5.491   3.492   4.610  1.5341 -1.1670  1.4789
  172SAPS  H12Y19593   5.652   3.511   4.579 -0.5282 -0.9092 -0.2369
  172SAPS  C31319594   5.522   3.645   4.454  0.2578 -0.6752  0.4021
  172SAPS  H13X19595   5.596   3.728   4.442 -0.4212 -0.1559 -0.3196
  172SAPS  H13Y19596   5.420   3.685   4.472 -0.2817 -2.3168  1.1755
  172SAPS  C31419597   5.528   3.559   4.327  0.5708 -0.9753 -0.2208
  172SAPS  H14X19598   5.516   3.453   4.359  0.2218 -1.3330 -1.4951
  172SAPS  H14Y19599   5.630   3.585   4.290  1.0458 -1.4481  0.7143
  172SAPS  C31519600   5.414   3.597   4.236 -0.2846  0.0995  0.0071
  172SAPS  H15X19601   5.447   3.588   4.130 -0.7236  2.3150 -0.3704
  172SAPS  H15Y19602   5.387   3.705   4.246  1.7790  0.7127 -0.6127
  172SAPS  C31619603   5.282   3.520   4.266 -0.0140 -0.5245  0.4543
  172SAPS  H16X19604   5.261   3.523   4.375 -0.2293 -1.3785  0.4502
  172SAPS  H16Y19605   5.199   3.572   4.215 -0.5618 -1.8176 -0.0226
  172SAPS  C31719606   5.275   3.372   4.223  0.0282 -0.7706 -0.1764
  172SAPS  H17X19607   5.168   3.349   4.240  0.6944 -2.6594  1.9507
  172SAPS  H17Y19608   5.320   3.305   4.299  2.5428 -1.1817 -1.8856
  172SAPS  C31819609   5.329   3.343   4.080 -0.7920 -0.3864 -0.3323
  172SAPS  H18X19610   5.434   3.371   4.058 -0.7572 -1.7608 -2.2164
  172SAPS  H18Y19611   5.274   3.410   4.011 -0.3797  0.0855 -0.2049
  172SAPS  H18Z19612   5.316   3.235   4.055  3.0661 -0.8065 -1.1791
  173SAPS     N19613   1.179   4.897   1.253  0.2905  0.5276 -0.4881
  173SAPS   HN119614   1.247   4.825   1.285 -0.4449 -0.1381 -0.4089
  173SAPS   HN219615   1.097   4.849   1.211  1.8588 -0.5921 -2.4783
  173SAPS   HN319616   1.227   4.946   1.175  2.7226 -2.3306 -0.9656
  173SAPS   C1219617   1.122   4.970   1.368 -0.0412  0.1006 -0.4050
  173SAPS  H12A19618   1.040   5.027   1.327  1.8932  2.0374 -1.8309
  173SAPS   C1319619   1.058   4.874   1.463 -0.4381  0.2429 -0.4091
  173SAPS  O13A19620   1.055   4.750   1.440  0.2446 -0.5965 -0.1041
  173SAPS  O13B19621   1.021   4.920   1.575 -0.0776  0.0662 -0.1680
  173SAPS   C1119622   1.229   5.050   1.445  0.1466 -0.3985  1.1652
  173SAPS  H11A19623   1.313   4.986   1.480 -0.8371 -1.5175  1.5503
  173SAPS  H11B19624   1.182   5.087   1.540 -1.8633  0.4919 -0.0997
  173SAPS     P19625   1.201   5.295   1.362 -0.1882  0.0193  0.1023
  173SAPS   O1319626   1.278   5.385   1.276 -0.3407  0.1606 -0.4345
  173SAPS   O1419627   1.060   5.278   1.329  0.1740  0.8594 -0.3368
  173SAPS   O1219628   1.280   5.155   1.365 -0.7223 -0.7186  0.4131
  173SAPS   O1119629   1.213   5.353   1.505 -0.6028 -0.7171 -0.4172
  173SAPS    C119630   1.335   5.389   1.564 -0.0290  0.2576  0.3863
  173SAPS    HA19631   1.412   5.411   1.488  0.4722  0.3959  0.9225
  173SAPS    HB19632   1.319   5.483   1.621  1.9319  2.0385 -1.8293
  173SAPS    C219633   1.397   5.284   1.662  0.4701 -0.2955 -0.3705
  173SAPS    HS19634   1.419   5.190   1.606 -2.0953 -2.1738  1.4934
  173SAPS   O2119635   1.313   5.266   1.780  0.0941 -0.4640 -0.1265
  173SAPS   C2119636   1.331   5.152   1.837  0.1767  1.2243  0.5775
  173SAPS   O2219637   1.416   5.071   1.808  0.4880  0.6426 -0.2200
  173SAPS   C2219638   1.232   5.121   1.951 -0.0997  0.6255 -0.4595
  173SAPS   H2R19639   1.241   5.211   2.016 -2.4721 -0.5282  1.6322
  173SAPS   H2S19640   1.131   5.127   1.905 -0.8279  0.2899  1.0337
  173SAPS    C319641   1.540   5.325   1.709  0.0605  0.2378 -0.3305
  173SAPS    HX19642   1.596   5.319   1.613 -0.5990 -0.4771 -0.6831
  173SAPS    HY19643   1.582   5.254   1.783 -1.3565 -0.4740 -0.1938
  173SAPS   O3119644   1.546   5.458   1.755 -0.1894  0.1148  0.1662
  173SAPS   C3119645   1.675   5.491   1.789 -0.0038 -0.5396 -0.3714
  173SAPS   O3219646   1.763   5.414   1.789  0.7916 -0.1259  0.2499
  173SAPS   C3219647   1.689   5.638   1.830  0.1497 -0.1895 -0.5162
  173SAPS   H2X19648   1.590   5.687   1.832 -0.2952 -1.0658  0.9128
  173SAPS   H2Y19649   1.753   5.689   1.755  2.0904 -1.0344  0.4692
  173SAPS   C2319650   1.258   4.983   2.032 -1.0992 -0.1407  0.1401
  173SAPS   H3R19651   1.361   4.994   2.072  0.2491 -0.4307 -2.9459
  173SAPS   H3S19652   1.239   4.903   1.958  0.2393 -0.8643  0.5519
  173SAPS   C2419653   1.161   4.957   2.146 -0.3645 -0.0069 -0.2230
  173SAPS   H4R19654   1.065   4.965   2.092 -0.2757 -0.2489 -0.4226
  173SAPS   H4S19655   1.171   5.041   2.218 -1.6594  0.3444 -0.4347
  173SAPS   C2519656   1.185   4.815   2.195  0.0738  0.2515 -1.1733
  173SAPS   H5R19657   1.162   4.735   2.122  1.1474 -1.9468  0.7506
  173SAPS   C2619658   1.232   4.786   2.317  0.1532  0.2255 -0.0022
  173SAPS   H6R19659   1.238   4.680   2.347 -0.0820 -0.7340 -2.9589
  173SAPS   C2719660   1.269   4.891   2.420 -0.4083  0.3756 -0.6015
  173SAPS   H7R19661   1.300   4.988   2.377 -1.3289  1.4354  1.0364
  173SAPS   H7S19662   1.350   4.852   2.486 -0.5582 -0.3429 -0.8294
  173SAPS   C2819663   1.147   4.926   2.505  0.3805 -0.0701 -0.5926
  173SAPS   H8R19664   1.096   5.013   2.462  0.2828  0.4551  0.5562
  173SAPS   C2919665   1.096   4.854   2.611 -0.0909 -0.2475  0.9439
  173SAPS   H9R19666   1.000   4.880   2.658 -1.0114 -1.2147 -0.3175
  173SAPS  C21019667   1.155   4.728   2.669 -0.0367  0.1331 -0.1808
  173SAPS  H10R19668   1.235   4.757   2.740  2.0089 -1.2802 -1.7790
  173SAPS  H10S19669   1.209   4.673   2.589 -0.6861 -0.0351 -0.5134
  173SAPS  C21119670   1.059   4.629   2.735 -0.3028  0.4636  0.0055
  173SAPS  H11R19671   0.997   4.571   2.666 -0.3092 -0.8024  1.0331
  173SAPS  C21219672   1.044   4.589   2.866  0.1643 -0.0348 -0.0932
  173SAPS  H12R19673   0.958   4.523   2.886  0.0565 -0.3556 -1.4955
  173SAPS  C21319674   1.128   4.641   2.986 -0.3534 -0.0471  0.2772
  173SAPS  H13R19675   1.233   4.647   2.951  0.1022 -2.3995  1.0488
  173SAPS  H13S19676   1.140   4.563   3.064  1.7273  0.1948  0.2355
  173SAPS  C21419677   1.082   4.774   3.037  0.1551 -0.8652 -0.0411
  173SAPS  H14R19678   1.024   4.844   2.975  0.6169 -0.5001 -0.0594
  173SAPS  C21519679   1.103   4.817   3.159 -0.1283  0.0299 -0.9701
  173SAPS  H15R19680   1.050   4.907   3.194  0.4129  0.1445 -0.4208
  173SAPS  C21619681   1.167   4.734   3.270 -0.6702  0.5272  0.0305
  173SAPS  H16R19682   1.231   4.654   3.228 -0.0271  2.1108 -2.2431
  173SAPS  H16S19683   1.093   4.684   3.336 -0.5878  2.2955  1.5625
  173SAPS  C21719684   1.251   4.813   3.375  0.3039 -0.3089  0.6025
  173SAPS  H17R19685   1.192   4.900   3.410  0.4390 -0.3160  0.8539
  173SAPS  H17S19686   1.338   4.853   3.318  0.0395 -0.3640  0.1602
  173SAPS  C21819687   1.296   4.725   3.498  0.1891  0.3751 -0.6016
  173SAPS  H18R19688   1.348   4.631   3.470 -0.5831 -1.4757  3.5458
  173SAPS  H18S19689   1.213   4.683   3.557 -0.5397  1.9777 -0.4309
  173SAPS  C21919690   1.387   4.812   3.589  1.2097  0.2760 -0.0960
  173SAPS  H19R19691   1.328   4.901   3.622 -0.3824 -0.2110 -1.4977
  173SAPS  H19S19692   1.474   4.848   3.530  0.3821  0.9422 -0.9397
  173SAPS  C22019693   1.443   4.720   3.705  0.1646 -0.5270 -0.6316
  173SAPS  H20R19694   1.503   4.785   3.772  1.1311 -0.4117 -1.5684
  173SAPS  H20S19695   1.520   4.648   3.668  1.2943  0.9521 -1.2635
  173SAPS  H20T19696   1.372   4.660   3.765  1.0509 -1.0082 -0.0441
  173SAPS   C3319697   1.771   5.626   1.968  0.3755  0.3355  0.1462
  173SAPS   H3X19698   1.811   5.727   1.992 -0.3858  0.1546  2.4091
  173SAPS   H3Y19699   1.858   5.561   1.942  0.0397  0.6797 -2.0632
  173SAPS   C3419700   1.698   5.573   2.090  0.7147 -0.6007  0.0865
  173SAPS   H4X19701   1.654   5.473   2.072 -1.8033  0.0582  2.0267
  173SAPS   H4Y19702   1.611   5.637   2.115  0.7779 -0.5013  0.0526
  173SAPS   C3519703   1.781   5.553   2.215  0.6121 -0.1396  0.3047
  173SAPS   H5X19704   1.820   5.655   2.231 -0.3769  1.1219 -3.8573
  173SAPS   H5Y19705   1.865   5.485   2.188  1.0762 -0.0160  1.3950
  173SAPS   C3619706   1.719   5.482   2.332 -0.0238  0.3140  0.4996
  173SAPS   H6X19707   1.738   5.373   2.319  0.0901  0.0207  2.7334
  173SAPS   H6Y19708   1.612   5.511   2.337  0.6209  3.1065 -0.1580
  173SAPS   C3719709   1.787   5.521   2.461  0.4775 -0.3407 -0.1186
  173SAPS   H7X19710   1.756   5.626   2.481 -2.9176 -1.4144  1.0358
  173SAPS   H7Y19711   1.896   5.523   2.443  0.3954  1.8903 -0.7355
  173SAPS   C3819712   1.741   5.440   2.588  0.2379 -0.1022 -0.1674
  173SAPS   H8X19713   1.751   5.332   2.564 -3.2090  0.0297 -2.9390
  173SAPS   H8Y19714   1.634   5.456   2.611  0.3479 -1.2735  1.3437
  173SAPS   C3919715   1.820   5.464   2.719  0.5566  0.5526  0.6031
  173SAPS   H9X19716   1.789   5.565   2.754 -0.2510  0.8570 -0.9189
  173SAPS   H9Y19717   1.929   5.460   2.698  0.0070 -0.4579 -2.5100
  173SAPS  C31019718   1.794   5.358   2.828 -0.6758 -0.2182 -0.3288
  173SAPS  H10X19719   1.846   5.263   2.804 -0.0624 -0.1841  0.8022
  173SAPS  H10Y19720   1.685   5.339   2.844 -0.5841 -0.9002 -0.4804
  173SAPS  C31119721   1.851   5.402   2.964  0.4199 -0.4165  0.2427
  173SAPS  H11X19722   1.813   5.503   2.989 -0.5227 -0.7827  0.3441
  173SAPS  H11Y19723   1.961   5.417   2.965  0.4081 -0.3281  0.2754
  173SAPS  C31219724   1.820   5.312   3.092 -0.4676  0.8276  0.3801
  173SAPS  H12X19725   1.817   5.206   3.062 -1.3734  1.0102 -0.2198
  173SAPS  H12Y19726   1.720   5.340   3.131 -1.1303 -0.0328 -0.6536
  173SAPS  C31319727   1.920   5.339   3.205  0.2954  0.8185 -0.0246
  173SAPS  H13X19728   1.899   5.443   3.237 -1.7008  1.2221 -2.3581
  173SAPS  H13Y19729   2.019   5.325   3.157 -0.5009 -0.1346 -1.4540
  173SAPS  C31419730   1.909   5.257   3.337  0.3184  0.2965  0.4045
  173SAPS  H14X19731   1.943   5.158   3.301  1.7600  1.2154 -0.9154
  173SAPS  H14Y19732   1.804   5.252   3.370  0.0056 -0.2571 -0.6385
  173SAPS  C31519733   2.009   5.284   3.451  0.5984 -0.1926  0.2912
  173SAPS  H15X19734   2.109   5.293   3.402 -0.7290 -1.0455 -2.8697
  173SAPS  H15Y19735   2.014   5.191   3.511 -0.5505  0.9846  2.2819
  173SAPS  C31619736   1.965   5.395   3.545 -0.1897 -0.8805  0.1192
  173SAPS  H16X19737   1.881   5.364   3.611 -0.3213 -1.2056 -0.1993
  173SAPS  H16Y19738   1.934   5.484   3.487 -0.0130  0.0844  1.4521
  173SAPS  C31719739   2.087   5.446   3.636 -0.3146 -0.1806  0.1735
  173SAPS  H17X19740   2.169   5.460   3.562 -0.5256 -0.6848 -0.1632
  173SAPS  H17Y19741   2.118   5.362   3.701  3.3194  0.4415 -0.5157
  173SAPS  C31819742   2.064   5.583   3.685  0.0247  0.0775 -0.1297
  173SAPS  H18X19743   1.981   5.580   3.759 -0.9255  2.5426 -0.9950
  173SAPS  H18Y19744   2.041   5.659   3.607 -0.7082  1.0837  1.0264
  173SAPS  H18Z19745   2.153   5.616   3.742  0.6807 -0.2744 -0.9233
  174SAPS     N19746   3.939   4.412   1.370  0.7181  0.1456  0.3122
  174SAPS   HN119747   3.991   4.360   1.443  0.1629  2.0405  2.1949
  174SAPS   HN219748   4.010   4.449   1.304  1.2884  1.1899  1.4615
  174SAPS   HN319749   3.888   4.493   1.410  0.4163  0.7404 -1.2002
  174SAPS   C1219750   3.840   4.335   1.294  0.0659  0.2192  0.1551
  174SAPS  H12A19751   3.761   4.407   1.278  1.1606  1.2120 -1.0504
  174SAPS   C1319752   3.894   4.288   1.160  0.4960 -0.7003  0.4080
  174SAPS  O13A19753   4.015   4.308   1.129  0.0054  0.4833 -0.0422
  174SAPS  O13B19754   3.812   4.212   1.098 -0.5351  0.3353  0.1069
  174SAPS   C1119755   3.784   4.216   1.385 -0.4667  0.6151  0.4582
  174SAPS  H11A19756   3.862   4.137   1.374 -0.9859 -0.1283  1.8765
  174SAPS  H11B19757   3.697   4.176   1.328  0.1780 -0.4101  0.1584
  174SAPS     P19758   3.604   4.290   1.559  0.3499  0.0085  0.0060
  174SAPS   O1319759   3.544   4.387   1.468 -0.1802  0.3598  0.0796
  174SAPS   O1419760   3.528   4.158   1.573 -0.0462 -0.0788  0.1503
  174SAPS   O1219761   3.758   4.256   1.517  0.8545 -0.6329 -0.2360
  174SAPS   O1119762   3.619   4.348   1.705  0.2724 -0.1072 -0.1538
  174SAPS    C119763   3.732   4.437   1.733  0.1695 -0.8362 -0.0757
  174SAPS    HA19764   3.796   4.468   1.647  2.0528 -2.8160  0.5287
  174SAPS    HB19765   3.695   4.532   1.776 -1.1078 -1.7943  1.0122
  174SAPS    C219766   3.835   4.382   1.840 -0.3872  0.7702 -0.4490
  174SAPS    HS19767   3.878   4.291   1.792  1.5908  0.6695  1.3647
  174SAPS   O2119768   3.772   4.337   1.960 -0.0145 -0.0521 -0.2708
  174SAPS   C2119769   3.847   4.266   2.037  0.1193 -0.3230 -0.6867
  174SAPS   O2219770   3.960   4.226   2.012 -0.3532  0.6625  0.7547
  174SAPS   C2219771   3.773   4.241   2.174  0.6786 -0.1573  0.8574
  174SAPS   H2R19772   3.813   4.306   2.254 -2.6721 -2.1195  4.4473
  174SAPS   H2S19773   3.664   4.262   2.165  0.4807 -1.4834 -0.1859
  174SAPS    C319774   3.943   4.485   1.865  0.0310 -0.3860  0.3376
  174SAPS    HX19775   3.975   4.525   1.767  0.2938  0.2330  0.6710
  174SAPS    HY19776   4.032   4.443   1.917 -0.4009 -1.7344  0.0284
  174SAPS   O3119777   3.894   4.601   1.950  0.6591  0.1142  0.1996
  174SAPS   C3119778   3.989   4.698   1.958 -0.5745  0.1818 -0.2541
  174SAPS   O3219779   4.087   4.703   1.891 -0.4258 -0.4942 -0.6792
  174SAPS   C3219780   3.941   4.808   2.056 -0.0814  0.0621 -0.1120
  174SAPS   H2X19781   3.862   4.757   2.114 -0.0045 -0.7047 -0.6532
  174SAPS   H2Y19782   3.882   4.883   2.000  0.4900  0.8295  0.3097
  174SAPS   C2319783   3.787   4.090   2.215  0.4453  0.9781  0.1204
  174SAPS   H3R19784   3.888   4.044   2.218 -1.3793 -3.4302  1.1996
  174SAPS   H3S19785   3.742   4.020   2.142  1.9823  2.0869 -1.9877
  174SAPS   C2419786   3.724   4.067   2.352 -0.2527 -0.0849  0.0828
  174SAPS   H4R19787   3.730   3.957   2.370  0.5386  0.2505  2.0628
  174SAPS   H4S19788   3.621   4.109   2.351  0.5274  1.9439  0.7977
  174SAPS   C2519789   3.809   4.123   2.464 -0.1241 -0.3007  0.1560
  174SAPS   H5R19790   3.912   4.156   2.446 -0.7318  2.6717  1.4895
  174SAPS   C2619791   3.770   4.105   2.591 -0.6322  0.1784  0.0800
  174SAPS   H6R19792   3.833   4.141   2.674 -1.0591 -0.3099  0.6281
  174SAPS   C2719793   3.634   4.050   2.632 -0.4536  1.1230 -0.2694
  174SAPS   H7R19794   3.566   4.051   2.544  0.4826  0.4085 -1.0323
  174SAPS   H7S19795   3.581   4.115   2.705 -1.7136  0.7621 -0.8319
  174SAPS   C2819796   3.639   3.905   2.676 -0.0397  0.0008  0.6878
  174SAPS   H8R19797   3.623   3.834   2.593 -0.2003  1.4040 -0.5244
  174SAPS   C2919798   3.649   3.856   2.793  0.4783  0.3945 -1.0789
  174SAPS   H9R19799   3.653   3.749   2.815  2.9207  0.3994 -1.2205
  174SAPS  C21019800   3.671   3.938   2.919 -0.0145 -0.1352 -0.5579
  174SAPS  H10R19801   3.566   3.949   2.953 -2.2527  1.0389 -6.6390
  174SAPS  H10S19802   3.693   4.041   2.885 -2.0351 -0.3331 -2.6778
  174SAPS  C21119803   3.767   3.898   3.027  0.0603  0.3248 -0.6302
  174SAPS  H11R19804   3.784   3.789   3.021 -0.1217  0.1608  1.1089
  174SAPS  C21219805   3.834   3.973   3.113  0.0372  0.9880  0.2141
  174SAPS  H12R19806   3.906   3.928   3.183 -2.5177 -1.2601  1.5869
  174SAPS  C21319807   3.821   4.123   3.118  0.7261 -0.1082  0.0568
  174SAPS  H13R19808   3.799   4.159   3.221  0.7716  1.9895 -0.6080
  174SAPS  H13S19809   3.733   4.155   3.058  1.2090 -1.4001 -1.3867
  174SAPS  C21419810   3.943   4.208   3.082 -0.3384  0.1484  0.1333
  174SAPS  H14R19811   3.973   4.197   2.977  1.6011  2.3959  0.3696
  174SAPS  C21519812   4.035   4.285   3.149  0.0612 -0.4544 -0.3643
  174SAPS  H15R19813   4.113   4.332   3.087  0.0325  4.3413  2.7423
  174SAPS  C21619814   4.027   4.309   3.301 -0.1313  0.1072  0.1780
  174SAPS  H16R19815   3.938   4.269   3.356 -0.1395 -0.1311 -0.0068
  174SAPS  H16S19816   4.031   4.416   3.329 -0.1394 -0.2231  1.5437
  174SAPS  C21719817   4.148   4.240   3.365 -0.0401  0.3846 -0.3990
  174SAPS  H17R19818   4.244   4.269   3.318  1.0750 -0.1291  1.4781
  174SAPS  H17S19819   4.133   4.130   3.365 -2.0588  0.6132 -0.1308
  174SAPS  C21819820   4.154   4.284   3.508 -0.2270  0.1652 -0.0203
  174SAPS  H18R19821   4.053   4.278   3.556  1.0565  2.4329  3.3810
  174SAPS  H18S19822   4.183   4.390   3.520  1.2008 -0.3662  1.6772
  174SAPS  C21919823   4.256   4.204   3.592  0.0994 -0.0898 -0.5485
  174SAPS  H19R19824   4.359   4.203   3.551  1.0969  1.4455  1.6981
  174SAPS  H19S19825   4.229   4.097   3.595 -3.7467  0.7366 -0.5493
  174SAPS  C22019826   4.271   4.265   3.732 -0.0516  0.7551  0.1341
  174SAPS  H20R19827   4.178   4.319   3.760 -0.0924  2.2321 -2.5257
  174SAPS  H20S19828   4.362   4.328   3.744  1.3765 -1.1700 -0.0968
  174SAPS  H20T19829   4.278   4.187   3.811 -2.3963  0.1503 -0.1720
  174SAPS   C3319830   4.040   4.877   2.145 -0.0910 -0.2812  0.1065
  174SAPS   H3X19831   4.111   4.937   2.084 -1.2847  2.8980  1.6208
  174SAPS   H3Y19832   4.115   4.807   2.189  1.0951 -0.0631 -1.4709
  174SAPS   C3419833   3.976   4.962   2.253  0.3496 -0.0845  0.3696
  174SAPS   H4X19834   3.914   4.898   2.319  1.3277 -1.6177 -0.1231
  174SAPS   H4Y19835   3.918   5.040   2.200 -1.9151 -1.3286  0.9243
  174SAPS   C3519836   4.087   5.040   2.331 -0.2400 -0.6364 -0.4804
  174SAPS   H5X19837   4.152   5.097   2.262 -1.1210  0.0732 -0.7338
  174SAPS   H5Y19838   4.147   4.960   2.381  0.2197 -0.7369 -1.1738
  174SAPS   C3619839   4.028   5.135   2.437 -0.1172 -0.8410 -0.5105
  174SAPS   H6X19840   3.966   5.221   2.404  3.3692  2.6800  1.3658
  174SAPS   H6Y19841   4.114   5.185   2.486 -2.2410  0.2350  2.4194
  174SAPS   C3719842   3.944   5.072   2.548  0.6069  0.1259  0.2677
  174SAPS   H7X19843   3.844   5.037   2.518 -0.1297  3.4571 -1.6971
  174SAPS   H7Y19844   3.912   5.153   2.618  0.3066  0.9023 -0.7401
  174SAPS   C3819845   4.023   4.967   2.644  0.3287 -0.6749 -0.9196
  174SAPS   H8X19846   4.114   5.013   2.687  0.3371  1.3494 -2.9157
  174SAPS   H8Y19847   4.052   4.888   2.571 -0.2431 -1.2548 -0.5287
  174SAPS   C3919848   3.931   4.913   2.752  0.1912 -0.5070 -0.0981
  174SAPS   H9X19849   3.945   4.804   2.767 -2.5971 -1.0488 -0.9267
  174SAPS   H9Y19850   3.824   4.923   2.725  0.5140  1.2420 -0.9095
  174SAPS  C31019851   3.943   4.982   2.888  0.1010  1.1715 -0.0429
  174SAPS  H10X19852   3.918   5.090   2.880  1.0885  1.3341 -1.2584
  174SAPS  H10Y19853   4.047   4.966   2.925 -0.1550  0.8707  0.5727
  174SAPS  C31119854   3.855   4.915   2.995 -0.2878 -0.0050 -0.0911
  174SAPS  H11X19855   3.884   4.808   2.995  1.9374  0.5545 -0.1304
  174SAPS  H11Y19856   3.749   4.928   2.965  0.3389 -0.8044 -2.9299
  174SAPS  C31219857   3.868   4.983   3.129 -0.4799 -0.5394  0.4714
  174SAPS  H12X19858   3.848   5.091   3.120  0.7549 -0.3568 -0.5051
  174SAPS  H12Y19859   3.972   4.972   3.166  0.1827 -1.2343 -1.4340
  174SAPS  C31319860   3.772   4.912   3.233 -0.3085  0.1017  0.9945
  174SAPS  H13X19861   3.796   4.803   3.232  0.7202  0.3278  0.1191
  174SAPS  H13Y19862   3.671   4.910   3.188  0.8015 -0.8368 -1.6409
  174SAPS  C31419863   3.784   4.974   3.372  0.1198  0.8984 -0.1293
  174SAPS  H14X19864   3.771   5.084   3.376  0.0573  0.8505  1.4703
  174SAPS  H14Y19865   3.873   4.933   3.424  0.2052 -0.0122 -0.9517
  174SAPS  C31519866   3.664   4.932   3.463 -0.0208  0.3084  0.2942
  174SAPS  H15X19867   3.568   4.958   3.415 -0.6602  2.5882  2.5780
  174SAPS  H15Y19868   3.659   4.990   3.558  0.5857 -1.7927  1.6869
  174SAPS  C31619869   3.663   4.782   3.492  0.2287 -0.1565  0.2171
  174SAPS  H16X19870   3.759   4.760   3.543 -0.4491  1.3661  2.2782
  174SAPS  H16Y19871   3.653   4.725   3.397 -2.3343  0.0488  0.2836
  174SAPS  C31719872   3.542   4.741   3.579  0.2681  0.2854  0.7193
  174SAPS  H17X19873   3.532   4.820   3.657  1.1447  0.4998  0.6234
  174SAPS  H17Y19874   3.570   4.643   3.623  2.3798  0.7105  0.4391
  174SAPS  C31819875   3.409   4.740   3.503 -0.1008 -0.2702  0.1708
  174SAPS  H18X19876   3.321   4.716   3.566  0.3599  0.1487  0.9781
  174SAPS  H18Y19877   3.410   4.656   3.429 -1.9388 -1.8329  1.8194
  174SAPS  H18Z19878   3.393   4.835   3.448 -3.2130 -0.3415  0.7675
  175SAPS     N19879   1.224   4.095   1.693 -0.5861  0.1506 -0.0633
  175SAPS   HN119880   1.298   4.118   1.624 -1.4967 -1.4384 -1.6455
  175SAPS   HN219881   1.265   4.060   1.782 -0.5229 -1.8361 -0.8213
  175SAPS   HN319882   1.164   4.021   1.652  0.2046 -1.1344  1.0290
  175SAPS   C1219883   1.149   4.216   1.732 -0.0972 -0.0841 -0.3586
  175SAPS  H12A19884   1.211   4.288   1.784 -4.1380  2.5148  1.4141
  175SAPS   C1319885   1.094   4.295   1.611  0.0110  0.2694  0.1853
  175SAPS  O13A19886   1.119   4.255   1.495  0.5583 -0.0669 -0.2755
  175SAPS  O13B19887   1.012   4.393   1.627  0.8064 -0.3922 -0.2563
  175SAPS   C1119888   1.029   4.161   1.813  0.1008 -0.6631  0.1046
  175SAPS  H11A19889   0.973   4.099   1.740 -1.6157  0.1470  0.6896
  175SAPS  H11B19890   0.965   4.244   1.849  0.6904 -0.4920  0.7815
  175SAPS     P19891   0.992   3.971   1.978 -0.3742  0.3974 -0.5514
  175SAPS   O1319892   0.985   3.877   1.869  0.6067 -0.5258 -0.2943
  175SAPS   O1419893   1.041   3.920   2.112 -0.0652  0.0751 -0.1517
  175SAPS   O1219894   1.081   4.094   1.928 -0.1273  0.2564 -0.1583
  175SAPS   O1119895   0.851   4.039   1.986 -0.2696  1.0262 -0.4108
  175SAPS    C119896   0.824   4.152   2.074 -0.3573  0.1277  0.0705
  175SAPS    HA19897   0.912   4.221   2.072 -0.8207  0.7495 -2.2976
  175SAPS    HB19898   0.738   4.194   2.018 -2.3841 -2.7109  0.8652
  175SAPS    C219899   0.771   4.118   2.210  0.7447  0.2553 -0.2145
  175SAPS    HS19900   0.715   4.202   2.257  1.7737  0.8361  0.0224
  175SAPS   O2119901   0.869   4.064   2.305 -0.5563  0.0452 -0.6298
  175SAPS   C2119902   0.957   4.154   2.338 -0.6542 -0.1399  0.5969
  175SAPS   O2219903   0.968   4.268   2.298 -1.1615  0.2125  0.4467
  175SAPS   C2219904   1.036   4.088   2.455 -0.3520  0.0242 -0.0847
  175SAPS   H2R19905   1.143   4.116   2.441  0.0230 -1.1805  0.2649
  175SAPS   H2S19906   0.999   4.128   2.552  2.1091 -0.2092  1.0128
  175SAPS    C319907   0.669   4.004   2.190 -0.5218  0.2302 -0.0702
  175SAPS    HX19908   0.720   3.930   2.126  0.0436  1.8831 -1.6092
  175SAPS    HY19909   0.581   4.045   2.135  1.6232  2.3179 -2.1719
  175SAPS   O3119910   0.617   3.945   2.316 -0.5033  0.0271  0.6668
  175SAPS   C3119911   0.664   3.840   2.368 -0.4839 -0.1113 -0.0591
  175SAPS   O3219912   0.755   3.773   2.313  0.3873  0.2078 -0.3233
  175SAPS   C3219913   0.604   3.836   2.506 -0.4163  0.2123  0.0563
  175SAPS   H2X19914   0.693   3.863   2.567 -0.6957 -1.9537  1.5578
  175SAPS   H2Y19915   0.595   3.730   2.540 -1.7987  0.5848  0.9273
  175SAPS   C2319916   1.031   3.935   2.444 -0.3999  0.5253 -0.6735
  175SAPS   H3R19917   1.059   3.896   2.343  2.5172  0.1208  0.2224
  175SAPS   H3S19918   0.925   3.905   2.461 -0.2335  0.7499  0.8482
  175SAPS   C2419919   1.121   3.872   2.560 -0.5080 -0.2915 -0.3931
  175SAPS   H4R19920   1.119   3.940   2.649  1.3484 -0.5619 -0.0870
  175SAPS   H4S19921   1.228   3.873   2.531 -0.2568  1.7556  0.3748
  175SAPS   C2519922   1.084   3.734   2.595  0.0291  0.1262 -0.3585
  175SAPS   H5R19923   1.133   3.656   2.535 -1.9060 -0.9231 -0.6583
  175SAPS   C2619924   1.007   3.699   2.700 -0.3818  0.5810  0.2299
  175SAPS   H6R19925   0.983   3.591   2.693  0.4619  0.3038  1.3349
  175SAPS   C2719926   0.938   3.798   2.785  0.5195  0.0886 -0.7951
  175SAPS   H7R19927   0.860   3.856   2.732  0.8130  0.7178 -0.5499
  175SAPS   H7S19928   1.008   3.875   2.825  1.1897 -1.7550  1.8559
  175SAPS   C2819929   0.856   3.734   2.901  0.6539 -0.2380  0.1804
  175SAPS   H8R19930   0.749   3.739   2.880  0.9921  0.4671 -1.4987
  175SAPS   C2919931   0.896   3.688   3.018 -0.2416  0.5123  0.1273
  175SAPS   H9R19932   0.825   3.636   3.084 -0.6589  0.3510 -0.4488
  175SAPS  C21019933   1.046   3.679   3.056 -0.0947 -1.1519  0.0559
  175SAPS  H10R19934   1.073   3.762   3.125 -3.0750 -3.0594  3.9529
  175SAPS  H10S19935   1.111   3.690   2.967 -0.2282  1.8427  0.2236
  175SAPS  C21119936   1.068   3.543   3.115  0.0716  0.2684 -0.3792
  175SAPS  H11R19937   1.034   3.465   3.045  1.1946  0.5521 -1.2784
  175SAPS  C21219938   1.128   3.515   3.229  0.3482  0.1342  0.4003
  175SAPS  H12R19939   1.153   3.408   3.235  2.5270  0.5304 -0.6581
  175SAPS  C21319940   1.195   3.602   3.326  0.1424 -0.3615 -0.5127
  175SAPS  H13R19941   1.126   3.672   3.377  0.4566 -0.6258  0.3102
  175SAPS  H13S19942   1.258   3.672   3.268  0.6894  1.3548  1.9724
  175SAPS  C21419943   1.283   3.530   3.420  0.0007  0.3387 -0.2421
  175SAPS  H14R19944   1.346   3.451   3.377  0.3362  0.2879  0.3347
  175SAPS  C21519945   1.305   3.572   3.542 -0.3125 -0.4091 -0.1392
  175SAPS  H15R19946   1.373   3.521   3.612 -0.4990 -0.5940 -0.0913
  175SAPS  C21619947   1.249   3.701   3.597  0.1508 -0.7215 -0.0637
  175SAPS  H16R19948   1.145   3.725   3.567  0.2361 -1.7457 -1.2632
  175SAPS  H16S19949   1.301   3.784   3.545  1.0808 -0.3563  1.3959
  175SAPS  C21719950   1.273   3.726   3.748  0.4019 -0.0430 -0.5551
  175SAPS  H17R19951   1.251   3.832   3.776  1.5258  0.1036 -0.1644
  175SAPS  H17S19952   1.377   3.712   3.783 -0.5166 -2.2965  1.5338
  175SAPS  C21819953   1.188   3.643   3.844  0.2444 -0.2515 -0.0657
  175SAPS  H18R19954   1.212   3.680   3.946  2.1108  0.2282 -0.6410
  175SAPS  H18S19955   1.216   3.535   3.849  0.0316 -0.3003  0.0648
  175SAPS  C21919956   1.033   3.659   3.817 -0.2669  0.5305  0.3005
  175SAPS  H19R19957   1.009   3.612   3.719  0.7048 -0.4005  0.4881
  175SAPS  H19S19958   0.996   3.763   3.804 -0.6588  0.2025 -1.4903
  175SAPS  C22019959   0.942   3.587   3.920  0.2528  0.1677 -0.1317
  175SAPS  H20R19960   0.835   3.590   3.892  0.2412 -0.9935 -0.2590
  175SAPS  H20S19961   0.956   3.605   4.029 -1.4040  1.7740 -0.1457
  175SAPS  H20T19962   0.963   3.478   3.908  2.9449  0.5365  0.5731
  175SAPS   C3319963   0.471   3.899   2.538  0.2841  0.1870 -0.6039
  175SAPS   H3X19964   0.399   3.871   2.458 -1.6804 -0.4054  1.2628
  175SAPS   H3Y19965   0.481   4.009   2.537 -1.5478  0.4709  2.0026
  175SAPS   C3419966   0.417   3.852   2.678 -0.5012  0.6215 -0.1249
  175SAPS   H4X19967   0.434   3.743   2.692  0.1829  0.9738  2.3198
  175SAPS   H4Y19968   0.307   3.869   2.684 -0.1801  2.8408  0.6251
  175SAPS   C3519969   0.481   3.919   2.798  0.2658  0.0875  0.3634
  175SAPS   H5X19970   0.445   4.023   2.812  1.3969  0.6353 -0.6046
  175SAPS   H5Y19971   0.590   3.926   2.778  0.0067 -0.6931 -1.5393
  175SAPS   C3619972   0.456   3.832   2.925  0.0284 -0.0944  0.1286
  175SAPS   H6X19973   0.499   3.730   2.915 -2.1850 -1.0862  0.2013
  175SAPS   H6Y19974   0.347   3.810   2.932 -0.1579  1.2031  1.8358
  175SAPS   C3719975   0.508   3.908   3.048 -0.6603  0.5448 -0.7359
  175SAPS   H7X19976   0.471   4.012   3.060 -1.1793  0.5102 -1.8998
  175SAPS   H7Y19977   0.619   3.907   3.055 -0.5946 -0.8868 -1.4906
  175SAPS   C3819978   0.449   3.846   3.176  0.3118 -0.4912 -0.2209
  175SAPS   H8X19979   0.465   3.737   3.189  0.8041 -0.7292 -2.4617
  175SAPS   H8Y19980   0.340   3.867   3.168  0.7411  2.6356  0.7298
  175SAPS   C3919981   0.496   3.915   3.307  0.5644 -0.1442  0.1365
  175SAPS   H9X19982   0.409   3.902   3.375 -0.9859  1.2776 -1.4694
  175SAPS   H9Y19983   0.501   4.025   3.292 -1.2203  0.1438  1.3095
  175SAPS  C31019984   0.622   3.859   3.354 -0.9680  0.1829  0.8955
  175SAPS  H10X19985   0.699   3.884   3.278 -1.1255  0.3960  0.8060
  175SAPS  H10Y19986   0.626   3.748   3.351  1.9140  0.2298 -1.3096
  175SAPS  C31119987   0.683   3.918   3.474  0.7514 -0.0544  0.6467
  175SAPS  H11X19988   0.608   3.907   3.555 -1.5102 -1.5117 -1.4983
  175SAPS  H11Y19989   0.701   4.026   3.457 -0.3158  0.2615  1.4596
  175SAPS  C31219990   0.820   3.852   3.511 -0.4546  0.3737  0.0288
  175SAPS  H12X19991   0.807   3.744   3.489 -0.7982  0.4645 -0.2201
  175SAPS  H12Y19992   0.839   3.859   3.621  2.1312  1.9698 -0.4279
  175SAPS  C31319993   0.930   3.920   3.434 -0.5569 -0.2425  0.3741
  175SAPS  H13X19994   0.889   3.942   3.333  0.1123  0.8621  0.3238
  175SAPS  H13Y19995   1.012   3.846   3.425 -0.9347 -0.4299 -3.3750
  175SAPS  C31419996   0.991   4.043   3.500  0.0255  0.4367 -0.4198
  175SAPS  H14X19997   0.901   4.083   3.552 -0.8512 -2.8077  0.8332
  175SAPS  H14Y19998   1.023   4.116   3.423  4.5539 -0.3129  0.5028
  175SAPS  C31519999   1.103   4.020   3.607 -0.1483  0.1983 -1.0424
  175SAPS  H15X20000   1.202   4.005   3.560  0.6270 -0.2662  0.6721
  175SAPS  H15Y20001   1.077   3.928   3.663  0.5621  1.4352  1.4432
  175SAPS  C31620002   1.127   4.139   3.696 -0.5135 -0.9797 -0.1157
  175SAPS  H16X20003   1.208   4.112   3.767 -2.6554  0.2295  3.0633
  175SAPS  H16Y20004   1.037   4.165   3.757  0.0372 -0.9268  0.6851
  175SAPS  C31720005   1.178   4.272   3.634  0.1869 -0.6419  0.5994
  175SAPS  H17X20006   1.135   4.290   3.533  0.4303  0.2280  0.6409
  175SAPS  H17Y20007   1.286   4.260   3.610 -0.2914 -1.0466 -1.6010
  175SAPS  C31820008   1.163   4.393   3.723 -0.3661 -0.7226 -0.4847
  175SAPS  H18X20009   1.195   4.489   3.678  1.7541 -1.0814  0.1542
  175SAPS  H18Y20010   1.216   4.375   3.819 -2.4821 -1.6836  0.5855
  175SAPS  H18Z20011   1.055   4.404   3.748  0.4086  1.8660  2.3672
  176SAPS     N20012   5.720   1.989   1.764 -0.2354  0.4630 -0.5011
  176SAPS   HN120013   5.802   2.034   1.808 -1.3339  1.0488  1.0455
  176SAPS   HN220014   5.707   2.029   1.669  1.3638 -0.2356 -1.0384
  176SAPS   HN320015   5.634   2.011   1.819 -0.1778 -1.6228  0.5535
  176SAPS   C1220016   5.750   1.843   1.748 -0.1521  0.5713  0.0183
  176SAPS  H12A20017   5.681   1.792   1.683  1.0363 -1.0497 -0.0309
  176SAPS   C1320018   5.889   1.810   1.681  0.3726  0.0904  0.8412
  176SAPS  O13A20019   5.943   1.891   1.605  0.1670 -0.2371 -0.0776
  176SAPS  O13B20020   5.923   1.686   1.677 -0.3657  0.0153 -0.2599
  176SAPS   C1120021   5.746   1.779   1.890 -0.1251 -0.3281  0.4926
  176SAPS  H11A20022   5.830   1.804   1.958  0.7325 -0.3667 -0.5344
  176SAPS  H11B20023   5.758   1.668   1.882  2.9391 -0.1405  1.1362
  176SAPS     P20024   5.488   1.775   1.938  0.1080  0.2702  0.3379
  176SAPS   O1320025   5.405   1.882   1.889  0.3738  0.1519  0.4220
  176SAPS   O1420026   5.489   1.650   1.861 -0.1651  0.0275  0.5183
  176SAPS   O1220027   5.637   1.830   1.964  0.1736  0.1650  0.6181
  176SAPS   O1120028   5.438   1.743   2.091  0.2029  0.3977  0.3720
  176SAPS    C120029   5.516   1.656   2.172 -0.2687 -0.1914  0.0428
  176SAPS    HA20030   5.530   1.558   2.122 -0.5214 -0.9670  1.4455
  176SAPS    HB20031   5.615   1.696   2.202  0.0089 -1.4516  0.8856
  176SAPS    C220032   5.442   1.618   2.302 -0.0011  0.0995 -0.1042
  176SAPS    HS20033   5.339   1.589   2.270 -1.3549  2.4984  1.7723
  176SAPS   O2120034   5.442   1.736   2.383  0.1401 -0.1180 -0.0526
  176SAPS   C2120035   5.320   1.753   2.452 -0.9257  0.8671  0.1108
  176SAPS   O2220036   5.223   1.681   2.440 -0.3467 -0.4637  0.3826
  176SAPS   C2220037   5.334   1.873   2.539 -0.2168  0.2841  0.1002
  176SAPS   H2R20038   5.304   1.966   2.485 -0.5368 -0.5972 -1.2898
  176SAPS   H2S20039   5.254   1.854   2.614 -0.3102 -1.3432 -0.3831
  176SAPS    C320040   5.514   1.502   2.375  0.5714 -0.3635  0.1641
  176SAPS    HX20041   5.621   1.532   2.387  0.8310 -0.1721 -2.1753
  176SAPS    HY20042   5.510   1.406   2.320  2.1006 -1.0247  1.1177
  176SAPS   O3120043   5.461   1.474   2.503  0.1634  0.1089 -0.5394
  176SAPS   C3120044   5.358   1.392   2.520 -0.1972 -0.4975 -0.1304
  176SAPS   O3220045   5.293   1.341   2.428 -0.0878  0.1409  0.4034
  176SAPS   C3220046   5.328   1.369   2.671 -0.4065  0.4814 -0.6184
  176SAPS   H2X20047   5.386   1.279   2.701  0.8382  1.4733  0.0384
  176SAPS   H2Y20048   5.222   1.338   2.682  0.2748 -1.6104  0.6812
  176SAPS   C2320049   5.472   1.899   2.604 -0.0527 -0.2616  0.4043
  176SAPS   H3R20050   5.454   1.989   2.666 -1.3853  0.2809 -0.7245
  176SAPS   H3S20051   5.542   1.928   2.522  0.6015  0.0321  1.0559
  176SAPS   C2420052   5.525   1.778   2.684 -0.0290  0.0363  0.4023
  176SAPS   H4R20053   5.543   1.692   2.616 -1.2154  1.6503 -2.1050
  176SAPS   H4S20054   5.450   1.757   2.763 -0.4116 -0.8990 -0.1961
  176SAPS   C2520055   5.657   1.815   2.745  0.2848 -0.1821 -0.2329
  176SAPS   H5R20056   5.747   1.800   2.684  0.2247  0.7857 -0.5856
  176SAPS   C2620057   5.661   1.837   2.880 -0.1590  0.7476  0.1936
  176SAPS   H6R20058   5.755   1.836   2.936 -1.3034 -0.4799  2.2409
  176SAPS   C2720059   5.550   1.871   2.978  0.3924 -0.0450 -0.0163
  176SAPS   H7R20060   5.538   1.782   3.043  0.0189  1.6976  2.4664
  176SAPS   H7S20061   5.456   1.886   2.921 -0.3752  1.1866  1.4910
  176SAPS   C2820062   5.582   1.993   3.060 -0.8749 -0.2477 -0.6487
  176SAPS   H8R20063   5.576   2.084   3.000 -1.0592 -0.3324 -0.7594
  176SAPS   C2920064   5.648   1.989   3.178 -0.4702  1.1237  0.3699
  176SAPS   H9R20065   5.659   2.074   3.247  0.2898  0.9525  0.4764
  176SAPS  C21020066   5.698   1.865   3.252  0.4498  0.3341 -0.1007
  176SAPS  H10R20067   5.775   1.907   3.320 -1.1519  1.2728  1.2418
  176SAPS  H10S20068   5.747   1.800   3.177 -1.0853 -0.7288 -0.2367
  176SAPS  C21120069   5.600   1.778   3.322  0.4708 -0.3628 -0.5486
  176SAPS  H11R20070   5.496   1.792   3.287  1.3522  1.4856 -2.7158
  176SAPS  C21220071   5.631   1.692   3.421 -0.1734 -0.4901 -0.3044
  176SAPS  H12R20072   5.550   1.627   3.456 -1.1213  0.2262 -1.1121
  176SAPS  C21320073   5.774   1.661   3.461  0.1161 -0.3544 -0.1647
  176SAPS  H13R20074   5.813   1.745   3.523  0.2579  0.0384 -0.7747
  176SAPS  H13S20075   5.842   1.658   3.373  0.0833 -2.1564 -0.1594
  176SAPS  C21420076   5.789   1.539   3.555  0.7431 -0.3565  0.3457
  176SAPS  H14R20077   5.826   1.448   3.505  0.0268 -0.2721 -0.3620
  176SAPS  C21520078   5.772   1.538   3.691 -0.0660 -0.9749  0.9763
  176SAPS  H15R20079   5.768   1.441   3.741 -0.1824 -1.8437 -0.6453
  176SAPS  C21620080   5.748   1.657   3.780  0.4960  0.0730 -0.5592
  176SAPS  H16R20081   5.678   1.638   3.864  0.6674 -1.4764 -0.7551
  176SAPS  H16S20082   5.723   1.749   3.723 -0.7628 -0.6881 -1.2848
  176SAPS  C21720083   5.879   1.695   3.847 -0.8469 -0.6196 -0.0997
  176SAPS  H17R20084   5.951   1.731   3.771  0.1328 -2.1799  0.0308
  176SAPS  H17S20085   5.923   1.600   3.884 -0.5097 -0.3956  0.0783
  176SAPS  C21820086   5.864   1.809   3.957 -0.1747 -0.7976  0.5905
  176SAPS  H18R20087   5.958   1.827   4.013 -0.2342  2.6523 -0.1686
  176SAPS  H18S20088   5.772   1.789   4.016 -1.1952  1.4030 -0.1021
  176SAPS  C21920089   5.848   1.957   3.903  0.3182 -0.0381  0.3932
  176SAPS  H19R20090   5.844   2.025   3.991 -2.6599  0.1612  0.2311
  176SAPS  H19S20091   5.752   1.970   3.847  0.2829 -0.7156  0.2901
  176SAPS  C22020092   5.969   2.006   3.822  0.4943  0.7719  0.2034
  176SAPS  H20R20093   5.962   2.112   3.791 -1.1193  0.4195 -0.7791
  176SAPS  H20S20094   5.963   1.942   3.731 -1.4651 -1.2423  1.6444
  176SAPS  H20T20095   6.060   1.990   3.882  0.3463  1.5431  0.6452
  176SAPS   C3320096   5.364   1.485   2.758 -0.2435 -0.1530 -0.4739
  176SAPS   H3X20097   5.312   1.577   2.727 -2.8303 -0.4850  2.3985
  176SAPS   H3Y20098   5.474   1.505   2.758 -0.2637 -0.0454 -0.8742
  176SAPS   C3420099   5.319   1.466   2.905 -0.5008 -0.2625  0.2950
  176SAPS   H4X20100   5.209   1.452   2.915 -0.5433  0.8444  1.8320
  176SAPS   H4Y20101   5.332   1.567   2.949  1.0706  0.1930 -1.1227
  176SAPS   C3520102   5.407   1.364   2.978 -0.2234  0.4421 -0.3055
  176SAPS   H5X20103   5.505   1.356   2.925 -1.0022 -2.1043 -1.5456
  176SAPS   H5Y20104   5.354   1.267   2.968  1.8999 -0.7435 -0.7911
  176SAPS   C3620105   5.432   1.392   3.127 -1.9508  0.3662 -0.1153
  176SAPS   H6X20106   5.333   1.413   3.174 -2.6182 -0.9090 -0.9119
  176SAPS   H6Y20107   5.495   1.482   3.147 -1.7936  0.4396 -0.9283
  176SAPS   C3720108   5.493   1.268   3.202  0.1954 -0.0418  0.2523
  176SAPS   H7X20109   5.557   1.214   3.129  2.4057  2.4300  0.2262
  176SAPS   H7Y20110   5.402   1.206   3.219  0.7338 -1.3159 -1.2478
  176SAPS   C3820111   5.560   1.300   3.340 -0.1565  0.0901 -0.0497
  176SAPS   H8X20112   5.479   1.335   3.407  1.6583  1.1937  1.6462
  176SAPS   H8Y20113   5.628   1.386   3.320 -0.0005 -0.3095 -1.3516
  176SAPS   C3920114   5.642   1.185   3.403 -0.6059 -0.1494  0.5651
  176SAPS   H9X20115   5.713   1.239   3.470  1.1517 -0.5117 -0.9095
  176SAPS   H9Y20116   5.706   1.135   3.327  0.9316  1.5174  0.6855
  176SAPS  C31020117   5.554   1.083   3.472 -0.0764  0.4118  0.4078
  176SAPS  H10X20118   5.620   1.001   3.508 -0.9021 -1.5199 -2.2315
  176SAPS  H10Y20119   5.495   1.046   3.386  0.9531 -0.1489 -0.0847
  176SAPS  C31120120   5.465   1.128   3.585  0.6609  0.6139 -0.2917
  176SAPS  H11X20121   5.400   1.041   3.611 -1.4480  1.7043 -1.6860
  176SAPS  H11Y20122   5.396   1.203   3.541 -0.6980 -0.0424  0.6564
  176SAPS  C31220123   5.548   1.206   3.681  0.1470 -0.0033 -0.8871
  176SAPS  H12X20124   5.604   1.292   3.640  1.4185 -0.2261  0.2826
  176SAPS  H12Y20125   5.621   1.151   3.745 -0.0054  1.7193  0.8913
  176SAPS  C31320126   5.451   1.263   3.790 -0.4684  0.1270 -0.4043
  176SAPS  H13X20127   5.430   1.177   3.857 -0.4962  0.5562  0.1446
  176SAPS  H13Y20128   5.356   1.297   3.744 -0.9655 -1.3375 -0.5334
  176SAPS  C31420129   5.525   1.366   3.881  0.5255  0.3607 -0.6070
  176SAPS  H14X20130   5.548   1.459   3.825 -1.6745  1.5018  0.2377
  176SAPS  H14Y20131   5.620   1.316   3.908  0.3354  0.7717  0.9140
  176SAPS  C31520132   5.445   1.405   4.000 -0.3091 -0.4718  0.5165
  176SAPS  H15X20133   5.398   1.321   4.055  0.2826 -1.2528 -0.1546
  176SAPS  H15Y20134   5.364   1.476   3.970  1.1387  1.3056  0.6711
  176SAPS  C31620135   5.518   1.490   4.107  0.0928 -0.2813 -0.8657
  176SAPS  H16X20136   5.453   1.501   4.196  0.9873 -0.3363 -0.1834
  176SAPS  H16Y20137   5.541   1.590   4.065 -2.4047  0.8878  0.4061
  176SAPS  C31720138   5.643   1.430   4.162 -0.4056 -0.0058  0.4538
  176SAPS  H17X20139   5.686   1.507   4.230  0.2044 -0.7924  0.9669
  176SAPS  H17Y20140   5.718   1.418   4.081 -0.2977 -0.1367  0.5715
  176SAPS  C31820141   5.616   1.306   4.237 -0.5616  0.1030 -0.1990
  176SAPS  H18X20142   5.582   1.229   4.164 -0.9225  2.1399 -2.2573
  176SAPS  H18Y20143   5.539   1.330   4.314  0.4131  0.3651  0.7076
  176SAPS  H18Z20144   5.704   1.265   4.292 -1.4853  0.4901  1.6475
  177SAPS     N20145   4.095   6.333   1.881 -0.5320  0.4443  0.6935
  177SAPS   HN120146   4.028   6.263   1.918 -0.4355 -0.7625 -1.2714
  177SAPS   HN220147   4.191   6.299   1.904 -1.4333 -2.4919  0.5877
  177SAPS   HN320148   4.068   6.424   1.923 -1.2654  0.3132  0.5185
  177SAPS   C1220149   4.078   6.327   1.735  0.2167 -0.3241 -0.3176
  177SAPS  H12A20150   3.974   6.303   1.716 -0.5358  0.5675  2.2160
  177SAPS   C1320151   4.123   6.455   1.661 -0.8816 -0.5695 -0.2584
  177SAPS  O13A20152   4.169   6.556   1.723  0.1108 -0.4454 -0.7761
  177SAPS  O13B20153   4.117   6.451   1.539  0.3421 -0.5170  0.7655
  177SAPS   C1120154   4.165   6.203   1.685  1.4530 -0.0660 -1.0108
  177SAPS  H11A20155   4.273   6.221   1.704  1.3613 -0.1557 -0.3774
  177SAPS  H11B20156   4.151   6.189   1.575 -0.1615  0.5340 -0.9045
  177SAPS     P20157   4.226   5.953   1.763  0.6235  0.0569 -0.2943
  177SAPS   O1320158   4.164   5.835   1.693  0.1607  0.6646  0.4168
  177SAPS   O1420159   4.362   5.991   1.714 -0.0727 -0.2806  0.0202
  177SAPS   O1220160   4.130   6.076   1.755  0.1940  0.1867  0.2267
  177SAPS   O1120161   4.234   5.921   1.912  0.7292  1.0586 -0.5406
  177SAPS    C120162   4.118   5.855   1.974  0.0183 -0.0672  0.3516
  177SAPS    HA20163   4.035   5.820   1.909  1.6043 -0.4900 -1.5326
  177SAPS    HB20164   4.152   5.771   2.039 -0.3505 -0.5939 -0.1285
  177SAPS    C220165   4.059   5.946   2.080  0.0637 -0.3504  0.4730
  177SAPS    HS20166   4.046   6.042   2.024  0.5467 -1.7121 -2.1356
  177SAPS   O2120167   4.137   5.952   2.192 -0.2246  0.3214  0.1835
  177SAPS   C2120168   4.120   6.057   2.273 -0.0393  0.2570 -0.6294
  177SAPS   O2220169   4.033   6.145   2.262 -0.7323  0.6274  0.2831
  177SAPS   C2220170   4.232   6.050   2.376 -0.4693 -0.7704  0.4996
  177SAPS   H2R20171   4.290   5.956   2.378  0.8646  0.0166  0.3641
  177SAPS   H2S20172   4.308   6.128   2.353  0.2976 -2.2783 -2.5492
  177SAPS    C320173   3.910   5.911   2.113 -0.5446 -0.0072  0.1321
  177SAPS    HX20174   3.850   5.905   2.020  1.0500  0.4346 -0.9688
  177SAPS    HY20175   3.854   5.993   2.163 -0.4162 -1.6008  3.1673
  177SAPS   O3120176   3.890   5.800   2.209  0.9347  0.1924  0.2376
  177SAPS   C3120177   3.860   5.686   2.152 -1.1329 -0.1204  0.3081
  177SAPS   O3220178   3.849   5.672   2.031  0.1235 -0.0817 -0.1226
  177SAPS   C3220179   3.861   5.572   2.257  0.3378 -0.6295 -0.0091
  177SAPS   H2X20180   3.956   5.569   2.316  0.0954 -3.0124  0.3457
  177SAPS   H2Y20181   3.860   5.474   2.205  0.6980 -0.5330 -0.1993
  177SAPS   C2320182   4.178   6.063   2.520  0.4463  0.9922 -0.1899
  177SAPS   H3R20183   4.106   5.980   2.541  1.7906 -0.2786 -0.4170
  177SAPS   H3S20184   4.116   6.155   2.521 -0.4741  0.4745 -2.4085
  177SAPS   C2420185   4.294   6.071   2.623 -0.4315 -0.2476  0.0478
  177SAPS   H4R20186   4.357   5.980   2.621 -1.2864 -0.9865  2.5492
  177SAPS   H4S20187   4.250   6.057   2.724  0.0300  0.2038  0.3147
  177SAPS   C2520188   4.361   6.205   2.624  0.2686 -1.7906 -0.0319
  177SAPS   H5R20189   4.301   6.273   2.685  1.5742  2.1581 -2.7839
  177SAPS   C2620190   4.478   6.252   2.573 -0.1675 -0.3871  1.0404
  177SAPS   H6R20191   4.513   6.352   2.600  0.8821  0.3275 -2.4470
  177SAPS   C2720192   4.583   6.159   2.513  0.1025 -0.9220 -0.1077
  177SAPS   H7R20193   4.584   6.168   2.402  0.0139 -1.0729 -0.1208
  177SAPS   H7S20194   4.544   6.056   2.527 -2.5480 -0.0769 -0.7201
  177SAPS   C2820195   4.725   6.167   2.562  0.3931  1.0284 -0.4733
  177SAPS   H8R20196   4.796   6.199   2.485 -1.3390 -1.2902 -3.2221
  177SAPS   C2920197   4.771   6.143   2.689  0.3518 -0.5863  0.1118
  177SAPS   H9R20198   4.880   6.145   2.701  0.5580 -4.0734 -0.0555
  177SAPS  C21020199   4.689   6.098   2.804 -1.4005  0.3714 -0.3170
  177SAPS  H10R20200   4.707   5.989   2.815  1.9612  0.7414 -1.1217
  177SAPS  H10S20201   4.579   6.116   2.799 -1.4357  0.7171  1.2535
  177SAPS  C21120202   4.724   6.160   2.931  0.5284 -0.2894 -0.2707
  177SAPS  H11R20203   4.821   6.212   2.928  0.5508 -0.3738 -1.5469
  177SAPS  C21220204   4.666   6.160   3.053  0.5799 -0.5048  0.5484
  177SAPS  H12R20205   4.706   6.221   3.136 -0.5932  0.6729  0.2802
  177SAPS  C21320206   4.529   6.091   3.095 -0.2249 -0.5661  0.1114
  177SAPS  H13R20207   4.555   6.004   3.158 -2.3262 -0.1371  1.6822
  177SAPS  H13S20208   4.480   6.060   3.000  1.7521  0.1193 -1.1962
  177SAPS  C21420209   4.453   6.195   3.164  0.3623 -0.5653  0.1380
  177SAPS  H14R20210   4.387   6.258   3.103  0.6973  1.9029  2.1480
  177SAPS  C21520211   4.456   6.207   3.298  0.1683  0.2685  0.2087
  177SAPS  H15R20212   4.388   6.272   3.355 -1.5409  0.0452 -1.4858
  177SAPS  C21620213   4.535   6.132   3.397 -0.0434  0.2565  0.1293
  177SAPS  H16R20214   4.622   6.197   3.420 -0.9243  1.0600  1.3755
  177SAPS  H16S20215   4.576   6.038   3.354 -3.0646  0.5784 -4.0540
  177SAPS  C21720216   4.464   6.119   3.538 -0.0738 -0.0315  0.0639
  177SAPS  H17R20217   4.435   6.222   3.569  1.4861  0.6328 -0.5952
  177SAPS  H17S20218   4.540   6.066   3.599  0.7712  2.4446  1.2978
  177SAPS  C21820219   4.336   6.029   3.531 -0.4642 -0.0003  0.3052
  177SAPS  H18R20220   4.380   5.930   3.506  0.7650  0.6212 -0.0958
  177SAPS  H18S20221   4.263   6.060   3.454  0.4523  0.8704 -0.2332
  177SAPS  C21920222   4.258   6.022   3.665 -0.1074  0.4214  0.3661
  177SAPS  H19R20223   4.208   6.116   3.697  1.4833  1.5818 -0.3792
  177SAPS  H19S20224   4.341   6.000   3.735  1.2385  0.4499 -1.1599
  177SAPS  C22020225   4.150   5.910   3.673 -0.4249 -0.1097 -0.5610
  177SAPS  H20R20226   4.175   5.828   3.744 -1.3646  0.2285  0.1781
  177SAPS  H20S20227   4.129   5.877   3.569  0.6135 -1.0739 -0.4871
  177SAPS  H20T20228   4.053   5.949   3.708 -0.0572 -0.4053  0.8404
  177SAPS   C3320229   3.756   5.585   2.372 -0.1473  0.0582 -0.1219
  177SAPS   H3X20230   3.753   5.480   2.406  0.5132  0.1941  0.3619
  177SAPS   H3Y20231   3.659   5.613   2.325 -0.7089  0.2269  1.0826
  177SAPS   C3420232   3.791   5.692   2.479  0.2699  0.4389 -0.2376
  177SAPS   H4X20233   3.761   5.786   2.428 -0.5344 -0.9197 -2.3910
  177SAPS   H4Y20234   3.899   5.681   2.499  0.6729  0.4198 -2.2446
  177SAPS   C3520235   3.707   5.665   2.603  0.4018  0.2178 -0.0781
  177SAPS   H5X20236   3.717   5.563   2.646 -0.0031  0.9650  1.8998
  177SAPS   H5Y20237   3.601   5.678   2.575  0.2482  0.0260  0.4105
  177SAPS   C3620238   3.732   5.754   2.728 -0.3099 -0.0197 -0.5239
  177SAPS   H6X20239   3.679   5.850   2.707 -0.6513 -0.2730 -0.8301
  177SAPS   H6Y20240   3.841   5.773   2.730 -0.4235  0.6310  0.1428
  177SAPS   C3720241   3.681   5.698   2.868 -0.7302 -0.2674 -0.0589
  177SAPS   H7X20242   3.729   5.601   2.893 -0.2186 -0.8323 -2.8704
  177SAPS   H7Y20243   3.573   5.676   2.863 -0.3551 -2.0764 -1.0125
  177SAPS   C3820244   3.712   5.806   2.973  1.0458 -0.7155  0.3773
  177SAPS   H8X20245   3.642   5.893   2.969  0.5878 -0.9495  2.3031
  177SAPS   H8Y20246   3.816   5.837   2.950  0.2293 -0.0020 -2.8466
  177SAPS   C3920247   3.724   5.745   3.117  1.0361 -0.1173  0.2038
  177SAPS   H9X20248   3.782   5.650   3.114  0.1470 -0.6546 -1.5221
  177SAPS   H9Y20249   3.619   5.718   3.142  1.2770 -0.1388  1.2231
  177SAPS  C31020250   3.774   5.842   3.222  0.2411 -0.4993 -0.3773
  177SAPS  H10X20251   3.720   5.938   3.231  1.1787 -0.0249  0.3276
  177SAPS  H10Y20252   3.880   5.872   3.208  0.9831 -1.2031  2.9220
  177SAPS  C31120253   3.756   5.774   3.362  0.2757 -0.2399  0.6287
  177SAPS  H11X20254   3.826   5.688   3.366  0.1704 -0.2955  2.4370
  177SAPS  H11Y20255   3.651   5.738   3.368  0.8735 -2.2474 -0.1559
  177SAPS  C31220256   3.784   5.871   3.479  0.0837  0.0023 -0.0331
  177SAPS  H12X20257   3.720   5.961   3.469 -0.3039 -0.0018  2.0084
  177SAPS  H12Y20258   3.887   5.911   3.468 -0.0823  0.2878 -0.5730
  177SAPS  C31320259   3.770   5.806   3.615  0.4929  0.4989 -1.1295
  177SAPS  H13X20260   3.796   5.875   3.698  0.6294 -1.9273  0.9790
  177SAPS  H13Y20261   3.832   5.716   3.631  1.1268  0.7695 -2.0030
  177SAPS  C31420262   3.620   5.778   3.650  0.2163  0.2017  0.4055
  177SAPS  H14X20263   3.574   5.701   3.585 -0.8312  1.4508 -0.3695
  177SAPS  H14Y20264   3.558   5.870   3.646 -0.0900 -0.0084  0.3058
  177SAPS  C31520265   3.607   5.721   3.790  0.5820 -0.4611 -0.0821
  177SAPS  H15X20266   3.644   5.796   3.863  0.7938 -0.1894 -0.4631
  177SAPS  H15Y20267   3.675   5.637   3.817 -0.7738 -1.2482  1.0426
  177SAPS  C31620268   3.469   5.685   3.849 -0.3551 -0.3946  0.2041
  177SAPS  H16X20269   3.482   5.640   3.949 -0.8379  1.1536  0.9870
  177SAPS  H16Y20270   3.429   5.602   3.785 -1.6213 -1.3879  2.1935
  177SAPS  C31720271   3.368   5.800   3.857 -0.4731 -0.0684  0.3311
  177SAPS  H17X20272   3.265   5.774   3.888  0.4706 -2.1230  1.9692
  177SAPS  H17Y20273   3.350   5.826   3.750 -0.7488  2.3700  0.9089
  177SAPS  C31820274   3.415   5.913   3.948  0.2046 -0.2572 -0.1714
  177SAPS  H18X20275   3.334   5.984   3.972  1.1337  0.2642  1.5202
  177SAPS  H18Y20276   3.501   5.971   3.909 -0.1434  0.8170  0.6326
  177SAPS  H18Z20277   3.442   5.870   4.046 -2.1998 -0.9075  0.2698
  178SAPS     N20278   5.986   5.589   1.684 -0.0808 -0.1041 -0.3482
  178SAPS   HN120279   5.995   5.670   1.749 -1.9738  1.7137 -2.1922
  178SAPS   HN220280   5.979   5.495   1.729 -0.6368  0.2284  0.2758
  178SAPS   HN320281   6.067   5.597   1.619 -0.0488 -1.1151 -0.4522
  178SAPS   C1220282   5.862   5.613   1.602 -0.3838  0.2162  0.4100
  178SAPS  H12A20283   5.878   5.701   1.541 -1.5898  0.1932  0.0286
  178SAPS   C1320284   5.811   5.501   1.509  0.0589 -0.3599  0.7720
  178SAPS  O13A20285   5.868   5.394   1.516 -0.2588  0.6115 -0.8492
  178SAPS  O13B20286   5.704   5.522   1.441  0.2742  0.2470 -0.2040
  178SAPS   C1120287   5.742   5.646   1.690  0.1397 -0.3539 -0.7838
  178SAPS  H11A20288   5.718   5.559   1.754  2.9199  0.5185  1.7017
  178SAPS  H11B20289   5.653   5.676   1.632  1.7527  0.8801 -2.7657
  178SAPS     P20290   5.727   5.904   1.761 -0.0371 -0.2619  0.0348
  178SAPS   O1320291   5.732   5.948   1.617 -0.1945  0.5603  0.4753
  178SAPS   O1420292   5.593   5.911   1.821 -0.0120  0.0533  0.2466
  178SAPS   O1220293   5.778   5.757   1.780 -0.1075 -0.1531  0.1729
  178SAPS   O1120294   5.827   6.000   1.841  0.6978 -0.2167 -0.2341
  178SAPS    C120295   5.834   6.133   1.794  0.4738  0.3947  0.0125
  178SAPS    HA20296   5.924   6.141   1.730 -0.1209  0.0165 -0.9056
  178SAPS    HB20297   5.742   6.165   1.740 -1.1597 -1.9662  1.1560
  178SAPS    C220298   5.840   6.222   1.924  0.3167 -0.3721  0.2331
  178SAPS    HS20299   5.797   6.317   1.886 -1.3175 -0.3514  1.9618
  178SAPS   O2120300   5.963   6.246   1.997  0.0313  0.2873  0.0398
  178SAPS   C2120301   6.049   6.319   1.929  0.6546 -0.3874  0.4582
  178SAPS   O2220302   6.022   6.383   1.827  0.1466  0.2107  0.1848
  178SAPS   C2220303   6.191   6.315   1.999  0.5303  0.7203  0.2930
  178SAPS   H2R20304   6.172   6.284   2.104  1.0154 -1.7442 -0.2824
  178SAPS   H2S20305   6.245   6.231   1.949  0.6452  0.5628  0.6803
  178SAPS    C320306   5.724   6.182   2.024  0.8940 -0.6341  0.3825
  178SAPS    HX20307   5.735   6.074   2.050  1.2790 -0.2284  2.0112
  178SAPS    HY20308   5.633   6.195   1.961 -1.0854 -1.7000  2.8002
  178SAPS   O3120309   5.716   6.261   2.146  0.3750 -0.4937  0.5153
  178SAPS   C3120310   5.646   6.374   2.133 -0.1410 -0.1850  0.0396
  178SAPS   O3220311   5.587   6.415   2.032 -0.5401  0.4163  0.3874
  178SAPS   C3220312   5.640   6.442   2.268  0.4866 -0.7509  0.0921
  178SAPS   H2X20313   5.545   6.499   2.279  0.0660 -1.3239 -0.4343
  178SAPS   H2Y20314   5.729   6.508   2.273  1.0125 -1.2355 -1.9775
  178SAPS   C2320315   6.268   6.442   1.988 -0.0841  0.1010 -0.0954
  178SAPS   H3R20316   6.239   6.506   1.902  0.3350  0.4028 -0.0119
  178SAPS   H3S20317   6.374   6.411   1.980 -0.5782 -2.4298  1.6493
  178SAPS   C2420318   6.253   6.541   2.115  0.6496 -0.2435  0.6220
  178SAPS   H4R20319   6.317   6.631   2.101 -1.8868  1.8533  1.7276
  178SAPS   H4S20320   6.285   6.500   2.214 -0.6084 -1.0374  0.7087
  178SAPS   C2520321   6.114   6.600   2.116  1.0752  0.0718  0.6996
  178SAPS   H5R20322   6.088   6.661   2.028 -2.1301 -1.1639  0.6404
  178SAPS   C2620323   6.018   6.599   2.213  0.1887 -0.0945 -0.6991
  178SAPS   H6R20324   5.923   6.649   2.192  0.7268  1.7374  0.8987
  178SAPS   C2720325   6.021   6.529   2.345  0.0722  0.0114 -0.0623
  178SAPS   H7R20326   6.104   6.455   2.345  0.2673  0.2143 -1.2252
  178SAPS   H7S20327   5.932   6.464   2.356 -0.4200  0.4757 -1.1626
  178SAPS   C2820328   6.039   6.626   2.457  0.0839 -0.2571  0.7137
  178SAPS   H8R20329   5.962   6.705   2.461  0.8157  0.5543 -0.7369
  178SAPS   C2920330   6.142   6.646   2.540  0.6105  0.6007 -0.2686
  178SAPS   H9R20331   6.124   6.715   2.624 -2.5406  0.1903 -0.5042
  178SAPS  C21020332   6.262   6.557   2.558 -0.2266  0.5390  0.1409
  178SAPS  H10R20333   6.354   6.617   2.577  1.1798 -2.3097  3.3791
  178SAPS  H10S20334   6.281   6.486   2.474  0.8056  0.6180  0.2913
  178SAPS  C21120335   6.244   6.482   2.691 -1.0167  0.7636  0.2218
  178SAPS  H11R20336   6.194   6.384   2.682 -0.3837  0.2839  1.6327
  178SAPS  C21220337   6.265   6.532   2.815 -0.6513 -0.6974  0.1867
  178SAPS  H12R20338   6.249   6.461   2.898 -1.4276  0.6814  1.2652
  178SAPS  C21320339   6.306   6.675   2.859  0.1361 -0.4193 -0.2714
  178SAPS  H13R20340   6.334   6.726   2.765  1.9528 -1.3618 -0.2858
  178SAPS  H13S20341   6.401   6.663   2.915  1.5402  1.3056 -2.1505
  178SAPS  C21420342   6.207   6.759   2.934  0.2513 -0.2203 -0.3975
  178SAPS  H14R20343   6.140   6.826   2.877 -0.3590  1.2955  1.9893
  178SAPS  C21520344   6.207   6.779   3.066  0.8395  0.1858  0.1152
  178SAPS  H15R20345   6.122   6.838   3.103  1.1727  1.7654 -1.4806
  178SAPS  C21620346   6.297   6.727   3.172 -0.2912 -0.3601  0.0279
  178SAPS  H16R20347   6.323   6.812   3.239  0.4009  0.3027 -1.0561
  178SAPS  H16S20348   6.392   6.685   3.133 -0.3233  0.1883 -0.6561
  178SAPS  C21720349   6.241   6.613   3.258 -0.3904  0.3505  0.3634
  178SAPS  H17R20350   6.221   6.528   3.189 -0.1040  0.3388  0.2938
  178SAPS  H17S20351   6.147   6.643   3.310 -0.9497  3.2504 -2.0271
  178SAPS  C21820352   6.336   6.568   3.366 -0.3848 -0.5188 -0.3885
  178SAPS  H18R20353   6.442   6.565   3.331 -0.2705  1.0885 -0.2461
  178SAPS  H18S20354   6.301   6.464   3.387 -0.0745 -0.4016  0.7382
  178SAPS  C21920355   6.331   6.647   3.499  0.0770 -0.0963 -0.0741
  178SAPS  H19R20356   6.375   6.748   3.482  0.7797 -0.4371 -0.2883
  178SAPS  H19S20357   6.402   6.615   3.578 -1.7043 -1.4919  1.0298
  178SAPS  C22020358   6.198   6.648   3.570 -0.7903  0.0135 -0.9628
  178SAPS  H20R20359   6.218   6.686   3.673 -0.3083 -1.8330 -0.3379
  178SAPS  H20S20360   6.145   6.551   3.571 -0.9449  0.0960 -1.1871
  178SAPS  H20T20361   6.136   6.722   3.515  0.1690  1.8852  0.3654
  178SAPS   C3320362   5.637   6.332   2.380 -0.4455  0.7265  0.1216
  178SAPS   H3X20363   5.737   6.285   2.391 -1.3911 -1.2660  0.6667
  178SAPS   H3Y20364   5.573   6.249   2.345 -1.4906  1.5159  0.1259
  178SAPS   C3420365   5.579   6.382   2.509  0.0377 -0.6631 -0.3862
  178SAPS   H4X20366   5.488   6.440   2.482 -0.2168  0.2718  2.1591
  178SAPS   H4Y20367   5.642   6.462   2.555 -0.2439 -1.4742  1.5247
  178SAPS   C3520368   5.538   6.281   2.616  0.2927 -0.1237  0.5210
  178SAPS   H5X20369   5.567   6.181   2.579 -0.5525 -0.7277  1.4580
  178SAPS   H5Y20370   5.427   6.272   2.615  0.2153  0.2901 -2.1591
  178SAPS   C3620371   5.579   6.325   2.765 -0.2378  0.2615  0.4371
  178SAPS   H6X20372   5.512   6.408   2.794 -0.6327  0.2166 -0.3050
  178SAPS   H6Y20373   5.684   6.360   2.772 -0.5653  1.1821  0.7885
  178SAPS   C3720374   5.547   6.205   2.858  0.2432  0.4588 -0.5441
  178SAPS   H7X20375   5.611   6.115   2.843 -1.0585 -1.0367  2.1293
  178SAPS   H7Y20376   5.447   6.160   2.840  0.6127  0.6194 -3.5080
  178SAPS   C3820377   5.553   6.251   3.002  0.4962 -0.6136  0.2575
  178SAPS   H8X20378   5.457   6.299   3.030  0.3611  0.1529 -1.4005
  178SAPS   H8Y20379   5.629   6.332   2.999 -0.5285  0.3492 -1.5904
  178SAPS   C3920380   5.583   6.148   3.109  0.7737  0.2658 -0.0634
  178SAPS   H9X20381   5.693   6.130   3.097  1.0011  0.5867  1.4371
  178SAPS   H9Y20382   5.526   6.054   3.098  1.3687 -0.0138 -0.9171
  178SAPS  C31020383   5.592   6.205   3.248  0.4679 -0.4497  0.4814
  178SAPS  H10X20384   5.498   6.255   3.279 -0.5147 -0.7988 -1.7360
  178SAPS  H10Y20385   5.674   6.280   3.253  0.8112 -0.7499 -0.3945
  178SAPS  C31120386   5.635   6.097   3.357  0.1104 -0.1622  0.0523
  178SAPS  H11X20387   5.668   6.150   3.449  0.9804 -1.3297  0.4409
  178SAPS  H11Y20388   5.724   6.045   3.315  0.0514  1.4810 -2.3436
  178SAPS  C31220389   5.516   6.005   3.409 -0.4644  0.6259  0.2521
  178SAPS  H12X20390   5.575   5.929   3.464  0.2412 -0.4275 -1.8146
  178SAPS  H12Y20391   5.478   5.950   3.320  0.0581 -0.6939  0.8165
  178SAPS  C31320392   5.411   6.058   3.504 -0.5893 -0.0749  0.5987
  178SAPS  H13X20393   5.355   5.968   3.536  0.0504 -0.3942  0.8355
  178SAPS  H13Y20394   5.339   6.126   3.454 -1.0395 -1.4419 -0.6824
  178SAPS  C31420395   5.480   6.124   3.624  0.5345 -0.2406 -0.0541
  178SAPS  H14X20396   5.517   6.223   3.592  0.9812 -0.0847  0.9192
  178SAPS  H14Y20397   5.569   6.064   3.653 -0.2442 -1.0700  0.7003
  178SAPS  C31520398   5.386   6.160   3.747 -0.2906  0.6126  0.5353
  178SAPS  H15X20399   5.343   6.066   3.788  1.0425  0.0790  0.7748
  178SAPS  H15Y20400   5.305   6.222   3.702 -1.1817 -1.0420 -0.2520
  178SAPS  C31620401   5.467   6.238   3.859 -0.2874 -0.9278 -0.4704
  178SAPS  H16X20402   5.395   6.264   3.940  0.8201  2.7913 -0.4848
  178SAPS  H16Y20403   5.502   6.333   3.812 -1.5083 -0.1103  0.2293
  178SAPS  C31720404   5.581   6.157   3.923 -0.4849 -0.1483 -0.0233
  178SAPS  H17X20405   5.634   6.225   3.993  0.7913  0.4593 -1.5128
  178SAPS  H17Y20406   5.651   6.129   3.842 -0.5766  0.4765 -0.3298
  178SAPS  C31820407   5.535   6.032   3.991  0.3356  0.0909 -0.0124
  178SAPS  H18X20408   5.619   5.983   4.044  1.0281  0.7489 -0.4868
  178SAPS  H18Y20409   5.478   5.965   3.922 -0.2246  0.3751  0.1660
  178SAPS  H18Z20410   5.456   6.045   4.068  1.2050 -0.1787  0.9453
  179SAPS     N20411   2.517   1.576   2.178  0.2942  0.4492 -0.1234
  179SAPS   HN120412   2.580   1.541   2.252  0.4521  0.3777 -0.2913
  179SAPS   HN220413   2.448   1.644   2.216 -0.3920  0.2077 -0.9059
  179SAPS   HN320414   2.462   1.494   2.144 -0.5851  0.7934  0.4459
  179SAPS   C1220415   2.605   1.625   2.067 -0.0965  0.1963  0.0651
  179SAPS  H12A20416   2.658   1.538   2.031 -2.1027  0.1729 -3.3116
  179SAPS   C1320417   2.539   1.663   1.934 -0.0160  0.2878 -0.2446
  179SAPS  O13A20418   2.412   1.646   1.929 -0.1860 -0.4796  0.1313
  179SAPS  O13B20419   2.608   1.682   1.832 -0.0642 -0.0836  0.4159
  179SAPS   C1120420   2.703   1.739   2.113 -0.0700  0.3734 -0.3457
  179SAPS  H11A20421   2.639   1.820   2.154 -0.2824  0.6199 -1.1395
  179SAPS  H11B20422   2.749   1.778   2.019  0.0398  0.8984 -0.0779
  179SAPS     P20423   2.808   1.665   2.344  0.1589  0.6987  0.0261
  179SAPS   O1320424   2.734   1.541   2.368  0.1076 -0.1435  0.4486
  179SAPS   O1420425   2.944   1.669   2.403 -0.3266 -0.3365  0.3132
  179SAPS   O1220426   2.813   1.694   2.192  0.0715  0.0152 -0.0770
  179SAPS   O1120427   2.717   1.776   2.406 -0.0334  0.3973  0.2758
  179SAPS    C120428   2.783   1.897   2.445  0.2073 -0.9929  0.0737
  179SAPS    HA20429   2.865   1.889   2.521 -0.4932  1.7989  1.2727
  179SAPS    HB20430   2.831   1.954   2.362 -1.4950  1.0094  0.3671
  179SAPS    C220431   2.664   1.996   2.475 -0.1085  0.2600 -0.7472
  179SAPS    HS20432   2.715   2.095   2.476  1.8146 -0.6854 -0.5618
  179SAPS   O2120433   2.611   1.981   2.614  0.2027 -0.4429 -0.2915
  179SAPS   C2120434   2.701   1.996   2.708  0.5881 -0.3618 -0.3688
  179SAPS   O2220435   2.792   2.079   2.704  0.0404 -0.3046 -0.4371
  179SAPS   C2220436   2.689   1.893   2.821 -0.5262  0.8420 -0.2191
  179SAPS   H2R20437   2.657   1.794   2.782 -0.5288  1.4624 -1.9056
  179SAPS   H2S20438   2.786   1.893   2.874  0.0250 -0.8286 -1.1824
  179SAPS    C320439   2.547   1.989   2.376  0.2391  0.0877 -0.6371
  179SAPS    HX20440   2.504   1.887   2.361 -1.0712  0.6654 -0.9221
  179SAPS    HY20441   2.579   2.011   2.272  0.7901  0.3452 -0.4131
  179SAPS   O3120442   2.452   2.093   2.405  0.7046  0.2134 -0.6769
  179SAPS   C3120443   2.339   2.056   2.457  0.0268 -0.1053  0.5162
  179SAPS   O3220444   2.313   1.934   2.472  0.5705  0.8473 -0.8087
  179SAPS   C3220445   2.243   2.166   2.489 -0.6250 -0.3907  0.0890
  179SAPS   H2X20446   2.190   2.203   2.399 -1.6265 -1.1559  0.3460
  179SAPS   H2Y20447   2.300   2.250   2.534  0.2141 -1.8368  1.8753
  179SAPS   C2320448   2.593   1.937   2.927 -0.5380  0.0709 -0.2414
  179SAPS   H3R20449   2.581   1.857   3.004  2.3367  0.3109  0.5966
  179SAPS   H3S20450   2.496   1.961   2.880 -0.4065  2.4175  0.5192
  179SAPS   C2420451   2.650   2.059   3.010 -0.3171  0.3511 -0.0297
  179SAPS   H4R20452   2.710   2.121   2.940  0.6300 -0.8220 -0.2932
  179SAPS   H4S20453   2.714   2.001   3.080  1.2804  0.7069 -1.1392
  179SAPS   C2520454   2.542   2.134   3.078 -0.2277  0.5925 -0.1361
  179SAPS   H5R20455   2.457   2.164   3.014  0.7648  1.7591 -0.9605
  179SAPS   C2620456   2.548   2.181   3.204 -0.4812  0.0038  0.5277
  179SAPS   H6R20457   2.471   2.249   3.242  0.1154  0.9499  0.0707
  179SAPS   C2720458   2.663   2.177   3.299  0.2594  0.4962  0.0360
  179SAPS   H7R20459   2.660   2.265   3.366 -0.7717  1.3089 -1.0358
  179SAPS   H7S20460   2.759   2.195   3.247  0.1604 -0.2285 -0.4163
  179SAPS   C2820461   2.661   2.048   3.378 -0.0943 -0.5655  0.0171
  179SAPS   H8R20462   2.570   1.987   3.382  0.6375 -1.6504  0.4526
  179SAPS   C2920463   2.766   1.996   3.443 -0.0713  0.1459 -0.3091
  179SAPS   H9R20464   2.754   1.900   3.495  0.6073  0.2874  0.1045
  179SAPS  C21020465   2.908   2.050   3.463  0.5586 -0.3836  0.2106
  179SAPS  H10R20466   2.905   2.139   3.529  0.1945 -0.7250  0.6522
  179SAPS  H10S20467   2.931   2.074   3.356 -0.8875  1.6039  0.2829
  179SAPS  C21120468   3.004   1.955   3.512 -1.0340  0.1497 -0.0353
  179SAPS  H11R20469   3.050   1.879   3.446  0.0747  1.3233 -0.6496
  179SAPS  C21220470   3.052   1.948   3.637 -0.1356  0.1882  0.1943
  179SAPS  H12R20471   3.128   1.873   3.663 -1.1486 -2.4387 -3.5189
  179SAPS  C21320472   3.012   2.035   3.749  0.0725 -0.4305 -0.3646
  179SAPS  H13R20473   2.927   2.101   3.720 -0.3206  0.1272  1.8734
  179SAPS  H13S20474   3.096   2.107   3.759  1.0198 -1.4543 -0.7977
  179SAPS  C21420475   2.970   1.967   3.867  0.0476 -0.5476  0.0339
  179SAPS  H14R20476   2.917   1.871   3.855 -0.0846 -0.7538  1.9727
  179SAPS  C21520477   2.972   2.023   3.988 -0.1356 -1.0495 -0.1909
  179SAPS  H15R20478   2.939   1.964   4.075  1.1423  0.3285  1.3044
  179SAPS  C21620479   3.040   2.146   4.035  0.2524  0.2396 -0.4497
  179SAPS  H16R20480   2.963   2.225   4.022  1.0851  0.9085 -1.4522
  179SAPS  H16S20481   3.131   2.167   3.975  0.9789  0.1671  0.6182
  179SAPS  C21720482   3.086   2.129   4.178  0.3868 -0.0547  0.6976
  179SAPS  H17R20483   3.164   2.205   4.198  1.1116 -1.0669  1.8006
  179SAPS  H17S20484   3.116   2.025   4.201  0.9775 -0.0541 -0.0319
  179SAPS  C21820485   2.965   2.152   4.271  0.1350 -0.6435  0.2692
  179SAPS  H18R20486   2.877   2.088   4.252 -0.5389 -0.1105  1.5155
  179SAPS  H18S20487   2.923   2.251   4.244  0.7333 -1.1339 -2.8845
  179SAPS  C21920488   3.004   2.147   4.414 -0.4553  0.2178 -0.2665
  179SAPS  H19R20489   3.059   2.242   4.433 -1.2622  0.8025 -0.8097
  179SAPS  H19S20490   3.078   2.066   4.430  0.0945  0.9824  1.3949
  179SAPS  C22020491   2.893   2.115   4.510 -0.2699 -0.2542  0.0669
  179SAPS  H20R20492   2.822   2.200   4.509  1.5605  1.3865  1.7228
  179SAPS  H20S20493   2.935   2.088   4.609  0.7031 -1.0777 -0.5388
  179SAPS  H20T20494   2.843   2.019   4.481 -1.5183  0.7315 -1.1736
  179SAPS   C3320495   2.140   2.118   2.591 -0.5096  0.8936  0.4290
  179SAPS   H3X20496   2.107   2.015   2.564  1.3058  0.2070  0.6374
  179SAPS   H3Y20497   2.056   2.190   2.587  0.2998  1.7926 -1.6218
  179SAPS   C3420498   2.197   2.122   2.726  0.1389 -0.9601 -0.3622
  179SAPS   H4X20499   2.229   2.226   2.750  1.9823 -1.6208  0.1934
  179SAPS   H4Y20500   2.280   2.048   2.722  0.6604 -0.3604 -0.8888
  179SAPS   C3520501   2.085   2.091   2.825  0.0890 -0.1939 -0.4712
  179SAPS   H5X20502   2.044   1.992   2.795  0.2961 -0.5635  0.4138
  179SAPS   H5Y20503   1.998   2.159   2.816 -0.9576 -1.2521  1.1249
  179SAPS   C3620504   2.133   2.070   2.973 -0.6621  0.1178  0.6451
  179SAPS   H6X20505   2.186   2.162   3.005 -0.9258  0.2691  0.6548
  179SAPS   H6Y20506   2.202   1.983   2.972 -1.8325 -0.8778  1.4433
  179SAPS   C3720507   2.027   2.027   3.066  0.1936  0.0346 -0.2231
  179SAPS   H7X20508   1.939   1.981   3.016  1.0235 -0.7437 -0.9931
  179SAPS   H7Y20509   1.974   2.117   3.106 -0.5348 -0.8689  0.9109
  179SAPS   C3820510   2.090   1.945   3.178 -0.2389 -0.2222  0.0803
  179SAPS   H8X20511   2.150   1.859   3.144 -1.0641 -0.4389 -0.8732
  179SAPS   H8Y20512   2.003   1.905   3.235 -1.3299  1.6374 -0.1610
  179SAPS   C3920513   2.171   2.036   3.275 -0.0794 -0.5698  0.8592
  179SAPS   H9X20514   2.097   2.116   3.299 -5.2572 -4.0787 -1.4009
  179SAPS   H9Y20515   2.261   2.070   3.220 -0.3874 -0.0935  0.6372
  179SAPS  C31020516   2.215   1.973   3.400  0.7385  0.4643 -0.3747
  179SAPS  H10X20517   2.123   1.949   3.458  1.4557 -0.1813  0.5334
  179SAPS  H10Y20518   2.267   2.044   3.467 -1.6326  1.6500  0.3015
  179SAPS  C31120519   2.311   1.842   3.385 -0.0348 -0.6479 -0.4192
  179SAPS  H11X20520   2.400   1.874   3.327  0.2078 -1.2278 -0.3786
  179SAPS  H11Y20521   2.257   1.760   3.331 -1.3327 -1.1847  1.5910
  179SAPS  C31220522   2.353   1.777   3.514 -0.3535 -0.2326  0.4179
  179SAPS  H12X20523   2.422   1.838   3.576  0.0091 -0.7730  0.5490
  179SAPS  H12Y20524   2.413   1.690   3.481 -0.8435 -0.9372  1.3509
  179SAPS  C31320525   2.241   1.729   3.599 -0.3993  0.1245  1.0186
  179SAPS  H13X20526   2.190   1.660   3.529  2.0512 -0.7768  0.0187
  179SAPS  H13Y20527   2.168   1.810   3.618 -2.7809 -1.3207 -1.4334
  179SAPS  C31420528   2.290   1.662   3.733 -0.2582 -1.2003  0.3033
  179SAPS  H14X20529   2.207   1.635   3.801 -0.7588  1.5661  0.9014
  179SAPS  H14Y20530   2.342   1.738   3.795 -0.9288 -1.3716  1.0779
  179SAPS  C31520531   2.383   1.545   3.719  0.8269  0.0774  0.3773
  179SAPS  H15X20532   2.468   1.575   3.654  0.8829  1.1595  0.9212
  179SAPS  H15Y20533   2.341   1.451   3.676  0.8989 -1.2178  2.9802
  179SAPS  C31620534   2.446   1.513   3.859 -0.4716 -0.2031  0.3743
  179SAPS  H16X20535   2.492   1.611   3.884 -0.5650 -0.3071  0.9862
  179SAPS  H16Y20536   2.522   1.433   3.851  0.1724  0.4597 -0.2005
  179SAPS  C31720537   2.356   1.475   3.975 -0.1639  0.7011  0.5570
  179SAPS  H17X20538   2.401   1.389   4.030 -0.5664 -1.0586 -1.6955
  179SAPS  H17Y20539   2.272   1.418   3.929  1.9012 -0.7700 -1.6239
  179SAPS  C31820540   2.312   1.607   4.050 -0.3647 -0.0128  0.1926
  179SAPS  H18X20541   2.254   1.588   4.142 -0.3744 -1.1484 -0.0423
  179SAPS  H18Y20542   2.251   1.674   3.984  2.1983  1.0715 -1.2099
  179SAPS  H18Z20543   2.397   1.671   4.081 -2.3176  2.8106  0.1675
  180SAPS     N20544   1.685   2.343   1.602 -0.0094  0.0198 -0.6878
  180SAPS   HN120545   1.750   2.425   1.601  1.4661 -1.0880 -0.2430
  180SAPS   HN220546   1.641   2.315   1.513 -1.2723 -1.6946  0.4212
  180SAPS   HN320547   1.601   2.360   1.660 -0.1667 -0.3410 -0.8109
  180SAPS   C1220548   1.772   2.238   1.659  0.1839 -0.2688  0.1960
  180SAPS  H12A20549   1.718   2.145   1.674  2.0171 -1.4786 -0.3674
  180SAPS   C1320550   1.890   2.195   1.562 -0.0548  0.2504  0.6649
  180SAPS  O13A20551   1.881   2.213   1.440 -0.5056 -0.6522 -0.1166
  180SAPS  O13B20552   1.977   2.120   1.615  0.1085  0.3310  0.5976
  180SAPS   C1120553   1.815   2.284   1.802  0.2109 -0.4424  0.4812
  180SAPS  H11A20554   1.867   2.381   1.787 -0.3175 -0.3369 -0.8346
  180SAPS  H11B20555   1.884   2.211   1.850  0.7316  1.1679  2.2981
  180SAPS     P20556   1.709   2.278   2.042  0.2136 -0.0605 -0.1957
  180SAPS   O1320557   1.579   2.311   2.106 -0.2124  0.8489  0.0390
  180SAPS   O1420558   1.760   2.141   2.043  0.4907 -0.2611  0.0533
  180SAPS   O1220559   1.707   2.317   1.891  0.9768  0.4885  0.0912
  180SAPS   O1120560   1.813   2.384   2.093  0.2529  1.0127  0.4192
  180SAPS    C120561   1.916   2.362   2.179 -0.8865  0.0229 -0.1829
  180SAPS    HA20562   1.981   2.282   2.137 -0.6220  1.4518 -2.6816
  180SAPS    HB20563   1.982   2.451   2.184 -1.0786  0.1113  0.9690
  180SAPS    C220564   1.868   2.336   2.328  0.4215 -0.0450 -0.6355
  180SAPS    HS20565   1.950   2.353   2.402 -0.7445  0.9635  0.4953
  180SAPS   O2120566   1.804   2.204   2.345 -0.3052  0.0083  0.7046
  180SAPS   C2120567   1.878   2.096   2.328  0.5759  0.5580  0.4190
  180SAPS   O2220568   1.996   2.088   2.310 -0.4096  0.3250  0.2900
  180SAPS   C2220569   1.784   1.978   2.328 -0.3286  0.1288  0.5116
  180SAPS   H2R20570   1.674   1.994   2.336 -0.3810 -0.9160  2.7959
  180SAPS   H2S20571   1.812   1.915   2.240 -0.1722 -0.3317  0.8846
  180SAPS    C320572   1.765   2.437   2.379  0.6062 -0.0532  0.9202
  180SAPS    HX20573   1.671   2.413   2.324  0.2600 -0.5105  1.6870
  180SAPS    HY20574   1.793   2.539   2.345  0.6854 -0.2973  0.2405
  180SAPS   O3120575   1.751   2.417   2.522  0.1762 -0.0999  0.6157
  180SAPS   C3120576   1.635   2.400   2.575  0.4675  0.3230 -0.0602
  180SAPS   O3220577   1.531   2.395   2.513  0.0574  0.1490  0.0516
  180SAPS   C3220578   1.657   2.401   2.729 -0.5280 -0.7580  0.1890
  180SAPS   H2X20579   1.555   2.405   2.774 -1.5923  1.4100 -2.1475
  180SAPS   H2Y20580   1.699   2.500   2.755  0.4811 -0.5845 -1.8778
  180SAPS   C2320581   1.825   1.884   2.444  0.2420  0.7604  0.3039
  180SAPS   H3R20582   1.931   1.851   2.443  0.4252  1.2033  1.9575
  180SAPS   H3S20583   1.764   1.793   2.428  1.8054 -0.0057 -1.6253
  180SAPS   C2420584   1.804   1.945   2.587  0.6679  0.2868 -0.3459
  180SAPS   H4R20585   1.698   1.977   2.589  0.3389 -0.7853  0.5098
  180SAPS   H4S20586   1.876   2.028   2.597  1.5219 -0.4871  0.0668
  180SAPS   C2520587   1.826   1.833   2.687 -0.1164 -0.5702 -0.1769
  180SAPS   H5R20588   1.904   1.759   2.660  0.7588  0.0596  0.5701
  180SAPS   C2620589   1.764   1.819   2.808  0.5840 -0.1023  0.3191
  180SAPS   H6R20590   1.794   1.740   2.879 -2.2477  1.8879  4.1186
  180SAPS   C2720591   1.644   1.898   2.863 -0.4289 -0.6384  0.1643
  180SAPS   H7R20592   1.614   1.981   2.796 -2.1979 -1.1561  0.2764
  180SAPS   H7S20593   1.664   1.937   2.965 -1.3411 -2.3874  1.0543
  180SAPS   C2820594   1.526   1.808   2.871  0.7600  0.0241  0.4058
  180SAPS   H8R20595   1.468   1.796   2.778 -1.8854  0.3844  1.8818
  180SAPS   C2920596   1.487   1.735   2.982 -0.2231 -0.2815  0.9329
  180SAPS   H9R20597   1.397   1.673   2.976 -0.4209  0.0692  0.0700
  180SAPS  C21020598   1.559   1.729   3.123 -0.2550 -0.3606  0.7207
  180SAPS  H10R20599   1.522   1.812   3.188  2.4635  0.4797  1.3233
  180SAPS  H10S20600   1.662   1.760   3.094 -0.5697  0.3611  0.3470
  180SAPS  C21120601   1.549   1.593   3.188  0.3417  0.6121 -0.2246
  180SAPS  H11R20602   1.526   1.507   3.124 -0.8563 -0.6795  1.8403
  180SAPS  C21220603   1.556   1.565   3.320 -1.4383 -0.0305  0.1702
  180SAPS  H12R20604   1.572   1.459   3.347  1.0320 -0.0403 -1.0032
  180SAPS  C21320605   1.575   1.666   3.425 -0.0021 -0.9273 -0.5619
  180SAPS  H13R20606   1.513   1.650   3.516 -0.2949  2.0445 -0.1453
  180SAPS  H13S20607   1.544   1.767   3.392  2.3451 -0.4133 -1.4389
  180SAPS  C21420608   1.718   1.665   3.460 -0.6485  0.3931  0.2077
  180SAPS  H14R20609   1.760   1.564   3.471  0.1144  0.6643 -0.1626
  180SAPS  C21520610   1.808   1.764   3.488  1.0267 -0.8062 -0.3476
  180SAPS  H15R20611   1.912   1.730   3.502  1.4830  0.4673 -0.5165
  180SAPS  C21620612   1.780   1.910   3.489 -0.2719 -0.3275 -0.1374
  180SAPS  H16R20613   1.677   1.936   3.457 -0.1448  2.5132  1.4456
  180SAPS  H16S20614   1.839   1.958   3.408  0.6418 -1.0594  0.0798
  180SAPS  C21720615   1.786   1.993   3.620  0.7357 -0.0998 -0.4111
  180SAPS  H17R20616   1.887   1.986   3.667  0.6886  0.8731 -0.1351
  180SAPS  H17S20617   1.713   1.954   3.694  0.3798  1.8726  0.3259
  180SAPS  C21820618   1.739   2.141   3.595 -0.4483  0.2444  0.2375
  180SAPS  H18R20619   1.655   2.152   3.522 -1.6297 -0.7814  1.3885
  180SAPS  H18S20620   1.832   2.187   3.556 -1.2026  0.0474 -1.9687
  180SAPS  C21920621   1.701   2.213   3.718  0.2277 -0.0618 -0.1648
  180SAPS  H19R20622   1.607   2.168   3.757  0.5649  0.5208  1.4316
  180SAPS  H19S20623   1.670   2.312   3.678  2.6283  2.0003  2.5893
  180SAPS  C22020624   1.805   2.230   3.827 -0.2918  0.1379 -0.4395
  180SAPS  H20R20625   1.803   2.136   3.885  1.5623 -1.2894 -2.5155
  180SAPS  H20S20626   1.910   2.243   3.792  0.2881  2.2887  1.8200
  180SAPS  H20T20627   1.784   2.317   3.893 -0.0363 -0.0238 -0.1443
  180SAPS   C3320628   1.749   2.285   2.774  0.1091 -0.3027  0.7113
  180SAPS   H3X20629   1.852   2.298   2.734  0.8977 -1.5239  2.2390
  180SAPS   H3Y20630   1.713   2.191   2.727 -0.8632  0.5620 -0.3256
  180SAPS   C3420631   1.759   2.276   2.927  0.2096 -0.2964 -0.4170
  180SAPS   H4X20632   1.806   2.365   2.974  1.1143 -1.2224  0.4724
  180SAPS   H4Y20633   1.819   2.184   2.943 -0.1915 -0.7767 -1.5760
  180SAPS   C3520634   1.626   2.237   2.996 -0.0699 -0.7623  0.6670
  180SAPS   H5X20635   1.588   2.143   2.950  2.3447 -0.4692 -2.2702
  180SAPS   H5Y20636   1.547   2.315   2.990 -0.6796 -1.4554 -0.7954
  180SAPS   C3620637   1.652   2.206   3.143 -0.1555  0.3988 -0.1947
  180SAPS   H6X20638   1.716   2.117   3.160  0.4080  0.7370 -0.5072
  180SAPS   H6Y20639   1.550   2.194   3.185 -0.2944 -1.6514 -1.0200
  180SAPS   C3720640   1.721   2.319   3.225 -0.3569  0.4504  0.3075
  180SAPS   H7X20641   1.819   2.345   3.180 -0.2508  0.9996  0.8494
  180SAPS   H7Y20642   1.747   2.281   3.326  2.0924  2.5583  0.5676
  180SAPS   C3820643   1.637   2.449   3.256 -0.5569  0.2037 -0.0938
  180SAPS   H8X20644   1.545   2.423   3.312 -1.4871 -3.2134 -2.8155
  180SAPS   H8Y20645   1.615   2.491   3.156 -0.8150 -0.4228 -0.3055
  180SAPS   C3920646   1.713   2.557   3.337 -0.1112 -0.2283  0.2071
  180SAPS   H9X20647   1.667   2.658   3.326 -0.4569 -0.3608  0.3987
  180SAPS   H9Y20648   1.814   2.577   3.296 -1.2541  1.3631 -2.0348
  180SAPS  C31020649   1.720   2.527   3.485 -0.5170 -0.0157 -0.8183
  180SAPS  H10X20650   1.790   2.443   3.505 -1.5137 -0.1999  2.3408
  180SAPS  H10Y20651   1.624   2.501   3.535  0.0699  1.3439  1.1318
  180SAPS  C31120652   1.792   2.646   3.560 -0.2372  0.6312  0.2146
  180SAPS  H11X20653   1.745   2.744   3.539  0.4522  0.5811 -1.7934
  180SAPS  H11Y20654   1.882   2.639   3.495 -1.6905 -2.0529 -1.7179
  180SAPS  C31220655   1.826   2.622   3.710  0.8724 -0.2691  0.3062
  180SAPS  H12X20656   1.892   2.702   3.752 -2.6355  2.4314  1.2018
  180SAPS  H12Y20657   1.886   2.529   3.720  1.0726 -0.0123  1.5933
  180SAPS  C31320658   1.708   2.623   3.809  0.1019  0.7829 -0.1832
  180SAPS  H13X20659   1.747   2.596   3.909  0.2970 -0.1384 -0.4951
  180SAPS  H13Y20660   1.630   2.552   3.775  0.7306  0.7316 -1.6173
  180SAPS  C31420661   1.643   2.759   3.814  0.3692 -0.1802  0.0777
  180SAPS  H14X20662   1.596   2.788   3.718  1.4930 -0.6758 -0.6270
  180SAPS  H14Y20663   1.717   2.841   3.824 -2.1524  2.5360 -1.8668
  180SAPS  C31520664   1.528   2.769   3.923  0.2419 -0.1508  0.3322
  180SAPS  H15X20665   1.491   2.666   3.940 -0.0092  0.0894  1.3081
  180SAPS  H15Y20666   1.440   2.832   3.899  0.6631  0.5160  0.5149
  180SAPS  C31620667   1.585   2.801   4.059 -0.5111  0.3246  0.3296
  180SAPS  H16X20668   1.607   2.909   4.070  0.3930  0.6976 -3.5803
  180SAPS  H16Y20669   1.682   2.749   4.071  0.3156  1.7328 -0.0197
  180SAPS  C31720670   1.489   2.775   4.177  0.5746  0.6296  0.2335
  180SAPS  H17X20671   1.467   2.667   4.160 -0.9415  1.2507 -2.2206
  180SAPS  H17Y20672   1.387   2.814   4.158 -0.5894 -1.6037  1.4675
  180SAPS  C31820673   1.523   2.813   4.317 -0.0184 -0.2609 -0.1787
  180SAPS  H18X20674   1.621   2.764   4.339 -0.2318 -0.1005  1.2099
  180SAPS  H18Y20675   1.454   2.776   4.396  0.9391 -0.4030  0.6233
  180SAPS  H18Z20676   1.532   2.922   4.331 -1.9400 -0.1428  0.3935
  181POPC     N20677   2.138   6.755   6.217 -0.0869 -0.1295 -0.9210
  181POPC   C1220678   1.990   6.762   6.198 -0.0350  0.8669  0.6689
  181POPC  H12A20679   1.943   6.665   6.194  2.8390 -0.6909  1.6246
  181POPC  H12B20680   1.969   6.791   6.096 -0.3032 -1.7419 -0.0969
  181POPC   C1320681   2.178   6.705   6.353 -0.6210  0.0916  0.4540
  181POPC  H13A20682   2.147   6.603   6.363 -0.3857 -0.0181  0.1222
  181POPC  H13B20683   2.285   6.706   6.368 -0.0281 -1.2163 -2.7410
  181POPC  H13C20684   2.125   6.760   6.429 -2.9257 -3.1125  1.3319
  181POPC   C1420685   2.202   6.667   6.110  0.2225 -0.1518 -0.0628
  181POPC  H14A20686   2.220   6.719   6.017 -1.4993  1.9749  0.7018
  181POPC  H14B20687   2.292   6.613   6.138 -0.2859 -1.8877 -1.6327
  181POPC  H14C20688   2.136   6.587   6.082 -0.5022 -0.0939  1.3872
  181POPC   C1520689   2.210   6.886   6.204 -0.3985  0.2581  0.1602
  181POPC  H15A20690   2.197   6.965   6.278 -0.3743  1.8736 -1.4898
  181POPC  H15B20691   2.192   6.929   6.107  2.2768 -1.5401 -1.2278
  181POPC  H15C20692   2.316   6.867   6.209 -0.2207  1.2052  0.2230
  181POPC   C1120693   1.909   6.847   6.300 -0.8058 -0.4388 -0.2371
  181POPC  H11A20694   1.955   6.947   6.285 -0.0677 -0.6119  0.7581
  181POPC  H11B20695   1.931   6.814   6.404  1.3718  0.6107 -0.3137
  181POPC     P20696   1.689   6.711   6.289 -0.3405 -0.0176 -0.0781
  181POPC   O1320697   1.554   6.739   6.249  0.1143 -0.4911  0.2123
  181POPC   O1420698   1.712   6.649   6.423  0.1614 -0.6126  0.2884
  181POPC   O1220699   1.774   6.840   6.274  0.2967  0.0324 -0.4489
  181POPC   O1120700   1.754   6.617   6.171 -0.0462  0.0244 -0.6513
  181POPC    C120701   1.756   6.478   6.183  1.1245 -0.6192  0.0658
  181POPC    HA20702   1.676   6.436   6.248 -0.8386 -0.3890 -2.0995
  181POPC    HB20703   1.843   6.461   6.250  0.5863  0.0381  0.9487
  181POPC    C220704   1.769   6.407   6.049 -1.0613  0.2345 -0.4496
  181POPC    HS20705   1.803   6.302   6.060 -0.5807  0.4157 -0.2016
  181POPC   O2120706   1.847   6.473   5.952 -0.5726 -0.1290 -0.3764
  181POPC   C2120707   1.902   6.398   5.864 -0.1905 -0.1837  0.5793
  181POPC   O2220708   1.879   6.280   5.845 -0.0965  0.3539 -0.1709
  181POPC   C2220709   2.005   6.478   5.779  0.0054  0.1167  0.4491
  181POPC   H2R20710   2.055   6.558   5.837  1.0297 -1.3890  1.7369
  181POPC   H2S20711   1.938   6.527   5.705  0.5908  0.0035 -0.1702
  181POPC    C320712   1.622   6.415   6.001  0.1839 -0.0856  1.0224
  181POPC    HX20713   1.590   6.521   5.985  1.1794  0.0906  0.0911
  181POPC    HY20714   1.555   6.362   6.072 -0.9221 -1.0394 -0.6719
  181POPC   O3120715   1.612   6.358   5.872 -0.2556  0.0790 -0.0401
  181POPC   C3120716   1.487   6.340   5.827  0.0999 -0.0072 -0.3498
  181POPC   O3220717   1.392   6.391   5.881 -0.3709  0.0401  0.2511
  181POPC   C3220718   1.492   6.258   5.695  0.6115  0.3333 -0.2972
  181POPC   H2X20719   1.527   6.157   5.724  0.4748  1.0365  2.6475
  181POPC   H2Y20720   1.578   6.293   5.634  1.3330 -2.8312 -1.2552
  181POPC   C2320721   2.120   6.395   5.711 -0.2332  0.4815 -0.1666
  181POPC   H3R20722   2.150   6.320   5.787  2.6006  0.8834 -0.7848
  181POPC   H3S20723   2.209   6.460   5.693 -0.4607  1.1270  0.9314
  181POPC   C2420724   2.092   6.323   5.580  0.0940 -0.0068  0.6956
  181POPC   H4R20725   1.986   6.291   5.575 -0.1091  0.6605  0.5669
  181POPC   H4S20726   2.152   6.231   5.562 -1.2169 -1.0356  1.3915
  181POPC   C2520727   2.102   6.419   5.462 -0.0554 -0.0844  0.1867
  181POPC   H5R20728   2.211   6.439   5.446 -0.2125  0.6601  0.0039
  181POPC   H5S20729   2.048   6.511   5.490 -0.2569  0.0075 -0.4862
  181POPC   C2620730   2.046   6.358   5.331  0.2043 -0.3349  0.3415
  181POPC   H6R20731   1.940   6.327   5.343 -0.7303  1.6021 -1.9671
  181POPC   H6S20732   2.111   6.274   5.298 -0.7523 -1.2906  0.8431
  181POPC   C2720733   2.046   6.450   5.212 -0.5201 -0.1686 -0.3873
  181POPC   H7R20734   2.154   6.476   5.202 -0.1459 -1.3801  0.2219
  181POPC   H7S20735   1.979   6.535   5.236 -0.8748 -0.1825 -1.3009
  181POPC   C2820736   1.995   6.388   5.080  0.2160  0.0573  0.1143
  181POPC   H8R20737   1.969   6.475   5.016 -0.3454  0.5902  1.0377
  181POPC   H8S20738   1.903   6.332   5.107  0.6153 -0.2395  0.8893
  181POPC   C2920739   2.097   6.294   5.017  0.6226 -0.3269 -0.7706
  181POPC   H9120740   2.148   6.227   5.088  2.0887  1.0132 -0.5014
  181POPC  C21020741   2.115   6.279   4.889 -0.3836  0.0414  0.5305
  181POPC  H10120742   2.164   6.185   4.860 -0.7832  0.2843 -1.0400
  181POPC  C21120743   2.052   6.367   4.782  0.1546  0.0818  0.2535
  181POPC  H11R20744   2.124   6.397   4.703 -0.6878 -0.9826 -0.9509
  181POPC  H11S20745   2.015   6.464   4.822  1.8051  0.4973  0.8671
  181POPC  C21220746   1.928   6.308   4.709  0.2322 -0.4796  0.3121
  181POPC  H12R20747   1.894   6.394   4.648  0.8999 -0.6765 -0.3514
  181POPC  H12S20748   1.846   6.284   4.781 -0.3868 -0.6483 -0.4413
  181POPC  C21320749   1.968   6.185   4.624 -0.4413 -0.5521 -0.2012
  181POPC  H13R20750   1.982   6.104   4.699 -1.5422  0.1206  0.7667
  181POPC  H13S20751   2.062   6.213   4.572  1.1222 -0.4195  2.5013
  181POPC  C21420752   1.861   6.142   4.522 -0.3765 -0.5850 -1.0999
  181POPC  H14R20753   1.761   6.142   4.570 -0.9188  0.1275 -2.1858
  181POPC  H14S20754   1.872   6.035   4.495 -1.6700 -0.0945 -3.9288
  181POPC  C21520755   1.843   6.224   4.391 -0.8508  0.1212 -0.3858
  181POPC  H15R20756   1.816   6.330   4.412 -0.9902 -0.5110  3.2627
  181POPC  H15S20757   1.753   6.187   4.338 -0.8789  1.0477 -1.0114
  181POPC  C21620758   1.969   6.206   4.296  0.3109 -0.3796  0.0593
  181POPC  H16R20759   1.997   6.098   4.294 -2.5540 -1.1992 -1.4925
  181POPC  H16S20760   2.062   6.245   4.341 -0.6655  0.7251  1.2089
  181POPC  C21720761   1.951   6.258   4.148  0.1980  0.6781 -0.2986
  181POPC  H17R20762   1.928   6.366   4.161  1.1639  0.8160  0.3438
  181POPC  H17S20763   1.854   6.214   4.115 -0.1938  0.3950  1.1472
  181POPC  C21820764   2.065   6.225   4.051  0.3261  0.4368  0.8673
  181POPC  H18R20765   2.054   6.298   3.968  3.2870  0.5968  0.5057
  181POPC  H18S20766   2.072   6.117   4.026  0.7183  0.3726  1.2339
  181POPC  H18T20767   2.164   6.246   4.097 -0.4203 -1.3963  3.5347
  181POPC   C3320768   1.365   6.266   5.610  0.9032  0.2824 -0.2701
  181POPC   H3X20769   1.307   6.359   5.625 -1.3396 -1.1446  0.5980
  181POPC   H3Y20770   1.289   6.197   5.653  1.3154  1.4311  2.5284
  181POPC   C3420771   1.383   6.261   5.460  0.1524 -0.2408 -0.2826
  181POPC   H4X20772   1.419   6.162   5.424 -0.7396 -0.6819  0.0184
  181POPC   H4Y20773   1.455   6.342   5.435  2.1318 -1.2861  1.6175
  181POPC   C3520774   1.256   6.288   5.379 -0.0959  0.1851 -0.7274
  181POPC   H5X20775   1.220   6.393   5.388  0.0011  0.2906 -1.5019
  181POPC   H5Y20776   1.175   6.226   5.422 -0.5972  3.1260  3.1623
  181POPC   C3620777   1.272   6.257   5.222 -0.5799  0.0424  0.3171
  181POPC   H6X20778   1.293   6.153   5.189 -1.5006 -0.5542  1.5211
  181POPC   H6Y20779   1.366   6.313   5.201 -0.6133  1.1393  2.6717
  181POPC   C3720780   1.149   6.299   5.141 -0.8203  0.0752  0.6984
  181POPC   H7X20781   1.148   6.407   5.168 -0.1443 -0.3400  2.5184
  181POPC   H7Y20782   1.060   6.240   5.172 -0.8548 -0.3896 -0.2631
  181POPC   C3820783   1.180   6.275   4.987 -0.0896  0.3410 -0.2607
  181POPC   H8X20784   1.207   6.167   4.986  1.1393  0.6143 -2.4131
  181POPC   H8Y20785   1.270   6.337   4.969  0.6119  0.3747  2.8558
  181POPC   C3920786   1.063   6.317   4.898 -0.3519  0.2369 -0.0881
  181POPC   H9X20787   1.028   6.418   4.929  2.2674  0.8823  1.1309
  181POPC   H9Y20788   0.977   6.248   4.908  0.3885 -0.3674  3.3476
  181POPC  C31020789   1.106   6.332   4.749  0.7028  0.6116  0.3141
  181POPC  H10X20790   1.208   6.372   4.727  0.1153  0.6400 -2.8451
  181POPC  H10Y20791   1.041   6.413   4.711 -0.3673 -0.6262 -0.5452
  181POPC  C31120792   1.093   6.201   4.665 -0.1247 -0.5746  0.1890
  181POPC  H11X20793   0.991   6.163   4.643  0.8649 -3.1751 -0.1986
  181POPC  H11Y20794   1.147   6.127   4.727 -0.1145 -1.4451 -0.8219
  181POPC  C31220795   1.177   6.223   4.536  0.3253 -0.9565 -0.1080
  181POPC  H12X20796   1.178   6.125   4.484  1.7803 -1.1126  0.1659
  181POPC  H12Y20797   1.282   6.257   4.555  1.0055 -1.1361 -3.1116
  181POPC  C31320798   1.102   6.323   4.444 -0.0744  0.3943 -0.0756
  181POPC  H13X20799   1.127   6.424   4.483 -2.1178  0.9824 -0.1454
  181POPC  H13Y20800   0.994   6.299   4.456  0.1305 -0.5789 -0.1059
  181POPC  C31420801   1.160   6.328   4.303 -0.0484  0.4740 -0.0221
  181POPC  H14X20802   1.169   6.226   4.258 -0.4122  0.8202 -0.8993
  181POPC  H14Y20803   1.263   6.367   4.319  0.5549 -0.8879 -0.3595
  181POPC  C31520804   1.071   6.416   4.206  0.4789  0.9574  0.3858
  181POPC  H15X20805   1.043   6.520   4.235  3.2038  1.4285  1.5906
  181POPC  H15Y20806   0.976   6.359   4.203  1.0577 -0.0346 -2.8653
  181POPC  C31620807   1.107   6.420   4.056  0.2141 -0.1328 -0.4813
  181POPC  H16X20808   1.055   6.504   4.006 -0.1747  1.2487  2.0303
  181POPC  H16Y20809   1.086   6.322   4.010 -1.9351  1.3187 -2.8094
  181POPC  H16Z20810   1.216   6.439   4.049 -0.1274  1.6473 -1.4744
  182POPC     N20811   6.669   5.844   6.167  1.1569 -0.8182 -0.4169
  182POPC   C1220812   6.567   5.771   6.257  0.3195  0.2914 -0.0370
  182POPC  H12A20813   6.517   5.705   6.188  1.5959 -0.1607 -0.5650
  182POPC  H12B20814   6.486   5.834   6.291 -0.7347 -1.5422  1.0357
  182POPC   C1320815   6.760   5.741   6.106  0.6549 -0.3043 -0.2456
  182POPC  H13A20816   6.719   5.666   6.040  2.7987 -2.4001  0.6066
  182POPC  H13B20817   6.850   5.778   6.058  0.6838  1.5278  1.1058
  182POPC  H13C20818   6.794   5.680   6.189  1.1240  0.4364  0.1179
  182POPC   C1420819   6.591   5.897   6.053  0.4657  0.5585  0.9391
  182POPC  H14A20820   6.539   5.814   6.009  2.1102 -0.1013  0.1550
  182POPC  H14B20821   6.511   5.963   6.082  0.7162  0.4835  1.8168
  182POPC  H14C20822   6.658   5.935   5.976  0.0280  0.8733  0.7090
  182POPC   C1520823   6.745   5.953   6.237 -0.2058  0.8713 -0.4147
  182POPC  H15A20824   6.823   5.991   6.172  1.4778  0.3097  1.1753
  182POPC  H15B20825   6.809   5.914   6.314  1.1730  0.5938 -1.6452
  182POPC  H15C20826   6.688   6.032   6.282 -0.9943  0.3938 -0.5530
  182POPC   C1120827   6.621   5.687   6.375 -0.4285 -0.0093  0.0955
  182POPC  H11A20828   6.542   5.668   6.451  0.1512 -1.2421  0.4168
  182POPC  H11B20829   6.706   5.741   6.423 -0.7683  1.4869 -0.9220
  182POPC     P20830   6.605   5.449   6.283  0.0362  0.0159 -0.2137
  182POPC   O1320831   6.454   5.474   6.280 -0.5415  0.2529 -0.3978
  182POPC   O1420832   6.646   5.336   6.368  0.3489 -0.0969  0.4205
  182POPC   O1220833   6.684   5.572   6.331 -0.0410  0.1719  0.7017
  182POPC   O1120834   6.649   5.444   6.129 -0.3927  0.3124 -0.3035
  182POPC    C120835   6.786   5.396   6.095 -0.1393 -0.4452  0.8308
  182POPC    HA20836   6.842   5.333   6.168  0.5828 -0.9384 -0.1418
  182POPC    HB20837   6.847   5.488   6.081  0.5836 -1.1041 -0.4739
  182POPC    C220838   6.786   5.321   5.956  0.1444  0.0226  0.4358
  182POPC    HS20839   6.884   5.324   5.903  0.3090  0.8295  0.7727
  182POPC   O2120840   6.688   5.355   5.860 -0.1656 -0.3036 -0.4802
  182POPC   C2120841   6.694   5.483   5.817 -0.4015 -0.2286  0.4052
  182POPC   O2220842   6.775   5.569   5.855  0.0605 -0.4289  0.1618
  182POPC   C2220843   6.601   5.501   5.695  0.4057  1.0203 -0.1160
  182POPC   H2R20844   6.503   5.462   5.727  0.1737  1.2299 -0.5647
  182POPC   H2S20845   6.645   5.439   5.614  0.1210 -1.3582  1.4731
  182POPC    C320846   6.732   5.171   5.971  0.7689  0.3245 -0.4359
  182POPC    HX20847   6.627   5.158   6.005  1.5285 -2.2326  1.2115
  182POPC    HY20848   6.789   5.130   6.057 -2.4754  0.4750  1.9768
  182POPC   O3120849   6.747   5.092   5.850 -0.1880 -1.2008  0.6481
  182POPC   C3120850   6.793   4.966   5.863  0.0985  0.2550  0.4329
  182POPC   O3220851   6.791   4.906   5.966  0.3842 -0.2293 -0.5954
  182POPC   C3220852   6.825   4.912   5.721 -0.5638 -0.0271 -0.1853
  182POPC   H2X20853   6.885   4.993   5.674 -1.2344  1.5596  1.5534
  182POPC   H2Y20854   6.728   4.900   5.667  1.3905  0.9293 -4.3342
  182POPC   C2320855   6.606   5.656   5.661 -0.0991 -0.0609  0.3847
  182POPC   H3R20856   6.705   5.680   5.615 -0.0312 -0.2545  0.4293
  182POPC   H3S20857   6.585   5.714   5.754 -2.0386 -1.2610  0.7395
  182POPC   C2420858   6.499   5.681   5.557  0.1536  0.4413  0.2118
  182POPC   H4R20859   6.514   5.785   5.520  0.2044  0.1321 -0.6567
  182POPC   H4S20860   6.397   5.668   5.600  0.6341 -1.4541  0.8456
  182POPC   C2520861   6.510   5.589   5.441  0.7211  1.3160 -0.0447
  182POPC   H5R20862   6.470   5.490   5.473  1.0798  0.5139 -1.9773
  182POPC   H5S20863   6.617   5.566   5.420  1.4105  2.7730  1.5540
  182POPC   C2620864   6.435   5.632   5.313  0.8465 -0.1948 -0.1272
  182POPC   H6R20865   6.408   5.739   5.326 -0.1005 -0.6228  1.6558
  182POPC   H6S20866   6.340   5.574   5.308  0.9890 -0.7136  2.2331
  182POPC   C2720867   6.502   5.604   5.176  0.0648  0.0659 -0.1347
  182POPC   H7R20868   6.522   5.495   5.169  1.9920  0.4204 -0.7932
  182POPC   H7S20869   6.601   5.654   5.176 -0.3363  0.9861  2.2547
  182POPC   C2820870   6.416   5.640   5.054  0.7545 -0.3010 -0.0998
  182POPC   H8R20871   6.483   5.628   4.965 -0.5533 -0.4847 -1.0825
  182POPC   H8S20872   6.399   5.749   5.068  2.7265 -0.2506  2.8833
  182POPC   C2920873   6.285   5.568   5.036  0.3691 -0.4190  0.1235
  182POPC   H9120874   6.217   5.584   5.121  1.9417  0.4688  1.2925
  182POPC  C21020875   6.254   5.489   4.932  0.1246 -0.2009  0.7282
  182POPC  H10120876   6.154   5.441   4.927  0.4419 -0.7631 -1.8216
  182POPC  C21120877   6.342   5.464   4.816  0.2993  0.2421  0.2728
  182POPC  H11R20878   6.402   5.371   4.831  0.4280  0.2420 -0.2158
  182POPC  H11S20879   6.407   5.549   4.785 -0.0262 -0.0177 -1.2163
  182POPC  C21220880   6.254   5.426   4.690 -0.0522  0.2325 -0.6337
  182POPC  H12R20881   6.196   5.508   4.642  1.8560  1.3877 -1.0836
  182POPC  H12S20882   6.177   5.355   4.726  0.0812  1.1158  1.5713
  182POPC  C21320883   6.335   5.353   4.583  0.0957  0.4455 -1.4594
  182POPC  H13R20884   6.399   5.281   4.639  0.0936  0.6024 -1.2538
  182POPC  H13S20885   6.401   5.433   4.543  1.1310  0.5334  0.3413
  182POPC  C21420886   6.259   5.303   4.461  0.2218 -0.2453  0.8028
  182POPC  H14R20887   6.186   5.225   4.492  0.6172 -1.4093 -1.0440
  182POPC  H14S20888   6.324   5.244   4.393  0.4414  1.3534 -0.4350
  182POPC  C21520889   6.183   5.406   4.377  0.4216 -0.0378 -0.4383
  182POPC  H15R20890   6.254   5.467   4.317 -0.8993  2.7063  0.5914
  182POPC  H15S20891   6.120   5.472   4.441  0.0490  2.6914 -3.3715
  182POPC  C21620892   6.081   5.341   4.282  0.3312  0.1717  0.0643
  182POPC  H16R20893   6.006   5.412   4.242 -2.4894 -1.9391  1.3086
  182POPC  H16S20894   6.028   5.275   4.354 -2.5757 -1.2794 -3.1367
  182POPC  C21720895   6.139   5.248   4.167  0.9108  0.0747 -0.4933
  182POPC  H17R20896   6.227   5.199   4.213  1.1287 -0.6145 -1.5999
  182POPC  H17S20897   6.160   5.316   4.081 -1.4431 -1.3008 -2.2922
  182POPC  C21820898   6.031   5.152   4.110 -0.5470 -0.7009 -1.4276
  182POPC  H18R20899   6.003   5.069   4.177  1.7311 -1.0982 -0.8946
  182POPC  H18S20900   6.072   5.099   4.021 -0.5115 -0.6468 -1.4433
  182POPC  H18T20901   5.932   5.199   4.088 -1.2177 -1.7250 -0.6472
  182POPC   C3320902   6.899   4.772   5.721 -0.0149  0.0448  0.7812
  182POPC   H3X20903   6.831   4.695   5.763  1.4663 -0.9011  1.5309
  182POPC   H3Y20904   6.980   4.777   5.797  2.8554  0.6890 -2.1424
  182POPC   C3420905   6.958   4.718   5.590  0.0652 -0.8473 -0.2603
  182POPC   H4X20906   7.006   4.812   5.556 -1.7886  1.4324  2.9426
  182POPC   H4Y20907   6.884   4.690   5.512 -0.9427  0.1344  0.3192
  182POPC   C3520908   7.064   4.608   5.620 -0.0559  0.0976 -0.6917
  182POPC   H5X20909   7.101   4.623   5.724 -0.1775  1.0876 -0.7869
  182POPC   H5Y20910   7.145   4.621   5.546 -0.2384  0.3415 -0.8464
  182POPC   C3620911   7.010   4.469   5.598 -0.3947  0.3083  0.5252
  182POPC   H6X20912   6.924   4.466   5.668 -0.7368  0.4843  0.1192
  182POPC   H6Y20913   7.078   4.385   5.622 -1.1181  0.1201  1.9841
  182POPC   C3720914   6.960   4.447   5.457  0.0107 -0.3891  0.3553
  182POPC   H7X20915   6.888   4.523   5.420  0.1871 -0.5639 -0.3725
  182POPC   H7Y20916   6.895   4.359   5.440  0.9400 -0.8102 -1.3492
  182POPC   C3820917   7.077   4.465   5.364 -0.2311  0.2360  0.2087
  182POPC   H8X20918   7.155   4.394   5.398 -1.6066 -1.8502 -0.7767
  182POPC   H8Y20919   7.111   4.570   5.360 -0.2291  0.3197  1.7967
  182POPC   C3920920   7.050   4.412   5.219  0.4077 -0.3104 -0.5019
  182POPC   H9X20921   6.991   4.490   5.166 -0.9111  0.6130  2.1196
  182POPC   H9Y20922   6.979   4.327   5.231 -0.0000  0.0755 -0.1332
  182POPC  C31020923   7.172   4.380   5.139 -0.2441  0.2082  0.1718
  182POPC  H10X20924   7.241   4.309   5.190 -0.0350  0.4725  0.2533
  182POPC  H10Y20925   7.237   4.468   5.118 -2.4450  1.7931 -0.2513
  182POPC  C31120926   7.139   4.326   4.994 -0.5129 -0.2119 -0.0815
  182POPC  H11X20927   7.088   4.228   5.002 -0.2794 -0.3188  0.1359
  182POPC  H11Y20928   7.240   4.307   4.952 -0.8288 -0.3539 -0.7889
  182POPC  C31220929   7.077   4.414   4.884 -0.2687  0.3717  0.1113
  182POPC  H12X20930   7.145   4.497   4.857 -2.4429  2.2989  0.2545
  182POPC  H12Y20931   6.978   4.455   4.912  0.3766  1.5410  0.7260
  182POPC  C31320932   7.057   4.342   4.752  0.6301  0.5651  0.6490
  182POPC  H13X20933   6.951   4.309   4.740  0.9910  0.0563 -1.4587
  182POPC  H13Y20934   7.118   4.251   4.734  0.4376  0.6472 -0.4997
  182POPC  C31420935   7.103   4.436   4.635 -0.5745 -0.1422  0.7880
  182POPC  H14X20936   7.213   4.434   4.625 -0.3638  0.1532  2.7366
  182POPC  H14Y20937   7.075   4.543   4.635  0.2856  0.2387 -2.9765
  182POPC  C31520938   7.050   4.398   4.495 -0.5430  0.3120 -0.3556
  182POPC  H15X20939   6.943   4.379   4.519 -0.0323 -0.0240  1.8284
  182POPC  H15Y20940   7.103   4.302   4.478  0.5054  0.6318  0.9840
  182POPC  C31620941   7.074   4.494   4.381  0.0199  0.0156 -1.1948
  182POPC  H16X20942   7.038   4.597   4.398 -2.1016 -0.8080 -0.3479
  182POPC  H16Y20943   7.030   4.473   4.281 -0.6954 -0.4066 -0.7995
  182POPC  H16Z20944   7.183   4.509   4.366  0.0174 -0.4832 -1.7830
  183POPC     N20945   1.052   4.159   6.551  0.0487 -0.4006  0.7389
  183POPC   C1220946   0.921   4.133   6.470  0.4009 -0.0473  0.6937
  183POPC  H12A20947   0.930   4.047   6.405 -2.7572  1.1809 -1.6186
  183POPC  H12B20948   0.899   4.214   6.401  0.0594 -1.4192 -0.8585
  183POPC   C1320949   1.028   4.247   6.675  0.6947  0.1786  0.2410
  183POPC  H13A20950   1.029   4.353   6.655 -1.9246  0.2569  0.2323
  183POPC  H13B20951   0.938   4.219   6.728  0.7836 -0.8763 -0.1267
  183POPC  H13C20952   1.115   4.234   6.738  0.5240  2.7800  1.1342
  183POPC   C1420953   1.117   4.033   6.590  0.2413  0.0067  0.6100
  183POPC  H14A20954   1.209   4.055   6.642  0.1560 -0.0579  0.7915
  183POPC  H14B20955   1.044   3.990   6.657 -1.8145  1.0528 -0.8616
  183POPC  H14C20956   1.135   3.962   6.511 -0.7156  0.2081  0.1898
  183POPC   C1520957   1.153   4.227   6.466 -0.0874 -0.6198 -0.6724
  183POPC  H15A20958   1.221   4.273   6.536 -2.1010  1.6766 -0.0625
  183POPC  H15B20959   1.114   4.312   6.413 -1.0597 -1.0137 -0.6114
  183POPC  H15C20960   1.194   4.150   6.403  0.6665  0.3100 -1.3421
  183POPC   C1120961   0.799   4.087   6.551 -0.4287 -0.3839  0.9190
  183POPC  H11A20962   0.716   4.108   6.480  1.2132  2.3659 -0.3697
  183POPC  H11B20963   0.779   4.156   6.635 -1.4637 -0.1069  0.4543
  183POPC     P20964   0.818   3.835   6.492 -0.5775 -0.4335  0.4475
  183POPC   O1320965   0.778   3.715   6.562  0.4654 -0.3812  0.3709
  183POPC   O1420966   0.950   3.827   6.437 -0.2680  0.2863 -0.4759
  183POPC   O1220967   0.810   3.947   6.594 -0.3796  0.3518  0.0922
  183POPC   O1120968   0.713   3.873   6.385 -0.9354 -0.2777 -0.0555
  183POPC    C120969   0.621   3.783   6.324 -0.5174 -0.0341 -0.4707
  183POPC    HA20970   0.519   3.789   6.367 -0.2998 -0.5610  0.1409
  183POPC    HB20971   0.654   3.676   6.326  0.3882  0.2379  1.4530
  183POPC    C220972   0.601   3.823   6.174 -0.3175 -0.3747 -0.6387
  183POPC    HS20973   0.528   3.745   6.142 -0.3174  0.2201 -2.1630
  183POPC   O2120974   0.726   3.809   6.110 -0.5946  0.1549 -0.1427
  183POPC   C2120975   0.778   3.692   6.075  0.3509  0.2942  0.2524
  183POPC   O2220976   0.723   3.585   6.092 -0.3322  0.0039 -0.2119
  183POPC   C2220977   0.901   3.699   5.992  0.1359  0.5495  0.6094
  183POPC   H2R20978   0.941   3.603   5.955  2.6294 -0.1035  4.4426
  183POPC   H2S20979   0.983   3.740   6.055  0.6718 -0.0642  0.3178
  183POPC    C320980   0.542   3.966   6.162 -0.6386  0.4402 -0.0087
  183POPC    HX20981   0.607   4.028   6.227  1.5869 -1.2656 -0.4889
  183POPC    HY20982   0.442   3.973   6.211 -0.6162 -3.2094  0.8445
  183POPC   O3120983   0.541   4.017   6.026  0.1811  0.0563 -0.5556
  183POPC   C3120984   0.447   3.970   5.952  0.5573  0.6783  0.1562
  183POPC   O3220985   0.367   3.879   5.978 -0.7004  0.0922 -0.2770
  183POPC   C3220986   0.451   4.056   5.824  0.1648  0.1105 -0.6639
  183POPC   H2X20987   0.558   4.085   5.813  0.3118 -0.0122  0.2929
  183POPC   H2Y20988   0.388   4.140   5.860  1.4130  0.9058 -0.2524
  183POPC   C2320989   0.883   3.800   5.872  0.1320 -0.5535 -0.2670
  183POPC   H3R20990   0.988   3.821   5.843 -0.0549 -0.3295 -0.8209
  183POPC   H3S20991   0.836   3.889   5.920  2.9892 -0.0743  1.8826
  183POPC   C2420992   0.809   3.745   5.753 -0.5000  0.2523  0.6808
  183POPC   H4R20993   0.777   3.839   5.703  0.7737  1.1433  1.4622
  183POPC   H4S20994   0.719   3.689   5.786 -0.1515  0.4417  2.0100
  183POPC   C2520995   0.902   3.665   5.666 -0.3912  0.1207  1.0491
  183POPC   H5R20996   0.948   3.581   5.723  0.5261 -1.8213 -2.2349
  183POPC   H5S20997   0.998   3.717   5.645  0.3997 -0.7465  2.3737
  183POPC   C2620998   0.831   3.602   5.552 -0.0507  0.0842  0.3884
  183POPC   H6R20999   0.725   3.583   5.579 -0.6887 -0.8070 -2.4240
  183POPC   H6S21000   0.885   3.512   5.519 -0.8629  0.4699 -2.2464
  183POPC   C2721001   0.811   3.691   5.428  0.3256  0.2093 -0.2500
  183POPC   H7R21002   0.914   3.726   5.405  0.3282  0.8174  0.6204
  183POPC   H7S21003   0.748   3.776   5.460  1.0722  1.1600 -1.2228
  183POPC   C2821004   0.762   3.618   5.299  0.2002  0.3065  0.3005
  183POPC   H8R21005   0.743   3.685   5.212 -0.8685 -0.8837 -0.4147
  183POPC   H8S21006   0.666   3.566   5.321  1.3122 -2.2132 -0.4939
  183POPC   C2921007   0.860   3.516   5.260 -0.2511  0.0288  0.0255
  183POPC   H9121008   0.957   3.510   5.312  0.6920 -0.8126 -1.7611
  183POPC  C21021009   0.839   3.408   5.178  0.2180 -0.3395 -0.0901
  183POPC  H10121010   0.918   3.333   5.160  0.4789 -0.6152  1.9320
  183POPC  C21121011   0.703   3.390   5.112 -0.3381  0.1744  0.0724
  183POPC  H11R21012   0.662   3.491   5.089  1.9496  1.2820  0.6276
  183POPC  H11S21013   0.626   3.340   5.174  1.1988 -1.8903  0.4428
  183POPC  C21221014   0.713   3.311   4.976 -1.0638 -0.0511  0.0147
  183POPC  H12R21015   0.609   3.312   4.936 -1.5669  1.0059  1.2312
  183POPC  H12S21016   0.749   3.208   4.993 -1.4172 -0.0260  0.9913
  183POPC  C21321017   0.816   3.379   4.875  0.1887  0.6373  0.7872
  183POPC  H13R21018   0.910   3.409   4.924  0.7492 -0.4454  0.4082
  183POPC  H13S21019   0.768   3.474   4.842 -1.9743  0.5186  3.2462
  183POPC  C21421020   0.841   3.282   4.759 -0.6739  0.0625 -0.2516
  183POPC  H14R21021   0.745   3.234   4.728  0.6587 -2.4533 -0.7487
  183POPC  H14S21022   0.893   3.195   4.804 -3.2367 -1.0316  0.8108
  183POPC  C21521023   0.911   3.329   4.633 -0.1571 -0.1042  0.0972
  183POPC  H15R21024   0.998   3.392   4.662  0.5452 -0.6298 -0.7880
  183POPC  H15S21025   0.852   3.396   4.567 -0.5929  0.4420  1.0232
  183POPC  C21621026   0.946   3.206   4.548  0.5595  0.3080 -0.0275
  183POPC  H16R21027   0.853   3.150   4.525 -0.3116  1.9755 -0.7523
  183POPC  H16S21028   1.011   3.145   4.614  0.6421 -0.2903 -0.6611
  183POPC  C21721029   1.013   3.241   4.412  0.3859  0.2031 -0.0031
  183POPC  H17R21030   1.090   3.317   4.437 -1.0491  2.2287 -1.4871
  183POPC  H17S21031   0.947   3.286   4.335 -0.0977 -2.4503 -1.2532
  183POPC  C21821032   1.073   3.117   4.360 -0.1842 -0.3017 -0.3265
  183POPC  H18R21033   1.107   3.120   4.254  2.1822 -1.0885  0.3347
  183POPC  H18S21034   0.991   3.043   4.364  0.9759 -1.6030  0.4792
  183POPC  H18T21035   1.152   3.069   4.421 -0.6904  2.0184  2.3171
  183POPC   C3321036   0.395   3.998   5.693 -0.7479  0.1111  0.3315
  183POPC   H3X21037   0.291   3.959   5.696 -0.7991  0.1988 -0.1843
  183POPC   H3Y21038   0.454   3.911   5.656 -1.3806  0.1632 -0.8302
  183POPC   C3421039   0.376   4.112   5.587  0.5417  0.5160 -0.5731
  183POPC   H4X21040   0.460   4.186   5.583  1.5863 -0.6758 -1.6295
  183POPC   H4Y21041   0.290   4.173   5.621  0.6799  1.3671 -1.6694
  183POPC   C3521042   0.355   4.073   5.441 -0.1394  0.1309  0.3683
  183POPC   H5X21043   0.316   4.159   5.382  0.7291  0.0670 -0.3087
  183POPC   H5Y21044   0.265   4.008   5.437  0.4362 -0.7013  0.6732
  183POPC   C3621045   0.469   4.017   5.364  0.1467 -0.0485 -1.1006
  183POPC   H6X21046   0.495   3.924   5.418 -2.4452 -0.5458 -0.5591
  183POPC   H6Y21047   0.550   4.093   5.368  1.1408 -1.0619 -1.4374
  183POPC   C3721048   0.432   3.984   5.221  0.1805  0.2116 -0.6391
  183POPC   H7X21049   0.442   4.076   5.161  1.2534 -0.2485 -1.1948
  183POPC   H7Y21050   0.339   3.926   5.200  1.0040 -0.0627 -4.2437
  183POPC   C3821051   0.535   3.871   5.171 -0.7732 -0.0043  1.2668
  183POPC   H8X21052   0.526   3.776   5.228  0.7153 -0.8752  0.1060
  183POPC   H8Y21053   0.636   3.917   5.172 -0.8550  0.2623 -0.1229
  183POPC   C3921054   0.509   3.824   5.026  0.5060  0.2113  0.1006
  183POPC   H9X21055   0.460   3.907   4.970 -0.3133 -0.5165 -0.2778
  183POPC   H9Y21056   0.447   3.732   5.018  2.3647 -0.9445 -2.0798
  183POPC  C31021057   0.642   3.799   4.948  0.5950 -0.2166  0.0754
  183POPC  H10X21058   0.700   3.722   5.002 -0.3643  0.0521  1.5297
  183POPC  H10Y21059   0.690   3.899   4.956 -1.4972  0.9984 -1.3903
  183POPC  C31121060   0.606   3.760   4.804  0.2828 -0.1018 -0.2726
  183POPC  H11X21061   0.544   3.843   4.762  0.0633  0.5770  1.2962
  183POPC  H11Y21062   0.551   3.663   4.806 -0.0023  0.0648  0.2306
  183POPC  C31221063   0.725   3.744   4.709  0.9121 -0.4116  0.5368
  183POPC  H12X21064   0.801   3.669   4.740  1.2609 -0.8261 -1.1949
  183POPC  H12Y21065   0.775   3.843   4.704  0.9649 -0.3936  1.2605
  183POPC  C31321066   0.653   3.709   4.576 -0.0542 -0.1282 -0.1306
  183POPC  H13X21067   0.582   3.789   4.546  0.3069 -0.9800 -3.7352
  183POPC  H13Y21068   0.580   3.628   4.599  0.2470 -0.6197 -0.8731
  183POPC  C31421069   0.753   3.665   4.469 -0.8129  0.3965  0.6173
  183POPC  H14X21070   0.828   3.598   4.516  1.3031  0.8676 -1.8554
  183POPC  H14Y21071   0.817   3.751   4.438  0.2359 -1.2832 -2.2568
  183POPC  C31521072   0.686   3.603   4.342  0.2262 -0.3209 -0.0589
  183POPC  H15X21073   0.621   3.684   4.303 -2.0914 -0.9500  2.2086
  183POPC  H15Y21074   0.625   3.513   4.366 -0.9685  0.1547 -1.2477
  183POPC  C31621075   0.784   3.562   4.235 -0.1802  0.9167 -0.3970
  183POPC  H16X21076   0.722   3.546   4.144 -0.3994 -0.1796 -0.0782
  183POPC  H16Y21077   0.832   3.468   4.270 -1.0158  0.7483  0.3300
  183POPC  H16Z21078   0.865   3.636   4.219 -0.1089  0.7494 -0.8274
  184POPC     N21079   1.524   5.559   6.328 -0.0439  0.7947  0.4162
  184POPC   C1221080   1.549   5.657   6.215 -0.0392  0.0010  0.1870
  184POPC  H12A21081   1.457   5.691   6.170  0.6777  0.1338 -1.2329
  184POPC  H12B21082   1.600   5.613   6.131  0.8679  0.5003  0.4602
  184POPC   C1321083   1.473   5.635   6.439  0.3180 -0.5262 -0.8989
  184POPC  H13A21084   1.410   5.575   6.503 -0.9152 -0.8493 -2.3640
  184POPC  H13B21085   1.553   5.688   6.489 -0.4485  0.9336 -1.1611
  184POPC  H13C21086   1.407   5.714   6.405  0.2947 -0.7184 -1.3057
  184POPC   C1421087   1.414   5.460   6.281  0.1799  0.3092 -0.1931
  184POPC  H14A21088   1.441   5.410   6.189 -2.8951  1.9316 -2.1358
  184POPC  H14B21089   1.398   5.383   6.355 -3.3273 -0.4135 -1.5032
  184POPC  H14C21090   1.323   5.516   6.269  1.2741  1.8368 -2.0203
  184POPC   C1521091   1.647   5.479   6.367 -0.1388  0.3077 -0.4286
  184POPC  H15A21092   1.650   5.443   6.469 -1.4645 -0.1255 -0.5353
  184POPC  H15B21093   1.725   5.554   6.360  0.1756 -0.1043 -1.4136
  184POPC  H15C21094   1.663   5.393   6.304  0.5239 -0.4001  0.6587
  184POPC   C1121095   1.635   5.775   6.247  0.3155 -0.5202 -0.6705
  184POPC  H11A21096   1.599   5.835   6.334  1.8995 -0.1357 -0.2394
  184POPC  H11B21097   1.614   5.860   6.178  0.7836  0.2151  0.0588
  184POPC     P21098   1.868   5.738   6.137  0.5836 -0.5325 -0.1374
  184POPC   O1321099   1.959   5.625   6.150  0.3735  0.6031 -0.0682
  184POPC   O1421100   1.934   5.874   6.121  0.1058 -0.1025 -0.3778
  184POPC   O1221101   1.768   5.737   6.259  0.2672  0.3741 -0.3288
  184POPC   O1121102   1.767   5.712   6.021  0.5041 -0.1125  0.1952
  184POPC    C121103   1.769   5.587   5.950  0.5648 -0.2418  0.0655
  184POPC    HA21104   1.667   5.574   5.908 -0.3576  1.2199  1.7313
  184POPC    HB21105   1.781   5.498   6.016  0.6090 -0.4300 -0.1918
  184POPC    C221106   1.874   5.587   5.833  0.4375 -0.1102  0.2189
  184POPC    HS21107   1.972   5.581   5.885  0.9829 -0.1762 -0.7971
  184POPC   O2121108   1.872   5.706   5.760 -0.8754 -0.3045 -0.4211
  184POPC   C2121109   1.961   5.731   5.663  0.0218  0.5675 -0.4420
  184POPC   O2221110   2.076   5.685   5.654  0.0865  0.0321  0.0345
  184POPC   C2221111   1.881   5.814   5.562  0.0204  0.0666  0.2267
  184POPC   H2R21112   1.778   5.773   5.559  0.4730 -1.0745 -0.1698
  184POPC   H2S21113   1.927   5.791   5.464 -0.8538 -1.2816  0.1092
  184POPC    C321114   1.873   5.464   5.737 -0.2527 -0.0566 -0.2297
  184POPC    HX21115   1.852   5.376   5.801 -1.3351  0.3703  0.0216
  184POPC    HY21116   1.967   5.446   5.680 -1.1579  0.6368 -2.0463
  184POPC   O3121117   1.775   5.495   5.646 -0.4479 -0.0811 -0.1390
  184POPC   C3121118   1.652   5.437   5.643  0.0889 -0.8545  0.1410
  184POPC   O3221119   1.614   5.339   5.704  0.1658  0.4401  0.2476
  184POPC   C3221120   1.569   5.527   5.544 -0.5964  0.5416 -0.2103
  184POPC   H2X21121   1.593   5.635   5.550 -0.6755  0.5705 -0.3986
  184POPC   H2Y21122   1.463   5.516   5.579 -1.0608 -0.0067 -1.7210
  184POPC   C2321123   1.870   5.968   5.587  0.2215  0.9971 -0.4988
  184POPC   H3R21124   1.971   6.013   5.573  0.5775 -0.1186 -1.7316
  184POPC   H3S21125   1.859   5.979   5.697 -1.1652 -0.7284 -0.4310
  184POPC   C2421126   1.764   6.035   5.501  0.2845  0.3937  0.4124
  184POPC   H4R21127   1.765   6.143   5.528  0.1178  0.6885 -0.7145
  184POPC   H4S21128   1.661   5.994   5.514  0.0267  0.0834 -2.0912
  184POPC   C2521129   1.806   6.017   5.356 -0.5742  0.1698  0.4269
  184POPC   H5R21130   1.792   5.910   5.328  2.9574 -0.1307 -0.6882
  184POPC   H5S21131   1.916   6.027   5.346 -0.5795 -1.1508 -1.5639
  184POPC   C2621132   1.735   6.116   5.253  0.0406  0.3299  0.8966
  184POPC   H6R21133   1.780   6.218   5.257  0.9567 -0.0532  0.4788
  184POPC   H6S21134   1.624   6.119   5.260 -0.3489 -1.9966 -2.3107
  184POPC   C2721135   1.750   6.062   5.106  0.2755  0.2705  0.0537
  184POPC   H7R21136   1.857   6.030   5.105  0.4439  0.7787  0.7178
  184POPC   H7S21137   1.743   6.144   5.031 -1.1430 -0.3677 -0.5335
  184POPC   C2821138   1.662   5.944   5.076 -0.0485 -0.1108 -0.0336
  184POPC   H8R21139   1.655   5.880   5.166  1.0843 -1.6898 -1.0009
  184POPC   H8S21140   1.708   5.887   4.992  0.9958 -0.2070  0.5918
  184POPC   C2921141   1.532   5.996   5.033  0.8045 -0.1930  0.0712
  184POPC   H9121142   1.462   6.012   5.116 -0.0672 -3.2377  0.0274
  184POPC  C21021143   1.493   6.010   4.904  0.3968 -0.1240  0.1827
  184POPC  H10121144   1.387   6.027   4.880  0.7877  1.3220 -0.6577
  184POPC  C21121145   1.573   5.991   4.782 -0.4345  0.0650 -0.8811
  184POPC  H11R21146   1.680   5.967   4.801 -0.6532 -0.2235  0.0297
  184POPC  H11S21147   1.565   6.092   4.737 -1.4684  1.0811  1.4360
  184POPC  C21221148   1.512   5.892   4.683  0.0052  0.8494 -0.4585
  184POPC  H12R21149   1.411   5.920   4.647 -1.2731 -0.9354  1.5369
  184POPC  H12S21150   1.502   5.794   4.734  2.1688  0.8606  0.0728
  184POPC  C21321151   1.596   5.864   4.555  0.2868 -0.5025  0.5638
  184POPC  H13R21152   1.559   5.768   4.513 -0.2996 -0.7106  1.5217
  184POPC  H13S21153   1.698   5.853   4.597  0.8706  1.8985 -0.0928
  184POPC  C21421154   1.582   5.980   4.453  0.3539 -0.3329  0.5646
  184POPC  H14R21155   1.674   5.981   4.391 -1.0135  0.3104 -1.5235
  184POPC  H14S21156   1.556   6.074   4.507 -0.1311 -0.7892  1.1548
  184POPC  C21521157   1.466   5.959   4.359 -0.8177  0.0531 -0.0877
  184POPC  H15R21158   1.372   5.975   4.415 -0.0825  2.9572  0.4790
  184POPC  H15S21159   1.474   5.858   4.312  0.1920  0.9171 -1.8454
  184POPC  C21621160   1.463   6.063   4.252 -0.2003  0.0464  0.2015
  184POPC  H16R21161   1.565   6.069   4.210  0.0976  0.2003  0.9227
  184POPC  H16S21162   1.448   6.166   4.291  0.4029  0.9125 -1.7797
  184POPC  C21721163   1.363   6.023   4.141  0.0157  0.2588 -0.2323
  184POPC  H17R21164   1.256   6.015   4.168  0.1648 -0.9959  0.0390
  184POPC  H17S21165   1.390   5.925   4.095  1.7656  0.8435 -0.5502
  184POPC  C21821166   1.361   6.112   4.014 -0.7162 -0.2926  0.8893
  184POPC  H18R21167   1.460   6.094   3.967  0.0032  0.2138  2.1615
  184POPC  H18S21168   1.357   6.217   4.049 -0.4390  0.7235 -1.8832
  184POPC  H18T21169   1.274   6.091   3.949  0.6895 -1.1118 -0.8164
  184POPC   C3321170   1.562   5.482   5.396  0.4647 -0.2672 -0.0383
  184POPC   H3X21171   1.484   5.543   5.346 -1.9488 -1.2479  2.2893
  184POPC   H3Y21172   1.531   5.376   5.387 -0.5064 -0.2562  2.3252
  184POPC   C3421173   1.701   5.521   5.330 -0.0032 -0.1602  0.5827
  184POPC   H4X21174   1.785   5.467   5.379  2.7906  0.9306 -2.6254
  184POPC   H4Y21175   1.716   5.630   5.343 -2.1009  0.2572 -0.0547
  184POPC   C3521176   1.708   5.504   5.178  0.6134  0.2739  0.0029
  184POPC   H5X21177   1.699   5.395   5.163  0.6177  0.3339 -0.4609
  184POPC   H5Y21178   1.801   5.547   5.133  0.6191  0.5224  0.2481
  184POPC   C3621179   1.603   5.572   5.095 -0.1533 -0.4368 -0.4764
  184POPC   H6X21180   1.631   5.671   5.052  1.9120 -0.4676  0.6721
  184POPC   H6Y21181   1.517   5.580   5.164  0.1647 -3.3089  0.3725
  184POPC   C3721182   1.558   5.485   4.977  0.1992 -0.3293 -0.6254
  184POPC   H7X21183   1.463   5.531   4.940 -0.9184 -0.2618  2.0678
  184POPC   H7Y21184   1.538   5.379   5.004  0.9072 -0.7656 -1.7576
  184POPC   C3821185   1.670   5.481   4.875 -0.1545  0.6936  0.1129
  184POPC   H8X21186   1.770   5.440   4.902 -0.5336  0.4181  1.1295
  184POPC   H8Y21187   1.680   5.585   4.839 -1.1887  0.4875 -0.8238
  184POPC   C3921188   1.614   5.407   4.748 -0.4605  0.3095  0.0207
  184POPC   H9X21189   1.519   5.456   4.716 -0.8335  1.0058  2.0947
  184POPC   H9Y21190   1.591   5.300   4.767 -1.2481  0.3110 -0.8271
  184POPC  C31021191   1.710   5.419   4.627  0.2607  0.2168 -0.2687
  184POPC  H10X21192   1.799   5.362   4.660 -0.2818  0.5338  1.8809
  184POPC  H10Y21193   1.732   5.526   4.607 -1.3683  0.8809  1.2473
  184POPC  C31121194   1.641   5.362   4.502 -0.3810  0.9934  0.0073
  184POPC  H11X21195   1.547   5.416   4.479 -0.6385  1.2450  1.5820
  184POPC  H11Y21196   1.594   5.267   4.534 -0.7060  1.5510  1.2173
  184POPC  C31221197   1.719   5.365   4.361  0.0661  0.0695  0.1868
  184POPC  H12X21198   1.816   5.314   4.380 -0.7523 -1.5517  0.1384
  184POPC  H12Y21199   1.742   5.472   4.344  0.0303  0.0760  0.1813
  184POPC  C31321200   1.631   5.314   4.244 -0.4854  0.2412 -0.1814
  184POPC  H13X21201   1.527   5.347   4.265 -1.3141 -1.3204 -1.6212
  184POPC  H13Y21202   1.625   5.204   4.260 -0.2659  0.1159 -0.9473
  184POPC  C31421203   1.664   5.349   4.105  0.4857 -0.0908  0.2315
  184POPC  H14X21204   1.644   5.455   4.080  3.3631  0.3353 -0.7326
  184POPC  H14Y21205   1.603   5.296   4.028 -0.4315  1.0120  0.1841
  184POPC  C31521206   1.805   5.336   4.047 -0.2502  0.6228 -0.1220
  184POPC  H15X21207   1.830   5.229   4.059 -0.6878  0.5049 -0.2544
  184POPC  H15Y21208   1.874   5.395   4.112  0.3410 -2.6712  2.4959
  184POPC  C31621209   1.830   5.359   3.903  0.1338  0.4723  0.1548
  184POPC  H16X21210   1.936   5.342   3.874  0.9926  4.5557  0.1887
  184POPC  H16Y21211   1.814   5.466   3.875 -0.6480  0.6863  1.3608
  184POPC  H16Z21212   1.762   5.299   3.840  0.1737  0.1690  0.4003
  185POPC     N21213   6.687   3.292   1.919  0.7046  0.0822 -0.0477
  185POPC   C1221214   6.742   3.216   2.038 -0.1914 -0.3313 -0.1760
  185POPC  H12A21215   6.720   3.281   2.121 -1.0629 -0.3040 -0.4231
  185POPC  H12B21216   6.850   3.211   2.035 -0.2017 -1.0618  0.1952
  185POPC   C1321217   6.730   3.236   1.787 -0.0680  0.3624  0.4646
  185POPC  H13A21218   6.837   3.246   1.781  0.1583 -1.8665 -0.1129
  185POPC  H13B21219   6.702   3.132   1.786 -1.8864  0.8156  0.5871
  185POPC  H13C21220   6.683   3.280   1.700 -1.3221 -1.4026  0.1956
  185POPC   C1421221   6.533   3.292   1.919 -0.2047  0.4543 -0.3643
  185POPC  H14A21222   6.493   3.326   2.014  3.5041  1.1553  1.1018
  185POPC  H14B21223   6.492   3.341   1.832 -0.8094  0.1998 -0.2296
  185POPC  H14C21224   6.509   3.187   1.914  0.3850  0.3502 -1.1440
  185POPC   C1521225   6.728   3.434   1.937  0.3310 -0.1504  0.4749
  185POPC  H15A21226   6.716   3.465   2.040  3.3664 -0.8580  1.1404
  185POPC  H15B21227   6.674   3.496   1.868  0.3352  1.1308  1.5784
  185POPC  H15C21228   6.832   3.456   1.917 -0.1560  1.1967 -0.7273
  185POPC   C1121229   6.683   3.070   2.067  0.1000 -0.0903  0.1050
  185POPC  H11A21230   6.580   3.090   2.104  0.7776  3.2365  0.5262
  185POPC  H11B21231   6.742   3.022   2.148 -0.7495 -1.8964 -0.3109
  185POPC     P21232   6.597   2.878   1.927 -0.2844 -0.3851 -0.0604
  185POPC   O1321233   6.666   2.774   1.841  0.5735  0.1412  0.6674
  185POPC   O1421234   6.472   2.943   1.877 -0.1473 -0.3351  0.4245
  185POPC   O1221235   6.694   2.995   1.947  0.4008 -0.2328 -0.2920
  185POPC   O1121236   6.565   2.818   2.074  0.3126  0.4254 -0.0609
  185POPC    C121237   6.429   2.783   2.092 -0.3218 -0.0345 -0.3128
  185POPC    HA21238   6.399   2.692   2.037 -0.1812  0.6454 -1.5500
  185POPC    HB21239   6.360   2.865   2.061  2.9248  2.5070 -1.4118
  185POPC    C221240   6.397   2.756   2.236 -0.4612 -0.2551  0.4089
  185POPC    HS21241   6.287   2.744   2.241 -0.5189  0.7635  2.3399
  185POPC   O2121242   6.449   2.865   2.321 -0.0258  0.2890 -0.0742
  185POPC   C2121243   6.381   2.977   2.316  0.6531  0.2920  0.1017
  185POPC   O2221244   6.290   3.004   2.238 -0.1865  0.2223 -0.1176
  185POPC   C2221245   6.450   3.071   2.410 -0.1438 -0.7145 -0.4397
  185POPC   H2R21246   6.431   3.175   2.377 -0.7092 -0.8859 -0.6688
  185POPC   H2S21247   6.560   3.059   2.418 -0.3729 -2.5646  0.6575
  185POPC    C321248   6.466   2.618   2.283 -0.1814 -0.2563 -0.5858
  185POPC    HX21249   6.572   2.622   2.251  0.3615 -0.4754  1.0942
  185POPC    HY21250   6.433   2.523   2.237  0.1793 -0.5596 -0.2218
  185POPC   O3121251   6.466   2.610   2.431  0.0769 -0.2249 -0.3377
  185POPC   C3121252   6.567   2.545   2.489 -0.2948  0.2904 -0.1474
  185POPC   O3221253   6.664   2.495   2.434 -0.3570 -0.1497 -0.1207
  185POPC   C3221254   6.550   2.569   2.640 -0.0608 -0.8968  0.4378
  185POPC   H2X21255   6.462   2.512   2.676 -2.3303  2.1721  0.1269
  185POPC   H2Y21256   6.534   2.677   2.658  2.8791 -0.6606  2.2121
  185POPC   C2321257   6.395   3.047   2.553  0.1588  0.0748 -0.9141
  185POPC   H3R21258   6.428   2.944   2.580 -0.4986  0.4750  1.7760
  185POPC   H3S21259   6.285   3.049   2.564  0.1318  0.3132 -1.2285
  185POPC   C2421260   6.448   3.140   2.666 -0.0147  0.0075  0.5105
  185POPC   H4R21261   6.381   3.136   2.754  1.9596 -0.3363  2.0503
  185POPC   H4S21262   6.444   3.243   2.624 -0.3900 -0.2591 -0.1317
  185POPC   C2521263   6.593   3.105   2.704 -0.4856  0.1151  0.1527
  185POPC   H5R21264   6.654   3.113   2.611  1.2720 -1.2511  1.1143
  185POPC   H5S21265   6.621   3.002   2.738 -0.9512  0.0656  0.3950
  185POPC   C2621266   6.641   3.202   2.813  0.4881  0.5061  0.1802
  185POPC   H6R21267   6.555   3.215   2.883 -1.6934 -2.3838 -1.6950
  185POPC   H6S21268   6.653   3.299   2.760  0.1844  0.5271  0.1458
  185POPC   C2721269   6.771   3.177   2.893 -0.2820 -0.0111 -0.6597
  185POPC   H7R21270   6.791   3.265   2.958 -3.6047  1.7224 -1.7610
  185POPC   H7S21271   6.857   3.176   2.823  1.4170  2.4502  1.2340
  185POPC   C2821272   6.771   3.047   2.981  0.4835 -1.1647  1.0613
  185POPC   H8R21273   6.867   3.032   3.035  2.0273 -1.3850 -1.5583
  185POPC   H8S21274   6.776   2.963   2.908  2.5978 -0.0654 -0.1766
  185POPC   C2921275   6.645   3.041   3.067 -0.5924 -0.6038 -0.1712
  185POPC   H9121276   6.561   2.980   3.032 -0.7540  0.6452 -2.0940
  185POPC  C21021277   6.630   3.099   3.194 -0.6280  0.6363  0.2943
  185POPC  H10121278   6.534   3.126   3.240 -0.0780  2.0776  0.6721
  185POPC  C21121279   6.736   3.189   3.253 -0.2492 -0.0389 -0.4306
  185POPC  H11R21280   6.708   3.296   3.250  0.0893  0.2258  2.7907
  185POPC  H11S21281   6.832   3.173   3.199 -0.8452  1.4272 -2.0139
  185POPC  C21221282   6.764   3.172   3.403  0.4711 -0.6241  0.0858
  185POPC  H12R21283   6.695   3.102   3.455 -0.2089  0.9143  1.3388
  185POPC  H12S21284   6.755   3.269   3.456  1.1758 -1.3211  1.5452
  185POPC  C21321285   6.908   3.121   3.428 -0.4517 -0.8863  0.9431
  185POPC  H13R21286   6.991   3.189   3.400 -1.0168 -0.4529  0.2944
  185POPC  H13S21287   6.909   3.024   3.374 -2.2241 -1.0417  1.1042
  185POPC  C21421288   6.926   3.098   3.583  0.1766 -0.8806  0.2355
  185POPC  H14R21289   6.865   3.010   3.614 -1.3236 -0.0365 -0.2249
  185POPC  H14S21290   6.893   3.193   3.629 -0.4551  0.0585 -2.0068
  185POPC  C21521291   7.074   3.092   3.624  0.1773  0.9095 -0.0443
  185POPC  H15R21292   7.124   3.181   3.581  1.4675  0.7893  1.1483
  185POPC  H15S21293   7.108   2.997   3.579  1.8565  0.0694  2.7883
  185POPC  C21621294   7.106   3.111   3.776 -0.1549  0.0284  0.2346
  185POPC  H16R21295   7.081   3.218   3.795  0.4369  0.3297 -0.6498
  185POPC  H16S21296   7.214   3.105   3.801  0.0107  0.4340 -0.3830
  185POPC  C21721297   7.020   3.026   3.877  0.0696  0.1851  0.5152
  185POPC  H17R21298   7.034   2.916   3.868  0.0124  0.1564  0.7697
  185POPC  H17S21299   6.916   3.052   3.847 -0.4128 -0.7876  1.2698
  185POPC  C21821300   7.034   3.062   4.031 -0.2485 -0.0236  0.8436
  185POPC  H18R21301   7.136   3.048   4.073  0.2159 -2.3912 -0.9083
  185POPC  H18S21302   6.960   2.998   4.084 -0.5492  0.7537  1.3737
  185POPC  H18T21303   7.019   3.172   4.031  1.6964  0.3158 -1.2847
  185POPC   C3321304   6.672   2.535   2.729 -0.0134 -0.0224 -0.4880
  185POPC   H3X21305   6.771   2.562   2.688 -0.4801 -0.9322 -2.3019
  185POPC   H3Y21306   6.685   2.426   2.715 -1.3193 -0.5061  1.5105
  185POPC   C3421307   6.665   2.581   2.873  0.1889 -0.2634 -0.5556
  185POPC   H4X21308   6.686   2.690   2.874  0.1852 -0.2682  0.6114
  185POPC   H4Y21309   6.757   2.534   2.915  0.1512  1.3472  1.4786
  185POPC   C3521310   6.544   2.538   2.959 -0.2646  0.5457  0.4881
  185POPC   H5X21311   6.563   2.430   2.979 -0.5132  0.8603  2.6596
  185POPC   H5Y21312   6.444   2.545   2.911 -0.6620 -1.7588  0.8629
  185POPC   C3621313   6.538   2.607   3.102 -0.0724  0.2432  0.3441
  185POPC   H6X21314   6.459   2.558   3.162 -0.8679  1.8328  0.6467
  185POPC   H6Y21315   6.497   2.709   3.084 -3.3979 -1.3808 -2.5349
  185POPC   C3721316   6.669   2.608   3.183  0.0883 -0.4535  0.5793
  185POPC   H7X21317   6.731   2.685   3.132 -0.8464  0.9367  1.4808
  185POPC   H7Y21318   6.720   2.509   3.183 -0.3986 -0.7101  0.9144
  185POPC   C3821319   6.636   2.669   3.323 -0.9056  0.1774  0.1691
  185POPC   H8X21320   6.556   2.744   3.310 -2.1438 -1.3700 -1.7758
  185POPC   H8Y21321   6.729   2.717   3.359  1.1891 -2.6600 -1.0396
  185POPC   C3921322   6.575   2.573   3.429 -0.7122  0.1565 -0.5006
  185POPC   H9X21323   6.643   2.493   3.467  0.6282  1.2270 -0.5604
  185POPC   H9Y21324   6.489   2.523   3.380 -2.0503  2.6078 -0.8185
  185POPC  C31021325   6.516   2.643   3.554  0.4124 -0.1892 -0.1982
  185POPC  H10X21326   6.451   2.571   3.608  0.6117 -0.4393 -0.2902
  185POPC  H10Y21327   6.458   2.733   3.524  1.9636 -0.1441 -3.6942
  185POPC  C31121328   6.620   2.677   3.661  0.5529 -0.5615  0.1325
  185POPC  H11X21329   6.694   2.747   3.617 -0.2526  0.3014  0.1034
  185POPC  H11Y21330   6.664   2.581   3.696 -1.4894 -0.8721  2.1224
  185POPC  C31221331   6.565   2.747   3.787  0.0198 -0.4044 -0.4977
  185POPC  H12X21332   6.504   2.668   3.836  2.4327 -0.9931  1.7955
  185POPC  H12Y21333   6.497   2.832   3.766 -1.4035 -0.6990  2.3966
  185POPC  C31321334   6.673   2.777   3.889 -1.0800 -0.8960 -0.1653
  185POPC  H13X21335   6.652   2.864   3.954 -2.2522 -1.0210 -0.3604
  185POPC  H13Y21336   6.767   2.804   3.834 -1.2172  0.4421  0.2182
  185POPC  C31421337   6.711   2.653   3.968  0.4740  0.2633 -0.1829
  185POPC  H14X21338   6.697   2.559   3.909 -0.5324  0.3878 -0.1517
  185POPC  H14Y21339   6.648   2.640   4.058  0.9721  0.3227  0.1818
  185POPC  C31521340   6.856   2.653   4.016  0.1713 -1.0294 -0.1012
  185POPC  H15X21341   6.883   2.744   4.074  1.0527 -0.9245 -0.6586
  185POPC  H15Y21342   6.915   2.658   3.922  1.4124 -0.5732  0.6863
  185POPC  C31621343   6.895   2.534   4.095  0.0594  0.1480 -0.2667
  185POPC  H16X21344   7.005   2.523   4.106 -0.2648 -2.0784  1.7380
  185POPC  H16Y21345   6.872   2.443   4.036 -1.2307 -1.9508  3.1230
  185POPC  H16Z21346   6.846   2.533   4.195  0.5413  0.4292 -0.0214
  186POPC     N21347   0.211   0.780   1.587  0.1508  0.2418  0.3858
  186POPC   C1221348   0.289   0.713   1.709  1.1352 -0.0104  0.2510
  186POPC  H12A21349   0.277   0.607   1.693 -0.2728 -0.0224  1.2163
  186POPC  H12B21350   0.224   0.733   1.793 -2.8823 -2.0936 -2.0324
  186POPC   C1321351   0.085   0.703   1.561  0.2998  0.5050  0.7142
  186POPC  H13A21352   0.108   0.606   1.520  2.1514  1.1733  0.0494
  186POPC  H13B21353   0.027   0.683   1.649  0.5219 -0.3536  0.6738
  186POPC  H13C21354   0.031   0.752   1.482 -2.7321 -0.5093  2.0138
  186POPC   C1421355   0.187   0.927   1.611  0.5039  0.3176  0.3831
  186POPC  H14A21356   0.121   0.948   1.694  0.5032  1.5099  0.0994
  186POPC  H14B21357   0.276   0.988   1.620 -0.0220  1.1252  0.1220
  186POPC  H14C21358   0.129   0.964   1.528 -0.4606  1.7531  1.6486
  186POPC   C1521359   0.298   0.769   1.461 -0.4095 -0.3561  0.4565
  186POPC  H15A21360   0.290   0.674   1.410 -0.0125  0.9221 -2.1776
  186POPC  H15B21361   0.401   0.787   1.489 -1.0644  1.7092  1.7374
  186POPC  H15C21362   0.270   0.850   1.395 -0.9357  0.6073  1.8272
  186POPC   C1121363   0.429   0.768   1.750 -0.4769  0.1099  0.5034
  186POPC  H11A21364   0.450   0.715   1.845 -1.6735  0.1132  0.7930
  186POPC  H11B21365   0.418   0.878   1.757  1.6568  0.5618 -1.6636
  186POPC     P21366   0.656   0.826   1.640  0.1965  0.1621  0.3674
  186POPC   O1321367   0.620   0.962   1.584 -0.5296  0.4563 -0.4607
  186POPC   O1421368   0.761   0.750   1.570  0.3827 -0.0035  0.0211
  186POPC   O1221369   0.524   0.733   1.650 -0.6011  0.0162 -0.0215
  186POPC   O1121370   0.701   0.858   1.792 -0.3444  0.6165  0.6109
  186POPC    C121371   0.737   0.742   1.875 -0.5306  0.2104  0.1277
  186POPC    HA21372   0.831   0.692   1.845  1.5975  2.8790  1.9077
  186POPC    HB21373   0.662   0.662   1.856  1.2602 -1.7175  0.7923
  186POPC    C221374   0.742   0.763   2.030  0.2292  0.0031  0.4675
  186POPC    HS21375   0.791   0.668   2.063 -2.6161 -1.8663 -0.3233
  186POPC   O2121376   0.616   0.787   2.095  0.1210 -0.1773 -0.0422
  186POPC   C2121377   0.537   0.679   2.097  0.1753  0.5226  0.4259
  186POPC   O2221378   0.563   0.575   2.040 -0.6615 -0.1261  0.0738
  186POPC   C2221379   0.417   0.705   2.190  0.0771 -0.1958  0.8903
  186POPC   H2R21380   0.332   0.682   2.122 -0.8293  1.3587  1.4407
  186POPC   H2S21381   0.425   0.807   2.233  1.4126  0.8631 -1.7131
  186POPC    C321382   0.839   0.879   2.061  0.5409 -0.4665 -0.1709
  186POPC    HX21383   0.796   0.978   2.035 -1.3897 -1.2489 -0.1246
  186POPC    HY21384   0.930   0.860   1.999  0.3027  1.8031 -1.3231
  186POPC   O3121385   0.881   0.865   2.194  0.1766 -0.2413 -0.2268
  186POPC   C3121386   0.822   0.945   2.285 -0.1945  0.2713  0.5011
  186POPC   O3221387   0.746   1.037   2.263 -0.0182  0.1647 -0.0848
  186POPC   C3221388   0.853   0.891   2.414 -0.2405 -0.0189 -0.5547
  186POPC   H2X21389   0.961   0.871   2.433 -0.2994 -0.4204 -0.6470
  186POPC   H2Y21390   0.813   0.788   2.417  2.4448 -1.1337  0.6838
  186POPC   C2321391   0.424   0.606   2.302  0.1234  0.0098  0.0045
  186POPC   H3R21392   0.433   0.501   2.266  0.9590 -0.5766  1.7697
  186POPC   H3S21393   0.324   0.613   2.350 -0.2763  1.6640 -0.9728
  186POPC   C2421394   0.524   0.639   2.417 -0.2093 -0.2842 -0.1923
  186POPC   H4R21395   0.498   0.737   2.462  1.2792 -0.0413  0.1924
  186POPC   H4S21396   0.623   0.662   2.370 -0.0317  0.9090  0.7132
  186POPC   C2521397   0.526   0.531   2.526 -0.7551 -0.0832 -0.3043
  186POPC   H5R21398   0.570   0.431   2.503 -0.6949 -0.8377  2.6650
  186POPC   H5S21399   0.418   0.509   2.541 -0.8214 -0.5134 -1.3095
  186POPC   C2621400   0.590   0.574   2.666 -0.4383  0.9839 -0.4306
  186POPC   H6R21401   0.537   0.669   2.690  0.0128  1.7508 -2.2810
  186POPC   H6S21402   0.699   0.592   2.658 -0.5012  0.6991 -2.5553
  186POPC   C2721403   0.567   0.463   2.769  0.1884 -0.5625  0.0538
  186POPC   H7R21404   0.601   0.360   2.744  1.9352 -0.5425  2.1019
  186POPC   H7S21405   0.457   0.449   2.781  0.5528 -3.8217  0.4396
  186POPC   C2821406   0.616   0.488   2.911  0.4034 -0.3690 -0.9429
  186POPC   H8R21407   0.720   0.521   2.892  0.5143 -0.5254 -0.6086
  186POPC   H8S21408   0.614   0.395   2.971 -0.2231  0.2089 -0.0506
  186POPC   C2921409   0.542   0.591   2.988 -0.2041  0.1503  0.3192
  186POPC   H9121410   0.487   0.665   2.928 -0.0917 -0.8357 -1.0222
  186POPC  C21021411   0.545   0.612   3.125  0.7474  0.3678 -0.2874
  186POPC  H10121412   0.478   0.686   3.171  0.7140 -0.7918  1.6135
  186POPC  C21121413   0.606   0.516   3.222  0.2591  0.0418  0.6071
  186POPC  H11R21414   0.679   0.452   3.167 -1.0556  1.1388 -2.7056
  186POPC  H11S21415   0.534   0.449   3.273 -0.9745  1.7116  1.1318
  186POPC  C21221416   0.681   0.602   3.332  0.2221  0.4041  0.0320
  186POPC  H12R21417   0.607   0.664   3.386 -0.8098 -0.6474 -0.1226
  186POPC  H12S21418   0.765   0.662   3.292  1.5159  1.2861  3.6271
  186POPC  C21321419   0.764   0.518   3.439 -0.1790  0.0929 -0.0264
  186POPC  H13R21420   0.836   0.451   3.387  0.7177  1.1157 -0.1522
  186POPC  H13S21421   0.698   0.451   3.498 -1.0622  0.9875  0.0334
  186POPC  C21421422   0.844   0.602   3.539 -0.3577  0.2950 -0.6936
  186POPC  H14R21423   0.854   0.704   3.495 -1.2181  0.1885 -1.1593
  186POPC  H14S21424   0.950   0.572   3.554  1.2069  5.1078 -0.2459
  186POPC  C21521425   0.766   0.610   3.676 -0.1661  0.1029  1.0477
  186POPC  H15R21426   0.768   0.505   3.711  3.0296 -0.2962 -0.0866
  186POPC  H15S21427   0.664   0.650   3.654  0.9149  1.7357 -1.4250
  186POPC  C21621428   0.840   0.691   3.780 -0.0044  0.6090 -0.0830
  186POPC  H16R21429   0.790   0.690   3.879  0.4760  2.1302  0.2083
  186POPC  H16S21430   0.832   0.791   3.730  0.6652 -0.2156 -1.9529
  186POPC  C21721431   0.989   0.659   3.811 -0.3563  0.2100 -0.5570
  186POPC  H17R21432   1.018   0.714   3.903 -2.4599  0.6230 -0.0975
  186POPC  H17S21433   1.050   0.694   3.724 -1.5195 -0.5239 -1.7084
  186POPC  C21821434   1.011   0.508   3.840  0.1963  0.1600  0.0371
  186POPC  H18R21435   1.103   0.496   3.902 -0.3901  0.5839  1.0270
  186POPC  H18S21436   0.922   0.467   3.893 -0.2529 -0.6678 -1.3073
  186POPC  H18T21437   1.019   0.437   3.755  2.0095 -1.6412  1.5955
  186POPC   C3321438   0.788   0.974   2.527  0.4076  0.3072  0.3138
  186POPC   H3X21439   0.687   0.997   2.487  0.9438 -2.2198 -2.8633
  186POPC   H3Y21440   0.843   1.069   2.541  1.5579  0.0261 -1.9032
  186POPC   C3421441   0.772   0.893   2.658  0.2086  0.0515 -0.2770
  186POPC   H4X21442   0.684   0.825   2.651 -1.3922  1.8554  1.1127
  186POPC   H4Y21443   0.735   0.969   2.731 -1.1586 -1.2494  0.4502
  186POPC   C3521444   0.896   0.813   2.713 -0.8342  0.0794 -0.2532
  186POPC   H5X21445   0.960   0.769   2.634 -0.8299 -1.3153  0.4988
  186POPC   H5Y21446   0.864   0.727   2.775 -0.1166  0.1631  0.2519
  186POPC   C3621447   0.990   0.895   2.803  0.1244  0.0810  0.3139
  186POPC   H6X21448   1.041   0.977   2.747 -0.1906  0.5034  0.6353
  186POPC   H6Y21449   1.066   0.818   2.827  0.3474 -0.2974 -1.4088
  186POPC   C3721450   0.907   0.934   2.926 -0.0323 -0.4534 -0.1604
  186POPC   H7X21451   0.831   0.856   2.946 -0.3375 -0.7740 -2.3255
  186POPC   H7Y21452   0.852   1.030   2.912 -0.2246 -0.2081  1.8581
  186POPC   C3821453   0.996   0.954   3.049 -0.4697  0.0948 -0.0868
  186POPC   H8X21454   0.959   1.045   3.101  1.8180  0.3544  1.2556
  186POPC   H8Y21455   1.099   0.979   3.013 -0.1644  0.5034  1.0346
  186POPC   C3921456   1.004   0.834   3.148 -0.4214  0.5292  0.6106
  186POPC   H9X21457   1.063   0.755   3.097  0.8449 -0.1432  3.0014
  186POPC   H9Y21458   0.895   0.814   3.157 -1.0809  1.6510 -2.9810
  186POPC  C31021459   1.070   0.867   3.280 -0.5900 -0.1027  1.0234
  186POPC  H10X21460   1.169   0.914   3.262  0.3437 -2.7210 -1.5859
  186POPC  H10Y21461   1.086   0.775   3.340 -0.5325 -2.3176 -2.1049
  186POPC  C31121462   0.997   0.968   3.371  0.2625 -0.7204 -0.1150
  186POPC  H11X21463   0.907   0.913   3.406  1.0360 -1.6913  0.4313
  186POPC  H11Y21464   0.977   1.059   3.311  0.4897  1.3000  2.6535
  186POPC  C31221465   1.073   1.007   3.503 -0.1045 -0.2528 -0.1503
  186POPC  H12X21466   1.164   1.059   3.465  0.2097 -0.7473 -0.0831
  186POPC  H12Y21467   1.102   0.915   3.559  0.7255 -0.1187 -0.3436
  186POPC  C31321468   0.978   1.094   3.589  0.2225 -0.1097 -0.3016
  186POPC  H13X21469   0.895   1.029   3.625  0.6854 -0.8724 -0.6080
  186POPC  H13Y21470   0.945   1.182   3.529  0.8972  0.2401 -0.1696
  186POPC  C31421471   1.056   1.150   3.705  1.0136 -0.2295 -0.0859
  186POPC  H14X21472   1.137   1.217   3.670  0.1289  0.4133 -0.9598
  186POPC  H14Y21473   1.093   1.071   3.774  4.0087  0.5483 -0.7019
  186POPC  C31521474   0.969   1.236   3.800 -0.4889 -0.2044 -0.2767
  186POPC  H15X21475   0.874   1.181   3.816  0.3370 -1.2849  1.1174
  186POPC  H15Y21476   0.932   1.330   3.754 -0.2469  0.8033  1.5032
  186POPC  C31621477   1.028   1.265   3.940  0.2671 -0.5871  0.3808
  186POPC  H16X21478   1.120   1.326   3.943  0.0011 -0.1934  0.6559
  186POPC  H16Y21479   1.060   1.172   3.992 -2.1692 -2.6802 -1.5375
  186POPC  H16Z21480   0.948   1.309   4.003  1.7819 -0.4784  2.2896
  187POPC     N21481   5.096   3.534   2.111  0.1384  0.5775  0.1597
  187POPC   C1221482   5.091   3.434   2.221 -0.1646  0.7817  0.3320
  187POPC  H12A21483   5.110   3.336   2.178  0.6539  0.9910  0.2015
  187POPC  H12B21484   4.994   3.434   2.268 -0.2817  0.1660  0.0979
  187POPC   C1321485   5.227   3.554   2.040 -0.2387 -0.2726  0.2607
  187POPC  H13A21486   5.310   3.561   2.109 -0.8774 -0.6217  1.0713
  187POPC  H13B21487   5.256   3.469   1.980 -0.3263 -0.0256 -0.1342
  187POPC  H13C21488   5.233   3.649   1.988  0.9775  0.1649  1.1581
  187POPC   C1421489   5.009   3.474   1.997  0.4935 -0.4773  0.2075
  187POPC  H14A21490   4.908   3.467   2.035 -0.5908 -1.0963 -2.5829
  187POPC  H14B21491   5.003   3.544   1.915 -1.0143 -0.8387 -0.0295
  187POPC  H14C21492   5.029   3.376   1.958  0.5804 -0.6046  0.5661
  187POPC   C1521493   5.037   3.666   2.150  0.0168 -1.1713 -0.1621
  187POPC  H15A21494   4.935   3.671   2.185 -0.8736 -1.8196 -2.4673
  187POPC  H15B21495   5.035   3.730   2.064  0.6802 -0.3637  0.4079
  187POPC  H15C21496   5.098   3.716   2.224 -1.0485 -0.3815  0.2045
  187POPC   C1121497   5.191   3.448   2.343  0.2856 -0.0964 -0.3625
  187POPC  H11A21498   5.168   3.381   2.428  1.4808  0.6338  0.5722
  187POPC  H11B21499   5.166   3.546   2.390 -0.0042 -0.3749  0.0653
  187POPC     P21500   5.390   3.302   2.252  0.1919  0.0387 -0.1410
  187POPC   O1321501   5.512   3.331   2.179 -0.5732  0.2945  0.0675
  187POPC   O1421502   5.285   3.218   2.193  0.5322 -0.1036  0.0778
  187POPC   O1221503   5.327   3.442   2.312 -0.6813  0.4320 -0.1258
  187POPC   O1121504   5.441   3.230   2.384  0.0162  0.2412  0.1397
  187POPC    C121505   5.458   3.286   2.514  0.1690 -0.0457  0.6699
  187POPC    HA21506   5.364   3.272   2.572 -0.2558  2.1096  0.5899
  187POPC    HB21507   5.475   3.395   2.504 -0.2198 -0.0086  0.3688
  187POPC    C221508   5.578   3.231   2.590 -0.4491  0.8795 -0.0602
  187POPC    HS21509   5.668   3.252   2.527 -1.7276  2.2843 -1.5297
  187POPC   O2121510   5.559   3.089   2.607  0.2061 -0.3078  0.4243
  187POPC   C2121511   5.676   3.032   2.637 -0.2549 -1.0640  0.3050
  187POPC   O2221512   5.783   3.093   2.646  0.4073 -0.2354  0.3191
  187POPC   C2221513   5.661   2.884   2.668  0.1078  0.7249  0.4659
  187POPC   H2R21514   5.746   2.851   2.732  0.5261 -0.6633 -0.7447
  187POPC   H2S21515   5.677   2.831   2.571 -0.0141  1.9087 -0.2153
  187POPC    C321516   5.591   3.298   2.733  0.5108 -0.1347  0.3944
  187POPC    HX21517   5.655   3.242   2.804 -1.9927 -2.8864  0.7005
  187POPC    HY21518   5.492   3.286   2.781  1.1320  1.0156  2.0390
  187POPC   O3121519   5.611   3.435   2.717  0.5764 -0.5024  0.5875
  187POPC   C3121520   5.738   3.482   2.734 -0.1501 -0.1790 -0.8209
  187POPC   O3221521   5.840   3.417   2.731 -0.6041  0.2697 -0.0350
  187POPC   C3221522   5.736   3.633   2.751  0.1909 -0.2531 -0.5092
  187POPC   H2X21523   5.702   3.647   2.856 -1.6861 -0.9021 -0.9903
  187POPC   H2Y21524   5.670   3.687   2.679  0.7151  0.1834 -0.6780
  187POPC   C2321525   5.524   2.835   2.719 -0.0655 -0.0474 -0.3728
  187POPC   H3R21526   5.520   2.724   2.712 -1.6006 -0.4173  3.5934
  187POPC   H3S21527   5.443   2.862   2.648  0.1986  0.3751 -0.5179
  187POPC   C2421528   5.480   2.896   2.857 -0.0959 -0.2980  0.3117
  187POPC   H4R21529   5.372   2.879   2.877 -0.0784  0.4293  1.0893
  187POPC   H4S21530   5.496   3.006   2.861 -1.2087 -0.1430  0.5971
  187POPC   C2521531   5.558   2.829   2.970 -0.0637  0.7525 -1.0712
  187POPC   H5R21532   5.667   2.816   2.954 -0.1019  0.1746 -0.8984
  187POPC   H5S21533   5.530   2.721   2.969 -0.3074  0.7882  0.4460
  187POPC   C2621534   5.536   2.883   3.110  0.2284 -0.0655  0.0369
  187POPC   H6R21535   5.431   2.907   3.136  0.1517 -2.8733  3.0153
  187POPC   H6S21536   5.602   2.973   3.115  1.1418 -0.6438 -1.1011
  187POPC   C2721537   5.591   2.796   3.226 -0.9519 -0.2355  0.2701
  187POPC   H7R21538   5.702   2.804   3.229 -0.9787 -0.1315  2.1030
  187POPC   H7S21539   5.568   2.687   3.226 -1.6302 -0.1103  1.4097
  187POPC   C2821540   5.540   2.867   3.354 -0.1330 -0.0596 -0.7958
  187POPC   H8R21541   5.429   2.866   3.361 -0.3018  2.0703 -2.2818
  187POPC   H8S21542   5.563   2.975   3.347 -1.8584  0.5438  1.6563
  187POPC   C2921543   5.582   2.793   3.480  0.3487 -0.9108 -0.7221
  187POPC   H9121544   5.603   2.686   3.461  0.6684 -0.6975 -1.6351
  187POPC  C21021545   5.602   2.840   3.609 -0.3140 -0.4722 -0.1580
  187POPC  H10121546   5.621   2.764   3.687  0.2563  0.7469  0.9423
  187POPC  C21121547   5.588   2.981   3.655  0.7493  0.4130 -0.3748
  187POPC  H11R21548   5.543   2.972   3.756  2.0816 -0.0853  0.1863
  187POPC  H11S21549   5.506   3.039   3.607 -0.2641  1.0211  1.9312
  187POPC  C21221550   5.718   3.056   3.677 -0.1505 -0.6903  0.1668
  187POPC  H12R21551   5.756   3.058   3.572 -1.4192 -2.4314 -0.3883
  187POPC  H12S21552   5.777   2.978   3.729 -2.6960 -2.1131  1.0548
  187POPC  C21321553   5.708   3.194   3.744  0.0030 -0.1409 -0.4017
  187POPC  H13R21554   5.648   3.189   3.837 -0.3268 -1.7383 -0.6733
  187POPC  H13S21555   5.645   3.254   3.674  0.1575 -0.1342 -0.5349
  187POPC  C21421556   5.844   3.259   3.763  1.2017  0.3747  0.1099
  187POPC  H14R21557   5.909   3.243   3.674  3.1699  0.7931  1.4111
  187POPC  H14S21558   5.899   3.226   3.854 -0.3315 -0.3397  0.8191
  187POPC  C21521559   5.835   3.409   3.778  0.1610 -0.2260 -0.2518
  187POPC  H15R21560   5.785   3.447   3.686 -2.4490 -1.7203  0.4259
  187POPC  H15S21561   5.941   3.441   3.779 -0.1614  0.9023  1.5513
  187POPC  C21621562   5.771   3.460   3.905  0.9043 -0.2523  0.5098
  187POPC  H16R21563   5.845   3.438   3.984  0.9339 -0.3555  0.4528
  187POPC  H16S21564   5.681   3.401   3.933  1.4905 -0.7320  1.4146
  187POPC  C21721565   5.737   3.614   3.906  0.4321  0.0590  0.0005
  187POPC  H17R21566   5.818   3.663   3.848  0.7115  1.4592  1.4896
  187POPC  H17S21567   5.725   3.663   4.005  0.1612  0.3409 -0.1678
  187POPC  C21821568   5.605   3.640   3.824 -0.4841  0.8454 -0.4379
  187POPC  H18R21569   5.614   3.595   3.722 -0.4742  1.6327 -0.7926
  187POPC  H18S21570   5.595   3.750   3.811 -1.1665  0.7941 -0.4151
  187POPC  H18T21571   5.524   3.589   3.880 -0.4058  1.0850 -0.1073
  187POPC   C3321572   5.884   3.676   2.726  0.6214 -0.8107  0.3308
  187POPC   H3X21573   5.922   3.630   2.633 -2.0029 -2.8932  0.1732
  187POPC   H3Y21574   5.938   3.628   2.810  0.4491 -0.4376  0.6631
  187POPC   C3421575   5.905   3.831   2.743  0.1869  0.9494 -0.3347
  187POPC   H4X21576   5.862   3.891   2.659 -0.3219 -2.0955 -2.4417
  187POPC   H4Y21577   6.010   3.866   2.730  1.3449 -2.3176 -0.6088
  187POPC   C3521578   5.844   3.887   2.870  0.0638 -0.4761 -0.1019
  187POPC   H5X21579   5.739   3.853   2.885  0.1787 -0.2089  1.5138
  187POPC   H5Y21580   5.847   3.998   2.864 -1.6744 -0.2020  2.5163
  187POPC   C3621581   5.924   3.850   2.998  0.0400  0.4602  0.2017
  187POPC   H6X21582   6.034   3.861   2.998  0.1245 -0.0919  1.8927
  187POPC   H6Y21583   5.908   3.740   3.003  0.4786  0.4265  0.9898
  187POPC   C3721584   5.862   3.931   3.115 -0.5878 -0.6237  0.4643
  187POPC   H7X21585   5.752   3.934   3.105 -0.6365 -1.1063  0.8510
  187POPC   H7Y21586   5.888   4.039   3.104 -0.8536 -0.7301 -1.6033
  187POPC   C3821587   5.915   3.880   3.249 -0.3980 -0.4074 -0.3039
  187POPC   H8X21588   5.889   3.772   3.248  0.3990 -0.6423 -2.6863
  187POPC   H8Y21589   5.858   3.936   3.326 -0.4920 -0.0128 -0.6530
  187POPC   C3921590   6.068   3.908   3.272 -0.4128  0.8168 -0.7048
  187POPC   H9X21591   6.096   4.012   3.299  3.6692  0.0176 -1.1628
  187POPC   H9Y21592   6.139   3.865   3.198  1.5085  1.8437  0.4726
  187POPC  C31021593   6.123   3.832   3.397 -0.2650  0.4161  0.2357
  187POPC  H10X21594   6.233   3.822   3.398 -0.0011  2.7001  0.0185
  187POPC  H10Y21595   6.085   3.728   3.388 -0.8743  0.7273 -1.1332
  187POPC  C31121596   6.090   3.907   3.523 -0.3397  0.6089  0.2682
  187POPC  H11X21597   5.980   3.906   3.539 -0.1915  0.0101  1.3442
  187POPC  H11Y21598   6.130   4.010   3.521  0.6170  0.2408 -1.5121
  187POPC  C31221599   6.156   3.841   3.649 -0.5843  0.3646  0.1789
  187POPC  H12X21600   6.266   3.832   3.658 -0.8718 -1.3624  3.3618
  187POPC  H12Y21601   6.131   3.732   3.646  3.5524 -0.8249  1.5611
  187POPC  C31321602   6.107   3.902   3.783  0.4125  0.2644 -0.2163
  187POPC  H13X21603   5.997   3.917   3.779  0.3997  0.1818 -0.1722
  187POPC  H13Y21604   6.157   4.001   3.795  0.4242  0.3204 -0.7348
  187POPC  C31421605   6.138   3.829   3.919 -0.3476  0.2531 -0.3974
  187POPC  H14X21606   6.093   3.727   3.912  0.6488 -0.4622  2.2045
  187POPC  H14Y21607   6.092   3.880   4.007 -0.2035 -0.4348  0.0883
  187POPC  C31521608   6.291   3.820   3.935 -0.3169  0.2643 -0.1211
  187POPC  H15X21609   6.342   3.918   3.926  0.4474 -0.2068 -1.0908
  187POPC  H15Y21610   6.345   3.765   3.855  2.4466  1.8859  0.4960
  187POPC  C31621611   6.339   3.738   4.055  0.5840 -0.1809  0.4444
  187POPC  H16X21612   6.309   3.633   4.035 -1.3197  0.1286  1.4324
  187POPC  H16Y21613   6.294   3.771   4.151  2.3810  0.3222  1.1509
  187POPC  H16Z21614   6.445   3.750   4.086 -0.1541  0.0123  3.1474
  188POPC     N21615   3.444   6.672   1.622  0.0674 -0.0909  0.3902
  188POPC   C1221616   3.378   6.598   1.729 -0.3956  0.7910 -1.1780
  188POPC  H12A21617   3.289   6.555   1.685  0.3263 -0.6478 -1.2927
  188POPC  H12B21618   3.341   6.669   1.801  1.3111  0.3322  0.2440
  188POPC   C1321619   3.488   6.588   1.506 -0.5184  0.7249 -0.1001
  188POPC  H13A21620   3.538   6.498   1.538 -0.0164  1.0445  0.0267
  188POPC  H13B21621   3.410   6.568   1.434  0.9014  0.8586 -1.7400
  188POPC  H13C21622   3.562   6.635   1.443 -1.7826 -1.4874 -3.5438
  188POPC   C1421623   3.352   6.771   1.575  0.8904 -0.7705  0.9286
  188POPC  H14A21624   3.254   6.737   1.546  0.5879  0.5868  0.3093
  188POPC  H14B21625   3.327   6.852   1.641 -3.0756 -0.5551 -0.5535
  188POPC  H14C21626   3.389   6.821   1.487 -1.0374  0.8113  0.9542
  188POPC   C1521627   3.564   6.738   1.687  0.0223  0.3316 -0.1218
  188POPC  H15A21628   3.626   6.780   1.609  2.1104 -0.1346  1.2182
  188POPC  H15B21629   3.623   6.673   1.750  0.8088  0.2991 -0.8785
  188POPC  H15C21630   3.534   6.821   1.748  2.4988  1.1012  0.1314
  188POPC   C1121631   3.469   6.493   1.803 -0.0280 -0.3431  0.2699
  188POPC  H11A21632   3.530   6.441   1.726 -0.1844  1.3339 -1.0347
  188POPC  H11B21633   3.393   6.420   1.840 -0.1200 -0.8080 -0.8099
  188POPC     P21634   3.639   6.495   2.011  0.3629 -0.6364 -0.0234
  188POPC   O1321635   3.674   6.606   2.111  0.2984 -0.0737  0.1771
  188POPC   O1421636   3.755   6.438   1.935  0.0470  0.2737  0.6666
  188POPC   O1221637   3.544   6.560   1.908 -0.0674 -0.2016 -0.2989
  188POPC   O1121638   3.547   6.384   2.076 -0.3210  0.2784 -0.1815
  188POPC    C121639   3.442   6.413   2.169  0.1971  0.8222  0.0525
  188POPC    HA21640   3.373   6.326   2.180  0.8802  0.3826  1.0085
  188POPC    HB21641   3.389   6.507   2.142  1.5816  1.1984 -1.4526
  188POPC    C221642   3.502   6.431   2.316 -0.3480  0.6105 -0.4995
  188POPC    HS21643   3.575   6.514   2.317  2.2041 -1.4989  0.3484
  188POPC   O2121644   3.580   6.314   2.346 -0.3534  0.0712  0.5021
  188POPC   C2121645   3.680   6.340   2.435 -0.4546 -0.1352  0.3641
  188POPC   O2221646   3.718   6.451   2.477 -0.1433 -0.5215 -0.1823
  188POPC   C2221647   3.742   6.197   2.465  0.8496  0.0054 -0.5157
  188POPC   H2R21648   3.839   6.200   2.410  0.4804  0.7413 -1.1575
  188POPC   H2S21649   3.676   6.117   2.424 -0.7598  0.9968  0.0437
  188POPC    C321650   3.390   6.454   2.424  0.6448 -0.5799 -0.3308
  188POPC    HX21651   3.331   6.361   2.441  3.0601 -1.8133  2.1692
  188POPC    HY21652   3.316   6.526   2.386 -2.7295 -3.6758 -0.1646
  188POPC   O3121653   3.441   6.492   2.551  0.6018  0.0597  0.3453
  188POPC   C3121654   3.467   6.621   2.566 -0.2509  0.3239 -0.8484
  188POPC   O3221655   3.456   6.713   2.489  0.0603 -0.4295  0.6406
  188POPC   C3221656   3.526   6.634   2.704  0.1582 -0.2751 -0.5025
  188POPC   H2X21657   3.518   6.534   2.752 -3.0700  0.5647  1.0155
  188POPC   H2Y21658   3.466   6.697   2.772  0.5994  0.9452 -1.2207
  188POPC   C2321659   3.762   6.177   2.616 -0.1098  1.0984 -0.2469
  188POPC   H3R21660   3.793   6.070   2.618 -1.8752  0.4449 -2.7650
  188POPC   H3S21661   3.664   6.173   2.667  1.2210  1.5149  2.5228
  188POPC   C2421662   3.869   6.270   2.677 -0.0661  0.3067  0.0354
  188POPC   H4R21663   3.833   6.375   2.668  2.1365  1.2745  1.6357
  188POPC   H4S21664   3.970   6.267   2.630 -0.1335 -1.1579 -0.0753
  188POPC   C2521665   3.880   6.259   2.833 -1.1155 -0.0306 -0.1992
  188POPC   H5R21666   3.776   6.254   2.870 -0.8091 -0.1006  0.6568
  188POPC   H5S21667   3.933   6.349   2.871 -2.0508  1.0614 -1.3923
  188POPC   C2621668   3.956   6.129   2.873 -0.3383  0.0244 -0.1828
  188POPC   H6R21669   4.059   6.130   2.833 -0.8572  1.2751 -1.6167
  188POPC   H6S21670   3.908   6.040   2.827  1.7543 -0.5534 -1.3344
  188POPC   C2721671   3.965   6.117   3.024 -0.5208 -0.4595 -0.1230
  188POPC   H7R21672   4.014   6.018   3.039  0.2885  0.0435  0.6530
  188POPC   H7S21673   3.862   6.107   3.063 -0.6721 -1.0532 -0.6473
  188POPC   C2821674   4.046   6.236   3.091  0.5126  0.3895 -0.0834
  188POPC   H8R21675   3.980   6.325   3.091 -0.0059  0.0090 -0.7481
  188POPC   H8S21676   4.128   6.270   3.025  1.8915  0.0474  1.4037
  188POPC   C2921677   4.102   6.201   3.227 -0.1397  0.5774 -0.4235
  188POPC   H9121678   4.186   6.131   3.233 -0.8330 -0.3667 -1.4416
  188POPC  C21021679   4.041   6.231   3.346 -0.8526 -0.6055  0.3419
  188POPC  H10121680   4.079   6.187   3.440  0.7144  0.6071  0.3134
  188POPC  C21121681   3.918   6.315   3.367 -0.4877  0.0880 -0.0914
  188POPC  H11R21682   3.926   6.415   3.320  0.6114  0.6173  1.1368
  188POPC  H11S21683   3.938   6.331   3.475  4.5324  0.0063 -0.7375
  188POPC  C21221684   3.788   6.247   3.328  0.0406  0.1649  0.5786
  188POPC  H12R21685   3.792   6.143   3.288 -1.5636  0.0201  0.7342
  188POPC  H12S21686   3.744   6.291   3.236  0.6788 -1.7763 -0.7293
  188POPC  C21321687   3.673   6.245   3.435  0.2969 -0.1915  0.7031
  188POPC  H13R21688   3.701   6.171   3.513  1.0483  0.8900  1.4884
  188POPC  H13S21689   3.593   6.180   3.393 -0.3393 -0.6695  2.5573
  188POPC  C21421690   3.616   6.371   3.500  0.7730 -0.6636 -0.7461
  188POPC  H14R21691   3.623   6.456   3.429  1.1239 -0.4255 -0.4300
  188POPC  H14S21692   3.670   6.401   3.592 -1.2917  0.2399  0.2443
  188POPC  C21521693   3.462   6.354   3.540 -0.1895  0.5744  0.1136
  188POPC  H15R21694   3.393   6.339   3.455  1.3193 -2.0910 -0.7413
  188POPC  H15S21695   3.423   6.447   3.586 -1.1628 -0.2751  1.0415
  188POPC  C21621696   3.437   6.237   3.633 -0.0971  0.6576 -0.6220
  188POPC  H16R21697   3.530   6.214   3.688 -1.0725 -0.4496  0.6108
  188POPC  H16S21698   3.420   6.142   3.577 -2.7839 -0.7380  2.2544
  188POPC  C21721699   3.321   6.252   3.739 -0.2771 -0.5375  0.2607
  188POPC  H17R21700   3.320   6.159   3.800  1.4078 -0.4631  0.4494
  188POPC  H17S21701   3.225   6.252   3.683 -1.3909  1.5990  2.0202
  188POPC  C21821702   3.333   6.381   3.816 -0.1238 -0.7092 -0.3990
  188POPC  H18R21703   3.264   6.376   3.904  0.4660  1.3385  0.2412
  188POPC  H18S21704   3.312   6.470   3.752 -0.5631 -1.0669 -0.7544
  188POPC  H18T21705   3.428   6.396   3.872 -0.5402 -0.3798  0.2290
  188POPC   C3321706   3.674   6.686   2.704  0.6963 -0.0368 -0.7279
  188POPC   H3X21707   3.668   6.796   2.698  1.0395  0.0010 -0.3953
  188POPC   H3Y21708   3.729   6.638   2.621  1.0775 -3.1452  1.1563
  188POPC   C3421709   3.753   6.647   2.831 -0.0320 -0.0370  0.2927
  188POPC   H4X21710   3.787   6.542   2.829  0.9846  0.2924 -1.1204
  188POPC   H4Y21711   3.685   6.669   2.917  0.5689 -0.9668  1.0312
  188POPC   C3521712   3.866   6.747   2.862 -0.1503  0.1928  0.4970
  188POPC   H5X21713   3.814   6.845   2.863 -1.2854 -0.3907 -0.1178
  188POPC   H5Y21714   3.942   6.737   2.781 -0.3219  0.0758  0.3526
  188POPC   C3621715   3.943   6.731   2.990 -1.8025 -0.1169 -0.6994
  188POPC   H6X21716   4.028   6.803   2.985 -3.4176  1.9264 -0.1696
  188POPC   H6Y21717   3.981   6.627   3.000 -1.0307  0.2234  0.1008
  188POPC   C3721718   3.854   6.762   3.115 -0.8094  0.1670  0.2661
  188POPC   H7X21719   3.774   6.685   3.110  0.4693 -1.2707  1.0767
  188POPC   H7Y21720   3.812   6.863   3.100 -2.0633 -0.8356 -4.9253
  188POPC   C3821721   3.932   6.738   3.248 -0.2557 -1.0385  0.5189
  188POPC   H8X21722   4.002   6.824   3.258  0.6434 -1.4694 -1.4818
  188POPC   H8Y21723   3.983   6.641   3.235  0.7148 -0.8286  2.5002
  188POPC   C3921724   3.836   6.730   3.364  0.2070 -0.7058 -0.0455
  188POPC   H9X21725   3.759   6.655   3.338 -1.1396 -0.3218  2.5007
  188POPC   H9Y21726   3.781   6.826   3.360  1.5526  0.0829 -0.1111
  188POPC  C31021727   3.902   6.729   3.495 -0.1585 -0.0610 -0.1326
  188POPC  H10X21728   3.994   6.791   3.502  0.2129 -0.3077 -2.1747
  188POPC  H10Y21729   3.943   6.626   3.505 -0.2329  0.1007  2.8444
  188POPC  C31121730   3.800   6.748   3.614  0.1341 -0.6559  0.1869
  188POPC  H11X21731   3.734   6.659   3.600  1.6979 -1.7292 -0.7097
  188POPC  H11Y21732   3.743   6.843   3.604  1.7716  0.6006  2.1853
  188POPC  C31221733   3.865   6.745   3.752  0.3349  0.1638 -1.2935
  188POPC  H12X21734   3.890   6.850   3.779 -1.3091 -0.1993  2.1805
  188POPC  H12Y21735   3.961   6.688   3.744 -2.0933 -4.6342 -0.0436
  188POPC  C31321736   3.773   6.682   3.864  0.9868 -0.2283  0.0271
  188POPC  H13X21737   3.695   6.620   3.815 -0.1277  0.2349  1.1442
  188POPC  H13Y21738   3.730   6.772   3.912 -2.1155 -0.9522 -1.1687
  188POPC  C31421739   3.846   6.610   3.979 -0.6228 -0.0592  0.6443
  188POPC  H14X21740   3.783   6.595   4.070  1.1813  3.0363  2.5890
  188POPC  H14Y21741   3.932   6.673   4.010 -1.1316  1.2095 -0.4384
  188POPC  C31521742   3.898   6.474   3.930  0.5117 -0.0516  0.2604
  188POPC  H15X21743   3.990   6.448   3.987  0.8359  2.5599  1.0490
  188POPC  H15Y21744   3.941   6.491   3.829 -0.4731  2.2158  0.1491
  188POPC  C31621745   3.799   6.364   3.942 -0.1039 -0.5609 -0.5376
  188POPC  H16X21746   3.861   6.275   3.918  3.4921  1.8279 -0.9714
  188POPC  H16Y21747   3.715   6.372   3.870 -0.9043  0.7516  0.5130
  188POPC  H16Z21748   3.753   6.362   4.043 -1.4776 -0.4947 -1.1420
  189SAPI   C1221749   1.129   6.457   6.124 -0.3261 -0.3379  0.1011
  189SAPI    H221750   1.056   6.387   6.077 -2.2409  1.4531  0.2895
  189SAPI    O221751   1.203   6.516   6.016 -0.4548 -0.7622 -0.4816
  189SAPI   HO221752   1.277   6.456   6.001  0.7198 -0.3443  2.8585
  189SAPI   C1321753   1.035   6.542   6.201  0.2613  0.0420 -0.2791
  189SAPI    H321754   0.982   6.472   6.268 -0.0953  0.0463 -0.5523
  189SAPI    O321755   0.938   6.608   6.121 -0.3142 -0.2246  0.0540
  189SAPI   HO321756   0.977   6.680   6.072  0.3430 -0.9925 -0.5825
  189SAPI   C1421757   1.110   6.638   6.297 -0.1077  0.1383  0.0609
  189SAPI    H421758   1.142   6.715   6.224 -1.7635  1.3307  0.5009
  189SAPI    O421759   1.023   6.722   6.383 -0.3468  0.0956 -0.0334
  189SAPI   HO421760   1.064   6.809   6.387  1.7133 -0.8572  3.4146
  189SAPI   C1521761   1.235   6.583   6.366  0.1625 -0.3415  0.4930
  189SAPI    H521762   1.202   6.527   6.456 -0.6304 -1.5517 -0.5106
  189SAPI    O521763   1.328   6.688   6.399  0.2054 -0.1777 -0.1853
  189SAPI   HO521764   1.409   6.688   6.347  1.7966  1.1954  2.0995
  189SAPI   C1621765   1.310   6.470   6.292 -0.2938  0.4449  0.7541
  189SAPI    H621766   1.383   6.514   6.220 -1.3629  0.6430 -0.2427
  189SAPI    O621767   1.385   6.395   6.388 -0.1305  0.5071 -0.3059
  189SAPI   HO621768   1.383   6.303   6.362  2.4347 -0.0356  1.0596
  189SAPI   C1121769   1.218   6.383   6.213 -0.5169 -0.4652  0.0821
  189SAPI    H121770   1.149   6.336   6.288 -0.1961  0.7393  1.1632
  189SAPI     P21771   1.280   6.121   6.181 -0.1373  0.3117 -0.0950
  189SAPI   O1321772   1.213   6.097   6.314  0.3097  0.0331  0.6451
  189SAPI   O1421773   1.405   6.046   6.148  0.2047  0.2562 -0.4131
  189SAPI   O1221774   1.297   6.283   6.144  0.1606 -0.3115 -0.0007
  189SAPI   O1121775   1.175   6.073   6.076  0.2216  0.3565  0.0742
  189SAPI    C121776   1.183   6.112   5.931  0.1189 -0.2653 -0.1466
  189SAPI    HA21777   1.196   6.221   5.917 -3.5590  0.8958  3.2921
  189SAPI    HB21778   1.264   6.053   5.883 -0.9436 -0.8006 -1.3334
  189SAPI    C221779   1.047   6.085   5.866  0.9518 -0.3612  0.5876
  189SAPI    HS21780   1.024   5.985   5.910 -1.0260  0.2584  1.0593
  189SAPI   O2121781   1.063   6.080   5.727 -0.3660 -0.1737 -0.2386
  189SAPI   C2121782   0.957   6.025   5.671  0.0763 -1.0418 -0.1426
  189SAPI   O2221783   0.863   5.973   5.734 -0.1313 -0.4179  0.0195
  189SAPI   C2221784   0.946   6.057   5.525  0.7644  0.1582  0.1182
  189SAPI   H2R21785   0.966   6.163   5.496  0.4920 -0.1425 -1.2117
  189SAPI   H2S21786   1.027   6.001   5.474  2.1157  1.3277  0.8935
  189SAPI    C321787   0.940   6.176   5.926  0.0947  0.0479  0.0338
  189SAPI    HX21788   0.951   6.180   6.037  1.8249  2.0868 -0.1469
  189SAPI    HY21789   0.842   6.132   5.897 -0.6820  2.2873 -0.9379
  189SAPI   O3121790   0.953   6.311   5.870  0.1906 -0.0674 -0.1619
  189SAPI   C3121791   0.846   6.375   5.841  0.1172 -0.1085  0.9025
  189SAPI   O3221792   0.731   6.336   5.854 -0.2043  0.1285  0.1241
  189SAPI   C3221793   0.876   6.520   5.814  0.1426 -0.5949  0.0706
  189SAPI   H2X21794   0.985   6.536   5.801 -0.0060 -0.7275 -1.6063
  189SAPI   H2Y21795   0.839   6.572   5.905  0.4027  1.9881 -1.2029
  189SAPI   C2321796   0.810   6.015   5.472 -0.4513 -0.1680 -0.2742
  189SAPI   H3R21797   0.721   6.061   5.521  0.0114  0.5902 -0.1235
  189SAPI   H3S21798   0.794   5.905   5.466  1.4635 -0.5717  1.1905
  189SAPI   C2421799   0.805   6.069   5.327 -0.1666 -0.7639  0.0062
  189SAPI   H4R21800   0.896   6.025   5.282  0.4270 -0.4227  0.8411
  189SAPI   H4S21801   0.815   6.179   5.331  0.1142 -0.7056 -1.7480
  189SAPI   C2521802   0.684   6.031   5.246  0.3459 -0.2282  0.7797
  189SAPI   H5R21803   0.606   5.970   5.293 -0.6101  0.6651  0.4072
  189SAPI   C2621804   0.671   6.063   5.118  0.0601  0.3109  0.9015
  189SAPI   H6R21805   0.567   6.051   5.083 -0.2989  0.1328  1.9656
  189SAPI   C2721806   0.776   6.121   5.026 -0.4215 -0.4974  0.1941
  189SAPI   H7R21807   0.852   6.176   5.085 -0.2540 -0.6975  0.1656
  189SAPI   H7S21808   0.720   6.196   4.966 -3.3325 -1.5115  1.4656
  189SAPI   C2821809   0.833   6.004   4.945  0.0736 -0.6084 -0.2797
  189SAPI   H8R21810   0.900   5.946   5.010 -0.8702  1.0887  2.3881
  189SAPI   C2921811   0.814   5.978   4.816  0.1622  0.0642 -0.1010
  189SAPI   H9R21812   0.878   5.903   4.767 -0.0244  1.2807 -2.3338
  189SAPI  C21021813   0.719   6.060   4.730  0.4802 -0.2130 -0.5820
  189SAPI  H10R21814   0.769   6.151   4.690 -0.8604  0.3346 -1.1021
  189SAPI  H10S21815   0.636   6.107   4.786  0.8671  0.2984 -0.4327
  189SAPI  C21121816   0.650   5.985   4.622  0.6512 -0.1225 -0.7908
  189SAPI  H11R21817   0.576   5.912   4.659  0.1147  1.2774  1.0231
  189SAPI  C21221818   0.665   5.992   4.491 -0.1904 -0.3101  0.0842
  189SAPI  H12R21819   0.603   5.932   4.424  1.2314 -2.0002  0.2087
  189SAPI  C21321820   0.761   6.071   4.413 -0.4480  0.2135 -0.5788
  189SAPI  H13R21821   0.798   6.158   4.469 -0.0090 -1.6140  2.1397
  189SAPI  H13S21822   0.711   6.096   4.316 -0.1519 -0.6955 -0.9836
  189SAPI  C21421823   0.885   6.003   4.365 -0.6729  0.2338  0.3789
  189SAPI  H14R21824   0.969   6.024   4.433 -1.1108  1.7524  0.4824
  189SAPI  C21521825   0.914   5.937   4.253 -0.7258 -0.1925  0.8083
  189SAPI  H15R21826   1.018   5.905   4.240  0.0035  1.7605  1.3952
  189SAPI  C21621827   0.810   5.905   4.150  0.3030  0.4746 -0.1550
  189SAPI  H16R21828   0.704   5.905   4.184  0.5849  0.6108  0.7390
  189SAPI  H16S21829   0.829   5.797   4.133 -0.8355  0.1245  0.6248
  189SAPI  C21721830   0.825   5.980   4.010  0.9258 -0.0112 -0.0120
  189SAPI  H17R21831   0.819   6.090   4.028 -0.6333  0.2364 -1.7753
  189SAPI  H17S21832   0.742   5.947   3.945  0.1236  1.6963  0.0953
  189SAPI  C21821833   0.956   5.949   3.933 -0.6603  0.3013 -0.1681
  189SAPI  H18R21834   0.965   5.838   3.931  1.9287  0.4470  0.3695
  189SAPI  H18S21835   1.051   5.976   3.984  0.5902 -1.4508 -1.4385
  189SAPI  C21921836   0.955   6.016   3.787  0.0371  0.4775 -0.5794
  189SAPI  H19R21837   0.869   5.980   3.728  0.0873 -1.8190  0.6508
  189SAPI  H19S21838   1.043   5.964   3.743 -0.5796  0.8590 -2.3564
  189SAPI  C22021839   0.955   6.176   3.782 -0.3711  0.0080  0.3907
  189SAPI  H20R21840   0.985   6.216   3.684 -1.3468  0.8589  0.4280
  189SAPI  H20S21841   1.033   6.223   3.845 -2.4140  0.8443  2.4673
  189SAPI  H20T21842   0.856   6.218   3.811  0.0025  0.7508  0.5892
  189SAPI   C3321843   0.808   6.570   5.684 -0.1332 -0.3122 -0.1984
  189SAPI   H3X21844   0.854   6.667   5.656  0.4799 -1.0566 -1.9009
  189SAPI   H3Y21845   0.698   6.576   5.696 -0.0436  0.4969  0.2709
  189SAPI   C3421846   0.853   6.493   5.558  0.7418  0.2454 -0.6269
  189SAPI   H4X21847   0.835   6.384   5.571  0.4786  0.5081  1.7791
  189SAPI   H4Y21848   0.961   6.509   5.538  0.7648  1.6864  0.4816
  189SAPI   C3521849   0.768   6.545   5.443  0.1615 -0.2317 -0.4585
  189SAPI   H5X21850   0.759   6.655   5.441 -0.6740 -0.2954 -0.4891
  189SAPI   H5Y21851   0.671   6.496   5.463  0.4692 -0.8422 -0.4326
  189SAPI   C3621852   0.823   6.496   5.305 -0.3593  0.0243  0.1477
  189SAPI   H6X21853   0.838   6.387   5.295 -1.9660 -0.3233  1.2152
  189SAPI   H6Y21854   0.922   6.546   5.292 -1.1257  2.1528  1.8311
  189SAPI   C3721855   0.725   6.531   5.193  0.1748 -0.4915 -0.3225
  189SAPI   H7X21856   0.705   6.641   5.197 -1.1339 -0.7034 -0.4061
  189SAPI   H7Y21857   0.621   6.493   5.200  0.0477 -0.5200 -1.9525
  189SAPI   C3821858   0.777   6.499   5.053  0.4636 -0.0361 -0.1254
  189SAPI   H8X21859   0.819   6.397   5.044  0.9607  0.2802 -1.7600
  189SAPI   H8Y21860   0.869   6.559   5.035  1.5199 -1.7197 -0.5546
  189SAPI   C3921861   0.684   6.521   4.937 -0.2136  0.4742 -0.5054
  189SAPI   H9X21862   0.639   6.622   4.945 -2.7080 -0.7275  3.8108
  189SAPI   H9Y21863   0.602   6.450   4.958  1.0400 -0.2419  2.5316
  189SAPI  C31021864   0.757   6.508   4.795 -0.1513 -0.7471 -0.1682
  189SAPI  H10X21865   0.774   6.403   4.762 -0.3446 -1.1729  1.0219
  189SAPI  H10Y21866   0.847   6.572   4.790 -0.0991 -0.9474 -2.3757
  189SAPI  C31121867   0.668   6.591   4.696 -0.2937  0.1051 -0.1242
  189SAPI  H11X21868   0.673   6.700   4.716 -1.9561  0.4002 -1.1365
  189SAPI  H11Y21869   0.559   6.573   4.710 -0.5123  0.9940 -0.5713
  189SAPI  C31221870   0.696   6.586   4.553  0.3849 -0.2519 -0.6269
  189SAPI  H12X21871   0.805   6.570   4.541  0.4761 -1.4201  1.2788
  189SAPI  H12Y21872   0.664   6.678   4.500 -3.1182  0.8925  2.9515
  189SAPI  C31321873   0.610   6.483   4.478  0.1489  0.0482 -0.1162
  189SAPI  H13X21874   0.499   6.495   4.484 -0.3362 -2.6649 -1.6437
  189SAPI  H13Y21875   0.618   6.385   4.530  1.6413 -0.4717 -1.2604
  189SAPI  C31421876   0.664   6.456   4.333 -0.4521  0.1272 -0.0499
  189SAPI  H14X21877   0.765   6.414   4.350 -0.8661 -0.6264  0.6185
  189SAPI  H14Y21878   0.664   6.556   4.286  0.1836 -0.4713 -1.3685
  189SAPI  C31521879   0.574   6.366   4.245  0.2750  0.5018 -0.0531
  189SAPI  H15X21880   0.467   6.386   4.266  0.9537  2.3623  1.9451
  189SAPI  H15Y21881   0.590   6.257   4.261 -2.5977 -0.2624 -1.6077
  189SAPI  C31621882   0.601   6.385   4.093 -0.1175  0.0926 -0.4845
  189SAPI  H16X21883   0.710   6.368   4.076  0.1520  1.2643 -0.0142
  189SAPI  H16Y21884   0.579   6.488   4.059 -0.0604  0.4190  0.4599
  189SAPI  C31721885   0.522   6.286   4.012  0.7978  0.2276 -0.3105
  189SAPI  H17X21886   0.416   6.297   4.044  1.2955  2.6087  0.7589
  189SAPI  H17Y21887   0.546   6.183   4.044 -2.3271 -0.1951  1.0702
  189SAPI  C31821888   0.546   6.292   3.859 -0.7852 -0.5627  0.0837
  189SAPI  H18X21889   0.463   6.235   3.813  0.4708 -0.3426 -2.6317
  189SAPI  H18Y21890   0.643   6.247   3.829 -0.0483  0.7553  0.3802
  189SAPI  H18Z21891   0.541   6.396   3.820 -0.9581  0.4287  2.5785
  190SAPI   C1221892   2.402   5.595   6.076 -0.4641  0.0068 -0.2150
  190SAPI    H221893   2.365   5.496   6.043  3.4618 -1.1413 -1.7313
  190SAPI    O221894   2.458   5.647   5.957 -1.1484 -0.2544  0.4481
  190SAPI   HO221895   2.551   5.669   5.964 -1.3452  0.9270 -0.2920
  190SAPI   C1321896   2.282   5.674   6.113 -0.0599  0.3579 -0.3866
  190SAPI    H321897   2.246   5.644   6.214 -1.0484 -0.4034 -0.9586
  190SAPI    O321898   2.174   5.662   6.018  0.0087  0.4410 -0.6177
  190SAPI   HO321899   2.096   5.637   6.067  1.2607 -2.6020  0.0423
  190SAPI   C1421900   2.324   5.823   6.142 -0.1290 -0.1004 -0.7877
  190SAPI    H421901   2.337   5.877   6.046  1.4160 -1.9698 -1.7103
  190SAPI    O421902   2.222   5.887   6.219  0.1450 -0.3078 -0.8262
  190SAPI   HO421903   2.148   5.914   6.164 -0.0342  2.5510  0.6000
  190SAPI   C1521904   2.463   5.846   6.219 -0.2901  0.1773  0.1471
  190SAPI    H521905   2.445   5.853   6.329  0.2120 -0.6916  0.2996
  190SAPI    O521906   2.543   5.962   6.184  0.2415 -0.5516  0.5579
  190SAPI   HO521907   2.549   5.964   6.088 -0.8585  2.4794  0.4491
  190SAPI   C1621908   2.558   5.721   6.223  0.0414 -0.1119  0.0678
  190SAPI    H621909   2.643   5.738   6.153  0.4794  0.0574  0.6337
  190SAPI    O621910   2.632   5.707   6.347 -0.0153  0.5827  0.3140
  190SAPI   HO621911   2.632   5.613   6.369  2.1625 -0.0694 -1.9182
  190SAPI   C1121912   2.500   5.584   6.188  0.3245 -0.5111  0.1749
  190SAPI    H121913   2.447   5.558   6.282 -1.0397 -1.2760 -0.7538
  190SAPI     P21914   2.586   5.328   6.154  0.3699 -0.0908  0.0075
  190SAPI   O1321915   2.466   5.289   6.235  0.1251  0.5827  0.0835
  190SAPI   O1421916   2.702   5.243   6.189  0.1846 -0.5492 -0.4904
  190SAPI   O1221917   2.607   5.495   6.162 -0.2172  0.1864 -0.5484
  190SAPI   O1121918   2.568   5.288   6.005 -0.1427 -0.1464 -0.2459
  190SAPI    C121919   2.618   5.360   5.892  0.4634 -0.1110 -0.4018
  190SAPI    HA21920   2.628   5.469   5.914  1.3787 -0.1356 -0.6537
  190SAPI    HB21921   2.718   5.321   5.867 -0.5106 -2.2097 -1.2598
  190SAPI    C221922   2.539   5.344   5.765 -0.0606  0.2061  0.1427
  190SAPI    HS21923   2.440   5.392   5.780 -0.0408  0.5798 -0.8573
  190SAPI   O2121924   2.524   5.207   5.738 -0.1602  0.2539 -0.5529
  190SAPI   C2121925   2.423   5.161   5.669 -0.0757 -0.0788  0.7684
  190SAPI   O2221926   2.323   5.221   5.635  0.3433  0.1953  0.2487
  190SAPI   C2221927   2.461   5.025   5.604 -0.2137  0.1534  0.7679
  190SAPI   H2R21928   2.551   5.047   5.542 -1.3214 -2.1217 -1.8661
  190SAPI   H2S21929   2.491   4.966   5.693 -2.5539  0.1645  1.6125
  190SAPI    C321930   2.606   5.411   5.639  0.3853 -0.0485 -0.7819
  190SAPI    HX21931   2.701   5.359   5.614  0.6363 -0.0663  0.1615
  190SAPI    HY21932   2.616   5.517   5.668 -0.2968  0.0238 -0.8000
  190SAPI   O3121933   2.521   5.404   5.524 -0.4043  0.0976  0.3262
  190SAPI   C3121934   2.414   5.480   5.515  0.7605 -0.2617 -0.5918
  190SAPI   O3221935   2.380   5.563   5.597  0.0611 -0.2156 -0.1831
  190SAPI   C3221936   2.332   5.436   5.396  0.0722  0.2641 -0.5611
  190SAPI   H2X21937   2.311   5.329   5.418  4.6012 -1.4424 -3.2548
  190SAPI   H2Y21938   2.407   5.437   5.314  2.4047  0.1464  1.4523
  190SAPI   C2321939   2.363   4.955   5.506  0.6061 -0.0617 -0.0800
  190SAPI   H3R21940   2.364   5.015   5.412 -1.2735 -0.3245 -0.3049
  190SAPI   H3S21941   2.257   4.951   5.539  1.0373 -1.2526  1.2491
  190SAPI   C2421942   2.414   4.812   5.457  0.0651  0.0191  0.7985
  190SAPI   H4R21943   2.515   4.840   5.420 -0.6407  0.9639 -0.4957
  190SAPI   H4S21944   2.350   4.781   5.372  2.5174 -0.8744 -0.8247
  190SAPI   C2521945   2.415   4.711   5.570  0.1707  0.5060  0.4381
  190SAPI   H5R21946   2.475   4.733   5.660 -1.3325  1.3129  1.2817
  190SAPI   C2621947   2.349   4.590   5.574  0.3041  0.1536  0.2266
  190SAPI   H6R21948   2.355   4.520   5.658 -0.3562 -0.0452  0.1123
  190SAPI   C2721949   2.256   4.554   5.466 -0.1453  0.2221 -0.6613
  190SAPI   H7R21950   2.287   4.589   5.366 -3.1593  2.7808 -0.8635
  190SAPI   H7S21951   2.162   4.611   5.484  0.1009  0.3989  0.0881
  190SAPI   C2821952   2.208   4.412   5.456  0.1929 -0.3933  0.0734
  190SAPI   H8R21953   2.141   4.388   5.540  1.9451 -1.6005  1.1738
  190SAPI   C2921954   2.236   4.318   5.366 -0.1389 -0.2927 -0.5445
  190SAPI   H9R21955   2.174   4.227   5.359  0.3678 -0.7883  1.0449
  190SAPI  C21021956   2.331   4.336   5.249  0.1178 -0.6267  0.5880
  190SAPI  H10R21957   2.405   4.253   5.243  1.1741  0.3761 -1.6564
  190SAPI  H10S21958   2.381   4.433   5.271 -0.7389  0.3007 -1.2925
  190SAPI  C21121959   2.248   4.337   5.121  0.0183  0.2516  0.1765
  190SAPI  H11R21960   2.156   4.278   5.113 -0.2733  0.7399 -0.1442
  190SAPI  C21221961   2.278   4.419   5.021  0.0821 -0.5817  0.5251
  190SAPI  H12R21962   2.211   4.413   4.934 -0.0210  2.9109  0.2404
  190SAPI  C21321963   2.395   4.516   5.008 -0.1047  0.6986 -0.5475
  190SAPI  H13R21964   2.381   4.600   5.078  1.8555  0.1664  0.5410
  190SAPI  H13S21965   2.385   4.577   4.915  1.0836  0.1416 -1.0655
  190SAPI  C21421966   2.534   4.460   5.008 -0.0046  0.1796  0.8119
  190SAPI  H14R21967   2.564   4.376   5.072 -1.6890 -0.6876  0.5260
  190SAPI  C21521968   2.634   4.504   4.926  0.1512  0.2828 -0.6183
  190SAPI  H15R21969   2.722   4.438   4.929 -0.6227 -0.7795 -0.6988
  190SAPI  C21621970   2.635   4.614   4.822  0.0546  0.1932  0.0724
  190SAPI  H16R21971   2.717   4.683   4.853  0.2774 -0.0358 -0.0071
  190SAPI  H16S21972   2.547   4.680   4.839  0.8631  1.1807  0.5181
  190SAPI  C21721973   2.646   4.569   4.676 -0.1304  0.5457 -0.2489
  190SAPI  H17R21974   2.551   4.518   4.647  0.7180 -1.6817  0.6258
  190SAPI  H17S21975   2.722   4.489   4.657  1.0903  1.9070 -1.3291
  190SAPI  C21821976   2.693   4.684   4.596  0.3081  0.5855 -0.1736
  190SAPI  H18R21977   2.748   4.641   4.509 -2.3808  1.1704 -2.2831
  190SAPI  H18S21978   2.764   4.751   4.650 -1.4563  1.3972  1.2111
  190SAPI  C21921979   2.578   4.772   4.542  0.0093 -0.1904  0.2135
  190SAPI  H19R21980   2.529   4.828   4.624 -1.5327 -1.4974  0.2249
  190SAPI  H19S21981   2.503   4.703   4.497 -0.4043  0.4022 -0.0086
  190SAPI  C22021982   2.609   4.870   4.437  0.1063 -0.7621 -0.5152
  190SAPI  H20R21983   2.680   4.941   4.484  1.2418 -2.5004  0.4980
  190SAPI  H20S21984   2.527   4.944   4.423 -0.0773 -0.8778 -0.0722
  190SAPI  H20T21985   2.657   4.834   4.344  1.2455 -0.3312 -0.1131
  190SAPI   C3321986   2.195   5.508   5.368  0.4428  0.2492 -0.6520
  190SAPI   H3X21987   2.210   5.615   5.342  0.4573  0.0711 -1.4280
  190SAPI   H3Y21988   2.139   5.496   5.463  2.6115  1.2257  0.8327
  190SAPI   C3421989   2.133   5.430   5.254 -0.2809  1.2139 -0.3551
  190SAPI   H4X21990   2.038   5.483   5.232 -0.1903  1.3896 -0.3200
  190SAPI   H4Y21991   2.106   5.329   5.292  0.8885  1.5280  1.4668
  190SAPI   C3521992   2.217   5.412   5.129 -0.3498  0.2784  0.1488
  190SAPI   H5X21993   2.292   5.335   5.155 -1.0337 -0.3501  0.2949
  190SAPI   H5Y21994   2.276   5.491   5.078  1.0927 -2.2387 -2.3499
  190SAPI   C3621995   2.126   5.338   5.021  0.0178 -0.8985  0.3887
  190SAPI   H6X21996   2.061   5.416   4.975  1.3444 -1.1089 -2.0302
  190SAPI   H6Y21997   2.060   5.263   5.071 -0.6582 -0.3828  0.2905
  190SAPI   C3721998   2.213   5.266   4.915  0.4320 -0.4405  0.3658
  190SAPI   H7X21999   2.253   5.177   4.968 -0.8601 -0.6597  1.0129
  190SAPI   H7Y22000   2.301   5.330   4.892 -0.6492  1.0964  0.3721
  190SAPI   C3822001   2.129   5.231   4.790 -0.3205 -0.1532  0.0882
  190SAPI   H8X22002   2.076   5.325   4.762  3.0498  2.4190  1.6188
  190SAPI   H8Y22003   2.055   5.149   4.808 -2.4613  0.4206 -4.5442
  190SAPI   C3922004   2.196   5.194   4.657  0.2160  0.0020  0.2213
  190SAPI   H9X22005   2.280   5.125   4.681  0.5416  0.1318 -0.5033
  190SAPI   H9Y22006   2.240   5.286   4.613  2.6280 -1.7036 -1.2293
  190SAPI  C31022007   2.122   5.122   4.545  0.1217 -0.6618  0.2065
  190SAPI  H10X22008   2.016   5.155   4.539  0.4521  1.0966  2.5535
  190SAPI  H10Y22009   2.126   5.015   4.572 -3.7951 -0.8354  0.6311
  190SAPI  C31122010   2.189   5.134   4.405  0.6819 -0.4195 -0.1827
  190SAPI  H11X22011   2.141   5.049   4.351 -0.6970  0.0623  0.2463
  190SAPI  H11Y22012   2.299   5.119   4.416  0.4831 -1.5494  0.4643
  190SAPI  C31222013   2.151   5.260   4.325  0.1300  0.1636 -0.3665
  190SAPI  H12X22014   2.168   5.354   4.383  1.4308  1.5810 -2.8841
  190SAPI  H12Y22015   2.048   5.249   4.285  0.2683 -1.6947 -0.3229
  190SAPI  C31322016   2.237   5.282   4.201 -0.8438 -0.6738  0.2232
  190SAPI  H13X22017   2.215   5.207   4.121 -0.0997 -1.2423  0.5377
  190SAPI  H13Y22018   2.346   5.293   4.219 -0.9480  0.4088  0.2201
  190SAPI  C31422019   2.207   5.421   4.138  0.2324  0.2945  0.4724
  190SAPI  H14X22020   2.197   5.509   4.204 -1.0895  0.8798 -0.4537
  190SAPI  H14Y22021   2.108   5.414   4.087 -0.5985 -0.3816  2.0844
  190SAPI  C31522022   2.299   5.485   4.028  0.0602  0.2357 -0.9551
  190SAPI  H15X22023   2.392   5.525   4.074 -0.5188  0.3875  0.1169
  190SAPI  H15Y22024   2.237   5.567   3.987  0.0846 -0.7859 -3.1598
  190SAPI  C31622025   2.335   5.397   3.910  0.5869  0.6551 -0.0547
  190SAPI  H16X22026   2.234   5.384   3.866  0.3987  0.6929  0.3649
  190SAPI  H16Y22027   2.368   5.296   3.945 -0.4579  0.0859 -0.6516
  190SAPI  C31722028   2.443   5.448   3.815  0.5023  0.1585  0.1481
  190SAPI  H17X22029   2.537   5.474   3.868 -0.1638  1.7740  0.5838
  190SAPI  H17Y22030   2.401   5.537   3.765 -1.8718  0.1266  1.9248
  190SAPI  C31822031   2.457   5.344   3.707  0.1632 -0.2292 -0.0872
  190SAPI  H18X22032   2.358   5.304   3.676 -0.5213 -1.4906  3.3200
  190SAPI  H18Y22033   2.507   5.249   3.737  1.2972  0.2566 -0.3842
  190SAPI  H18Z22034   2.509   5.384   3.617 -0.8509  0.5471 -0.3438
  191SAPI   C1222035   3.139   0.506   1.708  0.0950  0.0362  0.1105
  191SAPI    H222036   3.169   0.563   1.618  0.2982  0.2923  0.3391
  191SAPI    O222037   2.998   0.482   1.689 -0.6299 -0.4291 -0.3630
  191SAPI   HO222038   2.977   0.460   1.598  0.0330 -1.3169 -0.3135
  191SAPI   C1322039   3.220   0.378   1.710  0.2666  0.0519  0.2528
  191SAPI    H322040   3.325   0.415   1.715  0.7960 -1.5299  1.5900
  191SAPI    O322041   3.203   0.312   1.579  0.2535  0.2136 -0.6804
  191SAPI   HO322042   3.130   0.250   1.588  0.4493  0.2124  1.1861
  191SAPI   C1422043   3.197   0.291   1.827  0.6417  0.0709 -0.6491
  191SAPI    H422044   3.095   0.259   1.799  0.4608  0.1946 -0.1448
  191SAPI    O422045   3.283   0.170   1.841 -0.1953  0.0466  0.6359
  191SAPI   HO422046   3.220   0.098   1.832  0.3555 -0.4674  0.7906
  191SAPI   C1522047   3.177   0.362   1.958  0.6106 -0.0836  0.3633
  191SAPI    H522048   3.284   0.372   1.987  0.4490  0.9998  0.6089
  191SAPI    O522049   3.104   0.285   2.052 -0.3118 -0.4513 -0.5366
  191SAPI   HO522050   3.154   0.219   2.101  2.5954  0.1494 -2.4255
  191SAPI   C1622051   3.133   0.514   1.956  0.3407 -0.4226  0.5042
  191SAPI    H622052   3.022   0.525   1.951  0.3745  1.7490  2.8476
  191SAPI    O622053   3.169   0.581   2.077 -0.2013  0.7805 -0.4337
  191SAPI   HO622054   3.126   0.666   2.069  0.3705  1.1901  0.5674
  191SAPI   C1122055   3.176   0.588   1.832 -0.2850  0.1602  0.7230
  191SAPI    H122056   3.286   0.605   1.835 -0.1074 -0.9182  0.5751
  191SAPI     P22057   3.152   0.857   1.868  0.1678  0.0755 -0.5263
  191SAPI   O1322058   3.084   0.958   1.785 -0.1425  0.1347  0.5143
  191SAPI   O1422059   3.302   0.855   1.864 -0.5103  0.7521  0.0577
  191SAPI   O1222060   3.096   0.711   1.820  0.2644 -0.6725 -0.1031
  191SAPI   O1122061   3.102   0.856   2.016  0.1326  0.0015  0.4805
  191SAPI    C122062   3.160   0.952   2.107 -0.9939 -0.9317 -0.8909
  191SAPI    HA22063   3.252   1.005   2.075 -1.4044 -0.5370 -1.4396
  191SAPI    HB22064   3.085   1.027   2.139 -2.1828 -2.0147 -1.0554
  191SAPI    C222065   3.213   0.890   2.242  0.1997  0.1240  0.1248
  191SAPI    HS22066   3.295   0.822   2.211 -1.7693 -0.9989 -3.1708
  191SAPI   O2122067   3.121   0.809   2.303  0.2762  0.4310 -0.0400
  191SAPI   C2122068   3.166   0.729   2.391 -0.1039  0.0936 -0.2191
  191SAPI   O2222069   3.282   0.691   2.398 -0.5253 -0.1603 -0.0433
  191SAPI   C2222070   3.050   0.701   2.481  0.7389 -0.2804 -0.8899
  191SAPI   H2R22071   2.985   0.790   2.488 -0.8694 -1.5433  2.9217
  191SAPI   H2S22072   2.993   0.619   2.431  0.3498 -0.5152 -0.0636
  191SAPI    C322073   3.257   1.015   2.334  0.6425  0.0864  1.0503
  191SAPI    HX22074   3.160   1.067   2.352 -0.4690 -0.8878 -1.5796
  191SAPI    HY22075   3.322   1.088   2.283  1.0799 -1.7325 -1.1690
  191SAPI   O3122076   3.322   0.980   2.458 -0.9705 -0.3473 -0.3493
  191SAPI   C3122077   3.449   0.932   2.459  0.1099 -1.1506  0.3256
  191SAPI   O3222078   3.514   0.915   2.361 -0.5530  0.2799  0.1833
  191SAPI   C3222079   3.500   0.921   2.605 -1.0735 -0.1825  0.0792
  191SAPI   H2X22080   3.429   0.975   2.670  0.7390  1.1217  1.0497
  191SAPI   H2Y22081   3.593   0.981   2.612  0.4470 -2.2829 -1.0173
  191SAPI   C2322082   3.093   0.661   2.627  0.2881  0.6624  0.8501
  191SAPI   H3R22083   3.159   0.572   2.617 -0.9812 -0.4027  1.6647
  191SAPI   H3S22084   3.000   0.643   2.685 -0.2036 -0.2549 -0.1794
  191SAPI   C2422085   3.169   0.774   2.702  0.4931  0.2109  0.2835
  191SAPI   H4R22086   3.264   0.793   2.649 -0.4541  2.3104 -0.8175
  191SAPI   H4S22087   3.202   0.738   2.802 -1.4278  0.0313  0.9055
  191SAPI   C2522088   3.105   0.909   2.706  0.7835 -0.5489 -0.0571
  191SAPI   H5R22089   3.110   0.960   2.608 -1.5634  0.7805  0.4517
  191SAPI   C2622090   3.053   0.986   2.801  0.2483 -0.4605 -0.1252
  191SAPI   H6R22091   3.005   1.081   2.773  1.4383  0.2934  0.3159
  191SAPI   C2722092   3.042   0.943   2.945 -0.3767  0.4445  0.5291
  191SAPI   H7R22093   3.049   0.832   2.956  1.0761  0.7618  3.5492
  191SAPI   H7S22094   2.941   0.968   2.983 -0.8991  1.8957 -1.6330
  191SAPI   C2822095   3.156   0.997   3.027  0.2309 -0.0570 -0.3457
  191SAPI   H8R22096   3.256   0.962   2.997  1.3296  0.7100  2.1430
  191SAPI   C2922097   3.136   1.075   3.137 -0.0832 -0.0559 -0.3093
  191SAPI   H9R22098   3.226   1.117   3.185 -0.5418  0.7883 -0.1711
  191SAPI  C21022099   3.003   1.126   3.187  0.0806  0.3178 -0.2399
  191SAPI  H10R22100   2.935   1.152   3.103  0.3025 -1.8377 -1.1589
  191SAPI  H10S22101   3.018   1.228   3.228 -1.1053  1.1685 -1.8146
  191SAPI  C21122102   2.921   1.032   3.268  0.1932 -0.1038 -0.4150
  191SAPI  H11R22103   2.838   0.982   3.216  0.6808  0.0478 -1.3467
  191SAPI  C21222104   2.928   1.028   3.404  0.4731  0.0828 -0.9070
  191SAPI  H12R22105   2.879   0.942   3.454  1.0733 -0.7826 -1.7686
  191SAPI  C21322106   3.020   1.113   3.489 -0.1275 -0.4652 -0.3431
  191SAPI  H13R22107   3.084   1.187   3.436 -0.1025 -2.1976 -2.8839
  191SAPI  H13S22108   3.104   1.043   3.508 -0.5996 -0.8165  0.5324
  191SAPI  C21422109   2.973   1.176   3.621  0.4009 -0.6367  0.2405
  191SAPI  H14R22110   2.921   1.270   3.601  1.3718  0.1470  1.3028
  191SAPI  C21522111   2.999   1.131   3.740  0.7004  0.7130 -0.3543
  191SAPI  H15R22112   2.955   1.184   3.825 -2.4725 -0.1056 -1.3276
  191SAPI  C21622113   3.062   0.998   3.775  0.1783  0.0039  0.2259
  191SAPI  H16R22114   3.170   1.020   3.781  0.4470 -0.9319 -0.7944
  191SAPI  H16S22115   3.039   0.918   3.701  0.8772 -1.0481  1.1044
  191SAPI  C21722116   3.016   0.934   3.910  0.0433  0.4370 -0.2279
  191SAPI  H17R22117   2.936   0.859   3.898  0.7742 -0.2479 -0.9270
  191SAPI  H17S22118   2.991   1.017   3.980  0.6160  1.7622 -1.5190
  191SAPI  C21822119   3.124   0.850   3.981 -0.6735 -0.6230  0.0775
  191SAPI  H18R22120   3.213   0.909   4.011  0.1001 -1.0635 -1.2358
  191SAPI  H18S22121   3.159   0.775   3.906  0.0177 -0.6365  0.4166
  191SAPI  C21922122   3.069   0.770   4.098  0.4889 -0.3812 -0.3630
  191SAPI  H19R22123   3.004   0.690   4.057  0.7223 -2.4223  2.8885
  191SAPI  H19S22124   3.010   0.836   4.164 -0.6359 -2.5430  0.9107
  191SAPI  C22022125   3.180   0.706   4.182 -1.2129 -0.3927 -0.8185
  191SAPI  H20R22126   3.244   0.788   4.220 -0.2422 -1.3434 -0.3556
  191SAPI  H20S22127   3.242   0.645   4.113 -1.1065 -0.4452 -0.6783
  191SAPI  H20T22128   3.151   0.642   4.268  0.1035  0.6241  0.4192
  191SAPI   C3322129   3.537   0.779   2.634  0.7219  0.3858  0.3706
  191SAPI   H3X22130   3.618   0.749   2.563  0.4656  1.9546 -0.6377
  191SAPI   H3Y22131   3.453   0.707   2.621 -0.3948  1.0960  3.0798
  191SAPI   C3422132   3.588   0.763   2.777  0.1823  0.2737 -0.2956
  191SAPI   H4X22133   3.692   0.803   2.784  1.2998 -2.2013 -1.4237
  191SAPI   H4Y22134   3.603   0.654   2.792  2.1921  0.5659  0.1742
  191SAPI   C3522135   3.504   0.819   2.893  0.3890  0.1434 -0.1941
  191SAPI   H5X22136   3.404   0.771   2.907 -0.2020  1.2496 -0.5139
  191SAPI   H5Y22137   3.469   0.919   2.859  1.2543  0.6542  0.3908
  191SAPI   C3622138   3.577   0.842   3.025 -0.4035  0.2218 -0.4324
  191SAPI   H6X22139   3.657   0.918   3.013 -0.2653  0.1866  0.2349
  191SAPI   H6Y22140   3.618   0.742   3.052 -1.4096  0.2634  1.3801
  191SAPI   C3722141   3.486   0.891   3.136  0.0422  0.1809 -0.0587
  191SAPI   H7X22142   3.397   0.825   3.136 -1.7720  2.3738 -2.8131
  191SAPI   H7Y22143   3.451   0.996   3.130  0.1738  0.1257 -3.5680
  191SAPI   C3822144   3.555   0.869   3.267 -0.6900 -0.3859  0.3628
  191SAPI   H8X22145   3.647   0.931   3.262 -0.0091 -1.3141  0.9313
  191SAPI   H8Y22146   3.580   0.761   3.280  1.0529 -0.4505 -2.5237
  191SAPI   C3922147   3.484   0.916   3.397 -0.2886 -0.2206 -0.5994
  191SAPI   H9X22148   3.544   0.892   3.488 -0.9021  0.1695 -0.0908
  191SAPI   H9Y22149   3.390   0.859   3.407 -2.6947  3.3473 -1.2606
  191SAPI  C31022150   3.454   1.064   3.407 -0.0069 -0.2455 -0.6061
  191SAPI  H10X22151   3.383   1.095   3.327  1.8241  0.0169 -2.1968
  191SAPI  H10Y22152   3.551   1.112   3.381  0.7660  0.1257  2.5586
  191SAPI  C31122153   3.413   1.110   3.554  0.2511  0.4689  0.0301
  191SAPI  H11X22154   3.479   1.056   3.625 -0.7907 -0.9750 -0.0401
  191SAPI  H11Y22155   3.313   1.070   3.582 -0.1749 -0.0920 -2.0691
  191SAPI  C31222156   3.408   1.267   3.570 -0.2719 -0.5374 -0.1509
  191SAPI  H12X22157   3.342   1.304   3.489  0.7151  0.5083 -0.5024
  191SAPI  H12Y22158   3.508   1.307   3.545 -0.6206  0.4597  0.0354
  191SAPI  C31322159   3.359   1.303   3.713  0.2015 -0.4385  0.5652
  191SAPI  H13X22160   3.257   1.260   3.724 -0.6305  1.5588  1.1936
  191SAPI  H13Y22161   3.346   1.413   3.724  2.2451 -0.2165  1.1560
  191SAPI  C31422162   3.459   1.263   3.820 -0.6197 -0.2429 -0.4303
  191SAPI  H14X22163   3.564   1.268   3.783 -0.9366 -0.4304 -1.3798
  191SAPI  H14Y22164   3.437   1.157   3.843 -0.8990 -0.1595 -0.3117
  191SAPI  C31522165   3.441   1.350   3.944  0.0289  0.7883 -0.0519
  191SAPI  H15X22166   3.337   1.328   3.976 -0.3792  2.6171  0.0167
  191SAPI  H15Y22167   3.445   1.455   3.906  2.4343  1.0041  0.6082
  191SAPI  C31622168   3.543   1.326   4.056 -0.0752  0.2854  0.3694
  191SAPI  H16X22169   3.648   1.343   4.021 -1.2835  1.7136 -2.9919
  191SAPI  H16Y22170   3.528   1.226   4.102  1.9420 -0.5971 -0.7361
  191SAPI  C31722171   3.529   1.427   4.173  0.5838 -0.2214  0.4249
  191SAPI  H17X22172   3.425   1.466   4.173  0.0728 -1.5582  0.5171
  191SAPI  H17Y22173   3.600   1.507   4.141 -0.4232 -0.1551 -1.8973
  191SAPI  C31822174   3.563   1.386   4.314  0.1571  0.5956  0.2782
  191SAPI  H18X22175   3.504   1.297   4.345 -0.2188  0.5704 -0.4787
  191SAPI  H18Y22176   3.550   1.478   4.376  1.2138  1.9599 -1.4205
  191SAPI  H18Z22177   3.671   1.364   4.310  0.7769  2.8727  2.0503
  192SAPI   C1222178   5.783   6.720   1.812 -0.1164 -0.3744 -0.6029
  192SAPI    H222179   5.802   6.807   1.878 -0.1909 -2.1656  1.8965
  192SAPI    O222180   5.827   6.602   1.881  0.5829 -0.4544  0.3393
  192SAPI   HO222181   5.917   6.578   1.856  0.3924 -1.3550  0.4690
  192SAPI   C1322182   5.635   6.721   1.788 -0.0382 -0.5977  0.3404
  192SAPI    H322183   5.604   6.811   1.730  0.2341 -0.3372  0.5946
  192SAPI    O322184   5.559   6.720   1.912  0.3418 -0.2385 -0.3124
  192SAPI   HO322185   5.612   6.680   1.981  0.3923 -0.3282 -0.4033
  192SAPI   C1422186   5.595   6.597   1.704 -0.5820 -0.5062 -0.0783
  192SAPI    H422187   5.608   6.506   1.766  1.5912 -1.0808 -1.2863
  192SAPI    O422188   5.457   6.601   1.663 -0.0316  0.1642 -0.7814
  192SAPI   HO422189   5.449   6.663   1.590  0.7357  0.5583 -0.5450
  192SAPI   C1522190   5.681   6.571   1.579  0.5964  0.2532  0.1084
  192SAPI    H522191   5.645   6.644   1.504 -1.0978  0.2744  0.8856
  192SAPI    O522192   5.660   6.446   1.524  0.3042 -0.4045  0.0299
  192SAPI   HO522193   5.591   6.461   1.459 -0.4114  0.0534  0.8722
  192SAPI   C1622194   5.827   6.619   1.585  0.5514  0.0920 -0.1899
  192SAPI    H622195   5.878   6.535   1.637 -1.8651 -0.8059  0.9153
  192SAPI    O622196   5.890   6.640   1.457  0.1130 -0.5109  0.0511
  192SAPI   HO622197   5.976   6.669   1.487 -1.3286  1.1522  3.0367
  192SAPI   C1122198   5.855   6.734   1.675  0.1808 -0.1964  0.3894
  192SAPI    H122199   5.807   6.824   1.632 -3.2061 -2.3655 -0.7902
  192SAPI     P22200   6.073   6.891   1.716 -0.1413 -0.5080  0.1293
  192SAPI   O1322201   6.002   6.988   1.626 -0.3674 -0.3263  0.3204
  192SAPI   O1422202   6.220   6.875   1.701  0.0286  0.0154 -0.3861
  192SAPI   O1222203   5.996   6.751   1.701 -0.1924 -0.1705  0.0927
  192SAPI   O1122204   6.038   6.938   1.860  0.2502 -0.6599  0.5242
  192SAPI    C122205   6.126   7.030   1.930  0.8690  0.4897  0.8561
  192SAPI    HA22206   6.233   7.008   1.908  0.4648  1.5618 -2.9418
  192SAPI    HB22207   6.103   7.132   1.893  2.4098  0.7548  0.5801
  192SAPI    C222208   6.094   7.021   2.087 -0.2303  0.3057 -0.2225
  192SAPI    HS22209   6.078   7.121   2.132  0.1520  0.5588 -0.6438
  192SAPI   O2122210   6.197   6.942   2.163  0.2538  0.1154  0.2732
  192SAPI   C2122211   6.308   7.011   2.201 -0.3889  0.6240  0.3292
  192SAPI   O2222212   6.328   7.129   2.175  0.1884  0.1652  0.0816
  192SAPI   C2222213   6.391   6.906   2.276  0.5152 -0.0913  0.3275
  192SAPI   H2R22214   6.325   6.859   2.352 -0.0061  0.4595  0.2182
  192SAPI   H2S22215   6.427   6.829   2.204 -3.2468 -1.4591 -0.3179
  192SAPI    C322216   5.944   6.969   2.103 -0.0312  0.5564  0.2869
  192SAPI    HX22217   5.935   6.860   2.084 -0.5002  0.9249 -1.8254
  192SAPI    HY22218   5.878   7.001   2.019  0.6417 -0.5883 -0.7054
  192SAPI   O3122219   5.886   7.002   2.227 -0.3415 -0.1769 -0.2415
  192SAPI   C3122220   5.805   6.916   2.292  0.2232  0.6168  0.2376
  192SAPI   O3222221   5.764   6.814   2.236 -0.3539  0.0654  0.0730
  192SAPI   C3222222   5.749   6.986   2.420 -0.5886 -0.5537 -0.3322
  192SAPI   H2X22223   5.650   7.028   2.393  0.1655  2.9068  1.7159
  192SAPI   H2Y22224   5.811   7.074   2.446 -0.0285 -1.0691  0.1064
  192SAPI   C2322225   6.503   6.964   2.363 -0.1181  0.8831  0.4581
  192SAPI   H3R22226   6.462   7.025   2.446  1.8148 -0.0266  2.1852
  192SAPI   H3S22227   6.568   7.031   2.303 -1.7996  1.9608 -0.2408
  192SAPI   C2422228   6.595   6.860   2.426  0.1649  0.8407  0.1971
  192SAPI   H4R22229   6.638   6.798   2.345  1.4083  0.4835  1.1055
  192SAPI   H4S22230   6.542   6.781   2.484  0.8470 -1.1269 -1.7301
  192SAPI   C2522231   6.697   6.921   2.509 -0.7944 -0.5222 -1.0493
  192SAPI   H5R22232   6.783   6.954   2.448 -0.6655  2.6201  0.6168
  192SAPI   C2622233   6.692   6.940   2.641 -0.2888 -0.4177 -0.1646
  192SAPI   H6R22234   6.779   6.973   2.701 -1.0989  0.2768  0.6534
  192SAPI   C2722235   6.584   6.891   2.736  0.1831 -0.5159  0.7038
  192SAPI   H7R22236   6.625   6.795   2.774  1.6448 -0.4645 -0.5933
  192SAPI   H7S22237   6.491   6.849   2.692 -0.8567 -0.6356  2.8933
  192SAPI   C2822238   6.544   6.988   2.847  0.0773  0.4061 -0.4628
  192SAPI   H8R22239   6.473   7.066   2.815  0.0702 -0.1221 -1.7795
  192SAPI   C2922240   6.591   6.975   2.974 -0.5539  0.0537  0.0088
  192SAPI   H9R22241   6.538   7.038   3.047 -1.1388  0.2624 -0.5782
  192SAPI  C21022242   6.687   6.874   3.028  0.3534  0.5641 -0.4609
  192SAPI  H10R22243   6.727   6.815   2.943  0.7765 -0.0726  0.1725
  192SAPI  H10S22244   6.626   6.802   3.086 -1.8301 -0.3542 -3.6422
  192SAPI  C21122245   6.791   6.951   3.112  0.0212 -0.2049  0.4005
  192SAPI  H11R22246   6.859   7.003   3.043  0.4569 -0.6297  0.5036
  192SAPI  C21222247   6.797   6.980   3.243 -0.3291 -0.1734 -0.7027
  192SAPI  H12R22248   6.887   7.032   3.276  0.6321 -1.2746 -1.5094
  192SAPI  C21322249   6.710   6.915   3.348 -0.1722  0.3614 -0.3757
  192SAPI  H13R22250   6.782   6.884   3.427  0.0080 -3.4872 -1.8363
  192SAPI  H13S22251   6.669   6.817   3.316 -0.2088 -0.1533  1.1662
  192SAPI  C21422252   6.591   6.990   3.394  0.1789  0.1117  0.3191
  192SAPI  H14R22253   6.502   6.989   3.329  1.1382  2.7443 -1.1715
  192SAPI  C21522254   6.584   7.052   3.515  0.9821  0.1303  0.2215
  192SAPI  H15R22255   6.488   7.097   3.543 -0.1310 -1.2148 -1.3028
  192SAPI  C21622256   6.695   7.055   3.617  0.1685 -0.3462  0.0757
  192SAPI  H16R22257   6.741   6.954   3.624  0.9256  0.0712  1.3722
  192SAPI  H16S22258   6.644   7.059   3.716 -1.4085 -2.8718 -0.5393
  192SAPI  C21722259   6.808   7.163   3.608 -0.2108 -0.2309 -0.1970
  192SAPI  H17R22260   6.869   7.134   3.520  1.9602  1.1595  0.7699
  192SAPI  H17S22261   6.881   7.160   3.691  1.6085  0.3670 -1.7192
  192SAPI  C21822262   6.756   7.304   3.590  1.2523  0.0420 -0.0529
  192SAPI  H18R22263   6.690   7.304   3.501  2.6112  1.2324 -1.1216
  192SAPI  H18S22264   6.841   7.370   3.560  1.1113 -0.3665 -1.3925
  192SAPI  C21922265   6.676   7.356   3.715  0.6009  1.1298  0.2655
  192SAPI  H19R22266   6.666   7.274   3.789 -2.4395 -0.1784 -1.3871
  192SAPI  H19S22267   6.573   7.386   3.686  1.0470  2.9963  0.4967
  192SAPI  C22022268   6.744   7.468   3.786 -0.1448 -0.3065 -0.2675
  192SAPI  H20R22269   6.676   7.501   3.868 -2.4319  2.4515 -3.0218
  192SAPI  H20S22270   6.765   7.553   3.718 -1.7161  0.5977  0.3083
  192SAPI  H20T22271   6.841   7.435   3.828 -0.7075 -1.0781  0.4676
  192SAPI   C3322272   5.737   6.895   2.533 -0.2136 -0.2791  0.0281
  192SAPI   H3X22273   5.711   6.792   2.500 -2.4922 -0.4594  2.1123
  192SAPI   H3Y22274   5.648   6.916   2.597  0.0681  0.6857  0.1187
  192SAPI   C3422275   5.852   6.913   2.631 -0.4572  0.1452 -0.2658
  192SAPI   H4X22276   5.862   7.023   2.643 -0.6559  0.2293 -0.8254
  192SAPI   H4Y22277   5.943   6.866   2.589  0.5178  1.9370 -0.2435
  192SAPI   C3522278   5.838   6.840   2.770 -0.2209  0.1601  0.2474
  192SAPI   H5X22279   5.745   6.884   2.812 -0.6447  1.0791 -1.5718
  192SAPI   H5Y22280   5.925   6.873   2.832  0.6945  0.7491 -1.2834
  192SAPI   C3622281   5.808   6.694   2.772  0.5477  0.8607  0.2298
  192SAPI   H6X22282   5.910   6.650   2.765  0.4817  0.7448 -0.0480
  192SAPI   H6Y22283   5.753   6.669   2.679  0.0230 -0.6200  0.9102
  192SAPI   C3722284   5.729   6.660   2.900 -0.3625  0.0348  0.3219
  192SAPI   H7X22285   5.707   6.551   2.901 -2.4306  0.4055  0.7515
  192SAPI   H7Y22286   5.634   6.718   2.902 -0.8609 -0.7382 -0.1483
  192SAPI   C3822287   5.810   6.678   3.029 -0.9835  0.4612  0.6286
  192SAPI   H8X22288   5.836   6.784   3.051 -2.4959  0.9201  0.3502
  192SAPI   H8Y22289   5.902   6.626   2.993 -2.4181 -0.5512 -1.8483
  192SAPI   C3922290   5.759   6.618   3.163  0.1025 -0.2063  0.3728
  192SAPI   H9X22291   5.691   6.532   3.144  2.1090 -1.5656 -1.1032
  192SAPI   H9Y22292   5.688   6.690   3.209 -0.7483 -0.6000 -0.3025
  192SAPI  C31022293   5.870   6.552   3.251  0.0627 -0.9129  0.0481
  192SAPI  H10X22294   5.950   6.628   3.262 -0.2524 -0.8696  2.6325
  192SAPI  H10Y22295   5.911   6.458   3.208 -0.1997 -3.0144  3.9227
  192SAPI  C31122296   5.834   6.506   3.394 -0.0031  0.1768  0.2319
  192SAPI  H11X22297   5.927   6.518   3.452  0.0059 -0.8330  0.4334
  192SAPI  H11Y22298   5.798   6.402   3.411 -3.3611  0.2528 -4.3286
  192SAPI  C31222299   5.737   6.602   3.469  0.6109 -0.0448  0.5907
  192SAPI  H12X22300   5.640   6.608   3.416  2.2396  1.0761 -2.4832
  192SAPI  H12Y22301   5.780   6.704   3.470 -0.8519  0.5993  0.1096
  192SAPI  C31322302   5.712   6.559   3.616  0.4217  0.1348  0.7410
  192SAPI  H13X22303   5.694   6.449   3.607 -1.6136  0.5586 -1.5366
  192SAPI  H13Y22304   5.619   6.609   3.649 -0.0053 -0.6547  0.7555
  192SAPI  C31422305   5.833   6.600   3.698  0.3576  0.0057 -0.0890
  192SAPI  H14X22306   5.873   6.699   3.667  2.3607 -0.9235 -0.6393
  192SAPI  H14Y22307   5.915   6.531   3.667  0.0669  0.4076 -1.8809
  192SAPI  C31522308   5.800   6.592   3.852 -0.9893 -0.3692 -0.3545
  192SAPI  H15X22309   5.787   6.484   3.877 -0.7378  0.0859  1.8603
  192SAPI  H15Y22310   5.709   6.652   3.869 -2.4041 -2.3515 -0.6054
  192SAPI  C31622311   5.908   6.648   3.952 -0.1149  0.1120 -0.5455
  192SAPI  H16X22312   5.922   6.753   3.920 -0.7652 -0.4157 -2.7669
  192SAPI  H16Y22313   6.005   6.594   3.963 -0.2538  0.0719  0.6021
  192SAPI  C31722314   5.843   6.657   4.092 -0.9564 -0.2668  0.3499
  192SAPI  H17X22315   5.798   6.558   4.111 -0.8758 -0.4450 -0.3454
  192SAPI  H17Y22316   5.759   6.730   4.094 -1.4404 -0.8352  2.1488
  192SAPI  C31822317   5.938   6.710   4.194 -0.2186  0.0014 -0.2615
  192SAPI  H18X22318   6.030   6.648   4.183  0.0930  0.4138  0.0011
  192SAPI  H18Y22319   5.905   6.689   4.298  2.0020  0.3404  0.5736
  192SAPI  H18Z22320   5.961   6.818   4.190 -0.3474  0.0205 -0.4715
  193SOD    SOD22321   2.184   3.301   6.326 -0.1154 -0.1664  0.0613
  194SOD    SOD22322   4.825   0.169   1.852  0.3404 -0.2795  0.2706
  195SOD    SOD22323   2.278   5.662   5.787 -0.3204  0.5468  0.5208
  196SOD    SOD22324   1.955   2.654   6.426  0.6560  0.1814  0.3045
  197SOD    SOD22325   1.646   5.766   6.914  0.3266 -0.2236  0.0059
  198SOD    SOD22326   2.814   1.364   7.744 -0.2422 -0.2622  0.0560
  199SOD    SOD22327   3.244   6.617   7.999 -0.2568  0.6384  0.0769
  200SOD    SOD22328   5.651   3.137   1.656  0.3597 -0.3233 -0.3884
  201SOD    SOD22329   0.585   4.598   7.890  0.7846 -0.2266  0.4539
  202SOD    SOD22330   4.309   0.107   1.753 -0.4382  0.3684  0.0315
  203SOD    SOD22331   0.114   0.932   0.683  0.8084  0.0180 -0.0960
  204SOD    SOD22332   6.320   6.801   0.020  0.4132 -0.1056 -0.2230
  205SOD    SOD22333   4.548   1.391   8.158  0.2679  0.0223  0.4096
  206SOD    SOD22334   3.906   2.073   6.839 -0.2686  0.1905  0.1130
  207SOD    SOD22335   3.701   0.789   2.035 -0.0067  0.3500  0.3063
  208SOD    SOD22336   4.425   3.248   6.184  0.4612  0.1721 -0.1046
  209SOD    SOD22337   6.586   5.785   0.057 -0.3823 -0.1708  0.2642
  210SOD    SOD22338   6.648   2.946   0.699  0.2179 -0.3813  0.1423
  211SOD    SOD22339   3.723   6.410   7.038  0.1618 -0.1622 -0.9542
  212SOD    SOD22340   4.453   2.896   7.736 -0.3075  0.1837  0.7595
  213SOD    SOD22341   4.829   4.962   1.548 -0.4369  0.4644  0.2562
  214SOD    SOD22342   0.010   4.303   6.441  0.0549 -0.6684  0.4395
  215SOD    SOD22343   3.164   4.333   1.716  0.0963  0.6839  0.5158
  216SOD    SOD22344   6.010   3.305   2.207  0.5495  0.4488  0.2436
  217SOD    SOD22345   1.297   4.228   0.219  0.5766  0.1543  0.2033
  218SOD    SOD22346   0.857   1.895   1.131  0.0591 -0.0703  0.3526
  219SOD    SOD22347   1.562   2.222   6.508  0.3845  0.0909  0.2553
  220SOD    SOD22348   3.107   0.874   8.126 -0.2859 -0.0007 -0.3668
  221SOD    SOD22349   4.829   1.470   6.285  0.2507  0.2607 -0.1103
  222SOD    SOD22350   4.284   4.678   6.580  0.1109  0.0527 -0.1838
  223SOD    SOD22351   1.399   2.683   7.631  0.0192 -0.1807 -0.2233
  224SOD    SOD22352   4.544   5.565   6.583 -0.0877  0.4331 -0.0076
  225SOD    SOD22353   1.825   0.864   8.472  0.2091 -0.2156 -0.4381
  226SOD    SOD22354   2.747   2.690   6.424 -0.2093 -0.1533 -0.0074
  227SOD    SOD22355   0.740   2.450   1.115  0.0057  0.0746 -0.1875
  228SOD    SOD22356   2.917   3.617   1.619 -0.0153 -0.4946  0.0883
  229SOD    SOD22357   5.062   6.296   8.687 -0.1012  0.5285 -0.3928
  230CLA    CLA22358   3.717   6.001   7.281  0.1000 -0.0413  0.3282
  231CLA    CLA22359   0.331   6.649   7.602 -0.2458  0.2149  0.0037
  232CLA    CLA22360   4.159   0.706   7.857 -0.0583  0.2744  0.0208
  233CLA    CLA22361   5.522   4.226   8.255  0.1317  0.0577  0.2940
  234CLA    CLA22362   0.232   1.276   8.601  0.1808  0.6630  0.4859
  235CLA    CLA22363   1.575   3.650   6.961  0.1273 -0.0563  0.0065
  236CLA    CLA22364   2.392   3.601   7.224  0.0374  0.0105 -0.1664
  237CLA    CLA22365   2.707   1.165   7.595 -0.3912 -0.3047 -0.4024
  238CLA    CLA22366   3.825   3.235   7.446 -0.1444  0.0221 -0.2084
  239CLA    CLA22367   5.920   1.301   0.775 -0.0168  0.3667  0.0393
  240CLA    CLA22368   0.395   3.456   1.166 -0.1848  0.1808  0.2325
  241CLA    CLA22369   4.188   2.772   1.210 -0.2937 -0.3608  0.3589
  242CLA    CLA22370   0.607   4.321   7.903 -0.1719 -0.0301 -0.0667
  243CLA    CLA22371   2.461   6.609   8.289  0.0785  0.0156 -0.0571
  244CLA    CLA22372   1.447   1.048   6.707 -0.0352 -0.4202 -0.2295
  245CLA    CLA22373   6.607   3.894   1.267  0.8294 -0.0349  0.0320
  246CLA    CLA22374   3.768   3.126   8.331  0.1258  0.2659 -0.2711
  247TIP3   OH222375   6.225   2.654   1.006 -0.1161 -0.3521  0.1816
  247TIP3    H122376   6.147   2.616   1.046 -0.1762 -0.5729 -0.1476
  247TIP3    H222377   6.217   2.634   0.913  0.1700 -0.0898  0.0993
  248TIP3   OH222378   2.628   4.001   0.963  0.3138  0.6123 -0.2915
  248TIP3    H122379   2.560   4.049   0.915  0.8165  1.1294 -0.4994
  248TIP3    H222380   2.612   4.021   1.055 -2.2176 -2.3831  0.0549
  249TIP3   OH222381   0.446   0.529   6.866 -0.5333  0.4756  0.0568
  249TIP3    H122382   0.396   0.448   6.867 -0.8165  0.6199 -0.8953
  249TIP3    H222383   0.381   0.598   6.852 -0.0672  0.6194 -1.7376
  250TIP3   OH222384   6.072   0.856   6.926  0.7746 -0.2550  0.3379
  250TIP3    H122385   6.003   0.863   6.992  0.4211  0.3829 -0.0896
  250TIP3    H222386   6.094   0.763   6.925 -0.4904 -0.5783  0.0758
  251TIP3   OH222387   5.682   0.525   6.536 -0.5909  0.1367  0.2588
  251TIP3    H122388   5.657   0.503   6.626 -1.2251 -0.8535 -0.1441
  251TIP3    H222389   5.762   0.476   6.521 -0.4195  0.3949  0.3076
  252TIP3   OH222390   1.105   2.284   7.984  0.1918  0.1632  0.4707
  252TIP3    H122391   1.139   2.277   8.073 -0.2758  0.7214  0.6954
  252TIP3    H222392   1.145   2.364   7.949  1.8114 -0.9833 -0.4706
  253TIP3   OH222393   5.134   3.943   8.717 -0.5523  0.1426 -0.2971
  253TIP3    H122394   5.109   3.990   8.796  1.2526  0.3550  0.1838
  253TIP3    H222395   5.107   3.999   8.645 -3.9944 -0.8972  0.0008
  254TIP3   OH222396   4.815   3.111   8.667  0.1452  0.1748  0.5698
  254TIP3    H122397   4.865   3.102   8.586 -0.9635 -0.1144 -0.1065
  254TIP3    H222398   4.780   3.200   8.663 -3.8612 -1.2570 -1.7121
  255TIP3   OH222399   5.396   5.544   1.036  0.0069 -0.1873  0.5001
  255TIP3    H122400   5.398   5.489   1.114  1.6860 -0.8898  0.0150
  255TIP3    H222401   5.482   5.585   1.034  0.2375 -0.6497 -1.2848
  256TIP3   OH222402   3.850   6.740   6.269 -0.1262 -0.1302  0.4235
  256TIP3    H122403   3.932   6.789   6.268  0.1355 -0.5554 -0.1879
  256TIP3    H222404   3.856   6.684   6.191 -2.0830  1.6182 -1.1091
  257TIP3   OH222405   5.636   3.425   1.232  0.5056  0.1186  0.2107
  257TIP3    H122406   5.709   3.400   1.288  2.3519  1.1146 -1.6280
  257TIP3    H222407   5.661   3.510   1.195 -0.6470 -0.4311 -2.0302
  258TIP3   OH222408   2.482   6.064   6.454 -0.2530 -0.1334 -0.2925
  258TIP3    H122409   2.393   6.094   6.438  0.0766  0.8283 -0.3915
  258TIP3    H222410   2.509   6.023   6.373 -0.8152 -0.9851 -0.0607
  259TIP3   OH222411   5.024   0.727   2.365 -0.6407 -0.3683  0.2935
  259TIP3    H122412   4.991   0.637   2.361  0.5517 -0.8197  0.0435
  259TIP3    H222413   5.099   0.727   2.305 -1.1177  1.0186 -0.3361
  260TIP3   OH222414   1.747   1.288   0.010  0.4271  0.3824 -0.3359
  260TIP3    H122415   1.708   1.248   0.088 -0.2508  1.6955  0.0371
  260TIP3    H222416   1.674   1.300  -0.050  1.0171 -0.9968 -1.3753
  261TIP3   OH222417   4.884   1.269   7.492 -0.2559  0.0706 -0.2543
  261TIP3    H122418   4.920   1.180   7.486 -0.6520 -0.1211  0.2261
  261TIP3    H222419   4.856   1.278   7.583 -1.1034  0.3444 -0.5355
  262TIP3   OH222420   4.638   5.735   8.172 -0.6761 -0.3872 -0.1557
  262TIP3    H122421   4.599   5.719   8.257  0.7763 -0.8038  0.4593
  262TIP3    H222422   4.603   5.820   8.144  1.4139  1.4571  2.4155
  263TIP3   OH222423   1.350   1.124   8.015 -0.2172 -0.4655  0.2968
  263TIP3    H122424   1.317   1.054   8.071  0.9946 -0.8425  0.5696
  263TIP3    H222425   1.279   1.141   7.953  0.1557 -3.2943 -1.0546
  264TIP3   OH222426   0.292   4.246   6.122 -0.1329  0.8845 -0.5707
  264TIP3    H122427   0.204   4.227   6.153 -0.3420 -0.7537 -2.0028
  264TIP3    H222428   0.346   4.242   6.201 -0.8521 -1.6442 -0.1076
  265TIP3   OH222429   1.184   1.490   0.595  0.5194  0.7522 -0.0329
  265TIP3    H122430   1.215   1.577   0.621  0.1413  0.4030  1.7098
  265TIP3    H222431   1.230   1.430   0.653 -1.4579  0.0341  0.8909
  266TIP3   OH222432   4.507   5.703   6.419  0.3520 -0.4293  0.7988
  266TIP3    H122433   4.548   5.732   6.337  1.0287  0.0800  1.3156
  266TIP3    H222434   4.413   5.708   6.401  0.4676 -2.1919 -0.5965
  267TIP3   OH222435   2.943   3.257   7.488  0.2717  0.0228 -0.3081
  267TIP3    H122436   2.884   3.231   7.418 -0.6055 -0.7854  0.6846
  267TIP3    H222437   3.027   3.219   7.464 -0.8768 -3.8159  0.9530
  268TIP3   OH222438   5.272   1.503   0.498  0.3570 -0.0105 -0.1126
  268TIP3    H122439   5.234   1.572   0.552  0.4596  0.7703 -0.9993
  268TIP3    H222440   5.260   1.535   0.408  3.9598  0.7635 -0.4666
  269TIP3   OH222441   2.885   0.060   2.104  0.1469  0.2760 -0.0634
  269TIP3    H122442   2.931   0.061   2.188 -0.9814  0.3013  0.5660
  269TIP3    H222443   2.955   0.068   2.038  1.0596  0.0030  0.8525
  270TIP3   OH222444   1.779   3.072   6.314 -0.5334  0.2418  0.5869
  270TIP3    H122445   1.706   3.133   6.300  0.1543  1.0791  0.6341
  270TIP3    H222446   1.773   3.011   6.241 -1.1051  0.4757  0.4320
  271TIP3   OH222447   3.578   3.137   5.795  0.2425  0.2123  0.2718
  271TIP3    H122448   3.516   3.088   5.849  0.6508  1.2216  1.6919
  271TIP3    H222449   3.548   3.227   5.798  2.1522  0.8485  1.5810
  272TIP3   OH222450   3.203   0.797   0.637 -0.3571 -0.3446  0.2295
  272TIP3    H122451   3.166   0.723   0.684 -0.6228 -0.0910  0.4212
  272TIP3    H222452   3.165   0.874   0.679 -2.0140 -0.1322 -1.5103
  273TIP3   OH222453   0.788   4.529   1.662  0.0995 -0.3673 -0.0721
  273TIP3    H122454   0.853   4.460   1.651 -1.3160 -1.5022 -1.8514
  273TIP3    H222455   0.773   4.563   1.574 -1.4069  0.1446  0.3410
  274TIP3   OH222456   4.622   0.663   7.004 -0.0355  0.2267 -0.0634
  274TIP3    H122457   4.568   0.588   7.028 -0.5676  0.8548  0.7721
  274TIP3    H222458   4.584   0.736   7.053  0.9839  0.8725 -0.2123
  275TIP3   OH222459   0.235   3.270   7.498 -0.5098 -0.4312  0.2004
  275TIP3    H122460   0.315   3.281   7.549  0.7823 -1.5776 -1.4580
  275TIP3    H222461   0.218   3.358   7.463 -0.0431 -0.1486  0.6648
  276TIP3   OH222462   1.365   3.486   0.842 -0.5067 -0.8581 -0.0335
  276TIP3    H122463   1.311   3.499   0.920 -0.1913  1.2143 -0.0974
  276TIP3    H222464   1.442   3.541   0.858  0.8800 -2.5294 -0.6242
  277TIP3   OH222465   4.230   2.557   1.001 -0.2755 -0.0851  0.1889
  277TIP3    H122466   4.211   2.477   1.050  0.2069 -0.7640 -0.7121
  277TIP3    H222467   4.208   2.628   1.062 -2.8696 -0.8442  0.2517
  278TIP3   OH222468   3.730   2.829   6.720  0.7609 -0.2608  0.5561
  278TIP3    H122469   3.715   2.912   6.675  2.7674 -0.0082  0.2510
  278TIP3    H222470   3.778   2.853   6.800  2.4650 -1.1604 -0.1321
  279TIP3   OH222471   3.435   5.476   0.138 -0.2202 -0.4084 -0.7565
  279TIP3    H122472   3.501   5.488   0.205 -0.2148 -1.3925 -0.5825
  279TIP3    H222473   3.395   5.563   0.128 -0.5982 -0.3620  0.9028
  280TIP3   OH222474   3.388   2.975   5.887 -0.5073 -0.7259 -0.7043
  280TIP3    H122475   3.338   2.899   5.917 -1.7058  0.5604  0.7585
  280TIP3    H222476   3.327   3.023   5.831  0.6363 -1.4076 -2.6024
  281TIP3   OH222477   6.238   5.788   1.274 -0.2379  0.1765 -0.6566
  281TIP3    H122478   6.301   5.747   1.332 -0.0944 -0.7767 -1.4421
  281TIP3    H222479   6.249   5.882   1.287  0.4882 -0.0055  0.0933
  282TIP3   OH222480   4.633   0.377   8.104  0.0590 -0.2192 -0.4914
  282TIP3    H122481   4.562   0.321   8.073  1.1222 -0.7373 -2.1372
  282TIP3    H222482   4.687   0.319   8.158  0.5693 -0.5125 -1.3015
  283TIP3   OH222483   0.899   6.516   6.813 -0.4671  0.4237  0.2340
  283TIP3    H122484   0.969   6.565   6.855 -0.0570  1.2063 -1.2775
  283TIP3    H222485   0.914   6.529   6.719 -1.2555 -1.3350 -0.1779
  284TIP3   OH222486   1.615   3.476   7.409  0.3701 -0.0471 -0.3949
  284TIP3    H122487   1.640   3.520   7.328 -0.5805 -0.0264 -0.6873
  284TIP3    H222488   1.682   3.503   7.473  0.6038  0.6621 -0.9333
  285TIP3   OH222489   3.002   2.100   5.844  0.0783 -0.1663 -0.6476
  285TIP3    H122490   3.050   2.168   5.797  2.9966 -1.6651 -0.0678
  285TIP3    H222491   3.044   2.018   5.818 -1.4841 -1.5020  0.7884
  286TIP3   OH222492   1.686   1.207   0.507  0.3981  0.1194 -0.6179
  286TIP3    H122493   1.636   1.286   0.487  0.7388  1.0255  1.8500
  286TIP3    H222494   1.743   1.232   0.580  0.8979 -2.2749 -0.1058
  287TIP3   OH222495   3.368   0.464   6.449  0.3739  0.5933 -0.7746
  287TIP3    H122496   3.286   0.494   6.489  0.5594  1.1700 -0.8307
  287TIP3    H222497   3.341   0.390   6.394  0.3070 -1.2388  1.5639
  288TIP3   OH222498   2.519   4.919   8.080 -0.4291  0.5229 -0.0291
  288TIP3    H122499   2.510   4.957   7.993 -2.5457 -1.7554 -0.9239
  288TIP3    H222500   2.570   4.983   8.129  0.8227  1.9032 -2.9027
  289TIP3   OH222501   3.860   0.083   0.146  0.1320 -0.0578 -0.2587
  289TIP3    H122502   3.897   0.057   0.230  0.1331 -0.6062 -0.4251
  289TIP3    H222503   3.801   0.155   0.167  0.1681 -0.1604  0.2054
  290TIP3   OH222504   3.227   4.900   0.784 -0.0502  0.8935 -0.0755
  290TIP3    H122505   3.196   4.877   0.871  1.1243  0.3797  0.2330
  290TIP3    H222506   3.211   4.822   0.731 -0.8416  1.2353 -0.3514
  291TIP3   OH222507   6.353   0.896   6.871  0.2020 -1.0184 -0.2695
  291TIP3    H122508   6.421   0.845   6.826  1.7471 -1.0647  1.9322
  291TIP3    H222509   6.295   0.830   6.909  0.3855 -1.0708 -0.0736
  292TIP3   OH222510   1.013   0.757   7.596  0.5432  0.1122 -0.3157
  292TIP3    H122511   1.018   0.669   7.560 -0.8651  0.2464 -0.8707
  292TIP3    H222512   1.104   0.787   7.598  1.0229 -1.2874 -0.2480
  293TIP3   OH222513   0.972   0.738   1.059  0.0765 -1.0905  0.7321
  293TIP3    H122514   0.996   0.719   1.150  0.5129  0.1339  0.8859
  293TIP3    H222515   0.892   0.687   1.045 -0.1150 -1.1339  1.8724
  294TIP3   OH222516   3.912   0.778   7.408  0.0037  0.1906  0.4037
  294TIP3    H122517   3.899   0.759   7.501  0.5960  0.1566  0.4782
  294TIP3    H222518   3.883   0.869   7.399 -1.3400 -0.2186  0.3496
  295TIP3   OH222519   0.879   5.506   0.214 -0.1493  0.7365 -0.4092
  295TIP3    H122520   0.925   5.588   0.233  0.2754  0.5022 -0.4111
  295TIP3    H222521   0.894   5.491   0.121  0.6384  0.1358 -0.1954
  296TIP3   OH222522   4.963   4.298   7.235 -0.3874 -0.2077  0.0049
  296TIP3    H122523   4.950   4.316   7.328 -2.4391 -0.7848 -0.1226
  296TIP3    H222524   5.000   4.379   7.200  0.0329  0.1582  1.2257
  297TIP3   OH222525   0.508   4.491   8.155  0.1913  0.2055 -0.0610
  297TIP3    H122526   0.555   4.433   8.096 -0.2708 -0.8458  0.5652
  297TIP3    H222527   0.436   4.438   8.189  0.3476  0.8127  1.3164
  298TIP3   OH222528   0.979   3.163   6.934 -0.1654 -0.2255 -0.1494
  298TIP3    H122529   1.054   3.136   6.881 -0.6897 -1.4339 -0.2848
  298TIP3    H222530   1.015   3.233   6.990  0.8041 -0.0865 -0.9098
  299TIP3   OH222531   0.212   2.181   7.781  0.0741  0.3342  0.3291
  299TIP3    H122532   0.246   2.189   7.692  0.9175 -0.1049  0.5954
  299TIP3    H222533   0.231   2.265   7.822 -1.5852  1.0525 -0.3047
  300TIP3   OH222534   4.788   3.202   0.813  0.9232 -0.6194  0.2017
  300TIP3    H122535   4.726   3.130   0.829  0.5283 -0.5647 -0.9229
  300TIP3    H222536   4.805   3.239   0.899  0.2457 -1.3480  0.6669
  301TIP3   OH222537   4.200   6.644   8.134  0.0069 -0.4889  0.0310
  301TIP3    H122538   4.290   6.659   8.105 -0.7355 -1.3740 -3.1311
  301TIP3    H222539   4.149   6.710   8.086 -1.2011 -1.0621  0.5041
  302TIP3   OH222540   6.845   1.377   6.996  0.2736 -0.2578  0.0122
  302TIP3    H122541   6.885   1.447   6.944 -1.8171  0.2967 -0.9548
  302TIP3    H222542   6.788   1.331   6.934  0.6076 -2.0187  0.9485
  303TIP3   OH222543   1.604   1.991   7.037  0.4102  0.9238 -0.5096
  303TIP3    H122544   1.691   2.031   7.030  0.6283  0.2973 -1.4794
  303TIP3    H222545   1.544   2.066   7.041  0.9097  1.3572 -0.9801
  304TIP3   OH222546   5.181   3.469   6.303  0.2379  0.6968 -0.1971
  304TIP3    H122547   5.210   3.414   6.230  2.1663  1.7335 -0.2842
  304TIP3    H222548   5.251   3.460   6.369  0.1143  2.2547  0.1839
  305TIP3   OH222549   0.789   6.459   0.987 -0.2668  0.1471  0.1203
  305TIP3    H122550   0.732   6.511   1.043  0.6000 -0.6832  1.8468
  305TIP3    H222551   0.771   6.368   1.012 -0.0340 -0.2657 -1.1299
  306TIP3   OH222552   6.510   5.072   1.172 -0.6282  0.0484  0.6598
  306TIP3    H122553   6.583   5.010   1.164  0.0480  0.6801  1.7956
  306TIP3    H222554   6.549   5.157   1.155 -1.3606  0.2719  0.0802
  307TIP3   OH222555   6.045   5.818   6.485 -0.1154 -0.1127 -0.1769
  307TIP3    H122556   6.038   5.820   6.390  0.9196  0.2250 -0.2597
  307TIP3    H222557   6.133   5.782   6.501 -0.2784 -0.1502  0.6414
  308TIP3   OH222558   4.478   1.761   6.124 -0.2377 -0.1445 -0.4663
  308TIP3    H122559   4.458   1.843   6.170 -1.2429 -0.4023 -0.4367
  308TIP3    H222560   4.522   1.789   6.044  1.6235  0.3119  0.6397
  309TIP3   OH222561   5.303   0.981   8.624 -0.1005  0.5203  0.1771
  309TIP3    H122562   5.323   1.073   8.638  0.4725  0.4744 -0.2557
  309TIP3    H222563   5.378   0.934   8.662 -0.4944  0.2226  0.5964
  310TIP3   OH222564   6.560   1.978   6.975 -0.1248  0.0442 -0.3696
  310TIP3    H122565   6.530   1.898   7.019  0.2510  0.4894  0.7319
  310TIP3    H222566   6.656   1.971   6.977 -0.0520  1.0532  0.7955
  311TIP3   OH222567   4.514   5.957   8.065 -0.0320 -0.2280  0.3108
  311TIP3    H122568   4.420   5.967   8.056  0.1981  0.3501 -1.9608
  311TIP3    H222569   4.551   6.030   8.015  1.6452  0.0850  1.8873
  312TIP3   OH222570   3.586   5.193   6.013  0.2233  0.2300 -0.1105
  312TIP3    H122571   3.628   5.271   5.976  1.1828 -0.3619 -0.3017
  312TIP3    H222572   3.564   5.139   5.938 -2.5769  1.2990 -0.1743
  313TIP3   OH222573   1.537   3.711   7.637 -0.0973  0.0533  0.0828
  313TIP3    H122574   1.536   3.755   7.721  0.6840  0.1450  0.0524
  313TIP3    H222575   1.625   3.673   7.631 -0.9513 -2.1716  0.4526
  314TIP3   OH222576   1.420   5.806   1.101  0.0068 -0.7131 -0.0821
  314TIP3    H122577   1.352   5.851   1.152  0.5100 -2.5068  2.3780
  314TIP3    H222578   1.422   5.852   1.018 -2.3262  1.1252  0.7589
  315TIP3   OH222579   3.118   5.051   7.521 -0.1700  0.0498  0.2939
  315TIP3    H122580   3.118   5.146   7.515 -2.1599  0.0371 -0.7149
  315TIP3    H222581   3.208   5.025   7.502  0.2531  1.6920 -0.0610
  316TIP3   OH222582   4.412   0.668   7.567  0.6268 -0.0704  0.2722
  316TIP3    H122583   4.476   0.732   7.537 -0.9070  1.9287  1.0049
  316TIP3    H222584   4.328   0.714   7.562 -0.5597 -2.0324  0.8634
  317TIP3   OH222585   1.056   5.117   6.543 -0.2960 -0.3187 -0.0606
  317TIP3    H122586   0.990   5.185   6.532  0.5942  0.6308  0.3143
  317TIP3    H222587   1.133   5.151   6.498  0.1786 -1.0672  0.1689
  318TIP3   OH222588   3.076   5.613   0.128 -0.2669 -0.0547 -0.5793
  318TIP3    H122589   3.165   5.639   0.106 -0.5329 -1.0802 -3.2496
  318TIP3    H222590   3.033   5.694   0.157  1.3722  0.5096  0.3958
  319TIP3   OH222591   6.830   2.566   6.300 -0.3677  0.3228 -0.0060
  319TIP3    H122592   6.919   2.543   6.328  0.0348 -0.8244 -2.0055
  319TIP3    H222593   6.823   2.660   6.316  1.1740  0.4079  0.3096
  320TIP3   OH222594   3.997   1.671   7.590 -0.2011  0.2651 -0.3586
  320TIP3    H122595   3.985   1.699   7.681 -1.4048  2.3172 -1.0729
  320TIP3    H222596   3.935   1.724   7.541  2.3258  1.2256 -2.7496
  321TIP3   OH222597   3.383   6.198   1.251  0.1585 -0.1920  0.3325
  321TIP3    H122598   3.295   6.165   1.233  0.3023 -0.3117 -0.1784
  321TIP3    H222599   3.385   6.213   1.346 -0.5141  0.1156  0.3017
  322TIP3   OH222600   5.108   6.408   6.128  0.0112  0.2869  0.1943
  322TIP3    H122601   5.053   6.330   6.134 -1.5072  1.1841 -1.0947
  322TIP3    H222602   5.180   6.383   6.069  0.7957 -0.7700  1.5528
  323TIP3   OH222603   5.556   1.720   8.244 -0.6988  0.3450 -0.3071
  323TIP3    H122604   5.644   1.737   8.210 -0.1275 -0.7159  0.5972
  323TIP3    H222605   5.552   1.770   8.325 -0.9989  0.5372 -0.4403
  324TIP3   OH222606   3.743   0.083   0.454  0.2400  0.8550  0.0277
  324TIP3    H122607   3.807   0.104   0.522 -0.9420  1.0723  1.1348
  324TIP3    H222608   3.662   0.066   0.503 -0.0977 -1.3280 -1.1618
  325TIP3   OH222609   0.804   4.239   7.189  0.1624  0.5213 -0.2044
  325TIP3    H122610   0.752   4.310   7.228  0.1680 -0.4042  1.5976
  325TIP3    H222611   0.763   4.159   7.220  2.0492 -0.2474  0.4571
  326TIP3   OH222612   0.850   3.603   6.779 -0.0540  0.0559  0.2296
  326TIP3    H122613   0.922   3.658   6.809 -0.6285  0.7788  0.3045
  326TIP3    H222614   0.812   3.651   6.705  2.0674 -2.2027 -2.5276
  327TIP3   OH222615   3.469   2.074   0.102  0.1464 -0.0951  0.3221
  327TIP3    H122616   3.543   2.019   0.077  0.5786  1.1896 -1.4107
  327TIP3    H222617   3.401   2.053   0.039 -0.7733 -0.7834  1.5017
  328TIP3   OH222618   1.591   2.972   1.397  0.0419  0.1366 -0.5677
  328TIP3    H122619   1.653   2.912   1.356 -0.6998 -0.3700 -0.9793
  328TIP3    H222620   1.598   2.953   1.491  2.5754  2.0918 -0.2596
  329TIP3   OH222621   3.072   2.729   0.406 -0.0919 -0.8397  0.1042
  329TIP3    H122622   3.081   2.660   0.471  0.2756 -1.5707 -0.7024
  329TIP3    H222623   3.156   2.774   0.406 -0.3863 -0.2734  0.7469
  330TIP3   OH222624   0.342   0.015   7.210  0.0491  0.1704 -0.3446
  330TIP3    H122625   0.356  -0.055   7.146 -3.6592 -0.6278 -0.4832
  330TIP3    H222626   0.312   0.090   7.158  0.0234  0.5272  0.1715
  331TIP3   OH222627   2.512   2.961   1.479 -0.2673 -0.0870 -0.3321
  331TIP3    H122628   2.566   2.901   1.428  0.5272 -0.5841  1.0336
  331TIP3    H222629   2.570   3.034   1.500 -0.7068  0.3136 -0.4773
  332TIP3   OH222630   3.195   0.074   0.839 -0.3501 -0.1038  0.4347
  332TIP3    H122631   3.175  -0.018   0.857 -2.8000  0.5338  1.3312
  332TIP3    H222632   3.123   0.123   0.879  0.3658  2.1665 -0.8684
  333TIP3   OH222633   2.215   3.083   8.256  0.0946 -0.0663  0.4631
  333TIP3    H122634   2.220   3.086   8.160  0.6951  1.5106  0.5094
  333TIP3    H222635   2.153   3.152   8.279  0.7872  0.3084  1.2545
  334TIP3   OH222636   5.729   4.112   0.503  0.1841 -0.1427 -0.4487
  334TIP3    H122637   5.714   4.207   0.498 -0.7655 -0.2967 -0.8153
  334TIP3    H222638   5.696   4.079   0.419  1.3377 -0.7004 -0.7012
  335TIP3   OH222639   5.853   6.225   8.711  0.2053  0.1409  0.0235
  335TIP3    H122640   5.932   6.170   8.707 -0.3130 -0.6704  0.6275
  335TIP3    H222641   5.876   6.303   8.660  1.8515  0.4878  1.1741
  336TIP3   OH222642   6.280   5.636   8.470 -0.5031  0.1993  0.8629
  336TIP3    H122643   6.337   5.708   8.444  1.4515 -2.4104 -3.1647
  336TIP3    H222644   6.211   5.635   8.404 -3.0142  0.7218  3.2667
  337TIP3   OH222645   4.972   0.720   7.904  0.4662 -0.6275  0.6196
  337TIP3    H122646   4.911   0.673   7.961  0.0108  0.1364  0.7697
  337TIP3    H222647   5.045   0.744   7.961  0.1976 -0.2144  0.7897
  338TIP3   OH222648   2.532   2.473   1.208  0.0579  0.1640  0.0320
  338TIP3    H122649   2.463   2.540   1.204 -0.4540 -0.4203 -1.9911
  338TIP3    H222650   2.579   2.481   1.125  0.3066 -1.6290 -0.0431
  339TIP3   OH222651   0.480   5.673   5.841 -0.2848 -0.1738  0.3303
  339TIP3    H122652   0.552   5.630   5.795 -1.1477 -1.8880  0.5250
  339TIP3    H222653   0.441   5.732   5.776  0.6397  0.0177 -0.0707
  340TIP3   OH222654   6.156   4.134   0.216  0.5899 -0.5199  0.2950
  340TIP3    H122655   6.186   4.057   0.169 -0.5377 -1.5564  1.1993
  340TIP3    H222656   6.129   4.101   0.302 -2.2768  0.4095 -0.1478
  341TIP3   OH222657   4.305   4.244   8.028 -0.2369  0.2395  0.2468
  341TIP3    H122658   4.227   4.300   8.033 -0.2080  0.3166 -0.1517
  341TIP3    H222659   4.275   4.159   8.061 -0.3172  0.4520  0.7192
  342TIP3   OH222660   6.000   2.197   7.670  0.2252 -0.0150  0.0116
  342TIP3    H122661   6.079   2.148   7.694  0.8464  0.9359 -0.0221
  342TIP3    H222662   6.004   2.204   7.575 -2.0392 -3.4495 -0.5111
  343TIP3   OH222663   3.657   2.837   8.321  0.6058  0.0696  0.1745
  343TIP3    H122664   3.688   2.828   8.231  2.8444 -1.4132  0.9945
  343TIP3    H222665   3.655   2.932   8.336  2.7881  0.3177 -0.6638
  344TIP3   OH222666   1.481   1.605   1.758 -0.0566  0.1576 -0.1315
  344TIP3    H122667   1.523   1.524   1.788 -1.3222 -0.3499  0.3252
  344TIP3    H222668   1.409   1.619   1.818  1.2911  2.7540  1.0653
  345TIP3   OH222669   1.501   2.990   0.886  0.1080  0.0351  0.2659
  345TIP3    H122670   1.557   2.939   0.827  0.3352  0.9063 -0.2937
  345TIP3    H222671   1.558   3.062   0.916  0.0316 -0.4596  1.6442
  346TIP3   OH222672   6.165   0.219   1.383  0.1370 -0.5384 -0.1214
  346TIP3    H122673   6.230   0.240   1.316  1.2099 -2.8570  0.0964
  346TIP3    H222674   6.193   0.134   1.417 -1.0157  0.0505  2.4938
  347TIP3   OH222675   5.761   1.471   7.927 -0.1197 -0.4150  0.5710
  347TIP3    H122676   5.729   1.419   7.853 -0.8840 -0.5755  1.0041
  347TIP3    H222677   5.838   1.517   7.893 -0.3383 -0.6520 -0.2578
  348TIP3   OH222678   0.702   0.555   8.746 -0.1564 -0.2334  0.1172
  348TIP3    H122679   0.790   0.523   8.770 -0.9181 -0.5409  2.8257
  348TIP3    H222680   0.711   0.582   8.655  2.6437 -0.6544  0.1674
  349TIP3   OH222681   2.371   2.536   6.786  0.3433  0.3890  0.3529
  349TIP3    H122682   2.328   2.573   6.709  0.7801  0.2261  0.0265
  349TIP3    H222683   2.464   2.552   6.771  0.5392 -0.8620  0.2041
  350TIP3   OH222684   0.661   1.445   7.728 -0.4486 -0.0611  0.0616
  350TIP3    H122685   0.622   1.392   7.798  0.3898 -2.3211 -1.0527
  350TIP3    H222686   0.586   1.484   7.683 -1.0400  0.6471  1.5987
  351TIP3   OH222687   0.287   3.856   0.201 -0.0021  0.1602  0.0059
  351TIP3    H122688   0.226   3.829   0.270 -0.7227 -0.9092 -1.0208
  351TIP3    H222689   0.350   3.784   0.196  0.4408  0.5484 -0.0023
  352TIP3   OH222690   5.992   5.607   0.716  0.4428  0.3926 -0.1475
  352TIP3    H122691   5.955   5.681   0.667  1.4354 -0.0329 -1.6133
  352TIP3    H222692   6.087   5.617   0.705  0.6027 -0.9328 -0.1384
  353TIP3   OH222693   3.511   0.525   7.527 -0.2171  0.3068  0.7637
  353TIP3    H122694   3.559   0.538   7.608 -0.0075  0.0768  0.6761
  353TIP3    H222695   3.538   0.439   7.496 -0.6411  0.1983  0.6838
  354TIP3   OH222696   4.787   4.404   5.967 -0.2192 -0.2483  0.0035
  354TIP3    H122697   4.829   4.319   5.953 -0.1081  0.0731 -1.8508
  354TIP3    H222698   4.703   4.382   6.007  0.7462 -1.0400  1.7472
  355TIP3   OH222699   1.650   2.277   0.669  0.1595 -0.0945  0.4661
  355TIP3    H122700   1.743   2.279   0.691  0.0738  0.5719  0.7907
  355TIP3    H222701   1.622   2.188   0.692  0.7949 -0.4197  0.0057
  356TIP3   OH222702   5.844   5.979   8.255 -0.3576 -0.3245  0.2208
  356TIP3    H122703   5.805   5.897   8.226  1.5155 -0.5847 -1.8323
  356TIP3    H222704   5.935   5.957   8.276  0.1676  1.2012 -0.3033
  357TIP3   OH222705   5.791   6.818   0.635  0.0439  0.2523  0.6100
  357TIP3    H122706   5.802   6.913   0.641  0.3338  0.1853  1.1784
  357TIP3    H222707   5.869   6.788   0.588  0.5655  0.1663  1.5134
  358TIP3   OH222708   1.471   0.023   1.041 -0.1083 -0.0129 -0.1676
  358TIP3    H122709   1.388  -0.025   1.035 -0.6857  0.3398  3.2107
  358TIP3    H222710   1.444   0.115   1.043  0.8421  0.5567 -4.1739
  359TIP3   OH222711   2.733   3.474   1.677 -0.0396  0.6495  0.2374
  359TIP3    H122712   2.701   3.428   1.755  1.8915 -0.6643  0.3155
  359TIP3    H222713   2.673   3.448   1.607 -1.8912  1.9524  1.2125
  360TIP3   OH222714   1.204   1.504   1.081 -0.5900  0.4382 -0.4279
  360TIP3    H122715   1.238   1.571   1.140 -1.2060  1.7143 -1.4643
  360TIP3    H222716   1.122   1.476   1.121  1.4009 -2.5738  2.0279
  361TIP3   OH222717   6.271   3.209   1.353  0.7313 -0.4404 -0.2918
  361TIP3    H122718   6.363   3.182   1.349  0.4704 -1.2099 -1.4657
  361TIP3    H222719   6.225   3.147   1.297 -0.3494  0.5978 -0.5976
  362TIP3   OH222720   1.951   1.098   0.841  0.4753 -0.0314 -0.3261
  362TIP3    H122721   1.971   1.173   0.898  0.2407  0.4434 -0.8651
  362TIP3    H222722   2.036   1.058   0.824  0.7872  0.9492 -1.1805
  363TIP3   OH222723   4.282   2.258   7.419 -0.0608  0.2619 -0.5351
  363TIP3    H122724   4.325   2.173   7.404  0.7540  0.7599 -1.0938
  363TIP3    H222725   4.220   2.266   7.347  1.1115  0.9113 -1.5104
  364TIP3   OH222726   6.589   5.631   0.251 -0.0683 -0.3091  0.3950
  364TIP3    H122727   6.676   5.613   0.215 -0.8364 -0.9961 -1.1845
  364TIP3    H222728   6.600   5.619   0.345  1.9324  1.2528  0.4434
  365TIP3   OH222729   6.304   1.041   7.608 -0.0729 -0.3863 -0.0735
  365TIP3    H122730   6.219   1.020   7.570  0.1568 -0.2328 -0.6826
  365TIP3    H222731   6.327   0.963   7.659  0.5412 -1.4911 -1.9201
  366TIP3   OH222732   3.121   6.150   7.914  0.5486  0.1604  0.0920
  366TIP3    H122733   3.130   6.149   7.819  1.4510 -0.2547  0.1670
  366TIP3    H222734   3.211   6.140   7.947  0.3107  0.8315  0.9869
  367TIP3   OH222735   1.413   4.260   6.215 -0.2504  0.2840 -0.0926
  367TIP3    H122736   1.327   4.301   6.210 -0.2792  1.2631  4.2160
  367TIP3    H222737   1.396   4.166   6.218 -1.2128  0.4670  0.6904
  368TIP3   OH222738   4.887   0.600   7.293  0.2638 -0.8177 -0.3099
  368TIP3    H122739   4.962   0.625   7.347  0.5515 -1.4544 -0.4130
  368TIP3    H222740   4.820   0.573   7.356  0.1408 -0.3135 -0.2207
  369TIP3   OH222741   3.032   1.631   1.145 -0.3786 -0.2416  0.0226
  369TIP3    H122742   3.086   1.653   1.069  0.0831  1.3897  0.7817
  369TIP3    H222743   3.085   1.571   1.196 -1.0239 -2.0385 -1.3130
  370TIP3   OH222744   3.340   1.575   0.279 -0.4373 -0.5489  0.2187
  370TIP3    H122745   3.407   1.511   0.303 -0.2360 -0.7211 -0.7733
  370TIP3    H222746   3.351   1.646   0.342 -0.3795 -1.2908  1.0635
  371TIP3   OH222747   6.207   1.447   0.294 -0.1846 -0.6164 -0.0729
  371TIP3    H122748   6.150   1.436   0.370 -0.2551  1.5894  0.2696
  371TIP3    H222749   6.149   1.439   0.218 -0.4285 -1.0830  0.1595
  372TIP3   OH222750   4.364   6.852   7.252  0.2435  0.0228 -0.5720
  372TIP3    H122751   4.359   6.795   7.328  0.2030 -0.0175 -0.6046
  372TIP3    H222752   4.393   6.936   7.287  0.4884 -0.0704 -0.5509
  373TIP3   OH222753   0.557   4.845   1.478 -0.0659 -0.5406 -0.6507
  373TIP3    H122754   0.632   4.898   1.502  0.6483 -0.8456 -2.1257
  373TIP3    H222755   0.518   4.820   1.562  3.7137 -3.6036  0.5229
  374TIP3   OH222756   5.020   3.052   1.696  0.2417  0.1733 -0.0072
  374TIP3    H122757   4.948   3.099   1.739 -0.1496 -0.6213  0.2187
  374TIP3    H222758   5.081   3.121   1.670 -0.3422  0.8124  0.2840
  375TIP3   OH222759   4.087   0.262   8.426  0.1590 -0.2138 -0.6995
  375TIP3    H122760   4.048   0.347   8.408  1.7862  0.3543 -1.7036
  375TIP3    H222761   4.058   0.241   8.515 -0.3566  1.3279 -0.4735
  376TIP3   OH222762   0.430   4.275   0.999  0.0515 -0.0728 -0.2347
  376TIP3    H122763   0.453   4.289   0.907  1.1573  3.2193  0.3953
  376TIP3    H222764   0.420   4.363   1.035 -0.8550 -1.2382  2.7193
  377TIP3   OH222765   6.591   5.329   1.366  0.1134 -0.3913  0.3000
  377TIP3    H122766   6.505   5.367   1.382 -0.7996 -2.9956  2.0973
  377TIP3    H222767   6.652   5.402   1.380 -1.6508  0.9941  1.1875
  378TIP3   OH222768   2.978   3.048   6.302  0.9419 -0.4026 -0.5052
  378TIP3    H122769   2.918   3.116   6.272 -0.9977 -2.0144 -0.5186
  378TIP3    H222770   3.026   3.022   6.224  0.7154 -0.0047 -0.7806
  379TIP3   OH222771   1.686   3.140   0.658 -0.2185  0.3536 -0.0521
  379TIP3    H122772   1.694   3.185   0.742 -0.9675  1.0286 -0.3268
  379TIP3    H222773   1.771   3.153   0.616  1.0785 -2.1392  1.6006
  380TIP3   OH222774   2.761   0.877   7.147  0.6930  0.3424  0.0432
  380TIP3    H122775   2.694   0.857   7.213 -0.4494 -0.2661 -1.2583
  380TIP3    H222776   2.758   0.972   7.138  1.2543  0.4968  1.2392
  381TIP3   OH222777   0.528   3.827   7.715  0.0212 -0.4393  0.2179
  381TIP3    H122778   0.477   3.862   7.788  1.4729 -0.9173  1.5245
  381TIP3    H222779   0.617   3.858   7.731  0.7311 -2.0984 -0.3044
  382TIP3   OH222780   2.124   2.280   1.837 -0.6366  0.0579 -0.1711
  382TIP3    H122781   2.081   2.357   1.873 -2.4821 -0.7768 -0.4223
  382TIP3    H222782   2.074   2.261   1.757  0.0004 -1.1752 -0.2962
  383TIP3   OH222783   3.713   3.264   0.477  0.9290  0.5341  0.1265
  383TIP3    H122784   3.771   3.224   0.412  0.9515  1.8880 -0.7345
  383TIP3    H222785   3.676   3.339   0.432  0.1091  0.8923  1.3576
  384TIP3   OH222786   1.898   6.733   6.749 -0.2703 -0.5591 -0.2041
  384TIP3    H122787   1.923   6.671   6.818 -0.2305  0.9787  1.2451
  384TIP3    H222788   1.803   6.723   6.742 -0.2331 -0.9598 -0.1501
  385TIP3   OH222789   2.003   0.222   0.291  0.6405  0.2204 -0.2195
  385TIP3    H122790   2.083   0.270   0.271  1.7815 -1.8102 -0.8395
  385TIP3    H222791   1.992   0.230   0.385  2.0008 -0.0798 -0.0217
  386TIP3   OH222792   2.371   6.750   5.859  0.0113  0.1514 -0.2675
  386TIP3    H122793   2.439   6.798   5.907 -0.0254  0.0003 -0.0670
  386TIP3    H222794   2.418   6.703   5.791  0.2087 -0.6372  0.4038
  387TIP3   OH222795   4.018   2.825   0.941  0.4082  0.1011  0.0156
  387TIP3    H122796   3.938   2.829   0.993  1.0315 -0.3117  1.0272
  387TIP3    H222797   4.087   2.809   1.004  1.3978  1.1423 -0.7659
  388TIP3   OH222798   1.731   4.385   5.987  0.4365 -0.4135 -0.3125
  388TIP3    H122799   1.644   4.368   5.951  0.9439 -1.8792 -0.8971
  388TIP3    H222800   1.722   4.369   6.081 -0.0649  0.0654 -0.2736
  389TIP3   OH222801   6.694   5.034   0.192  0.1116  0.2751 -0.1676
  389TIP3    H122802   6.618   5.070   0.238 -0.7685 -0.4948 -0.9664
  389TIP3    H222803   6.660   4.958   0.144  1.2628  0.2458 -1.0036
  390TIP3   OH222804   3.026   1.675   8.246 -0.3951 -0.2541 -0.0500
  390TIP3    H122805   2.975   1.740   8.198 -0.7688  0.0253  0.7014
  390TIP3    H222806   3.060   1.723   8.322  2.2599 -0.0149 -1.2537
  391TIP3   OH222807   1.086   5.575   1.599  0.1393  0.1372  0.0056
  391TIP3    H122808   1.152   5.507   1.599 -1.2766 -1.2906 -0.0043
  391TIP3    H222809   1.131   5.652   1.563  1.2568 -1.3297 -1.9733
  392TIP3   OH222810   3.510   1.660   6.085 -0.8816  0.3890 -0.4721
  392TIP3    H122811   3.435   1.643   6.142 -0.3200 -1.1985 -0.1669
  392TIP3    H222812   3.574   1.704   6.141 -0.7650 -0.1723 -0.1595
  393TIP3   OH222813   3.687   0.191   0.948 -0.1182  0.0830 -0.5482
  393TIP3    H122814   3.755   0.173   1.013 -0.7839  2.3449  0.9212
  393TIP3    H222815   3.630   0.114   0.950  0.1966 -0.1492  1.2022
  394TIP3   OH222816   2.731   2.668   5.815  0.1857 -0.0737  0.0937
  394TIP3    H122817   2.790   2.713   5.754 -1.1273  0.9873 -0.4267
  394TIP3    H222818   2.713   2.733   5.883 -2.0724  0.4048 -0.8865
  395TIP3   OH222819   1.904   6.040   6.326  0.3051 -0.7407 -0.3051
  395TIP3    H122820   1.932   5.992   6.248  0.5203 -1.1249 -0.0008
  395TIP3    H222821   1.811   6.057   6.312  0.6907  0.6756 -1.4017
  396TIP3   OH222822   2.116   5.087   8.091 -0.6366  0.3600 -0.0774
  396TIP3    H122823   2.148   5.174   8.067  3.0509 -1.2998 -2.0548
  396TIP3    H222824   2.030   5.081   8.049  0.5286  1.8882 -2.9711
  397TIP3   OH222825   6.347   2.968   6.638 -0.4327  0.5818  0.6501
  397TIP3    H122826   6.363   2.940   6.728  0.0145  0.7501  0.6269
  397TIP3    H222827   6.384   3.056   6.633 -0.0790  0.4144  0.1905
  398TIP3   OH222828   5.473   1.314   7.990 -0.4353  0.1923 -0.3131
  398TIP3    H122829   5.427   1.293   7.909 -1.5154  0.8692  0.1073
  398TIP3    H222830   5.564   1.291   7.972 -0.3874  1.6011 -2.2208
  399TIP3   OH222831   5.453   4.110   7.933  0.4710 -0.5316 -0.5698
  399TIP3    H122832   5.485   4.146   8.015 -0.2992  0.3538 -0.6432
  399TIP3    H222833   5.402   4.034   7.958 -0.1718  0.0180 -0.1729
  400TIP3   OH222834   3.626   5.717   6.796 -0.2204  0.6787 -0.7488
  400TIP3    H122835   3.652   5.792   6.850  1.5470  0.2842 -1.0070
  400TIP3    H222836   3.705   5.663   6.790 -1.5621 -1.4837 -0.1674
  401TIP3   OH222837   6.211   4.713   0.214 -0.4396 -0.1759  0.3894
  401TIP3    H122838   6.244   4.641   0.160 -0.7093 -0.2485  0.3223
  401TIP3    H222839   6.131   4.742   0.171 -1.0523 -0.7141  1.1369
  402TIP3   OH222840   1.462   3.227   1.368 -0.0080  0.3072  0.4514
  402TIP3    H122841   1.506   3.285   1.306 -1.4002  1.1119  0.1803
  402TIP3    H222842   1.520   3.151   1.375  1.1661  1.1121 -0.2511
  403TIP3   OH222843   4.041   5.457   7.828 -0.4750  0.4114  0.6150
  403TIP3    H122844   4.026   5.441   7.735 -1.1948  0.7349  0.6678
  403TIP3    H222845   4.060   5.371   7.865  2.7940  0.6231 -0.3310
  404TIP3   OH222846   0.490   0.040   7.457 -0.3457  0.3950 -0.5503
  404TIP3    H122847   0.444  -0.026   7.510  1.2922 -0.1348  0.2801
  404TIP3    H222848   0.431   0.056   7.384 -2.4295  0.7030  1.0933
  405TIP3   OH222849   6.524   0.009   1.130  0.4476  0.3877 -0.0751
  405TIP3    H122850   6.553  -0.079   1.109  1.1372  0.0123  2.2236
  405TIP3    H222851   6.436  -0.002   1.165  0.4984  0.6287  0.1329
  406TIP3   OH222852   5.691   6.795   0.246 -0.4991  0.6130  0.1611
  406TIP3    H122853   5.761   6.849   0.209  0.0678 -0.1828  0.0487
  406TIP3    H222854   5.688   6.718   0.190  0.5614 -0.7619  1.8991
  407TIP3   OH222855   6.641   4.152   7.218 -0.2896 -0.4530  0.2039
  407TIP3    H122856   6.672   4.063   7.200 -0.1699 -1.1172  3.1916
  407TIP3    H222857   6.721   4.202   7.234 -0.3500  0.2937 -1.5748
  408TIP3   OH222858   0.346   0.300   6.962 -0.8144 -0.2493 -0.2741
  408TIP3    H122859   0.287   0.266   7.029  0.7652  1.0109  1.8846
  408TIP3    H222860   0.381   0.222   6.919  0.7264 -1.4149  2.7556
  409TIP3   OH222861   6.397   0.962   1.741  0.3101  0.1691  0.5238
  409TIP3    H122862   6.347   0.886   1.713 -1.7826  1.3766  0.7429
  409TIP3    H222863   6.489   0.937   1.730 -0.2490 -2.7867  1.6802
  410TIP3   OH222864   0.538   0.109   8.373 -0.0262  0.4487  0.2572
  410TIP3    H122865   0.545   0.167   8.297  1.5883 -1.1599 -0.9247
  410TIP3    H222866   0.492   0.161   8.439 -1.0279  2.1011 -1.6250
  411TIP3   OH222867   5.962   6.428   7.401  0.2695  0.5077 -0.2026
  411TIP3    H122868   6.019   6.384   7.337 -0.8786 -0.1644 -0.7890
  411TIP3    H222869   5.935   6.359   7.461 -1.6870  0.3287 -1.2313
  412TIP3   OH222870   5.303   6.747   0.623  0.7031 -0.1577 -0.3998
  412TIP3    H122871   5.365   6.770   0.554  1.8915 -1.8386  0.0459
  412TIP3    H222872   5.240   6.689   0.580 -0.2783  1.0942 -0.7148
  413TIP3   OH222873   3.003   6.797   7.019  0.3051  0.0782  0.6287
  413TIP3    H122874   3.030   6.706   7.010  0.0755  0.1536 -1.2220
  413TIP3    H222875   3.062   6.833   7.086  1.3067 -1.0837  0.4057
  414TIP3   OH222876   6.182   3.198   6.463 -0.4942 -0.0262  0.0080
  414TIP3    H122877   6.146   3.285   6.482 -1.2310  0.3514 -2.6766
  414TIP3    H222878   6.268   3.198   6.503 -0.4509  2.0057  0.0140
  415TIP3   OH222879   0.750   3.301   6.740 -0.2323  0.3092  1.2358
  415TIP3    H122880   0.789   3.385   6.716 -0.0397  0.3274  1.6053
  415TIP3    H222881   0.809   3.265   6.806 -0.3955 -0.0479  1.1910
  416TIP3   OH222882   0.291   1.033   7.859  0.3522 -0.4024  0.0175
  416TIP3    H122883   0.378   1.040   7.819 -0.0289  1.4350 -0.6154
  416TIP3    H222884   0.239   1.100   7.813 -0.5069  0.8292  2.6160
  417TIP3   OH222885   3.840   4.112   7.311  0.7242  0.4680  0.6001
  417TIP3    H122886   3.929   4.076   7.310  0.8353  0.7430  0.2652
  417TIP3    H222887   3.793   4.062   7.244  0.7184  0.5420  0.5480
  418TIP3   OH222888   0.979   4.014   7.768 -0.1479 -0.1370 -0.1649
  418TIP3    H122889   1.046   3.973   7.822 -0.4060 -1.0219 -0.5025
  418TIP3    H222890   0.961   4.097   7.811  0.4744 -0.3198  0.4611
  419TIP3   OH222891   4.032   0.378   6.201  0.3262 -0.1524  0.5024
  419TIP3    H122892   3.992   0.309   6.255 -3.0950  1.5361  0.3702
  419TIP3    H222893   3.958   0.428   6.167  2.5477  1.7950 -1.8893
  420TIP3   OH222894   4.953   2.063   1.674 -0.0008  0.0623  0.4751
  420TIP3    H122895   4.892   1.994   1.646  0.7768 -1.4494  2.2837
  420TIP3    H222896   4.911   2.103   1.750 -0.1705  1.2233 -0.2060
  421TIP3   OH222897   1.914   4.897   7.794 -0.0410 -0.3751 -0.2912
  421TIP3    H122898   1.837   4.847   7.767  0.1806 -1.1599  0.4639
  421TIP3    H222899   1.924   4.965   7.728  0.4951 -2.2087 -2.1918
  422TIP3   OH222900   1.540   4.179   6.507 -0.5696 -0.5618 -0.5566
  422TIP3    H122901   1.481   4.139   6.443 -0.1496  0.1391 -1.3868
  422TIP3    H222902   1.507   4.268   6.517 -0.4656 -0.5805  0.0126
  423TIP3   OH222903   2.692   2.627   7.139 -0.8963 -0.2906 -0.5523
  423TIP3    H122904   2.701   2.532   7.142 -1.5094 -0.3405 -0.0504
  423TIP3    H222905   2.780   2.659   7.120 -0.7181 -0.9637 -0.8760
  424TIP3   OH222906   2.696   0.679   8.043 -0.0528 -0.1044 -0.3230
  424TIP3    H122907   2.731   0.671   7.954 -1.7984 -1.4700 -0.9516
  424TIP3    H222908   2.761   0.637   8.099  0.9161  0.4874 -0.9634
  425TIP3   OH222909   5.081   2.572   1.421 -0.0149 -0.7329 -0.2835
  425TIP3    H122910   5.126   2.535   1.497 -0.3998 -1.6926 -0.5166
  425TIP3    H222911   5.058   2.661   1.448  0.7494 -0.7143  0.3528
  426TIP3   OH222912   1.416   0.255   6.948 -0.6606 -0.7694  0.0971
  426TIP3    H122913   1.414   0.171   6.901 -0.2295 -0.5676 -0.2916
  426TIP3    H222914   1.339   0.253   7.004 -1.4850 -0.8097 -0.9897
  427TIP3   OH222915   2.577   2.320   6.059 -0.1366 -0.1048 -0.3854
  427TIP3    H122916   2.486   2.295   6.075 -0.0382 -0.5466 -0.5249
  427TIP3    H222917   2.597   2.285   5.973  0.7502 -1.6444  0.4179
  428TIP3   OH222918   5.060   4.761   8.570 -0.1863 -0.0549  0.5588
  428TIP3    H122919   5.101   4.796   8.648  0.2562  0.4007  0.1289
  428TIP3    H222920   5.118   4.690   8.541 -1.4140 -1.6570  1.7999
  429TIP3   OH222921   4.453   5.578   1.902 -0.0255 -0.0783 -0.0785
  429TIP3    H122922   4.516   5.521   1.859 -1.2964 -1.6789  0.0539
  429TIP3    H222923   4.503   5.654   1.929  2.0423 -1.6505  0.7886
  430TIP3   OH222924   5.665   3.295   7.913 -0.6764 -0.1412  0.1767
  430TIP3    H122925   5.607   3.361   7.952 -0.6589 -0.2842  0.4484
  430TIP3    H222926   5.648   3.215   7.963 -1.4681 -0.6305 -0.8353
  431TIP3   OH222927   3.072   0.512   0.124  0.0430 -0.1421  0.2534
  431TIP3    H122928   3.034   0.428   0.099  1.8277 -0.3404 -2.1540
  431TIP3    H222929   3.022   0.577   0.074 -0.3325  0.0885  0.9206
  432TIP3   OH222930   5.737   6.685   8.561 -0.5380 -0.3410 -0.4231
  432TIP3    H122931   5.759   6.679   8.468 -0.6903  1.0550 -0.5641
  432TIP3    H222932   5.641   6.690   8.563 -0.4745  1.7399 -0.3657
  433TIP3   OH222933   6.624   2.505   6.583 -0.0505 -0.1628  0.6049
  433TIP3    H122934   6.655   2.575   6.527  0.6796 -0.8876  0.0752
  433TIP3    H222935   6.533   2.491   6.556  0.7618 -1.6718 -1.7097
  434TIP3   OH222936   3.718   2.139   7.590  0.3447  0.4411 -0.6087
  434TIP3    H122937   3.667   2.064   7.619 -0.4666  1.3442  0.3646
  434TIP3    H222938   3.670   2.173   7.514 -1.1798  1.9053  0.9108
  435TIP3   OH222939   0.007   0.960   0.250 -0.7419 -0.0910 -0.4934
  435TIP3    H122940   0.094   0.968   0.210  0.8960 -0.4036  2.6660
  435TIP3    H222941  -0.018   1.050   0.271 -0.0818 -0.1581  0.6435
  436TIP3   OH222942   0.019   5.506   1.594  0.2507  0.2794  0.2917
  436TIP3    H122943  -0.054   5.530   1.650 -0.0859  1.5458 -0.6454
  436TIP3    H222944   0.018   5.410   1.592 -1.1821  0.2768  0.5392
  437TIP3   OH222945   6.411   6.776   7.932  0.0152  0.0855 -0.5406
  437TIP3    H122946   6.439   6.857   7.975 -2.5614  1.7212 -1.7007
  437TIP3    H222947   6.318   6.769   7.953 -0.8214 -0.2781 -3.8175
  438TIP3   OH222948   2.892   4.525   1.294  0.3544 -0.0634  0.4322
  438TIP3    H122949   2.855   4.489   1.374  0.1691 -0.7631  0.0482
  438TIP3    H222950   2.948   4.597   1.323 -1.1814  0.9185  1.0271
  439TIP3   OH222951   4.392   1.510   0.508 -0.1619 -0.2412 -0.2785
  439TIP3    H122952   4.435   1.594   0.492 -0.5204 -0.1254 -0.6379
  439TIP3    H222953   4.464   1.449   0.525  0.1073  0.0960 -0.2061
  440TIP3   OH222954   2.829   1.674   8.700  0.2342 -0.4378  0.3686
  440TIP3    H122955   2.789   1.706   8.619  1.3544  0.2367  0.0654
  440TIP3    H222956   2.755   1.638   8.750 -0.4010 -1.3127 -1.1409
  441TIP3   OH222957   2.504   5.895   1.288 -0.7553  0.1228  0.0194
  441TIP3    H122958   2.458   5.949   1.352 -0.8801 -1.4702  1.3389
  441TIP3    H222959   2.436   5.868   1.226 -1.1101 -0.1979  0.5425
  442TIP3   OH222960   0.502   5.641   8.638  0.3021 -0.1655 -0.3152
  442TIP3    H122961   0.595   5.633   8.617  0.0367 -2.5846 -0.7974
  442TIP3    H222962   0.469   5.551   8.639 -2.4674  0.7007 -2.0697
  443TIP3   OH222963   2.486   4.762   6.701  0.2063 -0.7678  0.8554
  443TIP3    H122964   2.395   4.734   6.713  0.4391 -2.0957 -0.1467
  443TIP3    H222965   2.515   4.787   6.789 -0.8650 -1.1597  1.3491
  444TIP3   OH222966   6.367   2.920   6.898  0.2597 -0.0809  0.9267
  444TIP3    H122967   6.461   2.919   6.914 -0.0734 -0.3927  3.0463
  444TIP3    H222968   6.330   2.862   6.964 -1.4118 -0.1992 -0.0573
  445TIP3   OH222969   6.184   5.110   0.395  0.0865  0.0609  0.1341
  445TIP3    H122970   6.103   5.097   0.346 -0.4282 -1.2303  1.2847
  445TIP3    H222971   6.197   5.028   0.442  0.7029  1.1686  1.9647
  446TIP3   OH222972   5.584   2.791   1.348 -0.1878 -0.2324 -0.1667
  446TIP3    H122973   5.546   2.824   1.266 -0.4667  0.7921  0.3669
  446TIP3    H222974   5.571   2.696   1.343 -2.3070  0.0231 -0.2745
  447TIP3   OH222975   1.458   3.178   1.975  0.0282 -0.3983  0.3449
  447TIP3    H122976   1.517   3.104   1.961 -1.8036 -2.1122  1.0702
  447TIP3    H222977   1.478   3.239   1.904  1.4490 -1.6872 -0.4273
  448TIP3   OH222978   6.274   0.152   6.346 -0.2388 -0.0777 -0.5979
  448TIP3    H122979   6.258   0.178   6.256  0.2307  0.0338 -0.6528
  448TIP3    H222980   6.218   0.076   6.360 -0.2367 -0.1572 -1.0174
  449TIP3   OH222981   6.075   1.886   8.094 -0.4491  0.1076 -0.0304
  449TIP3    H122982   6.167   1.908   8.075 -0.7284 -0.9053 -3.0534
  449TIP3    H222983   6.057   1.931   8.177  2.7151  0.4396  0.6187
  450TIP3   OH222984   6.331   5.904   6.452  0.0431  0.0995 -0.0571
  450TIP3    H122985   6.392   5.975   6.435 -0.3186 -0.0217 -2.0529
  450TIP3    H222986   6.348   5.879   6.543  0.7051  2.2026  0.4474
  451TIP3   OH222987   6.392   1.169   6.842  0.1579 -0.3972 -0.2288
  451TIP3    H122988   6.406   1.076   6.859  2.4270 -0.5786 -2.4346
  451TIP3    H222989   6.387   1.175   6.746 -0.7560  1.6790 -0.1029
  452TIP3   OH222990   5.494   3.167   0.012 -0.2438  0.2909  0.2253
  452TIP3    H122991   5.567   3.221  -0.019  0.7798  0.1390  2.2247
  452TIP3    H222992   5.528   3.077   0.010 -0.3613  0.2134  1.1269
  453TIP3   OH222993   4.426   5.609   8.356 -0.1901 -0.4284 -0.0775
  453TIP3    H122994   4.375   5.621   8.436  0.5192  0.6712  0.2286
  453TIP3    H222995   4.362   5.620   8.286 -0.8830 -1.7227  0.3093
  454TIP3   OH222996   1.669   2.628   0.029  0.4262  0.1947 -0.3817
  454TIP3    H122997   1.633   2.715   0.011  0.1376  0.1896  0.1718
  454TIP3    H222998   1.709   2.602  -0.054  0.2108  0.7070 -0.6535
  455TIP3   OH222999   1.712   3.190   0.961 -0.0182  0.2235  0.0201
  455TIP3    H123000   1.737   3.168   1.050 -1.9436 -0.7408  0.3785
  455TIP3    H223001   1.681   3.281   0.966 -0.9071 -0.0964  0.5353
  456TIP3   OH223002   0.977   3.880   1.230  0.4308  0.4380 -0.5123
  456TIP3    H123003   0.975   3.952   1.294  1.3362 -0.1374  0.2006
  456TIP3    H223004   0.890   3.880   1.191  0.7591  2.6720 -1.3996
  457TIP3   OH223005   5.651   4.650   7.090  0.2604  0.6386 -0.4230
  457TIP3    H123006   5.563   4.619   7.109  0.7692 -0.7269 -0.1243
  457TIP3    H223007   5.703   4.624   7.167  0.9998  1.0495 -0.7692
  458TIP3   OH223008   4.111   3.639   8.107  0.4942  0.2686 -0.0438
  458TIP3    H123009   4.057   3.699   8.159 -0.3325 -0.4540 -0.0505
  458TIP3    H223010   4.171   3.600   8.170  1.0186  1.0638 -0.0335
  459TIP3   OH223011   0.227   1.823   7.648 -0.0819 -0.4551 -0.5289
  459TIP3    H123012   0.157   1.884   7.625  1.2933  0.4592 -2.6498
  459TIP3    H223013   0.207   1.744   7.597 -0.3285 -0.7187 -0.0244
  460TIP3   OH223014   5.858   1.646   0.299 -0.0025 -0.8576  0.1977
  460TIP3    H123015   5.896   1.560   0.314 -1.8470 -1.7623 -0.1029
  460TIP3    H223016   5.791   1.632   0.233 -1.5525  0.4512  1.3965
  461TIP3   OH223017   0.857   3.551   7.584  0.5782 -0.6762 -0.8161
  461TIP3    H123018   0.837   3.544   7.491  1.5251 -0.6894 -1.0179
  461TIP3    H223019   0.946   3.517   7.593 -0.1262 -2.3849  0.3618
  462TIP3   OH223020   2.577   6.254   0.712  0.2387  0.5077  0.7964
  462TIP3    H123021   2.510   6.252   0.780  0.2298 -1.4361  0.7820
  462TIP3    H223022   2.651   6.300   0.752 -0.9341  2.4229  0.9111
  463TIP3   OH223023   6.210   2.632   8.015 -0.0690  0.6269  0.1184
  463TIP3    H123024   6.132   2.580   7.996  1.2007 -0.8717 -1.3592
  463TIP3    H223025   6.269   2.615   7.941  1.5550  1.9349  1.0243
  464TIP3   OH223026   3.000   5.153   1.877  0.4686 -0.2393  0.2244
  464TIP3    H123027   2.969   5.241   1.899 -0.0739 -0.5707  0.8597
  464TIP3    H223028   3.028   5.117   1.961  0.5482 -0.7224 -0.0083
  465TIP3   OH223029   2.174   4.046   7.866 -1.0463  0.9756  0.1031
  465TIP3    H123030   2.141   3.982   7.929 -1.5483  2.8487  1.8815
  465TIP3    H223031   2.270   4.038   7.871 -1.0827  1.0824  1.1233
  466TIP3   OH223032   0.497   1.287   7.918 -0.0625 -0.6400  0.1663
  466TIP3    H123033   0.417   1.327   7.884 -1.3261 -0.9435  2.5677
  466TIP3    H223034   0.471   1.248   8.002  2.8141  0.1292  1.5450
  467TIP3   OH223035   6.696   6.673   6.874 -0.5632  0.1408  0.2626
  467TIP3    H123036   6.673   6.700   6.785  0.6486 -1.2591 -0.5134
  467TIP3    H223037   6.648   6.592   6.888  0.9462 -0.8343  0.0040
  468TIP3   OH223038   3.938   1.621   8.596  0.6940  0.0707 -0.0057
  468TIP3    H123039   4.013   1.563   8.586  0.7827 -0.1714  1.6928
  468TIP3    H223040   3.949   1.687   8.528  2.3468 -0.0669  0.0875
  469TIP3   OH223041   3.727   5.102   6.247 -0.3150  0.1310  0.1010
  469TIP3    H123042   3.775   5.167   6.298  1.2402 -0.0781 -1.0284
  469TIP3    H223043   3.704   5.148   6.166  1.6410 -0.9198 -1.1303
  470TIP3   OH223044   1.916   4.371   0.853  0.2455  0.0533 -0.1571
  470TIP3    H123045   2.006   4.401   0.838  0.4037 -0.5482 -0.4371
  470TIP3    H223046   1.886   4.342   0.766  0.1498 -0.7297  0.1315
  471TIP3   OH223047   5.685   4.823   1.172 -0.1479  0.2358 -0.0635
  471TIP3    H123048   5.614   4.759   1.162 -1.4724  1.4736  1.0063
  471TIP3    H223049   5.681   4.877   1.093 -0.8097  0.6783  0.2657
  472TIP3   OH223050   1.940   6.781   7.158  0.1009 -0.4333  0.4177
  472TIP3    H123051   2.016   6.723   7.154  1.5637  1.4554 -2.1402
  472TIP3    H223052   1.976   6.866   7.183 -1.2764  0.3863 -0.2882
  473TIP3   OH223053   6.863   2.291   0.452 -0.2509  0.3349  0.2057
  473TIP3    H123054   6.925   2.332   0.391  0.2829  1.4748  1.4603
  473TIP3    H223055   6.777   2.324   0.425 -0.4174 -1.5225 -1.7593
  474TIP3   OH223056   1.282   3.826   6.085  0.8049 -0.4812 -0.4046
  474TIP3    H123057   1.271   3.731   6.088  0.0713 -0.4334 -1.3490
  474TIP3    H223058   1.376   3.838   6.068  1.1421 -0.9944  0.9218
  475TIP3   OH223059   0.467   4.177   6.640  0.5749  0.4874 -0.1639
  475TIP3    H123060   0.439   4.158   6.730  0.7399 -0.0910 -0.2262
  475TIP3    H223061   0.415   4.117   6.586 -0.0382  1.3225 -0.5275
  476TIP3   OH223062   3.089   6.526   0.099 -0.0550  0.4700  0.2695
  476TIP3    H123063   3.147   6.490   0.166  1.0036  1.8211  0.1297
  476TIP3    H223064   3.001   6.516   0.135  0.4613  0.8744  1.7455
  477TIP3   OH223065   4.366   1.278   7.126 -0.2593 -0.4398  0.7541
  477TIP3    H123066   4.343   1.254   7.036 -0.6522  1.7835  0.1989
  477TIP3    H223067   4.307   1.225   7.180 -0.4560 -1.3538 -0.3016
  478TIP3   OH223068   3.091   1.242   0.900  0.0949 -0.3745  0.1377
  478TIP3    H123069   3.060   1.270   0.986 -0.8407 -0.0793 -0.2849
  478TIP3    H223070   3.056   1.307   0.839  1.1547 -0.3068 -0.4241
  479TIP3   OH223071   2.155   3.870   0.047  0.0984  0.1907  0.1623
  479TIP3    H123072   2.101   3.948   0.065 -0.9421 -0.0393 -1.7717
  479TIP3    H223073   2.114   3.801   0.100  0.3599  0.6846  1.0372
  480TIP3   OH223074   4.625   4.995   5.932  0.0735 -0.3863 -0.0823
  480TIP3    H123075   4.705   4.967   5.889 -0.1462  0.3368 -0.9836
  480TIP3    H223076   4.587   4.915   5.967  0.8424 -0.8227 -0.2325
  481TIP3   OH223077   3.931   0.253   1.765 -0.5048 -0.3028  0.3046
  481TIP3    H123078   3.864   0.191   1.734 -0.3448 -0.6399  0.6230
  481TIP3    H223079   3.911   0.266   1.858 -1.6183  1.5208 -0.1479
  482TIP3   OH223080   3.250   1.661   1.370 -0.0417 -0.2328 -0.0871
  482TIP3    H123081   3.310   1.615   1.312 -1.9127 -2.3462 -0.4884
  482TIP3    H223082   3.250   1.752   1.339  0.8797 -0.7799 -1.7852
  483TIP3   OH223083   0.597   3.107   6.600  0.4552  0.3432 -0.5726
  483TIP3    H123084   0.539   3.150   6.538 -2.8603  1.8550  3.1345
  483TIP3    H223085   0.631   3.177   6.655 -1.2616 -1.1174  2.6658
  484TIP3   OH223086   6.528   1.780   7.517  0.2517  0.3311  0.0515
  484TIP3    H123087   6.452   1.837   7.517  2.4148  3.5135 -1.3757
  484TIP3    H223088   6.509   1.713   7.450 -0.5807  2.1891 -1.6608
  485TIP3   OH223089   2.274   4.355   6.555  0.3444  0.2765 -0.8270
  485TIP3    H123090   2.208   4.291   6.529  1.6077 -1.1910 -0.5445
  485TIP3    H223091   2.257   4.431   6.499 -0.7236 -0.5682 -1.6988
  486TIP3   OH223092   6.654   1.425   7.206  0.1456  0.5046  0.0388
  486TIP3    H123093   6.691   1.513   7.216 -0.8387  1.0261 -0.6655
  486TIP3    H223094   6.694   1.391   7.127 -0.0144  0.6151 -0.0912
  487TIP3   OH223095   5.542   5.568   0.534  0.8699  0.2946  0.0001
  487TIP3    H123096   5.557   5.572   0.629 -0.5325  0.1444  0.2469
  487TIP3    H223097   5.520   5.658   0.509 -1.6932 -0.1441  0.3822
  488TIP3   OH223098   4.491   3.153   0.893 -0.5159 -0.1729  0.3470
  488TIP3    H123099   4.519   3.125   0.806 -0.6651  0.6823  0.0193
  488TIP3    H223100   4.444   3.077   0.928  2.0404 -1.6350  0.8831
  489TIP3   OH223101   4.172   5.371   8.364  0.8857  0.1926  0.0562
  489TIP3    H123102   4.149   5.411   8.281 -1.3048  0.1283  0.5750
  489TIP3    H223103   4.227   5.435   8.408  2.1462  0.1901 -1.4338
  490TIP3   OH223104   5.435   1.693   0.848  0.1005 -0.6632  0.6592
  490TIP3    H123105   5.462   1.650   0.767 -0.3036 -2.4628  1.4258
  490TIP3    H223106   5.341   1.677   0.854  0.0031  0.0358  1.1661
  491TIP3   OH223107   3.799   1.436   8.102 -0.1326  0.6937 -0.1844
  491TIP3    H123108   3.796   1.451   8.007  0.0270  0.4623 -0.2259
  491TIP3    H223109   3.831   1.347   8.111 -0.1243  0.7241  0.0902
  492TIP3   OH223110   5.583   6.292   8.655  0.5900 -0.2802 -0.5272
  492TIP3    H123111   5.600   6.315   8.564  0.0410  2.1268 -0.0915
  492TIP3    H223112   5.670   6.280   8.693  0.9075  0.8002 -0.8878
  493TIP3   OH223113   2.841   4.893   7.575  0.6542 -1.0084  0.0782
  493TIP3    H123114   2.860   4.919   7.665 -1.1827 -0.7429  0.4258
  493TIP3    H223115   2.918   4.921   7.525  1.3933 -0.5234  1.4384
  494TIP3   OH223116   1.256   0.877   6.537 -0.1695  0.3589 -0.4899
  494TIP3    H123117   1.162   0.896   6.542  0.0571  1.2500  0.5764
  494TIP3    H223118   1.298   0.949   6.583  0.9459 -0.8579  0.4794
  495TIP3   OH223119   3.516   4.796   0.418 -0.6691 -0.6797 -0.0440
  495TIP3    H123120   3.470   4.720   0.452 -1.4893 -0.3408 -0.3807
  495TIP3    H223121   3.608   4.771   0.421 -0.9583 -1.8731 -0.6178
  496TIP3   OH223122   0.058   0.511   7.981  0.0740  0.0031  0.9784
  496TIP3    H123123   0.118   0.581   7.957  0.3165  0.0482  1.6927
  496TIP3    H223124   0.110   0.452   8.036 -0.0114 -0.9572  0.0680
  497TIP3   OH223125   1.884   2.740   7.301 -0.0526  0.3547 -0.0310
  497TIP3    H123126   1.864   2.650   7.324  1.5769 -0.1640 -0.5158
  497TIP3    H223127   1.912   2.781   7.383  0.1707  0.1406 -0.0018
  498TIP3   OH223128   0.658   1.321   6.940  0.4013 -0.3936 -0.0823
  498TIP3    H123129   0.676   1.388   6.874  0.4566  1.5771  1.8130
  498TIP3    H223130   0.566   1.333   6.963  1.1549  1.3415  2.5401
  499TIP3   OH223131   3.073   1.885   8.715  0.4037  0.2145 -0.3694
  499TIP3    H123132   3.142   1.827   8.745 -0.6832 -0.1130  1.7335
  499TIP3    H223133   2.999   1.827   8.698 -0.0858  0.7740 -0.1821
  500TIP3   OH223134   6.426   1.352   1.203 -0.1668 -0.5362 -0.0700
  500TIP3    H123135   6.459   1.441   1.220  0.8647 -0.8271 -0.4678
  500TIP3    H223136   6.349   1.344   1.258 -0.2289  0.5885  0.0247
  501TIP3   OH223137   0.706   0.406   0.384  0.1961 -0.6851  0.3447
  501TIP3    H123138   0.670   0.479   0.434  1.5206  0.0626  0.2465
  501TIP3    H223139   0.669   0.328   0.425 -0.6470  0.0049  0.9274
  502TIP3   OH223140   0.610   5.432   0.844 -0.4586 -0.1894 -0.4411
  502TIP3    H123141   0.546   5.431   0.916 -1.1155 -0.2955 -1.0112
  502TIP3    H223142   0.588   5.511   0.795  1.3356  1.0584  0.6337
  503TIP3   OH223143   0.714   1.035   0.563 -0.2485  0.4050  0.0011
  503TIP3    H123144   0.786   0.978   0.535 -1.0979 -0.4426 -0.5029
  503TIP3    H223145   0.722   1.112   0.508  2.0872  1.7083  1.9861
  504TIP3   OH223146   3.808   4.391   6.747 -0.6279 -0.1094  0.0734
  504TIP3    H123147   3.876   4.382   6.681  0.1383 -0.3272  0.8689
  504TIP3    H223148   3.848   4.443   6.816 -1.6218  0.6531  0.0952
  505TIP3   OH223149   2.414   5.409   0.635  0.1697 -0.1230  0.1923
  505TIP3    H123150   2.378   5.344   0.695  1.8323 -1.3814 -0.0941
  505TIP3    H223151   2.368   5.490   0.656 -0.6093 -0.9577  1.8692
  506TIP3   OH223152   3.184   6.082   0.172  0.0833  0.2021 -0.2493
  506TIP3    H123153   3.211   5.990   0.179  0.9588  0.5160  0.7568
  506TIP3    H223154   3.263   6.129   0.145  0.4829  1.0565  2.1918
  507TIP3   OH223155   3.161   2.115   6.928 -0.1461  0.3520  0.3766
  507TIP3    H123156   3.235   2.068   6.890  0.1386  0.1567  1.1361
  507TIP3    H223157   3.084   2.063   6.904 -0.1585  1.0970 -1.2653
  508TIP3   OH223158   5.605   0.420   8.299  0.1337 -0.5042  0.2512
  508TIP3    H123159   5.687   0.437   8.252 -0.4314  0.1557 -0.5272
  508TIP3    H223160   5.611   0.327   8.324  0.0923 -1.1420 -1.9001
  509TIP3   OH223161   2.288   3.072   0.621  0.3273 -0.0404  0.1948
  509TIP3    H123162   2.326   3.004   0.676  1.8109  0.5121 -0.0965
  509TIP3    H223163   2.323   3.154   0.656  0.5981  0.3878 -1.0033
  510TIP3   OH223164   5.697   4.065   0.860 -0.0474 -0.3057 -0.8355
  510TIP3    H123165   5.631   4.020   0.912 -0.1893  0.6197 -0.1978
  510TIP3    H223166   5.654   4.144   0.828  0.6338  0.1306 -0.7043
  511TIP3   OH223167   5.227   6.734   7.041 -0.2324 -0.1433  0.3785
  511TIP3    H123168   5.133   6.724   7.026 -0.7199 -0.8481  3.2379
  511TIP3    H223169   5.237   6.826   7.065 -0.0216  0.1557 -0.8278
  512TIP3   OH223170   5.940   1.103   0.423  0.2068  0.0106 -0.1604
  512TIP3    H123171   5.906   1.070   0.506  0.8581 -0.2937 -0.0027
  512TIP3    H223172   6.011   1.043   0.401  0.3804  0.3958 -0.6704
  513TIP3   OH223173   3.709   5.476   5.953  0.0538  0.3651  0.4096
  513TIP3    H123174   3.765   5.531   6.008  0.0041  0.6030  0.2227
  513TIP3    H223175   3.621   5.490   5.989 -0.0014  0.6492  0.1654
  514TIP3   OH223176   2.269   5.736   7.822  0.2727  0.0188 -0.1519
  514TIP3    H123177   2.239   5.751   7.732  0.6003 -1.7212 -0.5789
  514TIP3    H223178   2.189   5.721   7.872  0.1080  0.7254 -0.1904
  515TIP3   OH223179   3.102   3.305   1.385 -0.1788  0.6932  0.2603
  515TIP3    H123180   3.079   3.238   1.321 -1.4756  0.5103  0.8831
  515TIP3    H223181   3.194   3.326   1.366  0.3807 -1.4852  0.2695
  516TIP3   OH223182   1.888   5.492   6.677 -0.2986  0.2346 -0.7135
  516TIP3    H123183   1.871   5.416   6.621  0.8926  0.5100 -1.4883
  516TIP3    H223184   1.913   5.561   6.616 -1.7130  1.3818 -0.0514
  517TIP3   OH223185   1.191   5.984   8.587 -0.1119  0.4972 -0.6652
  517TIP3    H123186   1.232   5.970   8.502  3.5060  0.6063  0.8865
  517TIP3    H223187   1.213   5.907   8.638 -2.0003  0.5368  0.3311
  518TIP3   OH223188   4.947   2.861   0.882 -0.2425  0.6214  0.2679
  518TIP3    H123189   4.853   2.879   0.875 -0.4070  0.0637  0.8725
  518TIP3    H223190   4.974   2.908   0.961  0.0658  1.0494 -0.0851
  519TIP3   OH223191   2.327   6.268   7.321  0.6865  0.0797  0.2055
  519TIP3    H123192   2.344   6.340   7.381  3.4157 -0.6213  0.4155
  519TIP3    H223193   2.370   6.294   7.239 -2.5662  0.8149 -1.4373
  520TIP3   OH223194   3.544   6.676   6.054  0.5997  0.0532  0.8735
  520TIP3    H123195   3.456   6.705   6.027  0.8890 -0.8684 -1.2021
  520TIP3    H223196   3.604   6.731   6.004  1.2579  0.6019  2.2051
  521TIP3   OH223197   5.646   3.528   2.072 -0.4808 -0.0455  0.1094
  521TIP3    H123198   5.602   3.449   2.103  1.5842 -1.8433 -1.1895
  521TIP3    H223199   5.593   3.558   1.998 -0.1643 -1.5391 -0.7645
  522TIP3   OH223200   4.795   5.861   7.392  0.4329 -0.2472  0.5525
  522TIP3    H123201   4.747   5.814   7.460  1.4991 -1.9092  0.2175
  522TIP3    H223202   4.745   5.847   7.312  0.1583  0.1578  0.6491
  523TIP3   OH223203   2.208   1.085   0.034  0.4078  0.6134  0.8103
  523TIP3    H123204   2.295   1.117   0.008  0.4354  1.5015  1.8914
  523TIP3    H223205   2.207   0.993   0.007  1.0770  1.0134 -0.6407
  524TIP3   OH223206   0.701   0.378   7.532 -0.0822 -0.6007 -0.4979
  524TIP3    H123207   0.734   0.290   7.514 -0.2069 -1.0670  1.3347
  524TIP3    H223208   0.776   0.435   7.514 -0.1471 -0.9956 -2.1695
  525TIP3   OH223209   5.894   5.636   8.072 -0.1178 -0.4402  0.4499
  525TIP3    H123210   5.890   5.547   8.107  2.4696 -0.5527  0.6222
  525TIP3    H223211   5.887   5.625   7.977 -0.5756 -0.7443  0.5164
  526TIP3   OH223212   5.778   3.020   0.100 -0.5863 -0.2850 -0.1351
  526TIP3    H123213   5.724   2.974   0.163  2.3596 -2.6881  0.8871
  526TIP3    H223214   5.802   3.102   0.144 -2.7603  0.5682 -0.4022
  527TIP3   OH223215   3.159   6.610   1.942 -0.6622  0.0807 -0.4556
  527TIP3    H123216   3.144   6.516   1.944 -0.1591 -0.0176  1.8694
  527TIP3    H223217   3.169   6.635   2.034 -1.1622  2.4792 -0.9747
  528TIP3   OH223218   5.616   1.129   6.918  0.3193  0.0476 -0.8652
  528TIP3    H123219   5.522   1.131   6.898  0.2499 -0.9184 -0.7133
  528TIP3    H223220   5.644   1.042   6.889  0.9729 -0.0126 -0.0869
  529TIP3   OH223221   3.363   3.074   6.654  0.3679  0.5450  0.8246
  529TIP3    H123222   3.271   3.089   6.677  0.6751  1.3612  1.6187
  529TIP3    H223223   3.406   3.157   6.676  1.4375 -0.1177  1.2845
  530TIP3   OH223224   4.921   3.512   6.372 -0.0912  0.1250 -0.2230
  530TIP3    H123225   5.014   3.499   6.352 -0.1827 -0.9080 -0.0443
  530TIP3    H223226   4.875   3.456   6.309 -0.5520 -0.0037  0.2196
  531TIP3   OH223227   3.691   1.627   2.181  0.2017  0.3556 -0.5725
  531TIP3    H123228   3.765   1.687   2.176 -0.4553  1.3680  0.9530
  531TIP3    H223229   3.724   1.551   2.228  0.4256  0.5653 -0.3881
  532TIP3   OH223230   2.602   2.339   7.898  0.2574 -0.4578 -0.1479
  532TIP3    H123231   2.685   2.301   7.928  1.5337  1.3481 -1.2756
  532TIP3    H223232   2.548   2.342   7.977  1.4730 -1.0605  0.7414
  533TIP3   OH223233   3.459   5.398   8.565 -0.5461 -0.0913  0.5786
  533TIP3    H123234   3.375   5.381   8.607 -0.7172 -0.4212  0.1127
  533TIP3    H223235   3.476   5.491   8.580 -1.8450  0.4017 -0.8259
  534TIP3   OH223236   1.270   4.629   8.115 -0.3896  0.1786  0.1862
  534TIP3    H123237   1.239   4.539   8.126 -0.7761  0.4225  1.1692
  534TIP3    H223238   1.208   4.669   8.054 -1.5400  0.4135  1.4797
  535TIP3   OH223239   4.810   3.499   0.432  0.5061  0.4263 -0.0970
  535TIP3    H123240   4.899   3.521   0.403  0.7310  2.4155  1.8792
  535TIP3    H223241   4.765   3.474   0.351  2.3076  1.2681 -1.4473
  536TIP3   OH223242   2.371   3.398   1.186  0.0244 -0.5326 -0.6239
  536TIP3    H123243   2.417   3.365   1.109  1.6615 -0.4280  0.2663
  536TIP3    H223244   2.411   3.483   1.204  1.1027 -1.4078  1.4726
  537TIP3   OH223245   6.166   2.591   0.094  0.0402 -0.1738  0.3446
  537TIP3    H123246   6.202   2.580   0.182  0.2153 -0.7956  0.1992
  537TIP3    H223247   6.195   2.678   0.067  2.2288 -0.9944 -0.1180
  538TIP3   OH223248   3.976   6.105   6.643 -0.0828 -0.6438 -0.1019
  538TIP3    H123249   3.929   6.095   6.560 -0.1540 -0.8953 -0.0296
  538TIP3    H223250   3.988   6.200   6.652  0.8491 -0.6665 -0.9200
  539TIP3   OH223251   3.243   4.455   1.071 -0.2866  0.4569  0.0136
  539TIP3    H123252   3.303   4.488   1.004  0.8591 -0.6627  0.4529
  539TIP3    H223253   3.279   4.488   1.153 -0.7740  0.5097  0.2054
  540TIP3   OH223254   2.782   1.888   1.736 -0.3444 -0.0037 -0.5162
  540TIP3    H123255   2.768   1.862   1.645 -0.3579 -0.8833 -0.2732
  540TIP3    H223256   2.723   1.832   1.786  0.7789 -0.6281  0.1530
  541TIP3   OH223257   5.233   1.958   1.666 -0.3031  0.1895 -0.0184
  541TIP3    H123258   5.258   2.038   1.619 -1.3191  0.4145 -0.2100
  541TIP3    H223259   5.302   1.946   1.731 -0.1876  1.3084  0.0948
  542TIP3   OH223260   3.657   1.273   0.644  0.0602  0.0155  0.2569
  542TIP3    H123261   3.689   1.242   0.560 -0.1278 -0.7526  0.4576
  542TIP3    H223262   3.719   1.238   0.708  0.4770  1.0048  0.3974
  543TIP3   OH223263   1.664   2.890   7.224 -0.4295 -0.7227 -0.2615
  543TIP3    H123264   1.723   2.819   7.250 -0.5567 -0.9142 -0.4780
  543TIP3    H223265   1.698   2.919   7.139  0.8456  0.8835  0.7738
  544TIP3   OH223266   0.701   4.294   1.143  0.4114  0.1513 -0.5736
  544TIP3    H123267   0.738   4.282   1.230  0.1821 -0.0549 -0.5039
  544TIP3    H223268   0.614   4.254   1.148 -0.3701  1.8283 -0.3374
  545TIP3   OH223269   3.337   5.659   6.831  0.4484 -0.6533  0.1869
  545TIP3    H123270   3.331   5.642   6.925  0.6580 -1.2854  0.0861
  545TIP3    H223271   3.429   5.645   6.809  0.3083 -0.9712 -0.2041
  546TIP3   OH223272   3.996   5.482   0.154 -0.1931  0.7315  0.2691
  546TIP3    H123273   3.921   5.501   0.098 -0.8241 -1.1654  0.4066
  546TIP3    H223274   4.067   5.463   0.094  0.1190  2.1664  0.1412
  547TIP3   OH223275   2.335   0.874   7.690  0.1225  0.1098  0.2802
  547TIP3    H123276   2.240   0.877   7.679 -0.1288 -2.9310  0.8836
  547TIP3    H223277   2.370   0.882   7.601 -0.6181  1.5878  0.0865
  548TIP3   OH223278   5.179   3.323   6.658  0.5701  0.1101 -0.1046
  548TIP3    H123279   5.159   3.396   6.599  0.9780  0.2694 -0.0507
  548TIP3    H223280   5.096   3.277   6.669  0.4102  0.3056 -0.4972
  549TIP3   OH223281   5.372   5.486   7.788 -0.1640 -0.1816  0.1845
  549TIP3    H123282   5.327   5.527   7.862  1.1911 -2.6187  2.5448
  549TIP3    H223283   5.423   5.557   7.748  1.1427  0.7805  3.2842
  550TIP3   OH223284   5.912   0.190   0.700  0.3632  0.2558 -0.2041
  550TIP3    H123285   5.889   0.278   0.728  1.9306  0.2750  1.1693
  550TIP3    H223286   5.999   0.198   0.660 -0.5087 -0.3032 -2.3791
  551TIP3   OH223287   2.328   3.716   0.364 -0.1836  0.2905  0.5783
  551TIP3    H123288   2.286   3.665   0.433 -0.5993 -1.0676 -0.6482
  551TIP3    H223289   2.282   3.800   0.365 -1.5504 -0.4400  0.6061
  552TIP3   OH223290   4.322   6.283   2.001  0.3266 -0.1226 -0.3366
  552TIP3    H123291   4.336   6.319   2.089 -0.2765 -2.8510  0.9990
  552TIP3    H223292   4.373   6.202   2.000  0.3019 -0.1711 -2.5336
  553TIP3   OH223293   1.840   1.828   0.007  0.2976  0.4515  0.5064
  553TIP3    H123294   1.753   1.794   0.025 -0.1029  2.4087  2.9109
  553TIP3    H223295   1.827   1.921  -0.011  1.7056  0.3176 -1.5543
  554TIP3   OH223296   5.715   4.161   6.520  0.0304  0.2037 -0.5662
  554TIP3    H123297   5.656   4.116   6.580  1.0284  0.3228  0.5281
  554TIP3    H223298   5.772   4.092   6.487  0.4705  0.3925 -0.1970
  555TIP3   OH223299   0.424   2.384   0.801  0.5933 -0.6614 -0.2500
  555TIP3    H123300   0.372   2.443   0.856  0.0952 -0.7403 -0.6319
  555TIP3    H223301   0.372   2.372   0.722 -0.2665 -3.1667  0.6054
  556TIP3   OH223302   2.275   6.801   0.382  0.7101 -0.6309  0.3067
  556TIP3    H123303   2.286   6.769   0.471  1.1680  1.2091  0.9525
  556TIP3    H223304   2.258   6.894   0.392 -0.2381 -0.5631 -1.4961
  557TIP3   OH223305   0.997   4.851   6.510  0.3307  0.5544 -0.2322
  557TIP3    H123306   0.908   4.852   6.476 -0.3725  0.1643  1.5281
  557TIP3    H223307   1.016   4.942   6.533  0.0471  0.5017  0.2194
  558TIP3   OH223308   2.281   2.822   6.925  0.3278  0.3733 -0.1188
  558TIP3    H123309   2.318   2.747   6.973  2.2753 -0.6881 -2.9857
  558TIP3    H223310   2.314   2.899   6.971 -0.6592 -0.4682  2.1430
  559TIP3   OH223311   0.472   0.848   8.619  0.6231  0.0105  0.0886
  559TIP3    H123312   0.480   0.771   8.563  0.5442  0.5541 -0.6819
  559TIP3    H223313   0.440   0.813   8.702  1.0225 -0.8450 -0.0985
  560TIP3   OH223314   6.771   5.202   7.522 -0.0186 -0.1615  0.2448
  560TIP3    H123315   6.765   5.201   7.618 -1.2577 -1.7638  0.2020
  560TIP3    H223316   6.698   5.259   7.495  1.1067  1.3291  0.2507
  561TIP3   OH223317   1.570   1.403   1.317  0.0274  0.4077  0.1797
  561TIP3    H123318   1.520   1.321   1.321  0.9755 -0.2853 -1.4089
  561TIP3    H223319   1.599   1.417   1.407 -1.1505 -0.3556  0.7099
  562TIP3   OH223320   4.034   3.961   0.524 -0.4024  0.5151  0.0957
  562TIP3    H123321   3.940   3.972   0.509 -0.4030 -0.0299 -0.3431
  562TIP3    H223322   4.046   3.866   0.533  0.0319  0.6142  0.6631
  563TIP3   OH223323   2.000   4.973   1.387  0.5204  0.2901  0.2954
  563TIP3    H123324   2.045   5.056   1.397 -0.5510  0.8815  0.3064
  563TIP3    H223325   2.050   4.912   1.442 -0.4279  1.6016  2.7342
  564TIP3   OH223326   1.154   5.035   0.670  0.2716 -0.1727 -0.2648
  564TIP3    H123327   1.240   5.050   0.708 -0.7401  0.2981  1.9976
  564TIP3    H223328   1.136   4.942   0.687 -0.2987  0.1038  0.7098
  565TIP3   OH223329   2.810   1.939   8.215  0.2858 -0.1957 -0.2213
  565TIP3    H123330   2.782   2.026   8.187 -0.0665 -0.4126 -0.5592
  565TIP3    H223331   2.863   1.954   8.292  1.9986  0.5041 -1.4744
  566TIP3   OH223332   3.638   3.626   5.728 -0.7827  0.3581  0.1532
  566TIP3    H123333   3.709   3.627   5.664  0.2821 -0.8704  1.2691
  566TIP3    H223334   3.663   3.692   5.792 -0.4111 -0.3958  0.7890
  567TIP3   OH223335   1.290   0.750   7.780  0.0757 -0.0292 -0.1361
  567TIP3    H123336   1.277   0.693   7.856  2.9045 -1.1601 -0.3785
  567TIP3    H223337   1.379   0.785   7.791  0.0717  0.7954 -2.2696
  568TIP3   OH223338   2.916   0.016   7.485  0.1908 -0.7482 -0.1737
  568TIP3    H123339   2.851   0.004   7.553  0.3020 -0.4676 -0.0159
  568TIP3    H223340   2.999  -0.012   7.524  0.2499 -0.6168 -0.2044
  569TIP3   OH223341   2.077   0.822   0.066 -0.3138 -0.0880 -0.2031
  569TIP3    H123342   1.984   0.819   0.086 -0.1865 -1.0730  0.2968
  569TIP3    H223343   2.089   0.754  -0.001  0.4608 -1.9024  1.6526
  570TIP3   OH223344   1.370   6.457   6.651 -0.6997 -0.0255 -0.1217
  570TIP3    H123345   1.282   6.419   6.655 -1.0759  0.7896 -0.4410
  570TIP3    H223346   1.395   6.449   6.559 -0.2629 -0.6104  0.0348
  571TIP3   OH223347   6.272   0.527   8.343 -0.6010  0.4023  0.1222
  571TIP3    H123348   6.203   0.484   8.293 -0.2674  0.2368 -0.1963
  571TIP3    H223349   6.228   0.599   8.387 -0.7678  0.9711 -0.9536
  572TIP3   OH223350   1.344   0.757   6.895  0.4946  0.7256 -0.1446
  572TIP3    H123351   1.257   0.766   6.857  1.1733  0.6880 -1.7660
  572TIP3    H223352   1.390   0.837   6.871  1.6975 -0.3154 -1.5400
  573TIP3   OH223353   6.263   5.746   7.836 -0.2986 -0.1891 -0.4805
  573TIP3    H123354   6.277   5.728   7.743  0.5419  1.2248 -0.6519
  573TIP3    H223355   6.352   5.756   7.873 -0.6338 -0.1902  0.3625
  574TIP3   OH223356   3.950   0.473   7.429 -0.0806  0.1908 -0.0410
  574TIP3    H123357   4.012   0.499   7.498 -0.0334  1.7598 -0.6240
  574TIP3    H223358   3.932   0.555   7.382 -0.6861 -0.7083 -1.4259
  575TIP3   OH223359   1.029   6.779   7.326 -0.4054  0.0511 -0.0936
  575TIP3    H123360   1.041   6.771   7.421  0.7837  0.1460 -0.2106
  575TIP3    H223361   1.111   6.745   7.290  0.0909  2.1251 -1.0147
  576TIP3   OH223362   6.809   4.029   0.950  0.5657  0.0765 -0.1474
  576TIP3    H123363   6.895   4.056   0.983  0.3364 -2.0798  2.5942
  576TIP3    H223364   6.792   3.946   0.994 -4.1137  1.6735  1.5935
  577TIP3   OH223365   2.528   5.133   0.034 -0.7896  0.8894  0.2540
  577TIP3    H123366   2.617   5.155   0.061 -1.8073  1.3179  3.6737
  577TIP3    H223367   2.496   5.212  -0.009  0.4472  0.6771 -1.1598
  578TIP3   OH223368   0.803   0.074   0.771  0.6886  0.1828 -0.4292
  578TIP3    H123369   0.862   0.004   0.743  2.1652  0.4224  1.7814
  578TIP3    H223370   0.859   0.135   0.819 -1.0714  1.3041  0.3077
  579TIP3   OH223371   0.023   2.596   7.659 -0.0426  0.3045  0.0853
  579TIP3    H123372   0.042   2.515   7.705 -0.7382 -0.7773 -1.4409
  579TIP3    H223373   0.060   2.665   7.714  2.0867 -1.1593  0.5847
  580TIP3   OH223374   3.802   2.436   7.970  0.0750 -0.3318 -0.4047
  580TIP3    H123375   3.891   2.464   7.987  0.2555 -1.0821 -0.0901
  580TIP3    H223376   3.800   2.417   7.876 -0.1204  0.9366 -0.6792
  581TIP3   OH223377   2.647   6.610   0.491  0.3449 -0.0224 -0.6742
  581TIP3    H123378   2.640   6.694   0.535  0.3309 -1.6316  2.7611
  581TIP3    H223379   2.556   6.580   0.482  0.3865  0.0163 -1.2887
  582TIP3   OH223380   2.419   5.100   7.866  0.1059 -0.0697 -0.1778
  582TIP3    H123381   2.374   5.143   7.939  0.5115  0.6726 -0.3552
  582TIP3    H223382   2.364   5.119   7.790  0.4584  0.4392 -0.3134
  583TIP3   OH223383   5.016   3.599   7.135  0.4021  0.1333 -0.2204
  583TIP3    H123384   4.975   3.596   7.221  2.9287  2.3242  1.2422
  583TIP3    H223385   5.095   3.546   7.145  1.1322  1.0552 -0.8838
  584TIP3   OH223386   3.242   4.998   7.936  0.2653 -0.1825 -0.6805
  584TIP3    H123387   3.324   4.979   7.891  0.0181 -2.7115 -0.2193
  584TIP3    H223388   3.238   4.935   8.008 -1.2552  1.0648  0.4169
  585TIP3   OH223389   4.788   6.296   6.327 -0.0635 -0.1153  0.2021
  585TIP3    H123390   4.755   6.339   6.248  0.5269  0.6823  0.3856
  585TIP3    H223391   4.820   6.367   6.382  0.5862 -0.7586  0.6716
  586TIP3   OH223392   5.292   0.690   7.777  0.0328 -0.2164 -0.4449
  586TIP3    H123393   5.297   0.594   7.778 -0.4711 -0.2474 -0.0429
  586TIP3    H223394   5.284   0.714   7.869  1.3864  0.2998 -0.4401
  587TIP3   OH223395   6.434   4.586   8.343  0.2514  0.3140  0.0682
  587TIP3    H123396   6.364   4.541   8.390  0.5468 -0.7319 -0.4610
  587TIP3    H223397   6.505   4.592   8.406 -0.7009  2.5358  1.0401
  588TIP3   OH223398   2.774   4.892   0.862 -0.1995  0.0745  0.3701
  588TIP3    H123399   2.744   4.870   0.774 -0.4422  1.0972  0.1908
  588TIP3    H223400   2.696   4.882   0.917 -0.9448  2.6635 -0.0852
  589TIP3   OH223401   1.475   2.029   0.507  0.1950  0.6336 -0.5305
  589TIP3    H123402   1.446   2.047   0.596 -1.2966 -0.0978 -0.8201
  589TIP3    H223403   1.480   1.933   0.502  0.6262  0.6801 -1.1222
  590TIP3   OH223404   2.281   1.508   8.386  0.0918 -0.4059 -0.3096
  590TIP3    H123405   2.339   1.539   8.317  0.9220 -0.2174  0.4590
  590TIP3    H223406   2.269   1.415   8.368 -1.4483  0.0558 -1.9337
  591TIP3   OH223407   0.838   0.432   8.381 -0.8539  0.7801 -0.2459
  591TIP3    H123408   0.892   0.380   8.441  0.4018  2.5018  0.2087
  591TIP3    H223409   0.840   0.384   8.298  1.5239  0.7920 -0.2773
  592TIP3   OH223410   4.420   2.050   1.646 -0.4997 -0.0903  0.5378
  592TIP3    H123411   4.499   2.052   1.592 -0.3053 -1.9739  0.6630
  592TIP3    H223412   4.451   2.069   1.735 -0.1664 -0.7744  0.5774
  593TIP3   OH223413   3.930   3.197   6.657  0.0548 -0.5705  1.0722
  593TIP3    H123414   3.892   3.205   6.569  1.7995 -0.7226  0.2555
  593TIP3    H223415   3.856   3.210   6.716 -1.2694 -0.9559 -0.4159
  594TIP3   OH223416   6.827   5.947   7.691  0.1610  0.4322 -0.5608
  594TIP3    H123417   6.815   6.040   7.709  0.8187  0.6092 -1.0068
  594TIP3    H223418   6.922   5.932   7.699 -0.1444 -0.6977  1.8058
  595TIP3   OH223419   3.586   4.739   8.703  0.9776 -0.2678 -0.4138
  595TIP3    H123420   3.612   4.656   8.743 -1.4660 -0.6168  0.6362
  595TIP3    H223421   3.561   4.794   8.776 -0.8659  0.0959 -1.2507
  596TIP3   OH223422   4.060   0.950   0.892 -0.4716  0.5333  0.9185
  596TIP3    H123423   4.048   0.974   0.984 -1.4274 -0.4267  1.0658
  596TIP3    H223424   4.018   0.865   0.883  0.6979  0.0311 -0.1426
  597TIP3   OH223425   6.240   1.921   7.569 -0.5646 -0.4414  0.3181
  597TIP3    H123426   6.301   1.978   7.616 -0.7809 -0.0107  0.0813
  597TIP3    H223427   6.188   1.880   7.637 -0.6878 -0.0357  0.4686
  598TIP3   OH223428   4.165   4.788   6.238  0.0482  0.7393  0.6288
  598TIP3    H123429   4.076   4.759   6.223 -0.1505  0.1732  2.6409
  598TIP3    H223430   4.166   4.879   6.208 -0.8711  0.4144 -0.4481
  599TIP3   OH223431   4.214   5.856   0.811  0.4446 -0.2424 -0.1790
  599TIP3    H123432   4.140   5.872   0.869  0.1664 -0.1355 -0.5635
  599TIP3    H223433   4.289   5.848   0.870  0.1320 -0.3383  0.2102
  600TIP3   OH223434   3.155   0.906   0.276  0.2334  0.3088 -0.0218
  600TIP3    H123435   3.225   0.972   0.281 -0.1186  0.7025 -0.2000
  600TIP3    H223436   3.075   0.955   0.296  0.1793 -0.4515  1.7813
  601TIP3   OH223437   1.604   1.782   6.578 -0.2547 -0.5275 -0.1051
  601TIP3    H123438   1.510   1.773   6.564 -0.2501 -3.9283  1.1811
  601TIP3    H223439   1.643   1.759   6.494 -0.5263  0.4495 -0.5127
  602TIP3   OH223440   4.167   4.321   1.510  0.5299  1.1755 -0.3239
  602TIP3    H123441   4.255   4.308   1.473  0.2217  0.4312 -0.8152
  602TIP3    H223442   4.183   4.343   1.602  1.1744 -0.7535  0.0608
  603TIP3   OH223443   5.013   1.199   8.520  0.4625 -0.4617  0.3136
  603TIP3    H123444   5.042   1.270   8.463  0.1463 -0.4157  0.2118
  603TIP3    H223445   5.040   1.119   8.474  1.7764 -0.4099  0.9212
  604TIP3   OH223446   6.667   4.391   1.538 -0.3029  0.1127  0.0869
  604TIP3    H123447   6.648   4.353   1.453  0.9288 -0.1274 -0.0901
  604TIP3    H223448   6.642   4.322   1.601  0.5992 -0.4679 -0.1717
  605TIP3   OH223449   3.879   0.736   0.904 -0.5070 -0.3587  0.1789
  605TIP3    H123450   3.911   0.719   0.993  2.5935  1.7723 -0.3515
  605TIP3    H223451   3.789   0.766   0.916 -0.4755 -1.0016  2.4743
  606TIP3   OH223452   6.244   3.568   1.597  0.3511  0.1364  0.5554
  606TIP3    H123453   6.274   3.614   1.519  0.3755 -0.3235  0.2851
  606TIP3    H223454   6.150   3.583   1.599  0.3581  0.1930  0.4622
  607TIP3   OH223455   4.982   5.648   6.634  0.0018  0.1554 -0.4170
  607TIP3    H123456   4.983   5.687   6.547  0.1603 -0.1111 -0.5366
  607TIP3    H223457   4.979   5.554   6.618  0.2981  0.0961 -0.1386
  608TIP3   OH223458   3.028   3.786   1.505 -0.1059  0.1695 -0.8518
  608TIP3    H123459   3.092   3.823   1.566  0.0237  0.0665 -0.9254
  608TIP3    H223460   2.964   3.856   1.492 -0.6681 -0.1421  0.1642
  609TIP3   OH223461   5.844   0.334   8.190  0.0588  0.3558  0.3954
  609TIP3    H123462   5.853   0.239   8.183  0.2619  0.3896  0.1883
  609TIP3    H223463   5.933   0.365   8.209  0.6014  0.7688 -2.4370
  610TIP3   OH223464   1.454   2.612   7.401  0.3561  0.0230  0.0970
  610TIP3    H123465   1.505   2.553   7.345 -1.2399 -0.0215 -1.4027
  610TIP3    H223466   1.410   2.671   7.340 -0.1934  1.0357  1.4205
  611TIP3   OH223467   6.460   6.737   6.714 -0.0186  0.1979 -0.0714
  611TIP3    H123468   6.409   6.659   6.690  0.3903  0.2580 -1.2039
  611TIP3    H223469   6.405   6.810   6.687  0.2263  0.2765 -0.3626
  612TIP3   OH223470   6.041   2.802   1.226 -0.5698 -0.2953 -0.1386
  612TIP3    H123471   6.017   2.770   1.139 -1.0448 -1.7586  0.5019
  612TIP3    H223472   6.061   2.723   1.276  0.7598  0.5801  0.7942
  613TIP3   OH223473   3.506   4.113   7.797  0.0432 -0.0546 -0.2210
  613TIP3    H123474   3.422   4.157   7.788  1.6450  3.5033  0.2853
  613TIP3    H223475   3.487   4.034   7.848 -3.3251 -1.0197 -2.5913
  614TIP3   OH223476   5.145   3.270   1.078 -0.3808 -0.0841 -0.2308
  614TIP3    H123477   5.053   3.291   1.067 -0.7255 -1.0956  0.6691
  614TIP3    H223478   5.154   3.243   1.169  0.6931 -0.5406 -0.4488
  615TIP3   OH223479   3.477   2.635   1.618  0.0729  0.4339  0.3694
  615TIP3    H123480   3.444   2.554   1.579  2.0280  0.4995 -1.5996
  615TIP3    H223481   3.411   2.658   1.684 -1.8947 -1.3030 -0.8589
  616TIP3   OH223482   3.991   5.115   6.940 -0.0630 -0.0633  0.1648
  616TIP3    H123483   3.976   5.104   6.846 -1.1935 -2.1366  0.5173
  616TIP3    H223484   3.922   5.174   6.970  0.3059  0.6068 -0.2841
  617TIP3   OH223485   3.890   5.343   6.627 -0.6166 -0.0507 -0.2292
  617TIP3    H123486   3.912   5.253   6.654 -0.2613  0.0604 -0.1386
  617TIP3    H223487   3.923   5.349   6.537 -0.1366  0.1620 -0.0437
  618TIP3   OH223488   3.616   5.958   8.189  0.3829  0.0375 -0.0979
  618TIP3    H123489   3.691   6.012   8.164  1.2656 -1.0102  0.2260
  618TIP3    H223490   3.587   5.995   8.273  0.6425  0.3558 -0.1459
  619TIP3   OH223491   6.790   1.253   7.489 -0.4580 -0.0692 -0.0397
  619TIP3    H123492   6.784   1.266   7.583 -0.9013  0.8114 -0.1840
  619TIP3    H223493   6.818   1.162   7.479  0.8972  0.2045  0.9676
  620TIP3   OH223494   2.993   1.723   6.849  0.1639  0.6265 -0.7184
  620TIP3    H123495   3.043   1.647   6.880  0.2224  0.7722 -0.4542
  620TIP3    H223496   2.990   1.782   6.924 -0.4962  0.5774 -0.6982
  621TIP3   OH223497   0.333   0.622   8.163 -0.3135 -0.1127  0.4224
  621TIP3    H123498   0.346   0.653   8.073 -1.1085  0.5499  0.5226
  621TIP3    H223499   0.355   0.698   8.217 -0.1496 -0.4095  0.7712
  622TIP3   OH223500   0.730   5.370   6.988 -0.3313  0.0786 -0.0232
  622TIP3    H123501   0.797   5.335   6.930 -0.6993  0.3542 -0.6256
  622TIP3    H223502   0.773   5.442   7.035 -0.0877 -0.0160 -0.1036
  623TIP3   OH223503   4.510   4.750   6.025  0.0616  0.3162  0.5924
  623TIP3    H123504   4.484   4.689   5.955  0.6985 -1.4449  1.8200
  623TIP3    H223505   4.432   4.803   6.040 -0.0104  0.9421 -1.6089
  624TIP3   OH223506   5.188   3.571   8.187 -0.0315 -0.3280  0.1381
  624TIP3    H123507   5.153   3.627   8.256 -1.5831  0.7707 -1.4367
  624TIP3    H223508   5.280   3.560   8.209  0.1425  2.1584  1.0130
  625TIP3   OH223509   1.357   5.778   7.392 -0.2855  0.7781  0.0930
  625TIP3    H123510   1.443   5.738   7.387 -1.7116 -2.5716  0.1541
  625TIP3    H223511   1.317   5.760   7.307 -1.4355  1.0337  0.5639
  626TIP3   OH223512   0.703   4.898   0.092  0.2925 -0.0524 -0.2504
  626TIP3    H123513   0.634   4.857   0.145 -0.8477  0.0850 -1.5743
  626TIP3    H223514   0.736   4.969   0.148 -2.2417  1.3850 -0.3677
  627TIP3   OH223515   4.017   6.549   0.436  0.0235 -0.1072 -0.1876
  627TIP3    H123516   4.006   6.455   0.451 -0.3890 -0.0264  0.0151
  627TIP3    H223517   3.967   6.590   0.506  1.1253  0.2678  0.4114
  628TIP3   OH223518   4.158   6.096   8.396  0.1570 -0.2834  0.1599
  628TIP3    H123519   4.121   6.183   8.414  2.1815  0.4434  1.2027
  628TIP3    H223520   4.085   6.036   8.409 -1.1903  1.2134 -0.1215
  629TIP3   OH223521   5.700   5.957   8.665  0.2000 -0.4540 -0.2714
  629TIP3    H123522   5.753   5.883   8.635  1.6797  0.6339 -0.4514
  629TIP3    H223523   5.763   6.027   8.681 -1.0003  0.2979  1.4364
  630TIP3   OH223524   0.007   3.028   0.061  0.9440 -0.3615 -0.4018
  630TIP3    H123525  -0.034   2.969   0.124 -0.1680 -0.9531 -1.6249
  630TIP3    H223526  -0.005   3.115   0.099  0.5306 -0.7287  0.3385
  631TIP3   OH223527   4.129   6.616   1.209  0.1068 -0.1472  0.3282
  631TIP3    H123528   4.191   6.553   1.171 -0.8985 -0.3313 -1.1130
  631TIP3    H223529   4.162   6.632   1.297  0.6261 -2.3688  0.5879
  632TIP3   OH223530   0.239   4.415   7.103  0.2689  0.0173 -0.1021
  632TIP3    H123531   0.296   4.392   7.030  1.3649  0.0542  0.7141
  632TIP3    H223532   0.156   4.441   7.062  0.8642  0.0595 -1.3184
  633TIP3   OH223533   1.600   6.071   8.719  0.7511  0.0338 -0.6973
  633TIP3    H123534   1.519   6.047   8.765  2.2213 -0.6193  1.7215
  633TIP3    H223535   1.596   6.021   8.638 -0.7173 -0.9505 -0.0682
  634TIP3   OH223536   5.105   4.837   1.143 -0.2362  0.4228  0.0610
  634TIP3    H123537   5.025   4.858   1.095  0.2771 -2.8837 -2.6323
  634TIP3    H223538   5.171   4.822   1.074  1.7606 -0.4103  2.0249
  635TIP3   OH223539   1.709   1.500   7.926 -0.2849  0.0942  0.0610
  635TIP3    H123540   1.647   1.428   7.939 -0.7867  0.5460  0.1741
  635TIP3    H223541   1.679   1.543   7.846  0.8436 -0.6598 -0.8205
  636TIP3   OH223542   3.709   5.315   0.632 -0.1038 -0.4857  0.2477
  636TIP3    H123543   3.768   5.385   0.604 -2.2470  0.4085 -2.4806
  636TIP3    H223544   3.753   5.235   0.604 -0.6357  0.2219 -3.0857
  637TIP3   OH223545   0.308   6.471   0.144 -0.3550  0.1241  0.4562
  637TIP3    H123546   0.323   6.448   0.236 -1.6421 -1.8077  0.2509
  637TIP3    H223547   0.381   6.430   0.097 -0.5557 -0.2724  0.4822
  638TIP3   OH223548   3.285   1.410   7.210 -0.4121 -0.2081  0.2095
  638TIP3    H123549   3.321   1.329   7.175  1.0086  0.9793 -1.2189
  638TIP3    H223550   3.335   1.479   7.166 -2.4522  1.4731  0.4016
  639TIP3   OH223551   5.444   0.520   8.722 -0.2223 -0.0080  0.2696
  639TIP3    H123552   5.517   0.537   8.780 -0.2182 -1.0193  0.5830
  639TIP3    H223553   5.388   0.459   8.771 -1.4732  1.0241  0.1963
  640TIP3   OH223554   3.524   2.107   7.414 -0.1286  0.2581  0.2862
  640TIP3    H123555   3.531   2.019   7.452  1.0828  1.1791  2.3824
  640TIP3    H223556   3.435   2.110   7.378  0.8907 -2.9569 -3.1005
  641TIP3   OH223557   1.449   4.371   5.914  0.0728 -0.0561  0.3222
  641TIP3    H123558   1.432   4.443   5.853  0.0082  0.1231  0.5529
  641TIP3    H223559   1.369   4.362   5.965  0.3527  0.2323  0.8307
  642TIP3   OH223560   4.816   3.386   7.098  0.1847  0.2606 -0.3336
  642TIP3    H123561   4.795   3.477   7.121 -1.0559  0.6180 -2.6107
  642TIP3    H223562   4.893   3.394   7.041  0.0998 -0.1287 -0.5011
  643TIP3   OH223563   1.472   3.435   6.717 -0.1927  0.0087 -0.0310
  643TIP3    H123564   1.549   3.397   6.676  0.5054 -0.1864  1.4247
  643TIP3    H223565   1.506   3.498   6.781 -1.1780 -0.9013  1.4543
  644TIP3   OH223566   4.299   5.045   1.772 -0.1479  0.0963 -0.1537
  644TIP3    H123567   4.347   5.104   1.830 -1.1254  0.1751  0.6104
  644TIP3    H223568   4.232   5.100   1.731 -0.8303 -0.3930  0.2847
  645TIP3   OH223569   3.630   4.903   6.605  0.4383 -0.3574 -0.0274
  645TIP3    H123570   3.563   4.911   6.537  1.3017 -0.0070 -0.8546
  645TIP3    H223571   3.713   4.904   6.557  1.1225  1.0302  1.1198
  646TIP3   OH223572   5.373   2.519   1.983  0.0582  0.6605 -0.3735
  646TIP3    H123573   5.342   2.567   2.060 -1.9177 -0.2046 -0.5892
  646TIP3    H223574   5.417   2.442   2.018  1.6218  1.6363 -0.0811
  647TIP3   OH223575   6.738   5.837   1.804 -0.6626  0.2568 -0.1107
  647TIP3    H123576   6.743   5.906   1.738 -1.9514  0.5938  0.0983
  647TIP3    H223577   6.687   5.767   1.761  3.8554 -2.4042 -1.7875
  648TIP3   OH223578   6.714   0.650   1.875 -0.1382 -0.6303 -0.3811
  648TIP3    H123579   6.702   0.745   1.872 -1.2406 -0.6225  1.8849
  648TIP3    H223580   6.641   0.615   1.824 -0.4401 -0.2661 -0.2030
  649TIP3   OH223581   4.665   5.075   7.462  0.0929 -0.0378  0.4262
  649TIP3    H123582   4.601   5.144   7.446  1.3237  0.6961 -1.6671
  649TIP3    H223583   4.628   5.026   7.535 -1.7649  1.6602  0.7300
  650TIP3   OH223584   3.584   6.020   1.019 -0.6532  0.1584 -0.7579
  650TIP3    H123585   3.636   5.972   1.083  0.8481  1.6645 -0.7642
  650TIP3    H223586   3.498   6.029   1.059 -0.2394 -0.4060  0.2925
  651TIP3   OH223587   1.566   1.510   0.775 -0.6433 -0.1287  0.0786
  651TIP3    H123588   1.604   1.425   0.751  0.5655  0.4839 -0.2792
  651TIP3    H223589   1.543   1.500   0.867  3.0310  0.2809  1.2152
  652TIP3   OH223590   2.993   0.893   1.514  0.5051  0.2760  0.2477
  652TIP3    H123591   2.943   0.837   1.574 -2.0674  1.7952 -0.3078
  652TIP3    H223592   3.053   0.942   1.571 -2.1451  1.9794  1.8155
  653TIP3   OH223593   4.947   2.535   7.169  0.1181  0.1442 -0.1770
  653TIP3    H123594   4.917   2.518   7.080 -0.1891 -1.2579  0.1614
  653TIP3    H223595   4.888   2.483   7.224  1.2166 -0.1961  0.7251
  654TIP3   OH223596   0.243   6.188   6.649 -0.9975  0.1259  0.2429
  654TIP3    H123597   0.239   6.258   6.715  0.0496  1.1161 -0.6979
  654TIP3    H223598   0.255   6.108   6.700  2.3152  1.1074  1.2802
  655TIP3   OH223599   0.262   1.684   0.560 -0.4577 -0.1467 -0.4486
  655TIP3    H123600   0.312   1.643   0.630  0.2172 -0.3768 -1.0654
  655TIP3    H223601   0.302   1.653   0.479 -0.8433  0.5923 -0.9376
  656TIP3   OH223602   3.814   4.935   7.657  0.3769 -0.3371  0.0366
  656TIP3    H123603   3.779   5.021   7.680  0.5362  0.3125 -1.9607
  656TIP3    H223604   3.769   4.874   7.715 -2.4594  0.6824 -0.9618
  657TIP3   OH223605   2.206   4.841   1.772 -0.0083  0.6929 -1.1301
  657TIP3    H123606   2.277   4.820   1.833  1.1259 -0.4235 -2.7555
  657TIP3    H223607   2.176   4.928   1.799  1.2510  0.7306  0.2662
  658TIP3   OH223608   0.428   5.720   7.412  0.3594  0.5613 -0.1298
  658TIP3    H123609   0.358   5.783   7.398 -0.7487 -0.8140 -1.1219
  658TIP3    H223610   0.386   5.650   7.463  1.6637  0.7753  1.3022
  659TIP3   OH223611   0.240   0.084   0.139 -0.3584  0.0464 -0.4829
  659TIP3    H123612   0.194   0.002   0.159 -0.2649  0.2122  0.4720
  659TIP3    H223613   0.331   0.065   0.159 -0.0830 -0.0767 -1.7459
  660TIP3   OH223614   3.630   4.028   7.151  0.3331  0.2877 -0.2018
  660TIP3    H123615   3.547   4.008   7.194  0.2099  1.2357  0.0393
  660TIP3    H223616   3.616   4.004   7.059  0.1142 -0.4337  0.0181
  661TIP3   OH223617   6.601   5.894   1.424 -0.0112 -0.1959 -0.4266
  661TIP3    H123618   6.525   5.837   1.436  0.0044  0.0609  1.2001
  661TIP3    H223619   6.676   5.836   1.435  0.0190  0.2404  2.4161
  662TIP3   OH223620   4.744   4.778   0.292  0.0550  0.0774 -0.0948
  662TIP3    H123621   4.667   4.721   0.287  0.4539 -0.8375  2.5660
  662TIP3    H223622   4.720   4.855   0.242 -0.4069 -2.4306 -4.1913
  663TIP3   OH223623   6.588   4.478   0.216 -0.4011 -0.0876 -0.2079
  663TIP3    H123624   6.607   4.571   0.207 -0.3786 -0.0192  0.5037
  663TIP3    H223625   6.527   4.473   0.290 -0.9601 -0.5707 -0.6931
  664TIP3   OH223626   3.541   5.864   0.310  0.3386 -0.2632  0.6906
  664TIP3    H123627   3.564   5.824   0.394  1.7464  1.7867  1.3413
  664TIP3    H223628   3.587   5.947   0.309 -0.1795  0.0791 -1.8586
  665TIP3   OH223629   5.377   0.356   6.300  0.2506  0.0971 -0.2885
  665TIP3    H123630   5.382   0.378   6.393 -0.1236 -1.5263  0.1488
  665TIP3    H223631   5.395   0.262   6.296 -0.4195 -0.0043 -1.7825
  666TIP3   OH223632   0.065   0.193   1.637 -0.3313 -0.4131 -0.1319
  666TIP3    H123633   0.156   0.188   1.668  0.2558 -1.2690 -1.8425
  666TIP3    H223634   0.052   0.285   1.614  0.9582 -0.6730 -2.1502
  667TIP3   OH223635   1.848   1.729   7.513 -0.2788 -0.3685 -0.0806
  667TIP3    H123636   1.770   1.752   7.462  0.0162 -1.2119 -0.9451
  667TIP3    H223637   1.910   1.800   7.495 -0.6011 -0.0502  0.0576
  668TIP3   OH223638   3.202   2.107   0.470 -0.7451 -0.1862 -0.3328
  668TIP3    H123639   3.172   2.183   0.519 -1.5868  1.3775 -3.0445
  668TIP3    H223640   3.292   2.094   0.499 -1.1186  0.7796  1.3889
  669TIP3   OH223641   6.179   1.747   7.373 -0.1490  0.1139 -0.1467
  669TIP3    H123642   6.211   1.800   7.446  0.4206 -0.2139 -0.1550
  669TIP3    H223643   6.243   1.677   7.364 -1.2208 -0.9618  0.2881
  670TIP3   OH223644   5.635   0.931   1.442 -0.2669  0.2039 -0.5462
  670TIP3    H123645   5.602   0.968   1.360 -1.1786  2.2583  0.6601
  670TIP3    H223646   5.588   0.979   1.510  0.9538 -0.9628  1.1935
  671TIP3   OH223647   4.339   4.316   6.881  0.2044 -0.3258  0.4165
  671TIP3    H123648   4.360   4.345   6.970  1.1606 -0.3232  0.1939
  671TIP3    H223649   4.423   4.293   6.843 -0.1123  0.4220 -0.7624
  672TIP3   OH223650   6.844   0.960   8.427  0.3446  0.5352 -0.6577
  672TIP3    H123651   6.932   0.926   8.440 -0.4278 -1.8864 -1.2947
  672TIP3    H223652   6.787   0.897   8.470 -1.1665  1.4437 -1.2357
  673TIP3   OH223653   5.190   3.454   7.494 -0.1899  0.0284  0.2004
  673TIP3    H123654   5.239   3.441   7.576  1.1648 -0.3195 -0.6373
  673TIP3    H223655   5.185   3.366   7.456 -3.1668 -0.3347  1.1388
  674TIP3   OH223656   2.256   4.018   1.267  0.6244 -0.3111 -0.4445
  674TIP3    H123657   2.253   4.091   1.330  0.7912  0.8755 -1.7659
  674TIP3    H223658   2.174   4.025   1.218  0.5994 -1.0932 -0.5318
  675TIP3   OH223659   6.114   4.459   6.024  0.0974  0.0515 -0.2451
  675TIP3    H123660   6.164   4.533   5.991 -0.1696  0.1945 -0.3330
  675TIP3    H223661   6.036   4.456   5.968  1.2289 -1.7683 -1.8485
  676TIP3   OH223662   0.086   1.823   6.853  0.7071  0.6707 -0.3275
  676TIP3    H123663   0.031   1.859   6.782 -1.9846 -0.4018  1.0536
  676TIP3    H223664   0.097   1.897   6.913 -0.2936  0.6166 -0.0512
  677TIP3   OH223665   2.918   4.233   8.215  0.9378 -0.2581  0.0639
  677TIP3    H123666   2.892   4.310   8.164  3.5525  1.5777  1.2620
  677TIP3    H223667   2.844   4.174   8.209 -0.4861  1.6007 -2.4041
  678TIP3   OH223668   4.013   0.013   8.321  0.3233  0.5196  0.1670
  678TIP3    H123669   3.989  -0.013   8.232 -1.6947  0.8917  0.5502
  678TIP3    H223670   4.076   0.083   8.310 -0.8180  1.3998 -1.0216
  679TIP3   OH223671   1.249   3.225   7.391 -0.8258  0.1262 -0.3060
  679TIP3    H123672   1.291   3.302   7.353 -0.2389  0.0403  0.1504
  679TIP3    H223673   1.254   3.159   7.321  0.4565 -0.1009 -0.0292
  680TIP3   OH223674   0.177   3.129   8.186  0.2807 -0.4820  0.4610
  680TIP3    H123675   0.134   3.204   8.146 -0.9308 -0.7941  1.1190
  680TIP3    H223676   0.185   3.153   8.278  0.9722 -0.6835  0.4565
  681TIP3   OH223677   6.649   5.225   7.766 -0.2875 -0.0049 -0.3865
  681TIP3    H123678   6.576   5.165   7.753  0.2278 -0.7769  0.2207
  681TIP3    H223679   6.698   5.188   7.840  0.5125  0.6990 -0.5500
  682TIP3   OH223680   0.183   5.056   0.754  0.0208 -0.1309 -0.2411
  682TIP3    H123681   0.191   5.117   0.681 -0.8233  1.2859  0.7978
  682TIP3    H223682   0.089   5.055   0.774  0.1457 -1.0967  0.3298
  683TIP3   OH223683   3.255   3.314   1.787  0.3372  0.4289 -0.1797
  683TIP3    H123684   3.283   3.396   1.746 -1.3147  2.4986  2.4875
  683TIP3    H223685   3.319   3.299   1.856  0.8668 -0.8247 -0.9116
  684TIP3   OH223686   1.945   3.925   7.705  0.0539  0.0119 -0.4421
  684TIP3    H123687   2.021   3.958   7.753 -0.4801  0.7070 -0.0485
  684TIP3    H223688   1.904   4.003   7.668 -0.4717 -0.3515 -0.6447
  685TIP3   OH223689   2.993   4.634   7.359 -0.0600 -0.1268 -0.1764
  685TIP3    H123690   2.910   4.595   7.386  0.3969 -2.1397 -1.4833
  685TIP3    H223691   3.030   4.670   7.439 -0.6123 -2.2378  1.1006
  686TIP3   OH223692   3.983   3.374   8.423  0.1849 -0.6542  0.1107
  686TIP3    H123693   3.900   3.327   8.425 -0.3492  0.1914 -1.3687
  686TIP3    H223694   4.023   3.349   8.340  0.9338 -0.2351  0.3340
  687TIP3   OH223695   4.710   3.357   5.413 -0.3690  0.1872 -0.7907
  687TIP3    H123696   4.706   3.337   5.319 -2.1580 -1.1723 -0.4701
  687TIP3    H223697   4.641   3.422   5.426 -1.8063 -1.3971 -0.0728
  688TIP3   OH223698   1.227   6.711   0.732  0.4976  0.3473 -0.0891
  688TIP3    H123699   1.279   6.664   0.666 -0.1708  0.6463 -0.8391
  688TIP3    H223700   1.145   6.731   0.688  0.5298  1.6848  0.4186
  689TIP3   OH223701   1.804   1.847   6.180 -0.3131 -0.0645  0.0017
  689TIP3    H123702   1.869   1.810   6.121 -0.6282 -1.7746  0.6882
  689TIP3    H223703   1.777   1.929   6.137  1.0483 -0.1664 -1.1091
  690TIP3   OH223704   0.601   5.527   8.235  0.3141  0.1666 -0.1554
  690TIP3    H123705   0.648   5.496   8.157 -0.1091  3.0913 -1.6845
  690TIP3    H223706   0.539   5.457   8.254  2.6817 -2.1517 -0.2998
  691TIP3   OH223707   0.254   2.388   8.173 -0.1834 -0.2600  0.0464
  691TIP3    H123708   0.174   2.434   8.146 -0.0533  0.3656  0.6883
  691TIP3    H223709   0.300   2.369   8.090 -1.4797 -1.5648 -0.4023
  692TIP3   OH223710   2.411   4.461   6.161  0.4861 -0.1698 -0.2482
  692TIP3    H123711   2.436   4.396   6.227 -1.7271  0.7015  1.5646
  692TIP3    H223712   2.479   4.528   6.165  0.4158 -0.1655  1.1371
  693TIP3   OH223713   4.665   5.445   8.601 -0.1353 -0.5716 -0.2768
  693TIP3    H123714   4.665   5.391   8.680  0.4362 -2.9438 -1.8068
  693TIP3    H223715   4.594   5.411   8.548 -0.5298  1.0066 -0.8178
  694TIP3   OH223716   5.012   2.780   6.616 -0.8127  0.1208 -0.1026
  694TIP3    H123717   4.988   2.869   6.642  0.0354  0.2153  0.3853
  694TIP3    H223718   4.945   2.755   6.552 -0.8924  1.2142 -0.4598
  695TIP3   OH223719   6.304   1.720   5.992  0.3470 -0.2248  0.7641
  695TIP3    H123720   6.249   1.646   5.965  0.4396  0.2768 -0.8834
  695TIP3    H223721   6.243   1.792   6.004  0.4199 -0.2013  1.0032
  696TIP3   OH223722   5.240   6.246   7.348 -0.4155  0.0848 -0.2284
  696TIP3    H123723   5.332   6.249   7.320 -0.3900  0.2949 -0.1194
  696TIP3    H223724   5.212   6.157   7.326 -0.5365  0.3875 -1.3784
  697TIP3   OH223725   5.868   2.712   8.324  0.0853 -0.5255 -0.0120
  697TIP3    H123726   5.784   2.679   8.293  0.5348 -0.7343 -1.0461
  697TIP3    H223727   5.850   2.800   8.356 -0.5933 -0.7263  0.1633
  698TIP3   OH223728   1.558   2.381   8.431  0.2700  0.1032 -0.2547
  698TIP3    H123729   1.556   2.377   8.336 -2.0986  0.0288 -0.2762
  698TIP3    H223730   1.623   2.447   8.452 -0.4179  1.4039 -2.0154
  699TIP3   OH223731   2.905   5.838   0.191 -0.5345 -0.1069 -0.2225
  699TIP3    H123732   2.877   5.911   0.137  0.3910  1.6471  1.5244
  699TIP3    H223733   2.907   5.873   0.280  1.2473 -1.8478  0.5260
  700TIP3   OH223734   0.708   0.734   0.688  0.0762 -0.3117 -0.5433
  700TIP3    H123735   0.719   0.658   0.745 -0.0569  0.2858  0.3197
  700TIP3    H223736   0.768   0.799   0.725 -0.7627  0.4325 -0.4512
  701TIP3   OH223737   6.070   5.210   8.360 -0.0757  0.0039  0.0567
  701TIP3    H123738   6.004   5.271   8.326  0.3033  0.6923  0.5112
  701TIP3    H223739   6.106   5.255   8.436  0.0006 -0.9423  0.5870
  702TIP3   OH223740   5.583   2.651   0.364  0.3566 -0.2205  0.2906
  702TIP3    H123741   5.661   2.646   0.309 -1.7370 -1.9899 -2.8639
  702TIP3    H223742   5.593   2.580   0.427  0.6458 -1.4298 -1.0804
  703TIP3   OH223743   2.416   1.487   7.459 -0.1083 -0.1173 -0.4198
  703TIP3    H123744   2.432   1.395   7.478  0.4817  0.2088  0.7571
  703TIP3    H223745   2.461   1.503   7.376 -0.2680 -0.8970 -0.6622
  704TIP3   OH223746   5.646   4.985   0.960 -0.0076  0.0350  0.3061
  704TIP3    H123747   5.613   5.075   0.964  0.1802  0.0876  0.7151
  704TIP3    H223748   5.667   4.971   0.867  1.7215  1.0570  0.4931
  705TIP3   OH223749   2.603   1.770   0.707 -0.0482  0.1891  0.2751
  705TIP3    H123750   2.553   1.795   0.629 -2.2321 -1.0321  1.1804
  705TIP3    H223751   2.651   1.849   0.731  0.0071  0.8398 -1.7883
  706TIP3   OH223752   6.812   5.631   0.705  0.2841  0.3446 -0.0045
  706TIP3    H123753   6.832   5.705   0.763  0.5868  0.4443 -0.2405
  706TIP3    H223754   6.894   5.584   0.697  1.3293  2.4122 -3.3964
  707TIP3   OH223755   1.943   2.874   6.461  0.9496 -0.7854  0.4101
  707TIP3    H123756   1.987   2.946   6.507 -0.8633  0.0478  0.9470
  707TIP3    H223757   1.887   2.918   6.397  0.2228 -1.7278  0.3785
  708TIP3   OH223758   0.876   3.692   0.352  0.2412 -0.1317  0.1920
  708TIP3    H123759   0.865   3.649   0.436  1.5194 -1.6872 -0.3878
  708TIP3    H223760   0.901   3.622   0.292  0.7502  1.1620 -1.1768
  709TIP3   OH223761   2.113   5.214   1.322  0.1908  0.1977 -0.3270
  709TIP3    H123762   2.191   5.255   1.358 -0.2670 -0.4320  1.4717
  709TIP3    H223763   2.113   5.240   1.230  2.4499  0.2924 -0.3568
  710TIP3   OH223764   0.590   3.353   0.609 -0.3012 -0.1253 -0.0985
  710TIP3    H123765   0.502   3.347   0.572  0.1696 -0.3876 -1.2173
  710TIP3    H223766   0.626   3.434   0.571  0.4697 -0.8059 -0.8527
  711TIP3   OH223767   3.688   4.451   8.268  0.4209 -0.1586 -0.6089
  711TIP3    H123768   3.669   4.530   8.318  0.1655  0.2578 -1.3514
  711TIP3    H223769   3.632   4.384   8.308  1.0073 -0.1036  0.3492
  712TIP3   OH223770   2.428   1.035   0.997 -0.0615  1.0185  0.0549
  712TIP3    H123771   2.470   0.950   1.006 -2.0221 -0.1953 -1.3817
  712TIP3    H223772   2.499   1.095   0.973  0.9865 -0.7852 -1.6051
  713TIP3   OH223773   4.227   5.977   8.071  0.7820  0.0232 -0.0282
  713TIP3    H123774   4.138   6.010   8.079  1.3263  1.8676 -1.0542
  713TIP3    H223775   4.216   5.889   8.033 -0.5886  0.1666 -0.0220
  714TIP3   OH223776   3.828   4.233   7.919 -0.8701 -0.0662 -0.4086
  714TIP3    H123777   3.797   4.157   7.969 -0.0795  1.1053  2.0445
  714TIP3    H223778   3.768   4.239   7.844 -1.7371 -2.3187  0.0306
  715TIP3   OH223779   2.250   5.414   6.626  0.4550  0.2846 -0.0363
  715TIP3    H123780   2.234   5.505   6.603 -1.2656  0.2512  0.8491
  715TIP3    H223781   2.199   5.364   6.562  0.3697 -0.0034  0.2517
  716TIP3   OH223782   3.646   2.882   0.851  0.6783 -0.6951  0.2697
  716TIP3    H123783   3.719   2.872   0.790 -0.5654 -2.3754 -1.0380
  716TIP3    H223784   3.686   2.873   0.938  2.7399  3.1589 -0.0614
  717TIP3   OH223785   0.001   1.674   1.704  0.1482 -0.4449  0.2769
  717TIP3    H123786  -0.012   1.726   1.783 -1.2566 -0.2058 -0.0883
  717TIP3    H223787  -0.017   1.735   1.632 -0.6454 -1.1958 -0.1767
  718TIP3   OH223788   0.527   0.394   8.431  0.2975  0.5155  0.2569
  718TIP3    H123789   0.512   0.488   8.421 -0.7121  0.2325 -1.2030
  718TIP3    H223790   0.619   0.382   8.405 -0.1766  0.8427 -1.7392
  719TIP3   OH223791   5.012   1.957   6.294 -0.0802  0.2876  0.6407
  719TIP3    H123792   5.072   1.896   6.251 -1.2932 -0.2698 -0.3191
  719TIP3    H223793   5.067   2.030   6.321  1.2447 -0.8039  0.9792
  720TIP3   OH223794   5.388   3.410   8.330  0.1484  0.5687 -0.2180
  720TIP3    H123795   5.303   3.370   8.348 -0.5701  1.0816 -2.2431
  720TIP3    H223796   5.417   3.442   8.415 -2.1994  1.3178  0.3970
  721TIP3   OH223797   5.230   4.130   6.562 -0.5193 -0.5207  0.4303
  721TIP3    H123798   5.142   4.120   6.526  0.2727 -0.2818 -1.6951
  721TIP3    H223799   5.275   4.189   6.502  1.0213 -0.3850  1.6340
  722TIP3   OH223800   3.252   1.707   0.021  0.0810 -0.3082 -0.4282
  722TIP3    H123801   3.339   1.727   0.055  0.3532 -1.9878 -0.0572
  722TIP3    H223802   3.236   1.617   0.048 -2.1763  0.2543  0.3060
  723TIP3   OH223803   1.025   5.902   0.407  0.2394  0.4952 -0.1937
  723TIP3    H123804   1.062   5.953   0.335  1.3116  0.7596  0.5205
  723TIP3    H223805   0.941   5.944   0.425 -0.0402  0.4236 -1.2819
  724TIP3   OH223806   6.269   4.795   8.347 -0.4319 -0.3044 -0.5370
  724TIP3    H123807   6.344   4.749   8.310 -2.2481 -3.7678 -0.2826
  724TIP3    H223808   6.218   4.823   8.271  0.0632  0.1842 -0.6917
  725TIP3   OH223809   3.976   1.829   1.685  0.0652  0.5021 -0.1043
  725TIP3    H123810   3.910   1.861   1.747 -0.5840 -2.2718  0.7892
  725TIP3    H223811   4.045   1.895   1.687 -1.0176  1.6577  1.7876
  726TIP3   OH223812   3.903   0.987   1.876  0.0395  0.4340  0.3451
  726TIP3    H123813   3.984   1.031   1.851  0.5665 -0.3195  0.6854
  726TIP3    H223814   3.925   0.941   1.957 -0.5592 -0.2542  0.1260
  727TIP3   OH223815   0.792   6.757   6.974  0.4944  0.5566  0.8288
  727TIP3    H123816   0.837   6.841   6.962  1.9939 -0.0901  1.7299
  727TIP3    H223817   0.851   6.692   6.936 -0.7889 -0.1000 -0.1391
  728TIP3   OH223818   4.487   3.577   1.425  0.3507  0.1575  0.5408
  728TIP3    H123819   4.565   3.563   1.479 -0.1646 -0.5454  1.1262
  728TIP3    H223820   4.494   3.668   1.398  1.5284  0.0288  0.3256
  729TIP3   OH223821   6.654   6.661   5.733  0.1095 -0.1536  0.3242
  729TIP3    H123822   6.592   6.707   5.677  0.1934  1.0809  1.2050
  729TIP3    H223823   6.694   6.729   5.787  0.2527 -1.2464  1.6697
  730TIP3   OH223824   4.011   3.939   7.043 -0.4706  0.2161 -0.2125
  730TIP3    H123825   3.990   3.883   7.117  0.8322 -1.4827 -1.0580
  730TIP3    H223826   4.007   4.028   7.078 -0.5343 -0.5029  1.7162
  731TIP3   OH223827   2.453   3.029   7.944 -0.5520  0.1528  0.6403
  731TIP3    H123828   2.412   3.063   7.864  0.3426  0.2883  0.2360
  731TIP3    H223829   2.535   3.076   7.951  0.6135 -1.7180  0.2045
  732TIP3   OH223830   4.317   0.384   7.544  0.2174 -0.6932 -0.3626
  732TIP3    H123831   4.378   0.342   7.482  0.2945 -0.8103 -0.2074
  732TIP3    H223832   4.339   0.477   7.539 -0.5003 -0.5588 -1.3134
  733TIP3   OH223833   4.980   6.737   6.923  0.1483  0.5671  0.2349
  733TIP3    H123834   4.906   6.677   6.918  0.4639  0.1163  0.8683
  733TIP3    H223835   4.943   6.816   6.962  0.2690 -0.1366  1.8611
  734TIP3   OH223836   3.769   1.121   6.091  0.9176  0.0275 -0.0689
  734TIP3    H123837   3.825   1.180   6.039  1.1808  0.6027  0.8390
  734TIP3    H223838   3.720   1.179   6.148 -1.7194 -0.3341 -1.7811
  735TIP3   OH223839   6.226   2.217   2.035  0.4967  0.6062  0.5129
  735TIP3    H123840   6.188   2.132   2.056  1.2790 -0.3024 -1.5523
  735TIP3    H223841   6.316   2.213   2.067  0.9214  0.1620 -0.7087
  736TIP3   OH223842   0.936   3.610   8.055 -0.8717 -0.5425  0.4803
  736TIP3    H123843   0.973   3.698   8.050 -1.2006 -0.4629 -0.6601
  736TIP3    H223844   1.005   3.553   8.021 -1.7508 -0.3825 -1.7691
  737TIP3   OH223845   3.179   3.852   8.655 -0.3560  0.0610  0.4544
  737TIP3    H123846   3.255   3.850   8.597  0.1608  1.3423  1.0390
  737TIP3    H223847   3.194   3.781   8.717  0.1301  0.0208  0.2910
  738TIP3   OH223848   6.475   6.055   0.683 -0.1128  0.1374 -0.1825
  738TIP3    H123849   6.398   6.111   0.670 -0.5599 -0.4945 -0.3089
  738TIP3    H223850   6.441   5.979   0.731  0.5886  0.2195  0.4631
  739TIP3   OH223851   2.348   4.855   0.388  0.1413 -0.0277 -0.2001
  739TIP3    H123852   2.369   4.884   0.299 -1.2345  0.7144 -0.3012
  739TIP3    H223853   2.405   4.779   0.402  1.8967  1.0892 -0.9233
  740TIP3   OH223854   0.550   1.094   8.500 -0.7417 -0.6561 -0.4480
  740TIP3    H123855   0.491   1.164   8.530  0.0077 -0.7391  1.2917
  740TIP3    H223856   0.511   1.014   8.534 -0.9757 -0.9960 -1.4743
  741TIP3   OH223857   6.026   0.162   7.439 -0.5141 -0.4541 -0.1167
  741TIP3    H123858   6.063   0.227   7.379 -0.7587 -1.1146 -0.9938
  741TIP3    H223859   6.000   0.213   7.516 -0.3283  0.4300 -0.6265
  742TIP3   OH223860   5.099   3.164   0.246  0.3807 -0.1289  0.8610
  742TIP3    H123861   5.102   3.258   0.227 -0.5988  0.1838  2.0833
  742TIP3    H223862   5.023   3.154   0.305  0.8595 -1.5840  1.2771
  743TIP3   OH223863   5.200   4.318   0.815  0.4769 -0.3922  0.2741
  743TIP3    H123864   5.236   4.275   0.737  1.2506  1.6825 -0.5691
  743TIP3    H223865   5.132   4.376   0.781  0.0995 -0.2322  1.2823
  744TIP3   OH223866   3.315   4.035   7.040  0.0515  0.0690  0.0150
  744TIP3    H123867   3.346   3.998   7.124  0.3313  0.4139  0.0650
  744TIP3    H223868   3.283   4.122   7.063  1.6012  0.7984 -0.4892
  745TIP3   OH223869   0.457   1.560   7.570  0.3916  0.7079 -0.3230
  745TIP3    H123870   0.373   1.560   7.525  1.2251  1.2303 -1.9662
  745TIP3    H223871   0.501   1.640   7.539  1.9973 -0.2137 -0.5269
  746TIP3   OH223872   4.266   1.973   8.481  0.0948 -0.2209  0.1994
  746TIP3    H123873   4.357   2.003   8.489  0.2654 -1.0858  2.1348
  746TIP3    H223874   4.221   2.020   8.552 -0.8968 -0.0951 -0.5076
  747TIP3   OH223875   0.676   1.838   0.731 -0.1099 -0.4439  0.2636
  747TIP3    H123876   0.617   1.766   0.707 -0.6730  0.5788 -1.5914
  747TIP3    H223877   0.761   1.812   0.693 -0.1455 -0.4557  0.1908
  748TIP3   OH223878   4.063   6.283   8.713  0.0028 -0.2274  0.8908
  748TIP3    H123879   4.128   6.313   8.776  0.5013  0.1336  0.2201
  748TIP3    H223880   4.001   6.355   8.705  0.2087 -0.0831  0.6048
  749TIP3   OH223881   3.111   2.293   0.648 -0.0542  0.1123 -0.4496
  749TIP3    H123882   3.089   2.336   0.730 -0.1486  0.0494 -0.4425
  749TIP3    H223883   3.083   2.355   0.580 -2.9068 -1.1291 -0.5536
  750TIP3   OH223884   4.532   0.627   6.517  1.3156 -0.3119 -0.4562
  750TIP3    H123885   4.605   0.655   6.571  0.3114 -1.0390  1.3424
  750TIP3    H223886   4.509   0.540   6.549 -1.4404  0.5787  0.2773
  751TIP3   OH223887   1.822   3.553   0.131  0.3581 -0.6280 -0.3243
  751TIP3    H123888   1.740   3.588   0.163  0.6553 -0.3989  0.1897
  751TIP3    H223889   1.806   3.534   0.038  0.0966  0.5336 -0.5234
  752TIP3   OH223890   5.414   0.678   8.491  0.3184  0.0181  0.2119
  752TIP3    H123891   5.479   0.746   8.508 -1.6030  1.8425  0.8075
  752TIP3    H223892   5.410   0.628   8.573  0.1844  0.6189  0.5789
  753TIP3   OH223893   1.204   0.515   1.578 -0.1349  0.1729 -0.1638
  753TIP3    H123894   1.116   0.552   1.589 -0.3043 -0.4062  0.5189
  753TIP3    H223895   1.258   0.564   1.640 -0.1047  0.1221 -0.1503
  754TIP3   OH223896   3.483   2.094   0.512  0.5555 -0.0195  0.1795
  754TIP3    H123897   3.498   2.186   0.536  0.3617  0.1108 -0.2008
  754TIP3    H223898   3.551   2.075   0.448  1.2392 -0.4474  1.0037
  755TIP3   OH223899   4.141   4.972   0.552 -0.3478  0.1748  0.1847
  755TIP3    H123900   4.110   4.953   0.640 -2.1724  1.1223 -0.1918
  755TIP3    H223901   4.161   5.066   0.554 -0.2745  0.1743 -0.3626
  756TIP3   OH223902   6.630   2.914   6.965  0.4892  0.5629 -0.7455
  756TIP3    H123903   6.654   2.823   6.978  0.6611  0.7937  0.7885
  756TIP3    H223904   6.711   2.962   6.980  0.0037  1.0764  0.3565
  757TIP3   OH223905   0.068   3.378   8.168  0.3798  0.4237  0.1197
  757TIP3    H123906   0.066   3.396   8.262 -2.1237 -0.1522  0.2481
  757TIP3    H223907   0.072   3.464   8.127  0.8110  0.7051  0.7397
  758TIP3   OH223908   4.701   2.791   1.390  0.4944 -0.2022  0.0487
  758TIP3    H123909   4.607   2.800   1.400  0.2629 -1.3115 -0.8720
  758TIP3    H223910   4.732   2.763   1.476  0.1351  1.0827  0.6153
  759TIP3   OH223911   2.025   6.017   5.877  0.2322  0.4918  0.2347
  759TIP3    H123912   1.987   5.963   5.946  0.9819 -0.1489  0.1717
  759TIP3    H223913   2.043   6.101   5.919  1.2372 -0.0829  1.0111
  760TIP3   OH223914   6.459   6.031   8.073 -0.5053 -0.4297 -0.3173
  760TIP3    H123915   6.378   6.047   8.024 -0.5185 -0.3126 -0.2572
  760TIP3    H223916   6.524   6.086   8.029  0.0063 -1.9827 -1.6057
  761TIP3   OH223917   6.652   5.927   8.640  0.1637 -0.6449 -0.7277
  761TIP3    H123918   6.730   5.965   8.599  0.4725 -1.6804 -1.1268
  761TIP3    H223919   6.582   5.990   8.623  0.9040  0.2904 -0.3780
  762TIP3   OH223920   4.508   1.968   0.917  0.2358  0.0532 -0.3382
  762TIP3    H123921   4.430   1.915   0.934  1.5489 -1.3865  1.8101
  762TIP3    H223922   4.481   2.031   0.850 -2.3314 -1.2778 -0.6751
  763TIP3   OH223923   2.262   0.385   1.139 -0.4855  0.0336  0.0076
  763TIP3    H123924   2.305   0.301   1.122  0.8076  0.3807  1.3468
  763TIP3    H223925   2.277   0.401   1.232 -2.1843  0.9596  0.1547
  764TIP3   OH223926   2.933   0.684   0.577  0.5682  0.1669 -0.3276
  764TIP3    H123927   2.864   0.636   0.531 -0.4081  2.0334 -0.9081
  764TIP3    H223928   3.002   0.695   0.511  0.3704  0.4237 -0.4906
  765TIP3   OH223929   4.441   2.265   1.043 -0.0789 -0.5978  0.2837
  765TIP3    H123930   4.419   2.183   1.087  0.6363  0.3631  2.5687
  765TIP3    H223931   4.373   2.326   1.070  0.2526 -0.0311 -0.1331
  766TIP3   OH223932   0.357   3.461   1.496 -0.6275 -0.8568 -0.2492
  766TIP3    H123933   0.306   3.542   1.495 -0.7077 -0.8251  2.0752
  766TIP3    H223934   0.389   3.453   1.406 -1.8419  0.9526 -0.9156
  767TIP3   OH223935   6.522   4.899   7.982  0.7019  0.0410 -0.6967
  767TIP3    H123936   6.493   4.887   7.891 -1.0792  2.2754 -0.5315
  767TIP3    H223937   6.451   4.950   8.022  3.4418  3.1198  0.6941
  768TIP3   OH223938   5.888   3.183   2.003 -0.4699  0.4588 -0.2874
  768TIP3    H123939   5.937   3.106   1.973  0.8205  0.7350  0.9963
  768TIP3    H223940   5.798   3.166   1.976 -0.1642 -1.3831 -0.2765
  769TIP3   OH223941   3.161   4.063   7.494  0.9709 -0.2379 -0.5949
  769TIP3    H123942   3.133   4.012   7.418  0.5554  1.0590 -1.3467
  769TIP3    H223943   3.144   4.007   7.569  3.2388 -2.3738 -1.5400
  770TIP3   OH223944   5.919   2.497   1.796  0.2429 -0.3131  0.0633
  770TIP3    H123945   5.831   2.515   1.829  0.5791 -0.4474  1.0707
  770TIP3    H223946   5.967   2.579   1.809  0.3048 -0.2802 -0.3630
  771TIP3   OH223947   3.127   4.683   0.657  0.4239 -0.0878 -0.1124
  771TIP3    H123948   3.099   4.697   0.566  0.2604 -1.4226 -0.2836
  771TIP3    H223949   3.088   4.600   0.682  0.6010  0.1924  1.1421
  772TIP3   OH223950   0.614   0.755   8.237  0.2003  0.1656  0.2647
  772TIP3    H123951   0.608   0.705   8.155  1.6250 -0.3360  0.4351
  772TIP3    H223952   0.566   0.836   8.219  0.1640 -0.1047 -0.9405
  773TIP3   OH223953   4.822   1.822   6.139  0.4915 -0.1423 -0.0938
  773TIP3    H123954   4.893   1.865   6.188 -0.5813 -0.7596  2.1051
  773TIP3    H223955   4.763   1.894   6.115  0.8476  0.1187 -0.2057
  774TIP3   OH223956   6.500   4.964   6.875 -0.3048 -0.1099  0.0309
  774TIP3    H123957   6.521   5.054   6.900 -0.8427  0.3269 -1.0128
  774TIP3    H223958   6.442   4.973   6.799  0.2000 -1.3429 -0.5352
  775TIP3   OH223959   4.981   6.184   7.148 -0.2502 -0.7711 -0.1137
  775TIP3    H123960   5.055   6.243   7.146 -0.6312 -0.2718 -1.7827
  775TIP3    H223961   5.015   6.102   7.184  0.7076 -0.0821  0.5709
  776TIP3   OH223962   4.684   6.749   7.136 -0.4558 -0.6546  0.1087
  776TIP3    H123963   4.590   6.740   7.121 -0.6795  0.3560  0.8334
  776TIP3    H223964   4.707   6.833   7.096  0.6631 -2.0163 -2.3482
  777TIP3   OH223965   1.416   4.750   0.542 -0.0089  0.4601  0.1441
  777TIP3    H123966   1.481   4.685   0.515  0.7254  0.7447  1.1605
  777TIP3    H223967   1.417   4.747   0.638 -2.2423 -0.2371  0.2003
  778TIP3   OH223968   0.487   1.788   6.893 -0.3821  0.0313  0.7919
  778TIP3    H123969   0.451   1.734   6.963 -2.9787 -0.2036 -0.6045
  778TIP3    H223970   0.484   1.877   6.928  1.1433 -0.3524  2.0119
  779TIP3   OH223971   2.963   5.587   8.615  0.2972 -0.2503  0.1821
  779TIP3    H123972   3.046   5.599   8.569  0.3095  0.4126  0.3739
  779TIP3    H223973   2.988   5.572   8.706  0.2658 -1.4063  0.0177
  780TIP3   OH223974   2.280   5.502   0.323 -0.0725  0.1130 -0.4593
  780TIP3    H123975   2.211   5.440   0.347 -1.6417  1.5999 -0.8933
  780TIP3    H223976   2.354   5.479   0.379 -1.1968 -1.0315  0.6290
  781TIP3   OH223977   6.112   4.231   1.332 -0.2100 -0.3641  1.1227
  781TIP3    H123978   6.090   4.139   1.316 -0.2048 -0.2147  0.1887
  781TIP3    H223979   6.203   4.239   1.304 -0.6516  0.2481 -0.2265
  782TIP3   OH223980   3.070   5.802   8.096  0.0142 -0.0990  0.3015
  782TIP3    H123981   3.136   5.758   8.043 -0.3775  0.0043 -0.2763
  782TIP3    H223982   3.013   5.846   8.033  0.0917  0.8068  0.8387
  783TIP3   OH223983   0.635   2.666   0.890  0.1996  0.0308 -0.2024
  783TIP3    H123984   0.712   2.721   0.901  0.4704 -0.6571  1.6597
  783TIP3    H223985   0.586   2.707   0.818  1.5561  1.3044 -0.4455
  784TIP3   OH223986   3.446   1.253   0.024 -0.1987 -0.0405 -0.6802
  784TIP3    H123987   3.372   1.305  -0.008  1.2491  0.8327 -2.8326
  784TIP3    H223988   3.491   1.310   0.085 -1.5462 -0.7943  1.1268
  785TIP3   OH223989   6.609   2.549   1.342 -0.6977 -0.3154  0.1811
  785TIP3    H123990   6.612   2.558   1.437 -0.1025  0.3693  0.1058
  785TIP3    H223991   6.655   2.467   1.324  2.0205  1.0676  0.3039
  786TIP3   OH223992   3.867   0.324   1.322 -0.3543  0.1685 -0.2166
  786TIP3    H123993   3.902   0.360   1.404 -1.0199  0.2053  0.0580
  786TIP3    H223994   3.931   0.350   1.255  0.6452 -0.6046  0.4168
  787TIP3   OH223995   2.177   1.053   2.173 -0.3847  0.2499  0.2584
  787TIP3    H123996   2.091   1.038   2.212  0.3234 -3.7217  0.6684
  787TIP3    H223997   2.162   1.046   2.079 -0.3849 -2.0674  0.3721
  788TIP3   OH223998   6.424   1.153   7.876  0.1736 -0.6393 -0.2691
  788TIP3    H123999   6.479   1.221   7.915 -2.9811  1.3329  1.0566
  788TIP3    H224000   6.401   1.096   7.949  0.0498 -1.1742 -0.7184
  789TIP3   OH224001   5.296   3.152   7.053 -0.2887 -0.6320 -0.0897
  789TIP3    H124002   5.322   3.215   6.985  0.5868 -0.9889 -0.1000
  789TIP3    H224003   5.258   3.079   7.005 -1.1119 -0.2163 -0.0909
  790TIP3   OH224004   4.783   5.190   1.538  0.1736 -0.1082 -0.2706
  790TIP3    H124005   4.727   5.241   1.597 -0.6964 -0.4999 -0.7300
  790TIP3    H224006   4.755   5.217   1.450  1.4932  0.5091 -0.5251
  791TIP3   OH224007   2.940   0.194   0.968 -0.2849  0.1520  0.0275
  791TIP3    H124008   2.872   0.262   0.963  0.8524  1.3869  0.6059
  791TIP3    H224009   2.930   0.158   1.056 -0.7535 -0.3085 -0.2062
  792TIP3   OH224010   2.232   1.165   7.429 -0.3340 -0.5747 -0.0116
  792TIP3    H124011   2.326   1.162   7.407 -0.6786 -0.4432 -1.6785
  792TIP3    H224012   2.197   1.233   7.372 -1.2862  0.1147  1.3440
  793TIP3   OH224013   2.669   0.388   1.350 -0.3176  0.1500  0.1739
  793TIP3    H124014   2.673   0.357   1.259 -0.3138 -0.6265  0.4405
  793TIP3    H224015   2.761   0.396   1.376 -0.3160 -1.1548  0.6240
  794TIP3   OH224016   0.127   1.564   0.874  0.1323 -0.5221  0.2863
  794TIP3    H124017   0.151   1.575   0.782 -1.3432  0.7247  0.0002
  794TIP3    H224018   0.134   1.653   0.911 -0.4174 -0.7932  1.0694
  795TIP3   OH224019   4.203   3.236   8.748  0.6738  0.0859  0.1013
  795TIP3    H124020   4.270   3.248   8.815  0.4939  0.4611  0.2192
  795TIP3    H224021   4.213   3.146   8.719  0.6219 -0.1357  0.7698
  796TIP3   OH224022   1.748   2.352   6.475 -0.1115 -0.4405  0.1855
  796TIP3    H124023   1.823   2.321   6.425 -0.6119 -0.0006 -0.8962
  796TIP3    H224024   1.780   2.428   6.523 -0.2256  0.8539 -1.6436
  797TIP3   OH224025   3.295   4.703   0.115  0.5691  0.2022 -0.5859
  797TIP3    H124026   3.279   4.780   0.169 -1.1985  0.2745 -1.1684
  797TIP3    H224027   3.310   4.738   0.027 -1.3094 -0.1210 -1.0775
  798TIP3   OH224028   2.270   3.086   6.773  0.2897  0.3906 -0.3609
  798TIP3    H124029   2.185   3.049   6.793  0.6837 -0.6500 -0.5374
  798TIP3    H224030   2.330   3.043   6.833  0.6296  1.4866  0.1163
  799TIP3   OH224031   1.758   0.706   8.305  0.5104  0.2772  0.0535
  799TIP3    H124032   1.748   0.617   8.338 -0.0578  0.4785  0.4273
  799TIP3    H224033   1.687   0.717   8.241  0.7617  0.3629 -0.2173
  800TIP3   OH224034   3.793   1.348   6.590  0.1999  0.9425  0.0494
  800TIP3    H124035   3.873   1.323   6.636  1.0679  0.5321 -1.5943
  800TIP3    H224036   3.730   1.280   6.612  0.9470  0.1359 -0.2532
  801TIP3   OH224037   5.211   1.006   1.203 -0.8434  0.3039  0.5776
  801TIP3    H124038   5.242   1.078   1.147 -0.2835 -0.5866 -0.2801
  801TIP3    H224039   5.266   1.012   1.281 -1.3486  1.2966  0.8760
  802TIP3   OH224040   0.567   3.594   7.322  0.5147  0.4865 -0.0878
  802TIP3    H124041   0.554   3.670   7.378 -2.9294  0.1111 -0.1328
  802TIP3    H224042   0.578   3.521   7.383  3.2213  0.8281 -0.0468
  803TIP3   OH224043   3.271   2.920   0.884  0.0401  0.0485  0.2253
  803TIP3    H124044   3.331   2.984   0.846  1.2017 -0.5810  0.9569
  803TIP3    H224045   3.202   2.973   0.924 -0.2642  0.7647 -1.1867
  804TIP3   OH224046   3.111   4.431   0.414 -0.0894 -0.0074  0.0331
  804TIP3    H124047   3.061   4.437   0.495  0.2707  1.8960  0.1618
  804TIP3    H224048   3.058   4.477   0.349  0.3071 -0.2212 -0.4475
  805TIP3   OH224049   2.635   0.426   8.743  0.1369  0.3060 -0.1820
  805TIP3    H124050   2.647   0.335   8.770 -0.1370  0.7521  1.5795
  805TIP3    H224051   2.696   0.438   8.670  1.0342 -0.9567  0.3209
  806TIP3   OH224052   4.698   5.079   0.704  0.1249  0.6086 -0.8050
  806TIP3    H124053   4.727   5.149   0.764 -0.3611 -0.7686  1.1384
  806TIP3    H224054   4.631   5.032   0.753 -0.2897 -0.6119 -2.4729
  807TIP3   OH224055   1.492   4.223   1.102  0.4266 -0.2461  0.1040
  807TIP3    H124056   1.422   4.209   1.037  0.0720  3.5778 -0.5693
  807TIP3    H224057   1.572   4.198   1.056 -0.1132 -0.5535 -0.7072
  808TIP3   OH224058   0.993   6.804   0.585 -0.6896  0.7378 -0.2931
  808TIP3    H124059   1.036   6.881   0.549  0.2326  0.3765  0.0125
  808TIP3    H224060   0.962   6.756   0.508  1.5318 -0.1834 -0.6918
  809TIP3   OH224061   0.810   2.534   7.746 -0.4874  0.2328 -0.1610
  809TIP3    H124062   0.718   2.521   7.723 -0.9924 -1.0420  2.2422
  809TIP3    H224063   0.810   2.617   7.795 -0.0339  1.0649 -1.5094
  810TIP3   OH224064   3.184   0.735   6.817  0.3890 -0.1368 -0.4736
  810TIP3    H124065   3.259   0.783   6.851 -0.0638 -0.4426  1.0453
  810TIP3    H224066   3.125   0.727   6.892 -0.7891 -0.6216 -1.4215
  811TIP3   OH224067   6.752   3.188   7.894  0.0655  0.1733  0.0063
  811TIP3    H124068   6.672   3.235   7.916 -0.2075 -1.3239  2.7992
  811TIP3    H224069   6.723   3.097   7.880  1.0601 -0.0226 -0.9210
  812TIP3   OH224070   1.013   0.078   6.909 -0.5862  0.2512 -0.0468
  812TIP3    H124071   0.995   0.069   6.816  1.9297  0.1724 -0.6177
  812TIP3    H224072   1.022   0.173   6.922 -0.7302  0.2492  0.0649
  813TIP3   OH224073   3.483   4.140   6.295 -0.2080 -0.3385 -0.3431
  813TIP3    H124074   3.405   4.121   6.349 -0.0128 -0.9904 -0.2772
  813TIP3    H224075   3.486   4.067   6.232 -0.1588  0.1633 -0.9255
  814TIP3   OH224076   1.264   3.584   2.322 -0.5038  0.2374  0.0089
  814TIP3    H124077   1.321   3.660   2.331  0.6907 -0.5294 -0.7598
  814TIP3    H224078   1.228   3.592   2.233  0.1844 -0.4466 -0.3412
  815TIP3   OH224079   6.612   5.491   8.048  0.4470  0.0421  0.6883
  815TIP3    H124080   6.707   5.478   8.047  1.0594  3.4131 -1.1520
  815TIP3    H224081   6.584   5.471   7.959 -0.4487 -0.2055  1.0192
  816TIP3   OH224082   1.915   3.574   0.916 -0.3141 -0.0467 -0.2378
  816TIP3    H124083   1.951   3.612   0.836 -0.7879  1.7809  0.3591
  816TIP3    H224084   1.973   3.500   0.936 -0.1635 -0.5031 -2.2030
  817TIP3   OH224085   4.048   6.776   7.443  0.3271 -0.0356 -0.2983
  817TIP3    H124086   4.092   6.854   7.478  0.3212 -0.4344  0.6176
  817TIP3    H224087   3.955   6.790   7.463  0.4082 -0.6065  0.5568
  818TIP3   OH224088   6.738   6.065   0.302  0.2969 -0.4890  0.1678
  818TIP3    H124089   6.777   5.997   0.246  1.6142  0.3270  0.0342
  818TIP3    H224090   6.814   6.114   0.335 -0.5999  0.6275  0.6265
  819TIP3   OH224091   5.469   1.587   7.610  0.0306 -0.5366 -0.1205
  819TIP3    H124092   5.470   1.588   7.706  0.4157 -0.6889 -0.1211
  819TIP3    H224093   5.377   1.571   7.587 -0.3043  0.7743  0.2046
  820TIP3   OH224094   0.256   6.581   8.188  0.5119 -0.7821  0.2158
  820TIP3    H124095   0.198   6.584   8.113 -0.8463 -1.1543  1.2247
  820TIP3    H224096   0.278   6.673   8.205  0.6767 -0.6847 -0.5039
  821TIP3   OH224097   3.412   4.336   8.344 -0.7808  0.4313 -0.6866
  821TIP3    H124098   3.401   4.270   8.412  0.6690 -0.1790 -1.0096
  821TIP3    H224099   3.366   4.301   8.268 -0.0635 -0.2002 -0.8390
  822TIP3   OH224100   6.079   6.703   6.762 -0.2419 -0.0732 -0.1826
  822TIP3    H124101   5.997   6.653   6.766 -1.5051  1.7984 -1.1886
  822TIP3    H224102   6.137   6.649   6.709 -0.7632 -1.4949  0.6426
  823TIP3   OH224103   1.460   5.530   8.412 -0.5395  0.3881  0.3444
  823TIP3    H124104   1.398   5.599   8.437  0.1261  1.1482 -0.0397
  823TIP3    H224105   1.494   5.497   8.495 -1.5464 -0.1329  0.5666
  824TIP3   OH224106   1.744   4.550   1.246  0.7074  0.0560 -0.2045
  824TIP3    H124107   1.774   4.627   1.295  0.7231 -0.6105  0.8617
  824TIP3    H224108   1.653   4.570   1.224  0.8651  0.5966 -0.3967
  825TIP3   OH224109   2.693   3.169   1.579  0.1702 -0.0722  0.1959
  825TIP3    H124110   2.695   3.239   1.514 -1.3728  0.2069  0.4270
  825TIP3    H224111   2.625   3.195   1.641  1.8093 -0.1810  2.1406
  826TIP3   OH224112   3.118   3.380   7.798 -0.0632  0.3973  0.8791
  826TIP3    H124113   3.149   3.300   7.842 -1.4963 -0.3048  0.6524
  826TIP3    H224114   3.027   3.362   7.777  0.5682  0.6625 -2.5322
  827TIP3   OH224115   2.111   1.322   0.714  0.5862 -0.3228  0.2625
  827TIP3    H124116   2.104   1.402   0.661  1.0276  0.4757  1.3617
  827TIP3    H224117   2.079   1.252   0.657 -3.3410  1.0917  0.3965
  828TIP3   OH224118   3.787   6.607   7.219  0.0108 -0.3315  0.2570
  828TIP3    H124119   3.817   6.542   7.282  0.8923 -0.6869 -0.5230
  828TIP3    H224120   3.794   6.690   7.266 -0.4713 -0.7114  1.0213
  829TIP3   OH224121   0.004   6.285   0.133 -0.4327  0.3547 -0.0949
  829TIP3    H124122  -0.031   6.271   0.221  1.0206 -0.7693  0.3590
  829TIP3    H224123   0.099   6.275   0.144  0.2426  3.9984 -1.0827
  830TIP3   OH224124   4.013   1.452   0.102  0.1885  0.4776  0.2525
  830TIP3    H124125   3.964   1.388   0.153  0.5376  1.9943  2.6323
  830TIP3    H224126   4.096   1.462   0.148 -0.1702  3.1981  0.5218
  831TIP3   OH224127   5.047   5.594   6.290 -0.1734 -0.2392  0.0466
  831TIP3    H124128   4.995   5.664   6.251 -0.5340 -0.0126  0.9267
  831TIP3    H224129   5.001   5.514   6.266 -0.7787 -0.0581  0.5822
  832TIP3   OH224130   3.504   3.327   6.515 -0.2728  0.5420 -0.0922
  832TIP3    H124131   3.522   3.306   6.606  0.9194 -0.5173 -0.5259
  832TIP3    H224132   3.437   3.394   6.518  1.4205  2.2913  1.6449
  833TIP3   OH224133   2.542   6.100   0.003 -0.3843  0.3782 -0.4156
  833TIP3    H124134   2.556   6.194   0.016  0.7338  0.1969 -0.2150
  833TIP3    H224135   2.538   6.088  -0.091 -2.7429  0.9050 -0.4519
  834TIP3   OH224136   2.744   0.484   1.851  0.1257  0.1990 -0.3120
  834TIP3    H124137   2.834   0.498   1.822 -0.3350  0.1016 -1.9445
  834TIP3    H224138   2.751   0.460   1.943  1.7305  0.5474 -0.3094
  835TIP3   OH224139   3.785   5.315   0.266 -0.0706  0.6207 -0.2163
  835TIP3    H124140   3.746   5.402   0.258 -1.5531  0.0992  0.9558
  835TIP3    H224141   3.879   5.332   0.275 -0.0410  1.9455 -2.3411
  836TIP3   OH224142   3.043   3.711   7.522  0.0509  0.7407 -0.0627
  836TIP3    H124143   3.024   3.784   7.462  3.2192 -0.0652 -2.2688
  836TIP3    H224144   2.993   3.638   7.488 -1.8750  1.3714  1.2192
  837TIP3   OH224145   6.619   6.397   6.405  0.1692 -0.0677  0.8422
  837TIP3    H124146   6.658   6.364   6.486 -0.7192  1.4771  1.9631
  837TIP3    H224147   6.597   6.489   6.425  1.7685  1.0021 -1.8215
  838TIP3   OH224148   4.342   1.132   6.861 -0.2314 -0.6783  0.4071
  838TIP3    H124149   4.321   1.079   6.785 -0.8804 -0.7180  0.6058
  838TIP3    H224150   4.393   1.074   6.918  0.4898 -0.5649 -0.1036
  839TIP3   OH224151   2.527   6.623   6.493 -0.6029  0.1749  0.4092
  839TIP3    H124152   2.579   6.693   6.533  0.9239 -1.2866  1.0734
  839TIP3    H224153   2.561   6.616   6.404 -1.0991  0.5681  0.1777
  840TIP3   OH224154   4.959   3.698   1.084  0.4718 -0.6807 -0.0364
  840TIP3    H124155   4.955   3.762   1.012 -1.9820  1.3013  1.6905
  840TIP3    H224156   4.891   3.634   1.063  0.8478 -1.0186 -0.2435
  841TIP3   OH224157   0.426   0.848   7.085  0.0737  0.4983 -0.2099
  841TIP3    H124158   0.495   0.782   7.095 -0.6285 -0.3375 -0.7967
  841TIP3    H224159   0.466   0.916   7.030  1.0426  0.9426  0.9971
  842TIP3   OH224160   3.823   3.318   6.438  0.0546  0.1408  0.3519
  842TIP3    H124161   3.734   3.327   6.473 -0.2447  1.9047 -0.7221
  842TIP3    H224162   3.873   3.388   6.482 -0.1300  1.8326 -1.9422
  843TIP3   OH224163   4.976   4.218   0.467 -0.0436 -0.2812 -0.3443
  843TIP3    H124164   4.937   4.231   0.381  2.7404 -1.0188 -1.8277
  843TIP3    H224165   4.948   4.130   0.493  2.0301 -1.5700 -2.2436
  844TIP3   OH224166   5.863   0.857   0.926 -0.1888  0.1953 -0.2098
  844TIP3    H124167   5.888   0.909   1.002 -1.9707 -0.0655  0.6077
  844TIP3    H224168   5.771   0.876   0.913 -0.7797 -2.2637 -0.2245
  845TIP3   OH224169   6.711   4.670   8.324 -0.9810 -0.0701 -0.3939
  845TIP3    H124170   6.691   4.686   8.231 -1.9283  1.3512  0.0312
  845TIP3    H224171   6.651   4.726   8.372  0.5183  0.3590  1.0684
  846TIP3   OH224172   6.639   5.075   8.592  0.2919  0.0214  1.0636
  846TIP3    H124173   6.564   5.133   8.583  0.3260  0.1164  1.3627
  846TIP3    H224174   6.662   5.080   8.685 -1.8579 -3.1379  1.9379
  847TIP3   OH224175   1.054   1.479   1.552  0.4900 -0.3167  0.0240
  847TIP3    H124176   1.035   1.541   1.623  1.3015  1.9357 -1.6254
  847TIP3    H224177   1.148   1.463   1.559  0.4279 -0.7440 -0.0728
  848TIP3   OH224178   0.952   4.221   8.691  0.2281 -0.1111 -0.2704
  848TIP3    H124179   1.012   4.229   8.765  1.7549 -0.1055 -1.4634
  848TIP3    H224180   0.869   4.257   8.723  1.1474  0.8832  1.0928
  849TIP3   OH224181   4.260   3.338   5.764 -0.5529  0.6139  0.2165
  849TIP3    H124182   4.333   3.296   5.720  0.2584 -0.0368  2.0560
  849TIP3    H224183   4.276   3.432   5.753  0.4177  0.4731  0.3358
  850TIP3   OH224184   0.015   3.003   6.922  0.1845 -0.0405 -1.4420
  850TIP3    H124185  -0.025   3.044   6.845  0.5411  0.7592 -1.2091
  850TIP3    H224186   0.083   3.064   6.949 -0.6434  0.2085  0.1459
  851TIP3   OH224187   5.830   4.687   0.972  0.6323  0.3186 -0.3504
  851TIP3    H124188   5.832   4.754   1.040 -1.6617  0.3298 -0.2378
  851TIP3    H224189   5.868   4.609   1.013  1.3023  0.9325  0.2109
  852TIP3   OH224190   5.713   4.489   8.195 -0.2833  0.0493  0.0229
  852TIP3    H124191   5.662   4.409   8.193 -2.3351  1.2737  0.5422
  852TIP3    H224192   5.803   4.460   8.181 -0.6409 -2.5644  2.2435
  853TIP3   OH224193   5.725   5.946   7.879  0.3152 -0.3094  0.4142
  853TIP3    H124194   5.733   6.035   7.913 -0.9853  0.6270 -1.5412
  853TIP3    H224195   5.803   5.934   7.824 -0.0175  0.0418 -0.1464
  854TIP3   OH224196   3.474   2.375   0.431 -0.1728  0.1287  0.1022
  854TIP3    H124197   3.442   2.353   0.343  0.1695  0.6616 -0.1564
  854TIP3    H224198   3.569   2.377   0.422 -0.1628  0.8501  0.3219
  855TIP3   OH224199   2.067   4.678   8.244 -0.1021 -0.0852  0.5537
  855TIP3    H124200   2.116   4.699   8.165 -1.0683  0.0696 -0.0260
  855TIP3    H224201   2.086   4.585   8.260  0.0941 -0.1188  0.1320
  856TIP3   OH224202   4.235   2.186   8.281  0.4309 -0.2544  0.0212
  856TIP3    H124203   4.170   2.135   8.329  1.0774 -0.0261  1.1562
  856TIP3    H224204   4.184   2.227   8.210 -0.8716  0.6484  1.4098
  857TIP3   OH224205   4.419   3.302   0.184  0.0298 -0.1190  0.0507
  857TIP3    H124206   4.488   3.331   0.125  0.2681  0.7756  0.7412
  857TIP3    H224207   4.412   3.372   0.249  0.7652 -1.6739  1.9271
  858TIP3   OH224208   3.078   6.609   1.595  0.2160 -0.5792  0.0132
  858TIP3    H124209   3.009   6.661   1.636  1.2289  0.7989  0.0314
  858TIP3    H224210   3.051   6.601   1.504 -0.3249 -0.7006  0.1768
  859TIP3   OH224211   0.303   3.743   7.300 -0.1082  0.2297 -0.0948
  859TIP3    H124212   0.325   3.701   7.217 -2.4160 -2.7244  0.6176
  859TIP3    H224213   0.209   3.760   7.295  0.2868  3.1372  0.7090
  860TIP3   OH224214   6.734   6.225   6.924 -0.1365 -0.3776  0.2775
  860TIP3    H124215   6.662   6.209   6.863  1.6982  0.0925 -2.1929
  860TIP3    H224216   6.763   6.137   6.950 -0.3513 -0.6285 -0.2988
  861TIP3   OH224217   0.331   3.317   7.169 -0.4606  0.4245 -0.6187
  861TIP3    H124218   0.295   3.233   7.198 -0.3353  1.0619  1.6180
  861TIP3    H224219   0.426   3.309   7.185 -0.1872  0.3584 -2.1601
  862TIP3   OH224220   3.198   1.262   1.531 -0.3518  0.1375  0.1444
  862TIP3    H124221   3.226   1.177   1.566  0.6860  0.0214 -0.9087
  862TIP3    H224222   3.248   1.326   1.582  0.4078  0.0131 -0.4264
  863TIP3   OH224223   2.270   1.097   1.214  0.0512  0.0129  0.4162
  863TIP3    H124224   2.316   1.074   1.134  0.2385  0.2933  0.4427
  863TIP3    H224225   2.178   1.103   1.188  0.2309  1.1426 -0.0158
  864TIP3   OH224226   0.292   4.247   7.291  0.0198 -0.7984 -0.2520
  864TIP3    H124227   0.270   4.301   7.215  0.4618  1.5733  1.2123
  864TIP3    H224228   0.225   4.178   7.291 -0.7594 -0.1126 -2.0215
  865TIP3   OH224229   4.725   1.739   8.414 -0.1031 -0.2052  0.1062
  865TIP3    H124230   4.785   1.722   8.342  0.4619 -1.4617  0.8401
  865TIP3    H224231   4.767   1.808   8.465 -1.8634  2.8572 -2.2643
  866TIP3   OH224232   1.592   2.744   1.063 -0.6252 -0.2431  0.8603
  866TIP3    H124233   1.673   2.694   1.077 -0.3023 -0.1412 -0.5154
  866TIP3    H224234   1.620   2.821   1.015 -1.8740 -1.6339 -2.3616
  867TIP3   OH224235   2.047   1.707   1.134  0.1539  0.4543  0.4725
  867TIP3    H124236   1.980   1.774   1.122 -0.0537  0.0829 -0.4792
  867TIP3    H224237   1.999   1.625   1.140  0.5170  0.1411 -0.5813
  868TIP3   OH224238   4.445   4.218   6.598 -0.4130 -0.1895  0.1191
  868TIP3    H124239   4.456   4.125   6.616  0.1039  0.1137  1.5119
  868TIP3    H224240   4.524   4.259   6.632 -1.4812  0.9671  1.3447
  869TIP3   OH224241   1.246   3.866   1.183  0.3381 -0.3873 -0.0942
  869TIP3    H124242   1.292   3.934   1.233  0.8540 -0.5669 -0.3157
  869TIP3    H224243   1.156   3.869   1.215  0.0684  1.1858 -0.8823
  870TIP3   OH224244   3.854   0.498   8.422  0.8507  0.3321 -0.2560
  870TIP3    H124245   3.849   0.594   8.422 -0.1950  0.3057  0.4973
  870TIP3    H224246   3.769   0.470   8.458  2.0037 -0.7954  1.8212
  871TIP3   OH224247   4.899   1.253   0.966 -0.1340  0.0325  0.0685
  871TIP3    H124248   4.976   1.309   0.957 -0.5735  0.5193 -0.7952
  871TIP3    H224249   4.858   1.254   0.880 -1.6324  0.5574  0.7279
  872TIP3   OH224250   3.343   3.238   8.518  0.3402  0.6188 -0.1696
  872TIP3    H124251   3.386   3.228   8.433 -0.9231 -1.6316 -0.6472
  872TIP3    H224252   3.250   3.239   8.497  0.0316  0.9149  1.1451
  873TIP3   OH224253   1.488   1.632   8.058 -0.0285 -0.0868  0.0930
  873TIP3    H124254   1.543   1.638   7.980  1.6882 -0.0297  1.2451
  873TIP3    H224255   1.491   1.539   8.082  0.2771  0.0521  0.6254
  874TIP3   OH224256   2.160   4.326   7.836 -0.1498  0.1506 -0.4559
  874TIP3    H124257   2.120   4.354   7.753  0.1381 -2.2133 -1.4986
  874TIP3    H224258   2.145   4.231   7.837  2.5307 -0.3211  0.7307
  875TIP3   OH224259   1.146   5.415   6.761  0.5522 -0.3734  0.6418
  875TIP3    H124260   1.113   5.451   6.679  0.9939 -0.8236  0.2641
  875TIP3    H224261   1.102   5.330   6.770 -0.1336  0.0425  1.2956
  876TIP3   OH224262   6.407   0.039   8.387 -0.1726  0.6218  0.2877
  876TIP3    H124263   6.440   0.083   8.309 -0.1464  0.3139  0.1239
  876TIP3    H224264   6.481   0.040   8.448 -0.1436  0.7245  0.2514
  877TIP3   OH224265   0.244   3.842   0.941 -0.0818  0.1862  0.0004
  877TIP3    H124266   0.313   3.778   0.958  0.4120  1.0935  1.5806
  877TIP3    H224267   0.163   3.791   0.944  0.3200 -0.4350  0.9790
  878TIP3   OH224268   4.692   3.523   1.082  0.2791  0.1112 -0.0462
  878TIP3    H124269   4.682   3.554   0.991  0.7032  2.7496  0.7231
  878TIP3    H224270   4.605   3.535   1.120  0.2862 -0.3189  0.1130
  879TIP3   OH224271   2.712   4.523   0.867  0.1212 -0.0796  0.0055
  879TIP3    H124272   2.703   4.431   0.842  0.0167  0.3651 -1.7064
  879TIP3    H224273   2.787   4.524   0.927  0.6759 -1.1753 -0.6333
  880TIP3   OH224274   5.191   1.555   7.498 -0.4404  0.2697 -0.0389
  880TIP3    H124275   5.099   1.542   7.476 -0.2181 -1.1018 -0.2202
  880TIP3    H224276   5.233   1.577   7.415 -0.3379 -0.7167 -0.2624
  881TIP3   OH224277   1.465   3.368   0.077 -0.3399 -0.4980 -0.0987
  881TIP3    H124278   1.533   3.381   0.011 -0.1169 -1.3293 -0.0409
  881TIP3    H224279   1.503   3.402   0.158 -1.3572  2.4259 -0.7344
  882TIP3   OH224280   6.816   5.767   1.509  0.4548  0.4497 -0.3543
  882TIP3    H124281   6.895   5.812   1.538  0.2127  1.4237 -1.1655
  882TIP3    H224282   6.844   5.676   1.496  0.9518  0.3430  1.2659
  883TIP3   OH224283   5.406   3.719   7.854  0.3156 -0.5036  0.1406
  883TIP3    H124284   5.472   3.755   7.914 -1.6412  0.7292  1.6672
  883TIP3    H224285   5.364   3.796   7.817 -1.7923 -1.1877  0.9830
  884TIP3   OH224286   0.315   3.126   0.738  0.0279 -0.1088  0.5841
  884TIP3    H124287   0.394   3.077   0.761  0.1053  0.9732  2.8184
  884TIP3    H224288   0.280   3.157   0.821 -2.0795  0.5144 -0.4635
  885TIP3   OH224289   1.096   6.555   0.081 -0.1044  0.0730 -0.7576
  885TIP3    H124290   1.127   6.641   0.053  0.0257  0.0345 -0.7347
  885TIP3    H224291   1.002   6.566   0.093  0.1048  0.6165  0.6459
  886TIP3   OH224292   3.760   2.381   1.127 -0.2939 -0.1796  0.0179
  886TIP3    H124293   3.745   2.324   1.052 -1.4216 -0.4290  0.4136
  886TIP3    H224294   3.845   2.354   1.161 -1.7432 -3.2356  1.5677
  887TIP3   OH224295   1.811   3.530   6.224  0.3118 -0.2048  0.6446
  887TIP3    H124296   1.871   3.605   6.223 -1.5146  1.3538 -0.9169
  887TIP3    H224297   1.768   3.535   6.309 -0.4640  1.1649  0.2116
  888TIP3   OH224298   1.417   3.692   0.577 -0.0855 -0.0578 -0.4490
  888TIP3    H124299   1.467   3.662   0.653 -0.2289  0.3780 -0.1808
  888TIP3    H224300   1.354   3.622   0.560  0.6920 -0.6737 -0.8674
  889TIP3   OH224301   3.129   5.462   6.530 -0.2156  0.0648  1.0801
  889TIP3    H124302   3.111   5.461   6.625 -1.7326 -1.4624  0.8359
  889TIP3    H224303   3.093   5.378   6.499  0.2746  0.5411 -0.8474
  890TIP3   OH224304   4.182   4.112   1.141 -0.0813  0.2585  0.5081
  890TIP3    H124305   4.269   4.140   1.168 -0.0874  0.4698  0.3167
  890TIP3    H224306   4.131   4.193   1.137 -0.3893  0.0869  0.9916
  891TIP3   OH224307   5.345   3.932   1.400  0.4547 -0.1000 -0.2809
  891TIP3    H124308   5.388   3.885   1.471  1.3315 -0.6290 -1.1409
  891TIP3    H224309   5.253   3.906   1.405  0.7266 -1.0354 -0.0580
  892TIP3   OH224310   4.993   5.251   8.593  0.2290  0.0884  0.9668
  892TIP3    H124311   5.066   5.192   8.575 -0.3571 -0.5874  0.7645
  892TIP3    H224312   5.027   5.313   8.658  1.6305  1.0756 -0.6339
  893TIP3   OH224313   5.780   6.530   0.816  0.1094  0.2152 -0.8447
  893TIP3    H124314   5.759   6.437   0.805  1.3151 -0.2387  0.3866
  893TIP3    H224315   5.706   6.577   0.777 -1.6444 -1.2456  0.5611
  894TIP3   OH224316   5.165   4.665   7.840 -0.4745  0.6345  0.4886
  894TIP3    H124317   5.243   4.719   7.855 -0.4767  1.1960 -1.2795
  894TIP3    H224318   5.122   4.705   7.764 -1.8503 -0.3731  0.6976
  895TIP3   OH224319   2.640   2.294   0.622 -0.0007  0.6285  0.3739
  895TIP3    H124320   2.640   2.274   0.529 -1.6470 -0.7718  0.6306
  895TIP3    H224321   2.617   2.387   0.627 -3.6014 -0.0409 -0.5982
  896TIP3   OH224322   6.439   4.231   7.795  0.4904  0.0140  0.7751
  896TIP3    H124323   6.382   4.298   7.757  1.4814 -0.0803 -1.0239
  896TIP3    H224324   6.425   4.154   7.739  2.1213 -0.0939  0.4655
  897TIP3   OH224325   4.334   3.043   7.865  0.7016 -0.1493 -0.4152
  897TIP3    H124326   4.397   3.102   7.905  1.4440 -0.3039 -1.3401
  897TIP3    H224327   4.250   3.089   7.871  0.7247 -0.3070  1.5770
  898TIP3   OH224328   1.222   4.971   7.952  0.2188 -0.0966  0.3828
  898TIP3    H124329   1.183   5.021   8.024 -0.0098  0.6866 -0.2763
  898TIP3    H224330   1.153   4.964   7.887  0.3666 -0.9652  0.3047
  899TIP3   OH224331   0.999   5.784   0.666  0.3438  0.3955 -0.0829
  899TIP3    H124332   1.078   5.742   0.701  0.1588  0.5873  0.5835
  899TIP3    H224333   1.031   5.842   0.597  0.5542 -1.2999 -1.4794
  900TIP3   OH224334   3.333   4.476   1.341  0.0746  0.6109 -0.0870
  900TIP3    H124335   3.394   4.414   1.380 -1.5668 -0.3418  1.1069
  900TIP3    H224336   3.277   4.504   1.413 -1.5683  0.6128 -1.2909
  901TIP3   OH224337   6.623   5.474   7.471 -0.1788 -0.2033  0.7181
  901TIP3    H124338   6.667   5.422   7.403  1.4594 -0.0475  1.6095
  901TIP3    H224339   6.562   5.529   7.422  0.8726 -0.1690 -0.6431
  902TIP3   OH224340   5.515   2.937   1.116 -0.3689 -0.0249  0.0138
  902TIP3    H124341   5.428   2.916   1.081  0.3528 -3.0130 -0.2668
  902TIP3    H224342   5.573   2.929   1.040  0.3494  0.4459  0.5026
  903TIP3   OH224343   2.010   6.734   7.998  0.1374  0.0311 -0.6086
  903TIP3    H124344   1.955   6.660   8.024 -0.2925  0.3711 -0.5253
  903TIP3    H224345   1.973   6.762   7.914  1.2815 -0.8227 -1.4205
  904TIP3   OH224346   4.354   6.540   0.389  0.1362  0.4763 -0.0419
  904TIP3    H124347   4.438   6.507   0.420 -0.7396 -2.3192 -0.3543
  904TIP3    H224348   4.293   6.524   0.461 -0.2262  2.1121  0.0416
  905TIP3   OH224349   1.900   4.714   0.994 -0.2523  0.0071 -0.0614
  905TIP3    H124350   1.967   4.662   1.038 -0.7578 -0.5888  0.0173
  905TIP3    H224351   1.928   4.718   0.903  0.7697  1.2005  0.2709
  906TIP3   OH224352   6.608   1.320   6.849  0.2314  0.4599 -0.7556
  906TIP3    H124353   6.523   1.278   6.861 -0.1776  0.7678 -2.3120
  906TIP3    H224354   6.587   1.413   6.836  1.0590  1.0845  1.8508
  907TIP3   OH224355   5.857   3.606   8.109  0.5171  0.1615  0.0963
  907TIP3    H124356   5.859   3.571   8.020 -2.2010  0.0124  0.0335
  907TIP3    H224357   5.891   3.695   8.101 -0.6212  0.5001 -1.3011
  908TIP3   OH224358   3.392   1.037   0.195 -0.4808 -0.7600  0.3374
  908TIP3    H124359   3.385   1.125   0.158 -2.1727 -0.2572  1.6947
  908TIP3    H224360   3.454   1.046   0.267 -1.5016 -0.3608  1.2007
  909TIP3   OH224361   1.631   0.331   8.641  0.1525  0.0268 -0.2819
  909TIP3    H124362   1.660   0.262   8.701  2.7911  1.3199  0.0962
  909TIP3    H224363   1.672   0.411   8.675 -2.0153  1.6539 -1.2453
  910TIP3   OH224364   2.259   4.204   0.895 -0.4294 -0.9156 -0.3365
  910TIP3    H124365   2.185   4.203   0.834 -0.2623 -0.8881 -0.5410
  910TIP3    H224366   2.336   4.210   0.839 -0.2049 -2.1570 -0.1893
  911TIP3   OH224367   4.338   6.438   1.365 -0.2431  0.1776 -0.2879
  911TIP3    H124368   4.384   6.356   1.382  1.3768  0.8986 -1.0224
  911TIP3    H224369   4.254   6.428   1.412 -0.4268 -2.1666 -0.9748
  912TIP3   OH224370   4.011   1.254   6.759 -0.2847 -0.0360  0.0137
  912TIP3    H124371   3.982   1.164   6.740 -1.7180  0.6587 -1.3782
  912TIP3    H224372   3.994   1.266   6.852  0.1672 -1.2859  0.2753
  913TIP3   OH224373   6.614   4.074   1.980  0.5935 -0.1931 -0.9602
  913TIP3    H124374   6.693   4.088   2.032  0.3839  0.0043 -0.6978
  913TIP3    H224375   6.641   4.093   1.890  0.9440 -0.4944 -0.9222
  914TIP3   OH224376   5.865   5.292   7.428  0.4182 -0.7017  0.0249
  914TIP3    H124377   5.786   5.273   7.378  1.0207  0.4894 -1.4490
  914TIP3    H224378   5.931   5.313   7.362  2.3480 -2.8209  1.1362
  915TIP3   OH224379   3.371   4.271   1.822 -0.4265  0.2703  0.2763
  915TIP3    H124380   3.456   4.313   1.808 -0.8975  0.7647 -1.3480
  915TIP3    H224381   3.392   4.180   1.842  0.6008  1.0904  3.4893
  916TIP3   OH224382   3.836   1.853   6.849 -0.2135 -0.4526  0.4891
  916TIP3    H124383   3.744   1.826   6.842 -0.0061 -0.7754 -1.3265
  916TIP3    H224384   3.885   1.771   6.855  0.0660 -0.3456 -0.2391
  917TIP3   OH224385   2.369   6.443   6.299 -0.8048  0.4350  0.3186
  917TIP3    H124386   2.355   6.439   6.393 -0.8808 -0.3112  0.2801
  917TIP3    H224387   2.443   6.502   6.288  0.7019 -1.2300  1.0148
  918TIP3   OH224388   4.474   6.236   0.332 -0.0889 -0.2151  0.0337
  918TIP3    H124389   4.432   6.198   0.409 -0.1572 -0.9215 -0.3427
  918TIP3    H224390   4.403   6.273   0.281 -0.0136  0.5040  0.4443
  919TIP3   OH224391   2.333   1.443   1.451  0.0025  0.3889  0.2101
  919TIP3    H124392   2.409   1.489   1.487  0.0329 -0.5949  1.4934
  919TIP3    H224393   2.274   1.513   1.421  0.7854  1.1953  0.5042
  920TIP3   OH224394   4.470   5.312   8.494  0.8228 -0.5137  0.1082
  920TIP3    H124395   4.457   5.234   8.548  0.5625 -1.1055 -0.7876
  920TIP3    H224396   4.433   5.289   8.409 -1.1148  1.2622  0.3657
  921TIP3   OH224397   5.186   1.790   7.104  0.4836 -0.0863 -0.2727
  921TIP3    H124398   5.237   1.834   7.036  1.1125 -1.4795 -0.7272
  921TIP3    H224399   5.098   1.826   7.093  1.2651  2.2477  0.4305
  922TIP3   OH224400   5.433   3.803   1.628 -0.0459 -0.4212  0.2043
  922TIP3    H124401   5.385   3.818   1.709 -0.9259  2.7254 -0.7779
  922TIP3    H224402   5.520   3.840   1.644  0.2143 -0.9672  0.0951
  923TIP3   OH224403   2.445   0.048   8.298 -0.0729 -0.2543  0.1193
  923TIP3    H124404   2.351   0.029   8.306 -0.4740  2.1583  2.5020
  923TIP3    H224405   2.482  -0.032   8.261 -3.0225 -1.3436 -0.7926
  924TIP3   OH224406   2.858   6.235   0.262  0.4581  0.3726 -0.1857
  924TIP3    H124407   2.925   6.231   0.331 -0.7794  2.9489  1.3110
  924TIP3    H224408   2.781   6.194   0.301  1.1721 -3.3404 -2.1929
  925TIP3   OH224409   1.883   5.736   6.931 -0.3434  0.4520 -0.6039
  925TIP3    H124410   1.965   5.779   6.906 -0.4479 -0.1658 -2.1625
  925TIP3    H224411   1.908   5.644   6.946 -0.3786  0.7149  1.1811
  926TIP3   OH224412   6.665   4.358   8.578  0.5343 -0.1186 -0.2493
  926TIP3    H124413   6.745   4.347   8.527  0.2562  1.1961 -1.0248
  926TIP3    H224414   6.642   4.450   8.566 -2.1390 -0.8562 -1.6816
  927TIP3   OH224415   6.491   3.671   7.337  0.3120 -0.0194  0.1773
  927TIP3    H124416   6.483   3.755   7.384  2.0500  0.0835  0.3562
  927TIP3    H224417   6.429   3.613   7.381 -0.3759  0.9527  0.5408
  928TIP3   OH224418   5.902   3.371   7.483  0.0764  0.3516 -0.3925
  928TIP3    H124419   5.831   3.319   7.520 -0.4626  1.7591  0.6687
  928TIP3    H224420   5.882   3.376   7.389 -0.1523 -0.8631 -0.4201
  929TIP3   OH224421   6.850   4.493   7.008 -0.0283  0.0145 -0.0289
  929TIP3    H124422   6.799   4.563   7.050  0.0824  0.9084 -1.3211
  929TIP3    H224423   6.784   4.436   6.968 -0.1371 -0.8630  1.3165
  930TIP3   OH224424   3.636   3.693   7.985 -0.5489 -0.2887 -0.0975
  930TIP3    H124425   3.560   3.751   7.971  0.3270  0.9598  0.1203
  930TIP3    H224426   3.638   3.679   8.079  1.6177  2.8327  0.4826
  931TIP3   OH224427   0.191   1.934   5.994 -0.0519 -0.2001  0.4497
  931TIP3    H124428   0.250   1.860   6.011  1.0044  0.6702  0.6507
  931TIP3    H224429   0.161   1.961   6.081  2.3650  1.8316  0.7479
  932TIP3   OH224430   5.577   0.514   7.486 -0.0659  0.3712 -0.0526
  932TIP3    H124431   5.518   0.564   7.429 -0.9157 -0.4511  0.0897
  932TIP3    H224432   5.650   0.491   7.429 -0.1082  0.9817 -0.3657
  933TIP3   OH224433   1.163   2.310   2.003 -0.7072 -0.0899 -0.0863
  933TIP3    H124434   1.216   2.388   1.988 -2.2393  0.8657 -0.7606
  933TIP3    H224435   1.075   2.334   1.974 -1.5148 -1.6489  0.9110
  934TIP3   OH224436   5.042   5.855   7.470 -0.0453 -0.0788  0.6211
  934TIP3    H124437   4.954   5.855   7.431  0.2185 -1.2999 -0.0405
  934TIP3    H224438   5.040   5.784   7.534 -0.0269  0.9853  1.8393
  935TIP3   OH224439   2.809   3.223   6.510 -0.2848 -0.2557 -0.1640
  935TIP3    H124440   2.771   3.241   6.424 -2.3762 -2.0448  0.3054
  935TIP3    H224441   2.829   3.310   6.545 -1.9911  0.6916 -1.3493
  936TIP3   OH224442   1.201   2.390   1.629 -0.1964 -0.1508  0.3157
  936TIP3    H124443   1.169   2.300   1.621  0.8128 -0.5684  0.8422
  936TIP3    H224444   1.130   2.437   1.672  0.1315 -1.2272  2.1298
  937TIP3   OH224445   3.791   1.453   7.449  0.0527  0.0221  0.5196
  937TIP3    H124446   3.766   1.511   7.378  1.8561  1.0133  0.6296
  937TIP3    H224447   3.779   1.364   7.414  0.9868  0.4862 -1.0577
  938TIP3   OH224448   1.624   3.152   0.299 -0.1007  0.2145  0.0093
  938TIP3    H124449   1.579   3.236   0.310 -0.2754  0.2156 -0.6777
  938TIP3    H224450   1.690   3.168   0.232  0.5411  0.0593  0.5984
  939TIP3   OH224451   4.131   4.801   0.136 -0.1146 -0.4870  0.0728
  939TIP3    H124452   4.130   4.706   0.138 -2.6796 -0.5623 -1.0744
  939TIP3    H224453   4.163   4.823   0.048 -0.4960 -0.3318 -0.0302
  940TIP3   OH224454   5.001   4.151   1.117  0.0717  0.3258  0.0145
  940TIP3    H124455   4.952   4.114   1.043 -1.2076  0.8334  0.5744
  940TIP3    H224456   5.079   4.096   1.124 -0.8345 -1.0663 -0.3851
  941TIP3   OH224457   4.151   2.427   6.932 -0.4429  0.2036 -0.0049
  941TIP3    H124458   4.187   2.515   6.921 -0.9987  0.3292 -0.9462
  941TIP3    H224459   4.221   2.377   6.974  0.2273  0.8551 -0.3281
  942TIP3   OH224460   0.865   1.698   6.676 -0.3388  0.1064 -0.3284
  942TIP3    H124461   0.850   1.747   6.758 -0.3665  2.3264 -1.5669
  942TIP3    H224462   0.924   1.627   6.701 -0.6238  0.5099  1.6851
  943TIP3   OH224463   1.426   3.623   1.260 -0.3045 -0.2579  0.1459
  943TIP3    H124464   1.355   3.688   1.256  0.1451  0.1573 -1.6188
  943TIP3    H224465   1.381   3.540   1.276 -1.3028 -0.1065 -1.6144
  944TIP3   OH224466   3.048   3.502   7.072 -0.3885  0.0346 -0.4352
  944TIP3    H124467   3.112   3.435   7.047  0.8335  0.9307  0.2160
  944TIP3    H224468   2.979   3.453   7.116 -0.3732 -1.0026 -1.4990
  945TIP3   OH224469   2.516   6.722   7.293 -0.3721 -0.0306  0.1918
  945TIP3    H124470   2.603   6.761   7.292 -0.4850  0.4132  2.1138
  945TIP3    H224471   2.506   6.689   7.383 -1.9691 -0.5773 -0.1479
  946TIP3   OH224472   4.403   5.202   0.520 -0.5273  0.2175 -0.3496
  946TIP3    H124473   4.318   5.224   0.558 -0.3657  0.3264 -0.0433
  946TIP3    H224474   4.430   5.280   0.473 -0.6388  0.1501 -0.5270
  947TIP3   OH224475   4.410   2.568   7.165  0.1721 -0.1819  0.4217
  947TIP3    H124476   4.329   2.608   7.135 -0.2457  0.0600  1.7945
  947TIP3    H224477   4.409   2.579   7.260  1.0493 -1.5941  0.6338
  948TIP3   OH224478   5.411   0.679   7.358 -0.2171  0.3867  0.4855
  948TIP3    H124479   5.400   0.719   7.444 -2.0039  1.6398 -0.2464
  948TIP3    H224480   5.430   0.752   7.299  3.3399 -0.6765  0.0685
  949TIP3   OH224481   0.624   6.108   1.271 -0.5300  0.6337  0.1993
  949TIP3    H124482   0.702   6.148   1.309  0.5644 -1.1406 -0.0674
  949TIP3    H224483   0.553   6.168   1.295  0.7324  1.7538  1.3736
  950TIP3   OH224484   2.879   5.411   1.874 -0.0008  0.4967 -0.2911
  950TIP3    H124485   2.785   5.411   1.887 -0.0499 -3.3355  0.7156
  950TIP3    H224486   2.892   5.442   1.784 -2.1869  1.2732 -0.3688
  951TIP3   OH224487   1.480   3.919   0.455  0.1332  0.3796 -0.4082
  951TIP3    H124488   1.434   3.840   0.483  0.8236 -0.1195 -0.6550
  951TIP3    H224489   1.564   3.916   0.502 -0.1486  1.3818  0.2001
  952TIP3   OH224490   4.365   1.489   1.639 -0.6714  0.7355  0.0283
  952TIP3    H124491   4.375   1.430   1.565 -0.3452 -1.2634  1.5913
  952TIP3    H224492   4.290   1.455   1.688 -1.0406  2.1571  0.5128
  953TIP3   OH224493   1.270   1.951   7.162  0.4647 -0.4279 -0.3867
  953TIP3    H124494   1.224   2.027   7.125  0.9606 -0.8378 -1.9174
  953TIP3    H224495   1.201   1.887   7.178  0.1712 -0.0385 -0.0780
  954TIP3   OH224496   5.620   1.410   7.455  0.0639  0.5672  0.2529
  954TIP3    H124497   5.633   1.453   7.370 -0.3168  0.7576  0.2906
  954TIP3    H224498   5.600   1.481   7.515 -0.2212  0.3756  0.3884
  955TIP3   OH224499   6.539   2.431   7.176 -0.0292  0.1145 -0.3986
  955TIP3    H124500   6.481   2.487   7.228  0.9905  1.7485 -0.9308
  955TIP3    H224501   6.555   2.481   7.096  0.3441 -1.2901 -1.2277
  956TIP3   OH224502   2.876   6.447   7.881 -0.2340  0.0527 -0.2377
  956TIP3    H124503   2.807   6.382   7.878 -1.7938  1.6347 -0.7038
  956TIP3    H224504   2.918   6.435   7.966 -2.2134  0.1128  0.7926
  957TIP3   OH224505   1.886   4.020   0.542 -0.3060  0.1530 -0.1051
  957TIP3    H124506   1.845   3.940   0.511  0.4698 -0.0630 -0.5888
  957TIP3    H224507   1.851   4.033   0.630 -0.9120 -0.3699 -0.2686
  958TIP3   OH224508   0.497   5.058   8.143 -0.4030 -0.3824  0.3791
  958TIP3    H124509   0.413   5.056   8.189  0.5429 -0.8617  2.1822
  958TIP3    H224510   0.562   5.068   8.213  1.1817 -2.0188 -0.7668
  959TIP3   OH224511   0.722   5.782   8.049  0.7435  0.4802  0.4206
  959TIP3    H124512   0.675   5.761   8.130 -0.7966  1.4498 -0.1771
  959TIP3    H224513   0.768   5.864   8.068  2.1375 -0.3727  0.9447
  960TIP3   OH224514   1.627   4.176   7.703  0.0293  0.5928  0.0614
  960TIP3    H124515   1.542   4.179   7.658  0.4414  1.1572 -0.7033
  960TIP3    H224516   1.690   4.156   7.634  0.5082  0.0178  0.6517
  961TIP3   OH224517   0.662   1.367   6.441 -0.6670 -0.1091 -0.0055
  961TIP3    H124518   0.708   1.391   6.360  0.0753 -3.9171 -0.9207
  961TIP3    H224519   0.579   1.331   6.412 -1.9070  1.5537  1.2760
  962TIP3   OH224520   0.682   4.658   0.776  0.1210 -0.2435 -0.0707
  962TIP3    H124521   0.748   4.726   0.787 -0.6031  0.7538 -1.6716
  962TIP3    H224522   0.620   4.673   0.848  0.4274  0.2355  0.1004
  963TIP3   OH224523   3.159   6.281   6.582 -0.9262  0.1462 -0.7272
  963TIP3    H124524   3.242   6.313   6.618 -1.3823  0.3104  0.2140
  963TIP3    H224525   3.146   6.331   6.502  0.6306 -0.9486 -1.7284
  964TIP3   OH224526   0.846   2.176   7.665  0.2135 -0.5369 -0.0734
  964TIP3    H124527   0.754   2.189   7.641  0.2574 -0.7723 -0.3734
  964TIP3    H224528   0.853   2.083   7.684  0.5513 -0.6580 -0.7589
  965TIP3   OH224529   6.715   6.188   7.501  0.5456  0.2834 -0.3056
  965TIP3    H124530   6.768   6.205   7.423  0.4880 -1.2347 -0.7076
  965TIP3    H224531   6.769   6.129   7.554 -1.1801 -2.4828 -1.3824
  966TIP3   OH224532   4.015   6.357   0.795 -0.4633 -0.5530 -0.0142
  966TIP3    H124533   3.957   6.387   0.865 -0.8629  0.4002 -0.7369
  966TIP3    H224534   4.050   6.274   0.827 -1.2671 -0.5301  0.9671
  967TIP3   OH224535   6.367   2.051   1.725  0.0218  0.3973 -0.0018
  967TIP3    H124536   6.436   2.007   1.774  0.1246  1.4751  0.8709
  967TIP3    H224537   6.311   1.981   1.692  0.1455 -0.3774  1.3887
  968TIP3   OH224538   6.052   5.006   0.785  0.0852  0.9427  0.2900
  968TIP3    H124539   6.022   4.999   0.875 -1.8992 -0.2069 -0.4041
  968TIP3    H224540   5.973   5.022   0.734  0.7837 -0.8260 -1.5004
  969TIP3   OH224541   1.785   6.468   7.689 -0.4478  0.3168 -0.1215
  969TIP3    H124542   1.755   6.431   7.606  1.5989  3.3455 -2.4767
  969TIP3    H224543   1.875   6.439   7.697  0.0345  1.7169 -0.1385
  970TIP3   OH224544   3.749   4.231   6.059  0.4384  0.1972 -0.0749
  970TIP3    H124545   3.702   4.154   6.027  0.1054 -0.2207  1.3519
  970TIP3    H224546   3.834   4.229   6.014  0.5710 -1.2004  0.2252
  971TIP3   OH224547   5.804   2.822   0.574  0.2574 -0.4732  0.6357
  971TIP3    H124548   5.712   2.846   0.578  0.5030  0.5328  0.4802
  971TIP3    H224549   5.829   2.809   0.665 -0.1633 -1.2928  0.6460
  972TIP3   OH224550   2.112   3.524   1.996 -0.0263 -0.2190 -0.0067
  972TIP3    H124551   2.142   3.475   1.919 -0.1432  0.4974 -0.5180
  972TIP3    H224552   2.083   3.457   2.057  3.4648 -1.1050  0.9530
  973TIP3   OH224553   1.209   0.617   7.121  0.0200 -0.2447  0.0595
  973TIP3    H124554   1.221   0.671   7.043  0.4389  0.4052  0.5685
  973TIP3    H224555   1.286   0.635   7.175 -0.8794  0.3038  1.2028
  974TIP3   OH224556   5.348   3.289   6.171 -0.4758  0.5542 -0.1628
  974TIP3    H124557   5.403   3.225   6.216 -0.4056 -0.1689 -1.2359
  974TIP3    H224558   5.387   3.297   6.084 -0.0695  2.5914  0.1550
  975TIP3   OH224559   0.871   4.045   7.515 -0.7418 -0.0718  0.0812
  975TIP3    H124560   0.912   4.023   7.599 -1.2896 -0.5405  0.2278
  975TIP3    H224561   0.796   4.101   7.539  0.0312  1.1410 -0.2138
  976TIP3   OH224562   1.780   1.446   6.719  0.4075  0.0569  0.0367
  976TIP3    H124563   1.706   1.506   6.731  0.6027  0.0479  1.4810
  976TIP3    H224564   1.852   1.486   6.768  0.4485 -1.4964  1.3157
  977TIP3   OH224565   2.741   5.967   6.872  0.2378  0.4215  0.3683
  977TIP3    H124566   2.739   5.973   6.967 -0.2205  0.0250  0.3851
  977TIP3    H224567   2.789   6.045   6.844  2.1379 -0.4455  1.0209
  978TIP3   OH224568   3.035   3.518   8.004 -0.0571 -0.3077 -0.4747
  978TIP3    H124569   3.004   3.597   7.959  0.8907  0.4937  0.2146
  978TIP3    H224570   3.055   3.456   7.934  1.3289  0.8840 -1.1873
  979TIP3   OH224571   1.792   1.326   0.723 -0.4469 -0.2686 -0.1940
  979TIP3    H124572   1.805   1.248   0.777  0.8522 -1.3751 -1.9971
  979TIP3    H224573   1.829   1.398   0.774 -0.1114 -1.1201  0.7844
  980TIP3   OH224574   3.822   2.197   7.262 -0.0895 -0.5866 -0.0219
  980TIP3    H124575   3.854   2.108   7.274 -0.9013 -0.9605 -0.5165
  980TIP3    H224576   3.900   2.247   7.238  0.1256 -1.5018 -1.3530
  981TIP3   OH224577   1.635   2.917   7.498  0.4185  0.5765 -0.3931
  981TIP3    H124578   1.594   3.002   7.513 -0.7976  0.1771 -1.2640
  981TIP3    H224579   1.677   2.926   7.413  0.0781  0.2351 -0.5983
  982TIP3   OH224580   2.640   4.854   0.631 -0.0834  0.0044 -0.3433
  982TIP3    H124581   2.581   4.922   0.663 -0.1628 -0.0557 -0.3628
  982TIP3    H224582   2.589   4.805   0.567 -0.4186 -0.8162  0.5303
  983TIP3   OH224583   4.461   4.954   2.146  0.6835  0.3730 -0.1898
  983TIP3    H124584   4.414   4.881   2.105  0.3289 -1.0730  2.5642
  983TIP3    H224585   4.520   4.912   2.209  1.7550  2.4236  0.2543
  984TIP3   OH224586   4.713   1.345   7.264 -0.2019  0.0065 -0.2212
  984TIP3    H124587   4.742   1.325   7.353 -1.9103  1.3306  0.6895
  984TIP3    H224588   4.665   1.427   7.272  1.4159  1.3244 -2.7567
  985TIP3   OH224589   0.586   2.480   7.612  0.2615  0.0377  0.0810
  985TIP3    H124590   0.575   2.385   7.616 -1.3511  0.1891 -0.1934
  985TIP3    H224591   0.541   2.506   7.531 -0.7077  1.1974  0.9561
  986TIP3   OH224592   3.942   3.595   7.883 -0.1498  0.9645 -0.1488
  986TIP3    H124593   3.922   3.504   7.863  0.4591  1.0045 -1.0020
  986TIP3    H224594   3.973   3.594   7.973 -0.1865  0.3292 -0.1398
  987TIP3   OH224595   5.163   0.155   1.414  0.0421  0.0356  0.4641
  987TIP3    H124596   5.121   0.147   1.500 -0.3318  0.5429  0.3381
  987TIP3    H224597   5.249   0.116   1.425 -0.4924 -1.1030  0.7135
  988TIP3   OH224598   0.251   5.271   7.701 -0.1888  0.5112  0.7259
  988TIP3    H124599   0.269   5.301   7.790  0.1343 -0.4506  1.0051
  988TIP3    H224600   0.277   5.179   7.702  0.9727  0.7950 -0.7152
  989TIP3   OH224601   3.345   0.537   0.544  0.7753  0.2607 -0.3390
  989TIP3    H124602   3.352   0.441   0.542  0.0263  0.1842  0.3511
  989TIP3    H224603   3.262   0.556   0.502  0.3112  0.5190  0.6570
  990TIP3   OH224604   6.613   3.185   0.599 -0.9511  0.2251 -0.1640
  990TIP3    H124605   6.559   3.181   0.519 -0.6218  1.7643 -0.4944
  990TIP3    H224606   6.593   3.270   0.637  0.5817  0.4590  0.1844
  991TIP3   OH224607   6.556   2.272   7.636 -0.8751  0.2738 -0.2510
  991TIP3    H124608   6.633   2.227   7.600 -0.3769 -0.1998  1.2861
  991TIP3    H224609   6.569   2.364   7.615  0.5188  0.2999  0.5969
  992TIP3   OH224610   1.247   4.328   0.436 -0.4996 -0.1805  0.1336
  992TIP3    H124611   1.166   4.328   0.486 -0.5183  1.1975  0.1155
  992TIP3    H224612   1.265   4.420   0.417  1.2517 -0.4245  0.4322
  993TIP3   OH224613   2.711   6.185   1.317  0.1902  0.2933 -0.8763
  993TIP3    H124614   2.773   6.114   1.331 -0.2231  0.0442 -0.2847
  993TIP3    H224615   2.733   6.220   1.230  0.1687 -0.7663 -1.3128
  994TIP3   OH224616   2.934   2.118   1.040  0.0265 -0.1827 -0.6084
  994TIP3    H124617   2.876   2.092   0.968  0.1159 -3.5151  0.3961
  994TIP3    H224618   2.958   2.209   1.019 -1.0526 -0.5402 -4.0187
  995TIP3   OH224619   1.712   1.194   6.794  0.1270  1.1168 -0.0451
  995TIP3    H124620   1.733   1.276   6.748 -0.8184  1.1365 -0.4701
  995TIP3    H224621   1.641   1.156   6.742 -0.0054  0.4392  0.6275
  996TIP3   OH224622   2.501   2.752   1.042 -0.5784 -0.8179 -0.1930
  996TIP3    H124623   2.562   2.685   1.011  3.6461  3.1658 -1.6533
  996TIP3    H224624   2.447   2.772   0.966 -0.9879 -1.6431 -0.1295
  997TIP3   OH224625   4.047   0.622   6.927 -0.5285  0.4450  0.0290
  997TIP3    H124626   4.037   0.555   6.859 -0.4312  0.1073  0.3404
  997TIP3    H224627   4.071   0.701   6.879  0.9869 -0.1301 -0.2309
  998TIP3   OH224628   2.856   0.839   7.806  0.0334 -0.4917  0.0604
  998TIP3    H124629   2.903   0.875   7.881 -0.2880 -0.3112  0.1769
  998TIP3    H224630   2.871   0.745   7.812 -3.2615 -1.0174  2.6936
  999TIP3   OH224631   1.536   2.529   6.897 -0.1441  0.0686 -0.1896
  999TIP3    H124632   1.589   2.603   6.865 -0.0027  0.0929  0.0981
  999TIP3    H224633   1.453   2.568   6.922 -0.8349 -0.1596 -1.9410
 1000TIP3   OH224634   3.227   1.445   7.603  0.1120 -0.0321 -0.1920
 1000TIP3    H124635   3.186   1.522   7.563  2.2451  2.4387  1.9615
 1000TIP3    H224636   3.297   1.421   7.541  0.3724  0.7409 -0.2130
 1001TIP3   OH224637   3.612   2.240   0.727  0.0764 -0.3413  0.6519
 1001TIP3    H124638   3.581   2.170   0.784 -2.4640  0.3148  0.1930
 1001TIP3    H224639   3.562   2.317   0.755 -2.3390 -0.2615 -3.1875
 1002TIP3   OH224640   1.950   1.187   8.134 -0.3892  0.9105 -0.1241
 1002TIP3    H124641   1.952   1.283   8.133  3.7124  1.0433 -2.2692
 1002TIP3    H224642   1.966   1.162   8.043 -1.0441 -1.8380  0.4283
 1003TIP3   OH224643   5.999   5.359   1.799 -0.5533 -0.2776 -0.1448
 1003TIP3    H124644   5.913   5.322   1.818  0.2738 -2.7753 -0.8107
 1003TIP3    H224645   6.056   5.321   1.866  0.0992  1.1448  0.1347
 1004TIP3   OH224646   1.544   5.353   8.614 -1.1312 -0.1096 -0.7467
 1004TIP3    H124647   1.502   5.267   8.605  0.2871 -0.6976 -2.1900
 1004TIP3    H224648   1.622   5.336   8.667 -1.6580  0.6187  0.3007
 1005TIP3   OH224649   4.696   2.911   0.095 -0.1867  0.4422  0.3408
 1005TIP3    H124650   4.714   2.986   0.039  0.2067  0.4648  0.4978
 1005TIP3    H224651   4.760   2.845   0.070 -0.4556  0.2016  0.2863
 1006TIP3   OH224652   4.986   0.160   1.191 -0.1784  0.7079 -0.6156
 1006TIP3    H124653   5.039   0.217   1.136 -0.6538  1.1435 -0.6346
 1006TIP3    H224654   5.046   0.130   1.260 -0.1822  2.0824  0.0055
 1007TIP3   OH224655   2.363   2.689   7.882 -0.1188  0.2686 -0.2800
 1007TIP3    H124656   2.386   2.602   7.915 -0.0362  0.5778  0.5194
 1007TIP3    H224657   2.443   2.740   7.895 -0.4564  0.6995  0.1478
 1008TIP3   OH224658   5.551   3.891   0.659 -0.5230  0.4539 -0.2800
 1008TIP3    H124659   5.473   3.907   0.607 -0.7582  2.6328  0.6384
 1008TIP3    H224660   5.607   3.967   0.643  1.4248 -1.0212 -0.8624
 1009TIP3   OH224661   2.609   4.171   7.567 -0.2264  0.0203  0.0076
 1009TIP3    H124662   2.696   4.205   7.543 -0.5261  2.0350  1.5233
 1009TIP3    H224663   2.590   4.212   7.652 -2.1593 -1.3290  0.2804
 1010TIP3   OH224664   6.317   4.743   1.700  0.1972  0.1017 -0.4812
 1010TIP3    H124665   6.340   4.836   1.709  0.3248  0.3915 -2.9264
 1010TIP3    H224666   6.363   4.715   1.621 -2.8010 -0.9955 -2.0011
 1011TIP3   OH224667   0.463   5.669   0.692  0.2793  0.3678 -0.1266
 1011TIP3    H124668   0.546   5.714   0.681  1.1093 -0.9241  0.4927
 1011TIP3    H224669   0.418   5.679   0.609  0.7434  1.6849 -0.2332
 1012TIP3   OH224670   2.753   2.960   0.975  0.5112  0.2051  0.0827
 1012TIP3    H124671   2.675   3.002   0.940  1.2680  2.0493  0.4716
 1012TIP3    H224672   2.739   2.958   1.070  1.5357  1.9634  0.3126
 1013TIP3   OH224673   1.630   5.624   1.473  0.3646 -0.0863  0.3712
 1013TIP3    H124674   1.606   5.579   1.392  0.5246 -0.3965  0.4972
 1013TIP3    H224675   1.717   5.591   1.494  0.2079 -0.2075  0.8203
 1014TIP3   OH224676   4.176   6.811   1.839 -0.5401 -0.0227 -0.8177
 1014TIP3    H124677   4.178   6.728   1.791  2.3424 -0.1002 -0.7021
 1014TIP3    H224678   4.186   6.786   1.931  0.4772  0.4414 -0.7913
 1015TIP3   OH224679   1.578   3.417   0.364 -0.3129 -0.1610  0.4469
 1015TIP3    H124680   1.667   3.429   0.397 -0.6199  1.0063  0.9144
 1015TIP3    H224681   1.545   3.506   0.353 -1.2037 -0.5776 -0.3409
 1016TIP3   OH224682   0.858   4.487   0.247  0.1810 -0.8133  0.4104
 1016TIP3    H124683   0.849   4.504   0.341 -1.9683  0.2916  0.0799
 1016TIP3    H224684   0.797   4.416   0.229 -1.1363  0.4802 -0.4701
 1017TIP3   OH224685   3.092   5.803   6.857  0.2518  0.3361 -0.5752
 1017TIP3    H124686   3.126   5.714   6.845 -1.0001 -0.3527  0.7406
 1017TIP3    H224687   3.127   5.852   6.783  1.6590 -1.0386 -0.8792
 1018TIP3   OH224688   3.183   1.604   0.898  0.0187 -0.1743 -0.0058
 1018TIP3    H124689   3.217   1.515   0.888 -3.0647 -1.6002  0.9357
 1018TIP3    H224690   3.163   1.631   0.808  2.2678  0.2072 -0.4433
 1019TIP3   OH224691   4.037   0.764   6.482 -0.1699  0.2101 -0.1711
 1019TIP3    H124692   3.972   0.699   6.457  0.0580 -0.1203  0.0675
 1019TIP3    H224693   4.120   0.729   6.449 -0.1187  0.6407 -0.5003
 1020TIP3   OH224694   2.993   3.351   2.117  0.3893 -0.6938  0.8196
 1020TIP3    H124695   2.941   3.285   2.070  1.5176 -0.9015 -0.1711
 1020TIP3    H224696   2.997   3.319   2.207 -1.6522 -0.3839  1.0895
 1021TIP3   OH224697   5.831   1.409   8.187 -0.9115 -0.9459  0.0836
 1021TIP3    H124698   5.816   1.448   8.101  0.0316 -0.4417  0.1413
 1021TIP3    H224699   5.864   1.481   8.241 -0.8182 -1.4250  0.6738
 1022TIP3   OH224700   2.291   4.197   8.302  0.3249  0.4388  0.4165
 1022TIP3    H124701   2.262   4.106   8.292  0.1963  0.3405  1.6343
 1022TIP3    H224702   2.332   4.217   8.217  1.1434 -1.0424  0.4063
 1023TIP3   OH224703   6.537   4.877   8.438  0.5556 -0.0118 -0.6574
 1023TIP3    H124704   6.443   4.893   8.447  0.4928 -0.8029  0.1011
 1023TIP3    H224705   6.578   4.944   8.492  0.3969 -0.3477 -0.1230
 1024TIP3   OH224706   0.970   0.386   7.986 -0.8128  0.0431  0.4070
 1024TIP3    H124707   0.946   0.306   7.938  1.9145  0.1790 -1.4174
 1024TIP3    H224708   0.929   0.376   8.072  0.9575 -4.2997  0.9983
 1025TIP3   OH224709   4.155   4.274   1.791  0.1249 -0.0388 -0.5020
 1025TIP3    H124710   4.091   4.286   1.862  0.9193  1.3710  0.0116
 1025TIP3    H224711   4.230   4.327   1.817  0.6176  0.1558 -2.2074
 1026TIP3   OH224712   0.710   3.641   0.885 -0.6883  0.0572 -0.1871
 1026TIP3    H124713   0.737   3.553   0.912  1.0621  0.7925  0.5710
 1026TIP3    H224714   0.620   3.648   0.917 -1.6596 -2.1711 -2.0784
 1027TIP3   OH224715   6.831   0.001   6.528 -0.1130  0.1426 -0.1989
 1027TIP3    H124716   6.869   0.000   6.616  0.3185  0.6314 -0.3743
 1027TIP3    H224717   6.837   0.093   6.501  1.6779 -0.3180 -1.5623
 1028TIP3   OH224718   6.762   0.788   7.267  0.0825 -0.8025  0.7202
 1028TIP3    H124719   6.772   0.716   7.330 -0.7902 -0.4419  1.3014
 1028TIP3    H224720   6.667   0.803   7.263  0.2958  1.9470  2.5675
 1029TIP3   OH224721   3.867   6.810   8.543 -0.0613 -0.1721 -0.0664
 1029TIP3    H124722   3.912   6.864   8.479  2.1874 -1.8824 -0.0462
 1029TIP3    H224723   3.927   6.806   8.618 -2.0252  0.6677  1.6569
 1030TIP3   OH224724   2.637   4.025   8.700 -0.7344 -0.9824 -0.0345
 1030TIP3    H124725   2.672   4.084   8.632 -1.3171 -0.5600  0.0237
 1030TIP3    H224726   2.699   3.952   8.703  0.6139  0.1485  0.6581
 1031TIP3   OH224727   1.992   1.021   6.676 -0.4446 -0.8218 -0.6763
 1031TIP3    H124728   1.990   1.050   6.768  1.0577 -0.6420 -0.6594
 1031TIP3    H224729   2.046   1.087   6.632 -1.6764 -0.5593 -1.8437
 1032TIP3   OH224730   6.346   4.555   0.021  0.4031  0.4946  0.1147
 1032TIP3    H124731   6.410   4.561  -0.049 -1.1296 -0.3692 -1.4390
 1032TIP3    H224732   6.361   4.470   0.062 -0.0641  0.0623 -0.5953
 1033TIP3   OH224733   1.994   3.333   0.695  0.2847 -0.3944 -0.2243
 1033TIP3    H124734   1.982   3.239   0.706  1.9377 -0.7427 -1.0160
 1033TIP3    H224735   2.052   3.359   0.766  0.8810 -0.2386 -0.7539
 1034TIP3   OH224736   3.587   2.054   7.898 -0.9780 -0.7230  0.4569
 1034TIP3    H124737   3.657   1.991   7.913 -0.5271 -0.7426 -1.4619
 1034TIP3    H224738   3.627   2.121   7.842 -1.6077  0.9952  1.9881
 1035TIP3   OH224739   4.280   4.921   5.952  0.3627  0.4373 -0.3067
 1035TIP3    H124740   4.272   5.014   5.933 -0.3094  0.4571  0.0546
 1035TIP3    H224741   4.190   4.888   5.953  0.6407 -0.3793 -1.2064
 1036TIP3   OH224742   3.915   3.017   8.091  0.2766 -0.3413  0.1881
 1036TIP3    H124743   3.889   3.053   8.175 -0.0584  0.6603 -0.3308
 1036TIP3    H224744   3.848   3.046   8.030  1.2789  0.1752 -0.6975
 1037TIP3   OH224745   0.046   2.386   2.020  0.4745 -0.5261 -0.1449
 1037TIP3    H124746  -0.025   2.384   2.084  0.5183  1.6823  0.0378
 1037TIP3    H224747   0.113   2.441   2.061  1.1782 -0.3996 -1.4296
 1038TIP3   OH224748   4.820   6.728   0.217 -0.1524 -0.4653 -0.0463
 1038TIP3    H124749   4.898   6.675   0.198  0.0076 -0.1061 -0.4059
 1038TIP3    H224750   4.811   6.724   0.312  1.0125  0.4738  0.1243
 1039TIP3   OH224751   4.743   1.523   0.769 -0.7503  0.8155  0.6352
 1039TIP3    H124752   4.672   1.464   0.794  1.6746 -1.9351  1.6055
 1039TIP3    H224753   4.783   1.483   0.693 -1.6162  3.6595 -1.5056
 1040TIP3   OH224754   1.651   4.112   7.961 -0.0048  0.0859  0.3236
 1040TIP3    H124755   1.653   4.188   8.019  2.6070  0.7154 -0.4218
 1040TIP3    H224756   1.643   4.150   7.873 -0.5144 -0.6204  0.0659
 1041TIP3   OH224757   0.804   0.951   7.992 -0.3841 -0.2046  0.4889
 1041TIP3    H124758   0.764   0.995   7.917  0.9100  1.1324  0.5515
 1041TIP3    H224759   0.807   0.859   7.967  1.0152  0.3482 -1.5704
 1042TIP3   OH224760   3.074   4.205   8.439  0.2066 -0.0370  0.1907
 1042TIP3    H124761   2.994   4.199   8.387  0.4264 -0.1113 -0.1420
 1042TIP3    H224762   3.145   4.208   8.375  0.8103 -3.9590  0.4309
 1043TIP3   OH224763   3.766   3.570   1.986 -0.2892  0.0450 -0.0757
 1043TIP3    H124764   3.794   3.660   1.967 -0.7613  0.0855 -0.6094
 1043TIP3    H224765   3.675   3.567   1.957  0.4641 -1.3464 -2.5526
 1044TIP3   OH224766   3.107   4.206   1.338 -0.3230 -0.2556 -0.0872
 1044TIP3    H124767   3.162   4.282   1.318  1.6854 -1.9878 -1.6105
 1044TIP3    H224768   3.139   4.174   1.422  1.9195 -1.8553 -1.4223
 1045TIP3   OH224769   4.718   1.490   7.638 -0.5774  0.6909 -0.3252
 1045TIP3    H124770   4.694   1.536   7.718  0.0957  0.0080  0.2831
 1045TIP3    H224771   4.698   1.398   7.656 -0.0142  0.4730 -0.7775
 1046TIP3   OH224772   6.564   4.624   8.606  0.5548 -0.0893 -0.7592
 1046TIP3    H124773   6.519   4.708   8.615 -0.8662 -0.7877 -0.8851
 1046TIP3    H224774   6.647   4.635   8.652 -0.0495  1.0596  0.1049
 1047TIP3   OH224775   6.466   5.442   8.498 -0.6293 -0.5775  0.3308
 1047TIP3    H124776   6.408   5.518   8.508  0.9126  0.4744  2.0347
 1047TIP3    H224777   6.519   5.461   8.421 -0.5787 -0.1451  0.4721
 1048TIP3   OH224778   2.039   1.989   8.018  0.2942  0.3710  0.0332
 1048TIP3    H124779   2.074   1.936   8.090  0.1912  0.7280  0.3506
 1048TIP3    H224780   1.945   1.969   8.017 -0.1399  2.0649  1.4973
 1049TIP3   OH224781   1.077   2.135   7.469  0.3543  0.0860 -0.7512
 1049TIP3    H124782   1.121   2.052   7.487  2.2940  1.1881 -0.1440
 1049TIP3    H224783   0.996   2.131   7.520 -0.0669 -1.8009 -1.4931
 1050TIP3   OH224784   3.631   5.327   6.730 -0.5015  0.3457 -0.2288
 1050TIP3    H124785   3.579   5.247   6.732  1.2966 -0.9375 -1.4903
 1050TIP3    H224786   3.688   5.317   6.653  0.0806  2.6423 -0.1670
 1051TIP3   OH224787   3.752   6.706   8.041  0.0450 -0.6488 -0.4541
 1051TIP3    H124788   3.666   6.745   8.024  0.2523 -0.4433 -1.0438
 1051TIP3    H224789   3.751   6.688   8.135  0.5310  2.2361  0.1951
 1052TIP3   OH224790   4.425   6.000   2.058 -0.2369  0.1199  0.0097
 1052TIP3    H124791   4.472   5.919   2.077  0.3736  0.7217  1.1539
 1052TIP3    H224792   4.339   5.972   2.028 -0.1366 -0.9478  0.6841
 1053TIP3   OH224793   2.011   3.759   1.689 -0.4449  0.7215  0.5241
 1053TIP3    H124794   1.968   3.673   1.683  0.9633 -0.0589  0.9539
 1053TIP3    H224795   1.941   3.819   1.715 -2.1364  0.3200 -2.5479
 1054TIP3   OH224796   3.570   4.969   7.464 -0.3122  0.3001  0.1398
 1054TIP3    H124797   3.582   4.946   7.371 -0.5495 -1.0134  0.4203
 1054TIP3    H224798   3.652   4.943   7.506 -0.4006  0.4125  0.3819
 1055TIP3   OH224799   4.409   3.437   7.081  0.2010 -0.1304 -0.9601
 1055TIP3    H124800   4.467   3.411   7.152  0.0043  0.6254 -0.5054
 1055TIP3    H224801   4.378   3.524   7.107 -0.4060 -0.1362 -1.6420
 1056TIP3   OH224802   0.883   1.125   6.854 -0.2892  0.2031  0.5888
 1056TIP3    H124803   0.828   1.189   6.899  0.3404  2.2516 -1.3752
 1056TIP3    H224804   0.972   1.143   6.886 -0.1830 -0.1050  0.4732
 1057TIP3   OH224805   3.098   5.072   1.037  0.4147  0.2295 -0.5209
 1057TIP3    H124806   3.187   5.048   1.063 -0.8154 -2.1573  1.9697
 1057TIP3    H224807   3.053   4.988   1.026 -1.8755  1.3733 -0.3801
 1058TIP3   OH224808   5.518   6.057   1.480  0.1868  0.2264 -0.0424
 1058TIP3    H124809   5.586   6.020   1.536  0.1904  0.4790  0.1202
 1058TIP3    H224810   5.504   5.991   1.412  1.6660  0.7959 -0.9601
 1059TIP3   OH224811   6.823   2.419   7.871 -0.2729  0.5488 -0.1382
 1059TIP3    H124812   6.783   2.333   7.854  0.7520 -0.4421  1.9765
 1059TIP3    H224813   6.790   2.444   7.957  1.3825  1.0380  0.4049
 1060TIP3   OH224814   0.105   4.942   7.696  0.1856 -0.7596 -0.3486
 1060TIP3    H124815   0.148   4.997   7.762 -0.8558 -0.1983 -0.0953
 1060TIP3    H224816   0.112   4.853   7.730  0.1321 -0.5353  0.2680
 1061TIP3   OH224817   4.193   0.518   0.333 -0.2173  0.0314  0.1904
 1061TIP3    H124818   4.153   0.469   0.261 -0.0935 -0.3578  0.3806
 1061TIP3    H224819   4.193   0.456   0.406 -1.4969  0.8249  0.9034
 1062TIP3   OH224820   0.319   6.829   0.456 -0.0639 -0.7820 -0.6705
 1062TIP3    H124821   0.310   6.842   0.551 -2.9115 -1.5560 -0.7334
 1062TIP3    H224822   0.412   6.813   0.443  0.3443 -1.2349  2.0731
 1063TIP3   OH224823   1.535   3.913   6.648 -0.4872  0.3927 -0.2311
 1063TIP3    H124824   1.619   3.870   6.636  0.7476  2.0032  1.8156
 1063TIP3    H224825   1.538   3.989   6.590 -0.6494  0.3170 -0.3407
 1064TIP3   OH224826   3.910   6.326   7.155  0.0925 -0.7671  0.8464
 1064TIP3    H124827   3.978   6.393   7.165  0.1597 -0.1660 -2.5764
 1064TIP3    H224828   3.949   6.248   7.194  0.6761  0.6654  3.4325
 1065TIP3   OH224829   3.311   4.083   1.109 -0.0910  0.0672  0.0031
 1065TIP3    H124830   3.315   4.002   1.160 -1.2433  1.1840  2.0336
 1065TIP3    H224831   3.267   4.145   1.168  2.4329  2.7318 -0.7003
 1066TIP3   OH224832   5.261   2.969   2.178  0.2387 -0.2921 -0.4696
 1066TIP3    H124833   5.172   2.939   2.192  0.1279  0.3024  0.1398
 1066TIP3    H224834   5.260   3.061   2.203  1.5664 -0.8438  1.8991
 1067TIP3   OH224835   5.634   2.077   0.384 -0.8059  0.0482  0.1460
 1067TIP3    H124836   5.580   2.002   0.410 -2.1687  0.9350  0.0278
 1067TIP3    H224837   5.600   2.149   0.438  2.0189  0.1403  1.9833
 1068TIP3   OH224838   3.301   4.147   6.649 -0.0787 -0.2464  0.1178
 1068TIP3    H124839   3.262   4.160   6.563 -1.3821  0.9244  0.8404
 1068TIP3    H224840   3.326   4.055   6.651  0.6801 -0.1300 -1.7652
 1069TIP3   OH224841   4.542   4.599   0.191 -0.0600 -0.1775 -0.3202
 1069TIP3    H124842   4.463   4.604   0.245 -0.1151 -0.4867 -0.3689
 1069TIP3    H224843   4.514   4.629   0.105 -0.0416  0.0402 -0.2511
 1070TIP3   OH224844   4.545   3.016   7.086  0.2402 -0.3174 -0.1045
 1070TIP3    H124845   4.558   2.949   7.153  1.8620  1.4089  1.4259
 1070TIP3    H224846   4.465   3.060   7.112 -1.0110 -1.7820 -1.2966
 1071TIP3   OH224847   3.803   0.295   6.795  0.1105  0.0874 -0.4851
 1071TIP3    H124848   3.739   0.256   6.735 -1.1118  0.8570  0.2801
 1071TIP3    H224849   3.758   0.372   6.831  0.9403 -0.1560  1.1552
 1072TIP3   OH224850   1.847   5.138   0.729 -0.1364  0.0912 -0.1695
 1072TIP3    H124851   1.822   5.047   0.714  0.5902 -0.2520  0.6222
 1072TIP3    H224852   1.932   5.147   0.687  0.4868 -0.0297  1.0272
 1073TIP3   OH224853   0.022   2.552   0.620  0.2321  0.5075  0.7112
 1073TIP3    H124854   0.115   2.576   0.617  0.3647 -0.1111 -1.3779
 1073TIP3    H224855   0.022   2.457   0.631  0.1158 -0.3542 -4.3859
 1074TIP3   OH224856   5.317   4.027   7.486  0.3491  0.1282  0.0420
 1074TIP3    H124857   5.395   3.992   7.441 -1.1654 -0.5268 -2.2276
 1074TIP3    H224858   5.262   4.060   7.416 -0.4142  2.8554  1.7815
 1075TIP3   OH224859   0.726   1.143   8.688 -0.3805 -0.2876  0.3139
 1075TIP3    H124860   0.757   1.053   8.693  0.5898 -0.2361 -2.7688
 1075TIP3    H224861   0.663   1.143   8.617 -0.4462  1.4543  0.3255
 1076TIP3   OH224862   2.570   6.738   8.546  0.3889  0.0799 -0.2221
 1076TIP3    H124863   2.538   6.821   8.510  1.4834 -0.2680 -2.1089
 1076TIP3    H224864   2.552   6.674   8.478 -1.5562 -1.5424  1.6835
 1077TIP3   OH224865   0.392   6.566   1.134 -0.2741  0.8522  0.4448
 1077TIP3    H124866   0.481   6.600   1.145 -0.1174  0.0114  2.1260
 1077TIP3    H224867   0.336   6.629   1.179 -0.4520  0.9388  0.1120
 1078TIP3   OH224868   5.495   5.414   1.765 -0.7070 -0.2039  0.0414
 1078TIP3    H124869   5.482   5.493   1.817 -0.4610 -0.8580  1.1155
 1078TIP3    H224870   5.585   5.388   1.782  0.8500  1.8223 -3.9104
 1079TIP3   OH224871   6.565   5.641   1.223 -0.0667  0.0298 -0.9376
 1079TIP3    H124872   6.499   5.630   1.154  0.5238  0.9803 -1.6972
 1079TIP3    H224873   6.518   5.682   1.295 -0.6237 -0.6602 -0.9021
 1080TIP3   OH224874   0.161   4.831   7.429  0.2616 -0.3074 -0.0381
 1080TIP3    H124875   0.106   4.845   7.352 -0.0365 -0.3646  0.1596
 1080TIP3    H224876   0.121   4.885   7.497  0.4985 -0.2881  0.0881
 1081TIP3   OH224877   2.910   3.486   1.411 -0.4683 -0.0714 -0.3683
 1081TIP3    H124878   2.904   3.505   1.318  0.0339 -2.5585 -0.9897
 1081TIP3    H224879   2.991   3.436   1.421 -0.2874  0.4905  1.4972
 1082TIP3   OH224880   4.031   4.787   5.887 -0.1828 -0.3406  0.1267
 1082TIP3    H124881   3.986   4.858   5.933  1.2409  0.7218 -0.0636
 1082TIP3    H224882   3.982   4.708   5.911 -1.1455  0.5507  1.2081
 1083TIP3   OH224883   1.446   4.262   8.320 -0.2885 -0.3563  0.0564
 1083TIP3    H124884   1.470   4.273   8.228  1.3587  0.1058  0.5071
 1083TIP3    H224885   1.418   4.171   8.327 -1.0854 -0.2220 -1.0181
 1084TIP3   OH224886   2.893   2.502   5.989  0.0478 -0.1430  0.1491
 1084TIP3    H124887   2.929   2.577   6.035 -0.2005 -0.4946  0.9369
 1084TIP3    H224888   2.815   2.536   5.945  0.4011  0.2410 -0.1820
 1085TIP3   OH224889   3.350   4.491   7.554  0.1918  0.1659  0.1476
 1085TIP3    H124890   3.275   4.540   7.588 -1.0726 -1.2389 -0.5259
 1085TIP3    H224891   3.410   4.485   7.628  0.2781  2.4386  0.3368
 1086TIP3   OH224892   1.919   5.079   0.309 -0.2656  0.3967 -0.0670
 1086TIP3    H124893   1.839   5.077   0.257 -0.7401  1.3120  0.6075
 1086TIP3    H224894   1.910   5.003   0.368 -1.6577  1.6592  1.4411
 1087TIP3   OH224895   1.344   4.887   8.242  0.1379 -0.2489  0.4103
 1087TIP3    H124896   1.305   4.810   8.200 -1.1411 -0.5032  1.9856
 1087TIP3    H224897   1.292   4.961   8.210 -0.3906 -0.3674  0.9669
 1088TIP3   OH224898   1.560   2.190   6.262 -0.3218 -0.6305  0.6552
 1088TIP3    H124899   1.470   2.217   6.243  0.0710 -0.7296 -1.6937
 1088TIP3    H224900   1.614   2.251   6.210  0.7995 -2.5855 -0.6023
 1089TIP3   OH224901   6.399   0.863   6.232  0.0479  0.1037  0.1983
 1089TIP3    H124902   6.371   0.955   6.234 -0.5785 -0.0849  1.5682
 1089TIP3    H224903   6.469   0.861   6.167  0.1264  1.5596  0.1879
 1090TIP3   OH224904   3.930   1.219   7.040 -0.3993 -0.1871  0.3986
 1090TIP3    H124905   3.942   1.278   7.114  0.4098  0.0221  0.1078
 1090TIP3    H224906   3.885   1.143   7.077  2.5464 -1.3972  1.7650
 1091TIP3   OH224907   2.309   6.646   8.696  0.6235 -0.0358  0.0940
 1091TIP3    H124908   2.351   6.648   8.782 -1.1907  3.3103  1.0501
 1091TIP3    H224909   2.344   6.722   8.650 -0.4848 -0.2027 -1.0874
 1092TIP3   OH224910   5.548   2.165   1.318  0.1903 -0.3508 -0.3683
 1092TIP3    H124911   5.587   2.223   1.253 -0.0272  1.2429  0.8540
 1092TIP3    H224912   5.473   2.125   1.274  0.2534  0.4155 -1.1920
 1093TIP3   OH224913   3.358   3.622   0.330 -0.1555 -0.2137 -0.0829
 1093TIP3    H124914   3.341   3.705   0.375 -2.7469 -1.2782  1.1141
 1093TIP3    H224915   3.340   3.641   0.238 -0.0397  0.6995  0.0653
 1094TIP3   OH224916   6.209   1.742   8.413 -0.3114 -0.3503 -0.1683
 1094TIP3    H124917   6.115   1.724   8.404 -0.7398  0.8480  1.3810
 1094TIP3    H224918   6.214   1.838   8.412  1.1493 -0.4031 -2.1836
 1095TIP3   OH224919   6.156   6.576   1.088 -0.4028 -0.5886  0.1705
 1095TIP3    H124920   6.206   6.506   1.131 -1.2157 -1.1618  0.2065
 1095TIP3    H224921   6.146   6.545   0.998 -1.3734 -0.8707  0.3619
 1096TIP3   OH224922   2.828   1.768   1.245 -0.5345  0.5433 -0.1925
 1096TIP3    H124923   2.895   1.725   1.193  0.7215  3.5035 -1.2123
 1096TIP3    H224924   2.745   1.747   1.201 -0.0298 -0.9564 -0.4795
 1097TIP3   OH224925   3.954   0.451   1.549  0.2986  0.1377  0.6579
 1097TIP3    H124926   3.963   0.400   1.630  0.0654 -0.6811  0.1856
 1097TIP3    H224927   4.034   0.504   1.545  1.7636 -1.9775 -0.0400
 1098TIP3   OH224928   6.344   1.412   7.134 -0.0351  0.0340 -0.0622
 1098TIP3    H124929   6.342   1.419   7.038  0.6351 -0.7560 -0.1524
 1098TIP3    H224930   6.415   1.350   7.151 -1.1463 -1.0355  0.8813
 1099TIP3   OH224931   4.932   1.832   7.347  0.0081  0.0119 -0.1599
 1099TIP3    H124932   4.877   1.755   7.361 -0.7087  0.8703  2.4122
 1099TIP3    H224933   5.006   1.819   7.406 -0.4894  1.5691  0.8770
 1100TIP3   OH224934   4.626   2.231   0.866 -0.6084 -0.0695  1.1960
 1100TIP3    H124935   4.544   2.258   0.908 -2.1971 -0.8265 -1.1543
 1100TIP3    H224936   4.676   2.189   0.935 -2.1358  0.5387  2.7624
 1101TIP3   OH224937   2.837   0.195   6.746  0.0554 -0.0585  0.3724
 1101TIP3    H124938   2.782   0.251   6.801 -1.2403 -1.1386  0.2124
 1101TIP3    H224939   2.792   0.193   6.661  1.8514  1.3206 -0.6946
 1102TIP3   OH224940   1.405   6.781   6.019 -0.1384  0.0621  0.4405
 1102TIP3    H124941   1.473   6.761   6.083  2.5877  0.7085 -2.0322
 1102TIP3    H224942   1.348   6.704   6.021  1.9599 -1.5797  1.0652
 1103TIP3   OH224943   3.502   4.178   0.129  0.2140  0.4546  0.0256
 1103TIP3    H124944   3.441   4.213   0.064  1.6782  1.0645 -1.0673
 1103TIP3    H224945   3.568   4.246   0.140  1.6385 -0.8358 -0.1069
 1104TIP3   OH224946   1.513   1.796   0.918  0.4487  0.0100 -0.0750
 1104TIP3    H124947   1.565   1.857   0.971 -1.3819  1.5015  0.1270
 1104TIP3    H224948   1.573   1.766   0.850  2.1139  0.0905  1.2889
 1105TIP3   OH224949   4.331   0.586   6.948  0.0542 -0.0331 -0.1487
 1105TIP3    H124950   4.250   0.586   6.999 -0.6465 -0.9143 -1.2228
 1105TIP3    H224951   4.305   0.618   6.862  0.6742 -1.1107 -0.7591
 1106TIP3   OH224952   5.064   2.243   7.511  0.7274 -0.3612 -0.2793
 1106TIP3    H124953   5.018   2.198   7.441  0.5701  0.0845 -0.4678
 1106TIP3    H224954   4.996   2.262   7.576  0.5314  0.7568 -0.7902
 1107TIP3   OH224955   1.935   2.941   7.979 -0.7303 -0.4412  0.1930
 1107TIP3    H124956   1.923   3.035   7.993 -0.3477 -0.4593  0.6845
 1107TIP3    H224957   2.030   2.929   7.977 -0.7651 -0.6166 -1.3420
 1108TIP3   OH224958   5.485   2.509   1.401 -0.0165 -0.3015  0.2647
 1108TIP3    H124959   5.460   2.517   1.493  0.3171  2.1002  0.2086
 1108TIP3    H224960   5.406   2.475   1.358 -0.3450 -0.9600  1.3570
 1109TIP3   OH224961   5.710   0.701   8.239  0.1094 -1.1711  0.3252
 1109TIP3    H124962   5.769   0.675   8.309  0.9890 -1.9388 -0.6623
 1109TIP3    H224963   5.759   0.766   8.189 -1.3602  1.0883  1.6678
 1110TIP3   OH224964   0.351   3.928   1.406  0.0201  0.2212 -0.5405
 1110TIP3    H124965   0.421   3.876   1.367 -0.1571  0.8976 -1.8342
 1110TIP3    H224966   0.290   3.943   1.334  0.2381  2.4819 -0.3396
 1111TIP3   OH224967   2.590   1.070   6.979  0.5603 -1.4008  0.7427
 1111TIP3    H124968   2.522   1.134   6.956  0.3078 -1.4231  1.3913
 1111TIP3    H224969   2.668   1.123   6.996  0.4980 -1.3083  0.7402
 1112TIP3   OH224970   0.225   0.953   6.781  0.0692  0.0854  0.5075
 1112TIP3    H124971   0.285   1.027   6.774  0.0692  0.1071  0.7322
 1112TIP3    H224972   0.217   0.937   6.875  0.3099 -0.3949  0.4516
 1113TIP3   OH224973   0.467   0.629   7.276  0.1485 -0.7176  0.2177
 1113TIP3    H124974   0.511   0.546   7.258  0.1267 -0.6160 -0.3396
 1113TIP3    H224975   0.379   0.617   7.241  1.4935  1.2324 -4.8387
 1114TIP3   OH224976   0.957   3.260   0.822  0.0608  0.0839  0.8121
 1114TIP3    H124977   0.987   3.174   0.796  0.1062  0.3214  0.0752
 1114TIP3    H224978   0.965   3.314   0.744 -0.0007  0.7516  1.2533
 1115TIP3   OH224979   3.597   5.638   1.260 -0.3297 -0.6240 -0.0399
 1115TIP3    H124980   3.606   5.604   1.171 -0.7551 -1.1170  0.1020
 1115TIP3    H224981   3.516   5.599   1.292  0.3344 -1.2572  0.9183
 1116TIP3   OH224982   6.223   6.203   8.620 -0.4624  0.3257  0.1214
 1116TIP3    H124983   6.154   6.137   8.609 -0.1039  0.0149 -0.2602
 1116TIP3    H224984   6.207   6.239   8.708 -0.0455 -0.9945  0.7664
 1117TIP3   OH224985   0.921   3.988   6.217  0.0268  0.7606 -0.2461
 1117TIP3    H124986   0.866   4.019   6.145 -0.4405  2.1494  0.6633
 1117TIP3    H224987   0.866   3.927   6.265  0.2508  0.0331 -0.8795
 1118TIP3   OH224988   5.581   2.566   0.061  0.5242 -0.0007  0.1556
 1118TIP3    H124989   5.651   2.605   0.114 -0.9131  0.5978  1.6978
 1118TIP3    H224990   5.590   2.472   0.076  0.9987  0.0645  0.3150
 1119TIP3   OH224991   1.925   0.569   6.700 -0.4456  0.1512  0.3609
 1119TIP3    H124992   1.940   0.638   6.636  0.6360 -0.3082  0.1059
 1119TIP3    H224993   1.835   0.540   6.684  0.0477 -0.5056 -1.4976
 1120TIP3   OH224994   5.298   5.110   8.260 -0.2209  0.0471 -0.1229
 1120TIP3    H124995   5.378   5.108   8.312  0.8446  0.6657 -1.6574
 1120TIP3    H224996   5.283   5.019   8.235  2.5166  0.2806 -3.3429
 1121TIP3   OH224997   2.139   0.863   6.283  0.7625  0.0231  0.3923
 1121TIP3    H124998   2.099   0.777   6.272 -1.8915  1.0154  1.4536
 1121TIP3    H224999   2.140   0.901   6.195  0.2348 -0.3954  0.2019
 1122TIP3   OH225000   3.077   3.064   7.053 -0.5919 -0.3097 -0.2759
 1122TIP3    H125001   2.989   3.035   7.079 -0.0570 -0.4195  1.5920
 1122TIP3    H225002   3.085   3.151   7.091 -0.5484  0.5131 -2.0655
 1123TIP3   OH225003   0.328   5.707   8.319 -0.0321  1.0295  0.1942
 1123TIP3    H125004   0.397   5.705   8.252 -0.3157  0.8512 -0.0937
 1123TIP3    H225005   0.365   5.761   8.389  1.2879 -0.8478  1.0199
 1124TIP3   OH225006   0.344   0.787   0.336  0.4801  0.4371  0.1316
 1124TIP3    H125007   0.302   0.712   0.379  1.7621 -1.9570 -2.4431
 1124TIP3    H225008   0.372   0.843   0.408 -1.8723 -0.7594  2.1402
 1125TIP3   OH225009   4.429   3.744   1.056  0.2703 -0.1793 -0.1773
 1125TIP3    H125010   4.498   3.787   1.006  0.4124  0.1365  0.2918
 1125TIP3    H225011   4.348   3.768   1.010  0.2594  1.2836  0.5387
 1126TIP3   OH225012   4.978   0.977   7.775  0.3203  0.2305 -0.2579
 1126TIP3    H125013   4.944   0.903   7.825 -0.2234  1.2205  0.8730
 1126TIP3    H225014   5.063   0.995   7.815  0.5536  0.0854 -0.6820
 1127TIP3   OH225015   4.827   6.223   1.515  0.5970  0.2526  0.1029
 1127TIP3    H125016   4.761   6.214   1.584  0.3535 -1.5746 -0.3203
 1127TIP3    H225017   4.804   6.304   1.470  0.0793  0.8790  1.4451
 1128TIP3   OH225018   1.447   2.302   7.447  0.1028 -0.0567 -0.4076
 1128TIP3    H125019   1.485   2.313   7.360 -1.2529  0.6162 -0.9537
 1128TIP3    H225020   1.352   2.305   7.432 -0.2331 -2.3399  0.7940
 1129TIP3   OH225021   6.644   6.664   6.506 -0.2224 -0.5021  0.8000
 1129TIP3    H125022   6.598   6.697   6.582 -0.2533  1.9149 -0.1762
 1129TIP3    H225023   6.724   6.717   6.501  0.7639 -1.9769  0.2795
 1130TIP3   OH225024   3.672   1.865   6.199 -0.1923  0.4856 -0.0435
 1130TIP3    H125025   3.691   1.955   6.171 -0.7114 -0.1348 -2.6436
 1130TIP3    H225026   3.758   1.827   6.214  0.1602  0.7852 -1.1888
 1131TIP3   OH225027   4.228   2.170   2.152  0.1910 -0.0382  0.3201
 1131TIP3    H125028   4.159   2.219   2.196 -0.9100 -0.4222 -0.9225
 1131TIP3    H225029   4.279   2.131   2.223 -0.0719  1.3167  1.2847
 1132TIP3   OH225030   3.764   5.277   6.982 -0.4418 -0.1158 -0.0519
 1132TIP3    H125031   3.739   5.300   7.071 -0.6270  1.9633 -0.5890
 1132TIP3    H225032   3.682   5.273   6.933 -0.2022  1.0136 -0.5858
 1133TIP3   OH225033   6.734   0.193   1.801  0.3910  0.2269  0.1645
 1133TIP3    H125034   6.792   0.152   1.737 -0.3810 -0.8703  0.1320
 1133TIP3    H225035   6.656   0.137   1.800 -0.3477  1.2342  0.7547
 1134TIP3   OH225036   0.002   3.252   7.172 -0.2209  0.1442  0.3600
 1134TIP3    H125037  -0.034   3.285   7.254 -3.1451 -2.1679  0.1809
 1134TIP3    H225038   0.079   3.202   7.198  0.3926  1.5382  1.3340
 1135TIP3   OH225039   5.351   4.807   6.460  0.3270  0.2319 -0.4633
 1135TIP3    H125040   5.273   4.854   6.431 -0.5453 -1.4673 -1.0167
 1135TIP3    H225041   5.420   4.873   6.462 -1.4382  2.1973  1.6561
 1136TIP3   OH225042   3.760   2.100   2.645  0.0272 -0.0752 -0.5769
 1136TIP3    H125043   3.667   2.092   2.669 -0.1827 -0.1818 -1.3777
 1136TIP3    H225044   3.806   2.106   2.729 -0.6644 -0.4325 -0.1569
 1137TIP3   OH225045   1.617   6.685   6.678  0.2200  0.3867 -0.3410
 1137TIP3    H125046   1.670   6.680   6.599  1.0354 -0.6761  0.2545
 1137TIP3    H225047   1.562   6.606   6.675  0.2382  0.3547  0.1397
 1138TIP3   OH225048   5.009   6.666   1.472 -0.2560  0.4098  0.0731
 1138TIP3    H125049   5.089   6.662   1.420 -1.0982 -0.9201 -1.2081
 1138TIP3    H225050   4.978   6.756   1.463  0.5072  0.6338 -0.3462
 1139TIP3   OH225051   5.336   3.482   0.628 -0.0243  0.4882 -0.2719
 1139TIP3    H125052   5.322   3.398   0.670 -0.0490  0.8532  0.4619
 1139TIP3    H225053   5.406   3.466   0.564 -0.5052 -0.2395 -0.6257
 1140TIP3   OH225054   3.073   5.170   6.471 -0.8545 -0.7370  0.2510
 1140TIP3    H125055   3.135   5.129   6.411 -0.7887  0.6525 -0.6737
 1140TIP3    H225056   2.997   5.113   6.470 -0.8857 -0.7104 -1.2425
 1141TIP3   OH225057   4.028   0.577   2.265  0.2189 -0.2295  0.1005
 1141TIP3    H125058   4.077   0.568   2.347  0.0829  0.4069  0.2572
 1141TIP3    H225059   3.981   0.494   2.256 -0.0067 -0.1896  0.8315
 1142TIP3   OH225060   2.234   4.915   0.633 -0.1974  0.1846 -0.0525
 1142TIP3    H125061   2.255   4.917   0.539 -0.9497  1.1962 -0.2250
 1142TIP3    H225062   2.298   4.973   0.673 -0.5025  0.5493 -0.0890
 1143TIP3   OH225063   0.803   0.959   0.242 -0.0893 -0.0077 -0.7792
 1143TIP3    H125064   0.733   0.894   0.244 -0.3024  0.2126 -1.0873
 1143TIP3    H225065   0.761   1.040   0.272  0.5530 -0.3646  1.2401
 1144TIP3   OH225066   3.242   5.947   7.563  0.1493  0.5123 -0.2318
 1144TIP3    H125067   3.255   5.906   7.477 -3.0526  1.0572 -1.1120
 1144TIP3    H225068   3.196   5.881   7.614  1.2599  0.5131  0.8070
 1145TIP3   OH225069   2.988   2.311   0.172  0.1335 -0.0627  0.4471
 1145TIP3    H125070   2.941   2.333   0.091  1.4239  0.7403 -0.1187
 1145TIP3    H225071   3.040   2.234   0.148  2.6632  1.7814 -0.4189
 1146TIP3   OH225072   5.554   0.945   1.766 -0.2983 -0.3755  0.3638
 1146TIP3    H125073   5.573   0.939   1.859  2.5297 -1.1109 -0.1578
 1146TIP3    H225074   5.569   1.037   1.744 -0.6671 -0.2645  0.5818
 1147TIP3   OH225075   1.100   1.930   1.196 -0.0972  0.3811 -0.1202
 1147TIP3    H125076   1.090   2.025   1.204  0.9064  0.6054 -1.2383
 1147TIP3    H225077   1.100   1.898   1.286 -0.8437  1.3910  0.2562
 1148TIP3   OH225078   4.064   1.943   2.360 -0.3035 -0.3344  0.1299
 1148TIP3    H125079   4.134   2.008   2.369 -1.0135  0.8004 -1.8544
 1148TIP3    H225080   4.073   1.888   2.437  0.2557  2.1974  2.0155
 1149TIP3   OH225081   3.178   6.834   0.495  0.5462  0.5376 -0.5860
 1149TIP3    H125082   3.150   6.925   0.489 -0.0557  0.5035  1.1189
 1149TIP3    H225083   3.096   6.784   0.499  0.8722 -0.0668 -1.2464
 1150TIP3   OH225084   6.180   6.135   6.858 -0.0434  0.0510 -0.4473
 1150TIP3    H125085   6.122   6.090   6.797  0.2134 -0.0467 -0.6237
 1150TIP3    H225086   6.125   6.200   6.901 -0.4632 -0.5368 -0.0770
 1151TIP3   OH225087   3.503   2.599   7.579  0.4177 -0.2851 -0.7535
 1151TIP3    H125088   3.532   2.534   7.515  1.6656  2.0204 -2.6845
 1151TIP3    H225089   3.414   2.622   7.551  0.3745 -0.3860 -0.7015
 1152TIP3   OH225090   0.689   6.171   0.986 -0.4943  0.3099 -0.2184
 1152TIP3    H125091   0.707   6.174   1.080  0.5992 -1.8050 -0.2964
 1152TIP3    H225092   0.600   6.137   0.979 -0.8692  1.2019  0.0323
 1153TIP3   OH225093   4.686   2.322   0.209  0.3813 -0.0375  0.3829
 1153TIP3    H125094   4.620   2.382   0.175  0.3511 -0.2771  0.0194
 1153TIP3    H225095   4.717   2.365   0.289 -0.1535  0.1156  0.5144
 1154TIP3   OH225096   6.765   1.214   0.301 -0.2090 -0.1596 -0.2414
 1154TIP3    H125097   6.699   1.283   0.295  0.1688  0.3602  1.1942
 1154TIP3    H225098   6.828   1.247   0.365  0.9679 -1.0385 -0.9230
 1155TIP3   OH225099   1.781   1.888   1.928  0.1460  0.0462 -0.0911
 1155TIP3    H125100   1.779   1.981   1.950  2.1982  0.0199  0.3560
 1155TIP3    H225101   1.868   1.873   1.892 -0.6295 -1.4386 -1.4873
 1156TIP3   OH225102   5.777   4.610   6.663 -0.1285 -0.0137 -0.2366
 1156TIP3    H125103   5.843   4.577   6.724 -0.0346 -1.1368 -0.9147
 1156TIP3    H225104   5.708   4.646   6.719  1.0386  1.1770  0.4808
 1157TIP3   OH225105   4.796   1.651   1.788  0.1421  1.0128  0.7102
 1157TIP3    H125106   4.744   1.718   1.833  1.7266  4.4067 -2.0879
 1157TIP3    H225107   4.731   1.592   1.750 -1.6021  3.0966  0.2230
 1158TIP3   OH225108   4.661   2.025   6.089  0.9731  0.2861 -0.0377
 1158TIP3    H125109   4.631   2.056   6.003  2.0470 -0.8019 -0.8590
 1158TIP3    H225110   4.589   2.043   6.148  0.3244  1.3683 -1.1011
 1159TIP3   OH225111   4.130   3.237   6.851  0.0898 -0.0989 -0.0480
 1159TIP3    H125112   4.138   3.305   6.919  0.9889  0.4619 -0.6835
 1159TIP3    H225113   4.072   3.276   6.785  1.1223  0.3280 -0.7202
 1160TIP3   OH225114   4.586   4.247   1.107 -0.8720 -0.3482 -0.8737
 1160TIP3    H125115   4.575   4.235   1.013 -0.3882  0.6823 -1.0854
 1160TIP3    H225116   4.594   4.342   1.118  1.9229 -0.5822 -0.1440
 1161TIP3   OH225117   0.179   4.532   0.570  0.2226  0.0168 -0.2463
 1161TIP3    H125118   0.164   4.605   0.630 -1.0219 -0.4248  0.0120
 1161TIP3    H225119   0.104   4.535   0.510  0.6620 -0.4682 -0.8346
 1162TIP3   OH225120   3.460   3.126   2.170  0.5196 -0.0595  0.0937
 1162TIP3    H125121   3.541   3.177   2.168  1.4777 -1.5277  0.1747
 1162TIP3    H225122   3.485   3.043   2.211 -1.4441  0.1408  1.8674
 1163TIP3   OH225123   6.067   5.230   1.165  0.0935  0.3868  0.1304
 1163TIP3    H125124   6.011   5.306   1.150  0.1249  0.5955  0.9954
 1163TIP3    H225125   6.019   5.178   1.230  0.7500  0.4194  0.6542
 1164TIP3   OH225126   6.173   4.319   2.015 -0.4689 -0.0665 -0.6925
 1164TIP3    H125127   6.249   4.346   2.067 -0.0519  0.1437 -1.4001
 1164TIP3    H225128   6.179   4.370   1.935 -1.6435  0.3192 -0.5586
 1165TIP3   OH225129   4.421   5.832   8.613  0.2167 -0.3963 -0.1496
 1165TIP3    H125130   4.411   5.888   8.536  0.2843  2.4069  1.7188
 1165TIP3    H225131   4.515   5.814   8.618  0.3961  0.4788 -0.0926
 1166TIP3   OH225132   3.385   1.633   7.434  0.0233 -0.3705  0.3116
 1166TIP3    H125133   3.440   1.585   7.496 -0.7378 -1.6190  0.0559
 1166TIP3    H225134   3.382   1.577   7.356 -1.2395 -0.1343  0.1666
 1167TIP3   OH225135   0.255   4.951   1.940  0.0574  0.3988 -0.1338
 1167TIP3    H125136   0.258   4.856   1.933 -0.7979  0.3717 -0.2091
 1167TIP3    H225137   0.291   4.970   2.026 -1.5600 -0.1295  0.6956
 1168TIP3   OH225138   3.351   3.289   1.291 -0.3621  0.1108 -0.5192
 1168TIP3    H125139   3.322   3.267   1.202  1.9123 -2.7341 -0.7079
 1168TIP3    H225140   3.376   3.205   1.329 -1.0006  1.2652  2.7866
 1169TIP3   OH225141   2.840   4.898   0.284  0.4253 -0.5343  0.4022
 1169TIP3    H125142   2.920   4.950   0.277  0.1353 -0.0679  0.5105
 1169TIP3    H225143   2.831   4.857   0.197 -0.7239  1.6399 -0.5776
 1170TIP3   OH225144   3.905   2.800   1.335  0.2561 -0.3782 -0.0582
 1170TIP3    H125145   3.986   2.787   1.285 -0.6719  0.8234 -1.9562
 1170TIP3    H225146   3.935   2.814   1.425  2.1414 -0.1156 -0.6808
 1171TIP3   OH225147   5.300   6.757   1.840 -0.2518 -0.6165  0.2206
 1171TIP3    H125148   5.349   6.694   1.787  0.0947  0.8721 -1.2955
 1171TIP3    H225149   5.355   6.772   1.917  0.3154 -1.0849 -0.0897
 1172TIP3   OH225150   1.707   3.151   1.632  0.1530  0.3701 -0.0449
 1172TIP3    H125151   1.752   3.158   1.547  0.9086 -0.7223  0.2519
 1172TIP3    H225152   1.706   3.058   1.652  0.4398  0.6445  1.3870
 1173TIP3   OH225153   5.589   4.362   5.908  0.1697 -0.0813 -0.2914
 1173TIP3    H125154   5.501   4.362   5.870  0.1532 -0.2749 -0.2557
 1173TIP3    H225155   5.613   4.269   5.914 -0.0954 -0.1035  0.7637
 1174TIP3   OH225156   2.472   1.101   2.080  0.8309  0.3412  0.3522
 1174TIP3    H125157   2.416   1.089   2.157 -1.4573 -1.0382 -1.4061
 1174TIP3    H225158   2.523   1.021   2.075  0.9083  0.3885  0.3888
 1175TIP3   OH225159   5.405   3.682   2.430 -0.1058 -0.0197 -0.4618
 1175TIP3    H125160   5.388   3.590   2.408 -0.9707  0.0649 -0.1922
 1175TIP3    H225161   5.494   3.682   2.466  0.0566 -0.6838 -0.8499
 1176TIP3   OH225162   4.923   4.590   7.010 -0.7785 -0.4026  0.1470
 1176TIP3    H125163   5.000   4.572   7.064 -0.8777 -0.5971  0.2257
 1176TIP3    H225164   4.953   4.655   6.946 -0.7619  0.1035  0.6647
 1177TIP3   OH225165   1.575   3.373   7.135  0.3322 -0.2763 -0.1072
 1177TIP3    H125166   1.538   3.397   7.220 -1.4700 -0.8069 -0.7018
 1177TIP3    H225167   1.582   3.455   7.087 -2.2419 -0.3367 -0.7633
 1178TIP3   OH225168   1.462   4.239   7.320  0.0559  0.1687 -0.0885
 1178TIP3    H125169   1.450   4.256   7.413 -0.0090  2.0968 -0.4062
 1178TIP3    H225170   1.424   4.152   7.306  0.1628 -0.2063  1.6794
 1179TIP3   OH225171   2.506   1.200   0.761  0.5337  0.0360 -0.8975
 1179TIP3    H125172   2.589   1.176   0.802 -0.2801  0.2558  0.9528
 1179TIP3    H225173   2.492   1.291   0.787 -1.4981 -0.7421  1.0093
 1180TIP3   OH225174   1.025   0.671   6.114 -1.0766 -0.0366  0.2403
 1180TIP3    H125175   1.110   0.630   6.096 -0.0273  2.2172 -0.2410
 1180TIP3    H225176   1.016   0.665   6.209 -0.3505 -0.2318  0.3057
 1181TIP3   OH225177   4.970   0.874   0.782 -0.0519 -0.3363 -0.4949
 1181TIP3    H125178   5.025   0.953   0.781 -1.0330  0.4020  0.7906
 1181TIP3    H225179   4.880   0.907   0.787 -0.4365 -1.5181  1.1475
 1182TIP3   OH225180   4.440   5.839   1.482  0.2329 -0.1716 -0.0785
 1182TIP3    H125181   4.532   5.861   1.470  0.8142 -1.2618  1.8933
 1182TIP3    H225182   4.413   5.890   1.559 -0.1792 -1.4666  0.6594
 1183TIP3   OH225183   4.455   5.119   8.683  0.0285  0.3562  0.4818
 1183TIP3    H125184   4.523   5.051   8.682  0.4895  0.7610  1.9199
 1183TIP3    H225185   4.439   5.136   8.776 -1.4099  0.9145  0.1615
 1184TIP3   OH225186   6.399   2.818   7.798 -0.5263  0.1607  0.0092
 1184TIP3    H125187   6.368   2.887   7.857 -2.6254 -0.4596 -0.2774
 1184TIP3    H225188   6.338   2.745   7.813 -0.2612 -0.5103 -1.9035
 1185TIP3   OH225189   6.587   3.445   8.431 -0.2293  0.3008  0.5567
 1185TIP3    H125190   6.526   3.471   8.362  0.4972 -0.3116 -0.3425
 1185TIP3    H225191   6.648   3.518   8.437 -0.1076  0.2187  0.3284
 1186TIP3   OH225192   6.398   2.196   7.068  0.1240  0.3480  0.4251
 1186TIP3    H125193   6.455   2.121   7.051 -0.2710  0.0198  0.5285
 1186TIP3    H225194   6.456   2.272   7.066  0.2860  0.2293 -1.3067
 1187TIP3   OH225195   5.454   3.652   6.680  0.9514  0.5747 -0.7785
 1187TIP3    H125196   5.372   3.624   6.638  0.1556  3.1507 -1.0963
 1187TIP3    H225197   5.426   3.708   6.753  2.4385  0.3946 -0.0247
 1188TIP3   OH225198   2.463   0.106   2.126  0.6278 -0.3580  0.2814
 1188TIP3    H125199   2.483   0.184   2.178  2.5137 -0.6936  0.1491
 1188TIP3    H225200   2.532   0.103   2.060 -0.1501 -1.4511 -0.5176
 1189TIP3   OH225201   1.138   5.129   0.420  0.1078 -0.0759  0.2506
 1189TIP3    H125202   1.177   5.045   0.395 -2.8065 -0.9024 -2.1201
 1189TIP3    H225203   1.120   5.120   0.513  2.0373 -1.0535  0.5951
 1190TIP3   OH225204   1.364   5.122   7.127 -0.3696 -0.1071  0.1548
 1190TIP3    H125205   1.280   5.167   7.121 -1.5234 -2.2567 -1.0315
 1190TIP3    H225206   1.348   5.050   7.187  1.2389  0.5608  1.4799
 1191TIP3   OH225207   5.211   2.836   7.549  0.1775 -0.0164  0.3667
 1191TIP3    H125208   5.226   2.887   7.469 -0.8009  0.0926  0.2353
 1191TIP3    H225209   5.281   2.771   7.550 -0.0192 -0.2638 -0.7763
 1192TIP3   OH225210   0.603   3.264   0.278  0.0826  0.0338 -0.0398
 1192TIP3    H125211   0.673   3.198   0.270 -1.0083 -1.2389  0.4854
 1192TIP3    H225212   0.613   3.318   0.200  1.4768 -0.2948 -0.1203
 1193TIP3   OH225213   2.275   4.543   7.433  0.2744 -0.2518 -0.1205
 1193TIP3    H125214   2.350   4.483   7.440  1.5436  0.8856 -2.8420
 1193TIP3    H225215   2.298   4.616   7.491  0.9938 -0.2146 -0.4379
 1194TIP3   OH225216   3.705   0.044   1.967 -0.7645  0.4350  0.1533
 1194TIP3    H125217   3.795   0.064   1.991 -0.6443 -0.7365  0.7831
 1194TIP3    H225218   3.664   0.129   1.952  0.9069  0.9428 -1.9681
 1195TIP3   OH225219   4.628   2.142   8.676 -0.7378  0.4534 -0.2054
 1195TIP3    H125220   4.542   2.164   8.710 -0.3063 -0.0495  1.3019
 1195TIP3    H225221   4.622   2.050   8.652 -0.2317 -0.0123  1.3314
 1196TIP3   OH225222   6.316   4.000   1.322  0.0657  0.6312 -0.2259
 1196TIP3    H125223   6.404   3.966   1.338 -1.1858 -2.7580  0.4249
 1196TIP3    H225224   6.295   3.973   1.233 -0.4479  1.0575 -0.2429
 1197TIP3   OH225225   4.084   0.019   6.271  0.5115 -0.0305  0.4563
 1197TIP3    H125226   4.140  -0.037   6.325 -1.5257  0.3477  3.1581
 1197TIP3    H225227   4.084   0.103   6.317  1.1543  1.3554 -1.9208
 1198TIP3   OH225228   4.538   4.568   1.821 -0.3713 -0.3844 -0.6560
 1198TIP3    H125229   4.596   4.638   1.850 -0.7292 -0.4822  0.3569
 1198TIP3    H225230   4.596   4.505   1.778  0.0484  0.2166 -0.9783
 1199TIP3   OH225231   2.224   0.208   1.935 -0.8134 -0.1180  0.1012
 1199TIP3    H125232   2.205   0.291   1.892  0.7088  0.3690  0.3044
 1199TIP3    H225233   2.206   0.223   2.027 -1.6622 -0.3831 -0.0180
 1200TIP3   OH225234   2.520   2.191   7.186  0.4626  0.1792 -0.3457
 1200TIP3    H125235   2.431   2.159   7.201  0.8276  0.2454  2.4038
 1200TIP3    H225236   2.532   2.261   7.250  3.5031 -1.9048  1.6624
 1201TIP3   OH225237   6.070   6.729   7.234 -0.0833 -0.0066 -0.1783
 1201TIP3    H125238   6.094   6.773   7.316  0.3171  0.4744 -0.5516
 1201TIP3    H225239   6.107   6.784   7.165  0.4466 -0.9388 -0.6559
 1202TIP3   OH225240   0.871   2.551   8.715 -0.1059 -0.0383 -0.6308
 1202TIP3    H125241   0.944   2.558   8.776 -2.2680 -0.4083  2.2614
 1202TIP3    H225242   0.867   2.637   8.673  0.4511  0.9139  1.1303
 1203TIP3   OH225243   4.968   1.623   0.870  0.9232 -0.3476 -0.1005
 1203TIP3    H125244   4.900   1.572   0.914  1.2327 -0.2381  0.5222
 1203TIP3    H225245   4.927   1.707   0.851  1.2994  0.2749  1.6219
 1204TIP3   OH225246   0.956   1.185   8.042  0.5250  0.2357 -0.8177
 1204TIP3    H125247   0.915   1.104   8.011  0.1275  0.7176 -1.5948
 1204TIP3    H225248   0.979   1.168   8.133  1.6026 -1.1928 -1.3155
 1205TIP3   OH225249   3.871   1.068   7.403 -0.1460  0.2789 -0.0142
 1205TIP3    H125250   3.916   1.150   7.384 -0.3266  0.4831  0.4244
 1205TIP3    H225251   3.778   1.088   7.393 -0.2268  0.3004  0.7097
 1206TIP3   OH225252   1.968   0.306   1.675 -0.3232  0.3430  0.3344
 1206TIP3    H125253   1.922   0.223   1.688  0.3692  0.1697  1.8654
 1206TIP3    H225254   2.015   0.294   1.592 -3.4704  0.7847 -1.6831
 1207TIP3   OH225255   4.977   0.858   8.536  0.1718 -0.4088  0.1099
 1207TIP3    H125256   4.929   0.915   8.596 -0.2307 -0.2642 -0.3507
 1207TIP3    H225257   4.931   0.865   8.453  0.4380 -0.9875 -0.0953
 1208TIP3   OH225258   1.368   5.605   5.835  0.6940 -0.3770  0.2744
 1208TIP3    H125259   1.390   5.697   5.826 -1.2521 -0.0286 -2.2985
 1208TIP3    H225260   1.283   5.604   5.878 -0.7093 -0.6515 -2.2807
 1209TIP3   OH225261   2.402   6.863   7.112 -0.2421  0.4256  0.4530
 1209TIP3    H125262   2.356   6.800   7.057  0.0171  0.8264 -0.2298
 1209TIP3    H225263   2.449   6.810   7.176  0.5146 -0.1110 -0.5384
 1210TIP3   OH225264   2.842   0.218   1.451  0.7376 -0.3662  0.4286
 1210TIP3    H125265   2.748   0.204   1.446  0.4826  1.3937 -0.3119
 1210TIP3    H225266   2.880   0.132   1.433 -0.7104 -1.1659  1.0431
 1211TIP3   OH225267   6.737   1.595   0.640  0.2304 -0.2240  0.0442
 1211TIP3    H125268   6.742   1.551   0.725  2.0873  1.4035  0.8668
 1211TIP3    H225269   6.787   1.539   0.580 -0.9426 -1.2900  0.0385
 1212TIP3   OH225270   2.951   3.890   6.430 -0.2945  0.1949  0.5386
 1212TIP3    H125271   2.965   3.914   6.521 -1.3937  0.7551  0.5672
 1212TIP3    H225272   2.880   3.946   6.400  0.2670  0.2680 -0.7687
 1213TIP3   OH225273   3.332   1.843   7.256 -0.2200 -0.0267  0.5489
 1213TIP3    H125274   3.285   1.921   7.282  1.7042  1.3903  0.0023
 1213TIP3    H225275   3.358   1.801   7.338 -0.9757  0.0916  0.8483
 1214TIP3   OH225276   6.178   3.019   0.922 -0.0921 -0.3732  0.1128
 1214TIP3    H125277   6.123   3.093   0.945 -1.0114 -0.2986 -2.0679
 1214TIP3    H225278   6.231   3.002   1.000  0.4854  2.8451  0.5323
 1215TIP3   OH225279   1.905   4.614   0.563 -0.2471  0.4258 -0.6833
 1215TIP3    H125280   1.970   4.606   0.493 -0.8743 -1.8454 -1.0958
 1215TIP3    H225281   1.860   4.529   0.564 -0.6056  0.5560  2.1628
 1216TIP3   OH225282   2.760   1.196   7.920  0.3559 -0.1181  0.3255
 1216TIP3    H125283   2.698   1.248   7.972 -0.8062 -0.7802 -0.3433
 1216TIP3    H225284   2.707   1.123   7.887  2.1243 -2.3048  1.9850
 1217TIP3   OH225285   4.435   3.977   2.075  0.2455  0.3634  0.2051
 1217TIP3    H125286   4.399   3.896   2.038  0.1448  0.9278 -0.9824
 1217TIP3    H225287   4.358   4.031   2.092  0.3144  0.2243  0.9670
 1218TIP3   OH225288   0.359   5.887   7.901  0.2930 -0.1102 -0.6405
 1218TIP3    H125289   0.392   5.802   7.873 -0.8165 -0.4486 -0.9611
 1218TIP3    H225290   0.429   5.949   7.878  1.3298 -0.9726  0.0503
 1219TIP3   OH225291   2.951   1.175   7.094 -0.1102  0.1295  0.0942
 1219TIP3    H125292   2.944   1.194   7.188 -1.7511  0.4780 -0.0681
 1219TIP3    H225293   2.983   1.256   7.055  0.2281  0.1002  0.3112
 1220TIP3   OH225294   2.852   5.374   7.614 -0.5046 -0.0013 -0.3366
 1220TIP3    H125295   2.810   5.428   7.547 -1.4587  0.4578  0.5949
 1220TIP3    H225296   2.804   5.292   7.611  1.6429 -1.3066 -2.5001
 1221TIP3   OH225297   0.017   4.272   8.383  0.5598 -0.9522  0.1006
 1221TIP3    H125298   0.041   4.243   8.295  0.1966 -0.5395 -0.1409
 1221TIP3    H225299   0.093   4.320   8.414 -0.5501  2.0691 -1.4353
 1222TIP3   OH225300   0.499   6.473   1.626 -0.1569  0.3849  0.2136
 1222TIP3    H125301   0.512   6.534   1.699 -0.4864 -0.3011  0.8501
 1222TIP3    H225302   0.417   6.429   1.645  1.2147 -1.9932  1.0171
 1223TIP3   OH225303   5.453   3.090   0.839 -0.2221 -0.0528  0.2134
 1223TIP3    H125304   5.406   3.013   0.870  2.6242 -1.7592  0.6939
 1223TIP3    H225305   5.392   3.163   0.852 -2.9030 -2.1204  0.0944
 1224TIP3   OH225306   2.176   3.456   7.673 -0.4326  0.3765 -0.5959
 1224TIP3    H125307   2.243   3.513   7.636  0.3780  1.0081  1.6576
 1224TIP3    H225308   2.143   3.504   7.749 -0.9263 -1.4255  0.3957
 1225TIP3   OH225309   0.174   0.447   7.550 -0.0970  0.1027  0.2251
 1225TIP3    H125310   0.263   0.416   7.567  0.6720  0.7627 -2.1591
 1225TIP3    H225311   0.186   0.530   7.503 -1.9125 -0.3179 -1.1140
 1226TIP3   OH225312   3.839   2.355   7.718  0.0828  0.1441 -0.3311
 1226TIP3    H125313   3.930   2.357   7.688  0.6243 -0.3049  1.1912
 1226TIP3    H225314   3.813   2.264   7.710  0.1012  0.0929  0.1296
 1227TIP3   OH225315   3.992   4.644   6.864  0.3963 -0.2085  0.1415
 1227TIP3    H125316   4.022   4.681   6.781 -2.0256 -0.7977 -1.1113
 1227TIP3    H225317   4.029   4.556   6.865 -0.3745 -0.5705 -0.8712
 1228TIP3   OH225318   2.228   2.091   8.366  0.0378  0.0752  0.2950
 1228TIP3    H125319   2.169   2.136   8.305  0.1701 -1.8711 -1.3914
 1228TIP3    H225320   2.175   2.078   8.445 -0.4067  1.9532  0.3463
 1229TIP3   OH225321   5.191   4.243   7.874 -0.5195  0.6523  0.1805
 1229TIP3    H125322   5.242   4.165   7.849 -3.1331 -1.1488  0.0481
 1229TIP3    H225323   5.233   4.274   7.954  0.7915 -0.7161  0.0871
 1230TIP3   OH225324   4.950   1.781   1.301  0.5056  0.4384 -0.0615
 1230TIP3    H125325   4.858   1.808   1.294  0.2245  0.2909  2.2802
 1230TIP3    H225326   4.957   1.744   1.389  2.5120 -0.8086 -0.6956
 1231TIP3   OH225327   2.805   5.118   1.187 -0.3961 -0.0490 -0.2142
 1231TIP3    H125328   2.721   5.087   1.220 -0.8719  1.9243  0.5808
 1231TIP3    H225329   2.784   5.161   1.104 -0.0707 -0.1878 -0.3677
 1232TIP3   OH225330   1.434   2.010   0.029 -0.1516  0.5913  0.0123
 1232TIP3    H125331   1.503   2.077   0.022  1.6465 -1.2735 -1.3269
 1232TIP3    H225332   1.387   2.015  -0.054  1.5453 -1.2881 -1.1611
 1233TIP3   OH225333   6.273   6.806   1.122  0.1484 -0.3924  0.4696
 1233TIP3    H125334   6.197   6.857   1.091  0.2077 -1.1941 -1.0765
 1233TIP3    H225335   6.260   6.719   1.085  2.4090 -0.2455 -0.8310
 1234TIP3   OH225336   5.148   3.032   0.725 -0.1012 -0.5572 -0.1325
 1234TIP3    H125337   5.138   3.115   0.680  0.4955 -1.1296 -1.3608
 1234TIP3    H225338   5.080   2.976   0.688 -1.9079 -0.0562  2.1827
 1235TIP3   OH225339   4.302   2.012   7.938  0.0941  0.0537 -0.3146
 1235TIP3    H125340   4.290   1.985   7.847 -0.0760 -0.9275 -0.0196
 1235TIP3    H225341   4.223   1.981   7.983 -0.4731  1.7592 -0.0735
 1236TIP3   OH225342   0.298   5.208   6.855 -0.6735  0.0040 -0.3877
 1236TIP3    H125343   0.331   5.226   6.943 -2.8656 -0.6682  0.6365
 1236TIP3    H225344   0.345   5.270   6.799  1.3792 -0.1099  1.0943
 1237TIP3   OH225345   3.964   3.601   6.320 -0.1280 -0.6922 -0.2362
 1237TIP3    H125346   3.908   3.536   6.278 -1.3246  1.2963 -1.9351
 1237TIP3    H225347   3.904   3.673   6.342  1.3261  0.3722  0.3756
 1238TIP3   OH225348   1.317   2.114   6.481  0.1513 -0.1822 -0.3688
 1238TIP3    H125349   1.250   2.080   6.541  0.7255  2.6313  2.0253
 1238TIP3    H225350   1.268   2.133   6.401 -1.7683  0.8442  0.9675
 1239TIP3   OH225351   4.815   4.106   6.649 -0.3381  0.5342 -0.0312
 1239TIP3    H125352   4.731   4.060   6.656  0.3917 -0.8487  0.1524
 1239TIP3    H225353   4.880   4.035   6.643  0.6662  1.5637 -2.1911
 1240TIP3   OH225354   2.575   3.187   8.337 -0.0756  0.0288 -0.4530
 1240TIP3    H125355   2.620   3.222   8.414  0.3493  0.6143 -0.9482
 1240TIP3    H225356   2.601   3.095   8.334  2.1240  0.6166 -1.3967
 1241TIP3   OH225357   2.029   3.938   2.373 -0.3063 -0.7380 -0.0001
 1241TIP3    H125358   1.948   3.946   2.324  0.0482 -1.1864 -0.6794
 1241TIP3    H225359   2.002   3.919   2.463 -0.9437 -1.4783 -0.3430
 1242TIP3   OH225360   1.751   4.016   0.792 -0.0025 -0.0069 -0.3452
 1242TIP3    H125361   1.658   4.034   0.779  0.0900  0.0434 -0.9761
 1242TIP3    H225362   1.775   4.065   0.871 -1.0130 -1.7353  1.1262
 1243TIP3   OH225363   2.834   1.078   8.354  0.0084  0.3810  0.8551
 1243TIP3    H125364   2.758   1.032   8.389 -0.7974  0.0625 -1.1266
 1243TIP3    H225365   2.806   1.170   8.350  0.7180  0.6932  2.5443
 1244TIP3   OH225366   1.778   2.942   8.238  0.0531  0.0955  0.0468
 1244TIP3    H125367   1.741   2.965   8.153  0.5087  0.8404  0.0419
 1244TIP3    H225368   1.706   2.956   8.300 -0.0217  0.3959 -0.1055
 1245TIP3   OH225369   6.565   4.456   1.149 -0.5455 -0.5688 -0.3924
 1245TIP3    H125370   6.649   4.415   1.170 -0.2251 -0.1644 -0.8586
 1245TIP3    H225371   6.565   4.538   1.199 -0.2027 -0.0721 -1.1748
 1246TIP3   OH225372   3.577   6.594   7.619 -0.5024  0.7002 -0.1645
 1246TIP3    H125373   3.648   6.659   7.615  0.5059 -0.4089 -0.9760
 1246TIP3    H225374   3.620   6.511   7.600 -1.1826 -0.6968  3.5680
 1247TIP3   OH225375   6.243   3.053   7.448  0.2520  0.2052  0.7120
 1247TIP3    H125376   6.271   2.964   7.471 -1.8981 -0.1691  2.1747
 1247TIP3    H225377   6.171   3.072   7.508 -1.5798  1.6364 -1.7295
 1248TIP3   OH225378   5.384   6.646   0.293 -0.0871  0.0450  0.0222
 1248TIP3    H125379   5.469   6.683   0.268  0.0267 -0.0869  0.2087
 1248TIP3    H225380   5.321   6.714   0.272  0.2120  0.6938  1.1890
 1249TIP3   OH225381   2.649   4.021   8.187 -0.0720  0.0476 -0.1854
 1249TIP3    H125382   2.599   4.054   8.113  0.3338  0.6447 -0.2048
 1249TIP3    H225383   2.588   4.023   8.261  0.5486  3.2184  0.3867
 1250TIP3   OH225384   4.669   3.694   5.923  0.1854  0.2462  0.3940
 1250TIP3    H125385   4.659   3.661   5.834 -1.0875  0.4778  0.4324
 1250TIP3    H225386   4.724   3.629   5.967  1.5344  0.5672 -0.7690
 1251TIP3   OH225387   2.398   6.117   7.608  0.4575 -0.5438 -0.6844
 1251TIP3    H125388   2.356   6.078   7.532  1.1923 -2.0063 -0.3629
 1251TIP3    H225389   2.419   6.206   7.580  0.4022 -0.9397 -2.0647
 1252TIP3   OH225390   2.965   4.891   1.202 -0.0584  0.3911  0.2066
 1252TIP3    H125391   3.025   4.906   1.275 -1.1354  0.6095  1.0854
 1252TIP3    H225392   2.921   4.976   1.190  2.3549  1.3930 -2.8861
 1253TIP3   OH225393   2.106   5.858   7.094  0.1759  0.1271 -0.4442
 1253TIP3    H125394   2.087   5.876   7.002  1.2965  1.7116 -0.4023
 1253TIP3    H225395   2.123   5.944   7.132  2.4474 -0.6947  0.6073
 1254TIP3   OH225396   0.889   5.288   7.693  0.3854 -0.3050  0.2110
 1254TIP3    H125397   0.906   5.260   7.783 -1.2172  0.6245  0.8516
 1254TIP3    H225398   0.896   5.383   7.695 -1.7739 -0.0863 -0.1077
 1255TIP3   OH225399   6.111   4.453   8.702 -0.6102  0.4544  0.6274
 1255TIP3    H125400   6.120   4.540   8.663 -1.0660  0.5878  0.8154
 1255TIP3    H225401   6.202   4.423   8.715 -0.4214 -0.2695 -1.9674
 1256TIP3   OH225402   6.123   5.357   7.319  0.1538 -0.1499 -0.1610
 1256TIP3    H125403   6.155   5.277   7.361  0.8473  0.3766  0.3324
 1256TIP3    H225404   6.081   5.326   7.239 -2.4514 -1.3195  1.5402
 1257TIP3   OH225405   1.021   2.821   1.006 -0.1643 -0.4176  0.4787
 1257TIP3    H125406   1.072   2.839   0.927  1.1975 -0.9047  1.2079
 1257TIP3    H225407   1.050   2.888   1.069 -2.5628  1.1290  0.0583
 1258TIP3   OH225408   3.993   1.282   7.297 -0.2107 -0.0347  0.0075
 1258TIP3    H125409   4.012   1.350   7.362 -1.3368 -0.6789  1.0484
 1258TIP3    H225410   4.077   1.237   7.285  0.4201  1.1800 -0.3008
 1259TIP3   OH225411   3.359   4.291   7.337 -0.0811 -0.2658 -0.0001
 1259TIP3    H125412   3.395   4.365   7.387  1.9531 -0.1595 -1.5103
 1259TIP3    H225413   3.324   4.332   7.258 -0.2643 -0.7787 -0.1818
 1260TIP3   OH225414   2.286   2.344   7.731 -0.2842  0.5487  0.3199
 1260TIP3    H125415   2.280   2.287   7.807  1.6638 -1.5808 -1.0039
 1260TIP3    H225416   2.367   2.394   7.745 -0.3994  0.8132  0.0611
 1261TIP3   OH225417   0.357   5.861   8.702 -0.1169  0.1762  0.1561
 1261TIP3    H125418   0.362   5.889   8.793  1.8065  3.7703 -0.8364
 1261TIP3    H225419   0.427   5.797   8.693  0.9457  1.1901  0.8581
 1262TIP3   OH225420   4.063   4.501   0.161 -0.0011 -0.8762  0.4274
 1262TIP3    H125421   4.020   4.487   0.076  0.3967  1.9169 -0.3406
 1262TIP3    H225422   4.000   4.467   0.225 -1.9742  0.1422 -0.8390
 1263TIP3   OH225423   0.583   6.709   0.026 -0.1662  0.4374  0.4595
 1263TIP3    H125424   0.570   6.796   0.064 -1.6134  0.5424 -0.1914
 1263TIP3    H225425   0.529   6.709  -0.053  0.8319 -0.6194 -0.2656
 1264TIP3   OH225426   4.605   5.498   0.154 -0.3139 -0.8611  0.1494
 1264TIP3    H125427   4.631   5.407   0.142  0.4860 -0.7763  1.1125
 1264TIP3    H225428   4.570   5.524   0.069 -1.3333 -2.3074  0.0931
 1265TIP3   OH225429   3.807   5.434   1.329  0.5624  0.5246  1.0429
 1265TIP3    H125430   3.879   5.411   1.270 -1.7566 -0.5309 -1.6349
 1265TIP3    H225431   3.807   5.529   1.332  1.4370  0.5598  0.2100
 1266TIP3   OH225432   1.945   1.067   7.867 -0.2222 -0.3888  0.0156
 1266TIP3    H125433   1.928   1.138   7.805 -2.2882 -0.8076  0.0419
 1266TIP3    H225434   2.001   1.006   7.819 -0.9557 -0.2144 -1.0941
 1267TIP3   OH225435   1.180   3.040   7.134  0.3070 -0.0632  0.5200
 1267TIP3    H125436   1.156   2.990   7.056  0.0511 -0.7976  1.0573
 1267TIP3    H225437   1.263   3.082   7.111 -0.4856  0.9271 -0.6628
 1268TIP3   OH225438   2.336   0.093   0.107  0.2604  0.8147  0.3207
 1268TIP3    H125439   2.417   0.137   0.082  1.3745 -0.8032  0.8774
 1268TIP3    H225440   2.352   0.062   0.196 -0.1794 -1.2112 -0.2410
 1269TIP3   OH225441   5.128   4.500   7.187 -0.0515 -0.3079  0.3589
 1269TIP3    H125442   5.162   4.520   7.275 -2.0134  2.0663  0.6746
 1269TIP3    H225443   5.206   4.499   7.131  0.8973  1.8981  1.5309
 1270TIP3   OH225444   0.119   4.908   8.050 -0.8916  0.0631 -0.0086
 1270TIP3    H125445   0.110   4.815   8.030  1.4480 -0.3143  0.3056
 1270TIP3    H225446   0.112   4.913   8.145  1.4792 -0.2504  0.2512
 1271TIP3   OH225447   6.334   0.688   1.701 -0.1332  0.4061 -0.3106
 1271TIP3    H125448   6.302   0.714   1.788  1.2024  1.5403 -0.1268
 1271TIP3    H225449   6.423   0.658   1.716 -0.4068 -0.8758 -1.0906
 1272TIP3   OH225450   0.431   4.658   7.218 -0.2940  0.3895  0.1395
 1272TIP3    H125451   0.447   4.695   7.131 -0.9373 -0.2420 -0.2618
 1272TIP3    H225452   0.339   4.677   7.236  0.4404  2.8037  1.8395
 1273TIP3   OH225453   3.363   6.056   8.060 -0.4325 -0.6769  0.1146
 1273TIP3    H125454   3.425   6.003   8.010  0.1704  0.5934 -0.5432
 1273TIP3    H225455   3.401   6.063   8.147  0.9550  0.9624 -0.5619
 1274TIP3   OH225456   5.400   6.619   0.859 -0.4715 -0.3282 -0.2428
 1274TIP3    H125457   5.314   6.643   0.825 -0.2152 -0.1924 -0.7993
 1274TIP3    H225458   5.454   6.696   0.841 -0.0395 -0.7173 -0.6020
 1275TIP3   OH225459   5.397   3.046   8.396  1.2019 -0.5626  0.2561
 1275TIP3    H125460   5.468   3.107   8.417 -0.9392  2.1135  0.2567
 1275TIP3    H225461   5.404   3.032   8.302  1.9118 -0.5606  0.3051
 1276TIP3   OH225462   2.396   0.725   7.936 -0.4228 -0.0554  0.2076
 1276TIP3    H125463   2.387   0.787   7.863  0.1818  1.9426  1.7495
 1276TIP3    H225464   2.488   0.728   7.960 -0.0335 -2.7281 -0.5649
 1277TIP3   OH225465   0.843   3.742   8.743 -0.1791 -0.0007  0.0007
 1277TIP3    H125466   0.918   3.801   8.733 -0.8199  0.8236 -0.1176
 1277TIP3    H225467   0.867   3.683   8.814  0.6143  0.1951 -0.0999
 1278TIP3   OH225468   2.649   5.239   0.979  0.2800 -0.4413 -0.2351
 1278TIP3    H125469   2.579   5.174   0.973  0.8523 -1.2931  1.5050
 1278TIP3    H225470   2.618   5.301   1.045  1.3302 -1.1114  0.9291
 1279TIP3   OH225471   5.205   2.083   7.729  0.2021  0.2197  0.6491
 1279TIP3    H125472   5.183   2.006   7.677  1.8886 -1.1689  1.8735
 1279TIP3    H225473   5.184   2.157   7.672  1.9007 -1.2005 -2.0099
 1280TIP3   OH225474   0.140   6.691   0.178  0.3377  0.4250  0.0542
 1280TIP3    H125475   0.154   6.671   0.271 -0.8438 -1.7828 -0.1717
 1280TIP3    H225476   0.186   6.621   0.131 -0.5602  0.4795 -0.9549
 1281TIP3   OH225477   2.181   3.576   6.947  0.5712 -0.2141 -0.0836
 1281TIP3    H125478   2.127   3.654   6.962 -0.5780 -1.3563  2.3790
 1281TIP3    H225479   2.247   3.579   7.017  1.7761 -0.4622 -1.1764
 1282TIP3   OH225480   3.312   5.735   0.215 -0.0172  0.1250  0.3140
 1282TIP3    H125481   3.262   5.725   0.296 -0.5433  1.1115  0.1286
 1282TIP3    H225482   3.397   5.769   0.244 -0.3030  0.7459  0.4368
 1283TIP3   OH225483   2.271   2.488   0.666  0.4041  0.0912 -0.1817
 1283TIP3    H125484   2.318   2.449   0.740 -3.0136 -2.2395  1.0139
 1283TIP3    H225485   2.227   2.414   0.625 -3.1706  2.1267 -0.3924
 1284TIP3   OH225486   0.756   3.567   7.050 -0.3123  0.1399 -0.4561
 1284TIP3    H125487   0.785   3.573   6.959  0.4047  2.4928 -0.1353
 1284TIP3    H225488   0.675   3.617   7.053 -1.8894 -2.2890 -0.3212
 1285TIP3   OH225489   1.855   4.615   0.267 -0.1708 -0.1620  0.3987
 1285TIP3    H125490   1.848   4.601   0.173  1.1395 -0.4441  0.3304
 1285TIP3    H225491   1.780   4.568   0.304 -0.4072 -0.4642 -0.4514
 1286TIP3   OH225492   5.230   6.356   2.254  0.0334  0.5955 -0.1787
 1286TIP3    H125493   5.259   6.275   2.211 -0.0120  0.0515  0.7819
 1286TIP3    H225494   5.274   6.426   2.206  1.5474 -0.1117  0.1238
 1287TIP3   OH225495   6.150   4.328   7.254 -0.0318 -0.2107 -0.0045
 1287TIP3    H125496   6.209   4.252   7.260 -0.5761 -0.7230 -0.9471
 1287TIP3    H225497   6.088   4.315   7.325 -0.8344 -1.2936 -0.8685
 1288TIP3   OH225498   4.221   5.586   8.159  0.0032  0.4170 -0.3082
 1288TIP3    H125499   4.204   5.512   8.101  0.6554 -0.1109  0.1579
 1288TIP3    H225500   4.282   5.642   8.111  0.6412 -0.0821 -0.0987
 1289TIP3   OH225501   5.758   1.075   0.660  0.9623  0.3890 -0.1334
 1289TIP3    H125502   5.727   1.028   0.738  1.6964 -0.1397 -0.1510
 1289TIP3    H225503   5.809   1.148   0.695  0.5649  0.6565 -0.1121
 1290TIP3   OH225504   4.717   5.331   1.301  0.7373  0.2824  0.3289
 1290TIP3    H125505   4.724   5.425   1.319 -1.5886  0.0467  3.2513
 1290TIP3    H225506   4.633   5.321   1.258  2.4441 -0.2348 -3.2334
 1291TIP3   OH225507   0.659   5.512   1.934 -0.2446 -0.3077 -0.5246
 1291TIP3    H125508   0.703   5.434   1.967 -1.1787 -2.0465 -3.0363
 1291TIP3    H225509   0.722   5.552   1.874 -0.4114 -0.1634 -0.6062
 1292TIP3   OH225510   5.877   4.340   0.700  0.3575 -0.0821 -0.2464
 1292TIP3    H125511   5.942   4.339   0.629  0.1773  0.3467 -0.4197
 1292TIP3    H225512   5.910   4.276   0.763  0.7850 -0.0999 -0.4820
 1293TIP3   OH225513   3.170   5.672   0.899  0.3196  0.5541 -0.3325
 1293TIP3    H125514   3.166   5.724   0.819 -2.0256  0.1033 -0.5498
 1293TIP3    H225515   3.195   5.584   0.870  0.5770  0.6486 -0.4069
 1294TIP3   OH225516   0.931   5.257   1.104 -0.5164  0.2361  0.3884
 1294TIP3    H125517   0.961   5.182   1.051 -0.7838  1.2100 -1.2027
 1294TIP3    H225518   0.991   5.259   1.178  0.3442 -0.7511 -0.2512
 1295TIP3   OH225519   6.029   5.114   1.986  0.1806  0.1220 -0.3332
 1295TIP3    H125520   6.112   5.115   2.034 -0.0189 -0.3324  0.0235
 1295TIP3    H225521   6.053   5.088   1.897  0.5278  0.7994 -0.4452
 1296TIP3   OH225522   1.784   5.919   7.526 -0.3810  0.3283 -0.2791
 1296TIP3    H125523   1.765   5.913   7.432  2.0547  0.6931 -0.8658
 1296TIP3    H225524   1.736   5.997   7.555  0.0159  1.0828 -1.5668
 1297TIP3   OH225525   1.098   3.714   7.285 -0.0876 -0.1921  1.0732
 1297TIP3    H125526   1.172   3.717   7.346  0.8809 -2.0465  0.0911
 1297TIP3    H225527   1.139   3.704   7.199 -1.4748 -1.1964  0.5010
 1298TIP3   OH225528   0.113   1.876   7.255 -0.4303  0.5291  0.3764
 1298TIP3    H125529   0.193   1.917   7.289  0.2594  0.5462 -1.1947
 1298TIP3    H225530   0.049   1.886   7.326  1.1500 -0.1792  2.0038
 1299TIP3   OH225531   3.749   1.518   6.870 -0.2576 -0.1779 -0.6797
 1299TIP3    H125532   3.757   1.425   6.892  0.9060 -0.0959 -0.7245
 1299TIP3    H225533   3.686   1.520   6.798 -1.5966 -0.7545  0.4197
 1300TIP3   OH225534   4.587   2.426   1.211  0.7002  0.0160  0.1201
 1300TIP3    H125535   4.679   2.410   1.235  0.4835 -2.3212 -0.4478
 1300TIP3    H225536   4.579   2.393   1.122 -0.5462  0.8667 -0.1072
 1301TIP3   OH225537   0.872   2.969   6.666 -0.0083  0.0613  0.0730
 1301TIP3    H125538   0.834   3.046   6.708  1.5392  0.6404  0.4829
 1301TIP3    H225539   0.861   2.985   6.573  2.4779  2.0505  0.0064
 1302TIP3   OH225540   5.329   3.356   0.055 -0.0871 -0.1545 -0.5667
 1302TIP3    H125541   5.347   3.346   0.148 -0.1860  2.0846 -0.2516
 1302TIP3    H225542   5.382   3.289   0.012  0.4640 -0.7837  1.0423
 1303TIP3   OH225543   5.138   1.849   8.032 -0.3391  0.2135  0.9326
 1303TIP3    H125544   5.207   1.792   8.066  0.2376  0.5685  0.3783
 1303TIP3    H225545   5.175   1.937   8.035 -0.7806  0.4133  0.6580
 1304TIP3   OH225546   3.792   3.787   1.627 -0.0152  0.3018  0.8157
 1304TIP3    H125547   3.721   3.760   1.685 -0.3696 -1.1211 -0.2300
 1304TIP3    H225548   3.871   3.754   1.670 -0.2361 -0.3757  0.7151
 1305TIP3   OH225549   4.935   4.866   6.737 -0.2418  0.0757  0.4566
 1305TIP3    H125550   4.845   4.840   6.755 -0.1726 -1.1556 -0.7468
 1305TIP3    H225551   4.927   4.934   6.669 -0.2523 -1.3671 -1.0544
 1306TIP3   OH225552   2.613   1.010   8.148 -0.3660  0.6247  0.7202
 1306TIP3    H125553   2.579   1.085   8.195  0.1582  0.7571  0.8983
 1306TIP3    H225554   2.547   0.990   8.082 -0.7639  0.8903  1.0401
 1307TIP3   OH225555   5.089   4.938   7.212 -0.1744  0.6125 -0.3686
 1307TIP3    H125556   5.054   4.853   7.239 -0.3545 -0.2173 -2.9183
 1307TIP3    H225557   5.062   4.999   7.281 -0.4772 -1.2887  1.2749
 1308TIP3   OH225558   2.267   4.559   6.768  0.3991 -0.0471 -0.3381
 1308TIP3    H125559   2.178   4.549   6.802  0.6932 -1.8113 -0.0299
 1308TIP3    H225560   2.271   4.499   6.693  0.7369  1.4930 -1.6133
 1309TIP3   OH225561   6.121   2.211   0.250  0.2449 -0.0599 -0.0304
 1309TIP3    H125562   6.054   2.209   0.318  2.4097  2.5319  2.4321
 1309TIP3    H225563   6.202   2.232   0.296  2.1601  0.3582 -3.2520
 1310TIP3   OH225564   0.040   0.701   6.760  0.2690  0.9575  0.2777
 1310TIP3    H125565   0.101   0.629   6.780 -0.1679 -0.4376 -2.8932
 1310TIP3    H225566   0.096   0.770   6.724  0.1733 -0.0479 -1.9541
 1311TIP3   OH225567   1.660   6.398   7.435  0.0996 -0.3417  0.2208
 1311TIP3    H125568   1.564   6.405   7.436  0.2138  2.1072  1.6484
 1311TIP3    H225569   1.687   6.456   7.364  0.5554 -0.7772  0.0324
 1312TIP3   OH225570   4.428   6.356   7.593 -0.3883  0.4386  0.0518
 1312TIP3    H125571   4.459   6.441   7.624 -1.9484  1.0478  0.0337
 1312TIP3    H225572   4.336   6.353   7.617 -0.8126 -0.4992 -1.5169
 1313TIP3   OH225573   0.219   1.240   0.168 -0.1541  0.0029  0.2513
 1313TIP3    H125574   0.197   1.260   0.077  0.0320 -2.3891 -0.4057
 1313TIP3    H225575   0.295   1.182   0.162 -0.4751 -0.6622  1.8862
 1314TIP3   OH225576   4.770   2.405   1.673 -0.2018 -0.5788  0.3633
 1314TIP3    H125577   4.846   2.348   1.684  1.8442  2.2096  1.9029
 1314TIP3    H225578   4.727   2.404   1.758 -0.1361  0.1272  0.4132
 1315TIP3   OH225579   2.632   1.314   2.130  0.1225 -0.3204  0.3189
 1315TIP3    H125580   2.605   1.227   2.100 -0.4855 -0.9171  2.4162
 1315TIP3    H225581   2.657   1.301   2.221  2.5739  1.2370 -0.0374
 1316TIP3   OH225582   2.297   0.729   1.164 -0.1265 -0.0718 -0.0807
 1316TIP3    H125583   2.391   0.738   1.146  0.3031  0.5466  2.1189
 1316TIP3    H225584   2.254   0.779   1.095  1.2119  0.2816 -0.6826
 1317TIP3   OH225585   5.887   5.799   8.559  0.0939 -0.0221 -0.8828
 1317TIP3    H125586   5.958   5.780   8.497 -0.2724 -0.6386 -1.1213
 1317TIP3    H225587   5.817   5.738   8.535 -0.0015 -0.3815  0.2436
 1318TIP3   OH225588   1.565   6.646   8.202 -0.2036  0.5343  0.1510
 1318TIP3    H125589   1.568   6.648   8.298  0.3560  0.7513  0.1307
 1318TIP3    H225590   1.520   6.727   8.178 -0.9005  0.1816  0.2478
 1319TIP3   OH225591   6.256   0.426   1.697 -0.4543  0.2960 -0.3376
 1319TIP3    H125592   6.287   0.513   1.672 -1.7796  0.2063 -2.5103
 1319TIP3    H225593   6.323   0.367   1.663  0.0189  0.3963  0.3930
 1320TIP3   OH225594   0.259   5.111   8.268 -0.7234  0.1190 -0.1291
 1320TIP3    H125595   0.216   5.184   8.223 -2.3388 -1.4613 -1.2991
 1320TIP3    H225596   0.189   5.048   8.284  0.2998 -0.5342  2.3427
 1321TIP3   OH225597   4.802   0.080   0.059  0.0589 -0.2804  0.6321
 1321TIP3    H125598   4.807  -0.009   0.096 -1.3034  0.3375  2.4885
 1321TIP3    H225599   4.711   0.089   0.031  0.5913 -0.0066 -1.0946
 1322TIP3   OH225600   1.134   5.667   0.318 -0.0570  0.0122  0.8215
 1322TIP3    H125601   1.144   5.582   0.361 -1.1371 -0.5352  0.0214
 1322TIP3    H225602   1.075   5.716   0.374 -1.5374 -0.7345 -0.0235
 1323TIP3   OH225603   2.135   5.683   0.921 -0.0051 -0.3159  0.0101
 1323TIP3    H125604   2.184   5.611   0.959  0.6559 -0.1521 -0.5173
 1323TIP3    H225605   2.048   5.647   0.906 -0.4984 -0.2109  2.2151
 1324TIP3   OH225606   5.370   6.629   7.266 -0.0882 -0.1123 -0.5819
 1324TIP3    H125607   5.462   6.653   7.255  0.1430 -0.9285 -0.5026
 1324TIP3    H225608   5.324   6.682   7.201  0.5369 -0.2980 -1.1990
 1325TIP3   OH225609   0.301   0.280   6.585  0.0017 -0.1583  0.4231
 1325TIP3    H125610   0.298   0.192   6.622  0.4807 -0.3184  0.1039
 1325TIP3    H225611   0.394   0.303   6.586  0.5505 -1.4358 -3.4896
 1326TIP3   OH225612   2.231   2.737   1.343  0.8570 -0.0974  0.7210
 1326TIP3    H125613   2.219   2.660   1.288  2.8235 -0.7495  1.1436
 1326TIP3    H225614   2.146   2.749   1.387  0.2846 -1.5159  0.0486
 1327TIP3   OH225615   2.316   1.699   1.218  0.5541  0.1662 -0.0448
 1327TIP3    H125616   2.318   1.763   1.289 -0.5499  0.1167  0.0529
 1327TIP3    H225617   2.224   1.695   1.192  1.1304  1.3337 -2.5569
 1328TIP3   OH225618   1.797   4.775   6.118  0.6625 -0.1592  0.1183
 1328TIP3    H125619   1.860   4.843   6.145  0.4796  0.2449 -0.4609
 1328TIP3    H225620   1.810   4.766   6.024 -0.6665  0.4904 -0.1603
 1329TIP3   OH225621   4.020   1.601   1.554 -0.3157 -0.5801 -0.1121
 1329TIP3    H125622   3.990   1.669   1.614 -1.2512 -1.8584  0.9337
 1329TIP3    H225623   4.081   1.548   1.606 -0.0651 -0.8951 -0.7122
 1330TIP3   OH225624   0.553   2.388   8.720 -0.4088  0.1100  0.1796
 1330TIP3    H125625   0.634   2.346   8.748 -0.1336  0.5284  0.0114
 1330TIP3    H225626   0.542   2.461   8.780  0.2506  1.0948 -0.8505
 1331TIP3   OH225627   1.994   6.084   8.204 -0.0184 -0.4230 -0.1651
 1331TIP3    H125628   1.913   6.044   8.236  1.0086 -2.8481 -0.3665
 1331TIP3    H225629   2.038   6.115   8.283 -0.4108 -0.5382  0.1013
 1332TIP3   OH225630   5.418   4.547   6.353 -0.4296 -0.0630 -0.0736
 1332TIP3    H125631   5.403   4.639   6.375 -1.7075 -0.3540  0.3588
 1332TIP3    H225632   5.473   4.513   6.424 -0.6503  0.1582  0.2034
 1333TIP3   OH225633   0.211   0.864   8.468  0.5860  0.4658 -0.3088
 1333TIP3    H125634   0.297   0.898   8.494  1.2125 -1.7623  0.7444
 1333TIP3    H225635   0.177   0.821   8.546 -1.6450  1.4927 -0.6393
 1334TIP3   OH225636   1.295   5.496   0.067 -0.2793 -0.2380  0.2300
 1334TIP3    H125637   1.230   5.476  -0.001 -0.0311 -1.9748  0.4583
 1334TIP3    H225638   1.344   5.571   0.032 -0.3135 -0.9341 -1.4236
 1335TIP3   OH225639   0.180   2.327   1.365 -0.2542 -0.4748  0.1270
 1335TIP3    H125640   0.196   2.346   1.458 -1.5251 -2.2553  0.7544
 1335TIP3    H225641   0.241   2.384   1.319 -0.8633  1.8330  1.9713
 1336TIP3   OH225642   6.281   2.300   1.785 -0.2234 -0.1487 -0.7591
 1336TIP3    H125643   6.249   2.278   1.873 -0.0500  0.0650 -0.6425
 1336TIP3    H225644   6.294   2.215   1.743 -1.6768 -0.2452 -1.0854
 1337TIP3   OH225645   4.758   2.164   7.937 -1.0288  0.3787 -0.1965
 1337TIP3    H125646   4.783   2.086   7.987  1.6001  0.4379 -1.2334
 1337TIP3    H225647   4.777   2.237   7.995 -1.4304  0.3277  0.0014
 1338TIP3   OH225648   5.132   2.405   1.951 -0.3988 -0.6901 -0.0378
 1338TIP3    H125649   5.204   2.466   1.967 -0.9683 -0.0159  0.0622
 1338TIP3    H225650   5.142   2.337   2.017 -0.6431  0.1441  0.8997
 1339TIP3   OH225651   0.688   4.282   8.698 -0.3256 -0.0976  0.6221
 1339TIP3    H125652   0.652   4.311   8.782  0.5531  0.3442  0.8528
 1339TIP3    H225653   0.665   4.189   8.693  1.9858 -0.8950  2.6879
 1340TIP3   OH225654   6.545   2.380   1.732  0.4851 -0.1399  0.2905
 1340TIP3    H125655   6.483   2.356   1.800  1.3889  0.5362  1.3844
 1340TIP3    H225656   6.507   2.344   1.651 -1.5210  0.6382  0.8377
 1341TIP3   OH225657   0.850   6.582   8.198  0.1553 -0.7910 -0.2744
 1341TIP3    H125658   0.831   6.491   8.219  0.8439 -1.1543 -1.1445
 1341TIP3    H225659   0.868   6.581   8.104 -0.3844  0.3396 -0.4077
 1342TIP3   OH225660   4.598   4.739   7.914  0.0729 -0.2438 -0.5279
 1342TIP3    H125661   4.548   4.759   7.993  0.5238 -0.3985 -0.1990
 1342TIP3    H225662   4.685   4.716   7.946  0.2383 -0.3802 -1.0668
 1343TIP3   OH225663   1.169   6.716   7.863  0.5293 -0.1258  0.3110
 1343TIP3    H125664   1.195   6.808   7.859  0.4070 -0.1206 -0.6945
 1343TIP3    H225665   1.171   6.694   7.956  0.6880  0.8564  0.5487
 1344TIP3   OH225666   3.853   1.950   1.901  0.6618  0.2816 -0.2381
 1344TIP3    H125667   3.844   2.036   1.942  3.2041 -0.3218  1.9429
 1344TIP3    H225668   3.765   1.912   1.903  0.0539  1.6616  1.6213
 1345TIP3   OH225669   0.373   4.463   6.879 -0.1126 -0.1770 -0.2173
 1345TIP3    H125670   0.346   4.492   6.792  1.1227  0.7818 -0.3047
 1345TIP3    H225671   0.463   4.493   6.887  0.2952 -1.5720  0.8153
 1346TIP3   OH225672   3.836   0.589   6.493 -0.1714  0.1479  0.5415
 1346TIP3    H125673   3.894   0.571   6.568  1.9225  1.3678 -0.6845
 1346TIP3    H225674   3.815   0.502   6.458  1.1000 -0.3351  0.9148
 1347TIP3   OH225675   1.897   6.297   8.707 -0.0882  0.1086 -0.0530
 1347TIP3    H125676   1.930   6.219   8.751  2.2904  0.8658 -0.3528
 1347TIP3    H225677   1.940   6.297   8.622 -0.8292  1.2385 -0.4567
 1348TIP3   OH225678   1.547   5.170   8.234 -0.5619 -0.0648 -0.0574
 1348TIP3    H125679   1.546   5.156   8.140 -0.4862 -0.3676 -0.0127
 1348TIP3    H225680   1.622   5.229   8.248 -1.0232  0.5810 -0.2665
 1349TIP3   OH225681   0.177   1.275   8.090 -0.1185 -0.1213 -0.6862
 1349TIP3    H125682   0.189   1.255   7.997  1.1054  0.4958 -0.6798
 1349TIP3    H225683   0.228   1.208   8.135  1.1616  0.9131 -0.5516
 1350TIP3   OH225684   2.308   1.506   7.822 -0.0408 -0.3935  0.6941
 1350TIP3    H125685   2.245   1.513   7.750  0.1526  2.7579  0.6762
 1350TIP3    H225686   2.254   1.492   7.900 -0.5040 -0.6624  0.3288
 1351TIP3   OH225687   1.369   3.464   7.592 -0.0300  0.3911 -0.3037
 1351TIP3    H125688   1.417   3.417   7.660  0.2376  1.3397  0.1863
 1351TIP3    H225689   1.422   3.542   7.575 -0.5971  0.6550 -0.8960
 1352TIP3   OH225690   1.871   0.035   8.194 -0.2623 -0.4353  0.8048
 1352TIP3    H125691   1.898  -0.055   8.179 -1.8104 -0.8150  0.0752
 1352TIP3    H225692   1.839   0.036   8.284 -2.0936 -1.1393  0.1982
 1353TIP3   OH225693   5.320   0.622   6.719 -0.3936 -0.3964 -0.1803
 1353TIP3    H125694   5.233   0.654   6.695 -0.2592 -0.1086 -0.2894
 1353TIP3    H225695   5.379   0.659   6.653  0.1130  1.1497  1.0902
 1354TIP3   OH225696   1.651   1.678   6.319 -0.1388 -0.0027 -0.4822
 1354TIP3    H125697   1.713   1.729   6.266 -0.2542  0.4012 -0.2334
 1354TIP3    H225698   1.566   1.694   6.279 -0.4045  1.2708  0.5176
 1355TIP3   OH225699   6.573   1.194   1.033  0.0570  0.3462 -0.5265
 1355TIP3    H125700   6.552   1.264   1.094  0.9021 -0.9689  1.3525
 1355TIP3    H225701   6.511   1.124   1.053  0.5852 -0.2504 -0.9165
 1356TIP3   OH225702   2.687   3.591   8.285  0.4687  0.0842  0.0702
 1356TIP3    H125703   2.655   3.636   8.363  0.5876  0.0812  0.1204
 1356TIP3    H225704   2.756   3.647   8.250  1.5334 -0.6813  0.8740
 1357TIP3   OH225705   0.900   2.362   1.926 -0.5504 -0.2604 -0.1773
 1357TIP3    H125706   0.820   2.395   1.968 -1.7005  0.0101 -2.3911
 1357TIP3    H225707   0.877   2.274   1.897  0.6763 -0.9701  0.9505
 1358TIP3   OH225708   0.810   5.196   1.351 -0.2060  0.0990  0.4496
 1358TIP3    H125709   0.773   5.217   1.265 -1.3769 -1.4226  0.5282
 1358TIP3    H225710   0.901   5.224   1.346  0.2112 -1.3721 -1.8818
 1359TIP3   OH225711   5.502   6.008   0.349 -0.1176 -0.0902  0.3814
 1359TIP3    H125712   5.527   5.920   0.320  1.9828  0.4872  0.2558
 1359TIP3    H225713   5.517   6.064   0.273 -3.4142  0.1579 -0.2109
 1360TIP3   OH225714   1.246   6.063   7.588 -0.6184  0.4370 -0.2761
 1360TIP3    H125715   1.265   5.998   7.655 -0.3655 -1.6102 -2.2170
 1360TIP3    H225716   1.150   6.065   7.582 -0.7450  2.1265  1.4572
 1361TIP3   OH225717   5.343   0.913   7.225 -0.3435  0.1801  0.1357
 1361TIP3    H125718   5.343   0.848   7.154 -0.6128  0.2215  0.0946
 1361TIP3    H225719   5.256   0.905   7.264  0.4423 -1.2018  1.7261
 1362TIP3   OH225720   0.475   4.533   1.131  0.0055 -0.3154 -0.2712
 1362TIP3    H125721   0.419   4.599   1.172  0.6081 -0.8273  1.4793
 1362TIP3    H225722   0.533   4.583   1.073 -0.9661  0.4220 -0.6488
 1363TIP3   OH225723   6.657   3.785   0.571  0.2470 -0.2253 -0.0885
 1363TIP3    H125724   6.721   3.856   0.564 -1.3266  1.2895  0.1243
 1363TIP3    H225725   6.592   3.818   0.633 -0.6388 -1.8004 -0.1221
 1364TIP3   OH225726   1.387   6.520   1.213  0.4426  0.2763 -0.0136
 1364TIP3    H125727   1.476   6.545   1.239  0.0712  1.3914  0.2172
 1364TIP3    H225728   1.387   6.528   1.118  0.9802 -1.0949 -0.1599
 1365TIP3   OH225729   0.424   1.134   1.588  0.1680  0.3361 -0.2489
 1365TIP3    H125730   0.449   1.212   1.638 -1.2347  0.5528  0.1443
 1365TIP3    H225731   0.504   1.081   1.586  0.5577  0.8102  1.3052
 1366TIP3   OH225732   4.952   4.831   2.020 -0.4111  0.2072  0.2911
 1366TIP3    H125733   4.930   4.887   2.094 -0.7745  0.3085  0.1101
 1366TIP3    H225734   5.032   4.786   2.047 -1.3992 -0.9634  1.3939
 1367TIP3   OH225735   1.337   2.939   1.879  0.0262 -0.5128 -0.5127
 1367TIP3    H125736   1.283   2.942   1.800 -0.6175  0.3296 -0.0488
 1367TIP3    H225737   1.311   3.015   1.930  0.6340 -0.8877  0.3956
 1368TIP3   OH225738   0.470   2.587   8.084 -0.1277  0.1767 -0.0108
 1368TIP3    H125739   0.461   2.632   8.000 -0.5696 -2.3180 -1.3992
 1368TIP3    H225740   0.537   2.520   8.069 -0.8966 -0.9590  1.3154
 1369TIP3   OH225741   0.008   2.601   1.272 -0.2388  0.0118 -0.3281
 1369TIP3    H125742  -0.084   2.594   1.246 -0.4933 -1.3868  0.8533
 1369TIP3    H225743   0.008   2.585   1.366  1.1927  0.3509 -0.2508
 1370TIP3   OH225744   5.918   6.211   6.047 -0.3002 -0.2098 -0.9401
 1370TIP3    H125745   5.835   6.258   6.056 -0.3615 -0.2425 -1.3136
 1370TIP3    H225746   5.917   6.147   6.118 -0.3182  0.2031 -0.5700
 1371TIP3   OH225747   0.399   5.095   0.918  0.7148  0.0991 -0.5193
 1371TIP3    H125748   0.320   5.084   0.865  0.8299 -0.4633 -0.5777
 1371TIP3    H225749   0.465   5.128   0.857  0.6950 -0.0211 -0.6062
 1372TIP3   OH225750   1.034   2.377   7.678  0.0763  0.2311  0.0224
 1372TIP3    H125751   0.984   2.443   7.726 -0.2832 -1.4945  2.2078
 1372TIP3    H225752   0.970   2.309   7.659  0.9825 -0.7169  0.2793
 1373TIP3   OH225753   3.548   5.630   7.151 -0.0039  0.1949  0.2301
 1373TIP3    H125754   3.636   5.653   7.122  0.2777 -1.7748 -0.6481
 1373TIP3    H225755   3.510   5.713   7.179  1.8607  1.2160 -0.0555
 1374TIP3   OH225756   1.825   3.443   0.499  0.6111 -0.4197 -1.0026
 1374TIP3    H125757   1.834   3.380   0.428 -0.9455 -1.9418  0.0524
 1374TIP3    H225758   1.883   3.410   0.568 -0.2953 -0.8269 -0.4040
 1375TIP3   OH225759   4.109   1.443   1.757 -0.1880 -0.5346 -0.4029
 1375TIP3    H125760   4.175   1.403   1.815 -1.2696 -1.4076  0.2679
 1375TIP3    H225761   4.026   1.427   1.801 -1.0961 -1.4940 -2.3176
 1376TIP3   OH225762   1.419   1.066   8.374 -0.1185 -0.1361 -0.0567
 1376TIP3    H125763   1.474   1.136   8.340  1.4963 -0.4356  1.7610
 1376TIP3    H225764   1.381   1.025   8.296  0.4737  1.4777 -1.2421
 1377TIP3   OH225765   5.789   3.572   8.389  0.6308  0.7449 -0.6950
 1377TIP3    H125766   5.783   3.583   8.294 -1.8155  1.6147 -0.5158
 1377TIP3    H225767   5.835   3.650   8.420 -0.5174  1.5880 -1.0235
 1378TIP3   OH225768   3.064   1.706   2.634  0.4137  0.8871 -0.3380
 1378TIP3    H125769   3.017   1.692   2.552  1.7206 -0.5076 -0.9032
 1378TIP3    H225770   3.125   1.778   2.615  1.8913 -0.5073 -1.1920
 1379TIP3   OH225771   1.456   1.180   7.625 -0.2483 -0.1881  0.5112
 1379TIP3    H125772   1.519   1.116   7.593  0.5439 -0.0946  1.7920
 1379TIP3    H225773   1.371   1.141   7.607  0.0790  0.1083 -2.1586
 1380TIP3   OH225774   3.663   0.825   6.743  0.2363  0.4269  0.0306
 1380TIP3    H125775   3.711   0.876   6.678  1.4347  1.4704  1.6467
 1380TIP3    H225776   3.617   0.759   6.692  2.6429 -0.0460 -1.7385
 1381TIP3   OH225777   4.241   3.804   5.944 -0.3048  0.7822  0.6182
 1381TIP3    H125778   4.246   3.824   6.038  2.2576 -1.2643  1.0289
 1381TIP3    H225779   4.238   3.708   5.940 -0.7556  0.8271 -1.4245
 1382TIP3   OH225780   5.514   0.859   8.751  0.2634  0.0293  0.3016
 1382TIP3    H125781   5.551   0.827   8.833  0.7042 -1.1097 -0.3197
 1382TIP3    H225782   5.577   0.833   8.684 -0.1398  0.8452 -0.4193
 1383TIP3   OH225783   1.203   4.166   1.124  0.6063 -0.3907 -1.0102
 1383TIP3    H125784   1.267   4.123   1.181 -0.6055 -0.5715  0.2567
 1383TIP3    H225785   1.159   4.229   1.180  0.5528  0.6746 -2.1972
 1384TIP3   OH225786   6.149   2.290   1.362 -0.2340  0.1530  0.1621
 1384TIP3    H125787   6.167   2.382   1.341  0.6954  0.2885  1.4715
 1384TIP3    H225788   6.092   2.293   1.438 -1.1210 -0.3621 -0.4671
 1385TIP3   OH225789   5.235   2.063   1.021  0.1963  0.1402  0.2704
 1385TIP3    H125790   5.268   2.152   1.018  0.2508  0.1118  0.0246
 1385TIP3    H225791   5.256   2.032   1.109  2.6968 -0.6089 -0.5088
 1386TIP3   OH225792   6.657   0.243   7.585 -0.6497  1.0311 -0.1824
 1386TIP3    H125793   6.585   0.247   7.649 -0.4620 -0.3620  0.1599
 1386TIP3    H225794   6.733   0.275   7.633 -0.2291 -1.2018  0.7931
 1387TIP3   OH225795   4.655   2.148   6.537 -0.0187 -0.1836 -0.4553
 1387TIP3    H125796   4.705   2.227   6.519 -0.6238  0.1867 -0.5371
 1387TIP3    H225797   4.705   2.103   6.605  0.9709 -0.3553 -1.2761
 1388TIP3   OH225798   1.265   0.375   8.306  0.1791  0.1098  0.3746
 1388TIP3    H125799   1.182   0.418   8.284 -0.5570 -0.3590  2.0675
 1388TIP3    H225800   1.239   0.298   8.355  1.6365  0.0858  1.1497
 1389TIP3   OH225801   4.677   2.885   0.931  0.2371  0.0197  0.3445
 1389TIP3    H125802   4.701   2.812   0.988  1.5582 -0.2741 -0.5158
 1389TIP3    H225803   4.587   2.867   0.903 -0.0277 -0.3947  1.4531
 1390TIP3   OH225804   6.363   2.792   7.494  0.5080  0.4472  0.1388
 1390TIP3    H125805   6.433   2.837   7.445  0.9557 -1.9491 -1.6051
 1390TIP3    H225806   6.402   2.774   7.580  2.9519 -2.5409 -1.3820
 1391TIP3   OH225807   6.576   3.642   0.195  0.3939  0.3037  0.4639
 1391TIP3    H125808   6.556   3.593   0.116  1.7356  0.3774  0.0608
 1391TIP3    H225809   6.631   3.584   0.247 -0.1879  0.3871  1.1914
 1392TIP3   OH225810   2.124   4.606   1.143  0.5925  0.1116 -0.5923
 1392TIP3    H125811   2.069   4.542   1.188  0.1951  0.9876  0.2088
 1392TIP3    H225812   2.199   4.555   1.112 -0.4109 -1.0097 -1.2808
 1393TIP3   OH225813   0.811   3.612   8.524  0.3416 -0.5681  0.1983
 1393TIP3    H125814   0.810   3.663   8.605 -0.9337  1.4254 -0.9784
 1393TIP3    H225815   0.756   3.662   8.464  0.4228 -2.5079 -1.5981
 1394TIP3   OH225816   2.760   1.765   8.009  0.0210  0.2671  0.2375
 1394TIP3    H125817   2.692   1.791   7.947  0.1980 -2.9507 -1.4716
 1394TIP3    H225818   2.741   1.818   8.087 -3.2813  0.8614 -0.7935
 1395TIP3   OH225819   0.778   2.159   0.738 -0.2582 -0.0114 -0.0800
 1395TIP3    H125820   0.780   2.149   0.643  0.5431 -0.0597 -0.0643
 1395TIP3    H225821   0.738   2.244   0.753 -2.2238 -0.8392 -0.3885
 1396TIP3   OH225822   5.908   2.967   8.438  0.4818 -0.2124  0.0685
 1396TIP3    H125823   5.920   3.051   8.483 -0.4173 -0.0530  0.0458
 1396TIP3    H225824   5.979   2.963   8.375  0.6554  0.4407  0.2117
 1397TIP3   OH225825   0.588   6.777   0.499  0.0044  0.9576 -0.3295
 1397TIP3    H125826   0.655   6.764   0.566  0.4505  2.0366 -0.5484
 1397TIP3    H225827   0.635   6.814   0.424 -0.4505 -0.3570 -1.3243
 1398TIP3   OH225828   4.322   5.682   6.042 -0.2395  0.5571 -0.8063
 1398TIP3    H125829   4.396   5.686   5.982 -1.3856  0.4802 -2.2715
 1398TIP3    H225830   4.252   5.638   5.993 -0.4914 -1.7944  1.3916
 1399TIP3   OH225831   2.268   5.896   5.771  0.5354  0.3048  0.2116
 1399TIP3    H125832   2.327   5.971   5.780 -1.1291  1.7824 -0.4589
 1399TIP3    H225833   2.180   5.934   5.776 -0.3723 -1.5615 -0.5011
 1400TIP3   OH225834   4.816   6.048   0.198 -0.2102  0.3717  0.0234
 1400TIP3    H125835   4.873   6.042   0.275  0.1040  0.6151 -0.1894
 1400TIP3    H225836   4.800   6.141   0.187  0.4908  0.4039 -0.7478
 1401TIP3   OH225837   1.544   2.879   8.407 -0.3310 -0.0231 -0.4192
 1401TIP3    H125838   1.517   2.963   8.444 -0.4896  0.1484 -0.9171
 1401TIP3    H225839   1.611   2.847   8.467 -0.5150  0.2949 -0.0368
 1402TIP3   OH225840   4.214   3.207   0.907 -0.5444  0.5117 -0.6677
 1402TIP3    H125841   4.190   3.116   0.889 -0.2293  0.3780 -0.4198
 1402TIP3    H225842   4.304   3.214   0.874  0.0597  0.2548  0.8577
 1403TIP3   OH225843   4.799   6.085   6.489 -0.3064 -0.2019 -0.3593
 1403TIP3    H125844   4.710   6.050   6.494  0.0489 -1.0974 -0.1018
 1403TIP3    H225845   4.794   6.152   6.421 -0.7786 -1.4987 -1.6696
 1404TIP3   OH225846   4.412   3.302   6.850 -0.4762  0.2151 -0.1230
 1404TIP3    H125847   4.318   3.294   6.831 -0.5408  2.3085 -0.9817
 1404TIP3    H225848   4.416   3.369   6.920  0.3240 -0.7954  0.8308
 1405TIP3   OH225849   2.315   6.285   8.147 -0.2696 -0.1756 -1.0138
 1405TIP3    H125850   2.369   6.265   8.071 -0.9067  1.2459 -1.8745
 1405TIP3    H225851   2.344   6.372   8.175 -1.2455  0.0704 -0.7323
 1406TIP3   OH225852   0.398   6.512   6.977  0.1680 -0.3371 -0.7639
 1406TIP3    H125853   0.416   6.493   7.069  0.0618 -2.9855 -1.2354
 1406TIP3    H225854   0.313   6.556   6.979 -0.8214 -2.1933  0.2809
 1407TIP3   OH225855   6.493   4.893   7.472  0.2477  0.3573 -0.3776
 1407TIP3    H125856   6.476   4.982   7.440  0.5253  0.9072  0.9239
 1407TIP3    H225857   6.518   4.844   7.394  0.9995  1.6586 -1.0059
 1408TIP3   OH225858   2.012   1.644   0.126  0.7142 -0.0187 -0.1740
 1408TIP3    H125859   1.954   1.702   0.076 -0.4027 -2.0781 -1.3983
 1408TIP3    H225860   1.955   1.603   0.190  1.4937  0.1781  0.6732
 1409TIP3   OH225861   1.817   0.633   7.954 -0.4467 -0.1490 -0.0923
 1409TIP3    H125862   1.877   0.558   7.955 -0.8628 -0.4867  0.6451
 1409TIP3    H225863   1.845   0.687   8.028 -1.6039 -0.7718  0.8332
 1410TIP3   OH225864   1.784   4.340   0.604 -0.3483  0.3383  0.2182
 1410TIP3    H125865   1.792   4.299   0.518  0.2536 -0.2177  0.5260
 1410TIP3    H225866   1.708   4.296   0.644  1.0350 -1.4568  1.0336
 1411TIP3   OH225867   1.495   5.167   7.652  0.4298 -0.1077 -0.3282
 1411TIP3    H125868   1.423   5.206   7.601  0.5298  0.0807 -0.3259
 1411TIP3    H225869   1.533   5.240   7.700 -0.4789 -0.4822  1.0227
 1412TIP3   OH225870   6.704   5.066   1.422 -0.2159 -0.6144  0.2393
 1412TIP3    H125871   6.684   5.062   1.516 -0.0980  1.7523  0.4280
 1412TIP3    H225872   6.654   5.141   1.390  0.0333 -1.1584 -1.5438
 1413TIP3   OH225873   3.758   0.111   1.606  0.0406 -0.0164 -0.5033
 1413TIP3    H125874   3.673   0.154   1.608 -1.5742 -2.9859  0.4327
 1413TIP3    H225875   3.777   0.099   1.513  0.6247  2.6212 -0.8117
 1414TIP3   OH225876   0.988   6.083   7.529  0.5338 -0.3962  0.1402
 1414TIP3    H125877   0.901   6.102   7.565  0.4634 -1.8920  0.8246
 1414TIP3    H225878   0.977   6.094   7.434 -0.2780 -0.1537  0.2542
 1415TIP3   OH225879   5.339   2.605   7.923  0.3404  0.2119  0.1702
 1415TIP3    H125880   5.400   2.662   7.972 -0.2676  1.0483 -0.0176
 1415TIP3    H225881   5.391   2.573   7.850  0.8737  0.0366  0.6195
 1416TIP3   OH225882   4.174   1.065   1.761 -0.0288 -0.2648  0.1839
 1416TIP3    H125883   4.190   1.093   1.671  0.7778  4.9876  1.6219
 1416TIP3    H225884   4.261   1.060   1.801 -0.4753  0.3129  1.2895
 1417TIP3   OH225885   1.312   1.712   1.241  0.6177  0.2612  0.1295
 1417TIP3    H125886   1.237   1.771   1.254  1.2578  0.9178  0.8819
 1417TIP3    H225887   1.340   1.688   1.329  1.6996  0.5477 -0.1181
 1418TIP3   OH225888   4.442   6.431   7.325  0.3559 -0.5692  0.3493
 1418TIP3    H125889   4.405   6.518   7.340 -1.5527 -1.0294 -1.3194
 1418TIP3    H225890   4.464   6.399   7.413 -0.2635  1.0047  1.1099
 1419TIP3   OH225891   5.345   5.800   6.270  0.0867  0.7676  0.2584
 1419TIP3    H125892   5.432   5.769   6.246  0.5415  3.8757 -2.7923
 1419TIP3    H225893   5.360   5.861   6.342  0.7827  2.5801 -1.3440
 1420TIP3   OH225894   1.052   4.664   7.661 -0.2911  0.7004  0.1883
 1420TIP3    H125895   0.964   4.659   7.625 -0.6570  0.0081  1.1425
 1420TIP3    H225896   1.105   4.702   7.590 -0.8808 -1.0554 -1.2941
 1421TIP3   OH225897   6.048   3.758   6.748  0.5354 -0.0394  0.1986
 1421TIP3    H125898   6.052   3.804   6.832 -1.0199  0.4252  0.0459
 1421TIP3    H225899   6.031   3.826   6.684 -1.3790 -0.7165 -0.0832
 1422TIP3   OH225900   1.590   2.037   1.020 -0.4876 -0.2731 -0.0872
 1422TIP3    H125901   1.564   2.064   1.108  0.2612 -1.9854  0.6903
 1422TIP3    H225902   1.672   2.084   1.004  0.3365 -1.3517  0.8863
 1423TIP3   OH225903   0.484   3.634   2.287  0.4645 -0.0029  0.2381
 1423TIP3    H125904   0.449   3.633   2.198  1.5685  0.6720 -0.2357
 1423TIP3    H225905   0.408   3.621   2.344 -0.3283  0.0437 -0.7860
 1424TIP3   OH225906   4.993   1.327   0.221  0.0434  0.4236 -0.2643
 1424TIP3    H125907   4.996   1.360   0.311  2.6357  0.1287 -0.1521
 1424TIP3    H225908   4.991   1.232   0.230 -4.1462  0.2948 -0.6094
 1425TIP3   OH225909   1.399   1.876   7.704  0.2200 -0.4867 -0.5956
 1425TIP3    H125910   1.413   1.900   7.795  0.2773 -1.7082 -0.2651
 1425TIP3    H225911   1.447   1.942   7.654 -0.6707  0.7997  0.2047
 1426TIP3   OH225912   5.034   5.704   8.621  0.5204  0.8641  0.2210
 1426TIP3    H125913   5.005   5.739   8.706 -1.4173 -1.2007  0.4944
 1426TIP3    H225914   4.967   5.733   8.560  0.1430 -0.3872  0.0285
 1427TIP3   OH225915   2.043   2.919   6.741  0.6647 -0.2810  0.2880
 1427TIP3    H125916   2.103   2.882   6.805 -0.2216 -2.3873 -0.0080
 1427TIP3    H225917   2.030   2.849   6.677 -0.4617  0.8640 -0.8026
 1428TIP3   OH225918   6.365   2.531   7.800  0.1855  0.6002 -0.1015
 1428TIP3    H125919   6.431   2.557   7.736  0.6569  0.0807  0.1686
 1428TIP3    H225920   6.409   2.467   7.857 -1.1814 -1.5897 -1.3370
 1429TIP3   OH225921   0.784   0.136   8.492 -0.3721  0.3086 -0.4001
 1429TIP3    H125922   0.711   0.161   8.435 -1.8637 -1.0600  0.8263
 1429TIP3    H225923   0.819   0.056   8.453 -1.4492 -0.6776  0.6014
 1430TIP3   OH225924   1.991   6.342   0.755  0.8126  0.1062  0.2704
 1430TIP3    H125925   2.033   6.290   0.687 -0.3209 -0.9522  0.3228
 1430TIP3    H225926   2.040   6.322   0.835 -0.2396 -1.8315  0.5144
 1431TIP3   OH225927   6.336   3.171   8.182 -0.1200 -0.2218 -0.2240
 1431TIP3    H125928   6.359   3.181   8.274 -0.2440  0.5997 -0.2745
 1431TIP3    H225929   6.284   3.249   8.162 -0.0735 -0.3833 -0.9921
 1432TIP3   OH225930   3.990   3.210   1.738 -0.0353  0.2525 -0.1865
 1432TIP3    H125931   4.042   3.285   1.768 -0.2601  0.6107 -0.6843
 1432TIP3    H225932   4.006   3.142   1.803  2.6020 -0.3126 -1.3079
 1433TIP3   OH225933   0.838   2.456   1.345  0.1107  1.0179  0.3111
 1433TIP3    H125934   0.901   2.524   1.369  1.0408  0.1060  0.5055
 1433TIP3    H225935   0.821   2.409   1.426  1.6822 -0.7704 -0.3219
 1434TIP3   OH225936   6.377   1.390   0.704 -0.0482 -0.0362  0.3788
 1434TIP3    H125937   6.322   1.333   0.759 -0.7967 -0.3004 -0.6251
 1434TIP3    H225938   6.465   1.354   0.714 -0.1655 -0.0664  1.4165
 1435TIP3   OH225939   5.608   1.046   8.354  0.4312  0.6329  0.7554
 1435TIP3    H125940   5.542   1.096   8.305  1.4396 -0.2451 -1.6593
 1435TIP3    H225941   5.690   1.068   8.311  1.1812 -1.3378  1.0876
 1436TIP3   OH225942   2.390   3.602   0.779 -0.2988 -0.3400 -0.6965
 1436TIP3    H125943   2.430   3.675   0.733  0.2153 -0.4436 -0.4164
 1436TIP3    H225944   2.440   3.594   0.860  0.2035 -1.5344 -1.0967
 1437TIP3   OH225945   3.244   3.601   1.490 -0.1594  0.2122 -0.4428
 1437TIP3    H125946   3.287   3.582   1.573  0.2118  0.4443 -0.5783
 1437TIP3    H225947   3.177   3.666   1.512 -0.0863  0.2459 -0.3181
 1438TIP3   OH225948   1.237   1.191   7.391  0.3168 -0.3385  0.4458
 1438TIP3    H125949   1.232   1.099   7.418 -1.3018  0.1332  1.9383
 1438TIP3    H225950   1.146   1.222   7.395  0.5421  0.8404 -1.9319
 1439TIP3   OH225951   6.810   0.205   6.950  0.1394 -0.2544  0.5094
 1439TIP3    H125952   6.740   0.142   6.933  0.0274  0.2882 -1.2323
 1439TIP3    H225953   6.858   0.211   6.867  2.0221 -0.3105  1.5428
 1440TIP3   OH225954   6.315   4.080   6.452 -0.2415  0.0328  0.1016
 1440TIP3    H125955   6.400   4.049   6.419 -0.9602 -2.7691  0.6718
 1440TIP3    H225956   6.265   4.101   6.373  1.0661  2.2218 -0.2372
 1441TIP3   OH225957   1.440   6.515   0.911 -0.5023 -0.5801  0.3207
 1441TIP3    H125958   1.438   6.496   0.818  1.0303 -2.5337  0.6144
 1441TIP3    H225959   1.371   6.581   0.924 -1.6578 -1.2356 -1.9499
 1442TIP3   OH225960   5.545   0.237   7.252 -0.4529  0.2828  0.3066
 1442TIP3    H125961   5.520   0.220   7.342 -0.4485 -1.8051 -0.0203
 1442TIP3    H225962   5.632   0.196   7.243 -0.8190 -0.2881 -0.8363
 1443TIP3   OH225963   5.870   0.816   1.817  0.9654 -0.2777  0.1729
 1443TIP3    H125964   5.898   0.890   1.870  0.7039 -0.6926  0.9114
 1443TIP3    H225965   5.795   0.779   1.865 -1.5970  1.4231 -2.2296
 1444TIP3   OH225966   6.286   3.577   0.262  0.5464  0.2623 -0.1643
 1444TIP3    H125967   6.279   3.582   0.358  1.0641  0.3711 -0.1294
 1444TIP3    H225968   6.344   3.648   0.238 -0.7305  1.1533 -0.7157
 1445TIP3   OH225969   1.819   6.054   0.125  0.7380  0.2662 -0.4394
 1445TIP3    H125970   1.801   5.960   0.128 -0.4673  0.4990  1.6648
 1445TIP3    H225971   1.755   6.090   0.064  1.4577 -0.2957 -1.5543
 1446TIP3   OH225972   3.439   2.910   8.468 -0.0021 -0.3848 -0.0093
 1446TIP3    H125973   3.494   2.838   8.436  0.8727  0.7083 -1.0757
 1446TIP3    H225974   3.438   2.973   8.396 -0.7931  0.6477  0.8734
 1447TIP3   OH225975   4.093   0.981   7.106  0.0829 -0.2250 -0.3737
 1447TIP3    H125976   4.088   1.076   7.092 -0.0510 -0.1288  0.2830
 1447TIP3    H225977   4.076   0.943   7.020 -0.6561  0.3349 -0.4879
 1448TIP3   OH225978   6.028   3.173   7.858 -0.2066 -0.0945 -0.1279
 1448TIP3    H125979   6.044   3.091   7.904  0.5130  0.1178  0.0193
 1448TIP3    H225980   5.933   3.177   7.848 -0.4583  0.1149  1.8416
 1449TIP3   OH225981   5.723   4.201   1.363  0.0401  0.1018 -0.0317
 1449TIP3    H125982   5.640   4.164   1.336  0.4663 -1.4498  0.6679
 1449TIP3    H225983   5.771   4.217   1.281 -0.1075 -1.0668 -0.3662
 1450TIP3   OH225984   4.465   3.240   5.960  0.0907  0.2446 -0.1300
 1450TIP3    H125985   4.559   3.243   5.976  0.6146  3.1382 -2.8502
 1450TIP3    H225986   4.451   3.159   5.910  1.0195 -0.3848  0.6025
 1451TIP3   OH225987   4.133   0.261   0.215 -0.5790  0.1636 -0.2894
 1451TIP3    H125988   4.152   0.267   0.122 -0.0766 -0.1232 -0.2088
 1451TIP3    H225989   4.165   0.174   0.241 -2.6420 -0.6316 -0.2854
 1452TIP3   OH225990   6.809   6.398   1.577  0.4634 -0.3388  0.1977
 1452TIP3    H125991   6.755   6.320   1.584 -1.1721  0.6428 -0.7618
 1452TIP3    H225992   6.753   6.469   1.611  1.5330  0.5507  0.1518
 1453TIP3   OH225993   4.026   3.032   7.576 -0.1039 -0.5675 -0.0667
 1453TIP3    H125994   4.046   3.006   7.486  0.1884 -0.3582 -0.0617
 1453TIP3    H225995   3.975   3.113   7.568  1.2576  0.3154  0.0016
 1454TIP3   OH225996   1.923   4.178   5.941 -0.3084  0.1069 -0.6189
 1454TIP3    H125997   1.864   4.251   5.959 -0.0179  0.0952  0.4699
 1454TIP3    H225998   1.980   4.210   5.871  0.0558  1.0773  0.0952
 1455TIP3   OH225999   6.057   2.130   1.663  0.3246  0.6213  0.6249
 1455TIP3    H126000   6.060   2.113   1.757 -0.5955  0.7062  0.6820
 1455TIP3    H226001   6.060   2.043   1.623  0.2441  0.5578  0.7544
 1456TIP3   OH226002   5.706   0.363   8.601 -0.2863 -0.3068 -0.1461
 1456TIP3    H126003   5.672   0.448   8.630  0.3631  0.3174 -1.1824
 1456TIP3    H226004   5.659   0.344   8.520  1.4315  0.3498 -1.3531
 1457TIP3   OH226005   2.542   5.907   7.932 -0.4655 -0.0747  0.6159
 1457TIP3    H126006   2.573   5.828   7.978 -1.2735 -0.9272 -0.2765
 1457TIP3    H226007   2.454   5.885   7.902  0.6976 -0.3461 -3.0889
 1458TIP3   OH226008   2.319   2.775   6.649 -0.3483 -0.1105 -0.5546
 1458TIP3    H126009   2.336   2.797   6.741 -0.7018  0.0738 -0.5297
 1458TIP3    H226010   2.368   2.841   6.599 -2.1503  1.3827 -0.4739
 1459TIP3   OH226011   6.404   3.338   7.192  0.0106  1.0988 -0.1462
 1459TIP3    H126012   6.407   3.425   7.152  3.2854  1.2936  0.2574
 1459TIP3    H226013   6.448   3.281   7.129 -0.0172  0.2081  0.6206
 1460TIP3   OH226014   3.050   3.642   6.413  0.8264 -0.0396  0.0318
 1460TIP3    H126015   2.984   3.707   6.390  1.3430  0.3287 -0.4271
 1460TIP3    H226016   3.045   3.577   6.343  1.3720  0.3104 -0.3392
 1461TIP3   OH226017   0.286   1.521   0.103 -0.0834  0.1506  0.0239
 1461TIP3    H126018   0.208   1.473   0.131  0.7413 -0.6896  0.9620
 1461TIP3    H226019   0.287   1.512   0.008  0.2259 -2.0129  0.1812
 1462TIP3   OH226020   3.560   2.303   8.350  0.1148 -0.6606  0.6425
 1462TIP3    H126021   3.529   2.288   8.439  1.3575 -0.4072  1.1399
 1462TIP3    H226022   3.551   2.397   8.336 -1.2244 -0.8551  0.0319
 1463TIP3   OH226023   5.091   0.151   8.152 -0.0794 -0.1803  0.0312
 1463TIP3    H126024   5.164   0.092   8.133 -0.4745 -0.7742  0.3228
 1463TIP3    H226025   5.121   0.237   8.122  1.2383 -0.1693  1.2460
 1464TIP3   OH226026   2.227   5.976   0.096 -0.0894 -0.8264 -0.4521
 1464TIP3    H126027   2.248   5.990   0.004  1.8845 -0.6425 -0.0147
 1464TIP3    H226028   2.226   5.881   0.107 -0.4825 -0.8491 -0.6992
 1465TIP3   OH226029   1.082   6.300   8.612 -0.1521  0.2070  0.3826
 1465TIP3    H126030   1.165   6.326   8.651  0.2273  0.3630 -0.5069
 1465TIP3    H226031   1.103   6.222   8.561 -0.7893 -0.4264  1.0711
 1466TIP3   OH226032   1.828   2.167   8.066  0.3067  0.0351  0.0421
 1466TIP3    H126033   1.772   2.223   8.012 -0.3207 -0.4505  0.1708
 1466TIP3    H226034   1.913   2.168   8.022  0.1194  0.5574 -0.3194
 1467TIP3   OH226035   0.100   5.581   7.328  0.4647  0.3085  0.0140
 1467TIP3    H126036   0.077   5.534   7.249 -2.3960 -0.0067  0.9204
 1467TIP3    H226037   0.133   5.514   7.388 -0.6440 -0.0635  0.2305
 1468TIP3   OH226038   1.527   5.211   1.270  0.0564 -0.6089 -0.4382
 1468TIP3    H126039   1.506   5.274   1.201 -1.5791  0.3415  0.8688
 1468TIP3    H226040   1.447   5.204   1.322  1.6229 -0.1544  2.2414
 1469TIP3   OH226041   4.895   6.237   7.927  0.0731  0.2767 -0.0290
 1469TIP3    H126042   4.986   6.226   7.899 -0.0758 -1.3333  0.0446
 1469TIP3    H226043   4.900   6.241   8.023 -0.0560 -1.4061  0.0671
 1470TIP3   OH226044   4.899   1.839   7.854 -0.0746  0.3216  0.1080
 1470TIP3    H126045   4.929   1.772   7.793 -1.5557 -1.8096  1.5855
 1470TIP3    H226046   4.979   1.871   7.896  0.7173 -0.0144 -1.1092
 1471TIP3   OH226047   5.227   3.485   1.416 -0.0723 -0.0734 -0.2295
 1471TIP3    H126048   5.311   3.512   1.455  1.2660  0.2945 -3.0901
 1471TIP3    H226049   5.250   3.413   1.357 -1.5269  0.7591 -1.9274
 1472TIP3   OH226050   3.253   0.513   8.439 -0.4743  0.1784 -0.0662
 1472TIP3    H126051   3.269   0.480   8.528  0.9158  1.0697  0.0444
 1472TIP3    H226052   3.340   0.524   8.401 -0.9920  1.2274 -1.0185
 1473TIP3   OH226053   5.758   0.189   6.601  0.1279 -0.0457  0.1617
 1473TIP3    H126054   5.833   0.244   6.578 -0.5867  0.4650 -1.0491
 1473TIP3    H226055   5.769   0.110   6.548  0.2822 -0.3589  0.6582
 1474TIP3   OH226056   6.472   6.070   8.509  0.5341 -0.8862  0.0322
 1474TIP3    H126057   6.406   6.101   8.571  1.4589  1.2025  0.0782
 1474TIP3    H226058   6.492   6.147   8.455 -0.6065 -2.7230 -3.2805
 1475TIP3   OH226059   0.791   6.364   7.149 -0.6940  0.3614  0.0762
 1475TIP3    H126060   0.869   6.404   7.111 -0.4806 -1.2050 -1.2697
 1475TIP3    H226061   0.757   6.430   7.209  0.4816  1.9024 -0.8686
 1476TIP3   OH226062   1.641   1.753   0.667 -0.2129  0.1938  0.5812
 1476TIP3    H126063   1.636   1.667   0.708 -1.4168  0.4760  1.0556
 1476TIP3    H226064   1.565   1.756   0.609  0.6898  0.3420 -0.6607
 1477TIP3   OH226065   6.795   3.592   6.834 -0.1876 -0.0962 -0.1480
 1477TIP3    H126066   6.843   3.644   6.898 -1.2176 -1.0998  1.5067
 1477TIP3    H226067   6.753   3.523   6.885 -1.0391 -0.9603 -1.9155
 1478TIP3   OH226068   1.413   0.858   7.444  0.1604 -0.1782 -0.6068
 1478TIP3    H126069   1.502   0.893   7.454  1.3701 -2.4312 -2.2921
 1478TIP3    H226070   1.403   0.848   7.349 -1.7719 -0.3186 -0.4100
 1479TIP3   OH226071   2.059   3.652   8.350 -0.1012  0.3315  0.3790
 1479TIP3    H126072   2.152   3.664   8.369 -0.1112  2.4869 -0.6299
 1479TIP3    H226073   2.015   3.663   8.434  0.4723  0.7590  0.6245
 1480TIP3   OH226074   5.935   3.526   1.257  0.3492  0.2797 -0.4506
 1480TIP3    H126075   6.024   3.492   1.251  0.2882 -0.2138  0.9823
 1480TIP3    H226076   5.908   3.507   1.347 -0.8362  1.3359 -0.5505
 1481TIP3   OH226077   1.013   0.921   7.149  0.6672  0.2018 -0.3498
 1481TIP3    H126078   1.006   0.983   7.077  2.3561  2.3651  1.2071
 1481TIP3    H226079   1.095   0.943   7.193 -0.7508 -0.2544  2.8594
 1482TIP3   OH226080   0.941   2.554   6.160  0.0349  0.1482 -0.1564
 1482TIP3    H126081   1.021   2.504   6.173 -0.7283 -0.8950  0.6771
 1482TIP3    H226082   0.970   2.635   6.119  1.3742 -0.7293 -1.0330
 1483TIP3   OH226083   2.789   6.347   8.609 -1.2974  0.0748  0.2703
 1483TIP3    H126084   2.791   6.260   8.569  0.4922  0.7649 -1.2952
 1483TIP3    H226085   2.723   6.340   8.678 -1.6306 -2.3368 -0.1982
 1484TIP3   OH226086   6.569   1.490   8.421  0.2796 -0.3624 -0.1479
 1484TIP3    H126087   6.562   1.422   8.488 -0.6532  0.3326  0.4778
 1484TIP3    H226088   6.661   1.488   8.394  0.6280 -0.7596  1.0196
 1485TIP3   OH226089   6.779   2.203   7.496  0.3695 -0.3014  0.4214
 1485TIP3    H126090   6.837   2.131   7.522 -0.4645 -0.6645  1.3394
 1485TIP3    H226091   6.837   2.278   7.485  1.1090 -0.8365  0.5720
 1486TIP3   OH226092   1.297   2.362   0.112 -0.2047 -0.1812 -0.0883
 1486TIP3    H126093   1.299   2.376   0.017  1.7868 -0.9538 -0.2162
 1486TIP3    H226094   1.321   2.447   0.149 -1.1431  0.1660 -0.2437
 1487TIP3   OH226095   1.178   0.317   7.082  0.4458 -0.3509 -0.4428
 1487TIP3    H126096   1.102   0.337   7.028  0.1934 -0.5136 -0.1507
 1487TIP3    H226097   1.225   0.400   7.089 -1.5270  0.6865  2.2425
 1488TIP3   OH226098   2.949   2.646   6.530 -0.1348  0.1879  0.2311
 1488TIP3    H126099   2.984   2.559   6.546 -1.7308 -0.1428  2.2671
 1488TIP3    H226100   3.012   2.705   6.572  1.3633  0.1648 -1.8144
 1489TIP3   OH226101   0.575   0.630   6.039  0.5593 -0.3775 -0.0841
 1489TIP3    H126102   0.511   0.689   6.000 -0.1680 -0.1938  1.3462
 1489TIP3    H226103   0.654   0.684   6.049  0.2734  0.0013  0.1233
 1490TIP3   OH226104   1.851   3.713   0.477  0.4901 -0.1962 -0.6938
 1490TIP3    H126105   1.897   3.730   0.559 -3.6873  2.2778  1.4753
 1490TIP3    H226106   1.818   3.623   0.486 -1.2441  0.5627  1.2044
 1491TIP3   OH226107   5.987   5.987   0.000  0.2880 -0.2981  0.2431
 1491TIP3    H126108   5.945   5.927  -0.061  0.9642 -0.3724 -0.1591
 1491TIP3    H226109   6.057   5.936   0.040  1.1558  0.3373 -0.4257
 1492TIP3   OH226110   1.552   3.113   8.563 -0.5192  0.2288  0.0338
 1492TIP3    H126111   1.552   3.205   8.534 -1.7031  0.2507  0.0703
 1492TIP3    H226112   1.578   3.116   8.655  0.0641  0.4614 -0.1335
 1493TIP3   OH226113   6.150   3.854   0.194 -0.0564  0.0822  0.4122
 1493TIP3    H126114   6.062   3.822   0.214  0.0894  0.4856  1.7773
 1493TIP3    H226115   6.156   3.847   0.099 -1.8307  0.7127  0.1981
 1494TIP3   OH226116   0.168   5.740   8.104 -0.3008 -0.6486 -0.2987
 1494TIP3    H126117   0.206   5.746   8.191 -0.1572 -1.7963 -0.2567
 1494TIP3    H226118   0.086   5.790   8.109  0.2193  0.1589  0.1824
 1495TIP3   OH226119   3.193   0.775   7.617 -0.3428 -0.4128  0.5614
 1495TIP3    H126120   3.156   0.705   7.562 -0.1385 -1.0306  1.1918
 1495TIP3    H226121   3.129   0.846   7.611  1.0087  0.6927 -2.7559
 1496TIP3   OH226122   3.189   0.664   7.152  0.1461  0.0832  0.3379
 1496TIP3    H126123   3.095   0.645   7.154  0.3004 -1.1209 -1.6631
 1496TIP3    H226124   3.194   0.759   7.144 -0.8727  0.2312  1.3021
 1497TIP3   OH226125   4.639   3.864   0.934  0.4399 -0.5674  0.1040
 1497TIP3    H126126   4.594   3.946   0.912  0.5431 -0.2193  1.1260
 1497TIP3    H226127   4.731   3.882   0.917  0.6652  0.0823  1.7720
 1498TIP3   OH226128   5.635   4.470   7.643  0.1591 -0.0553  0.7863
 1498TIP3    H126129   5.671   4.439   7.560 -2.7748 -0.6499 -0.3772
 1498TIP3    H226130   5.611   4.390   7.691 -0.8596  0.3042  0.9009
 1499TIP3   OH226131   1.027   4.698   7.978 -0.1248  0.2545 -0.0564
 1499TIP3    H126132   0.964   4.722   8.045 -1.3241 -1.8752 -0.3449
 1499TIP3    H226133   1.041   4.779   7.928  0.1052  1.6530  2.1290
 1500TIP3   OH226134   0.250   5.195   8.585  0.1189 -0.2567 -0.1107
 1500TIP3    H126135   0.168   5.225   8.623 -0.0588  1.4903 -1.7402
 1500TIP3    H226136   0.229   5.111   8.546 -0.4041 -0.6942  1.0564
 1501TIP3   OH226137   5.673   6.631   6.314  0.1720 -0.1034  0.0685
 1501TIP3    H126138   5.705   6.567   6.250  0.6903  1.9808 -1.9116
 1501TIP3    H226139   5.578   6.620   6.314  0.0912  0.3013 -1.6500
 1502TIP3   OH226140   5.343   4.896   6.900  0.0675 -0.6042  0.4429
 1502TIP3    H126141   5.312   4.958   6.834  0.1136 -1.3849 -0.3269
 1502TIP3    H226142   5.362   4.951   6.977 -0.4880  0.2495 -0.0078
 1503TIP3   OH226143   1.458   6.471   7.929  0.7535 -0.0718 -0.4078
 1503TIP3    H126144   1.373   6.460   7.885 -0.1619  0.3723  1.1876
 1503TIP3    H226145   1.502   6.539   7.878 -0.2884  0.4596 -0.6262
 1504TIP3   OH226146   6.371   2.930   0.723  0.1985 -0.2048  0.0684
 1504TIP3    H126147   6.311   2.922   0.650 -0.4752  0.1336  0.5713
 1504TIP3    H226148   6.316   2.957   0.797  1.0787  0.8452  0.3665
 1505TIP3   OH226149   3.470   1.977   2.151  0.5264 -0.7615  0.1768
 1505TIP3    H126150   3.432   1.976   2.063  0.3781  0.2803  0.2216
 1505TIP3    H226151   3.395   1.975   2.209  0.6038 -0.8266  0.2739
 1506TIP3   OH226152   4.585   4.923   1.536  0.4767 -0.6396 -0.2415
 1506TIP3    H126153   4.549   4.879   1.613 -0.2973 -1.2241 -0.9129
 1506TIP3    H226154   4.571   4.861   1.464  0.8660  0.0325 -0.9166
 1507TIP3   OH226155   5.792   4.020   0.026  0.3672 -0.3532 -0.8310
 1507TIP3    H126156   5.854   4.052  -0.040  1.2154 -1.9718 -0.8711
 1507TIP3    H226157   5.725   4.088   0.030  1.6307  1.0067 -1.4843
 1508TIP3   OH226158   2.571   1.346   6.015  0.1241  0.1785  0.5853
 1508TIP3    H126159   2.666   1.336   6.008  0.1149  0.5293 -0.2201
 1508TIP3    H226160   2.538   1.257   6.029  0.5235 -0.0292  0.2206
 1509TIP3   OH226161   3.983   2.922   8.410 -0.2496 -0.6305  0.6099
 1509TIP3    H126162   3.932   3.003   8.416 -0.1264 -0.3436 -1.5098
 1509TIP3    H226163   3.917   2.852   8.411 -0.5952 -0.3403 -0.4435
 1510TIP3   OH226164   1.847   1.768   7.182  0.3781  0.9434 -0.5417
 1510TIP3    H126165   1.771   1.810   7.222  0.2941  1.6998 -1.4620
 1510TIP3    H226166   1.824   1.675   7.182 -0.0952  1.0456  0.1289
 1511TIP3   OH226167   4.756   3.136   8.238 -0.3164  0.4024 -0.2740
 1511TIP3    H126168   4.734   3.049   8.204 -0.5615  0.4113 -0.1432
 1511TIP3    H226169   4.673   3.171   8.269 -0.3487  0.9780 -0.9903
 1512TIP3   OH226170   6.354   4.689   6.947  0.3937  0.1756  0.4820
 1512TIP3    H126171   6.402   4.646   6.875 -0.9237  0.9355 -0.8958
 1512TIP3    H226172   6.359   4.782   6.927 -1.0051  0.3177  0.7252
 1513TIP3   OH226173   0.236   5.448   8.352 -0.2742  0.5160 -0.5180
 1513TIP3    H126174   0.192   5.415   8.274 -0.8707  0.5492 -0.2008
 1513TIP3    H226175   0.249   5.542   8.335  1.6571  0.1117 -1.5299
 1514TIP3   OH226176   2.828   2.168   7.282 -0.5021  0.4002  0.4441
 1514TIP3    H126177   2.755   2.132   7.333 -0.7267 -1.2019 -0.9359
 1514TIP3    H226178   2.786   2.225   7.218 -0.2161  2.4531  1.9855
 1515TIP3   OH226179   5.961   0.505   0.124 -0.4366 -0.0217  0.6132
 1515TIP3    H126180   6.027   0.437   0.111  0.0150  0.4535  0.3853
 1515TIP3    H226181   5.920   0.484   0.208  1.0611  0.5310  1.5300
 1516TIP3   OH226182   2.658   3.449   7.283 -0.0158 -0.3118 -0.6603
 1516TIP3    H126183   2.717   3.446   7.208  0.0738  0.6705 -0.6479
 1516TIP3    H226184   2.581   3.497   7.251 -0.2276 -0.4102 -0.2982
 1517TIP3   OH226185   5.999   4.071   0.822  0.3238 -0.3377 -0.2314
 1517TIP3    H126186   6.057   4.014   0.772 -1.6786 -0.5960 -2.4142
 1517TIP3    H226187   5.911   4.036   0.806 -0.6266  1.0955  1.4920
 1518TIP3   OH226188   3.949   4.078   0.887  0.5476  0.1246 -0.0319
 1518TIP3    H126189   3.879   4.112   0.831  1.3080  0.4728 -0.7959
 1518TIP3    H226190   3.933   4.118   0.973 -1.1350 -1.0815  0.2625
 1519TIP3   OH226191   5.474   6.715   8.369  0.5367 -0.4431  0.7892
 1519TIP3    H126192   5.474   6.619   8.379  1.4278 -0.5008  0.3172
 1519TIP3    H226193   5.448   6.729   8.278  1.1508 -0.2762  0.6327
 1520TIP3   OH226194   6.588   1.418   7.667  0.6862  0.0575 -0.1176
 1520TIP3    H126195   6.505   1.409   7.620  1.3115 -0.3237 -1.1635
 1520TIP3    H226196   6.562   1.420   7.759 -0.4045 -1.1456 -0.3690
 1521TIP3   OH226197   4.612   4.884   7.662 -0.0670 -0.2142 -0.3734
 1521TIP3    H126198   4.686   4.848   7.613  0.4541 -0.1649  0.3711
 1521TIP3    H226199   4.621   4.848   7.750 -0.9715 -0.2658 -0.2866
 1522TIP3   OH226200   2.910   6.761   8.415  0.1407  0.0540  0.4922
 1522TIP3    H126201   2.941   6.682   8.459  3.3034  1.5874  1.3364
 1522TIP3    H226202   2.869   6.813   8.485 -0.1309  0.0156  0.3635
 1523TIP3   OH226203   5.915   0.326   7.623 -0.1502  0.0920 -0.3758
 1523TIP3    H126204   5.842   0.367   7.577 -0.6960  0.8327  1.0872
 1523TIP3    H226205   5.875   0.285   7.699  0.7928 -0.6671 -0.2767
 1524TIP3   OH226206   5.963   3.742   1.567  0.0665  0.2677 -0.6110
 1524TIP3    H126207   5.892   3.740   1.631  0.5479  0.4890 -0.0573
 1524TIP3    H226208   5.924   3.707   1.487 -0.7646  0.7255 -0.4247
 1525TIP3   OH226209   1.163   1.443   7.968  0.4480  0.1703  0.3392
 1525TIP3    H126210   1.192   1.507   7.903  2.7390 -0.2516  0.8861
 1525TIP3    H226211   1.189   1.358   7.932 -0.4945 -0.2863  0.6947
 1526TIP3   OH226212   5.216   6.232   6.457 -0.2744  0.0640  0.2188
 1526TIP3    H126213   5.296   6.183   6.476 -0.4533  0.0949  1.1069
 1526TIP3    H226214   5.186   6.198   6.373 -0.0586 -0.9136  0.5225
 1527TIP3   OH226215   0.421   2.102   0.563  0.7336 -0.0941  0.3334
 1527TIP3    H126216   0.419   2.020   0.514  0.3701  1.3993 -2.3469
 1527TIP3    H226217   0.497   2.149   0.529  0.9849  0.6855  1.8603
 1528TIP3   OH226218   4.108   6.693   1.458 -0.2419  0.0930  0.0265
 1528TIP3    H126219   4.123   6.610   1.504 -1.5660  1.3213  2.9680
 1528TIP3    H226220   4.121   6.760   1.525  1.5703  2.3910 -2.4442
 1529TIP3   OH226221   4.798   0.166   8.230  1.1879  0.5594  0.2711
 1529TIP3    H126222   4.888   0.166   8.196  1.6236 -0.1212  1.3799
 1529TIP3    H226223   4.806   0.133   8.319 -0.2048  0.2017  0.2878
 1530TIP3   OH226224   4.708   1.629   7.893  0.0501 -0.3649 -0.5545
 1530TIP3    H126225   4.789   1.680   7.890 -0.5339  0.7194  1.0753
 1530TIP3    H226226   4.643   1.689   7.929 -0.9238 -1.9511  0.4231
 1531TIP3   OH226227   2.252   3.849   7.543 -0.7771 -0.2761 -0.3071
 1531TIP3    H126228   2.170   3.879   7.504  0.2781  0.5949 -1.9559
 1531TIP3    H226229   2.280   3.777   7.487 -0.5201 -0.7463  0.4092
 1532TIP3   OH226230   4.646   2.136   1.490 -0.3325 -1.0631 -0.2222
 1532TIP3    H126231   4.694   2.067   1.536  0.4753 -0.5270 -0.2394
 1532TIP3    H226232   4.705   2.211   1.491 -1.3764 -0.2119  0.2097
 1533TIP3   OH226233   3.848   6.619   0.671 -0.3063  0.2508 -0.3984
 1533TIP3    H126234   3.835   6.572   0.753  0.1614 -1.3188 -1.1813
 1533TIP3    H226235   3.899   6.696   0.696  0.8550 -0.8064  0.6374
 1534TIP3   OH226236   3.298   2.722   1.811  0.6039  0.3400  0.0093
 1534TIP3    H126237   3.375   2.736   1.867  0.5609 -1.0415  0.4639
 1534TIP3    H226238   3.223   2.736   1.869  0.5598 -1.3485  0.4231
 1535TIP3   OH226239   2.570   4.716   6.092  0.2909 -0.2964  0.1073
 1535TIP3    H126240   2.624   4.680   6.163 -0.7369 -0.8840  0.6226
 1535TIP3    H226241   2.608   4.680   6.012  0.3092 -1.1945  0.5053
 1536TIP3   OH226242   0.850   0.883   8.724 -0.3997  0.1906 -0.0332
 1536TIP3    H126243   0.855   0.871   8.819 -1.8899 -0.3035  0.0113
 1536TIP3    H226244   0.831   0.796   8.690 -1.1646  0.5889 -0.6591
 1537TIP3   OH226245   0.530   6.091   6.843  0.2298 -0.1597 -0.1848
 1537TIP3    H126246   0.537   6.150   6.917 -0.0587 -1.7577  1.1769
 1537TIP3    H226247   0.440   6.102   6.811 -0.0329 -0.3150  0.4825
 1538TIP3   OH226248   4.152   5.704   7.885  0.2541  0.1188 -0.1487
 1538TIP3    H126249   4.104   5.773   7.838  1.2112  0.6829 -0.3205
 1538TIP3    H226250   4.126   5.623   7.841 -1.0364  0.3282  0.1817
 1539TIP3   OH226251   2.737   4.834   6.328  0.0520  0.3644 -0.3254
 1539TIP3    H126252   2.693   4.859   6.247  0.0556  2.0139  0.1537
 1539TIP3    H226253   2.828   4.861   6.315  0.2487 -0.1856 -0.1165
 1540TIP3   OH226254   0.693   0.885   1.134  0.5343  0.1662 -0.3137
 1540TIP3    H126255   0.679   0.801   1.178  0.0773 -0.5042 -1.6732
 1540TIP3    H226256   0.674   0.951   1.201 -1.8580 -0.7955  0.0438
 1541TIP3   OH226257   5.810   2.617   0.234 -0.7220  0.0592  0.4735
 1541TIP3    H126258   5.869   2.669   0.288 -0.5381  0.4085 -0.0511
 1541TIP3    H226259   5.867   2.578   0.167 -1.0863  0.4071 -0.0427
 1542TIP3   OH226260   0.130   0.475   0.972  0.4343  0.1834  0.1164
 1542TIP3    H126261   0.097   0.499   1.059 -0.6887  1.4308 -0.6201
 1542TIP3    H226262   0.065   0.414   0.937  0.7488 -0.1109  0.0343
 1543TIP3   OH226263   5.918   5.066   0.271 -0.0718 -0.4437  0.2087
 1543TIP3    H126264   5.843   5.102   0.317 -1.4065 -1.5796 -0.9856
 1543TIP3    H226265   5.901   4.972   0.265  1.1497 -0.6435 -0.6043
 1544TIP3   OH226266   2.797   2.606   0.277 -0.0132 -0.5803 -0.1512
 1544TIP3    H126267   2.869   2.643   0.328  0.5592 -0.8147 -0.7811
 1544TIP3    H226268   2.837   2.581   0.194 -0.8277 -0.7013 -0.5091
 1545TIP3   OH226269   0.047   0.213   6.022 -0.0676 -0.1925  0.0972
 1545TIP3    H126270   0.110   0.228   6.092  0.2499  0.0548 -0.2432
 1545TIP3    H226271   0.092   0.155   5.961  0.1209  0.6262 -0.5470
 1546TIP3   OH226272   2.703   5.517   8.299  0.2877  0.6073 -0.1800
 1546TIP3    H126273   2.722   5.496   8.390  0.6429 -0.1820 -0.4297
 1546TIP3    H226274   2.782   5.560   8.267  1.2188 -1.4656 -0.8342
 1547TIP3   OH226275   3.691   3.934   1.157  0.1245 -0.0053  0.5274
 1547TIP3    H126276   3.713   4.017   1.114 -1.2801  0.7455  1.1808
 1547TIP3    H226277   3.756   3.925   1.226  0.2253  0.6193  0.5250
 1548TIP3   OH226278   0.450   1.742   8.187  0.5523 -0.4253 -0.2469
 1548TIP3    H126279   0.481   1.703   8.105  1.4642  0.2776 -0.2571
 1548TIP3    H226280   0.531   1.760   8.236  0.0155 -0.8832  0.8321
 1549TIP3   OH226281   2.217   1.765   2.066 -0.1900  0.3775  0.1331
 1549TIP3    H126282   2.228   1.745   2.159 -1.3591 -0.7488  0.0535
 1549TIP3    H226283   2.292   1.725   2.023  0.2462  0.7289  0.5669
 1550TIP3   OH226284   3.219   5.559   8.557  0.1041  0.1253 -0.1775
 1550TIP3    H126285   3.269   5.533   8.480  0.2860 -2.6213  0.7505
 1550TIP3    H226286   3.253   5.646   8.581  1.1392  0.3219 -2.2132
 1551TIP3   OH226287   3.911   0.955   6.630 -0.0119  0.0777 -0.1702
 1551TIP3    H126288   3.904   1.023   6.563 -0.2053  0.6356  0.4078
 1551TIP3    H226289   3.951   0.881   6.585  0.5849  0.7167 -0.6998
 1552TIP3   OH226290   2.778   6.439   0.835  0.0376  0.2890  0.1595
 1552TIP3    H126291   2.830   6.430   0.756 -0.7080 -2.4173 -0.1574
 1552TIP3    H226292   2.778   6.532   0.854  0.4178  1.0273 -2.9063
 1553TIP3   OH226293   6.121   1.067   8.371  0.2088  0.2575  1.0149
 1553TIP3    H126294   6.110   1.118   8.451  0.0623  1.5864  0.1875
 1553TIP3    H226295   6.185   1.116   8.320 -0.7889  0.2529 -0.3017
 1554TIP3   OH226296   4.253   4.422   6.586  0.1185 -0.1582 -0.6528
 1554TIP3    H126297   4.307   4.343   6.591  1.2847  0.6313 -0.5394
 1554TIP3    H226298   4.163   4.389   6.584  0.5504 -1.4656  0.1643
 1555TIP3   OH226299   3.304   1.546   8.425 -0.2700  0.4279  0.4458
 1555TIP3    H126300   3.269   1.458   8.426 -0.4239  0.4000 -1.7750
 1555TIP3    H226301   3.393   1.536   8.390 -0.2851  1.1241  0.1785
 1556TIP3   OH226302   5.883   6.678   8.269 -0.4461 -0.3358  0.1063
 1556TIP3    H126303   5.844   6.674   8.181  0.1302 -1.5588 -0.1251
 1556TIP3    H226304   5.931   6.595   8.277 -1.7916 -0.9913  2.2056
 1557TIP3   OH226305   1.341   0.326   0.135  0.5251  0.2344  0.2298
 1557TIP3    H126306   1.389   0.316   0.052  1.0241  0.9591  0.4168
 1557TIP3    H226307   1.410   0.329   0.201  0.1259 -0.3281  0.6762
 1558TIP3   OH226308   0.466   5.363   7.049  0.0952  0.2346 -0.7518
 1558TIP3    H126309   0.559   5.366   7.027 -0.0053  0.0691 -1.2093
 1558TIP3    H226310   0.464   5.359   7.144  0.6893 -4.1261 -0.7156
 1559TIP3   OH226311   6.393   4.347   6.500 -0.1860 -0.2971  0.0203
 1559TIP3    H126312   6.336   4.362   6.576  0.1011  0.3282  0.1161
 1559TIP3    H226313   6.376   4.255   6.476 -2.3545  0.2582 -0.8735
 1560TIP3   OH226314   5.612   2.501   7.829 -0.0788  0.0333 -0.6339
 1560TIP3    H126315   5.678   2.571   7.831  0.3105 -0.3372 -0.2682
 1560TIP3    H226316   5.637   2.447   7.754  1.2834 -1.2724  0.6772
 1561TIP3   OH226317   4.172   5.393   7.388 -0.1832  0.0520  0.5952
 1561TIP3    H126318   4.172   5.384   7.292  0.5127 -0.1406  0.6077
 1561TIP3    H226319   4.263   5.414   7.410 -0.7225  2.0507  1.0506
 1562TIP3   OH226320   1.965   1.181   7.242  0.0840 -0.3611 -0.5531
 1562TIP3    H126321   2.006   1.263   7.216  0.2253 -1.1674 -3.1769
 1562TIP3    H226322   2.038   1.127   7.274  0.3185 -0.1516 -0.7259
 1563TIP3   OH226323   3.852   2.118   0.595  0.2391 -0.4834 -0.1402
 1563TIP3    H126324   3.823   2.080   0.512  0.2435 -3.0016  0.9076
 1563TIP3    H226325   3.774   2.160   0.632 -0.2266 -0.9476 -0.5837
 1564TIP3   OH226326   4.412   3.739   0.763 -0.3111 -0.0857 -0.2827
 1564TIP3    H126327   4.362   3.662   0.788 -0.2335  0.0622  0.3352
 1564TIP3    H226328   4.375   3.810   0.816  0.2184  0.1231 -0.1811
 1565TIP3   OH226329   5.250   2.813   6.313  0.3088  0.3192 -0.1288
 1565TIP3    H126330   5.214   2.832   6.226  1.6655 -1.2496 -1.1018
 1565TIP3    H226331   5.325   2.872   6.321  0.7379 -0.1727 -0.4428
 1566TIP3   OH226332   5.813   2.400   0.841  0.2830  0.2692 -0.5541
 1566TIP3    H126333   5.759   2.473   0.872 -1.6543 -1.4093  0.2715
 1566TIP3    H226334   5.755   2.350   0.784  1.4811 -0.7443 -0.9182
 1567TIP3   OH226335   5.049   6.102   6.649  0.0977  0.0895 -0.3917
 1567TIP3    H126336   5.101   6.168   6.602 -0.1190 -0.2413 -1.1155
 1567TIP3    H226337   4.972   6.089   6.593 -0.3609 -0.0262  0.2612
 1568TIP3   OH226338   0.093   2.786   8.508 -0.7320  0.1821 -0.0948
 1568TIP3    H126339   0.077   2.878   8.483  0.0534  0.8987  1.8623
 1568TIP3    H226340   0.006   2.746   8.508 -1.1106  0.9672 -0.8014
 1569TIP3   OH226341   4.981   1.510   8.629  0.6052 -0.1499  0.6599
 1569TIP3    H126342   4.948   1.455   8.558  0.3708  0.8572 -0.0331
 1569TIP3    H226343   5.044   1.569   8.586  0.2555  0.6548  1.2330
 1570TIP3   OH226344   6.728   4.762   7.166  0.3115 -0.2368 -0.3917
 1570TIP3    H126345   6.639   4.785   7.141  0.6124  0.9909 -0.4011
 1570TIP3    H226346   6.759   4.836   7.218 -0.0034 -2.3013  3.0928
 1571TIP3   OH226347   1.558   0.377   7.169 -0.2865 -0.6412  0.3053
 1571TIP3    H126348   1.643   0.419   7.153 -0.5695  0.6241  1.8158
 1571TIP3    H226349   1.542   0.324   7.091  0.5308  1.3996 -1.3680
 1572TIP3   OH226350   0.777   4.730   7.053 -0.4003 -0.5458  0.0305
 1572TIP3    H126351   0.777   4.813   7.007 -0.7713 -0.2589  0.5413
 1572TIP3    H226352   0.761   4.665   6.985 -1.1911 -0.1093 -0.2082
 1573TIP3   OH226353   6.311   0.160   6.894  0.2146  0.4536 -0.0460
 1573TIP3    H126354   6.271   0.245   6.910  0.9091  0.3931  2.2834
 1573TIP3    H226355   6.324   0.157   6.799  0.0549  2.8819 -0.1868
 1574TIP3   OH226356   1.405   4.007   6.354 -0.1811 -0.0782  0.4331
 1574TIP3    H126357   1.451   3.971   6.278 -1.3724 -1.4776  0.3373
 1574TIP3    H226358   1.319   3.966   6.352 -1.8674  3.0987  0.0659
 1575TIP3   OH226359   3.574   0.503   1.801 -0.1713 -0.4687  0.3035
 1575TIP3    H126360   3.562   0.589   1.841 -1.5938 -1.2946  1.7636
 1575TIP3    H226361   3.570   0.520   1.707 -0.5978  1.0344  0.5632
 1576TIP3   OH226362   0.440   2.643   7.791  0.4887 -0.0293  0.8389
 1576TIP3    H126363   0.516   2.605   7.746  0.9414  1.7402  0.0203
 1576TIP3    H226364   0.409   2.712   7.732 -2.2477 -1.1497  0.7996
 1577TIP3   OH226365   2.078   2.441   7.981  0.8405  0.9501  0.5475
 1577TIP3    H126366   2.020   2.463   8.054 -0.9858 -1.6764  0.0397
 1577TIP3    H226367   2.053   2.500   7.911  0.6191  1.5728  1.1421
 1578TIP3   OH226368   5.513   5.646   1.915  0.0432  0.4433 -0.5663
 1578TIP3    H126369   5.423   5.623   1.938 -0.1580 -0.4185 -2.0450
 1578TIP3    H226370   5.508   5.738   1.890 -0.8761 -0.0597 -2.4769
 1579TIP3   OH226371   1.643   5.543   8.216  0.0362  0.0311  0.6418
 1579TIP3    H126372   1.579   5.523   8.284 -2.7610 -0.5109 -1.9283
 1579TIP3    H226373   1.718   5.486   8.236 -0.8900 -0.5012  2.8685
 1580TIP3   OH226374   5.535   5.159   1.323  0.1214 -0.2890 -0.0525
 1580TIP3    H126375   5.516   5.230   1.261 -1.5048 -0.3018  0.3787
 1580TIP3    H226376   5.583   5.202   1.394  1.4474 -0.1541 -0.9880
 1581TIP3   OH226377   2.364   1.094   0.380  0.5084  0.5223 -0.4505
 1581TIP3    H126378   2.372   1.008   0.339  3.9837  0.3346  0.3702
 1581TIP3    H226379   2.284   1.131   0.340 -1.6929 -3.3242 -0.1343
 1582TIP3   OH226380   0.773   2.019   1.316  0.3662 -0.3563  0.1451
 1582TIP3    H126381   0.725   1.983   1.391 -0.0807 -0.3075 -0.1162
 1582TIP3    H226382   0.783   2.112   1.336 -1.1958  0.0023 -0.5990
 1583TIP3   OH226383   4.058   3.754   1.757  0.5012 -0.8229 -0.6242
 1583TIP3    H126384   4.141   3.713   1.782  0.9176 -1.6728 -3.1257
 1583TIP3    H226385   4.084   3.830   1.705 -0.2817 -0.8053 -0.9982
 1584TIP3   OH226386   5.706   4.697   8.398 -0.2120 -0.1552 -0.5423
 1584TIP3    H126387   5.616   4.723   8.416 -0.0933 -0.5900  0.8717
 1584TIP3    H226388   5.700   4.638   8.323 -1.1676 -0.5456 -0.1760
 1585TIP3   OH226389   1.170   4.408   5.979 -0.4167 -0.2789 -0.6186
 1585TIP3    H126390   1.184   4.488   5.929  0.2956 -0.3720 -0.5831
 1585TIP3    H226391   1.095   4.366   5.938 -1.1948  0.7035 -0.2590
 1586TIP3   OH226392   5.600   0.589   7.911  0.1085  0.3791  0.6869
 1586TIP3    H126393   5.672   0.535   7.944 -1.5283 -2.7446 -0.4855
 1586TIP3    H226394   5.630   0.619   7.825  0.4932  0.1830  0.7517
 1587TIP3   OH226395   0.533   3.377   2.111  0.3677  0.5451 -0.3590
 1587TIP3    H126396   0.613   3.401   2.159  0.1995 -0.9296  0.7366
 1587TIP3    H226397   0.492   3.461   2.089  1.7338  1.3076 -0.1297
 1588TIP3   OH226398   3.907   6.506   8.651  0.2027 -0.1539  0.1284
 1588TIP3    H126399   3.939   6.518   8.562  1.0334  0.3127  0.4796
 1588TIP3    H226400   3.930   6.587   8.696 -1.3261  0.1306  0.4574
 1589TIP3   OH226401   0.897   2.908   8.189  0.1991  0.3708 -0.0571
 1589TIP3    H126402   0.939   2.907   8.103 -0.5853 -0.0531 -0.4459
 1589TIP3    H226403   0.832   2.838   8.184  0.0176  0.4735  0.8176
 1590TIP3   OH226404   4.414   2.688   0.309  0.2423  0.2730 -0.0971
 1590TIP3    H126405   4.347   2.706   0.243 -0.0781  1.3500  0.5093
 1590TIP3    H226406   4.378   2.720   0.391  1.0050 -0.2446  0.4582
 1591TIP3   OH226407   2.337   0.429   0.634 -0.5734  0.0219  0.0626
 1591TIP3    H126408   2.293   0.507   0.599 -0.5444  0.4603  0.9684
 1591TIP3    H226409   2.333   0.440   0.729 -0.4062 -1.0027  0.1982
 1592TIP3   OH226410   6.836   3.967   7.645  0.2670  0.0631  0.1236
 1592TIP3    H126411   6.916   3.933   7.606 -0.0348  0.4730 -0.8854
 1592TIP3    H226412   6.811   4.040   7.589 -0.2942  0.5502  0.9871
 1593TIP3   OH226413   2.032   2.450   6.428 -0.6789 -0.3866 -0.8450
 1593TIP3    H126414   2.079   2.430   6.347 -1.1768 -1.6223 -0.8573
 1593TIP3    H226415   2.049   2.374   6.484 -0.2252  0.5179  0.2709
 1594TIP3   OH226416   1.915   0.112   6.853  0.3443  0.1177  0.2969
 1594TIP3    H126417   1.875   0.026   6.840 -0.0615  0.3302  0.1365
 1594TIP3    H226418   1.876   0.143   6.935 -1.6809  1.3603 -1.0566
 1595TIP3   OH226419   0.031   3.926   0.021  0.1156 -0.2673  0.8475
 1595TIP3    H126420  -0.010   3.962  -0.058  2.6064  2.2241  0.5380
 1595TIP3    H226421   0.125   3.938   0.006  0.7331 -1.1856  3.5443
 1596TIP3   OH226422   3.219   0.065   2.171 -0.2514 -0.8466  0.1260
 1596TIP3    H126423   3.220   0.042   2.264 -2.4580 -0.8568  0.1962
 1596TIP3    H226424   3.286   0.010   2.132 -0.0675 -1.6638  1.5393
 1597TIP3   OH226425   3.895   2.017   0.930  0.2216 -0.0783  0.1640
 1597TIP3    H126426   3.800   2.017   0.941  0.3747 -0.1348  1.6351
 1597TIP3    H226427   3.930   2.036   1.017  1.5846 -0.9804 -0.1536
 1598TIP3   OH226428   6.842   4.097   7.883 -0.7869  0.4968 -0.4622
 1598TIP3    H126429   6.828   4.067   7.793 -0.6713  4.1868 -1.8857
 1598TIP3    H226430   6.811   4.187   7.883  0.7525  1.1560  2.8105
 1599TIP3   OH226431   2.485   3.988   7.419  0.5648 -0.1329 -0.0384
 1599TIP3    H126432   2.543   3.920   7.385  1.3185  0.2428  0.4626
 1599TIP3    H226433   2.532   4.023   7.495  0.3187  1.1176 -0.4437
 1600TIP3   OH226434   2.632   2.529   6.549  0.1149  0.0023 -0.3913
 1600TIP3    H126435   2.662   2.446   6.585 -1.0556  0.1781  1.0920
 1600TIP3    H226436   2.540   2.515   6.527  0.1556  0.6318 -1.0072
 1601TIP3   OH226437   1.857   2.633   6.653  0.8576  0.1073  0.1877
 1601TIP3    H126438   1.787   2.655   6.715 -1.2774 -1.8920 -1.3573
 1601TIP3    H226439   1.928   2.599   6.708 -0.4997 -0.5118  1.6118
 1602TIP3   OH226440   2.498   3.566   0.092 -0.1330  0.0778  0.2692
 1602TIP3    H126441   2.536   3.645   0.133  1.5327 -0.8326  0.5821
 1602TIP3    H226442   2.404   3.583   0.090  0.1722  2.0648  0.3469
 1603TIP3   OH226443   4.411   2.030   6.215 -0.2452 -0.0544  0.2832
 1603TIP3    H126444   4.324   2.047   6.180 -1.1139 -2.8517  0.8263
 1603TIP3    H226445   4.405   2.054   6.307 -0.2879  0.2624  0.1964
 1604TIP3   OH226446   0.905   1.996   8.088  0.2827 -0.4925 -0.0330
 1604TIP3    H126447   0.864   2.029   8.168 -0.0817 -1.8471  0.3523
 1604TIP3    H226448   0.880   2.060   8.021  1.2329  1.0702  1.0537
 1605TIP3   OH226449   2.684   0.818   7.549  0.3477 -0.0334  0.2610
 1605TIP3    H126450   2.702   0.908   7.572 -1.5409  0.5347 -0.2477
 1605TIP3    H226451   2.661   0.775   7.632 -2.8646  1.0835  0.0978
 1606TIP3   OH226452   6.216   0.264   7.756 -0.4017 -0.1260 -0.1080
 1606TIP3    H126453   6.157   0.189   7.752 -0.3557 -0.1293 -1.4207
 1606TIP3    H226454   6.184   0.323   7.688  0.9545 -0.0329 -0.7006
 1607TIP3   OH226455   5.688   2.105   0.877  0.1797  0.0364  0.2670
 1607TIP3    H126456   5.621   2.059   0.826  0.8464 -0.3265 -0.2989
 1607TIP3    H226457   5.679   2.070   0.966  0.3193 -0.8018 -0.0419
 1608TIP3   OH226458   1.715   5.396   0.539  0.4187 -0.4621 -0.3247
 1608TIP3    H126459   1.722   5.302   0.526  0.8384 -1.0563  3.2726
 1608TIP3    H226460   1.774   5.434   0.473 -0.7397 -2.5445 -2.7167
 1609TIP3   OH226461   2.940   1.223   7.352 -0.6074 -0.5760 -0.1404
 1609TIP3    H126462   2.990   1.301   7.377  0.9236 -1.5176 -0.1705
 1609TIP3    H226463   2.858   1.230   7.402  0.1632  0.2654  1.0497
 1610TIP3   OH226464   1.892   4.167   2.070  0.1043 -0.1390 -0.0932
 1610TIP3    H126465   1.880   4.074   2.055 -0.3021  0.0113 -0.7524
 1610TIP3    H226466   1.818   4.208   2.024  1.4398  0.6470 -1.6226
 1611TIP3   OH226467   6.593   3.985   8.534  0.0610 -0.1840 -0.3123
 1611TIP3    H126468   6.679   4.012   8.501  0.5229 -3.4400 -2.2486
 1611TIP3    H226469   6.547   3.954   8.456 -1.5966 -1.5787  1.1500
 1612TIP3   OH226470   6.754   0.020   5.818 -0.0404 -0.1984  1.1722
 1612TIP3    H126471   6.723   0.110   5.820  1.6833  0.4390  0.7612
 1612TIP3    H226472   6.849   0.026   5.830  0.3938 -1.7788 -0.8629
 1613TIP3   OH226473   2.525   2.209   1.582  0.6630  0.5580  0.0969
 1613TIP3    H126474   2.557   2.121   1.603  0.0444  0.0155 -1.1445
 1613TIP3    H226475   2.597   2.267   1.608  2.2339 -0.5396 -1.5205
 1614TIP3   OH226476   0.489   4.442   1.399  0.1517  0.3124 -0.4654
 1614TIP3    H126477   0.507   4.350   1.416  0.4285  0.4854  0.1873
 1614TIP3    H226478   0.508   4.453   1.305  2.7038  0.2989 -0.0244
 1615TIP3   OH226479   1.195   3.717   1.848  0.0334 -0.2546  0.5683
 1615TIP3    H126480   1.174   3.651   1.914 -2.0172  0.4174  0.6718
 1615TIP3    H226481   1.113   3.767   1.837  0.6288  0.3578 -1.6761
 1616TIP3   OH226482   2.679   2.139   1.820  0.6295  0.1733 -0.5489
 1616TIP3    H126483   2.746   2.078   1.787 -0.3158 -0.8098 -0.7348
 1616TIP3    H226484   2.728   2.216   1.847  1.8815 -0.6776 -0.2905
 1617TIP3   OH226485   4.356   2.262   5.743 -0.6290 -0.0073 -0.1365
 1617TIP3    H126486   4.291   2.252   5.812 -0.5892 -1.3371 -0.2652
 1617TIP3    H226487   4.306   2.271   5.663 -0.6704 -0.7143 -0.1966
 1618TIP3   OH226488   2.204   1.514   0.282 -0.2680 -0.1829 -0.1853
 1618TIP3    H126489   2.261   1.585   0.311 -0.5805 -0.1772  0.4347
 1618TIP3    H226490   2.150   1.553   0.213 -0.2204  0.0918 -0.0683
 1619TIP3   OH226491   1.215   4.000   0.272 -0.0826 -0.0116  0.4659
 1619TIP3    H126492   1.219   3.991   0.367 -2.2473  1.2896  0.7459
 1619TIP3    H226493   1.157   3.929   0.243  1.3773 -1.0446 -0.0536
 1620TIP3   OH226494   6.485   0.345   0.261  0.4112 -0.0105 -0.0789
 1620TIP3    H126495   6.558   0.371   0.205  0.7691 -1.4779 -0.3421
 1620TIP3    H226496   6.419   0.414   0.248  1.8927  1.5840  0.5155
 1621TIP3   OH226497   0.746   0.110   7.482  0.7013  0.0977  0.2353
 1621TIP3    H126498   0.651   0.098   7.473  0.9257 -1.9315  0.1924
 1621TIP3    H226499   0.783   0.061   7.409  1.9204 -2.5943  2.4969
 1622TIP3   OH226500   4.618   2.515   7.806  0.4838 -0.1030 -0.0404
 1622TIP3    H126501   4.569   2.493   7.727 -0.2563 -0.5235  0.5180
 1622TIP3    H226502   4.587   2.452   7.872 -0.8106  1.8208  1.2960
 1623TIP3   OH226503   3.547   6.868   1.220  0.1154  0.1647 -0.4234
 1623TIP3    H126504   3.636   6.890   1.246 -0.8266  1.8843  1.5717
 1623TIP3    H226505   3.558   6.799   1.154  3.0230  2.3068 -2.4296
 1624TIP3   OH226506   1.185   0.546   7.966  0.3580 -0.1780 -0.0352
 1624TIP3    H126507   1.262   0.516   7.917 -0.0966 -0.9056 -0.3284
 1624TIP3    H226508   1.136   0.466   7.984 -0.2397  0.2578  0.3063
 1625TIP3   OH226509   0.498   2.990   8.223  0.0251  0.0375 -0.1694
 1625TIP3    H126510   0.464   2.901   8.234 -1.2833  0.2151 -2.1612
 1625TIP3    H226511   0.493   3.006   8.129  1.9842  1.5817 -0.0841
 1626TIP3   OH226512   3.744   5.284   7.266 -0.4711 -0.2542  0.6069
 1626TIP3    H126513   3.655   5.250   7.260 -0.4423 -0.7953  2.5931
 1626TIP3    H226514   3.732   5.374   7.296 -0.4336  0.8850 -2.4006
 1627TIP3   OH226515   6.259   3.643   8.601  0.5034 -0.6845 -0.3828
 1627TIP3    H126516   6.354   3.641   8.614  0.5180  1.2476  0.2381
 1627TIP3    H226517   6.235   3.735   8.616 -1.4289 -1.0659 -0.8331
 1628TIP3   OH226518   5.225   4.652   5.988  0.1731 -0.2500 -0.0493
 1628TIP3    H126519   5.134   4.629   5.969  0.3735  0.3152 -1.8273
 1628TIP3    H226520   5.232   4.745   5.965  1.5043 -0.5934 -1.1572
 1629TIP3   OH226521   6.014   6.462   7.850  0.1205  0.2056  0.1989
 1629TIP3    H126522   6.056   6.516   7.783 -0.4146  1.0314  0.5192
 1629TIP3    H226523   6.070   6.385   7.857  1.5246  1.2164  0.5296
 1630TIP3   OH226524   5.428   4.493   6.729 -0.4694 -0.5435 -0.6170
 1630TIP3    H126525   5.498   4.450   6.680  2.8787  1.5482  1.8573
 1630TIP3    H226526   5.385   4.422   6.777  1.4984 -1.7347 -0.5095
 1631TIP3   OH226527   0.876   4.854   0.826 -0.2840 -0.1713 -0.1002
 1631TIP3    H126528   0.857   4.947   0.811 -0.2392 -0.2503 -0.6488
 1631TIP3    H226529   0.971   4.850   0.834 -0.1687 -0.3670 -1.4700
 1632TIP3   OH226530   2.963   0.667   7.487  0.1029  0.1215  0.6404
 1632TIP3    H126531   2.909   0.745   7.496  0.8365  0.6009  0.9209
 1632TIP3    H226532   2.960   0.646   7.394  0.5278  0.9381  0.4365
 1633TIP3   OH226533   0.665   6.824   1.652 -0.2954  0.2307 -0.2301
 1633TIP3    H126534   0.718   6.808   1.730  1.0174  2.1613 -0.6669
 1633TIP3    H226535   0.723   6.872   1.593 -1.8081  0.3195 -1.7128
 1634TIP3   OH226536   4.556   1.054   8.412  0.2815 -0.5788 -0.1180
 1634TIP3    H126537   4.482   1.059   8.472 -2.1023 -0.2539 -2.8716
 1634TIP3    H226538   4.544   0.971   8.365  1.5332 -0.4232 -0.7572
 1635TIP3   OH226539   4.575   0.525   0.734 -0.4123 -0.2978 -0.2068
 1635TIP3    H126540   4.665   0.505   0.710 -0.3447 -1.2931  0.8065
 1635TIP3    H226541   4.575   0.620   0.749  0.5621 -0.3390  0.1387
 1636TIP3   OH226542   4.350   5.596   1.529 -0.3607 -0.3352  0.3282
 1636TIP3    H126543   4.287   5.596   1.602  0.5529 -1.8926  1.1644
 1636TIP3    H226544   4.390   5.683   1.532 -0.9785 -0.0621  1.1101
 1637TIP3   OH226545   2.276   4.837   7.403 -0.0670 -0.9639  0.4122
 1637TIP3    H126546   2.283   4.765   7.341  0.2242 -0.9560  0.4312
 1637TIP3    H226547   2.185   4.837   7.431 -0.6373  0.1073 -1.3146
 1638TIP3   OH226548   1.994   1.683   6.397 -0.2124  0.1491 -0.0192
 1638TIP3    H126549   2.034   1.710   6.314 -0.2456 -3.6508 -1.4672
 1638TIP3    H226550   1.923   1.625   6.371 -1.3050  0.1174  2.7083
 1639TIP3   OH226551   1.278   3.155   0.447  0.0149 -0.4926 -0.5216
 1639TIP3    H126552   1.217   3.124   0.515  1.0078 -1.7732 -0.1867
 1639TIP3    H226553   1.337   3.214   0.494 -0.0705 -0.3918 -0.5406
 1640TIP3   OH226554   6.867   0.978   7.466 -0.4696  0.2072  0.0633
 1640TIP3    H126555   6.949   1.005   7.423 -0.4470  1.1436  0.6775
 1640TIP3    H226556   6.829   0.914   7.406  0.6533 -0.1549 -0.2909
 1641TIP3   OH226557   3.345   0.807   6.415 -0.6945  0.5899 -0.1890
 1641TIP3    H126558   3.383   0.860   6.344  0.2013  1.6585  1.0541
 1641TIP3    H226559   3.356   0.860   6.494  0.5809 -1.5999  1.1947
 1642TIP3   OH226560   3.259   4.216   7.688 -0.1871  0.0475 -0.8123
 1642TIP3    H126561   3.256   4.169   7.604 -1.2256 -0.2661 -0.6082
 1642TIP3    H226562   3.174   4.260   7.694  0.1912  0.7227 -0.2850
 1643TIP3   OH226563   4.532   1.671   1.067 -0.3673 -0.4196 -0.1540
 1643TIP3    H126564   4.526   1.689   1.160 -0.0455  0.8694 -0.3710
 1643TIP3    H226565   4.560   1.753   1.027 -1.0851 -0.7623 -1.4636
 1644TIP3   OH226566   6.604   0.488   1.146  0.3485  0.1683  0.3043
 1644TIP3    H126567   6.582   0.569   1.192  0.0892  0.4804 -0.3611
 1644TIP3    H226568   6.623   0.515   1.056 -0.8856 -0.6254 -0.2251
 1645TIP3   OH226569   0.652   6.175   0.081  0.0787 -0.3290 -0.4263
 1645TIP3    H126570   0.656   6.257   0.130  0.2883 -0.8105  0.3825
 1645TIP3    H226571   0.587   6.191   0.013 -0.9721  0.0462  0.6180
 1646TIP3   OH226572   2.239   5.172   6.099 -0.0472  0.0209  0.3477
 1646TIP3    H126573   2.218   5.103   6.161 -0.6446 -1.5820 -1.5449
 1646TIP3    H226574   2.293   5.233   6.149 -0.2590 -1.3279  2.3384
 1647TIP3   OH226575   0.701   6.150   7.631 -0.0627 -0.0200  0.6082
 1647TIP3    H126576   0.650   6.210   7.576  1.3275 -0.8759 -1.7651
 1647TIP3    H226577   0.697   6.067   7.585  4.2795  0.0968 -0.3968
 1648TIP3   OH226578   4.019   1.718   7.269 -0.0292 -0.0553 -0.7773
 1648TIP3    H126579   3.939   1.695   7.222 -0.5679 -1.2009  0.6217
 1648TIP3    H226580   3.991   1.731   7.360  1.2126  0.5133 -0.4571
 1649TIP3   OH226581   5.654   4.924   7.154 -0.6672  0.6455  0.6609
 1649TIP3    H126582   5.684   4.984   7.086 -0.4197 -0.2953 -0.0845
 1649TIP3    H226583   5.664   4.837   7.115 -3.1764  0.2074  0.8562
 1650TIP3   OH226584   5.015   2.087   2.563  0.3500 -0.1820  0.3838
 1650TIP3    H126585   5.102   2.122   2.582  0.6773 -1.0519  0.5398
 1650TIP3    H226586   5.020   2.061   2.471  1.0524 -2.4229  1.0014
 1651TIP3   OH226587   1.130   5.250   7.199  0.0906  0.1762 -0.4873
 1651TIP3    H126588   1.128   5.337   7.239 -0.9037 -0.4882  1.0004
 1651TIP3    H226589   1.065   5.200   7.248 -0.7161 -0.8984 -2.5299
 1652TIP3   OH226590   4.261   4.904   8.647  0.7443 -0.2124 -0.0536
 1652TIP3    H126591   4.254   4.907   8.552 -0.4972  2.6844  0.0021
 1652TIP3    H226592   4.327   4.970   8.668 -0.2890  0.4907  1.1121
 1653TIP3   OH226593   2.327   0.825   6.939 -0.2403 -0.0032 -0.5509
 1653TIP3    H126594   2.369   0.754   6.890 -0.0949  0.6244 -1.3698
 1653TIP3    H226595   2.238   0.794   6.953  0.4112 -1.2743  1.0509
 1654TIP3   OH226596   0.174   2.605   7.221 -0.0203 -0.0031  0.1502
 1654TIP3    H126597   0.168   2.552   7.141  1.1209  0.6422 -0.3876
 1654TIP3    H226598   0.209   2.690   7.191 -0.0122  0.4041  1.2665
 1655TIP3   OH226599   5.255   0.264   1.060 -0.3005  0.3111 -0.2950
 1655TIP3    H126600   5.331   0.243   1.006  0.7384  0.9020  0.8919
 1655TIP3    H226601   5.264   0.358   1.078 -0.4460  0.0740  1.1421
 1656TIP3   OH226602   2.400   5.926   0.564  0.3066 -0.5098 -0.0379
 1656TIP3    H126603   2.350   5.869   0.505 -0.5743  0.2576 -0.0601
 1656TIP3    H226604   2.462   5.971   0.507 -1.4160  1.2192 -0.6869
 1657TIP3   OH226605   4.242   2.077   0.317  0.6594  0.2080 -0.3458
 1657TIP3    H126606   4.276   2.142   0.379  1.0570 -0.8710  0.5883
 1657TIP3    H226607   4.160   2.115   0.286 -0.9225 -0.3071  2.8110
 1658TIP3   OH226608   1.304   6.137   6.831  0.2147  0.7026 -0.0023
 1658TIP3    H126609   1.285   6.079   6.757 -0.9753  0.2090  0.6551
 1658TIP3    H226610   1.394   6.166   6.817 -0.2200  1.2276 -2.0397
 1659TIP3   OH226611   1.298   1.355   1.542  0.2824 -0.2868 -0.0156
 1659TIP3    H126612   1.273   1.272   1.501  0.6907 -0.8206  0.7991
 1659TIP3    H226613   1.343   1.329   1.622  0.3617  0.7301  0.2729
 1660TIP3   OH226614   1.248   6.653   7.176  0.4806 -0.2386 -0.5487
 1660TIP3    H126615   1.276   6.725   7.233 -1.0019 -1.0830  1.3710
 1660TIP3    H226616   1.299   6.578   7.207 -0.6773 -0.8102  0.0297
 1661TIP3   OH226617   0.005   5.834   0.862 -0.5513  0.3454 -0.2012
 1661TIP3    H126618   0.048   5.845   0.777  0.8390 -1.1696  0.2590
 1661TIP3    H226619  -0.059   5.906   0.865  1.1675  2.0490 -1.4019
 1662TIP3   OH226620   6.118   2.370   7.128  0.4284  0.3710 -0.3602
 1662TIP3    H126621   6.197   2.339   7.085 -0.8403 -2.2856 -0.9798
 1662TIP3    H226622   6.118   2.326   7.213 -1.5046 -1.7498 -1.3259
 1663TIP3   OH226623   6.420   0.062   0.887 -0.7996 -0.1211 -0.3090
 1663TIP3    H126624   6.326   0.053   0.905 -0.6724  0.2575  0.5773
 1663TIP3    H226625   6.463   0.031   0.966 -0.1047 -2.1079 -1.4135
 1664TIP3   OH226626   4.757   3.571   1.486  0.8499  0.0395  0.2228
 1664TIP3    H126627   4.775   3.493   1.434 -1.7847 -0.5718  0.0842
 1664TIP3    H226628   4.772   3.644   1.426 -0.8926 -0.5995 -1.0621
 1665TIP3   OH226629   6.427   4.201   8.596  0.0543  0.1170 -0.6212
 1665TIP3    H126630   6.505   4.256   8.595  0.1132  0.0296 -0.8622
 1665TIP3    H226631   6.456   4.116   8.562  0.5116 -0.8110  1.8384
 1666TIP3   OH226632   2.756   0.234   1.718 -0.2761 -0.1384  0.2889
 1666TIP3    H126633   2.806   0.222   1.638 -1.6353 -0.7888 -0.5008
 1666TIP3    H226634   2.712   0.319   1.706  0.5883  0.4270  0.9742
 1667TIP3   OH226635   2.581   6.061   8.152  0.3263 -0.5712  0.1908
 1667TIP3    H126636   2.510   6.030   8.208 -1.4529  0.8670 -1.1394
 1667TIP3    H226637   2.559   6.029   8.065  1.0002  0.3897 -0.3529
 1668TIP3   OH226638   1.204   4.326   8.113  1.0380  0.1253 -0.0143
 1668TIP3    H126639   1.187   4.328   8.207  0.9389 -1.5145  0.0268
 1668TIP3    H226640   1.127   4.368   8.074  1.7881  2.2772  0.6626
 1669TIP3   OH226641   4.466   5.199   1.969 -0.1352 -0.3467  0.2598
 1669TIP3    H126642   4.451   5.119   2.020 -0.2971 -0.2605  0.3470
 1669TIP3    H226643   4.546   5.236   2.007 -0.1585 -0.3742  0.3351
 1670TIP3   OH226644   6.160   5.126   7.475  0.4315  0.4461 -0.0943
 1670TIP3    H126645   6.094   5.111   7.543 -0.0042  1.2867 -0.3200
 1670TIP3    H226646   6.142   5.058   7.410 -0.7990  1.1930 -0.5754
 1671TIP3   OH226647   2.667   1.390   6.480 -0.6237  0.1843 -0.8751
 1671TIP3    H126648   2.676   1.466   6.422 -0.0512  1.3033  0.6158
 1671TIP3    H226649   2.732   1.404   6.549  0.4160 -2.3499 -1.2284
 1672TIP3   OH226650   0.031   5.625   0.266  0.5372 -0.2212 -0.1465
 1672TIP3    H126651   0.040   5.569   0.189 -0.5559  0.3514 -0.7153
 1672TIP3    H226652   0.034   5.565   0.340 -0.0856 -0.9696 -0.7146
 1673TIP3   OH226653   5.458   0.705   0.371 -0.0184  0.2598 -0.5718
 1673TIP3    H126654   5.389   0.715   0.305 -1.0910 -0.3015  0.4293
 1673TIP3    H226655   5.487   0.614   0.362 -0.3455  0.1086 -0.0997
 1674TIP3   OH226656   3.190   2.855   2.208  0.1175  0.0568  0.1816
 1674TIP3    H126657   3.168   2.831   2.118 -1.0973 -0.2930  0.5583
 1674TIP3    H226658   3.155   2.943   2.218 -0.0670 -0.0478  0.4350
 1675TIP3   OH226659   6.261   2.090   1.018 -0.0302  0.2217  0.3332
 1675TIP3    H126660   6.251   2.108   0.925 -0.0152 -0.0112  0.2879
 1675TIP3    H226661   6.199   2.019   1.036 -0.3671  0.5725  0.5936
 1676TIP3   OH226662   2.503   5.753   6.959 -0.2174 -0.6033  0.0004
 1676TIP3    H126663   2.472   5.673   6.918  0.1601 -0.8577  0.1995
 1676TIP3    H226664   2.449   5.822   6.922 -0.4756 -0.9377 -0.2514
 1677TIP3   OH226665   2.212   1.430   8.678 -0.4571  0.1991 -0.1266
 1677TIP3    H126666   2.255   1.461   8.598 -1.8336  0.4865 -0.7916
 1677TIP3    H226667   2.281   1.383   8.726  1.2011  2.5266 -0.0361
 1678TIP3   OH226668   2.039   1.024   7.576 -0.5793  0.5843  0.6083
 1678TIP3    H126669   2.106   1.074   7.529  1.1253 -1.1892  1.0275
 1678TIP3    H226670   2.032   0.941   7.528 -0.4105 -0.3746  2.1667
 1679TIP3   OH226671   6.223   2.783   6.135  0.1447  0.5828 -0.1408
 1679TIP3    H126672   6.292   2.794   6.071  0.3407  1.2257  0.1786
 1679TIP3    H226673   6.239   2.696   6.172  2.0249  1.4830  1.3626
 1680TIP3   OH226674   4.839   6.501   8.059  0.3682  0.1834  0.4749
 1680TIP3    H126675   4.881   6.559   7.996  1.0088  1.0245  1.6494
 1680TIP3    H226676   4.745   6.509   8.041  0.5872 -1.1080 -1.6441
 1681TIP3   OH226677   2.688   0.674   1.424  0.5882 -0.1121  0.2766
 1681TIP3    H126678   2.595   0.677   1.445  0.3655 -0.0182 -0.6850
 1681TIP3    H226679   2.732   0.698   1.506 -0.2486  0.4764  0.5672
 1682TIP3   OH226680   4.843   3.609   8.035 -0.2157  0.1006 -0.7952
 1682TIP3    H126681   4.910   3.677   8.039  0.0512 -0.1076 -1.5684
 1682TIP3    H226682   4.784   3.637   7.965 -0.8667  0.2041 -0.2260
 1683TIP3   OH226683   4.414   5.585   7.697 -0.4492  0.3379 -0.2105
 1683TIP3    H126684   4.411   5.514   7.761 -1.7007  1.4099  0.9917
 1683TIP3    H226685   4.413   5.541   7.612 -0.8120 -1.0932  0.5014
 1684TIP3   OH226686   0.237   1.715   7.082  0.2621 -0.0802 -0.0991
 1684TIP3    H126687   0.204   1.771   7.152  1.1159  0.2191  0.0671
 1684TIP3    H226688   0.197   1.751   7.002 -0.1696 -0.0041  0.1477
 1685TIP3   OH226689   1.026   1.506   6.765  0.0576  0.5342 -0.4452
 1685TIP3    H126690   1.017   1.417   6.733 -1.0972  1.2195 -2.1517
 1685TIP3    H226691   1.086   1.499   6.839 -0.5412 -1.7397 -0.1064
 1686TIP3   OH226692   4.575   0.343   7.174  0.1894  0.0404 -0.6080
 1686TIP3    H126693   4.480   0.334   7.168  0.1857 -0.3113 -0.1214
 1686TIP3    H226694   4.598   0.300   7.256  1.0195 -2.0456 -1.8358
 1687TIP3   OH226695   4.887   0.593   1.146 -0.4762  0.1697  0.0874
 1687TIP3    H126696   4.901   0.667   1.206  1.0878  0.5602 -0.7010
 1687TIP3    H226697   4.932   0.620   1.065  0.3466 -1.7454 -0.1358
 1688TIP3   OH226698   0.304   5.720   0.453 -0.9043  0.5644 -0.1296
 1688TIP3    H126699   0.234   5.656   0.441  0.3289 -1.6819  3.2670
 1688TIP3    H226700   0.264   5.789   0.506 -0.8413 -0.3089  1.1020
 1689TIP3   OH226701   5.048   6.401   6.702  0.0998 -0.8852 -0.5875
 1689TIP3    H126702   4.999   6.354   6.770  0.5634 -0.8818 -0.2488
 1689TIP3    H226703   5.120   6.443   6.749 -0.1742 -0.0202 -0.9167
 1690TIP3   OH226704   1.590   5.365   0.274 -0.0507  0.1998 -0.1045
 1690TIP3    H126705   1.558   5.297   0.214 -1.7415  0.9547 -0.0958
 1690TIP3    H226706   1.620   5.317   0.351  1.4299 -0.7261 -1.1980
 1691TIP3   OH226707   1.636   4.910   0.357  0.3057 -0.1700 -0.6967
 1691TIP3    H126708   1.684   4.872   0.283  0.7301 -1.4304  0.2001
 1691TIP3    H226709   1.547   4.877   0.348  0.5114 -0.8410 -0.2955
 1692TIP3   OH226710   4.248   6.223   0.168 -0.4609  0.2030  0.4275
 1692TIP3    H126711   4.294   6.149   0.129  1.1945  1.1768  0.4698
 1692TIP3    H226712   4.196   6.184   0.239 -1.9804 -1.3066 -1.4099
 1693TIP3   OH226713   3.765   3.369   8.102 -0.2122 -0.1077  0.0880
 1693TIP3    H126714   3.699   3.355   8.035  0.3051  0.3753 -0.5321
 1693TIP3    H226715   3.766   3.288   8.152 -3.5802  0.9441  2.2027
 1694TIP3   OH226716   6.804   4.722   0.002 -0.2460  0.5168 -0.5208
 1694TIP3    H126717   6.883   4.670   0.014 -0.6927  0.2529  1.6856
 1694TIP3    H226718   6.767   4.731   0.090 -2.4708  0.9568 -1.4164
 1695TIP3   OH226719   0.844   5.143   8.160 -0.0435 -0.3727  0.1276
 1695TIP3    H126720   0.763   5.104   8.192 -0.1151 -0.3204  0.0085
 1695TIP3    H226721   0.888   5.176   8.239 -0.5183  0.3270  0.0987
 1696TIP3   OH226722   5.084   3.969   6.922 -0.5350 -0.1863 -0.2359
 1696TIP3    H126723   5.103   3.952   6.829  1.1425 -0.4354  0.1106
 1696TIP3    H226724   5.001   3.924   6.938 -1.1201  0.2840 -1.7213
 1697TIP3   OH226725   2.285   0.861   0.252  0.3751 -0.1148  0.1972
 1697TIP3    H126726   2.198   0.863   0.211 -0.8593 -0.2368  2.6264
 1697TIP3    H226727   2.345   0.837   0.181 -1.9870 -3.4982 -0.8746
 1698TIP3   OH226728   3.375   3.904   6.602  0.8495 -0.6730  0.5029
 1698TIP3    H126729   3.327   3.824   6.625  1.4083 -0.5553  2.2068
 1698TIP3    H226730   3.384   3.899   6.506  0.3578 -2.3523  0.5041
 1699TIP3   OH226731   3.407   0.980   7.319  0.2251 -0.4822 -0.4424
 1699TIP3    H126732   3.434   0.925   7.392 -1.4463  0.0694  0.6458
 1699TIP3    H226733   3.317   1.006   7.340 -0.0067  0.3842 -2.2855
 1700TIP3   OH226734   4.152   5.612   8.513 -0.4398 -0.5686 -0.2522
 1700TIP3    H126735   4.142   5.555   8.589 -0.4596  0.1830  0.3141
 1700TIP3    H226736   4.135   5.700   8.546 -2.4226 -0.4157 -1.5089
 1701TIP3   OH226737   3.692   0.980   7.114  0.4169 -0.0518  0.0247
 1701TIP3    H126738   3.601   0.957   7.095  0.2114  0.0024  0.8944
 1701TIP3    H226739   3.744   0.910   7.074  0.0216  0.1975 -0.9289
 1702TIP3   OH226740   3.075   6.028   1.689 -0.2132 -0.2679 -0.2547
 1702TIP3    H126741   3.034   5.989   1.766 -0.7673  0.7900 -0.0026
 1702TIP3    H226742   3.167   6.005   1.697 -0.1953  0.1405  0.9209
 1703TIP3   OH226743   5.380   2.059   8.176 -0.5463 -0.0135 -0.0578
 1703TIP3    H126744   5.431   2.134   8.206 -3.3403  1.2407  1.9888
 1703TIP3    H226745   5.317   2.095   8.114 -1.2546 -0.8439  0.1508
 1704TIP3   OH226746   0.329   0.797   5.989 -0.0096  0.2244 -0.1736
 1704TIP3    H126747   0.295   0.870   5.937  0.1725  0.6099  0.2422
 1704TIP3    H226748   0.357   0.837   6.072  1.9416  0.0254 -0.6810
 1705TIP3   OH226749   1.092   1.795   1.420 -0.7785  0.2223 -0.3686
 1705TIP3    H126750   1.012   1.743   1.429 -1.5190  1.4472  0.4134
 1705TIP3    H226751   1.113   1.822   1.510  1.9802 -2.1199 -0.1611
 1706TIP3   OH226752   4.663   4.076   6.022 -0.1486 -0.1604 -0.6793
 1706TIP3    H126753   4.743   4.074   6.074  0.4962 -0.2418 -1.6306
 1706TIP3    H226754   4.621   4.159   6.045  0.5547  0.1991 -0.6555
 1707TIP3   OH226755   4.175   3.461   6.196 -0.9045 -0.3296  0.3215
 1707TIP3    H126756   4.139   3.474   6.108 -1.3516  0.6674  0.6377
 1707TIP3    H226757   4.161   3.545   6.240  3.6622  0.9163 -0.1699
 1708TIP3   OH226758   0.187   6.855   8.469  0.3078 -0.2805  0.2692
 1708TIP3    H126759   0.263   6.893   8.512  0.3275  0.4260 -0.3785
 1708TIP3    H226760   0.208   6.856   8.376 -1.0860  1.3317 -0.0654
 1709TIP3   OH226761   1.065   2.652   8.361 -0.1702 -0.2593  0.3347
 1709TIP3    H126762   1.000   2.712   8.324 -1.6888 -2.3160 -0.5034
 1709TIP3    H226763   1.072   2.679   8.453  1.5233  3.0765 -0.5897
 1710TIP3   OH226764   0.470   5.177   0.369 -0.0339  0.2575 -0.1027
 1710TIP3    H126765   0.407   5.225   0.423  0.6167 -0.3951  1.2775
 1710TIP3    H226766   0.551   5.228   0.375  0.2278 -0.1771  0.0923
 1711TIP3   OH226767   0.635   1.149   1.252  0.0098 -0.1344  0.4704
 1711TIP3    H126768   0.645   1.238   1.218 -0.9872 -0.2525 -0.1788
 1711TIP3    H226769   0.691   1.146   1.329 -1.1692  1.5528  1.4542
 1712TIP3   OH226770   3.292   6.632   5.928  0.3333 -0.0340  0.0188
 1712TIP3    H126771   3.280   6.644   6.022  0.2387  2.7241 -0.2608
 1712TIP3    H226772   3.203   6.628   5.893  0.3558 -1.8839  0.0674
 1713TIP3   OH226773   0.188   4.815   0.666  0.5402 -0.3866 -0.3277
 1713TIP3    H126774   0.190   4.906   0.694  0.1840 -0.5001  0.0741
 1713TIP3    H226775   0.227   4.766   0.739 -0.6825 -0.7167  0.1230
 1714TIP3   OH226776   3.773   4.450   0.912  0.1075 -0.4208  0.2449
 1714TIP3    H126777   3.680   4.430   0.902  0.1909 -1.4781  1.4112
 1714TIP3    H226778   3.810   4.375   0.958  1.1588  0.8121  1.5137
 1715TIP3   OH226779   3.296   3.736   7.260  0.0686 -0.2844 -0.3164
 1715TIP3    H126780   3.373   3.791   7.271  1.0447 -1.8380  1.1507
 1715TIP3    H226781   3.242   3.755   7.337  0.2379 -1.0633  0.0066
 1716TIP3   OH226782   4.140   2.987   6.915  0.3673 -0.2684  0.1010
 1716TIP3    H126783   4.113   3.067   6.869 -1.2650  0.2399  1.8202
 1716TIP3    H226784   4.183   2.934   6.848  0.2116  1.4360 -1.4217
 1717TIP3   OH226785   5.058   2.095   0.424  0.0068  0.2212  0.1605
 1717TIP3    H126786   5.119   2.137   0.485  0.2189 -0.3760  0.3640
 1717TIP3    H226787   5.038   2.163   0.359  1.4680  0.1924 -0.3341
 1718TIP3   OH226788   1.394   0.075   1.355 -0.5721  0.6125  0.0790
 1718TIP3    H126789   1.347   0.134   1.413  2.2914  0.2899  3.0042
 1718TIP3    H226790   1.387   0.115   1.268 -2.6829  2.6546  1.1042
 1719TIP3   OH226791   2.758   4.494   6.178  0.0401  0.1055 -0.3563
 1719TIP3    H126792   2.825   4.429   6.199 -0.4637 -0.0030  1.0221
 1719TIP3    H226793   2.808   4.572   6.154  0.6456 -0.6669 -1.7078
 1720TIP3   OH226794   0.508   3.233   1.571  0.2684 -0.2890 -0.2129
 1720TIP3    H126795   0.468   3.316   1.545  1.1214  0.0060 -0.6276
 1720TIP3    H226796   0.508   3.235   1.666 -1.8018 -0.8458 -0.1433
 1721TIP3   OH226797   6.209   5.537   6.362 -0.4088 -0.1972  0.0834
 1721TIP3    H126798   6.295   5.515   6.327 -1.1363 -1.2218 -1.1292
 1721TIP3    H226799   6.154   5.550   6.284 -1.1209  1.4886  0.8148
 1722TIP3   OH226800   6.485   6.761   0.173 -0.1121  0.5306  0.1548
 1722TIP3    H126801   6.524   6.789   0.255 -1.0533 -0.3566  0.9335
 1722TIP3    H226802   6.559   6.749   0.113  0.5987  0.9460  0.9352
 1723TIP3   OH226803   1.572   3.356   1.786  0.2512 -0.1271  0.4844
 1723TIP3    H126804   1.633   3.299   1.740 -0.8428 -1.4961  0.6512
 1723TIP3    H226805   1.495   3.361   1.729 -0.3516 -0.2484  1.2684
 1724TIP3   OH226806   6.028   0.721   8.721  0.2767 -0.4288  0.6121
 1724TIP3    H126807   6.035   0.796   8.780  0.8139 -1.4514  1.8769
 1724TIP3    H226808   6.020   0.645   8.778 -0.0101 -1.3799 -0.6398
 1725TIP3   OH226809   5.845   3.879   1.096 -0.2564 -0.3275  0.4204
 1725TIP3    H126810   5.903   3.956   1.100 -0.4793 -0.2200  2.6227
 1725TIP3    H226811   5.880   3.827   1.023  1.1413  0.8871  0.1725
 1726TIP3   OH226812   5.994   1.324   6.788  0.0663  0.0056 -0.2993
 1726TIP3    H126813   5.970   1.412   6.760  0.6617  0.5775  0.9136
 1726TIP3    H226814   5.943   1.266   6.732 -1.4884  1.1344 -0.1103
 1727TIP3   OH226815   5.048   4.849   7.678  0.9878  0.3696 -0.4441
 1727TIP3    H126816   4.976   4.822   7.620  1.4566  0.3983 -1.0404
 1727TIP3    H226817   5.092   4.919   7.631 -0.6405  2.7938  1.3871
 1728TIP3   OH226818   4.791   6.130   1.036  0.9507  0.4730 -0.1780
 1728TIP3    H126819   4.775   6.061   0.971  0.5457 -0.1808  0.5996
 1728TIP3    H226820   4.840   6.087   1.105  0.1096  0.7825  0.6383
 1729TIP3   OH226821   4.797   6.517   6.873 -0.0258  0.6318  0.5726
 1729TIP3    H126822   4.828   6.427   6.884 -0.9866  0.1307 -0.5052
 1729TIP3    H226823   4.738   6.531   6.948  0.6223  0.6087  1.0973
 1730TIP3   OH226824   3.529   2.947   8.003  0.0248 -0.4216 -0.2826
 1730TIP3    H126825   3.599   2.886   8.026  0.6870  0.3441 -0.2179
 1730TIP3    H226826   3.572   3.013   7.949 -0.9728 -0.7656 -1.5508
 1731TIP3   OH226827   4.686   4.494   2.147 -0.1043 -0.3165 -0.0905
 1731TIP3    H126828   4.654   4.426   2.207 -0.0956 -2.1756 -2.0954
 1731TIP3    H226829   4.771   4.462   2.117  0.0901  0.7974 -0.7964
 1732TIP3   OH226830   1.967   2.749   8.242 -0.4685  0.1285 -0.2808
 1732TIP3    H126831   1.895   2.811   8.253 -0.0290  1.4520 -3.6747
 1732TIP3    H226832   2.038   2.801   8.204  0.9804 -1.9007 -0.5332
 1733TIP3   OH226833   6.698   2.039   1.586 -0.0196  0.1304  0.5131
 1733TIP3    H126834   6.644   2.011   1.660 -0.0997  1.0634  0.8183
 1733TIP3    H226835   6.759   2.102   1.623 -1.1122  1.8554 -0.4790
 1734TIP3   OH226836   0.145   5.858   1.729  0.0965  0.6397  0.5477
 1734TIP3    H126837   0.140   5.776   1.778  2.2821 -0.1979 -0.4481
 1734TIP3    H226838   0.212   5.909   1.775  0.7734  0.6516 -0.4268
 1735TIP3   OH226839   3.771   1.929   7.205  0.5896 -0.1619 -0.0965
 1735TIP3    H126840   3.695   1.978   7.174  0.3751 -0.7857 -0.5868
 1735TIP3    H226841   3.785   1.862   7.138  2.3176  0.6865 -0.6416
 1736TIP3   OH226842   4.849   3.700   6.596  0.8252  0.2395  0.2598
 1736TIP3    H126843   4.783   3.702   6.666 -0.1760  0.7273 -0.6726
 1736TIP3    H226844   4.860   3.607   6.576  0.7039  0.1298  0.6885
 1737TIP3   OH226845   5.915   4.097   7.302  0.2398  0.4180  0.5456
 1737TIP3    H126846   5.899   4.003   7.290 -0.3920  0.6181 -0.3055
 1737TIP3    H226847   5.940   4.128   7.215  0.6928  0.9980  0.8798
 1738TIP3   OH226848   2.810   6.288   7.146 -0.3832 -0.2414 -0.2127
 1738TIP3    H126849   2.816   6.238   7.065 -0.5463 -0.6210  0.0033
 1738TIP3    H226850   2.787   6.376   7.119 -0.9331 -0.4831 -0.5418
 1739TIP3   OH226851   2.246   0.768   0.869  0.4522  0.5226 -0.3619
 1739TIP3    H126852   2.154   0.761   0.841  0.3983  1.1886 -0.3700
 1739TIP3    H226853   2.268   0.860   0.854  1.4153  0.1643 -1.2366
 1740TIP3   OH226854   6.053   0.977   0.773  0.4372 -0.7080  0.3959
 1740TIP3    H126855   6.023   1.067   0.758  0.8049 -0.7644 -0.8214
 1740TIP3    H226856   5.990   0.941   0.835  0.9283  0.7266  1.7782
 1741TIP3   OH226857   2.456   6.198   8.455  0.1815 -0.1580 -0.7046
 1741TIP3    H126858   2.423   6.258   8.389 -0.0099  0.6938  0.1460
 1741TIP3    H226859   2.543   6.173   8.423  0.3406  0.7079 -0.9824
 1742TIP3   OH226860   1.759   2.705   7.966  0.2139  0.5099  0.6514
 1742TIP3    H126861   1.807   2.631   7.930 -0.7689  0.3485 -0.3719
 1742TIP3    H226862   1.817   2.780   7.953  0.6292  0.1496  0.4129
 1743TIP3   OH226863   5.449   3.668   0.787  0.5161 -0.4405 -0.8347
 1743TIP3    H126864   5.471   3.739   0.726 -2.0758  1.1083 -0.1030
 1743TIP3    H226865   5.386   3.615   0.739  0.3424 -0.6445 -0.3795
 1744TIP3   OH226866   2.279   0.955   8.104 -0.1942 -0.8805 -0.0137
 1744TIP3    H126867   2.280   1.028   8.042 -0.6668  0.1550  1.1505
 1744TIP3    H226868   2.186   0.938   8.120 -0.1039 -0.3337  1.2742
 1745TIP3   OH226869   5.603   4.412   6.530  0.0571 -0.3844  0.2086
 1745TIP3    H126870   5.673   4.478   6.526 -1.6770  1.5247 -0.5519
 1745TIP3    H226871   5.649   4.329   6.540  2.4122  0.8086  0.0131
 1746TIP3   OH226872   2.185   6.578   0.800 -0.0247  0.0789 -0.2779
 1746TIP3    H126873   2.090   6.570   0.807 -0.0461 -3.8648 -2.1387
 1746TIP3    H226874   2.220   6.506   0.851  1.9765  0.9921 -0.2403
 1747TIP3   OH226875   2.648   3.387   6.851 -0.3068  0.2578  0.2716
 1747TIP3    H126876   2.675   3.326   6.920  0.0394  0.5211  0.3714
 1747TIP3    H226877   2.616   3.331   6.781 -1.9080  0.0171  1.1581
 1748TIP3   OH226878   4.224   4.156   7.782  0.0546  0.5215  0.3921
 1748TIP3    H126879   4.147   4.210   7.763  0.2760  0.4775 -0.6567
 1748TIP3    H226880   4.265   4.198   7.858  0.0777  1.6833 -0.2530
 1749TIP3   OH226881   6.594   1.414   0.342  0.2315 -0.2748  0.2086
 1749TIP3    H126882   6.650   1.456   0.407 -0.5397  0.0174  0.6995
 1749TIP3    H226883   6.505   1.433   0.371 -0.1945 -3.0346  0.9847
 1750TIP3   OH226884   4.561   1.604   0.131  0.0322  0.5256 -0.2451
 1750TIP3    H126885   4.535   1.676   0.190  0.0770  1.6015 -1.4966
 1750TIP3    H226886   4.652   1.625   0.107  0.9394 -1.2910  1.2697
 1751TIP3   OH226887   0.378   0.962   0.114  0.2165 -0.2360  0.1194
 1751TIP3    H126888   0.473   0.958   0.103  0.1543 -1.7582 -0.1611
 1751TIP3    H226889   0.360   0.905   0.190 -0.4813 -0.1580  0.0231
 1752TIP3   OH226890   4.124   5.779   6.796  0.0856 -0.1643 -0.3257
 1752TIP3    H126891   4.120   5.840   6.869 -0.2663  1.6668 -1.8032
 1752TIP3    H226892   4.045   5.796   6.745  0.8950 -0.5000 -1.7798
 1753TIP3   OH226893   5.363   4.775   7.297 -0.9006  0.6311 -0.0349
 1753TIP3    H126894   5.421   4.840   7.337  0.0223  0.9635 -1.8134
 1753TIP3    H226895   5.388   4.693   7.338 -0.6032  1.0797  0.7111
 1754TIP3   OH226896   2.090   1.896   0.240 -0.2491  0.6652 -0.4660
 1754TIP3    H126897   2.027   1.882   0.311 -0.6990 -0.3609 -1.0378
 1754TIP3    H226898   2.097   1.810   0.198  2.9052  0.2516  0.6699
 1755TIP3   OH226899   5.940   3.350   8.206 -0.2705  0.0657 -0.1926
 1755TIP3    H126900   5.900   3.422   8.157 -1.9191 -1.1588 -0.7773
 1755TIP3    H226901   5.981   3.391   8.282  0.6636  1.8180 -1.5630
 1756TIP3   OH226902   3.924   0.137   1.077  0.3526  0.1070  0.2459
 1756TIP3    H126903   4.007   0.174   1.046  0.0575  0.8623  0.3314
 1756TIP3    H226904   3.933   0.043   1.063  0.1267  0.4062 -2.4076
 1757TIP3   OH226905   6.446   3.254   7.597  0.8304 -0.0033  0.1862
 1757TIP3    H126906   6.370   3.197   7.584  0.6728  0.3327 -0.4376
 1757TIP3    H226907   6.487   3.223   7.677 -1.1517  1.1145  1.7155
 1758TIP3   OH226908   3.728   0.707   8.005 -0.3318 -0.2250  0.4184
 1758TIP3    H126909   3.733   0.615   7.979  1.8481  0.3546 -1.6075
 1758TIP3    H226910   3.711   0.754   7.924  1.1891  1.3256  0.9366
 1759TIP3   OH226911   4.726   5.418   1.683  0.3779  0.0130  0.0829
 1759TIP3    H126912   4.754   5.505   1.656  0.4769 -0.0040  0.1319
 1759TIP3    H226913   4.634   5.429   1.707  0.1284 -0.0891 -0.8074
 1760TIP3   OH226914   3.571   6.797   8.693  0.3193 -0.3843  0.5975
 1760TIP3    H126915   3.656   6.838   8.677 -0.5939  0.7905 -1.6197
 1760TIP3    H226916   3.587   6.704   8.676  1.3071 -0.2954  0.9437
 1761TIP3   OH226917   0.414   6.634   8.563  0.1669 -0.0360  0.3456
 1761TIP3    H126918   0.355   6.562   8.543  1.9941 -1.5712  0.1262
 1761TIP3    H226919   0.466   6.646   8.483  0.6541  0.7507  0.7606
 1762TIP3   OH226920   6.873   2.598   1.820  0.0368  0.1416 -0.0603
 1762TIP3    H126921   6.812   2.669   1.842 -0.7989 -0.3037 -0.8390
 1762TIP3    H226922   6.877   2.545   1.899  0.1693  0.7146  0.3192
 1763TIP3   OH226923   5.897   5.063   1.324  0.2769 -0.1377  0.1372
 1763TIP3    H126924   5.836   5.007   1.277 -0.8696  0.6080  0.6848
 1763TIP3    H226925   5.848   5.094   1.400  0.9706  1.3615  0.0176
 1764TIP3   OH226926   4.560   6.481   7.934  0.5735 -0.0442  0.1691
 1764TIP3    H126927   4.529   6.500   7.845 -0.4235  0.0461  0.5291
 1764TIP3    H226928   4.530   6.392   7.951  0.8498 -0.0979  0.3867
 1765TIP3   OH226929   3.647   1.148   0.900 -0.2692 -0.2281 -0.1498
 1765TIP3    H126930   3.695   1.070   0.872 -0.1529 -0.4438  0.6027
 1765TIP3    H226931   3.558   1.117   0.917 -0.8425  0.2815 -2.0654
 1766TIP3   OH226932   0.919   1.892   8.616 -0.5781 -0.4760  0.2003
 1766TIP3    H126933   1.001   1.866   8.573 -1.0993 -2.7239  0.4511
 1766TIP3    H226934   0.923   1.852   8.702 -2.4867 -1.7922 -0.2517
 1767TIP3   OH226935   1.237   2.237   0.603 -0.3673  0.0147 -0.0862
 1767TIP3    H126936   1.299   2.265   0.536 -0.7963  0.2038 -0.4141
 1767TIP3    H226937   1.260   2.146   0.621 -0.0274  0.0701 -0.2397
 1768TIP3   OH226938   5.731   0.198   7.801 -0.1110  0.0520  0.1907
 1768TIP3    H126939   5.759   0.257   7.871  1.5749 -0.2772 -0.1434
 1768TIP3    H226940   5.638   0.185   7.816  0.1164  0.3002  2.1487
 1769TIP3   OH226941   1.625   6.277   0.216 -0.1889 -0.4886  0.0930
 1769TIP3    H126942   1.552   6.235   0.262  2.0604 -1.2494  3.4052
 1769TIP3    H226943   1.674   6.204   0.179  0.0906 -0.1843 -0.1383
 1770TIP3   OH226944   3.669   3.654   6.355 -0.3321  0.7053  0.0546
 1770TIP3    H126945   3.627   3.593   6.415  0.9736  0.4129  0.6998
 1770TIP3    H226946   3.608   3.728   6.350 -1.8493 -0.5430 -0.6173
 1771TIP3   OH226947   5.396   3.768   6.933 -0.1597  0.3121  0.0353
 1771TIP3    H126948   5.389   3.851   6.980 -1.0521  0.1313  0.2318
 1771TIP3    H226949   5.332   3.710   6.975  0.0672 -0.3102 -0.4481
 1772TIP3   OH226950   5.688   1.409   6.630 -0.6881  0.3586 -0.4036
 1772TIP3    H126951   5.713   1.444   6.544 -1.4953  2.3848  0.1299
 1772TIP3    H226952   5.719   1.319   6.629  1.0812  0.9263 -2.0713
 1773TIP3   OH226953   2.791   5.700   6.961 -0.0775  0.3727  0.5298
 1773TIP3    H126954   2.858   5.768   6.959  0.0658  0.2434  0.8759
 1773TIP3    H226955   2.712   5.744   6.991 -0.1011  0.4813  0.3136
 1774TIP3   OH226956   3.968   3.589   0.211  0.1153 -0.1744 -0.3698
 1774TIP3    H126957   4.000   3.561   0.125  0.2210  1.0097 -0.7406
 1774TIP3    H226958   3.896   3.649   0.191  1.1961  1.4080  0.2881
 1775TIP3   OH226959   1.095   3.000   1.206 -0.0311  0.2945 -0.0520
 1775TIP3    H126960   1.090   3.040   1.293 -1.0509  1.3633 -0.5824
 1775TIP3    H226961   1.187   3.004   1.183  0.5312 -1.3947  1.5845
 1776TIP3   OH226962   2.759   2.885   6.784  0.0947  0.1099 -0.0955
 1776TIP3    H126963   2.807   2.880   6.701  0.7347 -0.4410  0.2887
 1776TIP3    H226964   2.714   2.969   6.781 -0.6586 -0.3135 -1.4044
 1777TIP3   OH226965   1.713   2.145   7.566  0.1083 -0.6825  0.3195
 1777TIP3    H126966   1.659   2.177   7.638  0.2882  0.8681 -0.2005
 1777TIP3    H226967   1.790   2.108   7.608 -0.3432 -0.8977  0.9693
 1778TIP3   OH226968   2.952   2.191   2.537 -0.3172 -0.5301 -0.0462
 1778TIP3    H126969   3.045   2.172   2.525 -0.3309 -0.5351 -0.1458
 1778TIP3    H226970   2.934   2.164   2.627 -0.4627 -1.5061 -0.3567
 1779TIP3   OH226971   5.744   3.820   7.806  0.0457  0.1807 -0.0259
 1779TIP3    H126972   5.728   3.883   7.735 -0.1664  0.1742  0.0166
 1779TIP3    H226973   5.702   3.740   7.776  0.4115  0.0265 -0.1293
 1780TIP3   OH226974   1.776   4.402   7.084 -0.2866 -0.1897  0.9355
 1780TIP3    H126975   1.730   4.481   7.114  1.7209  0.6016  2.0847
 1780TIP3    H226976   1.768   4.404   6.989 -1.7367  0.4489  1.0429
 1781TIP3   OH226977   2.564   2.214   1.298  0.1436  0.1132 -0.3382
 1781TIP3    H126978   2.536   2.301   1.271  0.3336 -0.0176 -0.9760
 1781TIP3    H226979   2.515   2.197   1.379  1.7863  1.7354  1.0868
 1782TIP3   OH226980   1.323   3.141   0.125 -0.1457 -0.0851 -0.0346
 1782TIP3    H126981   1.379   3.217   0.110  0.7428 -0.8486 -0.6491
 1782TIP3    H226982   1.312   3.138   0.220  1.1145 -0.1139  0.1201
 1783TIP3   OH226983   5.242   1.524   6.140  0.0082 -0.0274  0.0958
 1783TIP3    H126984   5.234   1.612   6.177  0.8545  0.6672 -1.2795
 1783TIP3    H226985   5.163   1.479   6.169 -0.2410  1.0440  1.1903
 1784TIP3   OH226986   6.405   3.871   7.508  0.2392 -0.1180 -0.2948
 1784TIP3    H126987   6.359   3.814   7.570  1.1103 -1.8440 -1.1506
 1784TIP3    H226988   6.415   3.954   7.554 -1.1546 -0.6143  0.9812
 1785TIP3   OH226989   6.182   6.016   7.536 -0.2030 -0.8366 -0.1688
 1785TIP3    H126990   6.195   6.066   7.456 -0.4294  2.3250  1.6087
 1785TIP3    H226991   6.095   5.978   7.527 -0.1202 -0.7455 -1.5198
 1786TIP3   OH226992   0.690   4.238   0.877  0.1144 -0.4208  0.5031
 1786TIP3    H126993   0.763   4.286   0.838  0.2705 -0.3258  0.9112
 1786TIP3    H226994   0.694   4.259   0.970  1.1076 -2.4041  0.9649
 1787TIP3   OH226995   5.885   0.706   8.477 -0.9967 -0.2652  0.0383
 1787TIP3    H126996   5.940   0.704   8.556 -1.4374 -2.7911  0.3766
 1787TIP3    H226997   5.942   0.740   8.409 -0.4737  1.5742  1.3276
 1788TIP3   OH226998   0.798   1.999   6.272  0.2821 -0.2681 -0.0974
 1788TIP3    H126999   0.849   1.921   6.294 -0.8645 -0.2976  2.7996
 1788TIP3    H227000   0.707   1.970   6.275 -0.0945  0.6642 -1.4431
 1789TIP3   OH227001   6.027   4.611   0.562 -0.1478  0.4468  0.3525
 1789TIP3    H127002   6.099   4.579   0.616  0.6956  1.4096 -0.1575
 1789TIP3    H227003   5.956   4.630   0.624 -0.9537 -2.8998  0.6291
 1790TIP3   OH227004   3.829   5.564   6.805 -0.1956  0.4948  0.5223
 1790TIP3    H127005   3.810   5.471   6.806 -1.5735  0.6731 -1.6634
 1790TIP3    H227006   3.859   5.582   6.715  1.7460  1.8780  1.3718
 1791TIP3   OH227007   4.334   1.571   0.936 -0.4989  0.1759  0.4425
 1791TIP3    H127008   4.304   1.503   0.997 -1.6817  2.4022  2.5151
 1791TIP3    H227009   4.427   1.581   0.954 -0.2578 -0.9977 -0.0554
 1792TIP3   OH227010   3.688   3.593   6.060 -0.2604  0.1761 -0.0613
 1792TIP3    H127011   3.689   3.666   6.122 -2.9136 -0.4769  0.8746
 1792TIP3    H227012   3.714   3.517   6.113 -0.6725 -0.0748 -0.2196
 1793TIP3   OH227013   5.783   5.057   6.362  0.0095 -0.4714 -0.6597
 1793TIP3    H127014   5.778   5.146   6.328 -1.2458  0.1715  1.0397
 1793TIP3    H227015   5.722   5.007   6.308  0.7660 -0.3249 -1.6613
 1794TIP3   OH227016   2.335   3.632   8.367 -0.0455 -0.0923 -0.5346
 1794TIP3    H127017   2.333   3.544   8.328  2.0217 -0.4569  0.0779
 1794TIP3    H227018   2.396   3.624   8.441 -3.1179  0.7434  2.3843
 1795TIP3   OH227019   4.688   6.326   2.215 -0.7850  0.2110 -0.2829
 1795TIP3    H127020   4.773   6.282   2.210 -0.4340  0.7494  0.7055
 1795TIP3    H227021   4.665   6.345   2.124 -0.2677 -0.7206 -0.6176
 1796TIP3   OH227022   2.940   1.494   7.025  0.0692  0.0116 -0.1789
 1796TIP3    H127023   2.981   1.474   6.941 -1.5834 -2.5664 -0.4919
 1796TIP3    H227024   2.851   1.460   7.017  0.5499 -2.7552  3.4038
 1797TIP3   OH227025   2.467   4.717   7.620 -0.0675  0.2023 -0.0705
 1797TIP3    H127026   2.381   4.760   7.621 -0.3657 -0.3798 -0.1842
 1797TIP3    H227027   2.489   4.706   7.713 -0.2785  0.0298 -0.0414
 1798TIP3   OH227028   2.332   1.035   6.755 -0.0450 -0.4470  0.3199
 1798TIP3    H127029   2.333   0.977   6.831  2.7723  0.1506  0.8419
 1798TIP3    H227030   2.347   0.977   6.680  2.5738 -0.5601  0.8210
 1799TIP3   OH227031   4.878   6.752   8.353 -0.2394 -0.1881  0.1421
 1799TIP3    H127032   4.885   6.829   8.410 -1.9231  1.7209 -2.0507
 1799TIP3    H227033   4.818   6.694   8.400  0.9507 -0.1992  1.7706
 1800TIP3   OH227034   4.452   0.297   1.688 -0.1079 -0.1727 -0.2474
 1800TIP3    H127035   4.441   0.386   1.656 -1.0942 -0.0956  0.2881
 1800TIP3    H227036   4.510   0.306   1.765 -0.6168  0.0722  0.1109
 1801TIP3   OH227037   4.908   5.112   7.031 -0.2170  0.8041 -0.1911
 1801TIP3    H127038   4.899   5.188   7.088 -1.4719  0.6446 -0.1531
 1801TIP3    H227039   4.949   5.045   7.086  1.9425  1.7422 -0.5325
 1802TIP3   OH227040   4.870   2.814   8.345 -0.1054  0.0347  0.0482
 1802TIP3    H127041   4.957   2.840   8.377  0.2280 -1.8007  0.7671
 1802TIP3    H227042   4.859   2.864   8.264  1.8041  0.0310 -0.2659
 1803TIP3   OH227043   6.214   2.881   0.435  0.0052  0.1427  0.5033
 1803TIP3    H127044   6.189   2.795   0.402 -0.6333  0.6189 -0.2905
 1803TIP3    H227045   6.259   2.924   0.362 -1.2603  1.1404  0.2794
 1804TIP3   OH227046   6.525   3.846   1.540 -0.4403 -0.0427 -0.0381
 1804TIP3    H127047   6.583   3.825   1.614 -0.4888  1.7469  0.5640
 1804TIP3    H227048   6.584   3.864   1.468 -0.3551 -0.6501 -0.1294
 1805TIP3   OH227049   0.370   0.167   8.635 -0.1382 -0.5793 -0.3497
 1805TIP3    H127050   0.425   0.241   8.659 -1.8305  1.5055 -2.3722
 1805TIP3    H227051   0.335   0.135   8.718  1.1283  0.4648  0.6327
 1806TIP3   OH227052   2.913   5.142   8.494 -0.1892  0.2441  0.1679
 1806TIP3    H127053   2.870   5.203   8.554  1.7735  0.7957  1.1178
 1806TIP3    H227054   2.953   5.198   8.428 -1.1270 -0.2711 -0.8564
 1807TIP3   OH227055   2.196   3.934   2.143  0.6247  0.5419 -0.4339
 1807TIP3    H127056   2.170   3.968   2.228 -0.7921  1.1892 -1.0938
 1807TIP3    H227057   2.206   3.840   2.156 -0.0325  0.5755  0.3458
 1808TIP3   OH227058   4.697   5.269   0.050 -0.2242 -0.1329  0.2360
 1808TIP3    H127059   4.626   5.218   0.009 -0.0892 -0.0632 -0.0892
 1808TIP3    H227060   4.761   5.204   0.076 -0.5912 -0.2372  0.9118
 1809TIP3   OH227061   5.654   5.566   6.909 -0.4775 -0.0328  0.2747
 1809TIP3    H127062   5.563   5.558   6.882 -0.4123  0.8450 -0.2136
 1809TIP3    H227063   5.656   5.639   6.970 -0.1315 -0.1908  0.4613
 1810TIP3   OH227064   1.434   1.081   0.994 -0.0157  0.2430 -0.2110
 1810TIP3    H127065   1.441   1.084   1.089 -1.6282  1.1453 -0.0955
 1810TIP3    H227066   1.380   1.156   0.971 -0.7012 -0.6616 -1.7268
 1811TIP3   OH227067   2.732   3.780   7.562 -0.6381  0.3593 -0.2908
 1811TIP3    H127068   2.795   3.708   7.563 -0.0825  0.8440  0.1369
 1811TIP3    H227069   2.716   3.796   7.469 -0.3651  0.0320 -0.3971
 1812TIP3   OH227070   5.813   3.724   1.369  0.0907  0.2097 -0.6302
 1812TIP3    H127071   5.792   3.807   1.326  2.0577  0.1524 -1.8505
 1812TIP3    H227072   5.834   3.664   1.297 -1.9204 -1.5880  0.1886
 1813TIP3   OH227073   3.928   0.083   7.736  0.1527  0.1042 -0.3036
 1813TIP3    H127074   3.901   0.135   7.811 -1.3540 -0.3177 -0.5140
 1813TIP3    H227075   4.013   0.118   7.711 -0.1467  1.4433  0.4908
 1814TIP3   OH227076   6.426   3.355   0.431 -0.1809  0.1775 -0.1932
 1814TIP3    H127077   6.395   3.417   0.497 -2.9774 -0.6713 -0.5856
 1814TIP3    H227078   6.404   3.396   0.347 -1.1184 -0.8270 -0.4676
 1815TIP3   OH227079   4.884   4.902   0.972 -0.4806 -0.1038 -0.4025
 1815TIP3    H127080   4.925   4.958   0.906 -1.4798  3.4327  1.7127
 1815TIP3    H227081   4.792   4.896   0.944  0.0031 -2.7792 -1.7910
 1816TIP3   OH227082   5.962   6.198   7.543  0.0492  0.5238 -0.2389
 1816TIP3    H127083   5.982   6.165   7.630 -0.3194  1.2880  0.1430
 1816TIP3    H227084   5.925   6.123   7.496 -0.3457  0.2753  0.4624
 1817TIP3   OH227085   4.917   0.964   7.443 -0.8397 -0.5380 -0.2242
 1817TIP3    H127086   4.855   0.914   7.497 -0.5217 -0.0336  0.6378
 1817TIP3    H227087   4.996   0.970   7.497  0.0838 -1.4262 -1.4387
 1818TIP3   OH227088   0.757   4.592   1.409  0.1628  0.2310 -0.4371
 1818TIP3    H127089   0.768   4.686   1.395  0.6569  0.1583 -0.5547
 1818TIP3    H227090   0.669   4.573   1.377  0.4839  0.4461 -1.4689
 1819TIP3   OH227091   2.166   3.786   1.458 -0.4476  0.7273  0.5337
 1819TIP3    H127092   2.123   3.761   1.539  1.3238 -0.1220  1.2594
 1819TIP3    H227093   2.200   3.874   1.475  0.4354  0.3214  0.9697
 1820TIP3   OH227094   4.527   2.428   6.269  0.5062  0.0949  0.3593
 1820TIP3    H127095   4.607   2.375   6.273  0.1910 -0.8061 -2.7792
 1820TIP3    H227096   4.472   2.384   6.204 -2.3939  0.9709  2.0448
 1821TIP3   OH227097   1.859   3.214   8.323  0.1044 -0.6362  0.3763
 1821TIP3    H127098   1.869   3.121   8.341 -1.3973 -1.2095 -1.4242
 1821TIP3    H227099   1.889   3.225   8.233  1.3035  0.8568  0.9180
 1822TIP3   OH227100   1.601   2.923   7.987  0.4535  0.6592 -0.8128
 1822TIP3    H127101   1.645   2.839   7.974  0.1035  0.3208  0.1179
 1822TIP3    H227102   1.651   2.985   7.933  1.1436 -0.0075 -0.9529
 1823TIP3   OH227103   6.597   4.389   6.920 -0.5394 -0.1950 -0.4285
 1823TIP3    H127104   6.558   4.409   7.005  1.8375  1.5359  0.3649
 1823TIP3    H227105   6.529   4.411   6.857 -1.9235 -0.3201  0.9463
 1824TIP3   OH227106   3.593   6.626   1.033  0.2193  0.2298  0.3121
 1824TIP3    H127107   3.529   6.555   1.043  0.5231 -0.1224 -0.2060
 1824TIP3    H227108   3.664   6.603   1.092  0.6411 -0.2731 -0.3838
 1825TIP3   OH227109   4.955   6.685   7.864  0.3964  0.1885 -0.2114
 1825TIP3    H127110   4.994   6.732   7.790  1.3339  0.7320  0.5861
 1825TIP3    H227111   4.897   6.620   7.825  2.9421 -1.4271 -1.5427
 1826TIP3   OH227112   6.699   0.472   1.448 -0.5257  0.8180  0.0386
 1826TIP3    H127113   6.735   0.445   1.532 -0.0584  2.2537  0.3274
 1826TIP3    H227114   6.649   0.396   1.417 -0.1660  0.0502  1.2964
 1827TIP3   OH227115   3.223   3.655   8.300 -0.2779  0.3241  0.0185
 1827TIP3    H127116   3.244   3.696   8.217  0.9343  0.3854  0.3436
 1827TIP3    H227117   3.305   3.616   8.330 -0.3053  1.5869  1.9098
 1828TIP3   OH227118   3.143   1.742   6.328 -0.0094 -0.0649 -0.3607
 1828TIP3    H127119   3.229   1.699   6.331  0.3750  0.7154  0.9125
 1828TIP3    H227120   3.143   1.789   6.245  0.6329 -0.3973 -0.5618
 1829TIP3   OH227121   4.907   6.463   1.168  0.0030 -0.3823  0.2150
 1829TIP3    H127122   4.966   6.387   1.166 -0.8390 -1.0526 -1.4700
 1829TIP3    H227123   4.821   6.427   1.148 -0.6585  0.8477  0.7497
 1830TIP3   OH227124   0.700   1.718   7.978 -0.5767 -0.1090 -0.2988
 1830TIP3    H127125   0.753   1.795   8.000  0.0044 -0.6415  0.1969
 1830TIP3    H227126   0.760   1.644   7.990 -1.3892 -0.7096  0.1224
 1831TIP3   OH227127   4.783   0.782   2.053 -0.0221 -0.2695  0.4473
 1831TIP3    H127128   4.741   0.702   2.022  0.2384 -0.1856 -0.1337
 1831TIP3    H227129   4.833   0.813   1.977  1.8973 -0.8997  1.3889
 1832TIP3   OH227130   2.390   6.166   7.877  0.3724  0.1654  0.8195
 1832TIP3    H127131   2.398   6.138   7.786  0.9998  1.6405  0.3968
 1832TIP3    H227132   2.324   6.107   7.915  0.8610 -1.1527 -0.2867
 1833TIP3   OH227133   5.406   4.511   0.884  0.1728  0.5919  0.0184
 1833TIP3    H127134   5.314   4.488   0.871  0.3500 -0.2806  0.2384
 1833TIP3    H227135   5.454   4.444   0.835  0.7012  0.7872  0.2654
 1834TIP3   OH227136   2.044   0.049   0.091  0.7391 -0.4677  0.3216
 1834TIP3    H127137   2.044   0.094   0.176 -1.4706 -0.6132  0.4580
 1834TIP3    H227138   2.126   0.076   0.049  1.0925  0.9222  1.8237
 1835TIP3   OH227139   0.394   1.039   1.313 -0.3232 -0.1018  0.5056
 1835TIP3    H127140   0.393   1.072   1.403 -0.6491  1.5333 -0.0559
 1835TIP3    H227141   0.473   1.078   1.275 -1.6177  1.5203 -0.6769
 1836TIP3   OH227142   6.116   2.745   7.362  0.4825  0.6418 -0.2321
 1836TIP3    H127143   6.094   2.652   7.371  1.4060  0.0984 -2.6660
 1836TIP3    H227144   6.202   2.753   7.404  0.3779  0.4118  0.0308
 1837TIP3   OH227145   4.201   6.532   0.152  0.8031  0.0799  0.1644
 1837TIP3    H127146   4.236   6.443   0.147 -0.4064 -0.4990  1.3307
 1837TIP3    H227147   4.241   6.569   0.231  0.0221 -0.0387  0.6258
 1838TIP3   OH227148   6.732   5.902   1.149 -0.4168  0.1966  0.0170
 1838TIP3    H127149   6.662   5.865   1.202 -0.2492 -0.2075 -0.0391
 1838TIP3    H227150   6.692   5.921   1.064 -0.3613 -0.4159 -0.1488
 1839TIP3   OH227151   2.737   0.533   0.460 -0.5779  0.1169  0.0405
 1839TIP3    H127152   2.665   0.596   0.467 -0.9098 -0.0686 -1.4358
 1839TIP3    H227153   2.694   0.448   0.446 -0.0974 -0.0434 -0.5257
 1840TIP3   OH227154   5.953   4.974   8.290  0.5392 -0.0740  0.3668
 1840TIP3    H127155   6.002   5.053   8.316 -0.6523  0.8514 -0.0977
 1840TIP3    H227156   6.003   4.938   8.217  1.0125  0.3463  0.4782
 1841TIP3   OH227157   6.860   3.185   6.540 -0.3327  0.1952  0.3889
 1841TIP3    H127158   6.939   3.139   6.513 -0.2552 -1.7696  3.4233
 1841TIP3    H227159   6.790   3.146   6.487  0.2773 -0.6666  0.2019
 1842TIP3   OH227160   6.737   2.192   7.195 -0.0871  0.2379 -0.2203
 1842TIP3    H127161   6.671   2.261   7.208 -0.5308 -0.4883  1.7740
 1842TIP3    H227162   6.780   2.185   7.280  2.3512  0.4105 -1.3641
 1843TIP3   OH227163   0.243   6.460   8.427 -0.1325  0.5712  0.2923
 1843TIP3    H127164   0.246   6.509   8.345  1.2648  1.3291  0.7667
 1843TIP3    H227165   0.267   6.371   8.403 -2.6661  0.0322 -0.5784
 1844TIP3   OH227166   5.335   1.884   6.870 -0.0895  0.2050  0.2299
 1844TIP3    H127167   5.284   1.847   6.798 -1.3686  2.9562 -0.4039
 1844TIP3    H227168   5.426   1.878   6.840 -0.3792 -0.9313 -0.4921
 1845TIP3   OH227169   0.019   5.047   0.389  0.0313 -0.6651 -0.3873
 1845TIP3    H127170  -0.049   5.052   0.322 -0.2739 -0.6438 -0.0769
 1845TIP3    H227171   0.010   4.959   0.426 -0.3064 -0.4119  0.1511
 1846TIP3   OH227172   0.646   2.494   0.200 -0.2060  0.2053 -0.6366
 1846TIP3    H127173   0.717   2.450   0.152 -1.5182 -0.5465 -1.9946
 1846TIP3    H227174   0.617   2.429   0.264 -0.6336 -0.0654 -1.0955
 1847TIP3   OH227175   6.697   4.101   6.840 -0.4298 -0.4723  0.6977
 1847TIP3    H127176   6.661   4.180   6.879 -1.9203 -1.6263  1.7662
 1847TIP3    H227177   6.725   4.047   6.914  0.5838 -0.9567 -0.0040
 1848TIP3   OH227178   2.843   2.922   6.522 -0.0628  0.3991  0.3670
 1848TIP3    H127179   2.932   2.903   6.492 -0.3445 -0.6057  0.1170
 1848TIP3    H227180   2.827   3.013   6.495  1.5670  1.2656  2.1175
 1849TIP3   OH227181   5.501   6.255   7.220 -0.8091  0.3594  0.4712
 1849TIP3    H127182   5.528   6.323   7.281 -1.4945  0.8693  0.2219
 1849TIP3    H227183   5.581   6.207   7.200 -0.2134  1.4189  0.2522
 1850TIP3   OH227184   3.706   4.304   7.660  0.1208  0.5304 -0.1992
 1850TIP3    H127185   3.688   4.311   7.566  0.9937 -0.7429 -0.4933
 1850TIP3    H227186   3.644   4.239   7.692  0.4981  0.2133 -0.1054
 1851TIP3   OH227187   6.365   0.008   1.468  0.0023 -0.6820  0.1841
 1851TIP3    H127188   6.328   0.035   1.553 -0.4357 -0.3707 -0.1003
 1851TIP3    H227189   6.451   0.051   1.465 -0.2072 -0.2479  0.2380
 1852TIP3   OH227190   3.905   0.728   7.676 -0.2695 -0.4588  0.1638
 1852TIP3    H127191   3.984   0.763   7.716 -0.7727  2.6447 -1.2685
 1852TIP3    H227192   3.890   0.645   7.721  0.7773  1.3459  4.2975
 1853TIP3   OH227193   0.023   4.227   1.977  0.4917 -0.1491 -0.0233
 1853TIP3    H127194   0.079   4.250   2.050 -0.0747 -2.0538  1.0980
 1853TIP3    H227195   0.075   4.166   1.925 -0.1104 -1.0857  0.4365
 1854TIP3   OH227196   0.624   1.819   0.211 -0.6460  0.3226  0.2435
 1854TIP3    H127197   0.569   1.896   0.196 -0.8015 -0.1986 -2.4586
 1854TIP3    H227198   0.600   1.759   0.140  1.1399 -1.2389  0.8884
 1855TIP3   OH227199   1.817   4.568   0.006  0.2163  0.5617 -0.1197
 1855TIP3    H127200   1.864   4.640  -0.035  0.3670  0.8836  0.6119
 1855TIP3    H227201   1.881   4.496   0.008  0.0114  0.3443 -1.0031
 1856TIP3   OH227202   4.865   5.836   8.440  0.2210  0.7166 -0.4623
 1856TIP3    H127203   4.776   5.811   8.464  0.0382  2.3055  0.6718
 1856TIP3    H227204   4.861   5.930   8.423  2.0753  1.3943  2.0764
 1857TIP3   OH227205   5.169   0.151   8.689  0.5626 -0.1086 -0.4289
 1857TIP3    H127206   5.136   0.226   8.738  0.9460 -0.0485 -0.2542
 1857TIP3    H227207   5.173   0.180   8.598  2.5594  0.7728 -0.1197
 1858TIP3   OH227208   5.668   5.137   0.378  0.4851  0.2189 -0.4396
 1858TIP3    H127209   5.625   5.198   0.437  2.7454  0.9577  0.5563
 1858TIP3    H227210   5.642   5.050   0.410  0.1203  0.6247  0.3842
 1859TIP3   OH227211   0.638   3.333   7.433 -0.1681 -0.2424  0.2036
 1859TIP3    H127212   0.718   3.281   7.427 -0.0200  0.0514 -0.4787
 1859TIP3    H227213   0.605   3.315   7.521  2.0966  1.7212  1.5958
 1860TIP3   OH227214   5.454   5.283   0.035  0.3832  0.2443  0.5596
 1860TIP3    H127215   5.362   5.272   0.058  0.4274  0.6239  0.9300
 1860TIP3    H227216   5.493   5.198   0.054 -0.4100 -0.8854 -2.2924
 1861TIP3   OH227217   5.613   2.117   7.339 -0.0781 -0.9125  0.0214
 1861TIP3    H127218   5.640   2.106   7.430  0.9592  0.1259 -0.1341
 1861TIP3    H227219   5.519   2.136   7.343  0.5729  2.7759  1.2200
 1862TIP3   OH227220   3.200   4.216   8.158  0.4042 -0.3721  0.1882
 1862TIP3    H127221   3.111   4.247   8.141  0.1902  0.1117  1.8990
 1862TIP3    H227222   3.204   4.128   8.121 -0.6781 -0.2577 -0.2117
 1863TIP3   OH227223   1.312   4.830   6.424 -0.4913 -0.0604 -0.6299
 1863TIP3    H127224   1.281   4.820   6.334 -1.3045  0.0887 -0.3776
 1863TIP3    H227225   1.234   4.814   6.478 -0.0947  0.1980  0.0299
 1864TIP3   OH227226   0.769   2.925   7.578 -0.1505 -0.5652  0.5616
 1864TIP3    H127227   0.695   2.979   7.605 -0.4583  0.0334 -1.3772
 1864TIP3    H227228   0.733   2.865   7.513  0.3986 -2.5101  1.9388
 1865TIP3   OH227229   5.025   2.138   8.233 -0.4820  0.0880 -0.5327
 1865TIP3    H127230   5.088   2.132   8.161  0.3510 -0.4455  0.2141
 1865TIP3    H227231   5.080   2.141   8.312 -1.4018 -1.5286  0.2147
 1866TIP3   OH227232   5.564   0.415   0.871 -0.5258 -0.3553 -0.7239
 1866TIP3    H127233   5.547   0.323   0.889  1.2612 -0.7474 -0.9072
 1866TIP3    H227234   5.504   0.437   0.800 -0.2987 -1.6398 -1.3261
 1867TIP3   OH227235   0.744   1.364   8.086 -0.0905 -0.4532 -0.4044
 1867TIP3    H127236   0.800   1.305   8.035  0.4813 -0.3227  0.0723
 1867TIP3    H227237   0.657   1.351   8.048  0.2011 -0.8711 -0.9604
 1868TIP3   OH227238   6.310   0.877   8.373  0.0303  0.2036  0.3452
 1868TIP3    H127239   6.231   0.915   8.409  0.0090 -0.4894  1.0679
 1868TIP3    H227240   6.382   0.921   8.419  0.1072  1.2727 -0.7483
 1869TIP3   OH227241   6.275   6.566   6.620  0.2343  0.1184 -0.2021
 1869TIP3    H127242   6.256   6.561   6.527  0.2425 -1.1517 -0.1502
 1869TIP3    H227243   6.268   6.476   6.651  1.2153  0.3768  0.8378
 1870TIP3   OH227244   2.080   4.504   6.170  0.2868 -0.4791  0.5750
 1870TIP3    H127245   2.009   4.516   6.107 -0.4895 -2.9215  0.8754
 1870TIP3    H227246   2.134   4.582   6.161 -1.8996  1.0149 -0.3642
 1871TIP3   OH227247   4.971   0.707   7.000 -0.1065 -0.7264 -0.7051
 1871TIP3    H127248   4.899   0.667   7.050  1.6537 -1.8102  1.1379
 1871TIP3    H227249   4.947   0.694   6.909 -1.7983 -1.9036 -0.1511
 1872TIP3   OH227250   6.568   3.202   1.135 -0.1570  0.4394  0.0384
 1872TIP3    H127251   6.548   3.163   1.049  1.1709  0.4426 -0.3038
 1872TIP3    H227252   6.608   3.131   1.184 -1.0626  0.3954  0.7322
 1873TIP3   OH227253   5.107   0.061   7.692 -0.1374 -0.3374  0.2692
 1873TIP3    H127254   5.086  -0.008   7.628 -1.8677  1.3907 -1.1673
 1873TIP3    H227255   5.091   0.143   7.644  2.9375  1.1379  1.5349
 1874TIP3   OH227256   2.780   4.803   6.650 -0.4490 -0.6100  0.5038
 1874TIP3    H127257   2.687   4.807   6.672 -0.1543  1.3570  1.6641
 1874TIP3    H227258   2.786   4.842   6.563 -0.7293 -1.0397  0.2879
 1875TIP3   OH227259   4.591   1.335   0.594 -0.3693  0.8056  0.0651
 1875TIP3    H127260   4.604   1.244   0.568  3.0945  1.1677  0.0723
 1875TIP3    H227261   4.582   1.331   0.690 -2.7480  0.3684 -0.1012
 1876TIP3   OH227262   3.341   1.690   6.845 -0.0399 -0.3105 -0.3811
 1876TIP3    H127263   3.352   1.693   6.750  0.3753 -1.3064 -0.3753
 1876TIP3    H227264   3.303   1.604   6.862 -2.1203  0.6649  0.1768
 1877TIP3   OH227265   3.479   2.461   0.829 -0.4018 -0.2945 -0.0060
 1877TIP3    H127266   3.444   2.523   0.765 -0.5845  0.4890  0.8385
 1877TIP3    H227267   3.555   2.505   0.867  0.5188 -1.2966 -0.6123
 1878TIP3   OH227268   2.567   1.033   0.546  0.2897  0.1612 -0.0957
 1878TIP3    H127269   2.527   1.078   0.620 -1.0884 -0.6024 -0.3408
 1878TIP3    H227270   2.497   1.027   0.481 -0.0761 -3.4875  0.4200
 1879TIP3   OH227271   3.321   3.356   0.436 -0.5217  0.3487  0.3348
 1879TIP3    H127272   3.335   3.438   0.389  2.5614 -1.5204 -2.4512
 1879TIP3    H227273   3.408   3.315   0.439 -1.4454 -1.8253  3.7329
 1880TIP3   OH227274   2.832   5.538   7.828  0.0043  0.1313 -0.6255
 1880TIP3    H127275   2.921   5.514   7.851 -0.4592 -2.4152 -1.1624
 1880TIP3    H227276   2.813   5.489   7.748 -2.0242  0.1690 -0.2452
 1881TIP3   OH227277   0.136   3.772   0.432  0.0704 -0.1534 -0.1807
 1881TIP3    H127278   0.058   3.819   0.404 -0.4110 -0.4449  0.6282
 1881TIP3    H227279   0.120   3.752   0.525  1.4533  0.4730  0.2161
 1882TIP3   OH227280   3.335   2.392   6.777 -0.0348  0.4085  0.4537
 1882TIP3    H127281   3.335   2.330   6.704  0.3169  0.4529  0.4146
 1882TIP3    H227282   3.278   2.352   6.842  1.1580 -0.5743  0.9360
 1883TIP3   OH227283   1.082   1.252   7.038  0.0438  0.3884  0.0501
 1883TIP3    H127284   1.041   1.263   7.123 -0.7674  1.6677 -0.4815
 1883TIP3    H227285   1.171   1.283   7.050  0.2010 -0.2601  0.6354
 1884TIP3   OH227286   3.191   3.031   8.313 -0.3649  0.4308 -0.5514
 1884TIP3    H127287   3.274   3.004   8.352  0.0714  0.7290 -1.2512
 1884TIP3    H227288   3.206   3.026   8.218 -1.1525  0.4641 -0.6853
 1885TIP3   OH227289   6.863   6.362   0.706  0.0820  0.0918  0.1105
 1885TIP3    H127290   6.768   6.351   0.702  0.0543  0.1458  0.5617
 1885TIP3    H227291   6.878   6.456   0.694  0.1362 -0.0248 -0.8174
 1886TIP3   OH227292   4.988   6.013   0.420  0.6917  0.2325  0.3620
 1886TIP3    H127293   5.082   5.998   0.408  0.5128 -0.1748 -0.5830
 1886TIP3    H227294   4.972   5.994   0.513  1.6166  0.7490  0.6463
 1887TIP3   OH227295   2.681   2.274   0.074  0.1487 -0.1290 -0.0324
 1887TIP3    H127296   2.639   2.248  -0.008 -0.9101  1.2778  0.0248
 1887TIP3    H227297   2.752   2.333   0.047  1.3982 -1.5911 -0.0555
 1888TIP3   OH227298   0.006   0.327   8.697  0.3099  0.1097 -0.3575
 1888TIP3    H127299   0.076   0.320   8.762 -0.7526 -1.4886  0.7113
 1888TIP3    H227300  -0.046   0.248   8.710 -0.3137  0.0528 -2.7797
 1889TIP3   OH227301   4.342   2.742   7.851 -0.9229  0.7202  0.4412
 1889TIP3    H127302   4.343   2.686   7.929 -0.7386  0.5414  0.3103
 1889TIP3    H227303   4.320   2.683   7.779 -1.5671  0.9724  0.4261
 1890TIP3   OH227304   4.341   6.480   0.994  0.3189  0.0900 -0.1196
 1890TIP3    H127305   4.409   6.542   0.970  1.0138 -0.7633 -0.3992
 1890TIP3    H227306   4.387   6.406   1.032 -0.2531 -1.2861 -1.9330
 1891TIP3   OH227307   6.235   3.304   6.818  0.0430  0.4038  0.6369
 1891TIP3    H127308   6.326   3.276   6.830  0.3522  0.9366 -0.4091
 1891TIP3    H227309   6.239   3.399   6.811 -0.6078  0.4391  0.6300
 1892TIP3   OH227310   4.578   3.933   6.614 -0.0991 -0.2804  0.2787
 1892TIP3    H127311   4.531   3.863   6.659 -0.8651 -0.1165 -0.2344
 1892TIP3    H227312   4.576   3.908   6.522  0.2572  0.0548  0.1765
 1893TIP3   OH227313   1.034   3.363   0.340 -0.2596 -0.3510  0.0461
 1893TIP3    H127314   0.954   3.320   0.371  0.5109 -2.1384 -0.3364
 1893TIP3    H227315   1.034   3.350   0.245 -0.5089  1.4510 -0.2440
 1894TIP3   OH227316   2.244   0.538   8.080 -0.2741  0.3640  0.1490
 1894TIP3    H127317   2.208   0.598   8.146 -1.5658  0.4284 -0.5822
 1894TIP3    H227318   2.309   0.591   8.033  0.7156  0.2977  1.3872
 1895TIP3   OH227319   5.985   6.411   8.247 -0.1455  0.1308  0.4641
 1895TIP3    H127320   6.056   6.355   8.217 -1.0484 -0.4560 -0.6553
 1895TIP3    H227321   5.927   6.351   8.295 -0.3400  0.4114  0.5804
 1896TIP3   OH227322   4.375   6.631   7.058 -0.5579  0.2221  0.0582
 1896TIP3    H127323   4.353   6.688   7.132  1.5965 -0.0887  0.9976
 1896TIP3    H227324   4.301   6.641   6.998 -0.8253  3.1250  0.7062
 1897TIP3   OH227325   5.660   1.593   0.123 -0.2007  0.3104  0.0724
 1897TIP3    H127326   5.600   1.632   0.187  0.6886  1.5361  0.1932
 1897TIP3    H227327   5.627   1.504   0.110 -0.1404 -0.1411  2.5699
 1898TIP3   OH227328   4.533   4.570   6.559 -0.1170  0.3999  0.4046
 1898TIP3    H127329   4.571   4.482   6.549  0.6175  0.6178  1.1584
 1898TIP3    H227330   4.533   4.606   6.470 -0.0230 -0.2039  0.1570
 1899TIP3   OH227331   1.784   3.996   7.131  0.2833  0.4525  0.3141
 1899TIP3    H127332   1.698   3.994   7.088 -1.4605 -1.8706  3.4708
 1899TIP3    H227333   1.782   4.075   7.185  0.4451  0.7718 -0.1415
 1900TIP3   OH227334   1.018   3.046   7.720  0.1015 -0.0507 -0.7403
 1900TIP3    H127335   0.989   2.970   7.670 -0.6973 -1.8829  2.2831
 1900TIP3    H227336   0.949   3.111   7.705  0.3982 -0.1200 -2.7451
 1901TIP3   OH227337   2.578   1.517   0.109  0.0175 -0.3344  0.3160
 1901TIP3    H127338   2.552   1.438   0.157  0.8981 -0.0870  1.2179
 1901TIP3    H227339   2.510   1.581   0.130  0.0596 -0.4189  0.7146
 1902TIP3   OH227340   0.200   0.437   1.392  0.8136  0.3904  0.1951
 1902TIP3    H127341   0.256   0.360   1.400 -0.8399 -1.3156 -2.9489
 1902TIP3    H227342   0.242   0.491   1.325 -0.7150 -0.5190 -1.6008
 1903TIP3   OH227343   0.203   4.094   1.054  0.1279 -0.1342 -0.1963
 1903TIP3    H127344   0.225   4.006   1.023 -1.5558 -0.1220 -1.5147
 1903TIP3    H227345   0.282   4.146   1.036  0.0818 -0.6995 -2.1905
 1904TIP3   OH227346   5.929   4.352   0.186 -0.9799 -0.2684 -0.3393
 1904TIP3    H127347   5.962   4.398   0.109 -0.5512  1.7435  0.9580
 1904TIP3    H227348   5.979   4.270   0.189  1.6231  1.2211 -0.2507
 1905TIP3   OH227349   2.193   2.717   7.667  0.6523  0.1608 -0.6189
 1905TIP3    H127350   2.229   2.787   7.614  2.7516 -1.0212 -0.8385
 1905TIP3    H227351   2.253   2.709   7.742 -1.1200  0.4454  0.9124
 1906TIP3   OH227352   6.457   6.239   8.267  0.3871 -0.5924 -0.1464
 1906TIP3    H127353   6.516   6.311   8.241 -0.5656 -0.4026 -1.9484
 1906TIP3    H227354   6.473   6.171   8.202 -1.1790 -0.6343 -0.5114
 1907TIP3   OH227355   0.612   6.459   0.123 -0.0562  0.7842  0.1059
 1907TIP3    H127356   0.698   6.429   0.093  0.7688  0.3508  2.6824
 1907TIP3    H227357   0.603   6.547   0.088  2.1318  1.4160  1.0165
 1908TIP3   OH227358   3.751   6.863   7.352 -0.5638  0.1349  0.5285
 1908TIP3    H127359   3.683   6.915   7.309  0.0834 -0.3993 -1.2207
 1908TIP3    H227360   3.715   6.846   7.439 -3.1337 -0.8816 -0.6029
 1909TIP3   OH227361   2.098   1.512   7.627  0.1348  0.4522 -0.4549
 1909TIP3    H127362   2.063   1.432   7.588  0.5322 -0.2966  0.6694
 1909TIP3    H227363   2.066   1.583   7.571 -2.9221 -0.1770  0.3087
 1910TIP3   OH227364   2.118   6.849   6.644  0.0284 -0.0645 -0.4906
 1910TIP3    H127365   2.034   6.814   6.675 -0.1466 -0.2128 -1.1121
 1910TIP3    H227366   2.095   6.929   6.596  0.0855 -0.7749 -1.7625
 1911TIP3   OH227367   5.809   4.637   8.711 -0.4034 -0.2616  0.3312
 1911TIP3    H127368   5.808   4.547   8.678  0.2601  0.0452 -0.5410
 1911TIP3    H227369   5.718   4.667   8.700 -0.4589 -0.5666 -0.0917
 1912TIP3   OH227370   5.953   2.609   1.074  0.6763  0.1691  0.5864
 1912TIP3    H127371   5.967   2.514   1.083  0.7076  0.1287  0.1348
 1912TIP3    H227372   5.864   2.617   1.039  1.1122  0.2506 -0.5419
 1913TIP3   OH227373   2.519   6.451   7.860 -0.4790  0.3799 -0.2039
 1913TIP3    H127374   2.565   6.413   7.935  0.1283  2.3389  0.4708
 1913TIP3    H227375   2.488   6.536   7.891  1.3544  2.0777 -2.6320
 1914TIP3   OH227376   4.587   2.124   5.834  0.7159  0.6488 -0.0342
 1914TIP3    H127377   4.652   2.194   5.822 -0.3987  1.5022 -1.3600
 1914TIP3    H227378   4.506   2.161   5.800 -0.1982 -0.8526  0.4464
 1915TIP3   OH227379   5.926   4.239   7.070  0.5785 -0.3881 -0.2518
 1915TIP3    H127380   6.009   4.203   7.037  0.3599 -0.0650 -1.1746
 1915TIP3    H227381   5.870   4.246   6.993  0.4710  1.5415 -0.0499
 1916TIP3   OH227382   4.662   1.644   6.300  0.3136 -0.0373  0.1978
 1916TIP3    H127383   4.722   1.698   6.249  0.0855 -0.1604 -0.2108
 1916TIP3    H227384   4.577   1.654   6.257 -0.1303  0.7108  1.2078
 1917TIP3   OH227385   4.649   1.579   6.936  0.1167 -0.5317 -0.0622
 1917TIP3    H127386   4.625   1.609   7.024  1.1481  0.3390 -0.0446
 1917TIP3    H227387   4.674   1.487   6.948 -4.3608 -1.9978 -0.3427
 1918TIP3   OH227388   0.014   6.437   7.404  0.4225 -0.1771 -0.1914
 1918TIP3    H127389  -0.013   6.474   7.320 -2.3025 -2.8590 -0.6901
 1918TIP3    H227390  -0.056   6.461   7.465  0.4826 -1.3215  0.3604
 1919TIP3   OH227391   1.741   0.055   8.705 -0.0234 -0.0600  0.0549
 1919TIP3    H127392   1.793   0.126   8.744  0.4551  0.0517 -0.7619
 1919TIP3    H227393   1.782  -0.025   8.736  0.3983  0.0280 -0.2696
 1920TIP3   OH227394   2.541   0.069   6.888  0.3419 -0.1678 -0.3939
 1920TIP3    H127395   2.503   0.066   6.976  0.1008 -3.3101 -0.4935
 1920TIP3    H227396   2.469   0.093   6.831 -0.3062 -1.2199 -0.0430
 1921TIP3   OH227397   2.201   1.603   0.859 -0.2116  0.2327 -0.3862
 1921TIP3    H127398   2.213   1.698   0.871 -0.5637  0.2599 -0.2300
 1921TIP3    H227399   2.246   1.565   0.934 -0.0178  0.2726 -0.4811
 1922TIP3   OH227400   2.761   0.096   7.706 -0.3814  0.1207  0.4781
 1922TIP3    H127401   2.816   0.027   7.743  1.6570  0.7320 -1.2509
 1922TIP3    H227402   2.690   0.106   7.770 -0.1560 -2.7614  1.3306
 1923TIP3   OH227403   4.760   1.175   7.721  0.1905 -0.0665  0.2686
 1923TIP3    H127404   4.673   1.147   7.749  0.2870  0.2359  0.8798
 1923TIP3    H227405   4.817   1.101   7.743 -0.1603 -1.0299 -1.7640
 1924TIP3   OH227406   6.200   1.976   6.947 -0.7467 -0.6170  0.5956
 1924TIP3    H127407   6.264   2.033   6.989 -1.0805 -1.3917  2.2598
 1924TIP3    H227408   6.175   2.022   6.867  2.4703 -0.6519 -0.5879
 1925TIP3   OH227409   3.993   3.475   5.452  0.0894 -0.0074  0.1577
 1925TIP3    H127410   3.944   3.415   5.508  0.8098  0.0128  0.8238
 1925TIP3    H227411   3.931   3.500   5.383  0.1862 -2.6042 -0.9604
 1926TIP3   OH227412   5.691   0.558   0.565 -0.1496  0.0942 -0.0481
 1926TIP3    H127413   5.722   0.645   0.541  2.0900 -0.6519 -0.1036
 1926TIP3    H227414   5.595   0.564   0.558 -0.0407  2.3874 -0.4965
 1927TIP3   OH227415   6.485   0.276   0.534 -0.5385  0.6953 -0.2069
 1927TIP3    H127416   6.507   0.283   0.441 -1.2662  1.9791 -0.3141
 1927TIP3    H227417   6.487   0.366   0.566 -1.2785  0.3832  0.7871
 1928TIP3   OH227418   3.047   2.386   6.489  0.1229 -0.1368  0.2136
 1928TIP3    H127419   3.024   2.304   6.532 -0.7281  0.3497  0.7288
 1928TIP3    H227420   3.098   2.360   6.413  0.5528 -1.0929  0.8038
 1929TIP3   OH227421   0.786   2.896   0.820 -0.5412  0.1693  0.4339
 1929TIP3    H127422   0.829   2.814   0.795  0.0833 -0.0606  2.1069
 1929TIP3    H227423   0.849   2.939   0.878 -1.5612  1.0166  0.9411
 1930TIP3   OH227424   4.438   2.704   1.791 -0.1605 -0.0335 -0.1819
 1930TIP3    H127425   4.363   2.749   1.753 -0.6877 -2.0510 -1.7212
 1930TIP3    H227426   4.414   2.690   1.883 -1.6643 -0.5926 -0.6386
 1931TIP3   OH227427   3.034   1.807   7.970  0.1666  0.2918 -0.3806
 1931TIP3    H127428   3.061   1.882   8.024 -1.1123  0.6279 -0.1857
 1931TIP3    H227429   2.940   1.799   7.985  0.2270 -1.1557 -0.6673
 1932TIP3   OH227430   2.577   1.812   7.815 -0.9367 -0.2293 -0.4580
 1932TIP3    H127431   2.485   1.823   7.841 -1.1203 -3.2846  0.5875
 1932TIP3    H227432   2.582   1.723   7.781  1.7886 -0.4769  0.3377
 1933TIP3   OH227433   0.579   3.562   7.650 -0.3932  0.2603  0.3378
 1933TIP3    H127434   0.552   3.652   7.671 -1.2403 -0.3538  2.1151
 1933TIP3    H227435   0.675   3.565   7.649 -0.3782  0.9243  1.7440
 1934TIP3   OH227436   4.660   1.195   1.340 -0.4392  0.0093 -0.7466
 1934TIP3    H127437   4.745   1.188   1.384 -1.2654  1.1045  1.1147
 1934TIP3    H227438   4.679   1.247   1.261  0.0315  3.9346  1.6845
 1935TIP3   OH227439   1.199   5.795   0.086  0.0315  0.3284 -0.1855
 1935TIP3    H127440   1.123   5.845   0.117  0.9332  1.1226  0.8278
 1935TIP3    H227441   1.208   5.724   0.150 -1.3012 -1.2777 -1.6718
 1936TIP3   OH227442   6.495   0.648   7.854  0.5704  0.1942  0.4449
 1936TIP3    H127443   6.475   0.637   7.948 -1.0663 -2.0871 -0.0678
 1936TIP3    H227444   6.411   0.672   7.815  0.0808 -3.2501 -0.9474
 1937TIP3   OH227445   0.836   1.893   0.467  0.1453 -0.2547  0.2040
 1937TIP3    H127446   0.806   1.806   0.443  0.9529 -0.6708  0.6673
 1937TIP3    H227447   0.768   1.952   0.433 -1.1167 -1.1432  1.0824
 1938TIP3   OH227448   3.078   2.774   8.354  0.0921 -0.5479  0.4560
 1938TIP3    H127449   2.983   2.792   8.356  0.1504 -0.0885 -0.4016
 1938TIP3    H227450   3.118   2.860   8.341  0.6609 -0.6809  1.2943
 1939TIP3   OH227451   1.927   3.221   0.374  0.2571 -0.0320 -0.4439
 1939TIP3    H127452   1.976   3.147   0.411  1.8449  1.4538  0.5881
 1939TIP3    H227453   1.934   3.208   0.279  1.7158 -0.4933 -0.3067
 1940TIP3   OH227454   2.429   4.217   8.069 -0.2095  0.3343 -0.5387
 1940TIP3    H127455   2.395   4.135   8.033  0.1906  0.0796 -0.3381
 1940TIP3    H227456   2.515   4.227   8.028  0.0199  0.3163 -0.0565
 1941TIP3   OH227457   1.362   1.630   1.507  0.5494  0.0052 -0.2829
 1941TIP3    H127458   1.347   1.543   1.472  1.2800 -0.1613 -0.1966
 1941TIP3    H227459   1.411   1.616   1.589 -1.3360  0.3648  0.9622
 1942TIP3   OH227460   5.476   1.819   7.417  0.0489  0.5882  0.0390
 1942TIP3    H127461   5.473   1.736   7.464 -1.3089  1.4752  1.6203
 1942TIP3    H227462   5.519   1.798   7.334  1.8898 -1.1825  1.3442
 1943TIP3   OH227463   6.414   3.986   0.365 -0.1060  0.3101 -0.5749
 1943TIP3    H127464   6.490   4.037   0.392  0.3659 -1.2141  1.1931
 1943TIP3    H227465   6.367   3.968   0.447 -1.0728 -0.7648 -1.3355
 1944TIP3   OH227466   3.152   6.667   0.931  0.2752  0.1303 -0.7002
 1944TIP3    H127467   3.194   6.583   0.914 -1.6832 -1.0350 -0.0503
 1944TIP3    H227468   3.132   6.665   1.025 -0.9723  0.7455 -0.9306
 1945TIP3   OH227469   5.615   0.201   1.254 -0.5698  0.4252  0.2417
 1945TIP3    H127470   5.654   0.277   1.211 -0.6017  0.2584 -0.0847
 1945TIP3    H227471   5.683   0.169   1.312 -0.5621  0.7151  0.3946
 1946TIP3   OH227472   6.515   1.933   6.393 -0.3095 -0.4602  0.5653
 1946TIP3    H127473   6.531   2.016   6.439  0.5983 -0.3273  0.0421
 1946TIP3    H227474   6.598   1.914   6.350 -1.0230 -0.7844 -0.7072
 1947TIP3   OH227475   3.158   2.609   6.988  0.2297 -0.2772 -0.8115
 1947TIP3    H127476   3.195   2.523   7.003  0.5676 -0.1736 -1.0459
 1947TIP3    H227477   3.233   2.669   6.990 -0.2440  0.4060  2.1793
 1948TIP3   OH227478   1.653   6.713   1.109 -0.8870  0.1652  0.3660
 1948TIP3    H127479   1.591   6.772   1.066 -0.6437 -1.1568 -1.9678
 1948TIP3    H227480   1.738   6.736   1.071 -0.6265 -0.8809  0.2799
 1949TIP3   OH227481   3.454   4.722   0.859 -0.0316  0.2257  0.1278
 1949TIP3    H127482   3.483   4.640   0.898  0.0627  0.3639  0.3557
 1949TIP3    H227483   3.360   4.725   0.877  0.2253  0.9056  1.5338
 1950TIP3   OH227484   5.705   1.514   7.205  0.3493  0.3899  0.4019
 1950TIP3    H127485   5.731   1.446   7.143  2.1172  0.0617  1.4220
 1950TIP3    H227486   5.708   1.596   7.155  1.0728  0.0538 -0.1143
 1951TIP3   OH227487   4.034   2.207   8.084  0.2516 -0.1802 -0.1584
 1951TIP3    H127488   3.949   2.238   8.114 -1.6411 -1.9498 -3.1804
 1951TIP3    H227489   4.028   2.112   8.089  2.1114 -0.3431 -0.3690
 1952TIP3   OH227490   5.157   2.919   1.379  0.0326 -0.5846  0.0760
 1952TIP3    H127491   5.139   2.889   1.468  0.3407 -0.3949  0.2017
 1952TIP3    H227492   5.205   2.847   1.339 -0.0351 -0.6364  0.0869
 1953TIP3   OH227493   3.728   2.642   0.668  0.3542 -0.0738  0.0866
 1953TIP3    H127494   3.823   2.636   0.658  0.2934 -0.5711 -0.2638
 1953TIP3    H227495   3.713   2.624   0.761  0.5928 -0.1818  0.1062
 1954TIP3   OH227496   6.848   0.470   8.442  0.5781 -0.0816 -0.1939
 1954TIP3    H127497   6.921   0.408   8.441  1.5383  0.9742  1.1491
 1954TIP3    H227498   6.779   0.426   8.490  1.5944  0.2087  1.6051
 1955TIP3   OH227499   4.159   2.690   7.102  0.7366  0.6381 -0.6630
 1955TIP3    H127500   4.173   2.756   7.035  1.3378 -0.3164 -1.5202
 1955TIP3    H227501   4.069   2.660   7.089  0.4304  1.3426 -0.2055
 1956TIP3   OH227502   0.894   1.005   5.885 -0.3021 -0.2257  0.2528
 1956TIP3    H127503   0.970   1.019   5.829 -0.1323  1.7134  0.9007
 1956TIP3    H227504   0.849   1.089   5.886 -1.8152 -0.9993  0.8476
 1957TIP3   OH227505   6.155   0.733   7.193 -0.2712 -0.2297  0.1765
 1957TIP3    H127506   6.239   0.779   7.187 -0.7138  0.5259 -0.5860
 1957TIP3    H227507   6.146   0.689   7.109  1.0353 -3.4416  1.5449
 1958TIP3   OH227508   1.314   2.874   7.499 -0.1308  0.1562 -0.1845
 1958TIP3    H127509   1.344   2.963   7.519 -1.2737  1.3406 -3.2379
 1958TIP3    H227510   1.336   2.861   7.407 -1.3520 -2.1822 -0.2132
 1959TIP3   OH227511   0.535   0.931   0.923  0.4261 -0.0202  0.0803
 1959TIP3    H127512   0.580   0.948   1.006 -2.7842  1.0162  1.8072
 1959TIP3    H227513   0.556   1.007   0.868  0.7617  0.4565  0.8436
 1960TIP3   OH227514   1.283   4.848   6.940  0.1309 -0.6573 -0.0843
 1960TIP3    H127515   1.251   4.818   6.854 -2.2078  0.4469  0.3128
 1960TIP3    H227516   1.300   4.941   6.928 -0.0286 -0.5371  0.6104
 1961TIP3   OH227517   4.504   5.127   6.748  0.3692 -0.0244  0.1442
 1961TIP3    H127518   4.563   5.066   6.704 -0.4096 -1.2200  0.7257
 1961TIP3    H227519   4.480   5.084   6.830  1.1737  1.8324  1.4310
 1962TIP3   OH227520   5.469   5.931   1.224  0.5472  0.0845  0.2633
 1962TIP3    H127521   5.498   6.003   1.167 -0.2187 -1.2405 -1.9053
 1962TIP3    H227522   5.529   5.859   1.205  0.2057 -0.4275  1.0729
 1963TIP3   OH227523   4.294   5.596   0.590  0.1547 -0.1504 -0.1460
 1963TIP3    H127524   4.332   5.534   0.652  1.8908  2.1822  1.2945
 1963TIP3    H227525   4.215   5.629   0.633  0.6720  0.5311  0.3114
 1964TIP3   OH227526   2.270   0.213   7.976  0.2669  0.0017 -0.1877
 1964TIP3    H127527   2.240   0.145   8.036  1.3828 -2.9450 -2.6903
 1964TIP3    H227528   2.235   0.187   7.891  3.3553  0.7127 -1.8275
 1965TIP3   OH227529   2.463   1.200   6.520  0.1781  0.4591  0.0672
 1965TIP3    H127530   2.503   1.113   6.510 -0.8646 -0.0904  0.5240
 1965TIP3    H227531   2.537   1.260   6.520  0.8963 -0.3812 -0.7374
 1966TIP3   OH227532   1.665   2.355   5.746 -0.0807  1.1257  0.4100
 1966TIP3    H127533   1.742   2.330   5.797 -0.9151 -0.9776  0.7618
 1966TIP3    H227534   1.591   2.314   5.791 -1.1094  1.0446 -1.2465
 1967TIP3   OH227535   3.775   5.002   8.265 -0.1184 -0.0587 -0.0461
 1967TIP3    H127536   3.855   5.050   8.286 -0.5732  0.8984 -0.4689
 1967TIP3    H227537   3.722   5.008   8.344 -0.3157  0.4217 -0.2159
 1968TIP3   OH227538   2.544   4.130   6.942 -0.1253  0.6006 -0.1681
 1968TIP3    H127539   2.469   4.147   6.885 -0.0003  2.4283  0.1274
 1968TIP3    H227540   2.521   4.173   7.025  1.1869  1.1430 -0.0569
 1969TIP3   OH227541   0.685   2.063   8.580 -0.1774 -0.3484  0.1291
 1969TIP3    H127542   0.726   2.139   8.539 -0.7672  0.3649  0.8607
 1969TIP3    H227543   0.753   1.995   8.577  0.3909  0.2317 -0.4091
 1970TIP3   OH227544   6.778   1.617   8.022 -0.0059  0.3611  0.1946
 1970TIP3    H127545   6.776   1.537   8.075 -1.6958  0.8089  0.8725
 1970TIP3    H227546   6.823   1.681   8.077  1.9989 -0.2542 -0.6306
 1971TIP3   OH227547   4.596   4.535   6.278  0.1394  0.8213 -0.4066
 1971TIP3    H127548   4.642   4.460   6.316  2.0385  1.7889 -0.6482
 1971TIP3    H227549   4.584   4.513   6.186  0.3877  0.6800 -0.4044
 1972TIP3   OH227550   0.458   3.308   7.660  0.4241 -0.4262  0.1545
 1972TIP3    H127551   0.423   3.274   7.743 -1.3793  0.4903 -0.1782
 1972TIP3    H227552   0.479   3.400   7.679  1.3948 -0.5897 -0.0476
 1973TIP3   OH227553   4.380   3.550   5.943 -0.1261  0.5982 -0.4908
 1973TIP3    H127554   4.395   3.569   5.850 -1.1478 -1.1018 -1.0548
 1973TIP3    H227555   4.378   3.454   5.947  2.2379  0.5407  1.6978
 1974TIP3   OH227556   6.642   1.065   6.992 -0.0155  0.4051  0.3447
 1974TIP3    H127557   6.625   1.084   6.900 -0.8380 -0.0082  0.4044
 1974TIP3    H227558   6.678   0.977   6.993 -1.0567 -0.0393  0.4957
 1975TIP3   OH227559   5.524   1.545   0.609  0.3491 -0.3831 -0.3519
 1975TIP3    H127560   5.569   1.470   0.569 -0.7494 -0.7041 -1.0399
 1975TIP3    H227561   5.434   1.537   0.578 -0.1067  0.4210  0.7356
 1976TIP3   OH227562   0.789   0.982   8.278  0.1954 -0.3409  0.5143
 1976TIP3    H127563   0.750   0.925   8.344  1.2294 -1.3324  0.3197
 1976TIP3    H227564   0.796   0.926   8.200 -1.6929  1.0170 -0.7102
 1977TIP3   OH227565   0.328   4.325   0.722 -0.6621  0.0564  0.2122
 1977TIP3    H127566   0.255   4.268   0.697  0.8740 -1.1990 -1.7829
 1977TIP3    H227567   0.293   4.413   0.715 -2.1625 -0.5342 -0.0534
 1978TIP3   OH227568   3.003   3.078   1.230  0.3220  0.0749  0.0029
 1978TIP3    H127569   3.042   3.001   1.272  1.2253 -0.0656 -1.0505
 1978TIP3    H227570   2.991   3.052   1.139 -1.2196  0.5174  0.0431
 1979TIP3   OH227571   1.803   3.299   6.992  0.1287 -0.7593  0.1936
 1979TIP3    H127572   1.885   3.295   7.041  0.6749 -0.3935 -0.6739
 1979TIP3    H227573   1.737   3.323   7.057  0.6946 -1.1036  0.9084
 1980TIP3   OH227574   3.029   1.289   7.745  0.2952 -0.1683  0.1110
 1980TIP3    H127575   3.053   1.299   7.837  0.8860  0.6320 -0.1120
 1980TIP3    H227576   3.112   1.274   7.700  0.1483  0.5629 -0.4269
 1981TIP3   OH227577   2.909   0.563   8.219  0.2714 -0.6097 -0.4841
 1981TIP3    H127578   2.947   0.485   8.260  0.2683 -0.0506  0.6243
 1981TIP3    H227579   2.964   0.635   8.250 -0.3300 -0.0507 -0.6988
 1982TIP3   OH227580   2.487   3.559   2.235  0.2493  0.6606 -0.9901
 1982TIP3    H127581   2.517   3.635   2.286  0.6658  0.7702 -1.3971
 1982TIP3    H227582   2.566   3.509   2.217 -0.1119 -0.2661 -0.1007
 1983TIP3   OH227583   2.978   3.624   2.035 -0.3493 -0.3853  0.2210
 1983TIP3    H127584   2.928   3.670   2.101  0.9031 -0.7926  1.4978
 1983TIP3    H227585   2.958   3.531   2.050 -0.5363 -0.4480 -0.3832
 1984TIP3   OH227586   5.748   6.061   7.147  0.8390  0.5093  0.0838
 1984TIP3    H127587   5.722   6.030   7.234 -1.6992  0.3760 -0.6435
 1984TIP3    H227588   5.755   5.982   7.095 -3.5021  0.7777 -1.2273
 1985TIP3   OH227589   3.800   2.049   8.223 -0.0477  0.2823 -0.3451
 1985TIP3    H127590   3.769   2.139   8.213  0.7431  0.5785 -0.1579
 1985TIP3    H227591   3.725   2.003   8.261 -0.1437  1.0823  0.4852
 1986TIP3   OH227592   0.075   2.079   1.355 -0.2229  0.2718  0.0043
 1986TIP3    H127593   0.005   2.116   1.408 -1.0415 -1.7334  0.4125
 1986TIP3    H227594   0.131   2.153   1.333 -2.1943  1.8444  0.0781
 1987TIP3   OH227595   1.891   6.467   1.166 -0.2244 -0.0406  0.1888
 1987TIP3    H127596   1.848   6.413   1.232 -1.5438  1.6945  0.8243
 1987TIP3    H227597   1.835   6.460   1.089 -0.9031  1.0989  0.5621
 1988TIP3   OH227598   6.500   1.490   6.203  0.3893 -0.0427  0.2881
 1988TIP3    H127599   6.530   1.572   6.163  0.3751 -0.5581 -0.8215
 1988TIP3    H227600   6.429   1.461   6.146  2.1439 -2.2154 -0.9727
 1989TIP3   OH227601   0.340   0.590   1.202 -0.2802  0.7610 -0.1120
 1989TIP3    H127602   0.356   0.598   1.108 -1.6185 -1.1597 -0.5448
 1989TIP3    H227603   0.425   0.564   1.238  0.6644  3.0351 -0.4920
 1990TIP3   OH227604   5.716   0.971   7.190  0.5178 -0.3452 -0.3779
 1990TIP3    H127605   5.688   0.891   7.145  3.0152 -0.7249 -1.4000
 1990TIP3    H227606   5.702   1.040   7.125 -0.5282 -0.0859  0.0930
 1991TIP3   OH227607   4.725   5.368   7.830  0.0396  0.0602 -0.4357
 1991TIP3    H127608   4.633   5.342   7.837  0.1266 -0.3756 -0.8443
 1991TIP3    H227609   4.769   5.322   7.902  0.0916 -0.4773 -0.8028
 1992TIP3   OH227610   5.438   3.012   6.319 -0.1193  0.4531 -0.2696
 1992TIP3    H127611   5.526   3.027   6.287  0.0800  0.8837  0.4571
 1992TIP3    H227612   5.428   3.072   6.393 -1.6235  1.6650 -1.3763
 1993TIP3   OH227613   2.191   4.798   1.514  0.3684  0.5447  0.0597
 1993TIP3    H127614   2.179   4.802   1.609  0.0434  0.8856  0.0052
 1993TIP3    H227615   2.284   4.779   1.502  0.2319 -0.4711  0.4654
 1994TIP3   OH227616   0.566   1.300   7.435  0.0393 -0.0955 -0.0385
 1994TIP3    H127617   0.553   1.278   7.528 -0.5331 -1.0267 -0.3238
 1994TIP3    H227618   0.634   1.367   7.436 -1.5012  1.5601  1.2156
 1995TIP3   OH227619   2.314   6.359   0.254  0.0687 -0.2087 -0.0115
 1995TIP3    H127620   2.324   6.299   0.181  2.7363  1.9774 -1.6249
 1995TIP3    H227621   2.221   6.383   0.253 -0.3624 -1.7749 -1.3487
 1996TIP3   OH227622   0.381   5.729   6.783 -0.0072 -0.4971  0.1435
 1996TIP3    H127623   0.422   5.645   6.763  0.7369  0.2836 -1.8354
 1996TIP3    H227624   0.447   5.778   6.831  0.7637  0.0555 -1.4025
 1997TIP3   OH227625   3.595   0.239   6.614 -0.1435  0.0617  0.0383
 1997TIP3    H127626   3.547   0.298   6.555  0.7867 -1.2421 -2.1364
 1997TIP3    H227627   3.551   0.155   6.604 -1.4079  0.2585  3.0590
 1998TIP3   OH227628   3.136   1.023   7.384  0.2524  0.6796  0.0494
 1998TIP3    H127629   3.111   0.983   7.467 -1.0224 -0.0696 -0.6556
 1998TIP3    H227630   3.073   1.093   7.371  0.2738  0.6159 -0.4095
 1999TIP3   OH227631   4.241   6.704   2.097  0.0771 -0.0557 -0.0173
 1999TIP3    H127632   4.290   6.666   2.023  1.4927  2.3956 -0.4443
 1999TIP3    H227633   4.276   6.660   2.174  1.0816 -0.2025 -0.5444
 2000TIP3   OH227634   1.850   5.991   7.900  0.2064  0.4457 -0.1738
 2000TIP3    H127635   1.769   6.040   7.916 -0.8381 -1.0995 -0.4767
 2000TIP3    H227636   1.868   5.947   7.983  0.0734 -0.1202 -0.4399
 2001TIP3   OH227637   1.605   4.360   8.103  0.7949  0.4062 -0.2226
 2001TIP3    H127638   1.581   4.427   8.040  0.7836 -0.2263 -0.9010
 2001TIP3    H227639   1.690   4.388   8.137  0.2493  1.3862  0.4016
 2002TIP3   OH227640   5.763   3.778   6.770  0.5453  0.3249 -0.0460
 2002TIP3    H127641   5.804   3.841   6.830 -0.8031  0.7704  0.4515
 2002TIP3    H227642   5.822   3.775   6.694 -0.2090  3.6575 -0.9524
 2003TIP3   OH227643   0.950   6.757   8.589  0.5793 -0.2098  0.0286
 2003TIP3    H127644   1.036   6.772   8.629  0.5847  1.9807 -0.6289
 2003TIP3    H227645   0.887   6.782   8.657  0.5084 -0.3255  0.0042
 2004TIP3   OH227646   0.754   3.344   8.442  0.1692 -0.1517 -0.0848
 2004TIP3    H127647   0.846   3.322   8.429  0.0798 -0.6556  0.1416
 2004TIP3    H227648   0.756   3.424   8.495  0.4945  0.5592 -1.1411
 2005TIP3   OH227649   1.900   6.510   1.607 -0.1021 -0.2283  0.4277
 2005TIP3    H127650   1.863   6.467   1.530 -1.1936 -0.1012  0.8671
 2005TIP3    H227651   1.834   6.501   1.675  0.4748  0.4298  1.1059
 2006TIP3   OH227652   6.106   4.024   0.437  0.2790 -0.0039  0.4454
 2006TIP3    H127653   6.140   4.009   0.525 -0.9876 -2.5862  0.6134
 2006TIP3    H227654   6.135   3.947   0.387  0.7945  1.3024 -1.3508
 2007TIP3   OH227655   3.200   5.180   1.416 -0.6948  0.2823 -0.5644
 2007TIP3    H127656   3.124   5.230   1.387 -2.3144  0.0045  2.6798
 2007TIP3    H227657   3.178   5.089   1.396  0.1299  0.4078 -2.1876
 2008TIP3   OH227658   0.492   5.084   8.549 -0.6323 -0.3604 -0.2552
 2008TIP3    H127659   0.494   5.011   8.610 -0.5959  1.0599  1.5446
 2008TIP3    H227660   0.413   5.133   8.573  0.0637  0.9131 -0.4587
 2009TIP3   OH227661   2.188   0.167   8.433  0.6590 -0.0984  0.8231
 2009TIP3    H127662   2.123   0.223   8.392  1.8181  0.2615 -0.6061
 2009TIP3    H227663   2.141   0.086   8.454 -0.3452  0.3378  0.2791
 2010TIP3   OH227664   5.985   1.272   1.074 -0.4150 -0.0472 -0.0918
 2010TIP3    H127665   5.978   1.291   0.980 -0.3868 -0.3627 -0.1579
 2010TIP3    H227666   6.004   1.178   1.078 -1.0960 -0.1748  0.2478
 2011TIP3   OH227667   4.674   3.692   6.890  0.4841  0.3354 -0.0317
 2011TIP3    H127668   4.641   3.621   6.835  1.2078 -0.3319  0.3842
 2011TIP3    H227669   4.682   3.654   6.977  0.2543  1.1197  0.3390
 2012TIP3   OH227670   3.023   4.778   0.945  0.3237  0.3259 -0.1690
 2012TIP3    H127671   2.941   4.820   0.916 -0.7254 -0.4872  1.4973
 2012TIP3    H227672   3.013   4.686   0.919  1.8863  0.6720 -2.2824
 2013TIP3   OH227673   1.585   0.817   0.129  0.5351  0.4376  0.0860
 2013TIP3    H127674   1.519   0.819   0.197  0.5515  0.3713  0.1036
 2013TIP3    H227675   1.568   0.896   0.077 -1.9669 -1.3976 -2.1923
 2014TIP3   OH227676   2.485   3.906   1.420 -0.3714 -0.2273  0.0742
 2014TIP3    H127677   2.547   3.978   1.415  0.2331 -0.4995  2.4577
 2014TIP3    H227678   2.403   3.942   1.386  0.5726  0.7249 -1.2942
 2015TIP3   OH227679   5.243   4.213   6.811 -0.1563 -0.0841  0.1201
 2015TIP3    H127680   5.154   4.179   6.818  0.3678 -1.5129  0.0715
 2015TIP3    H227681   5.275   4.182   6.727  1.1072 -1.4142  1.0378
 2016TIP3   OH227682   2.722   5.847   7.411  0.0865  0.5050  0.3488
 2016TIP3    H127683   2.651   5.860   7.473 -1.1145 -0.6516 -0.7059
 2016TIP3    H227684   2.779   5.783   7.453 -3.0868 -3.9641 -1.3198
 2017TIP3   OH227685   6.441   3.218   6.533 -0.3042  0.6160  0.0666
 2017TIP3    H127686   6.477   3.275   6.601  4.0019 -1.6772  0.1253
 2017TIP3    H227687   6.490   3.242   6.454  1.0384 -2.1953 -0.0906
 2018TIP3   OH227688   3.722   3.626   8.234  0.4022  0.1628  0.5530
 2018TIP3    H127689   3.806   3.635   8.280  0.3833 -0.3088  0.6807
 2018TIP3    H227690   3.740   3.563   8.164 -0.1087 -0.7517  1.2262
 2019TIP3   OH227691   2.055   6.155   0.210  0.4652 -0.0598 -0.2082
 2019TIP3    H127692   2.121   6.087   0.199  0.1209 -0.2086 -1.6594
 2019TIP3    H227693   1.973   6.113   0.181  0.1753  0.8252 -0.7130
 2020TIP3   OH227694   0.240   0.360   8.159  0.2569 -0.0853  0.4936
 2020TIP3    H127695   0.263   0.453   8.157 -0.8677  0.1945 -0.4697
 2020TIP3    H227696   0.209   0.345   8.248 -0.6265  0.7524  0.3499
 2021TIP3   OH227697   6.341   6.482   5.868 -0.2062  0.2069 -0.0244
 2021TIP3    H127698   6.287   6.404   5.879 -1.1461  0.7434 -0.7395
 2021TIP3    H227699   6.282   6.548   5.832  0.4820  1.3867  0.9482
 2022TIP3   OH227700   3.774   2.637   7.498 -0.1742 -0.0633 -0.1109
 2022TIP3    H127701   3.704   2.661   7.560 -0.5452  0.1668 -0.6139
 2022TIP3    H227702   3.756   2.546   7.475 -1.2389  0.4473 -1.4352
 2023TIP3   OH227703   6.733   4.610   6.641  0.5458 -0.0457 -1.1100
 2023TIP3    H127704   6.805   4.550   6.662 -0.8404 -0.8386  1.9042
 2023TIP3    H227705   6.753   4.690   6.692 -0.5169 -0.1700 -0.4755
 2024TIP3   OH227706   4.192   6.163   0.953 -0.1876 -0.2827  0.5962
 2024TIP3    H127707   4.243   6.181   1.032 -0.4793  0.9354  0.5276
 2024TIP3    H227708   4.124   6.103   0.982  1.6388 -2.5222  0.5417
 2025TIP3   OH227709   0.517   6.469   8.180 -0.9640  0.0021 -0.2818
 2025TIP3    H127710   0.432   6.514   8.179 -0.9534  0.0177 -0.3805
 2025TIP3    H227711   0.526   6.432   8.093  0.4014  2.3302 -1.2171
 2026TIP3   OH227712   1.707   0.429   8.372  0.0316  0.2408 -0.3739
 2026TIP3    H127713   1.675   0.371   8.303 -0.6917  0.2260 -0.0276
 2026TIP3    H227714   1.698   0.378   8.453 -0.7363  0.8661 -0.0491
 2027TIP3   OH227715   4.305   3.317   8.005 -0.3791  0.1315  0.2109
 2027TIP3    H127716   4.334   3.407   7.994 -0.2414  0.1239  0.4933
 2027TIP3    H227717   4.222   3.312   7.957 -1.4815  0.9873  1.9285
 2028TIP3   OH227718   2.767   1.603   0.341  0.2820 -0.3086 -0.0852
 2028TIP3    H127719   2.699   1.582   0.277 -1.4109  1.0138  1.2054
 2028TIP3    H227720   2.837   1.643   0.289  1.3681 -4.0447 -1.8463
 2029TIP3   OH227721   1.595   6.493   0.401  0.2522 -0.1541 -0.2178
 2029TIP3    H127722   1.544   6.436   0.459 -2.4098 -0.4202 -2.6239
 2029TIP3    H227723   1.620   6.437   0.328  0.5258  0.9567 -0.9963
 2030TIP3   OH227724   5.302   6.571   8.102 -0.6356 -0.6233  0.0834
 2030TIP3    H127725   5.224   6.562   8.156 -0.7268 -0.9494 -0.1038
 2030TIP3    H227726   5.317   6.484   8.066 -0.6990 -0.3620 -0.5882
 2031TIP3   OH227727   3.684   1.623   0.304 -0.0951 -0.4538  0.1375
 2031TIP3    H127728   3.642   1.679   0.370 -0.4741  1.1157 -1.3601
 2031TIP3    H227729   3.777   1.638   0.315 -0.1554 -0.2113  0.3206
 2032TIP3   OH227730   0.712   0.546   6.756  0.1289 -0.6988 -0.1864
 2032TIP3    H127731   0.769   0.490   6.808 -0.1511  0.4546  1.4242
 2032TIP3    H227732   0.651   0.583   6.819 -1.4473 -0.7110 -1.6422
 2033TIP3   OH227733   1.684   6.398   0.956 -0.4158 -0.2036 -0.3460
 2033TIP3    H127734   1.654   6.308   0.951 -1.1612 -0.0226  0.5869
 2033TIP3    H227735   1.604   6.451   0.954  0.0465  0.5257 -2.0478
 2034TIP3   OH227736   3.939   3.807   0.844 -0.4649  0.7782  0.6254
 2034TIP3    H127737   3.861   3.779   0.797  0.5175  0.7932 -1.0978
 2034TIP3    H227738   3.919   3.897   0.872 -1.3909  0.4654  0.9987
 2035TIP3   OH227739   2.121   1.799   8.541  0.2197  0.1543  0.0010
 2035TIP3    H127740   2.137   1.716   8.585 -0.8959  1.3960  2.9899
 2035TIP3    H227741   2.029   1.795   8.514 -0.2468  0.8473  1.3647
 2036TIP3   OH227742   2.573   2.259   8.171 -0.6397 -0.4631  0.0564
 2036TIP3    H127743   2.655   2.305   8.190 -0.0867 -0.8187 -1.3547
 2036TIP3    H227744   2.509   2.299   8.231  0.5464 -0.1839  1.1782
 2037TIP3   OH227745   2.784   0.104   7.037  0.0922 -0.3141  0.4917
 2037TIP3    H127746   2.723   0.066   6.973 -1.1310 -0.2295  1.5782
 2037TIP3    H227747   2.857   0.042   7.040 -0.1032 -0.6168 -0.5432
 2038TIP3   OH227748   4.792   0.595   8.055  0.2856 -0.1335 -0.2009
 2038TIP3    H127749   4.736   0.517   8.066  0.9548 -0.4256  1.3478
 2038TIP3    H227750   4.732   0.669   8.064  0.1000 -0.4465  1.4541
 2039TIP3   OH227751   2.094   1.151   0.488 -0.0530 -0.4368  0.4937
 2039TIP3    H127752   2.091   1.204   0.408 -0.2914  0.0734  0.8314
 2039TIP3    H227753   2.187   1.135   0.502  0.1063  0.7482  0.9221
 2040TIP3   OH227754   2.887   5.464   7.022 -0.0245  0.2227  0.1176
 2040TIP3    H127755   2.856   5.422   7.103  1.5574 -0.1977  0.5388
 2040TIP3    H227756   2.841   5.548   7.020  0.9788  0.9176  2.2864
 2041TIP3   OH227757   0.912   1.328   8.628 -0.0018 -0.3550  0.1725
 2041TIP3    H127758   0.897   1.410   8.673  1.2461  0.9470 -1.6311
 2041TIP3    H227759   0.843   1.270   8.659 -0.2435  0.9860  2.3426
 2042TIP3   OH227760   4.639   1.951   8.133  0.5648 -0.1785  0.0674
 2042TIP3    H127761   4.699   1.954   8.208 -0.6263 -0.6225  1.0823
 2042TIP3    H227762   4.573   2.017   8.153  0.3734 -0.1207 -0.7299
 2043TIP3   OH227763   0.466   2.390   8.349 -0.1258  0.0511 -0.1131
 2043TIP3    H127764   0.457   2.441   8.430 -1.5479 -1.3115  0.6281
 2043TIP3    H227765   0.384   2.406   8.302  0.0234 -0.4267 -0.5435
 2044TIP3   OH227766   5.694   5.657   7.431  0.0792 -0.0004  0.2030
 2044TIP3    H127767   5.673   5.716   7.358 -0.1271 -0.8976 -0.4865
 2044TIP3    H227768   5.756   5.595   7.394 -1.4200 -1.5950  0.2263
 2045TIP3   OH227769   0.786   6.174   6.393  0.0669 -0.5369  0.7617
 2045TIP3    H127770   0.791   6.158   6.299 -0.2494 -0.5174  0.7395
 2045TIP3    H227771   0.877   6.175   6.422  0.3772  2.1547 -0.0040
 2046TIP3   OH227772   3.711   4.142   8.327 -0.2938 -0.4162 -0.3038
 2046TIP3    H127773   3.783   4.195   8.293  1.7721 -2.3428  0.7158
 2046TIP3    H227774   3.680   4.190   8.404  0.9869 -0.2462  0.1378
 2047TIP3   OH227775   5.285   3.986   7.092  0.5779  0.2179 -0.0488
 2047TIP3    H127776   5.216   3.986   7.027  0.5570 -0.7202 -0.0387
 2047TIP3    H227777   5.260   4.053   7.155 -0.0192  0.2866 -0.3632
 2048TIP3   OH227778   3.097   5.789   7.746 -0.6785  0.0421 -0.6162
 2048TIP3    H127779   3.086   5.699   7.714  1.6020 -1.7001  2.8266
 2048TIP3    H227780   3.016   5.807   7.794 -1.7708  0.5227 -2.5251
 2049TIP3   OH227781   5.454   6.021   0.794 -0.8842 -0.4617  0.1124
 2049TIP3    H127782   5.379   5.961   0.794 -0.5644 -0.8959 -1.1487
 2049TIP3    H227783   5.438   6.079   0.719 -0.9391  0.7429  1.0140
 2050TIP3   OH227784   4.055   1.840   0.796 -0.1358 -0.0696  0.1933
 2050TIP3    H127785   3.986   1.897   0.829 -1.9714 -1.4477 -1.0456
 2050TIP3    H227786   4.079   1.878   0.711  0.2965  0.1659  0.4245
 2051TIP3   OH227787   2.908   4.862   8.123 -0.1403  0.0423  0.5288
 2051TIP3    H127788   2.877   4.909   8.046  0.7447 -0.8416 -0.4115
 2051TIP3    H227789   2.952   4.784   8.087  0.8810 -0.0523  1.8874
 2052TIP3   OH227790   6.723   2.663   0.426 -0.3599 -0.1621  0.1134
 2052TIP3    H127791   6.783   2.638   0.496  0.8780 -1.2034 -1.2687
 2052TIP3    H227792   6.659   2.592   0.422  0.0186 -0.4879 -0.2910
 2053TIP3   OH227793   3.039   3.059   0.412  0.4125  0.2373 -0.4734
 2053TIP3    H127794   3.133   3.048   0.396  0.9077 -1.5573  2.7911
 2053TIP3    H227795   3.032   3.147   0.450  0.9938 -0.0554  0.3466
 2054TIP3   OH227796   4.451   6.204   1.524  0.1572 -0.2239  0.3963
 2054TIP3    H127797   4.518   6.246   1.578 -0.6971  0.4710  0.9349
 2054TIP3    H227798   4.422   6.129   1.577  0.0472 -0.1491  0.4404
 2055TIP3   OH227799   5.310   1.247   7.771 -0.4282 -0.6078  0.0647
 2055TIP3    H127800   5.321   1.259   7.677  2.2780 -0.0421  0.3712
 2055TIP3    H227801   5.266   1.326   7.801 -0.0445 -0.1648 -0.5343
 2056TIP3   OH227802   4.076   3.201   7.921 -0.2619  0.4862  0.5977
 2056TIP3    H127803   4.006   3.238   7.868 -0.4112 -0.6453 -0.0181
 2056TIP3    H227804   4.033   3.140   7.980  0.2493 -0.7434 -0.2584
 2057TIP3   OH227805   4.059   0.833   1.668  0.2924 -0.0393 -0.1208
 2057TIP3    H127806   4.100   0.914   1.698 -0.3595 -0.5345  2.2748
 2057TIP3    H227807   3.978   0.861   1.625  1.0145  0.6619 -1.0715
 2058TIP3   OH227808   3.792   5.779   7.074 -0.8934  0.6587 -0.4014
 2058TIP3    H127809   3.781   5.842   7.145 -1.8018  0.4664 -0.3663
 2058TIP3    H227810   3.811   5.833   6.997 -0.4513  0.8955 -0.1302
 2059TIP3   OH227811   6.183   0.824   1.876 -0.2759  0.0827 -0.3310
 2059TIP3    H127812   6.173   0.897   1.937  2.5625 -1.0481  1.6928
 2059TIP3    H227813   6.095   0.806   1.845 -1.3576  2.9206  0.7857
 2060TIP3   OH227814   5.609   2.214   8.610 -0.1891 -0.1452  0.6903
 2060TIP3    H127815   5.533   2.172   8.650  0.4255 -2.1831 -0.1482
 2060TIP3    H227816   5.683   2.184   8.663  0.2193  0.3405  0.3965
 2061TIP3   OH227817   5.501   0.012   0.465  0.2507  0.1553  0.3199
 2061TIP3    H127818   5.549   0.060   0.532  0.1283  1.3183 -0.3957
 2061TIP3    H227819   5.568  -0.044   0.424  0.3002 -0.6579  1.4585
 2062TIP3   OH227820   6.314   1.366   7.535  0.8925 -0.0248  0.0983
 2062TIP3    H127821   6.301   1.335   7.624  0.0980  2.2034  0.8448
 2062TIP3    H227822   6.238   1.335   7.487  1.3479 -1.2761  0.1547
 2063TIP3   OH227823   2.446   2.563   2.061  0.0669 -0.4032 -0.3738
 2063TIP3    H127824   2.359   2.533   2.087  0.3774 -0.6704  0.4064
 2063TIP3    H227825   2.501   2.485   2.070  0.3476 -0.2862 -1.0532
 2064TIP3   OH227826   6.060   2.305   1.052 -0.4226  0.0050 -0.2265
 2064TIP3    H127827   6.022   2.280   0.968 -1.0074 -0.0222  0.0420
 2064TIP3    H227828   6.127   2.238   1.069  0.8288  0.8926 -1.4110
 2065TIP3   OH227829   3.896   6.207   7.534 -0.2860 -0.1821 -0.7026
 2065TIP3    H127830   3.811   6.249   7.524 -0.7700 -0.2422  2.2548
 2065TIP3    H227831   3.877   6.113   7.539 -0.1055 -0.1697  0.3492
 2066TIP3   OH227832   4.937   6.328   0.145  0.5705  0.3207 -0.4719
 2066TIP3    H127833   4.872   6.327   0.215 -0.5128  1.9651 -1.3739
 2066TIP3    H227834   4.994   6.402   0.167  1.2700 -0.2234 -0.4368
 2067TIP3   OH227835   0.027   1.433   0.452 -0.6317  0.1939  0.3552
 2067TIP3    H127836   0.112   1.404   0.484 -1.7445 -2.1270  1.4617
 2067TIP3    H227837   0.042   1.457   0.360  1.3624  0.8271  0.8007
 2068TIP3   OH227838   1.114   6.211   1.004 -0.0641 -0.0587 -0.5867
 2068TIP3    H127839   1.061   6.279   1.046  0.7669  1.6504 -2.1406
 2068TIP3    H227840   1.077   6.129   1.035 -1.3113  1.0805  1.1510
 2069TIP3   OH227841   5.395   5.355   5.911 -0.6108 -0.2832  0.2354
 2069TIP3    H127842   5.429   5.423   5.852  0.3606 -1.4453 -0.5925
 2069TIP3    H227843   5.468   5.336   5.970 -0.6813 -0.9891  0.1023
 2070TIP3   OH227844   6.751   5.714   2.231 -0.5186  0.4380 -0.5390
 2070TIP3    H127845   6.800   5.688   2.153  0.2627 -0.5126  0.2512
 2070TIP3    H227846   6.757   5.810   2.232  1.0030  0.3589 -0.6673
 2071TIP3   OH227847   0.622   5.108   6.623 -0.2785 -0.1607 -0.5258
 2071TIP3    H127848   0.542   5.158   6.615  0.8351  2.2791  2.0801
 2071TIP3    H227849   0.641   5.078   6.533 -3.3555  0.1918 -1.4041
 2072TIP3   OH227850   2.752   4.394   7.101  0.1660  0.2520 -0.2364
 2072TIP3    H127851   2.684   4.333   7.129  0.1012  0.2363 -0.4284
 2072TIP3    H227852   2.741   4.401   7.006  0.7610 -0.1518 -0.3410
 2073TIP3   OH227853   5.300   1.259   0.616  0.3471  0.4830 -0.1666
 2073TIP3    H127854   5.284   1.334   0.559  2.2347  0.8565 -0.2682
 2073TIP3    H227855   5.372   1.212   0.574  1.4657  0.4869  1.6412
 2074TIP3   OH227856   6.499   1.568   6.829  0.3681 -0.2812  0.3532
 2074TIP3    H127857   6.528   1.628   6.760 -1.6661 -1.0067 -1.2149
 2074TIP3    H227858   6.408   1.547   6.807  0.7159 -3.3010  1.2841
 2075TIP3   OH227859   3.264   5.815   1.348 -0.2684 -0.4898 -0.3830
 2075TIP3    H127860   3.346   5.862   1.332 -1.2557  1.7438  0.6304
 2075TIP3    H227861   3.223   5.809   1.262  0.4079 -0.5079 -0.7078
 2076TIP3   OH227862   6.574   2.639   1.646  0.1067 -0.4136 -0.0060
 2076TIP3    H127863   6.570   2.549   1.677  0.6636  0.0244  1.4000
 2076TIP3    H227864   6.616   2.687   1.716  1.4243  0.6456 -1.4501
 2077TIP3   OH227865   0.773   6.740   1.904  0.0785  0.1909 -0.5317
 2077TIP3    H127866   0.723   6.808   1.950 -0.7437 -0.2262 -0.7866
 2077TIP3    H227867   0.718   6.662   1.909  0.9439 -0.4200 -0.3839
 2078TIP3   OH227868   3.965   5.747   7.547  0.3769  0.6157 -0.0942
 2078TIP3    H127869   3.954   5.652   7.549  0.1191  0.5857 -1.6471
 2078TIP3    H227870   4.031   5.762   7.480 -0.2895  1.5701 -0.5591
 2079TIP3   OH227871   0.965   3.673   2.196  0.4796 -0.3293 -0.4675
 2079TIP3    H127872   1.018   3.749   2.174  0.0204  0.6444  1.5497
 2079TIP3    H227873   0.891   3.708   2.245  0.6718 -2.1112  1.2306
 2080TIP3   OH227874   2.620   5.112   8.281 -0.5841  0.1616 -0.5143
 2080TIP3    H127875   2.711   5.120   8.308 -0.3743  1.4049 -1.5174
 2080TIP3    H227876   2.571   5.168   8.341 -0.3968  1.1885 -1.2968
 2081TIP3   OH227877   5.863   3.194   1.516 -0.8557  0.4731  0.4104
 2081TIP3    H127878   5.944   3.173   1.561 -0.8838  0.7074  0.5749
 2081TIP3    H227879   5.869   3.150   1.431 -0.6482  0.3222  0.5055
 2082TIP3   OH227880   0.564   2.080   0.076  0.4386  0.1207  0.2080
 2082TIP3    H127881   0.635   2.132   0.112  0.2540  1.7503 -1.6173
 2082TIP3    H227882   0.582   2.074  -0.018 -1.6798  0.3835 -0.2802
 2083TIP3   OH227883   4.540   4.764   8.182  0.5632 -0.4433  0.0030
 2083TIP3    H127884   4.529   4.819   8.260  0.0364 -1.2407  0.5076
 2083TIP3    H227885   4.455   4.721   8.171  0.6067 -0.2952 -1.0646
 2084TIP3   OH227886   5.308   2.027   1.289 -0.0527 -0.1425 -0.7313
 2084TIP3    H127887   5.338   1.964   1.354 -0.3998  0.4186 -0.0255
 2084TIP3    H227888   5.218   2.047   1.314 -0.3773 -0.3162 -1.6901
 2085TIP3   OH227889   5.878   6.047   6.279  0.4262 -0.0409  0.3705
 2085TIP3    H127890   5.804   6.027   6.336  2.3059 -2.3113  2.2513
 2085TIP3    H227891   5.884   5.972   6.220  0.9583  0.3622 -0.1046
 2086TIP3   OH227892   3.546   2.276   2.398 -0.3128  0.1714 -0.0758
 2086TIP3    H127893   3.523   2.184   2.410  0.5656 -0.0879 -0.3047
 2086TIP3    H227894   3.556   2.310   2.487 -1.6930  0.3368  0.0342
 2087TIP3   OH227895   0.329   5.602   6.454  0.2497 -0.4335 -0.1539
 2087TIP3    H127896   0.256   5.547   6.482  0.1737 -0.2920 -0.0711
 2087TIP3    H227897   0.300   5.644   6.374 -1.1852  2.3759  1.6594
 2088TIP3   OH227898   2.157   0.583   7.777 -0.1561  0.7454 -0.3601
 2088TIP3    H127899   2.205   0.625   7.848  0.1612  0.0165 -0.1385
 2088TIP3    H227900   2.150   0.492   7.803 -0.5135  0.5800 -1.0138
 2089TIP3   OH227901   0.056   5.905   8.378  0.0827  0.4099 -0.1271
 2089TIP3    H127902   0.086   5.905   8.468  0.5875  0.3136 -0.2923
 2089TIP3    H227903   0.024   5.994   8.363  0.6494  0.6285 -0.0634
 2090TIP3   OH227904   1.436   6.214   7.723  0.3432 -0.0938  0.0477
 2090TIP3    H127905   1.387   6.158   7.663 -1.6243  0.3795  1.1151
 2090TIP3    H227906   1.377   6.287   7.741  2.9154  2.6052 -1.5375
 2091TIP3   OH227907   2.339   1.798   7.120 -0.3830 -0.0080 -0.6882
 2091TIP3    H127908   2.420   1.814   7.072  0.1556  0.1469  0.2349
 2091TIP3    H227909   2.317   1.883   7.159 -0.2748 -0.3367  0.1090
 2092TIP3   OH227910   5.831   0.001   6.988 -0.2649  0.2996 -0.1795
 2092TIP3    H127911   5.759   0.046   6.943 -0.5893 -0.3102 -0.2683
 2092TIP3    H227912   5.907   0.056   6.970 -0.5667  0.5564 -0.6958
 2093TIP3   OH227913   4.147   2.903   8.204  0.5376 -0.5142 -0.0537
 2093TIP3    H127914   4.074   2.914   8.142  1.6937  0.7191 -1.2884
 2093TIP3    H227915   4.108   2.913   8.290 -0.3647  3.3652 -0.7334
 2094TIP3   OH227916   1.763   0.707   6.939  0.1563  1.2749 -0.0392
 2094TIP3    H127917   1.746   0.760   7.016 -1.3046 -0.5389  0.9712
 2094TIP3    H227918   1.704   0.741   6.872 -0.4228  1.2561  0.4519
 2095TIP3   OH227919   0.397   0.623   8.479  0.4086 -0.2560 -0.7816
 2095TIP3    H127920   0.372   0.578   8.560  0.5794  2.4829  0.9507
 2095TIP3    H227921   0.322   0.680   8.460  0.2952 -0.9964 -2.7228
 2096TIP3   OH227922   5.030   1.844   0.254  0.5351  0.0039 -0.9635
 2096TIP3    H127923   5.071   1.895   0.324 -0.5259 -0.5292  0.1007
 2096TIP3    H227924   5.063   1.756   0.266 -1.9391 -0.7964  0.8983
 2097TIP3   OH227925   5.400   4.331   7.026  0.4538  0.1918 -0.3261
 2097TIP3    H127926   5.366   4.420   7.023  1.3409  0.5278 -1.7816
 2097TIP3    H227927   5.345   4.282   6.964 -0.3445 -0.4134  0.8298
 2098TIP3   OH227928   5.834   6.652   7.327 -0.1508  0.1362  0.0259
 2098TIP3    H127929   5.882   6.580   7.369 -0.0390  0.5245  0.5633
 2098TIP3    H227930   5.898   6.693   7.270  0.8317  2.0181  2.3460
 2099TIP3   OH227931   6.812   1.396   8.512  0.5110 -0.1971 -0.4678
 2099TIP3    H127932   6.840   1.432   8.428 -0.2873 -0.4281 -0.8339
 2099TIP3    H227933   6.894   1.366   8.552  0.9362  0.1841 -1.0248
 2100TIP3   OH227934   1.165   2.641   6.739  0.7071  0.5661  0.4798
 2100TIP3    H127935   1.214   2.568   6.702  1.6352  1.0370  0.7364
 2100TIP3    H227936   1.078   2.634   6.701  0.6744 -0.8767  0.7733
 2101TIP3   OH227937   0.146   0.213   7.115  0.0041 -0.3894  0.4059
 2101TIP3    H127938   0.104   0.225   7.200  1.8810 -0.5282  1.3987
 2101TIP3    H227939   0.076   0.181   7.058 -1.9747  2.2308  1.1531
 2102TIP3   OH227940   1.442   5.339   6.680  0.2800  0.0585 -0.2500
 2102TIP3    H127941   1.357   5.373   6.710 -0.3072 -0.2685 -1.4758
 2102TIP3    H227942   1.420   5.259   6.633  1.4648 -1.0572  0.9962
 2103TIP3   OH227943   5.505   1.573   6.780 -0.0178  0.3965 -0.5995
 2103TIP3    H127944   5.470   1.598   6.695  0.1716 -1.0152 -1.1210
 2103TIP3    H227945   5.560   1.497   6.762 -0.6840 -0.4920  0.8929
 2104TIP3   OH227946   2.976   1.475   8.611  0.2072  1.0117 -0.2680
 2104TIP3    H127947   2.927   1.546   8.652 -1.1962  0.4651 -0.9106
 2104TIP3    H227948   2.949   1.397   8.659  1.3845  0.8412  0.1384
 2105TIP3   OH227949   4.241   1.501   1.200 -0.0918 -0.4154 -0.1166
 2105TIP3    H127950   4.277   1.586   1.226  0.1689 -0.3130 -0.7740
 2105TIP3    H227951   4.148   1.517   1.187  0.1274  0.0426 -1.2704
 2106TIP3   OH227952   0.297   1.131   8.307  0.2787  0.8298 -0.2142
 2106TIP3    H127953   0.237   1.078   8.359  0.2950  1.8869  0.9266
 2106TIP3    H227954   0.305   1.213   8.356  1.6814  1.1787 -0.9808
 2107TIP3   OH227955   3.595   2.684   7.829 -0.8902 -0.4066  0.2359
 2107TIP3    H127956   3.688   2.678   7.805 -0.5587 -2.7906  1.7854
 2107TIP3    H227957   3.549   2.683   7.746  0.4234 -1.0690 -0.5222
 2108TIP3   OH227958   2.509   1.159   7.320 -0.4348 -0.6555  0.3043
 2108TIP3    H127959   2.551   1.237   7.284 -0.4728 -0.4055  0.7925
 2108TIP3    H227960   2.565   1.133   7.393 -0.7715 -0.6997  0.5510
 2109TIP3   OH227961   0.783   0.066   1.133  0.3398 -0.0332  0.3514
 2109TIP3    H127962   0.724   0.094   1.203  0.6331 -1.0495  1.0156
 2109TIP3    H227963   0.855   0.129   1.135 -0.0584  0.4272  0.4079
 2110TIP3   OH227964   5.305   4.917   7.919  0.2681 -0.2235 -0.3735
 2110TIP3    H127965   5.234   4.973   7.888  0.3922  1.3584  1.9433
 2110TIP3    H227966   5.272   4.878   8.000  0.7745 -2.2888 -1.1219
 2111TIP3   OH227967   4.288   6.042   6.659  0.6759 -0.2621  0.1886
 2111TIP3    H127968   4.242   6.074   6.737  0.3125  0.2348 -0.2151
 2111TIP3    H227969   4.245   5.959   6.639 -0.2188  0.2962 -0.3051
 2112TIP3   OH227970   4.459   5.178   1.458 -0.4021 -0.5064 -0.0437
 2112TIP3    H127971   4.493   5.095   1.492 -0.9886  0.3180  2.9302
 2112TIP3    H227972   4.436   5.228   1.537 -3.0079  1.2561 -1.7492
 2113TIP3   OH227973   4.133   0.804   6.184 -0.2335 -0.1202  0.0882
 2113TIP3    H127974   4.198   0.874   6.180 -0.7835  0.4907  1.4296
 2113TIP3    H227975   4.050   0.849   6.200 -0.9309 -0.9343 -1.0465
 2114TIP3   OH227976   2.765   5.969   7.166 -0.1306  0.2162 -0.3015
 2114TIP3    H127977   2.761   5.946   7.259 -1.7760 -1.1489 -0.6632
 2114TIP3    H227978   2.686   6.021   7.150  1.0429  2.0123 -0.5947
 2115TIP3   OH227979   4.653   4.307   6.716  0.4173  0.2402  0.3252
 2115TIP3    H127980   4.733   4.263   6.745 -2.1982 -2.3161  4.7943
 2115TIP3    H227981   4.651   4.388   6.766  1.5305  1.9257 -2.1643
 2116TIP3   OH227982   5.434   4.401   1.361 -0.1053 -0.0435  0.1415
 2116TIP3    H127983   5.476   4.315   1.371 -1.1484 -0.4560  1.2159
 2116TIP3    H227984   5.453   4.427   1.271  1.2588 -0.8419  0.1719
 2117TIP3   OH227985   2.519   5.024   1.780  0.2648  0.2035  0.0138
 2117TIP3    H127986   2.518   5.087   1.852  1.7501 -0.3614  0.5680
 2117TIP3    H227987   2.495   4.941   1.819 -1.6846  0.3793 -0.7182
 2118TIP3   OH227988   0.911   3.921   7.101 -0.3497  0.0854  0.2783
 2118TIP3    H127989   0.852   3.911   7.176  0.9981  1.3134  1.5832
 2118TIP3    H227990   0.853   3.927   7.025 -1.7993 -0.4858  1.2940
 2119TIP3   OH227991   1.241   3.536   6.048 -0.9023 -0.1602 -0.0853
 2119TIP3    H127992   1.327   3.497   6.036 -0.6045 -0.1956  1.8406
 2119TIP3    H227993   1.180   3.463   6.035 -0.5818 -0.3704 -0.4168
 2120TIP3   OH227994   5.694   0.911   6.789 -0.6317  1.0412 -0.4814
 2120TIP3    H127995   5.721   0.865   6.709  0.0133  0.0242  0.3029
 2120TIP3    H227996   5.702   0.846   6.858 -2.3732  1.5511  0.2566
 2121TIP3   OH227997   1.649   4.435   7.808  0.6096  0.2747 -0.2944
 2121TIP3    H127998   1.626   4.381   7.733  1.1771  0.9254 -0.9468
 2121TIP3    H227999   1.567   4.445   7.856  0.4187 -0.8424 -0.3624
 2122TIP3   OH228000   5.130   6.564   0.539  0.4032  0.3610 -0.1752
 2122TIP3    H128001   5.147   6.471   0.525 -0.1658  0.3729 -1.0204
 2122TIP3    H228002   5.038   6.568   0.567  1.0081  0.5021  1.9581
 2123TIP3   OH228003   4.427   6.098   7.394 -0.0306 -0.1289  0.1141
 2123TIP3    H128004   4.514   6.084   7.357 -0.7095 -1.4604 -1.0675
 2123TIP3    H228005   4.400   6.184   7.361 -0.1981 -0.8431 -1.6928
 2124TIP3   OH228006   4.919   0.630   0.260  0.2594 -0.1295  1.0731
 2124TIP3    H128007   4.898   0.707   0.208  0.5536  1.0873  2.6776
 2124TIP3    H228008   4.855   0.631   0.331 -0.8796 -2.4108  0.1714
 2125TIP3   OH228009   4.334   3.499   0.883  0.3078  0.4475 -0.1932
 2125TIP3    H128010   4.339   3.418   0.833 -0.5054  0.5264 -0.4265
 2125TIP3    H228011   4.365   3.476   0.970 -1.3071 -0.4932  0.1660
 2126TIP3   OH228012   0.127   0.609   5.969  0.7003  0.0333  0.0944
 2126TIP3    H128013   0.202   0.668   5.971  2.8999 -2.5689  0.5620
 2126TIP3    H228014   0.127   0.567   6.055 -1.1802 -0.2340  0.0171
 2127TIP3   OH228015   4.407   2.846   1.436  0.1103 -0.3546  0.0708
 2127TIP3    H128016   4.352   2.847   1.514  0.1594 -0.7254  0.1088
 2127TIP3    H228017   4.347   2.826   1.364  0.0682 -0.0307  0.0120
 2128TIP3   OH228018   3.914   6.372   1.387  0.5116  0.7064 -0.1679
 2128TIP3    H128019   3.870   6.390   1.470  1.8863 -1.9996  1.2815
 2128TIP3    H228020   4.007   6.383   1.406  0.9785 -1.5694 -0.7760
 2129TIP3   OH228021   5.695   2.876   8.631 -0.0511 -0.1935  0.5127
 2129TIP3    H128022   5.768   2.902   8.576  0.3694 -0.0012  1.1508
 2129TIP3    H228023   5.703   2.930   8.710 -0.1280 -1.0778  1.1430
 2130TIP3   OH228024   1.608   3.620   0.851 -0.4554 -0.1005  0.0561
 2130TIP3    H128025   1.703   3.609   0.858 -0.1701  0.9087 -1.7523
 2130TIP3    H228026   1.590   3.703   0.895 -0.4402 -0.0345 -0.0638
 2131TIP3   OH228027   3.272   5.191   1.795  0.3498  0.1359 -0.2696
 2131TIP3    H128028   3.311   5.113   1.835 -1.2152 -0.1189  0.8848
 2131TIP3    H228029   3.182   5.164   1.775 -0.6332  1.9930  1.3324
 2132TIP3   OH228030   5.728   1.711   1.015 -0.5564  0.1808 -0.3543
 2132TIP3    H128031   5.645   1.681   1.051 -0.9727  0.7342 -0.8271
 2132TIP3    H228032   5.730   1.677   0.926  0.6105 -1.4495  0.2473
 2133TIP3   OH228033   2.285   1.575   0.591 -0.3297 -0.4287 -0.1933
 2133TIP3    H128034   2.223   1.580   0.664 -0.3930  1.0891 -0.3242
 2133TIP3    H228035   2.263   1.650   0.535  1.5765  0.1103 -0.2778
 2134TIP3   OH228036   0.929   2.075   0.195  0.1656 -0.4645 -0.8221
 2134TIP3    H128037   0.869   2.060   0.268  0.0889  0.5105 -0.6827
 2134TIP3    H228038   0.994   2.136   0.229  1.6387 -1.9912 -0.7626
 2135TIP3   OH228039   6.400   4.831   0.004 -0.2756  0.2765  0.5512
 2135TIP3    H128040   6.336   4.761   0.018  0.0543 -0.0359  0.5128
 2135TIP3    H228041   6.353   4.911   0.028 -1.1752  0.2301 -0.9392
 2136TIP3   OH228042   5.536   5.108   8.391  0.0776  0.0960  0.1171
 2136TIP3    H128043   5.571   5.197   8.399  0.5630 -0.1730  1.1332
 2136TIP3    H228044   5.600   5.061   8.339 -0.3632  0.4194 -0.7486
 2137TIP3   OH228045   3.780   3.770   6.957  0.0595  0.8765  0.2573
 2137TIP3    H128046   3.814   3.852   6.992 -0.3045  1.3065 -0.3596
 2137TIP3    H228047   3.745   3.794   6.871  1.2059 -0.1862 -0.5483
 2138TIP3   OH228048   1.199   2.483   6.229 -0.0159 -0.6713  0.6348
 2138TIP3    H128049   1.261   2.467   6.159  0.5550 -0.7102  1.1390
 2138TIP3    H228050   1.245   2.543   6.289 -1.4914  1.6444 -0.3962
 2139TIP3   OH228051   4.919   5.036   1.762 -0.4846  0.3591  0.1206
 2139TIP3    H128052   4.933   4.948   1.798  1.0717  0.3045 -0.5470
 2139TIP3    H228053   4.906   5.091   1.839 -3.5925 -0.6999  0.5277
 2140TIP3   OH228054   6.422   1.320   6.580  0.6403  0.2755  0.1157
 2140TIP3    H128055   6.352   1.287   6.525 -0.1154 -0.1719  1.3030
 2140TIP3    H228056   6.425   1.414   6.561 -0.8372  0.4501  0.6110
 2141TIP3   OH228057   1.090   0.426   0.175 -0.1424 -0.2344  0.6325
 2141TIP3    H128058   1.070   0.491   0.108  0.3473 -0.4188  0.3028
 2141TIP3    H228059   1.181   0.402   0.159 -0.1668 -0.6315  1.0651
 2142TIP3   OH228060   2.128   1.736   6.919  0.3796  0.4370  0.1561
 2142TIP3    H128061   2.041   1.777   6.918  1.2133  2.3124  0.0924
 2142TIP3    H228062   2.167   1.765   7.001  1.4019  0.6344 -0.3847
 2143TIP3   OH228063   5.336   3.456   1.105  0.3042  0.3439 -0.6821
 2143TIP3    H128064   5.424   3.418   1.100  0.7888  1.4644 -0.8795
 2143TIP3    H228065   5.278   3.383   1.083  0.9747 -1.1206  2.0642
 2144TIP3   OH228066   5.314   5.965   0.050 -0.1567  0.2222 -0.2188
 2144TIP3    H128067   5.365   6.045   0.062 -0.1746  0.2087 -0.0496
 2144TIP3    H228068   5.256   5.962   0.126 -1.5464  1.0716 -1.1973
 2145TIP3   OH228069   3.259   6.852   8.166  0.1703  0.0659 -0.3971
 2145TIP3    H128070   3.257   6.890   8.254 -2.8716 -1.8947  0.5289
 2145TIP3    H228071   3.185   6.893   8.121  2.0376  1.5074 -2.3884
 2146TIP3   OH228072   2.042   0.787   6.936  0.2165  0.3876  0.0869
 2146TIP3    H128073   1.983   0.745   6.998  2.2638 -1.8045  0.6819
 2146TIP3    H228074   2.028   0.740   6.854 -0.7212  1.6647 -0.5307
 2147TIP3   OH228075   5.226   6.697   1.293 -0.1010  0.3104 -0.3219
 2147TIP3    H128076   5.306   6.645   1.293  0.2995  0.9174 -0.1525
 2147TIP3    H228077   5.256   6.787   1.276 -0.6756  0.6498  0.4331
 2148TIP3   OH228078   4.285   3.950   8.140 -0.0130  0.4326 -0.3872
 2148TIP3    H128079   4.279   3.995   8.224  2.7394  0.0394  0.1057
 2148TIP3    H228080   4.305   3.860   8.162 -1.6050 -0.2468 -1.4796
 2149TIP3   OH228081   4.671   6.868   7.817  0.1337 -0.6647  0.0938
 2149TIP3    H128082   4.754   6.913   7.800  0.5694 -1.6718 -0.4941
 2149TIP3    H228083   4.665   6.865   7.913  0.4819 -0.0731  0.1437
 2150TIP3   OH228084   6.341   2.394   8.715  0.8928 -0.1048  0.1081
 2150TIP3    H128085   6.275   2.460   8.736  0.5571 -0.4431  0.1367
 2150TIP3    H228086   6.333   2.383   8.620  2.0347  1.0299 -0.1506
 2151TIP3   OH228087   2.951   5.645   6.529 -0.4820 -0.3444  0.1532
 2151TIP3    H128088   3.033   5.621   6.570 -0.9119  0.7831  1.8072
 2151TIP3    H228089   2.913   5.563   6.500  0.9939 -0.9250 -0.2100
 2152TIP3   OH228090   0.142   1.238   7.772 -0.1480 -0.0325  0.4875
 2152TIP3    H128091   0.166   1.330   7.784 -0.1922  0.1471 -0.6511
 2152TIP3    H228092   0.050   1.240   7.748  0.7148  0.0636 -3.6069
 2153TIP3   OH228093   2.136   4.196   6.127 -0.3070  0.4293  0.1829
 2153TIP3    H128094   2.152   4.290   6.134  1.5952  0.3522 -1.9861
 2153TIP3    H228095   2.070   4.189   6.058 -0.6796  0.1637  0.5612
 2154TIP3   OH228096   3.827   0.842   1.529  0.0213  0.3372  0.2584
 2154TIP3    H128097   3.855   0.883   1.447  1.7611  1.5415  1.3802
 2154TIP3    H228098   3.817   0.749   1.507 -0.5235  0.7820 -1.5206
 2155TIP3   OH228099   5.839   3.487   7.843  0.1640  0.0205 -0.6006
 2155TIP3    H128100   5.801   3.508   7.758  1.1982  0.1322 -1.0442
 2155TIP3    H228101   5.778   3.424   7.881 -1.2002  1.2482 -0.6823
 2156TIP3   OH228102   1.333   2.582   7.076  0.3003 -0.2556 -0.0802
 2156TIP3    H128103   1.295   2.644   7.139  0.4817 -0.4126  0.1857
 2156TIP3    H228104   1.260   2.524   7.053  0.3684 -0.5516  0.4223
 2157TIP3   OH228105   2.656   4.395   7.708 -0.0492 -0.0950  0.1427
 2157TIP3    H128106   2.579   4.397   7.764 -0.8012 -0.0848 -0.8748
 2157TIP3    H228107   2.679   4.488   7.696 -0.8245 -0.0237 -0.8282
 2158TIP3   OH228108   5.088   0.823   7.247 -1.0219  0.5770 -0.3290
 2158TIP3    H128109   5.042   0.753   7.200 -0.3073 -0.0431 -0.1190
 2158TIP3    H228110   5.021   0.861   7.304 -0.6090 -2.5720  2.5765
 2159TIP3   OH228111   5.498   0.873   6.168  0.1790  0.0404  0.1544
 2159TIP3    H128112   5.591   0.887   6.186 -0.0728 -0.6625  2.2061
 2159TIP3    H228113   5.490   0.779   6.154 -0.2225  0.1229 -0.2037
 2160TIP3   OH228114   2.095   3.688   7.347  0.2661 -0.5550 -0.3143
 2160TIP3    H128115   2.168   3.639   7.309  1.8458  1.2441  0.2686
 2160TIP3    H228116   2.041   3.712   7.272  0.4250 -1.6086 -0.7900
 2161TIP3   OH228117   3.612   6.726   8.282  0.3687  0.0019  0.4621
 2161TIP3    H128118   3.585   6.742   8.372 -2.1533  1.3746 -0.4399
 2161TIP3    H228119   3.553   6.658   8.250  0.6134  0.1885 -0.4157
 2162TIP3   OH228120   4.753   2.474   6.079  0.3624  0.2801 -0.1404
 2162TIP3    H128121   4.761   2.391   6.125  0.1568  0.6254  0.5375
 2162TIP3    H228122   4.841   2.511   6.079  0.4014  0.1853 -0.2024
 2163TIP3   OH228123   4.131   5.275   7.101  0.2031 -0.2023  0.7057
 2163TIP3    H128124   4.092   5.349   7.056 -0.7519 -2.1406 -1.9480
 2163TIP3    H228125   4.097   5.198   7.055  0.8768 -2.3430  3.4865
 2164TIP3   OH228126   1.141   3.529   6.321 -0.2637  0.3470 -0.2109
 2164TIP3    H128127   1.157   3.563   6.232 -0.3208 -0.8452 -0.6900
 2164TIP3    H228128   1.189   3.447   6.324 -1.6675 -0.4819  0.2601
 2165TIP3   OH228129   5.918   4.027   8.549 -0.0171  0.3962  0.1881
 2165TIP3    H128130   5.993   4.085   8.534 -0.3938  0.6783 -0.6743
 2165TIP3    H228131   5.844   4.074   8.512 -0.4853 -0.2375  0.3031
 2166TIP3   OH228132   3.250   2.556   7.494  0.2821 -0.1151 -0.4122
 2166TIP3    H128133   3.177   2.534   7.551  0.3022  0.2906 -0.2307
 2166TIP3    H228134   3.212   2.609   7.424  0.2886 -0.4614 -0.6842
 2167TIP3   OH228135   5.688   1.948   7.585 -0.1518  0.0375  0.7293
 2167TIP3    H128136   5.603   1.909   7.563 -0.8529  0.3769  2.6207
 2167TIP3    H228137   5.750   1.907   7.525 -1.4173 -1.3873  0.3455
 2168TIP3   OH228138   1.667   5.976   7.046  0.1046  0.9883  0.0016
 2168TIP3    H128139   1.576   5.964   7.075  0.3047 -1.6626 -0.2467
 2168TIP3    H228140   1.678   6.071   7.043 -2.4090  1.3961  0.7837
 2169TIP3   OH228141   3.420   1.799   0.437  0.1055  0.0334 -0.0471
 2169TIP3    H128142   3.426   1.893   0.419 -0.7823  0.0377 -0.3703
 2169TIP3    H228143   3.484   1.784   0.507  1.7588  0.4928 -1.3920
 2170TIP3   OH228144   4.240   3.554   7.858 -0.7418  0.1321  0.0851
 2170TIP3    H128145   4.178   3.602   7.912 -1.0666 -0.7116  0.4884
 2170TIP3    H228146   4.186   3.511   7.791 -0.3293  1.3141 -1.0533
 2171TIP3   OH228147   4.405   6.361   2.257  0.3116  0.1983  0.4890
 2171TIP3    H128148   4.407   6.455   2.270  0.7212  0.2721 -0.0808
 2171TIP3    H228149   4.489   6.330   2.289  0.0040 -0.0343  1.0886
 2172TIP3   OH228150   6.646   5.578   8.690 -0.9806  0.3597  0.6350
 2172TIP3    H128151   6.686   5.519   8.626 -1.3610 -0.3116  1.0120
 2172TIP3    H228152   6.555   5.549   8.696 -0.6997 -0.2850  2.2727
 2173TIP3   OH228153   4.751   4.851   7.176  0.1486 -0.5147  0.3101
 2173TIP3    H128154   4.719   4.940   7.165 -0.5713 -0.8030 -0.0484
 2173TIP3    H228155   4.697   4.799   7.116  2.1346 -0.8594 -1.2657
 2174TIP3   OH228156   2.326   6.686   6.715 -0.1971  0.0904 -0.7326
 2174TIP3    H128157   2.261   6.747   6.681  0.8550  1.2116 -0.8186
 2174TIP3    H228158   2.372   6.654   6.637  0.7367  0.9333 -0.5376
 2175TIP3   OH228159   4.237   0.672   1.169  0.1525 -0.2835  0.1100
 2175TIP3    H128160   4.231   0.766   1.185  2.1175  0.1053 -1.0533
 2175TIP3    H228161   4.326   0.649   1.195 -0.0631 -1.6793 -0.3010
 2176TIP3   OH228162   0.947   1.167   1.028  0.1512  0.2210  1.3347
 2176TIP3    H128163   1.013   1.172   1.097  0.6901  0.2632  0.8237
 2176TIP3    H228164   0.874   1.119   1.068  0.4779  0.1974  1.9139
 2177TIP3   OH228165   4.396   2.602   7.451 -0.7385  0.1323  0.1634
 2177TIP3    H128166   4.309   2.604   7.491 -2.0644  0.7708 -2.5512
 2177TIP3    H228167   4.437   2.524   7.488 -2.0702  0.3051  2.1893
 2178TIP3   OH228168   1.564   0.931   0.742  0.9258  0.0366 -0.3882
 2178TIP3    H128169   1.524   0.941   0.829  2.1515 -1.3758  0.3981
 2178TIP3    H228170   1.658   0.922   0.761  1.0618 -1.7657 -1.7231
 2179TIP3   OH228171   5.728   5.178   1.511  0.4459 -0.0198 -0.3150
 2179TIP3    H128172   5.742   5.148   1.601  1.5913  0.9594 -0.1515
 2179TIP3    H228173   5.771   5.264   1.507 -1.2083  0.8215 -1.2666
 2180TIP3   OH228174   1.222   5.900   8.064 -0.2232 -0.0916 -0.1940
 2180TIP3    H128175   1.298   5.914   8.007 -0.1383 -1.2206 -0.3750
 2180TIP3    H228176   1.153   5.871   8.005 -0.9534  1.3454 -0.0927
 2181TIP3   OH228177   2.631   4.899   6.984  0.2053  0.1906  0.0006
 2181TIP3    H128178   2.546   4.895   7.027 -0.2706 -0.2574 -0.9572
 2181TIP3    H228179   2.664   4.987   7.005  0.0174 -0.0151  1.2859
 2182TIP3   OH228180   2.893   6.240   6.669 -0.9282 -0.2926  0.2544
 2182TIP3    H128181   2.973   6.289   6.647 -2.3996  1.8238 -0.8197
 2182TIP3    H228182   2.909   6.205   6.756  1.2331 -0.0801 -0.0068
 2183TIP3   OH228183   3.068   3.310   0.278 -0.6080 -0.4965  0.6400
 2183TIP3    H128184   3.103   3.275   0.196 -0.0311  0.3991  0.4919
 2183TIP3    H228185   3.145   3.315   0.336 -0.5986  0.8673  0.5340
 2184TIP3   OH228186   3.397   5.519   1.360 -0.3418 -0.2505 -0.2873
 2184TIP3    H128187   3.370   5.487   1.446 -0.6649  0.3093 -0.1743
 2184TIP3    H228188   3.334   5.481   1.299  0.3892 -1.3317 -0.3865
 2185TIP3   OH228189   6.856   1.984   7.056  0.2237 -0.0067 -0.1085
 2185TIP3    H128190   6.803   2.046   7.106 -0.6263 -1.0783  0.3630
 2185TIP3    H228191   6.883   1.918   7.120 -0.7717 -1.3398 -0.9960
 2186TIP3   OH228192   4.430   3.252   6.405  0.1268  0.4552  0.2306
 2186TIP3    H128193   4.339   3.273   6.425  0.1207 -0.4446  1.2194
 2186TIP3    H228194   4.466   3.216   6.486  0.3443 -2.5459 -1.0427
 2187TIP3   OH228195   6.213   2.801   6.496 -0.5388  0.4445  0.2793
 2187TIP3    H128196   6.250   2.860   6.561 -1.2876  0.3412  0.8160
 2187TIP3    H228197   6.129   2.840   6.473  0.3105  1.2273 -1.6982
 2188TIP3   OH228198   1.322   3.128   7.670 -1.0065  0.0496  0.5854
 2188TIP3    H128199   1.280   3.170   7.595 -1.8935  0.6552  1.3933
 2188TIP3    H228200   1.289   3.176   7.746  2.3264  1.5940  1.2319
 2189TIP3   OH228201   4.914   1.419   0.506 -0.0728  0.0952  0.3891
 2189TIP3    H128202   4.887   1.485   0.442  1.0915  0.5361  0.3295
 2189TIP3    H228203   4.989   1.458   0.551 -0.6932 -0.3385  1.8326
 2190TIP3   OH228204   3.402   0.329   8.157  0.7068 -0.5312  0.6452
 2190TIP3    H128205   3.497   0.335   8.162  0.6269  0.4729  1.3340
 2190TIP3    H228206   3.376   0.284   8.238  0.5162  0.4133  1.1210
 2191TIP3   OH228207   4.870   1.920   8.590 -0.0954  0.4380  0.1175
 2191TIP3    H128208   4.915   2.004   8.590  0.7342  0.0077 -0.2891
 2191TIP3    H228209   4.828   1.915   8.676  0.6330  0.8623  0.5073
 2192TIP3   OH228210   0.806   1.266   5.848  0.1421 -0.3766  1.0058
 2192TIP3    H128211   0.874   1.316   5.803  0.7293 -0.8131  1.4064
 2192TIP3    H228212   0.743   1.332   5.876 -0.8893 -0.1670 -1.4917
 2193TIP3   OH228213   5.956   2.099   0.826 -0.5330 -0.6049  0.3932
 2193TIP3    H128214   5.959   2.010   0.862 -0.6872 -0.5684  0.4974
 2193TIP3    H228215   5.869   2.131   0.848 -0.3204 -0.2618  0.7457
 2194TIP3   OH228216   0.990   2.901   0.460 -0.2037 -0.3417  0.4374
 2194TIP3    H128217   1.027   2.912   0.372  0.7817 -1.1787  0.7230
 2194TIP3    H228218   0.897   2.922   0.450 -0.1690 -0.7106 -0.8607
 2195TIP3   OH228219   4.452   0.578   0.272  0.3545  0.2822 -0.2455
 2195TIP3    H128220   4.489   0.507   0.219 -0.7925  0.0512 -0.7729
 2195TIP3    H228221   4.369   0.543   0.304  0.4271  0.8925  0.6624
 2196TIP3   OH228222   3.047   0.048   1.529  0.4590 -0.1228 -0.2199
 2196TIP3    H128223   3.027  -0.007   1.453 -0.2673 -0.4408  0.1880
 2196TIP3    H228224   2.981   0.024   1.594  0.3566  0.9687  0.1027
 2197TIP3   OH228225   3.442   1.963   1.896  0.1554  0.5785 -0.7999
 2197TIP3    H128226   3.449   1.931   1.806  0.8461 -0.2378 -0.4670
 2197TIP3    H228227   3.372   2.028   1.893  0.2467  0.6420 -1.9489
 2198TIP3   OH228228   2.781   6.782   7.266  0.1081 -0.1758 -0.1377
 2198TIP3    H128229   2.825   6.797   7.350  0.5769  0.8179 -0.5469
 2198TIP3    H228230   2.837   6.825   7.202 -1.3835  0.9774 -0.7092
 2199TIP3   OH228231   6.260   2.409   6.241  0.3013  0.2636 -0.3958
 2199TIP3    H128232   6.179   2.449   6.271 -0.1871  0.8134 -2.3700
 2199TIP3    H228233   6.289   2.355   6.315 -1.8604  0.0327  0.3267
 2200TIP3   OH228234   3.490   2.547   8.658  0.2184  0.1217  0.0393
 2200TIP3    H128235   3.408   2.586   8.628  0.9056  1.9805  0.4452
 2200TIP3    H228236   3.465   2.489   8.730 -0.8218  0.0037 -0.4055
 2201TIP3   OH228237   1.557   6.046   8.194  0.1587  0.1231  0.5916
 2201TIP3    H128238   1.575   6.094   8.113 -1.4974  0.2184  0.2504
 2201TIP3    H228239   1.641   6.044   8.240  0.8240  1.1877 -0.5321
 2202TIP3   OH228240   1.475   2.443   6.454 -0.4627  0.2123 -0.0560
 2202TIP3    H128241   1.421   2.497   6.398  1.2116  1.1281 -0.8616
 2202TIP3    H228242   1.563   2.479   6.444  0.0343 -0.0659  2.5771
 2203TIP3   OH228243   6.356   4.148   8.243 -0.4683 -0.0956  0.0333
 2203TIP3    H128244   6.451   4.148   8.257 -0.4409 -1.0180 -0.0336
 2203TIP3    H228245   6.342   4.077   8.180 -1.3413 -1.0136  1.2000
 2204TIP3   OH228246   2.145   2.561   7.077 -0.0572 -0.3324  0.5465
 2204TIP3    H128247   2.215   2.542   7.015 -0.2864  0.9534 -0.1390
 2204TIP3    H228248   2.188   2.560   7.163  0.4504 -1.1795  0.2976
 2205TIP3   OH228249   1.902   6.634   8.246  0.2959 -0.4079  0.5649
 2205TIP3    H128250   1.811   6.636   8.273  0.6748 -0.2783  1.9324
 2205TIP3    H228251   1.921   6.541   8.233  0.0128 -0.4476  0.4338
 2206TIP3   OH228252   0.293   3.908   0.647  0.0418  0.4518 -0.1557
 2206TIP3    H128253   0.239   3.922   0.725  1.1427 -2.0425  1.1519
 2206TIP3    H228254   0.233   3.868   0.584 -0.5158  1.1668 -0.0928
 2207TIP3   OH228255   0.473   4.574   6.264 -0.4726 -0.4366  0.5282
 2207TIP3    H128256   0.484   4.659   6.307 -1.4219  0.2704 -0.5858
 2207TIP3    H228257   0.525   4.581   6.184 -0.5891 -0.8943  0.4075
 2208TIP3   OH228258   2.870   3.505   8.581 -0.2984  0.0368  0.3890
 2208TIP3    H128259   2.964   3.498   8.564 -0.5712 -3.0143 -0.2870
 2208TIP3    H228260   2.835   3.552   8.505  0.4453 -0.4654 -0.2730
 2209TIP3   OH228261   5.451   6.579   7.525 -0.5310 -0.3198  0.2516
 2209TIP3    H128262   5.424   6.605   7.437  1.8478  0.0495 -0.4565
 2209TIP3    H228263   5.370   6.557   7.570 -1.9361  0.8065 -1.5984
 2210TIP3   OH228264   3.121   4.699   7.587  0.0785  0.0284  0.2573
 2210TIP3    H128265   3.170   4.765   7.538 -0.1280  1.0019  1.3275
 2210TIP3    H228266   3.121   4.732   7.677 -0.1777 -1.3542  0.7766
 2211TIP3   OH228267   2.526   0.174   8.549 -0.0090 -0.0480 -0.1287
 2211TIP3    H128268   2.574   0.255   8.532  1.6832 -0.3693  2.6409
 2211TIP3    H228269   2.469   0.164   8.473 -2.4295  5.2095  0.5756
 2212TIP3   OH228270   4.733   0.528   8.422 -0.9061  0.1045 -0.2483
 2212TIP3    H128271   4.819   0.487   8.427 -0.9814  0.0178  0.5535
 2212TIP3    H228272   4.700   0.505   8.335  0.6647  1.7639 -1.3593
 2213TIP3   OH228273   2.863   6.178   7.582  0.2427 -0.1882 -0.3219
 2213TIP3    H128274   2.811   6.135   7.650 -0.3737 -0.9165 -1.2254
 2213TIP3    H228275   2.806   6.248   7.550  0.4094 -0.0426 -0.3006
 2214TIP3   OH228276   2.212   5.754   7.347 -0.2072  0.0568  0.8673
 2214TIP3    H128277   2.194   5.785   7.258 -2.1154 -0.7560  0.8999
 2214TIP3    H228278   2.277   5.684   7.336  1.0147  1.2419  0.3549
 2215TIP3   OH228279   1.968   1.123   1.224 -0.1310  0.4083  0.0135
 2215TIP3    H128280   2.002   1.195   1.277  3.1550  0.6267 -2.1334
 2215TIP3    H228281   1.910   1.165   1.161  0.8308  1.0630 -0.4592
 2216TIP3   OH228282   1.649   2.874   1.669 -0.1672  0.1870 -0.7487
 2216TIP3    H128283   1.728   2.822   1.677 -0.7726 -0.6504  0.1045
 2216TIP3    H228284   1.623   2.892   1.760  0.0861  2.0973 -1.0085
 2217TIP3   OH228285   6.260   2.953   1.200 -0.4007  0.6138  0.5593
 2217TIP3    H128286   6.181   2.901   1.188  0.5226 -0.9006  0.7662
 2217TIP3    H228287   6.329   2.888   1.217  0.8471  1.8972  0.5690
 2218TIP3   OH228288   6.115   1.321   7.331  0.4709 -0.8711  0.1910
 2218TIP3    H128289   6.047   1.271   7.285 -2.3376  1.2040  1.8177
 2218TIP3    H228290   6.183   1.334   7.265 -1.7338 -1.0994 -2.2884
 2219TIP3   OH228291   4.429   1.775   7.157 -0.2325  0.1884 -0.2249
 2219TIP3    H128292   4.506   1.831   7.155  0.8125 -1.1923 -2.0614
 2219TIP3    H228293   4.458   1.697   7.206 -1.0940  0.4571  0.7426
 2220TIP3   OH228294   1.314   1.752   6.625  0.1729  0.0341  0.6858
 2220TIP3    H128295   1.312   1.818   6.694 -0.9781  0.5727  0.1741
 2220TIP3    H228296   1.225   1.751   6.590  0.5886 -0.5991 -0.4313
 2221TIP3   OH228297   0.550   4.414   7.133 -0.3951 -0.5358  0.3240
 2221TIP3    H128298   0.476   4.472   7.155  0.6206 -0.0664  2.8136
 2221TIP3    H228299   0.581   4.446   7.049 -1.1845  1.1965  0.6500
 2222TIP3   OH228300   2.472   4.666   0.548 -0.1588  0.6638  0.2425
 2222TIP3    H128301   2.478   4.630   0.637  1.5465  1.0094  0.3008
 2222TIP3    H228302   2.414   4.606   0.502 -1.7400  0.9118  1.7788
 2223TIP3   OH228303   6.853   3.216   7.635 -0.0272 -0.1188  0.1542
 2223TIP3    H128304   6.943   3.248   7.630 -1.0225  2.9257 -1.3572
 2223TIP3    H228305   6.835   3.209   7.729  1.8857 -1.2828  0.4868
 2224TIP3   OH228306   2.396   2.579   7.489  0.3334  0.0189 -0.2026
 2224TIP3    H128307   2.386   2.536   7.574  1.6486  1.7794  0.9222
 2224TIP3    H228308   2.469   2.532   7.447 -1.7365 -2.3319 -1.4479
 2225TIP3   OH228309   0.773   4.456   2.338  0.2840 -0.2312  0.3180
 2225TIP3    H128310   0.827   4.380   2.316 -0.1657 -0.4106 -0.2060
 2225TIP3    H228311   0.836   4.523   2.365  0.6702 -0.8629  1.0245
 2226TIP3   OH228312   5.073   4.133   8.533  0.1269  0.3748 -0.5877
 2226TIP3    H128313   5.046   4.223   8.519 -1.0115  0.1795  0.1975
 2226TIP3    H228314   5.112   4.106   8.450 -0.1289  1.3809 -1.0431
 2227TIP3   OH228315   1.112   3.473   6.977  0.7046  0.4727  0.0295
 2227TIP3    H128316   1.054   3.433   7.041 -1.0986 -1.2427 -2.4654
 2227TIP3    H228317   1.066   3.551   6.947  1.3859  1.0846  0.5226
 2228TIP3   OH228318   4.030   3.125   0.271  0.0612  0.4105 -0.0869
 2228TIP3    H128319   4.021   3.046   0.325 -0.9495  1.8521  2.0141
 2228TIP3    H228320   4.125   3.142   0.270  0.1336  0.1880  1.0540
 2229TIP3   OH228321   4.162   2.588   0.124 -0.0406  0.5166 -0.6938
 2229TIP3    H128322   4.180   2.565   0.033  1.9560  0.8217 -0.4215
 2229TIP3    H228323   4.181   2.681   0.130 -1.6219  0.8506 -0.2636
 2230TIP3   OH228324   0.013   0.832   0.484  0.2407  0.6013 -0.3202
 2230TIP3    H128325   0.030   0.874   0.400  0.5006  1.4942  0.1601
 2230TIP3    H228326  -0.056   0.768   0.466 -0.0755  1.1515 -1.1061
 2231TIP3   OH228327   0.568   6.194   0.489 -0.0647 -0.3157 -0.3863
 2231TIP3    H128328   0.498   6.188   0.424  0.8182 -0.9498 -1.3135
 2231TIP3    H228329   0.529   6.242   0.562 -0.5047  2.2955 -2.2072
 2232TIP3   OH228330   2.991   1.458   0.454  0.3943  0.1673  0.6723
 2232TIP3    H128331   2.914   1.512   0.435 -0.0739 -0.7633 -0.1954
 2232TIP3    H228332   2.965   1.408   0.532  0.7471  1.0216  1.3474
 2233TIP3   OH228333   0.022   1.495   7.820 -0.3674  0.3353 -0.5850
 2233TIP3    H128334  -0.069   1.486   7.792 -0.5257  1.1429 -0.3243
 2233TIP3    H228335   0.018   1.540   7.903  0.1716 -1.1831  0.3115
 2234TIP3   OH228336   6.104   1.574   7.761 -0.0225  0.0521 -0.4099
 2234TIP3    H128337   6.105   1.487   7.801 -1.0107 -0.7070 -1.9328
 2234TIP3    H228338   6.034   1.570   7.696 -1.2453  2.5163  0.5910
 2235TIP3   OH228339   4.711   4.213   8.473  0.5593 -0.1147 -0.2537
 2235TIP3    H128340   4.694   4.127   8.513  0.7940  0.9777  2.3831
 2235TIP3    H228341   4.762   4.192   8.394 -0.9929 -2.4844 -0.7431
 2236TIP3   OH228342   2.438   0.329   8.238  0.6756  0.4405  0.5336
 2236TIP3    H128343   2.404   0.242   8.262  1.0715 -0.2663 -1.3444
 2236TIP3    H228344   2.380   0.359   8.169  2.3136  0.3183 -0.9627
 2237TIP3   OH228345   2.177   6.598   1.924 -0.2825  0.8319  0.1584
 2237TIP3    H128346   2.240   6.527   1.933  0.2302  1.2256 -0.1950
 2237TIP3    H228347   2.191   6.653   2.001  1.9854  2.5651 -1.3177
 2238TIP3   OH228348   1.261   1.458   6.880 -0.0515  0.3389 -0.4242
 2238TIP3    H128349   1.313   1.535   6.858  1.9918 -0.2326  1.9272
 2238TIP3    H228350   1.297   1.428   6.963  0.7352 -4.4441 -2.1916
 2239TIP3   OH228351   3.323   1.471   1.648  0.6704 -0.1377 -0.0367
 2239TIP3    H128352   3.388   1.541   1.645 -1.0732  1.7123  1.6205
 2239TIP3    H228353   3.343   1.422   1.727  0.3919  0.1297  0.2066
 2240TIP3   OH228354   4.145   0.012   0.527  0.7454 -0.4530 -0.5241
 2240TIP3    H128355   4.097   0.031   0.608 -1.0896  0.9723 -1.8473
 2240TIP3    H228356   4.235   0.038   0.546 -0.3114  3.3898  0.0082
 2241TIP3   OH228357   5.537   0.643   1.030 -0.4013 -0.3431  0.5234
 2241TIP3    H128358   5.610   0.633   1.091  0.9682 -0.2031 -1.0455
 2241TIP3    H228359   5.537   0.562   0.978  0.8296  1.0064 -1.7350
 2242TIP3   OH228360   1.593   5.100   0.141 -0.2506  0.0828  0.0165
 2242TIP3    H128361   1.545   5.063   0.215 -2.1526  1.0350 -0.6706
 2242TIP3    H228362   1.552   5.059   0.064  2.3108 -1.6191 -0.5679
 2243TIP3   OH228363   3.031   1.987   1.866  0.9267  0.6739 -0.4825
 2243TIP3    H128364   2.970   1.931   1.816  0.8403  0.3342 -0.0041
 2243TIP3    H228365   2.977   2.025   1.935  1.3186  0.1196  0.1410
 2244TIP3   OH228366   2.342   3.062   7.046  0.6030  0.2522  0.1314
 2244TIP3    H128367   2.315   3.152   7.067 -0.7750 -0.0937 -0.0053
 2244TIP3    H228368   2.387   3.031   7.124 -0.6489  0.4299  0.9581
 2245TIP3   OH228369   5.129   1.453   2.196  0.0304 -0.1306  0.2175
 2245TIP3    H128370   5.075   1.451   2.275 -2.3779 -1.2084 -1.3388
 2245TIP3    H228371   5.217   1.430   2.226 -0.9167 -1.0503  2.4817
 2246TIP3   OH228372   3.018   0.135   8.102 -0.2536  0.7141 -0.1903
 2246TIP3    H128373   2.924   0.145   8.116 -0.7340  1.3180 -3.2247
 2246TIP3    H228374   3.058   0.173   8.181 -2.5003  0.0138  1.3771
 2247TIP3   OH228375   6.255   4.898   6.717 -0.1907  0.0101 -0.5252
 2247TIP3    H128376   6.313   4.899   6.641  0.5490 -0.6212  0.0053
 2247TIP3    H228377   6.180   4.846   6.690  0.8273 -1.6427 -0.3224
 2248TIP3   OH228378   3.946   0.821   2.121 -0.0029 -0.4323  0.7503
 2248TIP3    H128379   4.028   0.871   2.113  0.5297 -1.4793 -1.1017
 2248TIP3    H228380   3.959   0.766   2.198  0.0296  1.1171  1.8934
 2249TIP3   OH228381   0.646   5.182   1.119  0.2155 -0.1867 -0.0340
 2249TIP3    H128382   0.562   5.141   1.140  0.0742 -0.3957 -0.9553
 2249TIP3    H228383   0.631   5.276   1.134 -0.8627  0.0537 -2.1447
 2250TIP3   OH228384   2.060   6.465   0.179 -0.7353 -0.5506  0.4034
 2250TIP3    H128385   2.056   6.514   0.097  1.8175 -0.9321 -0.0436
 2250TIP3    H228386   2.065   6.373   0.151  1.1119 -0.6323  0.8760
 2251TIP3   OH228387   5.892   3.835   0.259  0.3472 -0.2494 -0.0691
 2251TIP3    H128388   5.834   3.797   0.325  0.3849 -0.0156  0.0990
 2251TIP3    H228389   5.852   3.918   0.236  1.5400  0.7831  1.3811
 2252TIP3   OH228390   2.553   0.636   0.772 -0.0409 -0.4991  0.1081
 2252TIP3    H128391   2.464   0.665   0.790 -0.4503 -0.5045 -1.7169
 2252TIP3    H228392   2.564   0.650   0.678  1.7799 -0.7973  0.2496
 2253TIP3   OH228393   5.126   5.232   6.870  0.2037 -0.6594 -0.1835
 2253TIP3    H128394   5.148   5.285   6.946  2.1751 -1.4188 -0.1569
 2253TIP3    H228395   5.072   5.161   6.905  3.6550 -2.8292  1.2423
 2254TIP3   OH228396   0.226   6.547   6.353  0.2037 -0.1719  0.1207
 2254TIP3    H128397   0.309   6.567   6.397  3.5870 -0.6615 -5.1542
 2254TIP3    H228398   0.181   6.631   6.347  1.5102  0.6188  0.9746
 2255TIP3   OH228399   0.886   1.080   6.166  0.0132 -0.1688  0.0555
 2255TIP3    H128400   0.793   1.093   6.147  0.2607  0.0645 -1.0648
 2255TIP3    H228401   0.923   1.047   6.084  1.1903  1.0581  0.0611
 2256TIP3   OH228402   5.081   2.063   1.412 -0.5490 -0.4381  0.4688
 2256TIP3    H128403   5.090   2.056   1.507  1.9718 -2.4688  0.2006
 2256TIP3    H228404   5.021   1.993   1.388 -1.7239  0.5031  0.5744
 2257TIP3   OH228405   1.576   0.687   7.830 -0.5233  0.3575 -0.5045
 2257TIP3    H128406   1.660   0.669   7.873 -0.5702  0.3646 -0.4102
 2257TIP3    H228407   1.535   0.601   7.821 -0.6754  0.3955 -0.2012
 2258TIP3   OH228408   1.763   6.492   7.985 -0.5194  0.3262  0.4681
 2258TIP3    H128409   1.743   6.508   7.893  0.0421  0.3517  0.3439
 2258TIP3    H228410   1.688   6.526   8.033 -0.2361  1.5187  0.1015
 2259TIP3   OH228411   2.780   3.761   2.154  0.7174  0.4188 -0.3252
 2259TIP3    H128412   2.705   3.745   2.211  0.1156  0.9551 -0.9500
 2259TIP3    H228413   2.779   3.855   2.139  1.0505  0.3271 -0.9660
 2260TIP3   OH228414   1.403   3.668   8.712 -0.7249  0.8577 -0.3285
 2260TIP3    H128415   1.401   3.678   8.616 -0.7267 -0.3192 -0.4715
 2260TIP3    H228416   1.390   3.574   8.726 -0.5378  0.9913  0.8264
 2261TIP3   OH228417   6.209   5.763   7.262 -0.1750 -0.0892 -0.0246
 2261TIP3    H128418   6.135   5.798   7.312 -0.8844 -0.0902 -1.0421
 2261TIP3    H228419   6.178   5.680   7.227  0.7962 -0.7707  0.6652
 2262TIP3   OH228420   1.495   2.623   0.440 -0.0128 -0.3748 -0.0804
 2262TIP3    H128421   1.535   2.709   0.427  0.4032 -0.5595 -0.0661
 2262TIP3    H228422   1.530   2.570   0.368 -1.2283 -0.2103 -0.8088
 2263TIP3   OH228423   2.102   3.173   1.181 -0.6764 -0.0061 -0.1615
 2263TIP3    H128424   2.103   3.216   1.267 -3.0567  0.1964 -0.1671
 2263TIP3    H228425   2.167   3.103   1.188 -1.3909 -0.5213  2.1057
 2264TIP3   OH228426   3.459   0.705   0.712  0.3168 -0.2298  0.1646
 2264TIP3    H128427   3.448   0.634   0.649 -0.6516 -0.7213  0.8652
 2264TIP3    H228428   3.403   0.775   0.679 -0.0192 -0.4051  0.3657
 2265TIP3   OH228429   3.271   2.910   7.150  0.1014  0.6218 -0.2630
 2265TIP3    H128430   3.203   2.952   7.097  0.6535  1.5509 -0.2546
 2265TIP3    H228431   3.345   2.970   7.146  0.9415 -0.3849 -0.2875
 2266TIP3   OH228432   2.335   1.523   7.095 -0.0902 -0.2442 -0.1236
 2266TIP3    H128433   2.272   1.508   7.025 -1.1150  0.6095  0.5931
 2266TIP3    H228434   2.327   1.616   7.116  1.3656 -0.1268  0.0377
 2267TIP3   OH228435   6.769   5.091   0.800  0.2465 -0.0772 -0.0246
 2267TIP3    H128436   6.712   5.025   0.760 -0.5730 -0.8361  2.2528
 2267TIP3    H228437   6.736   5.174   0.766 -0.8098 -0.6405 -0.4405
 2268TIP3   OH228438   4.196   0.747   0.684 -0.0182 -0.6020  0.2611
 2268TIP3    H128439   4.154   0.750   0.599 -0.2790 -0.0114  0.4052
 2268TIP3    H228440   4.170   0.829   0.727 -0.6857 -1.3364  1.2829
 2269TIP3   OH228441   0.932   4.673   8.237  0.3615  0.8401  0.6580
 2269TIP3    H128442   0.836   4.670   8.237  0.1757  1.5090 -3.1420
 2269TIP3    H228443   0.954   4.735   8.306 -1.8564  0.1284  2.1013
 2270TIP3   OH228444   2.877   2.421   1.245  0.0360 -0.2904  0.0380
 2270TIP3    H128445   2.901   2.385   1.159 -1.3706 -2.3985  0.4293
 2270TIP3    H228446   2.885   2.347   1.305 -1.5190  0.4245  1.2210
 2271TIP3   OH228447   1.212   6.611   8.130 -0.2115 -0.3163 -0.2108
 2271TIP3    H128448   1.230   6.525   8.091 -1.3161 -0.4875 -0.3640
 2271TIP3    H228449   1.248   6.604   8.218  0.5768 -0.5913 -0.5365
 2272TIP3   OH228450   1.816   4.927   0.070  0.0991  0.0982  0.5289
 2272TIP3    H128451   1.724   4.948   0.084 -0.7050 -3.1515  1.0699
 2272TIP3    H228452   1.826   4.927  -0.026 -0.2369  1.1464  0.4823
 2273TIP3   OH228453   4.696   0.520   7.764 -0.3381 -0.5699 -0.5095
 2273TIP3    H128454   4.725   0.474   7.842 -0.9654 -0.2986 -0.1097
 2273TIP3    H228455   4.601   0.523   7.772 -0.7642 -3.3003 -2.7948
 2274TIP3   OH228456   6.254   6.306   0.111  0.0532 -0.0121 -0.3489
 2274TIP3    H128457   6.194   6.277   0.180  0.0330  0.2441 -0.2568
 2274TIP3    H228458   6.340   6.275   0.139  0.2593  1.1935  0.4563
 2275TIP3   OH228459   3.866   0.762   8.351  0.0492 -0.2440  0.2168
 2275TIP3    H128460   3.826   0.806   8.426 -0.1645  1.0239 -0.6144
 2275TIP3    H228461   3.894   0.833   8.294 -2.4327 -1.0918 -2.3160
 2276TIP3   OH228462   1.143   2.708   1.253 -0.1426  0.7952 -0.2753
 2276TIP3    H128463   1.179   2.622   1.232  0.8267  1.3879 -1.0989
 2276TIP3    H228464   1.087   2.729   1.178 -1.1681  0.4862  0.3677
 2277TIP3   OH228465   1.131   5.645   0.966  1.1692  0.5386  0.2055
 2277TIP3    H128466   1.103   5.734   0.944  0.3879  0.0442 -0.8790
 2277TIP3    H228467   1.127   5.642   1.061  0.4559  1.4313  0.2212
 2278TIP3   OH228468   5.164   5.354   7.642  0.1191  0.2608 -0.1282
 2278TIP3    H128469   5.238   5.414   7.642 -0.4976  1.1339 -2.1445
 2278TIP3    H228470   5.128   5.359   7.730  0.8577  1.8900  0.1120
 2279TIP3   OH228471   1.828   1.074   5.859  0.0657  0.0241  0.4235
 2279TIP3    H128472   1.775   1.065   5.779  0.9727 -0.7743 -0.1094
 2279TIP3    H228473   1.861   0.985   5.875  1.0849  0.4756  0.8454
 2280TIP3   OH228474   4.668   1.787   0.731 -0.7459 -0.3977  0.3566
 2280TIP3    H128475   4.675   1.692   0.734 -4.1140 -0.8744 -1.4038
 2280TIP3    H228476   4.639   1.812   0.819  2.4318 -0.5570  1.5867
 2281TIP3   OH228477   1.241   0.903   0.062  0.6575 -0.2369 -0.5719
 2281TIP3    H128478   1.167   0.915   0.121  1.4798  1.8232  0.1427
 2281TIP3    H228479   1.270   0.813   0.078 -0.5983 -0.4938  0.4232
 2282TIP3   OH228480   5.327   2.671   2.220  0.1608  0.0954 -0.6067
 2282TIP3    H128481   5.245   2.646   2.261  0.6771  0.0314  0.4270
 2282TIP3    H228482   5.319   2.765   2.205 -0.4791 -0.0865 -1.4120
 2283TIP3   OH228483   3.022   4.138   1.738 -0.2753 -0.3610 -0.3333
 2283TIP3    H128484   2.942   4.140   1.791 -1.0683  1.0675 -1.4923
 2283TIP3    H228485   3.053   4.048   1.744 -1.0664 -0.5552  1.4574
 2284TIP3   OH228486   2.333   1.990   1.097  0.0400  0.3410 -0.7126
 2284TIP3    H128487   2.262   1.964   1.038 -1.2095  0.8733  0.4808
 2284TIP3    H228488   2.326   1.928   1.170  1.2014  0.0374 -0.8410
 2285TIP3   OH228489   6.155   4.473   0.321 -0.4573  0.4487  0.4354
 2285TIP3    H128490   6.074   4.467   0.270  0.3764 -0.5406 -0.8248
 2285TIP3    H228491   6.177   4.567   0.320 -0.5878  0.4817 -0.8440
 2286TIP3   OH228492   0.194   0.546   6.577  0.7349  0.1548  0.6310
 2286TIP3    H128493   0.250   0.472   6.554 -0.3847 -0.2288 -1.0495
 2286TIP3    H228494   0.249   0.623   6.565  1.1784 -0.2654 -0.1006
 2287TIP3   OH228495   0.045   1.839   0.468 -0.0252 -0.4724 -0.2717
 2287TIP3    H128496   0.046   1.805   0.379 -1.0913 -0.3587 -0.3449
 2287TIP3    H228497   0.086   1.771   0.521 -1.8920 -1.8022 -0.4418
 2288TIP3   OH228498   1.657   4.445   0.899 -0.1205 -0.2288 -0.1630
 2288TIP3    H128499   1.747   4.417   0.882  0.4974  1.8300 -0.6189
 2288TIP3    H228500   1.667   4.514   0.965 -1.5613 -1.1373  1.0696
 2289TIP3   OH228501   3.593   6.540   0.035  0.0640  0.5748 -0.7288
 2289TIP3    H128502   3.682   6.550   0.068 -0.2838  0.0992  0.3862
 2289TIP3    H228503   3.596   6.464  -0.023 -0.1184 -1.0836  1.3138
 2290TIP3   OH228504   6.069   6.777   7.545 -0.7744  0.2814 -0.3636
 2290TIP3    H128505   5.997   6.776   7.607 -0.8703 -1.3085 -0.4772
 2290TIP3    H228506   6.055   6.857   7.493 -2.6945 -0.2140 -0.6570
 2291TIP3   OH228507   3.757   3.290   5.624  0.0696  0.0738  0.1594
 2291TIP3    H128508   3.722   3.216   5.674 -0.4957  0.6731  0.6774
 2291TIP3    H228509   3.843   3.306   5.663  1.5730 -2.2016 -1.9386
 2292TIP3   OH228510   0.664   1.528   0.592 -0.4724  0.2550  0.1695
 2292TIP3    H128511   0.662   1.524   0.497  0.0008 -0.6450  0.1896
 2292TIP3    H228512   0.754   1.506   0.615 -0.8298 -0.5199  0.8661
 2293TIP3   OH228513   0.345   0.788   6.557 -0.2263 -0.3248  0.7284
 2293TIP3    H128514   0.309   0.876   6.566 -0.8724 -0.4767 -0.1998
 2293TIP3    H228515   0.437   0.802   6.536 -0.5389  0.1718 -0.3960
 2294TIP3   OH228516   6.518   6.234   6.124 -0.2531 -0.2265  0.2893
 2294TIP3    H128517   6.441   6.272   6.166 -0.2102  0.1264  0.0600
 2294TIP3    H228518   6.494   6.230   6.031 -0.0576 -0.2715  0.2411
 2295TIP3   OH228519   3.139   3.511   8.554 -0.1945 -0.2341 -0.2846
 2295TIP3    H128520   3.161   3.560   8.475 -1.7006 -1.0492 -1.2502
 2295TIP3    H228521   3.151   3.419   8.530 -1.5984 -0.5383  0.1142
 2296TIP3   OH228522   5.268   1.011   7.869  0.4338  0.0109  0.1777
 2296TIP3    H128523   5.270   1.096   7.825  1.0385  0.6826  1.4528
 2296TIP3    H228524   5.333   0.958   7.821  0.3861  0.4074 -0.3358
 2297TIP3   OH228525   6.537   3.387   8.024 -0.2371  0.6097  0.7145
 2297TIP3    H128526   6.451   3.372   7.985 -0.0035 -1.0980  0.7809
 2297TIP3    H228527   6.582   3.445   7.962 -0.9769  0.4677  0.0326
 2298TIP3   OH228528   0.131   1.818   0.925 -0.2471  0.0103 -0.8288
 2298TIP3    H128529   0.156   1.873   0.999 -0.5119  0.7164 -1.2523
 2298TIP3    H228530   0.167   1.863   0.848 -2.0795  0.6442 -1.3707
 2299TIP3   OH228531   3.147   0.677   8.000 -0.2221 -0.4481 -0.2523
 2299TIP3    H128532   3.203   0.604   8.028  0.5185 -0.3394 -1.3871
 2299TIP3    H228533   3.096   0.641   7.928  0.3513  0.2321 -1.0050
 2300TIP3   OH228534   2.463   5.869   6.624 -0.2985  0.3555  0.3414
 2300TIP3    H128535   2.482   5.929   6.552  1.3109  1.0770  1.3246
 2300TIP3    H228536   2.547   5.829   6.646 -1.1616 -1.5118  0.3980
 2301TIP3   OH228537   5.802   0.093   8.671  0.3186 -0.4232 -0.7120
 2301TIP3    H128538   5.857   0.049   8.606 -0.2310 -0.0513 -1.4473
 2301TIP3    H228539   5.790   0.181   8.637  0.1118 -0.1844 -0.0411
 2302TIP3   OH228540   2.257   2.850   5.776 -0.2402 -0.1762 -0.2039
 2302TIP3    H128541   2.347   2.877   5.794  0.5166 -2.2857 -0.5479
 2302TIP3    H228542   2.205   2.891   5.845  1.2018 -0.1168  0.8808
 2303TIP3   OH228543   0.212   6.230   8.179  0.2654 -0.2850  0.3922
 2303TIP3    H128544   0.270   6.202   8.251 -0.0167 -1.6474  0.1237
 2303TIP3    H228545   0.124   6.207   8.208  0.2507 -2.0499 -0.8703
 2304TIP3   OH228546   3.199   5.841   7.322 -0.2443 -0.2608  0.1861
 2304TIP3    H128547   3.137   5.816   7.253 -0.1033 -0.4973  0.1423
 2304TIP3    H228548   3.280   5.861   7.276 -0.3115  0.1387  0.2355
 2305TIP3   OH228549   3.785   6.254   1.068 -0.0671  0.1167  0.6995
 2305TIP3    H128550   3.721   6.186   1.047 -1.8286  1.9331 -0.0715
 2305TIP3    H228551   3.853   6.208   1.118 -0.8616 -2.3055 -0.3149
 2306TIP3   OH228552   1.725   2.865   6.140  0.2595  0.1287 -0.6663
 2306TIP3    H128553   1.714   2.868   6.045 -0.0695  1.1694 -0.6050
 2306TIP3    H228554   1.636   2.858   6.174  0.4505 -1.7504 -0.4611
 2307TIP3   OH228555   3.139   5.556   3.957  0.3888  0.2083  0.3020
 2307TIP3    H128556   3.187   5.578   4.037  0.0447 -0.6094  0.7383
 2307TIP3    H228557   3.127   5.461   3.961 -0.2602  0.2565 -0.3722
 2308TIP3   OH228558   5.436   4.779   6.130  0.5732 -0.6370  0.2905
 2308TIP3    H128559   5.508   4.730   6.089 -0.7411 -2.6398  0.2536
 2308TIP3    H228560   5.358   4.726   6.114 -1.2013  2.0491 -0.7726
 2309TIP3   OH228561   0.727   2.501   6.731  0.2698 -0.0669 -0.0245
 2309TIP3    H128562   0.802   2.461   6.687  0.4388 -0.0982  0.2844
 2309TIP3    H228563   0.758   2.589   6.755  0.1006  0.0341 -0.1761
 2310TIP3   OH228564   5.996   3.934   6.565  0.5436  0.4549  0.0439
 2310TIP3    H128565   6.017   4.026   6.550  3.1075 -0.3446 -2.1620
 2310TIP3    H228566   5.920   3.917   6.509  0.3178  1.1175  0.1458
 2311TIP3   OH228567   4.936   1.079   0.349  0.5486 -0.0373 -0.3614
 2311TIP3    H128568   4.888   1.031   0.283  1.2740 -1.1857 -0.0754
 2311TIP3    H228569   4.870   1.104   0.414  0.4415 -2.6109  0.6378
 2312TIP3   OH228570   5.843   5.175   0.860  0.4673 -0.1929 -0.0811
 2312TIP3    H128571   5.848   5.231   0.782 -2.1872 -1.5655 -1.3891
 2312TIP3    H228572   5.765   5.204   0.906  1.3688 -0.1645  1.5145
 2313TIP3   OH228573   1.597   4.505   0.360 -0.6205  0.2437  0.5385
 2313TIP3    H128574   1.624   4.425   0.315  0.0729  0.2152  0.9830
 2313TIP3    H228575   1.502   4.503   0.360 -0.6069 -0.4383  0.2897
 2314TIP3   OH228576   1.965   1.388   1.373  0.0076 -0.5801 -0.4399
 2314TIP3    H128577   1.881   1.433   1.375 -0.1395 -0.8344 -0.8449
 2314TIP3    H228578   2.029   1.458   1.364 -0.0886 -0.3120  0.7380
 2315TIP3   OH228579   5.393   3.656   7.352 -0.2792 -0.3988  0.0411
 2315TIP3    H128580   5.304   3.625   7.367 -0.7369  0.4668 -0.7936
 2315TIP3    H228581   5.448   3.580   7.368 -1.0036 -0.5439  2.2490
 2316TIP3   OH228582   6.762   1.536   7.477 -0.1960 -0.2846  0.6045
 2316TIP3    H128583   6.800   1.448   7.482 -1.4642 -0.9412 -0.6422
 2316TIP3    H228584   6.691   1.535   7.540 -1.0436 -0.6167 -0.3303
 2317TIP3   OH228585   3.668   6.531   0.458  0.1481 -0.2096  0.1120
 2317TIP3    H128586   3.585   6.567   0.489 -0.2843 -0.8098 -0.3430
 2317TIP3    H228587   3.732   6.557   0.525 -0.2614  0.8738  0.0970
 2318TIP3   OH228588   5.302   2.910   0.948 -0.4241  0.6458  0.4460
 2318TIP3    H128589   5.247   2.903   1.026 -0.8617  0.2603  0.1118
 2318TIP3    H228590   5.241   2.902   0.875  0.1466 -0.4567  0.0676
 2319TIP3   OH228591   6.346   6.394   1.187 -0.5676  0.0131  0.1468
 2319TIP3    H128592   6.413   6.333   1.155  1.4555  1.1898  1.8318
 2319TIP3    H228593   6.290   6.340   1.242 -0.8636 -0.9562 -1.0726
 2320TIP3   OH228594   6.578   2.454   0.092  0.0056 -0.5838  0.0595
 2320TIP3    H128595   6.578   2.549   0.091 -1.6087 -0.5271 -1.9327
 2320TIP3    H228596   6.506   2.429   0.034  0.0807 -3.0298  0.8667
 2321TIP3   OH228597   1.180   5.386   0.308 -0.2484 -0.2162 -0.5570
 2321TIP3    H128598   1.204   5.404   0.218 -2.9466 -0.8355 -1.4930
 2321TIP3    H228599   1.166   5.291   0.311  2.1027 -0.5890  1.1821
 2322TIP3   OH228600   3.055   3.532   1.782 -0.1352  0.1798 -0.0214
 2322TIP3    H128601   3.035   3.564   1.870 -1.1286 -0.6754  0.0795
 2322TIP3    H228602   3.151   3.529   1.779  0.0768  3.5019 -0.1865
 2323TIP3   OH228603   5.380   5.605   6.507 -0.2901 -0.6206  0.4373
 2323TIP3    H128604   5.369   5.698   6.486 -0.1409 -0.0169  2.7904
 2323TIP3    H228605   5.355   5.559   6.426 -1.1161  1.4180 -0.5339
 2324TIP3   OH228606   2.713   4.416   6.807  0.6710  0.1106 -0.4943
 2324TIP3    H128607   2.684   4.451   6.723 -0.3435  1.9937  0.5791
 2324TIP3    H228608   2.747   4.329   6.786  1.5441  0.9734 -3.0036
 2325TIP3   OH228609   2.644   3.112   0.357  0.6791  0.1777  0.0683
 2325TIP3    H128610   2.687   3.143   0.437 -1.3307  0.3838  1.1450
 2325TIP3    H228611   2.642   3.189   0.301  2.6210 -0.1155 -0.4710
 2326TIP3   OH228612   6.047   5.938   1.062  0.1952  0.2093 -0.1135
 2326TIP3    H128613   6.103   5.864   1.040  0.6192  1.0090 -1.8800
 2326TIP3    H228614   6.070   5.960   1.153  3.3979  1.0128 -0.9857
 2327TIP3   OH228615   1.378   2.601   0.928 -0.6596  0.1655 -0.1596
 2327TIP3    H128616   1.433   2.662   0.977 -0.7982 -0.1345  0.3659
 2327TIP3    H228617   1.432   2.574   0.854 -0.3429  0.3815 -0.0070
 2328TIP3   OH228618   2.015   6.680   0.355  0.2398  0.6904  0.2530
 2328TIP3    H128619   2.008   6.614   0.287  0.5453  2.9435 -2.1525
 2328TIP3    H228620   2.099   6.724   0.337 -0.1309  1.9969  1.4856
 2329TIP3   OH228621   4.717   0.113   7.025  0.1587  0.3867  0.0485
 2329TIP3    H128622   4.808   0.139   7.037 -0.1118  1.6461 -0.4665
 2329TIP3    H228623   4.666   0.188   7.057 -0.7682 -1.0876  2.2268
 2330TIP3   OH228624   6.148   4.498   7.031 -0.4018  0.0494 -0.4197
 2330TIP3    H128625   6.178   4.446   7.105 -1.6844  1.3391  1.0559
 2330TIP3    H228626   6.226   4.547   7.004  0.7933 -2.3331 -1.7307
 2331TIP3   OH228627   2.591   2.780   1.913 -0.0496 -0.4851 -0.4653
 2331TIP3    H128628   2.542   2.727   1.977  1.7030  0.3731  1.7203
 2331TIP3    H228629   2.672   2.732   1.900 -0.0363 -0.2064 -1.4251
 2332TIP3   OH228630   0.322   1.776   1.319 -0.2202  0.0511 -0.3183
 2332TIP3    H128631   0.267   1.699   1.300 -2.3713  0.8185  2.1506
 2332TIP3    H228632   0.302   1.837   1.249  1.0196 -1.3354 -1.9557
 2333TIP3   OH228633   4.262   6.103   8.665 -0.4708  0.5074  0.1285
 2333TIP3    H128634   4.271   6.101   8.569  0.2103 -0.4562  0.1940
 2333TIP3    H228635   4.197   6.171   8.682 -0.7454  0.5516 -1.0331
 2334TIP3   OH228636   6.708   4.899   1.092 -0.3839  0.4013  0.1203
 2334TIP3    H128637   6.633   4.845   1.119 -0.9017  1.0004 -0.0810
 2334TIP3    H228638   6.766   4.839   1.046 -0.5032 -0.1793  0.7241
 2335TIP3   OH228639   4.648   4.927   8.732 -0.5490 -0.5803 -0.2227
 2335TIP3    H128640   4.738   4.953   8.750 -1.4216  1.7266  1.1860
 2335TIP3    H228641   4.655   4.835   8.704  2.2240 -0.3975 -0.4058
 2336TIP3   OH228642   5.245   1.826   6.213  1.1626  0.3038  0.3388
 2336TIP3    H128643   5.300   1.844   6.289  0.8617 -0.2250  0.6825
 2336TIP3    H228644   5.296   1.860   6.139  1.3679  0.9954  0.7860
 2337TIP3   OH228645   4.314   3.186   7.439  0.5019  0.2959  0.2271
 2337TIP3    H128646   4.265   3.232   7.508  1.4506  1.4629  0.1750
 2337TIP3    H228647   4.259   3.193   7.362  0.3228  0.7649  0.3925
 2338TIP3   OH228648   6.767   1.143   0.040  0.1130  0.0771 -0.2351
 2338TIP3    H128649   6.800   1.169   0.127  0.2036  2.4058 -0.8890
 2338TIP3    H228650   6.819   1.066   0.017 -0.9399 -1.5555  2.3586
 2339TIP3   OH228651   4.268   3.933   6.499  0.2151  0.5261 -0.3571
 2339TIP3    H128652   4.347   3.920   6.447  0.4135  2.7431 -0.7202
 2339TIP3    H228653   4.196   3.910   6.439  0.5238 -1.5805  0.0023
 2340TIP3   OH228654   1.258   5.757   7.638  0.2562 -0.2067  0.5168
 2340TIP3    H128655   1.289   5.738   7.549 -0.3195  2.3506 -0.3017
 2340TIP3    H228656   1.337   5.760   7.691  0.9098  1.0175 -0.4928
 2341TIP3   OH228657   5.826   6.618   6.880  0.1170  0.3397  0.2504
 2341TIP3    H128658   5.878   6.588   6.955 -1.0180 -0.0068  0.9364
 2341TIP3    H228659   5.826   6.713   6.888  0.1639  0.3143  0.5989
 2342TIP3   OH228660   4.110   1.088   0.431  0.5020 -0.0259 -0.3547
 2342TIP3    H128661   4.033   1.109   0.484  0.0633 -1.1578 -0.5113
 2342TIP3    H228662   4.176   1.061   0.495  1.7392  3.4963  0.0353
 2343TIP3   OH228663   5.241   2.241   0.678 -0.1577 -0.6023 -0.0474
 2343TIP3    H128664   5.229   2.333   0.655 -0.8358 -0.7735 -0.4253
 2343TIP3    H228665   5.191   2.230   0.759 -0.8137 -0.8327 -0.4755
 2344TIP3   OH228666   2.632   3.806   7.292 -0.3053  0.1036 -0.8202
 2344TIP3    H128667   2.681   3.802   7.210 -0.0618 -2.7222 -0.6373
 2344TIP3    H228668   2.567   3.736   7.285  0.8680 -1.4564  1.9971
 2345TIP3   OH228669   1.564   0.860   8.487 -0.0150 -0.8229 -0.1403
 2345TIP3    H128670   1.500   0.811   8.539  0.2901  0.6522  1.6950
 2345TIP3    H228671   1.513   0.929   8.445  0.0655 -0.7878 -0.1801
 2346TIP3   OH228672   5.533   4.602   0.351  0.3848  0.2358  0.7339
 2346TIP3    H128673   5.627   4.591   0.367  0.3966  0.2573  0.6779
 2346TIP3    H228674   5.501   4.513   0.337 -0.0464 -0.0468  3.1504
 2347TIP3   OH228675   0.170   5.213   6.431  0.3492  0.0531 -0.0954
 2347TIP3    H128676   0.248   5.163   6.454  0.5087 -0.1209 -0.9717
 2347TIP3    H228677   0.188   5.247   6.343 -0.1401  0.8721  0.1022
 2348TIP3   OH228678   3.621   0.973   8.100  0.4284 -0.1739  0.2013
 2348TIP3    H128679   3.607   0.879   8.095 -1.5649  0.0729 -4.1095
 2348TIP3    H228680   3.696   0.989   8.042 -1.5092  1.0055 -2.1702
 2349TIP3   OH228681   4.065   6.369   8.050  0.3804 -1.0533 -0.0684
 2349TIP3    H128682   4.149   6.356   8.006  1.9983 -0.9668  2.7578
 2349TIP3    H228683   4.060   6.463   8.066 -1.7449 -0.6004 -2.7641
 2350TIP3   OH228684   6.671   4.395   6.462 -0.1144 -0.0721 -0.6235
 2350TIP3    H128685   6.579   4.372   6.477  0.4876 -2.0108  0.3825
 2350TIP3    H228686   6.682   4.478   6.508 -1.3616  0.2291 -0.8148
 2351TIP3   OH228687   1.006   5.787   7.505  0.1503  0.5518 -0.3487
 2351TIP3    H128688   0.997   5.882   7.498 -0.5483  0.6972  1.8728
 2351TIP3    H228689   1.094   5.774   7.542  0.1255  0.3570 -0.3583
 2352TIP3   OH228690   0.553   4.670   8.589  0.6487 -0.3353  0.1639
 2352TIP3    H128691   0.639   4.627   8.584  1.0513  0.1335  2.1785
 2352TIP3    H228692   0.524   4.653   8.679 -0.5399  1.0790  0.0660
 2353TIP3   OH228693   5.921   4.574   7.680 -0.0289 -0.0919  0.6143
 2353TIP3    H128694   5.827   4.581   7.696  0.2219  0.7505  1.8425
 2353TIP3    H228695   5.958   4.653   7.718  1.3350 -1.0641  1.4102
 2354TIP3   OH228696   5.731   6.574   0.088 -0.4771  0.5469  0.3621
 2354TIP3    H128697   5.818   6.545   0.115 -0.2303 -0.8539 -1.7237
 2354TIP3    H228698   5.745   6.619   0.005 -1.7158  0.5250  0.1197
 2355TIP3   OH228699   2.043   0.706   0.601  0.2733 -0.3397  0.0117
 2355TIP3    H128700   2.001   0.764   0.664  1.6718  0.6000  0.1274
 2355TIP3    H228701   1.972   0.652   0.566 -0.8603  0.5912  0.8242
 2356TIP3   OH228702   1.451   3.123   7.186 -0.3502  0.3050  0.1171
 2356TIP3    H128703   1.480   3.213   7.171 -1.6507  0.4690 -1.7072
 2356TIP3    H228704   1.531   3.076   7.212  0.7722  1.5344 -0.9687
 2357TIP3   OH228705   6.152   4.315   6.259  0.5306  0.2103  0.2351
 2357TIP3    H128706   6.113   4.335   6.173  0.3870  0.1227  0.2805
 2357TIP3    H228707   6.190   4.398   6.287  3.7387 -0.4929 -1.5125
 2358TIP3   OH228708   3.686   6.280   0.591  0.0275  0.0004 -0.2537
 2358TIP3    H128709   3.611   6.223   0.608  0.2494 -0.2803 -0.2278
 2358TIP3    H228710   3.646   6.364   0.566 -0.2962 -0.0951 -0.0640
 2359TIP3   OH228711   4.444   0.890   7.250  0.2540  0.9403  0.0483
 2359TIP3    H128712   4.497   0.899   7.328 -0.0726 -2.3797  0.8082
 2359TIP3    H228713   4.355   0.875   7.283 -0.2241  1.3036 -1.0207
 2360TIP3   OH228714   6.027   0.315   1.042  0.5585 -0.1673 -0.1803
 2360TIP3    H128715   5.945   0.349   1.006  0.1775 -1.1502 -0.2750
 2360TIP3    H228716   6.048   0.239   0.987  0.8418 -0.6942  0.6265
 2361TIP3   OH228717   0.905   5.004   6.992 -0.0391 -0.1595  0.6604
 2361TIP3    H128718   0.959   4.929   6.965  0.3040 -0.0014  0.9071
 2361TIP3    H228719   0.948   5.080   6.954 -0.4143 -0.0864  0.3706
 2362TIP3   OH228720   5.783   0.786   6.554 -0.3401 -0.0542 -0.3403
 2362TIP3    H128721   5.767   0.803   6.462  0.9033  0.6372 -0.4434
 2362TIP3    H228722   5.741   0.701   6.570 -2.5017  0.8183 -0.9704
 2363TIP3   OH228723   3.074   5.886   1.068  0.0634 -0.6889  0.0744
 2363TIP3    H128724   3.043   5.932   0.990  0.1278 -1.6538 -0.5297
 2363TIP3    H228725   3.121   5.810   1.034  1.0184 -0.5529  1.0320
 2364TIP3   OH228726   3.448   6.205   0.144 -0.4968 -0.4992  0.4809
 2364TIP3    H128727   3.472   6.204   0.052  0.6280 -0.7956  0.7584
 2364TIP3    H228728   3.526   6.240   0.188 -0.5340 -1.5687  1.4366
 2365TIP3   OH228729   2.948   3.738   7.829 -0.1106 -0.6923  0.1426
 2365TIP3    H128730   2.896   3.818   7.822  1.2788  0.2062 -0.1727
 2365TIP3    H228731   2.990   3.729   7.744  1.4749 -0.5325  0.8830
 2366TIP3   OH228732   2.962   3.340   6.808  0.1801 -0.2830  0.0908
 2366TIP3    H128733   3.001   3.377   6.887 -0.4130  0.5137  0.0352
 2366TIP3    H228734   2.937   3.417   6.756  1.2437 -0.7915 -1.2206
 2367TIP3   OH228735   2.563   3.156   1.211 -0.4037  0.1101 -0.2094
 2367TIP3    H128736   2.470   3.162   1.190 -0.1736  0.9445 -1.0694
 2367TIP3    H228737   2.573   3.072   1.255 -1.7358  0.4587  0.8110
 2368TIP3   OH228738   5.408   1.546   8.475 -0.1824 -0.0083 -0.2285
 2368TIP3    H128739   5.497   1.537   8.510  0.2583  0.2470 -1.2381
 2368TIP3    H228740   5.418   1.531   8.381 -1.1206  0.5454 -0.4267
 2369TIP3   OH228741   4.075   6.387   2.198  0.7663 -0.0485 -0.2434
 2369TIP3    H128742   4.048   6.295   2.204 -0.7819  0.3339 -0.8346
 2369TIP3    H228743   4.153   6.392   2.253 -0.2888 -1.2835  1.5107
 2370TIP3   OH228744   0.813   3.795   7.716 -0.0620  0.2516  0.4687
 2370TIP3    H128745   0.855   3.727   7.663  0.8362  0.2919  1.0938
 2370TIP3    H228746   0.882   3.860   7.730  0.1186 -0.3034  2.6257
 2371TIP3   OH228747   0.848   0.295   0.178  0.2626 -0.6172 -0.1597
 2371TIP3    H128748   0.792   0.356   0.227 -0.2019 -1.4073  0.3188
 2371TIP3    H228749   0.937   0.327   0.195  0.2192 -1.5001  2.1956
 2372TIP3   OH228750   3.072   6.068   8.624  0.0506 -0.6033 -0.0068
 2372TIP3    H128751   3.022   6.079   8.704  1.8199 -0.2579  1.0936
 2372TIP3    H228752   3.052   5.979   8.595 -3.1356  0.3196 -1.0510
 2373TIP3   OH228753   5.003   3.907   6.659  0.0404 -0.3755  0.3592
 2373TIP3    H128754   5.020   3.950   6.576 -0.3449 -1.1211 -0.1215
 2373TIP3    H228755   4.950   3.831   6.636 -1.6576  0.4075  1.5001
 2374TIP3   OH228756   4.126   3.288   1.160  0.1037  0.0341 -0.2340
 2374TIP3    H128757   4.143   3.203   1.200 -0.6479  0.2493  0.5724
 2374TIP3    H228758   4.150   3.277   1.068 -1.1660 -1.4361 -0.4207
 2375TIP3   OH228759   1.664   2.404   6.119  0.2973 -0.3936  0.3035
 2375TIP3    H128760   1.720   2.371   6.049  0.3241  0.7767 -0.2446
 2375TIP3    H228761   1.588   2.441   6.073  0.0560 -0.1140  0.9231
 2376TIP3   OH228762   4.725   2.627   6.620 -0.4329 -0.4496  0.1756
 2376TIP3    H128763   4.671   2.697   6.657 -0.2150 -0.3449  0.2984
 2376TIP3    H228764   4.771   2.668   6.547 -1.4895 -0.8643 -0.7522
 2377TIP3   OH228765   4.703   4.390   0.036  0.3302 -0.0308  0.5507
 2377TIP3    H128766   4.742   4.411  -0.049  0.5644 -0.2551  0.6002
 2377TIP3    H228767   4.692   4.475   0.078 -0.2266  0.1186  0.1092
 2378TIP3   OH228768   6.399   4.354   1.342 -0.0558  0.3327  0.7111
 2378TIP3    H128769   6.462   4.282   1.353 -0.2021  0.3298  1.5826
 2378TIP3    H228770   6.402   4.373   1.248 -1.1811 -1.8816  0.1428
 2379TIP3   OH228771   1.970   1.825   1.586 -0.0480 -0.1885  0.4039
 2379TIP3    H128772   1.996   1.891   1.651  2.0224 -0.8627  0.3335
 2379TIP3    H228773   1.962   1.873   1.504 -0.5113  0.2998  0.7305
 2380TIP3   OH228774   4.646   2.614   7.044 -0.0562  0.6228  0.1825
 2380TIP3    H128775   4.554   2.608   7.069 -0.0909  0.3754 -0.0051
 2380TIP3    H228776   4.687   2.538   7.086 -0.0178  0.4919 -0.0915
 2381TIP3   OH228777   1.439   4.304   7.042 -0.6591  0.0852  0.5232
 2381TIP3    H128778   1.463   4.246   6.970 -0.1775 -0.1402  0.8606
 2381TIP3    H228779   1.486   4.269   7.118 -0.5513  0.7706  0.7818
 2382TIP3   OH228780   2.339   6.734   1.101 -0.3603  0.0944  0.1936
 2382TIP3    H128781   2.313   6.718   1.192  0.6831 -1.0164  0.3150
 2382TIP3    H228782   2.285   6.675   1.049 -1.8783  1.6379 -0.0595
 2383TIP3   OH228783   5.457   6.545   1.302 -0.4646 -0.0089  0.2998
 2383TIP3    H128784   5.526   6.610   1.289 -1.0949  0.5312 -0.4767
 2383TIP3    H228785   5.441   6.509   1.215 -1.6439  0.4026  0.3265
 2384TIP3   OH228786   3.890   4.094   5.799 -0.2953  0.3270  0.1925
 2384TIP3    H128787   3.979   4.071   5.824 -0.3974  0.4930  0.7221
 2384TIP3    H228788   3.888   4.190   5.802  0.2893  0.4959 -2.5443
 2385TIP3   OH228789   1.086   4.062   7.304  0.2509 -0.2119 -0.0140
 2385TIP3    H128790   1.006   4.044   7.254  0.5478  1.4588 -1.1501
 2385TIP3    H228791   1.063   4.035   7.394 -1.7353  0.5591 -0.2322
 2386TIP3   OH228792   6.863   3.036   0.707 -0.9308  0.2213  0.4725
 2386TIP3    H128793   6.937   3.075   0.753 -0.4238 -0.8838  0.6322
 2386TIP3    H228794   6.889   3.038   0.615 -0.6150 -0.3336  0.5465
 2387TIP3   OH228795   1.136   3.537   2.034 -0.0149 -0.2302  0.3757
 2387TIP3    H128796   1.065   3.526   2.097 -0.9838 -1.8961 -0.9254
 2387TIP3    H228797   1.180   3.452   2.032  0.5507  0.0665 -0.5477
 2388TIP3   OH228798   2.148   6.870   0.730 -0.4940  0.0093 -1.0404
 2388TIP3    H128799   2.054   6.863   0.748 -0.4156  3.6264  2.2400
 2388TIP3    H228800   2.180   6.780   0.734 -3.6020 -1.2523 -1.2229
 2389TIP3   OH228801   2.830   1.686   0.952  0.0018  0.4519 -0.1174
 2389TIP3    H128802   2.735   1.678   0.962 -0.0320 -1.1133 -1.3150
 2389TIP3    H228803   2.865   1.610   0.999  0.6739  0.9523  0.2094
 2390TIP3   OH228804   1.151   4.280   7.140 -0.3943  0.2476  0.0194
 2390TIP3    H128805   1.244   4.303   7.142 -0.3514  0.0524  2.2688
 2390TIP3    H228806   1.145   4.198   7.187 -1.5537 -0.5636 -1.4323
 2391TIP3   OH228807   2.958   4.334   6.267  0.1363 -0.2494  0.5382
 2391TIP3    H128808   2.929   4.273   6.335 -0.1629 -0.9460 -0.1965
 2391TIP3    H228809   3.015   4.283   6.211 -0.8503 -0.1349 -0.6182
 2392TIP3   OH228810   3.438   3.031   8.708 -0.6623 -0.3556 -0.0232
 2392TIP3    H128811   3.436   3.113   8.659 -0.6122  0.0077  0.5842
 2392TIP3    H228812   3.425   2.963   8.641 -0.7837  0.1475 -0.5144
 2393TIP3   OH228813   5.537   6.545   6.933 -0.1017  0.1760  0.7198
 2393TIP3    H128814   5.628   6.564   6.912  0.1013 -0.5975  0.8454
 2393TIP3    H228815   5.535   6.450   6.945 -1.0919  0.0739 -0.1137
 2394TIP3   OH228816   3.424   1.702   2.318 -0.2010 -0.4297 -0.2645
 2394TIP3    H128817   3.505   1.703   2.267 -0.0806  1.0817 -0.0710
 2394TIP3    H228818   3.447   1.655   2.398  0.3921 -0.2962 -0.3547
 2395TIP3   OH228819   4.148   5.911   0.201  0.1891 -0.4176 -0.0627
 2395TIP3    H128820   4.223   5.859   0.231  2.3307  1.4600 -1.7177
 2395TIP3    H228821   4.140   5.981   0.265  0.6866  0.0652 -0.5137
 2396TIP3   OH228822   6.256   4.013   0.646 -0.0605 -0.1865  0.7718
 2396TIP3    H128823   6.285   4.099   0.678 -1.4824  0.3013  0.8464
 2396TIP3    H228824   6.314   3.950   0.688  3.6794  0.8369 -2.2639
 2397TIP3   OH228825   0.016   4.371   8.061  0.0339 -0.6896 -0.4696
 2397TIP3    H128826   0.043   4.279   8.069 -1.1175 -0.9235  1.8648
 2397TIP3    H228827  -0.072   4.366   8.023 -0.3894 -0.6644  0.4668
 2398TIP3   OH228828   5.513   4.622   1.145  0.1254 -0.1917  0.9387
 2398TIP3    H128829   5.564   4.542   1.129  0.1669 -0.4321  2.1674
 2398TIP3    H228830   5.442   4.618   1.081 -0.3519 -1.6618  1.4889
 2399TIP3   OH228831   5.849   6.839   7.719  0.4796  0.1852  0.2887
 2399TIP3    H128832   5.802   6.918   7.746  1.7015  0.6546  1.1257
 2399TIP3    H228833   5.780   6.778   7.692 -0.7566  0.2309  3.0667
 2400TIP3   OH228834   3.724   1.123   6.792  0.5262 -0.4842  0.1280
 2400TIP3    H128835   3.633   1.110   6.768  0.6060 -1.4312  0.3220
 2400TIP3    H228836   3.771   1.050   6.752  1.3306  0.4303 -0.6503
 2401TIP3   OH228837   3.373   5.930   6.775  0.0332 -0.3204  0.0675
 2401TIP3    H128838   3.367   5.836   6.787  0.6117 -0.5093 -0.9781
 2401TIP3    H228839   3.307   5.951   6.708 -1.5377  0.3495  1.7469
 2402TIP3   OH228840   5.487   4.128   1.270  0.3465 -0.3737  0.3011
 2402TIP3    H128841   5.433   4.056   1.302 -0.4662  0.0107 -0.1441
 2402TIP3    H228842   5.449   4.149   1.184  2.1017 -1.0030 -0.6697
 2403TIP3   OH228843   2.543   4.225   6.242  0.4073 -0.7088 -0.1164
 2403TIP3    H128844   2.634   4.255   6.253  0.0577  1.0553 -1.6450
 2403TIP3    H228845   2.547   4.165   6.167  0.3144 -0.6781 -0.1450
 2404TIP3   OH228846   5.643   3.248   0.368  0.1326  0.0602  0.8246
 2404TIP3    H128847   5.632   3.180   0.434  1.8475  0.1662  1.2611
 2404TIP3    H228848   5.707   3.212   0.306  0.5717  1.0041  0.7035
 2405TIP3   OH228849   3.584   3.336   7.879  0.3527 -0.0157  0.5711
 2405TIP3    H128850   3.583   3.335   7.783  0.1139  1.0940  0.5428
 2405TIP3    H228851   3.517   3.400   7.903 -1.1171 -1.8359  1.5470
 2406TIP3   OH228852   1.137   5.407   8.611 -0.3185  0.8003  0.0040
 2406TIP3    H128853   1.186   5.420   8.530 -2.8853 -0.6930 -1.8945
 2406TIP3    H228854   1.123   5.313   8.617 -1.7880  1.0457  1.1733
 2407TIP3   OH228855   4.563   4.734   7.029  0.1251 -0.1920 -0.0660
 2407TIP3    H128856   4.527   4.702   7.112  1.3958  0.1086  0.6289
 2407TIP3    H228857   4.498   4.797   6.998 -0.7205 -0.8528  0.3184
 2408TIP3   OH228858   0.706   0.652   8.472 -0.5764  0.8412 -0.3177
 2408TIP3    H128859   0.662   0.689   8.395  1.0998  1.4948 -0.9980
 2408TIP3    H228860   0.764   0.584   8.437  0.3597  1.2848  0.3273
 2409TIP3   OH228861   4.020   0.612   1.846  0.1621 -0.1803  0.1139
 2409TIP3    H128862   3.940   0.627   1.897 -0.0241 -0.1391 -0.1883
 2409TIP3    H228863   4.026   0.688   1.788  0.0791 -0.4950 -0.3095
 2410TIP3   OH228864   2.429   4.453   7.862  0.3265 -0.0131 -0.8982
 2410TIP3    H128865   2.345   4.408   7.854  0.3369  0.0792 -1.6012
 2410TIP3    H228866   2.409   4.532   7.912 -0.3585  0.8796 -2.5344
 2411TIP3   OH228867   1.765   3.950   8.218  0.6436 -0.4989  0.1134
 2411TIP3    H128868   1.773   3.931   8.124 -1.7166  1.1906 -0.5208
 2411TIP3    H228869   1.689   3.899   8.246  0.0210  0.6391  0.5684
 2412TIP3   OH228870   5.184   2.638   8.392 -0.0250 -0.4138  0.3394
 2412TIP3    H128871   5.239   2.595   8.327  1.0492 -1.4538  1.8736
 2412TIP3    H228872   5.108   2.580   8.400  1.0304 -1.6822  1.7934
 2413TIP3   OH228873   0.956   1.817   0.740 -0.3229  0.0496  0.2675
 2413TIP3    H128874   0.939   1.848   0.651 -0.4216  0.1867  0.3339
 2413TIP3    H228875   1.049   1.836   0.754 -0.7671  1.9723  0.9456
 2414TIP3   OH228876   6.171   4.921   8.105 -0.2770 -0.2152 -0.6407
 2414TIP3    H128877   6.243   4.984   8.104 -0.1533 -0.3059  0.8936
 2414TIP3    H228878   6.108   4.955   8.041  0.0079  1.2087 -0.2016
 2415TIP3   OH228879   3.216   5.209   7.305 -0.0644  0.1583  0.0505
 2415TIP3    H128880   3.295   5.246   7.267 -0.7846  0.9735 -0.7073
 2415TIP3    H228881   3.218   5.117   7.281  0.1750  0.3850 -0.8184
 2416TIP3   OH228882   5.469   3.590   1.442  0.0593 -0.8158 -0.0500
 2416TIP3    H128883   5.475   3.672   1.492 -1.7117  0.1938 -1.3507
 2416TIP3    H228884   5.559   3.569   1.419  0.7528 -0.4006  2.0725
 2417TIP3   OH228885   4.681   1.230   8.238  0.0980  0.1640  0.1638
 2417TIP3    H128886   4.752   1.273   8.286  0.6944  0.4620 -0.9536
 2417TIP3    H228887   4.637   1.176   8.303  1.0982  0.2994  0.9700
 2418TIP3   OH228888   1.475   0.209   0.737  0.5021  0.5718 -0.1550
 2418TIP3    H128889   1.554   0.206   0.682  1.1972  1.3323  0.7794
 2418TIP3    H228890   1.476   0.296   0.775  0.7773 -0.3714  2.1304
 2419TIP3   OH228891   6.612   1.276   0.750  0.4957 -0.0080 -0.5422
 2419TIP3    H128892   6.705   1.255   0.736 -0.0606 -3.3875  0.0091
 2419TIP3    H228893   6.592   1.238   0.836 -1.3691  0.7843 -0.5832
 2420TIP3   OH228894   6.563   3.559   0.799 -0.2900  0.5995 -0.0512
 2420TIP3    H128895   6.534   3.599   0.881 -2.1519 -1.7359  0.5411
 2420TIP3    H228896   6.619   3.486   0.826 -2.3230 -1.2934 -0.6620
 2421TIP3   OH228897   2.767   2.367   1.662 -0.0769  0.1734 -0.6265
 2421TIP3    H128898   2.809   2.449   1.637  0.1548  0.4089  0.4982
 2421TIP3    H228899   2.806   2.301   1.604  2.8448  0.1456  1.1527
 2422TIP3   OH228900   5.185   1.041   0.263 -0.2983 -0.3884  0.3064
 2422TIP3    H128901   5.151   1.032   0.174 -0.2537 -0.6451  0.3154
 2422TIP3    H228902   5.109   1.067   0.315 -0.2248  0.2319  0.1089
 2423TIP3   OH228903   6.541   0.478   0.711  0.7646  0.2847  0.1152
 2423TIP3    H128904   6.632   0.450   0.719  0.0794 -1.7121  1.5495
 2423TIP3    H228905   6.533   0.551   0.773  0.9740 -0.7443  1.4020
 2424TIP3   OH228906   5.848   3.874   0.658 -0.0266  0.5564  0.0842
 2424TIP3    H128907   5.839   3.945   0.594  1.2580  2.1048  1.5255
 2424TIP3    H228908   5.760   3.865   0.696 -0.5532  0.3251 -1.1506
 2425TIP3   OH228909   1.216   5.678   6.746 -0.1024 -0.6220  0.0874
 2425TIP3    H128910   1.155   5.638   6.684 -0.5873  0.7014 -0.3293
 2425TIP3    H228911   1.200   5.632   6.828 -1.0318 -0.9070 -0.2415
 2426TIP3   OH228912   4.377   2.714   8.351  0.1851  0.8052  0.0690
 2426TIP3    H128913   4.344   2.794   8.393 -0.2005  0.8426 -0.3009
 2426TIP3    H228914   4.298   2.666   8.327  0.4055  0.7826 -0.6095
 2427TIP3   OH228915   3.463   4.533   0.226 -0.1149 -0.1546  0.4288
 2427TIP3    H128916   3.390   4.580   0.186  0.2582  0.1234  0.0665
 2427TIP3    H228917   3.428   4.448   0.250  0.2180 -1.2259 -2.5426
 2428TIP3   OH228918   3.686   3.514   6.990  0.1985 -0.4529 -0.2072
 2428TIP3    H128919   3.703   3.606   6.971 -0.9187 -0.7767 -3.3611
 2428TIP3    H228920   3.694   3.507   7.085 -0.7949  3.1391  0.2821
 2429TIP3   OH228921   4.404   1.473   6.582 -0.0948 -0.3904  0.2954
 2429TIP3    H128922   4.387   1.437   6.669  0.5522 -0.9796  0.1892
 2429TIP3    H228923   4.499   1.469   6.573 -0.2060 -1.1265 -0.7568
 2430TIP3   OH228924   2.301   1.732   7.546  0.1143 -0.2956  0.5281
 2430TIP3    H128925   2.240   1.680   7.598 -0.7840  0.8268  0.6342
 2430TIP3    H228926   2.344   1.669   7.489 -2.3211 -0.9303 -0.7268
 2431TIP3   OH228927   4.762   0.539   8.692 -0.1205 -0.3777 -0.0268
 2431TIP3    H128928   4.745   0.550   8.599 -0.2844 -0.9249 -0.0636
 2431TIP3    H228929   4.747   0.626   8.730  0.4418 -0.0319 -0.5794
 2432TIP3   OH228930   0.158   2.415   0.924 -0.8013  0.2289  0.4054
 2432TIP3    H128931   0.067   2.414   0.953 -1.9998 -0.0533 -2.8946
 2432TIP3    H228932   0.186   2.323   0.930 -0.4111  0.4309  2.1467
 2433TIP3   OH228933   4.837   6.862   6.707 -0.2973 -0.2461 -0.3115
 2433TIP3    H128934   4.903   6.811   6.753 -0.2903  0.4638  0.4970
 2433TIP3    H228935   4.787   6.798   6.656 -0.7866 -1.1821  1.2893
 2434TIP3   OH228936   1.650   3.572   1.920 -0.1098  0.2398 -0.0290
 2434TIP3    H128937   1.612   3.654   1.888  1.2488  0.4992 -1.0479
 2434TIP3    H228938   1.611   3.505   1.864  2.5130  0.7182 -2.7156
 2435TIP3   OH228939   3.433   2.025   8.122 -0.4957  0.7582 -0.2193
 2435TIP3    H128940   3.490   2.027   8.045 -1.9356 -0.9330 -1.4291
 2435TIP3    H228941   3.487   1.987   8.191  0.2360  0.4355 -0.9517
 2436TIP3   OH228942   6.106   4.922   1.784 -0.2174  0.1502  0.5025
 2436TIP3    H128943   6.024   4.886   1.751 -0.7851  0.3195  1.6595
 2436TIP3    H228944   6.172   4.855   1.764 -0.8848 -0.6078  0.7936
 2437TIP3   OH228945   4.613   3.556   6.648 -0.6744 -0.0404 -0.2286
 2437TIP3    H128946   4.530   3.566   6.694  0.1486  1.0354  1.0830
 2437TIP3    H228947   4.597   3.591   6.561 -2.7593 -3.6347 -1.5231
 2438TIP3   OH228948   0.558   3.053   7.664  0.5996 -0.2999  0.1964
 2438TIP3    H128949   0.514   3.130   7.628  1.8814  0.8552  0.9966
 2438TIP3    H228950   0.501   2.980   7.641 -1.4748  1.0596  0.7393
 2439TIP3   OH228951   2.563   0.769   0.523  0.0461 -0.0183 -0.0815
 2439TIP3    H128952   2.468   0.770   0.528  0.0837  0.1893  0.6625
 2439TIP3    H228953   2.587   0.855   0.490  0.0336  0.3606  0.8912
 2440TIP3   OH228954   6.221   0.774   0.674 -0.2992 -0.0696  0.2127
 2440TIP3    H128955   6.143   0.823   0.698 -0.0338  0.5713 -0.1772
 2440TIP3    H228956   6.294   0.833   0.695 -0.0205  0.1556 -1.2403
 2441TIP3   OH228957   4.090   2.809   7.927 -0.0011  0.2811  0.3906
 2441TIP3    H128958   4.081   2.893   7.973  0.3399  1.0618 -0.9333
 2441TIP3    H228959   4.175   2.814   7.884  0.4105 -1.1115  0.9782
 2442TIP3   OH228960   6.300   6.355   6.280  0.5898  0.1843 -0.6179
 2442TIP3    H128961   6.245   6.279   6.300  1.7319  0.0309  2.3782
 2442TIP3    H228962   6.258   6.428   6.325  0.6285  0.9312 -1.7582
 2443TIP3   OH228963   0.357   2.257   1.956  0.1071 -0.2306  0.7155
 2443TIP3    H128964   0.448   2.240   1.931  0.0603  0.1741  0.2622
 2443TIP3    H228965   0.363   2.315   2.031  0.2429 -1.2888  1.5585
 2444TIP3   OH228966   3.904   1.554   1.001  0.7127  0.0696  0.6334
 2444TIP3    H128967   3.820   1.599   0.988 -0.7501 -2.7301 -0.4252
 2444TIP3    H228968   3.951   1.568   0.919 -1.1045 -2.7691 -1.0904
 2445TIP3   OH228969   1.617   6.127   0.988  0.6117  0.4058 -0.2439
 2445TIP3    H128970   1.543   6.076   0.956  0.6836  1.1037 -1.6030
 2445TIP3    H228971   1.681   6.062   1.017 -0.7232 -0.1977  1.4842
 2446TIP3   OH228972   4.843   1.720   7.109 -0.2625 -0.1839  0.1340
 2446TIP3    H128973   4.890   1.637   7.098 -1.5776 -1.0348  0.5968
 2446TIP3    H228974   4.891   1.766   7.177  1.6402  0.3403 -1.4909
 2447TIP3   OH228975   3.219   2.341   7.058  0.7191  0.6919  0.7779
 2447TIP3    H128976   3.211   2.253   7.023  0.9579  0.1188  2.1027
 2447TIP3    H228977   3.262   2.330   7.143  3.4501  2.3584 -0.2430
 2448TIP3   OH228978   2.308   1.373   2.151 -0.2667  0.2079 -0.3256
 2448TIP3    H128979   2.305   1.323   2.070  0.0782 -0.2428 -0.0626
 2448TIP3    H228980   2.304   1.307   2.221  2.0678  0.3653  0.0436
 2449TIP3   OH228981   1.513   2.273   7.708  0.0951 -0.6336  0.0300
 2449TIP3    H128982   1.431   2.252   7.752  0.8506 -2.3001  0.7274
 2449TIP3    H228983   1.489   2.288   7.617 -1.3620  1.8663  0.7537
 2450TIP3   OH228984   4.007   2.072   6.280  0.8258  0.0548  0.1903
 2450TIP3    H128985   3.926   2.072   6.228 -0.4900 -0.4269  2.1449
 2450TIP3    H228986   4.075   2.099   6.218 -0.9963  1.6187 -1.2658
 2451TIP3   OH228987   0.799   2.898   6.135 -0.6916 -0.5345  0.2278
 2451TIP3    H128988   0.738   2.916   6.064 -0.3221 -0.8749 -0.1831
 2451TIP3    H228989   0.883   2.933   6.104 -0.4233 -1.1155  0.2912
 2452TIP3   OH228990   4.584   4.325   2.314 -0.1561  0.3881  0.0820
 2452TIP3    H128991   4.512   4.298   2.371 -0.0536 -1.3591 -0.5678
 2452TIP3    H228992   4.647   4.253   2.318  1.1867  1.5198 -0.0178
 2453TIP3   OH228993   3.589   4.378   6.994  0.0618  0.2450 -0.0301
 2453TIP3    H128994   3.675   4.414   6.970 -0.6384  2.6766  0.8219
 2453TIP3    H228995   3.540   4.378   6.912 -0.1146  1.9253  0.0422
 2454TIP3   OH228996   1.862   4.660   8.017  0.1947 -0.1982  0.3736
 2454TIP3    H128997   1.774   4.643   7.982  0.4087 -1.9854  0.6297
 2454TIP3    H228998   1.869   4.602   8.092  1.7621 -0.3614  0.1153
 2455TIP3   OH228999   3.967   4.178   7.663 -0.2789  0.0089  0.1859
 2455TIP3    H129000   3.899   4.134   7.714 -1.4379  0.8028 -0.6018
 2455TIP3    H229001   3.944   4.159   7.572 -0.3504  1.5347 -0.1439
 2456TIP3   OH229002   4.254   4.276   0.105  0.2157  0.7191  0.3635
 2456TIP3    H129003   4.216   4.363   0.113 -1.1389  0.4290 -1.9804
 2456TIP3    H229004   4.193   4.218   0.151  2.0455  1.0852  3.5572
 2457TIP3   OH229005   0.241   1.941   8.384 -0.2037  0.1361 -0.0456
 2457TIP3    H129006   0.201   2.022   8.351  0.6591  1.1624  1.3229
 2457TIP3    H229007   0.284   1.903   8.307 -1.8853  0.1541 -1.0436
 2458TIP3   OH229008   4.588   2.868   6.749 -0.2585 -0.0020  0.3414
 2458TIP3    H129009   4.594   2.887   6.843 -0.5746 -0.1015  0.3830
 2458TIP3    H229010   4.552   2.948   6.710 -0.4606 -0.0871  0.3533
 2459TIP3   OH229011   0.262   1.969   1.113  0.9274  0.3716  0.0024
 2459TIP3    H129012   0.194   2.036   1.119  1.2075  1.1775 -3.5217
 2459TIP3    H229013   0.334   2.012   1.066  1.7617 -1.9183 -0.9524
 2460TIP3   OH229014   3.397   6.665   0.499  0.2726 -0.1411 -0.5327
 2460TIP3    H129015   3.308   6.699   0.499  0.1882 -0.3353  0.3532
 2460TIP3    H229016   3.410   6.630   0.411 -1.6811 -3.0204  0.1641
 2461TIP3   OH229017   0.162   3.072   1.587  0.1800 -0.0618 -0.0022
 2461TIP3    H129018   0.169   3.159   1.626  0.2046 -0.2450  0.4025
 2461TIP3    H229019   0.129   3.016   1.657 -2.9702  0.2277 -1.1037
 2462TIP3   OH229020   4.345   4.636   0.355 -0.0027  0.0309 -0.1773
 2462TIP3    H129021   4.318   4.714   0.404  0.4971 -1.9805  3.6990
 2462TIP3    H229022   4.298   4.564   0.396  3.4277 -2.3448  0.0550
 2463TIP3   OH229023   2.980   6.140   1.474 -0.2445 -0.3128 -0.1517
 2463TIP3    H129024   3.019   6.095   1.550  1.5517  0.1955 -0.7228
 2463TIP3    H229025   2.908   6.190   1.511  0.3120 -0.4268  1.1603
 2464TIP3   OH229026   5.207   2.545   0.897 -0.4531 -0.6991  0.2501
 2464TIP3    H129027   5.200   2.450   0.897  0.8444 -0.8166 -0.3655
 2464TIP3    H229028   5.142   2.574   0.833 -0.4868 -1.2113  0.0487
 2465TIP3   OH229029   4.465   5.952   0.116 -0.0296 -0.1846  0.4214
 2465TIP3    H129030   4.448   5.937   0.023 -3.0513 -0.0596  0.8566
 2465TIP3    H229031   4.529   6.023   0.117 -1.0038  0.8058 -1.5650
 2466TIP3   OH229032   5.343   4.222   0.591  0.5625 -0.2977 -0.1071
 2466TIP3    H129033   5.280   4.270   0.537 -0.2485  0.6362  1.5788
 2466TIP3    H229034   5.427   4.262   0.572  0.1922  0.4421 -0.2053
 2467TIP3   OH229035   4.093   3.620   7.451 -0.0573 -0.1219  0.1260
 2467TIP3    H129036   4.037   3.635   7.376  0.2084  0.9878  0.1439
 2467TIP3    H229037   4.177   3.658   7.427  0.4186 -0.9096  0.4817
 2468TIP3   OH229038   1.219   5.425   0.696 -0.0872 -0.3498  0.0377
 2468TIP3    H129039   1.308   5.455   0.680  0.1949 -1.1915 -0.0196
 2468TIP3    H229040   1.192   5.470   0.776  0.9230 -1.1871  0.8672
 2469TIP3   OH229041   3.517   0.158   7.616 -0.1343  0.2922 -0.4563
 2469TIP3    H129042   3.484   0.106   7.543  0.8020  1.4460 -1.7568
 2469TIP3    H229043   3.581   0.217   7.576  1.0046  0.4037  1.4433
 2470TIP3   OH229044   1.929   2.612   7.763  0.1582  0.3210 -0.9135
 2470TIP3    H129045   1.906   2.528   7.724  1.0815 -1.2179  1.5923
 2470TIP3    H229046   2.005   2.642   7.714  1.4706 -1.6827 -0.2260
 2471TIP3   OH229047   1.256   4.198   2.113  0.3348  0.4254 -0.2060
 2471TIP3    H129048   1.322   4.129   2.113  1.4631  1.2925 -3.5380
 2471TIP3    H229049   1.194   4.173   2.044 -0.1881  1.8556 -0.3073
 2472TIP3   OH229050   2.357   2.551   0.390  0.4098 -0.5432 -0.1798
 2472TIP3    H129051   2.293   2.562   0.460 -1.3056  0.5917 -1.8441
 2472TIP3    H229052   2.349   2.458   0.365 -1.3621 -0.2298 -0.9874
 2473TIP3   OH229053   1.281   4.464   0.975 -0.2427  0.2645  0.2815
 2473TIP3    H129054   1.223   4.398   1.013  1.1023  0.3197  2.6089
 2473TIP3    H229055   1.224   4.517   0.919 -1.7611 -1.5693 -0.0038
 2474TIP3   OH229056   2.742   3.256   0.896  0.0256 -0.5811  0.6359
 2474TIP3    H129057   2.775   3.206   0.971 -1.1428 -2.1341  0.1884
 2474TIP3    H229058   2.651   3.275   0.919 -0.7660 -2.2146 -0.8481
 2475TIP3   OH229059   6.555   3.996   6.332  0.0224  0.1861 -0.5396
 2475TIP3    H129060   6.598   3.993   6.247  0.7962 -0.0941 -0.1498
 2475TIP3    H229061   6.552   3.905   6.361  0.2436  0.3293 -0.0465
 2476TIP3   OH229062   4.072   3.998   1.395 -0.2479  0.3515 -0.8659
 2476TIP3    H129063   4.090   4.056   1.321  0.5963  2.2466  0.7562
 2476TIP3    H229064   4.145   3.936   1.395  1.2705  2.0573 -0.0413
 2477TIP3   OH229065   0.225   1.322   1.409 -0.0161  0.6166  0.0305
 2477TIP3    H129066   0.269   1.384   1.351 -0.9309  2.3757  1.1269
 2477TIP3    H229067   0.284   1.314   1.485 -0.0564  0.4161  0.0412
 2478TIP3   OH229068   4.527   3.073   0.628 -0.1048 -0.0578 -0.1449
 2478TIP3    H129069   4.579   3.060   0.550  2.3625 -1.2384  1.5579
 2478TIP3    H229070   4.490   2.987   0.647  0.5069 -0.1390  0.7431
 2479TIP3   OH229071   2.885   3.502   0.974 -0.3551  0.1122  0.7429
 2479TIP3    H129072   2.927   3.466   1.052  0.8658 -0.9326 -0.3368
 2479TIP3    H229073   2.850   3.426   0.928  0.9489  0.4202 -0.8383
 2480TIP3   OH229074   1.447   2.251   8.027 -0.6207 -0.0489  0.0349
 2480TIP3    H129075   1.421   2.200   8.104 -1.3887  1.7046  0.9785
 2480TIP3    H229076   1.396   2.331   8.033  1.8641  1.6787 -0.3738
 2481TIP3   OH229077   3.381   4.005   7.313 -0.2154  0.1739  0.1437
 2481TIP3    H129078   3.388   4.098   7.335  1.1680 -0.1676  1.2808
 2481TIP3    H229079   3.334   3.966   7.386 -0.4137 -0.0990 -0.1242
 2482TIP3   OH229080   4.671   5.721   6.704  0.4256  0.3853  0.0848
 2482TIP3    H129081   4.690   5.810   6.732  0.6469  1.0787 -2.1131
 2482TIP3    H229082   4.757   5.684   6.681  0.2431 -0.1001  0.1693
 2483TIP3   OH229083   2.362   5.051   1.092  0.2126 -0.5503  0.5548
 2483TIP3    H129084   2.283   4.999   1.104  0.1816 -0.4273  0.8757
 2483TIP3    H229085   2.331   5.141   1.089  0.2846 -0.5351  0.1564
 2484TIP3   OH229086   2.721   6.412   8.347  0.2918  0.2128 -0.4009
 2484TIP3    H129087   2.727   6.402   8.442 -1.7219 -0.9546 -0.3471
 2484TIP3    H229088   2.634   6.449   8.331 -0.3671 -1.8073 -1.8939
 2485TIP3   OH229089   3.161   2.717   7.287 -0.0279 -0.1091 -0.3872
 2485TIP3    H129090   3.192   2.804   7.263  4.1372 -0.9531  1.0477
 2485TIP3    H229091   3.145   2.673   7.204 -1.6174  1.7799 -1.1312
 2486TIP3   OH229092   1.290   6.212   0.796 -0.4661 -0.0616  0.2790
 2486TIP3    H129093   1.263   6.252   0.879  0.6034  1.3517 -0.0125
 2486TIP3    H229094   1.210   6.175   0.760 -2.0621  3.6064 -0.3792
 2487TIP3   OH229095   1.124   1.704   8.356 -0.1437  0.2422 -0.2857
 2487TIP3    H129096   1.162   1.714   8.269 -0.6976 -2.0575 -0.8607
 2487TIP3    H229097   1.042   1.656   8.341  0.1903 -1.0200  1.5789
 2488TIP3   OH229098   6.186   5.351   0.507  0.0788  0.3539 -0.1125
 2488TIP3    H129099   6.175   5.274   0.451  1.1433  0.0509  0.0836
 2488TIP3    H229100   6.163   5.321   0.594  1.3759 -0.0085  0.1235
 2489TIP3   OH229101   0.525   4.147   1.299 -0.8540 -0.2452  0.4130
 2489TIP3    H129102   0.594   4.116   1.358 -1.0360  0.5697  1.0821
 2489TIP3    H229103   0.445   4.106   1.332 -0.5836 -1.9727 -0.9578
 2490TIP3   OH229104   4.062   4.348   8.002 -0.2718 -0.0896  0.1241
 2490TIP3    H129105   4.060   4.435   7.964 -0.0328  0.3112  1.0137
 2490TIP3    H229106   3.980   4.307   7.973 -0.5215  0.5329 -0.0547
 2491TIP3   OH229107   3.267   1.408   6.879  0.1046  0.3766  0.2601
 2491TIP3    H129108   3.284   1.318   6.907 -0.6623  0.2527  0.3619
 2491TIP3    H229109   3.177   1.405   6.845  0.6997  0.6974 -1.4361
 2492TIP3   OH229110   1.186   2.156   0.944  0.1871  0.1091  0.2288
 2492TIP3    H129111   1.252   2.101   0.903 -1.0511 -0.0145 -1.7229
 2492TIP3    H229112   1.182   2.234   0.889 -0.6285  0.5249  0.8570
 2493TIP3   OH229113   4.212   2.841   6.699 -0.1057  0.1912 -0.1793
 2493TIP3    H129114   4.277   2.822   6.631 -0.1160 -1.2058  0.1570
 2493TIP3    H229115   4.134   2.868   6.651 -0.5158 -1.9800 -0.8649
 2494TIP3   OH229116   6.465   4.689   6.093 -0.2678 -1.0380  0.1201
 2494TIP3    H129117   6.449   4.762   6.153  0.2239 -0.9038  0.0911
 2494TIP3    H229118   6.458   4.728   6.005 -0.2956 -1.0861  0.1009
 2495TIP3   OH229119   3.565   2.578   1.227 -0.9150  0.1237 -0.1322
 2495TIP3    H129120   3.642   2.525   1.208  0.8637  1.7320  2.0262
 2495TIP3    H229121   3.558   2.637   1.152 -0.4921 -0.5008 -0.6821
 2496TIP3   OH229122   1.049   1.025   8.590  1.1563 -0.0760  0.2692
 2496TIP3    H129123   1.052   1.079   8.668 -0.3929  0.0865  0.2579
 2496TIP3    H229124   0.985   0.957   8.611  0.0295  0.4989 -1.1476
 2497TIP3   OH229125   4.520   2.521   0.148 -0.4399 -0.6086  0.2709
 2497TIP3    H129126   4.586   2.565   0.095  0.1462 -0.4091  1.1385
 2497TIP3    H229127   4.491   2.588   0.211  1.0363 -1.6173  2.1317
 2498TIP3   OH229128   5.091   3.646   1.735 -0.6807  0.6514 -0.2276
 2498TIP3    H129129   5.009   3.693   1.721 -0.7419  0.6838  0.2388
 2498TIP3    H229130   5.153   3.714   1.763 -0.5018  0.6210 -0.5416
 2499TIP3   OH229131   2.600   3.273   7.736  0.0369 -0.2885 -0.6273
 2499TIP3    H129132   2.542   3.346   7.759  0.2330 -0.1836 -0.4692
 2499TIP3    H229133   2.570   3.246   7.649 -0.1040 -0.0879 -0.6433
 2500TIP3   OH229134   4.324   1.783   8.271 -0.3469  0.5947 -0.0116
 2500TIP3    H129135   4.286   1.829   8.196  0.1275 -0.3019 -0.8171
 2500TIP3    H229136   4.322   1.848   8.342 -1.7394  1.1237 -0.5072
 2501TIP3   OH229137   2.881   4.050   7.012  0.0408 -0.0386  0.1704
 2501TIP3    H129138   2.846   4.090   7.092 -1.7327 -1.0177 -0.0586
 2501TIP3    H229139   2.896   3.959   7.036  0.2650 -0.1489 -0.3889
 2502TIP3   OH229140   2.444   4.478   8.254 -0.0563 -0.1073  0.0870
 2502TIP3    H129141   2.364   4.526   8.237 -1.0865 -0.9845  2.1778
 2502TIP3    H229142   2.446   4.410   8.187 -1.7506 -0.8597  0.7631
 2503TIP3   OH229143   3.981   4.322   5.925  0.3420 -0.6762  0.0547
 2503TIP3    H129144   4.056   4.354   5.874  0.8166 -1.0291  0.5200
 2503TIP3    H229145   3.947   4.400   5.968  0.2750 -0.4666 -0.3714
 2504TIP3   OH229146   5.785   0.401   7.368  0.2032  0.1420 -0.8878
 2504TIP3    H129147   5.745   0.356   7.294  0.1411 -4.4166  1.5917
 2504TIP3    H229148   5.878   0.383   7.360  0.0980 -1.2165  0.5533
 2505TIP3   OH229149   4.396   1.706   6.781 -0.0430 -0.1733 -0.5688
 2505TIP3    H129150   4.489   1.709   6.805 -0.3453  1.7314  0.4841
 2505TIP3    H229151   4.370   1.615   6.799  1.7997 -0.9881 -1.7323
 2506TIP3   OH229152   2.299   5.287   8.015 -0.3507 -0.0989  0.3179
 2506TIP3    H129153   2.309   5.331   7.931 -0.3589 -0.3031  0.2098
 2506TIP3    H229154   2.357   5.335   8.074 -0.8558  0.4737  0.3618
 2507TIP3   OH229155   5.273   4.832   8.210 -0.5131 -0.6244  0.5021
 2507TIP3    H129156   5.191   4.790   8.183 -0.4029  0.3041 -1.4650
 2507TIP3    H229157   5.341   4.768   8.189 -0.5540 -0.4760 -0.1000
 2508TIP3   OH229158   2.364   5.199   7.031 -0.5040 -0.4652 -0.5746
 2508TIP3    H129159   2.372   5.104   7.022 -1.4260 -0.5846 -0.2750
 2508TIP3    H229160   2.442   5.234   6.987  0.0450 -1.3682 -0.3579
 2509TIP3   OH229161   0.252   6.731   0.884 -0.1189 -0.2917 -0.0694
 2509TIP3    H129162   0.273   6.796   0.818  1.9210 -0.2124  0.5912
 2509TIP3    H229163   0.316   6.661   0.870 -0.3772 -0.7896  1.1078
 2510TIP3   OH229164   3.891   4.809   7.304 -0.1928  0.0410  0.1870
 2510TIP3    H129165   3.862   4.799   7.213  0.1257  0.8834 -0.0144
 2510TIP3    H229166   3.821   4.770   7.356 -0.7523  0.2724 -0.3828
 2511TIP3   OH229167   3.616   1.149   7.320 -0.5042 -0.3939 -0.1456
 2511TIP3    H129168   3.665   1.111   7.247 -0.2548  1.3690 -0.9600
 2511TIP3    H229169   3.530   1.107   7.316  0.8284 -3.6739  1.4162
 2512TIP3   OH229170   0.222   3.935   7.607  0.2737  0.0518 -0.3844
 2512TIP3    H129171   0.252   4.024   7.588 -0.2346  0.3364  0.1137
 2512TIP3    H229172   0.298   3.892   7.645  0.2102  0.6092  0.3865
 2513TIP3   OH229173   4.764   3.789   2.059 -0.2035  0.3158 -0.1124
 2513TIP3    H129174   4.716   3.823   2.135  1.8042  1.3583  0.7541
 2513TIP3    H229175   4.713   3.713   2.031 -1.1310  0.0306  2.1313
 2514TIP3   OH229176   2.715   5.777   6.662 -0.2391  0.2736 -0.0335
 2514TIP3    H129177   2.793   5.751   6.613 -1.0492 -0.6856 -0.8498
 2514TIP3    H229178   2.750   5.821   6.740  1.1296 -0.8286  0.0172
 2515TIP3   OH229179   6.014   6.566   0.189  0.3352  0.0957 -0.1308
 2515TIP3    H129180   6.079   6.571   0.119  1.4428 -1.9248  0.6886
 2515TIP3    H229181   6.064   6.546   0.267 -1.3292 -3.5124  0.2286
 2516TIP3   OH229182   4.882   4.092   1.669 -0.5555 -0.2098  0.7561
 2516TIP3    H129183   4.875   4.016   1.727 -2.5692 -0.0468  0.8079
 2516TIP3    H229184   4.927   4.058   1.592  0.7208 -0.8325  1.7292
 2517TIP3   OH229185   4.179   0.240   1.362 -0.4712 -0.1142 -0.6777
 2517TIP3    H129186   4.235   0.310   1.395  0.1529 -1.1307  0.5273
 2517TIP3    H229187   4.147   0.272   1.278  0.0440  1.4709 -0.3019
 2518TIP3   OH229188   5.789   1.785   7.811 -0.3220  0.3871  0.5380
 2518TIP3    H129189   5.807   1.698   7.775  0.4279  0.9276 -0.4468
 2518TIP3    H229190   5.754   1.834   7.737 -1.6559  0.6604  1.3221
 2519TIP3   OH229191   6.124   4.685   8.551  0.3228 -0.2986  0.6652
 2519TIP3    H129192   6.077   4.760   8.587  1.5154 -0.2181  2.1392
 2519TIP3    H229193   6.193   4.723   8.498 -0.5406 -0.4073 -0.5750
 2520TIP3   OH229194   1.841   1.448   0.255  0.4591  0.6903  0.5099
 2520TIP3    H129195   1.889   1.365   0.255  0.9588  0.9662  1.0261
 2520TIP3    H229196   1.760   1.430   0.208  0.7021 -0.0095  0.3539
 2521TIP3   OH229197   5.189   5.067   8.561 -0.0930  0.6225 -0.2467
 2521TIP3    H129198   5.214   5.031   8.646  0.1676  1.2173 -0.0643
 2521TIP3    H229199   5.260   5.042   8.503  0.9893  2.2917  0.2655
 2522TIP3   OH229200   3.344   2.312   0.190 -0.1056  0.0864  0.4319
 2522TIP3    H129201   3.266   2.298   0.244 -0.6675  0.8932 -0.1529
 2522TIP3    H229202   3.363   2.225   0.153 -1.1105  0.0058  0.0766
 2523TIP3   OH229203   5.323   6.383   0.299 -0.7609  0.3844 -0.2393
 2523TIP3    H129204   5.276   6.375   0.216  0.1234  0.4249 -0.7517
 2523TIP3    H229205   5.338   6.476   0.309  0.2257  0.2792 -0.6601
 2524TIP3   OH229206   0.206   1.901   2.285  0.3255  0.2866 -0.4722
 2524TIP3    H129207   0.213   1.968   2.353 -0.5845  0.8258 -0.8860
 2524TIP3    H229208   0.123   1.856   2.304  1.2771 -1.2435  0.2374
 2525TIP3   OH229209   3.937   0.446   8.157  0.1346 -0.0698 -0.2040
 2525TIP3    H129210   3.989   0.519   8.123  4.0775 -1.7050  1.5868
 2525TIP3    H229211   3.914   0.471   8.246  0.1014 -0.3779 -0.1245
 2526TIP3   OH229212   6.443   4.382   7.154 -0.4784  0.0568 -0.4986
 2526TIP3    H129213   6.422   4.434   7.231 -1.8728  0.1110 -0.8963
 2526TIP3    H229214   6.498   4.311   7.188  1.1276  1.5059  0.1075
 2527TIP3   OH229215   6.522   3.759   8.687 -0.1093 -0.1231  0.2963
 2527TIP3    H129216   6.511   3.812   8.766 -3.4754  0.4269 -0.3789
 2527TIP3    H229217   6.531   3.823   8.617  1.7997 -0.6073  0.0212
 2528TIP3   OH229218   6.303   3.599   6.814 -0.0236 -0.8692 -0.8454
 2528TIP3    H129219   6.380   3.656   6.813  0.4436 -1.3864  1.0508
 2528TIP3    H229220   6.229   3.658   6.827  0.0689 -0.4049 -2.3072
 2529TIP3   OH229221   4.155   4.587   1.311 -0.1584 -0.4483  0.0727
 2529TIP3    H129222   4.147   4.569   1.404  1.6770 -2.1200 -0.0307
 2529TIP3    H229223   4.247   4.569   1.291 -0.4875 -0.0399 -2.0451
 2530TIP3   OH229224   5.899   4.185   1.919 -0.1511  0.2810  0.0538
 2530TIP3    H129225   5.929   4.256   1.976  1.4171 -0.5429  0.3034
 2530TIP3    H229226   5.931   4.210   1.832  0.3238 -0.0630  0.1261
 2531TIP3   OH229227   6.249   2.437   8.431 -0.3142  0.3671  0.1067
 2531TIP3    H129228   6.159   2.438   8.399  0.2449  0.5522 -1.5580
 2531TIP3    H229229   6.289   2.515   8.394  0.2364  0.9203  1.7864
 2532TIP3   OH229230   4.509   2.708   1.112  0.0632  0.0488 -0.2492
 2532TIP3    H129231   4.422   2.714   1.152  1.9525  0.1170  4.4014
 2532TIP3    H229232   4.527   2.614   1.108 -0.3265  0.0029 -1.7548
 2533TIP3   OH229233   0.923   4.476   8.576  0.9377  0.1941  0.3332
 2533TIP3    H129234   0.896   4.385   8.591  1.6132  0.0139  0.4862
 2533TIP3    H229235   0.863   4.528   8.629  0.7603 -0.1825  0.5060
 2534TIP3   OH229236   1.568   4.644   8.116 -0.4888  0.7826 -0.5462
 2534TIP3    H129237   1.624   4.676   8.186 -0.4459  1.3327 -0.8316
 2534TIP3    H229238   1.481   4.639   8.155  0.0744 -2.3359  0.6445
 2535TIP3   OH229239   2.961   3.761   0.788 -0.0599 -0.0570 -0.2969
 2535TIP3    H129240   3.023   3.733   0.855 -3.6239 -0.8985  2.9705
 2535TIP3    H229241   2.942   3.680   0.739 -0.4630 -0.3925  0.3977
 2536TIP3   OH229242   1.215   5.735   7.167 -0.3652 -0.8920  0.1191
 2536TIP3    H129243   1.241   5.660   7.114  0.2679 -0.0045 -0.8526
 2536TIP3    H229244   1.168   5.792   7.106 -2.1998 -1.1614  1.1889
 2537TIP3   OH229245   5.398   4.213   1.009 -0.4521  0.1262  0.9418
 2537TIP3    H129246   5.426   4.125   0.984  1.4020  0.7987  0.4360
 2537TIP3    H229247   5.347   4.244   0.934 -0.2150 -0.1496  0.6623
 2538TIP3   OH229248   5.255   4.741   1.340 -0.2408  0.0647 -0.3881
 2538TIP3    H129249   5.193   4.772   1.274  2.2219 -0.5588 -3.2145
 2538TIP3    H229250   5.337   4.786   1.319  0.5512  0.3821  2.7742
 2539TIP3   OH229251   3.373   6.549   8.187  0.3076  0.8558  1.0407
 2539TIP3    H129252   3.309   6.518   8.251 -0.5933  0.4055 -0.0586
 2539TIP3    H229253   3.393   6.473   8.133 -1.4772  1.9355 -1.3056
 2540TIP3   OH229254   4.120   4.416   7.299 -0.1039  0.4430  0.7421
 2540TIP3    H129255   4.059   4.450   7.365 -0.6039 -0.5516  0.8055
 2540TIP3    H229256   4.201   4.399   7.348 -0.6634 -0.8601  1.2335
 2541TIP3   OH229257   4.338   0.287   7.822 -0.1817  0.2633 -0.2502
 2541TIP3    H129258   4.374   0.370   7.854 -1.7708  1.0382 -0.3232
 2541TIP3    H229259   4.341   0.295   7.727  1.3451 -0.5695 -0.2984
 2542TIP3   OH229260   6.368   5.414   7.107 -0.6136 -0.1688  0.1388
 2542TIP3    H129261   6.311   5.354   7.156  0.3704 -0.0071  1.5488
 2542TIP3    H229262   6.437   5.438   7.169  1.1265 -0.5164 -1.5534
 2543TIP3   OH229263   6.029   4.287   0.461 -0.5402  0.4622  0.5336
 2543TIP3    H129264   6.095   4.326   0.404 -1.1167  0.9066  0.1564
 2543TIP3    H229265   6.037   4.193   0.447 -0.2525  0.5368  0.1841
 2544TIP3   OH229266   5.428   6.545   6.226  0.2292 -0.4120 -0.0276
 2544TIP3    H129267   5.431   6.488   6.149 -1.6438 -1.1369  0.3697
 2544TIP3    H229268   5.353   6.602   6.210 -0.0784 -0.4511  1.1607
 2545TIP3   OH229269   1.848   5.836   7.223 -0.1965  0.4703 -0.4719
 2545TIP3    H129270   1.808   5.885   7.151  0.3946  2.1318  0.2813
 2545TIP3    H229271   1.939   5.825   7.197 -0.7302 -2.0302 -1.5224
 2546TIP3   OH229272   2.610   3.417   1.463 -0.3120 -0.5658  0.1890
 2546TIP3    H129273   2.516   3.407   1.446 -0.3577 -1.1451  0.7323
 2546TIP3    H229274   2.636   3.492   1.410 -0.6828 -1.5515 -1.4587
 2547TIP3   OH229275   0.702   4.016   7.303 -0.0433  0.1870  0.6174
 2547TIP3    H129276   0.762   4.018   7.378  0.3400 -2.1211  0.4235
 2547TIP3    H229277   0.633   3.955   7.329  0.9867 -2.0330 -1.4773
 2548TIP3   OH229278   4.854   6.143   7.516 -0.6782 -0.1119  0.2722
 2548TIP3    H129279   4.861   6.050   7.493 -0.3440 -1.0740  3.6987
 2548TIP3    H229280   4.775   6.149   7.569 -1.6297  1.9665 -1.2693
 2549TIP3   OH229281   2.460   6.052   5.911 -0.2642 -0.0144 -0.2608
 2549TIP3    H129282   2.469   6.133   5.960  1.1594 -0.2005 -0.1794
 2549TIP3    H229283   2.531   6.055   5.847 -1.2625 -0.4023 -1.4295
 2550TIP3   OH229284   0.628   1.174   6.098 -0.1243 -0.0951 -0.2201
 2550TIP3    H129285   0.638   1.250   6.157 -0.4694  0.0766 -0.3785
 2550TIP3    H229286   0.624   1.212   6.011 -2.5580 -0.0728 -0.1667
 2551TIP3   OH229287   1.972   5.589   7.433  0.3882 -0.5903  0.1568
 2551TIP3    H129288   2.014   5.664   7.391  3.9427 -3.0481 -1.1851
 2551TIP3    H229289   2.041   5.550   7.487 -1.5396 -2.4890  1.4073
 2552TIP3   OH229290   4.844   2.757   6.397  0.5565 -0.5493  0.1678
 2552TIP3    H129291   4.754   2.758   6.363  0.4608 -0.8159  0.4134
 2552TIP3    H229292   4.888   2.689   6.346  0.3646 -1.0755  0.7032
 2553TIP3   OH229293   2.696   3.302   8.583  0.7627  0.5002 -0.0097
 2553TIP3    H129294   2.715   3.225   8.636  2.0874 -0.1759 -1.3966
 2553TIP3    H229295   2.773   3.358   8.592 -0.7890  2.4754  2.2069
 2554TIP3   OH229296   2.218   1.713   8.060  0.2201  0.3692 -0.1152
 2554TIP3    H129297   2.156   1.755   8.120 -1.0549  0.3362 -1.3650
 2554TIP3    H229298   2.295   1.769   8.063 -0.3434  1.1460  0.5066
 2555TIP3   OH229299   5.456   6.034   8.511  0.0389  0.2498  0.0234
 2555TIP3    H129300   5.442   5.951   8.465  0.8417  0.0620  0.1088
 2555TIP3    H229301   5.530   6.017   8.570 -2.3643 -0.2507  3.1654
 2556TIP3   OH229302   2.524   4.404   7.433  0.2095  0.2766 -0.0274
 2556TIP3    H129303   2.562   4.365   7.512  1.1805 -0.2104 -0.7096
 2556TIP3    H229304   2.576   4.482   7.417  2.2133 -1.3202 -1.9590
 2557TIP3   OH229305   5.597   5.402   1.193 -0.3003 -0.0318  0.1273
 2557TIP3    H129306   5.589   5.452   1.274 -1.3436 -1.3915  0.8863
 2557TIP3    H229307   5.691   5.395   1.179 -0.1182  0.9534  0.7345
 2558TIP3   OH229308   1.066   2.920   7.957 -0.3920  0.1175  0.4856
 2558TIP3    H129309   1.097   2.846   7.904 -1.7307  0.0133 -0.2005
 2558TIP3    H229310   1.044   2.988   7.893  1.3015  1.3456  1.1351
 2559TIP3   OH229311   1.406   5.500   0.432  0.5318  0.6965  0.1613
 2559TIP3    H129312   1.323   5.463   0.401  0.2594 -0.8602  2.5314
 2559TIP3    H229313   1.473   5.445   0.392  0.2021 -0.9990  1.8056
 2560TIP3   OH229314   0.262   2.929   8.018 -0.0322 -0.7440 -0.5353
 2560TIP3    H129315   0.250   3.013   8.063  1.4934 -0.8572  0.1363
 2560TIP3    H229316   0.280   2.867   8.088  3.7076 -0.6796 -1.2415
 2561TIP3   OH229317   6.435   3.416   2.325  0.4374 -0.2973 -0.4754
 2561TIP3    H129318   6.529   3.435   2.322  0.8462 -2.2143 -2.3921
 2561TIP3    H229319   6.401   3.452   2.243 -0.4352 -0.0217 -0.0110
 2562TIP3   OH229320   4.997   6.288   0.704 -0.2633 -0.4086  0.4199
 2562TIP3    H129321   4.938   6.364   0.702 -1.8548 -1.6083 -0.4549
 2562TIP3    H229322   5.053   6.299   0.627  0.4056  0.5109  1.0114
 2563TIP3   OH229323   2.699   0.771   1.880 -0.2377  0.7372  0.0365
 2563TIP3    H129324   2.688   0.676   1.877 -0.2017  0.6414  1.7894
 2563TIP3    H229325   2.630   0.805   1.823 -0.8985 -0.3142  0.1757
 2564TIP3   OH229326   1.579   2.444   0.229  0.4423 -0.1804  0.9068
 2564TIP3    H129327   1.638   2.493   0.171  1.4613 -0.0031  2.0569
 2564TIP3    H229328   1.613   2.355   0.228 -0.5794 -0.5899 -0.0862
 2565TIP3   OH229329   5.010   2.971   1.134 -0.2270  0.0915 -0.6241
 2565TIP3    H129330   4.952   3.003   1.203  0.4003  2.3074 -1.0660
 2565TIP3    H229331   5.097   2.967   1.175 -0.3584 -1.6333 -0.4339
 2566TIP3   OH229332   5.851   3.772   7.277  0.9527  0.1624  0.2576
 2566TIP3    H129333   5.923   3.736   7.330  1.4139 -0.2119 -0.5955
 2566TIP3    H229334   5.838   3.707   7.208 -2.2797 -1.3253  2.0496
 2567TIP3   OH229335   1.616   1.226   0.236 -0.0048  0.0137 -0.1696
 2567TIP3    H129336   1.655   1.200   0.319 -3.5135 -2.1062  1.0267
 2567TIP3    H229337   1.557   1.154   0.213 -1.8826  2.1298 -2.6183
 2568TIP3   OH229338   1.010   1.573   0.314  0.0824  0.9113 -0.3409
 2568TIP3    H129339   1.038   1.610   0.230  0.4261 -0.6750 -0.9736
 2568TIP3    H229340   1.092   1.558   0.361  0.1118 -0.5806 -0.8054
 2569TIP3   OH229341   0.088   2.586   0.282 -0.2657  0.8003 -0.7933
 2569TIP3    H129342   0.129   2.657   0.331  1.2300 -1.4492  1.4407
 2569TIP3    H229343  -0.005   2.593   0.304 -0.2461  2.3772 -1.0989
 2570TIP3   OH229344   4.882   1.521   2.338 -0.3288 -0.0888 -0.4196
 2570TIP3    H129345   4.816   1.588   2.321 -0.4266 -0.2702 -0.7533
 2570TIP3    H229346   4.915   1.542   2.426 -1.0216 -0.1633 -0.1362
 2571TIP3   OH229347   6.254   5.628   0.643 -0.0509  0.1819 -0.5904
 2571TIP3    H129348   6.313   5.564   0.684 -0.7591 -0.0531  0.0794
 2571TIP3    H229349   6.292   5.643   0.556  0.1372 -1.1431 -0.7590
 2572TIP3   OH229350   2.470   2.638   8.325 -0.1221  0.0019 -0.2279
 2572TIP3    H129351   2.431   2.714   8.367  0.1127  0.1898 -0.3468
 2572TIP3    H229352   2.450   2.565   8.384 -0.7053  0.0842 -0.3227
 2573TIP3   OH229353   4.246   3.530   8.307  0.1671  0.0886 -0.4755
 2573TIP3    H129354   4.187   3.455   8.302  1.4926 -0.9123 -1.8624
 2573TIP3    H229355   4.241   3.559   8.398 -1.5913 -0.6475 -0.3001
 2574TIP3   OH229356   6.438   3.883   0.823  0.3150  0.1093  0.0103
 2574TIP3    H129357   6.433   3.945   0.896  0.5932 -0.0406  0.1583
 2574TIP3    H229358   6.433   3.797   0.865  1.2930  0.0052 -0.0720
 2575TIP3   OH229359   5.885   3.263   7.216 -0.4503  0.0265 -0.1553
 2575TIP3    H129360   5.870   3.187   7.160 -0.2817 -1.2421  1.4684
 2575TIP3    H229361   5.980   3.265   7.230 -0.3977  0.8151 -0.5287
 2576TIP3   OH229362   5.522   4.151   8.550 -0.6585 -0.3077 -0.2910
 2576TIP3    H129363   5.598   4.142   8.493  0.2294 -0.5368  0.8931
 2576TIP3    H229364   5.459   4.201   8.498  0.3464  0.0153 -1.2427
 2577TIP3   OH229365   5.988   1.551   7.422  0.9130 -0.2759  0.1131
 2577TIP3    H129366   6.020   1.461   7.415  2.2181  0.3097 -2.3366
 2577TIP3    H229367   6.044   1.602   7.364 -3.6779  1.0426 -3.8666
 2578TIP3   OH229368   3.948   1.728   0.473  0.0658  0.1741 -0.7080
 2578TIP3    H129369   4.007   1.767   0.409  0.9008  0.3461  0.1414
 2578TIP3    H229370   4.006   1.690   0.539 -0.7754  0.0655 -0.0147
 2579TIP3   OH229371   0.579   1.735   1.678 -0.5155 -0.6296  0.2923
 2579TIP3    H129372   0.656   1.677   1.677  0.7674  0.8871  2.4133
 2579TIP3    H229373   0.531   1.712   1.598  1.7302 -2.1774 -0.7367
 2580TIP3   OH229374   4.715   5.875   1.481  0.3716 -0.6417  0.4508
 2580TIP3    H129375   4.737   5.937   1.550  0.7525  0.6353 -0.7815
 2580TIP3    H229376   4.798   5.829   1.464  0.7763  0.3800 -0.4443
 2581TIP3   OH229377   4.706   0.359   0.495  0.1406 -0.2933 -0.2487
 2581TIP3    H129378   4.683   0.286   0.438 -1.4552 -0.9102  1.0904
 2581TIP3    H229379   4.693   0.325   0.584  2.2053  0.7310  0.5167
 2582TIP3   OH229380   6.567   0.307   8.268 -0.0797  0.8641  0.4089
 2582TIP3    H129381   6.643   0.364   8.253  0.4168  0.1668  0.2113
 2582TIP3    H229382   6.553   0.309   8.363  2.3541 -1.6559  0.9558
 2583TIP3   OH229383   2.188   4.445   0.801  0.2470 -0.5381 -0.2601
 2583TIP3    H129384   2.222   4.532   0.825  0.7223 -1.1250  1.3501
 2583TIP3    H229385   2.232   4.424   0.719  0.2798  0.6556 -0.5612
 2584TIP3   OH229386   1.280   2.144   1.463 -0.2309  0.2155  0.0655
 2584TIP3    H129387   1.307   2.062   1.505  0.1756  0.8817  1.1270
 2584TIP3    H229388   1.185   2.136   1.455 -0.1834 -0.4040  0.0712
 2585TIP3   OH229389   4.923   4.512   1.819 -0.6357  0.3538  0.0729
 2585TIP3    H129390   4.883   4.435   1.861 -1.4266 -1.4515 -3.5789
 2585TIP3    H229391   5.013   4.512   1.852  0.2207 -3.8588 -1.5586
 2586TIP3   OH229392   4.779   1.366   8.514  0.1597  0.3648  0.0678
 2586TIP3    H129393   4.842   1.296   8.504 -1.7177 -1.1532 -1.9668
 2586TIP3    H229394   4.779   1.385   8.608  2.1882 -0.8994  0.3725
 2587TIP3   OH229395   4.937   5.904   6.812 -0.9375 -0.0562  0.0801
 2587TIP3    H129396   4.955   5.841   6.742  1.4320 -0.4248  0.9101
 2587TIP3    H229397   4.973   5.987   6.780 -2.8782  0.6223 -0.4705
 2588TIP3   OH229398   3.557   3.078   7.710 -0.7615  0.4000  0.1112
 2588TIP3    H129399   3.548   3.169   7.682 -0.2382  0.8399  1.2955
 2588TIP3    H229400   3.469   3.042   7.707 -0.7350  0.3746 -2.1365
 2589TIP3   OH229401   5.519   5.011   6.243  0.0023  0.5510  0.6927
 2589TIP3    H129402   5.500   4.923   6.212  0.2900  0.9821 -0.7642
 2589TIP3    H229403   5.438   5.040   6.285 -1.1696  0.7380 -1.5904
 2590TIP3   OH229404   6.460   5.185   7.438 -0.1580 -0.1043 -0.3143
 2590TIP3    H129405   6.417   5.256   7.487  0.8234  0.2856  0.0039
 2590TIP3    H229406   6.387   5.137   7.397 -0.8187  1.5491 -1.1935
 2591TIP3   OH229407   6.158   5.874   0.738  0.3396  0.0772 -0.2647
 2591TIP3    H129408   6.135   5.837   0.823 -3.5746 -0.5221 -1.3727
 2591TIP3    H229409   6.194   5.800   0.689  2.8653  0.4896  0.8609
 2592TIP3   OH229410   6.151   3.703   8.299  0.3183  0.5170 -0.0280
 2592TIP3    H129411   6.158   3.692   8.205  1.9950  3.4303 -0.3410
 2592TIP3    H229412   6.141   3.797   8.312 -1.6636  0.0631  2.6649
 2593TIP3   OH229413   4.142   3.251   8.226 -0.2146  0.0028  0.2864
 2593TIP3    H129414   4.133   3.156   8.236  2.6109 -0.2595  1.2989
 2593TIP3    H229415   4.188   3.262   8.142 -0.0778  0.4265  0.4131
 2594TIP3   OH229416   4.943   0.904   1.289 -0.4117 -0.5774  0.1977
 2594TIP3    H129417   4.966   0.838   1.355  0.4001 -0.0947  0.4182
 2594TIP3    H229418   5.028   0.939   1.261 -0.8604  0.7108  0.4357
 2595TIP3   OH229419   0.325   6.745   7.901  0.5601 -0.4453  0.6263
 2595TIP3    H129420   0.312   6.732   7.807 -0.0160 -0.3593  0.6890
 2595TIP3    H229421   0.354   6.836   7.909  2.0310 -0.8771  0.4138
 2596TIP3   OH229422   0.781   3.993   6.869 -0.0801 -0.1726  0.5262
 2596TIP3    H129423   0.796   3.980   6.776 -3.1574 -0.1719 -0.0739
 2596TIP3    H229424   0.772   4.088   6.879  1.2632 -0.0842  1.0413
 2597TIP3   OH229425   1.184   5.100   8.191 -0.0114 -0.1807 -0.2194
 2597TIP3    H129426   1.101   5.094   8.238  1.0183 -0.7823  1.6254
 2597TIP3    H229427   1.223   5.182   8.223 -0.8227  1.3143 -2.7776
 2598TIP3   OH229428   5.889   4.317   8.038 -0.1156  0.1929  0.3493
 2598TIP3    H129429   5.868   4.259   7.965  0.5124  0.9391 -0.4305
 2598TIP3    H229430   5.946   4.384   8.001 -1.6699  1.9431  0.9653
 2599TIP3   OH229431   3.261   6.440   7.574  0.3237  0.2605  0.1285
 2599TIP3    H129432   3.218   6.371   7.623 -2.5733  1.2848 -0.7401
 2599TIP3    H229433   3.272   6.511   7.637  0.5880  0.0680  0.3024
 2600TIP3   OH229434   2.713   5.513   8.630  0.0857  0.1120 -0.5709
 2600TIP3    H129435   2.803   5.544   8.634 -0.5026  2.3137  5.4111
 2600TIP3    H229436   2.660   5.592   8.616 -1.0188 -0.6563 -0.9041
 2601TIP3   OH229437   1.695   0.089   8.405 -0.2499 -0.7097 -0.1963
 2601TIP3    H129438   1.701   0.133   8.490 -0.4529  0.2810 -0.6868
 2601TIP3    H229439   1.603   0.065   8.397  0.0086 -2.0184  0.4441
 2602TIP3   OH229440   0.363   1.092   6.472 -0.5782 -0.5423 -0.6283
 2602TIP3    H129441   0.383   1.159   6.407 -1.7854  0.3689 -0.0798
 2602TIP3    H229442   0.273   1.066   6.454 -1.4737  0.7844  1.5429
 2603TIP3   OH229443   1.751   6.175   6.838 -0.3193 -0.4277 -0.2769
 2603TIP3    H129444   1.733   6.104   6.776 -1.0726  0.1178 -0.7005
 2603TIP3    H229445   1.690   6.244   6.813  0.3838  0.3631  0.1465
 2604TIP3   OH229446   0.216   6.405   1.593 -0.0253 -0.5065 -0.1840
 2604TIP3    H129447   0.127   6.425   1.620  0.1667 -0.3829  0.3782
 2604TIP3    H229448   0.219   6.309   1.591 -0.9357 -0.5534 -2.8536
 2605TIP3   OH229449   2.275   6.634   7.734  0.4680 -0.3195 -0.1115
 2605TIP3    H129450   2.245   6.546   7.757  0.2270 -0.2603 -0.1986
 2605TIP3    H229451   2.293   6.675   7.819 -0.9773  0.0929  0.0238
 2606TIP3   OH229452   3.815   6.479   7.491  0.2034  0.0605  0.3463
 2606TIP3    H129453   3.861   6.534   7.553 -0.4131  3.3808 -1.9005
 2606TIP3    H229454   3.881   6.415   7.461  1.4799  0.6847  1.7411
 2607TIP3   OH229455   2.157   2.240   0.882 -0.2525  0.2705  0.1102
 2607TIP3    H129456   2.207   2.215   0.960 -0.8388 -0.9515  0.1213
 2607TIP3    H229457   2.203   2.317   0.848 -0.7709  1.7197  2.4181
 2608TIP3   OH229458   4.003   2.112   8.425  0.2749  0.7320  0.3097
 2608TIP3    H129459   3.928   2.170   8.408 -1.3467 -1.4519 -0.3294
 2608TIP3    H229460   3.981   2.031   8.380  2.1391 -0.6640  1.7957
 2609TIP3   OH229461   3.567   6.553   6.937 -0.2275  0.4797  0.1370
 2609TIP3    H129462   3.596   6.577   6.849 -1.6234 -3.5929 -1.6837
 2609TIP3    H229463   3.471   6.559   6.933 -0.2954  2.9783  2.4548
 2610TIP3   OH229464   4.402   5.963   8.365  0.7436  0.2303  0.7089
 2610TIP3    H129465   4.326   6.021   8.361  0.7026  0.1116 -0.5719
 2610TIP3    H229466   4.390   5.902   8.293  2.4433  0.7013 -0.0367
 2611TIP3   OH229467   1.695   3.652   7.887 -0.0644  0.2692 -0.3734
 2611TIP3    H129468   1.762   3.654   7.955 -0.1046 -3.3027 -0.0625
 2611TIP3    H229469   1.744   3.665   7.805  0.4234  1.3890  0.0727
 2612TIP3   OH229470   4.125   5.530   6.480 -0.1473 -0.6128 -0.2847
 2612TIP3    H129471   4.130   5.440   6.447 -1.7175 -0.0814 -2.1487
 2612TIP3    H229472   4.081   5.578   6.411 -1.9203  1.0137  1.8371
 2613TIP3   OH229473   2.183   6.862   8.155 -0.1920  0.7768 -0.5471
 2613TIP3    H129474   2.170   6.848   8.248  1.7047  1.5876 -0.1024
 2613TIP3    H229475   2.110   6.816   8.113  0.3967 -1.9898  1.1754
 2614TIP3   OH229476   1.588   3.414   1.108 -0.1726 -0.3783 -0.1151
 2614TIP3    H129477   1.622   3.435   1.196 -1.2371  2.8921 -0.3480
 2614TIP3    H229478   1.607   3.493   1.057 -1.2141 -1.5176 -2.3544
 2615TIP3   OH229479   5.010   2.904   2.201 -0.1837  0.1429 -0.2298
 2615TIP3    H129480   4.923   2.939   2.216 -0.4118  0.8080 -2.6227
 2615TIP3    H229481   5.023   2.913   2.106  1.2766 -2.7553 -0.4134
 2616TIP3   OH229482   0.760   5.462   1.157  0.0192  0.4590  0.1855
 2616TIP3    H129483   0.762   5.529   1.088  0.9023  0.6326  0.3676
 2616TIP3    H229484   0.827   5.399   1.132 -0.1279  0.1593  0.5323
 2617TIP3   OH229485   5.608   3.056   1.452  0.2576  0.0867 -0.5203
 2617TIP3    H129486   5.591   2.962   1.437 -1.4891  0.3570 -0.4985
 2617TIP3    H229487   5.592   3.096   1.366  0.0955  0.4577 -0.3195
 2618TIP3   OH229488   5.087   0.433   8.093  0.3018  0.9344  0.0683
 2618TIP3    H129489   5.179   0.457   8.109  0.0741  1.3649  0.8193
 2618TIP3    H229490   5.042   0.517   8.091 -0.0072  0.7471 -0.7802
 2619TIP3   OH229491   0.684   2.232   1.040 -0.5472  0.2190  0.1192
 2619TIP3    H129492   0.746   2.167   1.007 -0.3757 -0.7275  2.1686
 2619TIP3    H229493   0.602   2.183   1.051 -0.1672 -0.0227  2.6064
 2620TIP3   OH229494   2.651   2.551   0.941 -0.1014 -0.7530  0.6455
 2620TIP3    H129495   2.731   2.501   0.957  0.7861  0.9635  1.8862
 2620TIP3    H229496   2.661   2.581   0.850  1.0685  0.0568  1.0091
 2621TIP3   OH229497   1.651   4.849   5.789  0.0332 -0.4738 -0.2869
 2621TIP3    H129498   1.653   4.941   5.814  2.8463 -0.1167 -1.4465
 2621TIP3    H229499   1.739   4.817   5.808 -0.6923 -2.7943 -0.4739
 2622TIP3   OH229500   4.851   4.079   0.893 -0.6003  0.1259  0.2072
 2622TIP3    H129501   4.844   4.064   0.798  2.4325 -0.1886 -0.0606
 2622TIP3    H229502   4.852   4.175   0.902  1.5412  0.2128 -0.4114
 2623TIP3   OH229503   0.795   2.933   8.717 -0.1808  0.0940  0.1156
 2623TIP3    H129504   0.717   2.889   8.749  0.7184 -1.6963 -0.0513
 2623TIP3    H229505   0.761   3.011   8.672 -1.8575 -0.5942  0.1025
 2624TIP3   OH229506   3.865   3.851   7.645  0.5304 -0.1034  0.2182
 2624TIP3    H129507   3.856   3.863   7.740 -0.4558  1.3494 -0.0302
 2624TIP3    H229508   3.915   3.770   7.636  2.1300  0.6249  1.9959
 2625TIP3   OH229509   3.180   1.457   8.156  0.0408  0.0555 -0.4742
 2625TIP3    H129510   3.181   1.458   8.060 -0.0702 -1.4441 -0.5229
 2625TIP3    H229511   3.182   1.549   8.181 -0.7245  0.4979 -1.9244
 2626TIP3   OH229512   1.724   5.701   0.542 -0.6797  0.3163  0.7149
 2626TIP3    H129513   1.710   5.785   0.586 -2.3509  0.0004  0.8647
 2626TIP3    H229514   1.696   5.636   0.607  1.5987 -0.4464  1.0026
 2627TIP3   OH229515   6.605   5.367   1.086 -0.1653  0.1727  0.8442
 2627TIP3    H129516   6.689   5.326   1.069 -0.3532 -0.9673  2.4472
 2627TIP3    H229517   6.602   5.378   1.181 -1.6614  0.5231  0.7830
 2628TIP3   OH229518   1.006   1.315   6.476  0.1825  0.0459 -0.3397
 2628TIP3    H129519   0.976   1.224   6.472  0.4965 -0.0716 -0.0261
 2628TIP3    H229520   1.075   1.315   6.543  1.5742  0.1237 -1.7304
 2629TIP3   OH229521   0.741   1.169   7.142 -0.0557 -0.4210 -0.2148
 2629TIP3    H129522   0.809   1.225   7.180  1.8985 -0.2082 -3.6276
 2629TIP3    H229523   0.701   1.223   7.073 -1.5598 -1.6380 -0.3493
 2630TIP3   OH229524   1.363   4.017   8.463  0.1496 -0.9376 -0.1425
 2630TIP3    H129525   1.273   4.035   8.489 -0.0804 -1.6656 -0.4242
 2630TIP3    H229526   1.357   3.942   8.405  0.8900 -0.6859 -0.5574
 2631TIP3   OH229527   5.479   5.309   6.795  0.3584 -0.4096  0.2661
 2631TIP3    H129528   5.429   5.391   6.800  0.7331 -0.2524  2.2763
 2631TIP3    H229529   5.423   5.251   6.743 -0.0616  1.0040 -0.9247
 2632TIP3   OH229530   2.804   3.511   7.524  0.3328  0.0829 -1.0230
 2632TIP3    H129531   2.846   3.427   7.545  0.8944  0.5619 -0.1693
 2632TIP3    H229532   2.751   3.493   7.446 -0.4060 -1.3482 -0.2364
 2633TIP3   OH229533   2.593   1.017   1.266  0.2798 -0.0336 -0.2877
 2633TIP3    H129534   2.531   1.089   1.254 -0.7776 -0.8213  0.2615
 2633TIP3    H229535   2.608   1.014   1.361 -0.6742 -1.2990 -0.1415
 2634TIP3   OH229536   5.971   0.521   1.293  0.4722  0.2115  0.0158
 2634TIP3    H129537   6.001   0.609   1.316 -0.3269  0.3195  0.7121
 2634TIP3    H229538   6.002   0.508   1.204 -1.0564  1.9915 -0.8392
 2635TIP3   OH229539   1.836   2.223   1.167 -0.3349  0.1555  0.5924
 2635TIP3    H129540   1.755   2.273   1.173 -1.5618 -1.5127 -0.9841
 2635TIP3    H229541   1.861   2.207   1.258 -1.8777  0.5558  1.1171
 2636TIP3   OH229542   5.522   6.804   7.035  0.2454 -0.7963  0.3443
 2636TIP3    H129543   5.516   6.715   7.000  0.7216 -0.2478 -1.2401
 2636TIP3    H229544   5.551   6.793   7.125  2.6774 -2.1715 -0.5106
 2637TIP3   OH229545   1.408   4.474   7.929  0.3071  0.1876  0.1744
 2637TIP3    H129546   1.380   4.499   7.840  0.6215  1.1070  0.3276
 2637TIP3    H229547   1.384   4.549   7.983  3.5973  1.3475  0.2325
 2638TIP3   OH229548   5.859   4.380   8.633  0.1330 -0.9429  0.2344
 2638TIP3    H129549   5.851   4.363   8.539 -0.8417 -1.3705  0.3896
 2638TIP3    H229550   5.954   4.389   8.647  0.2187  0.6544 -1.0325
 2639TIP3   OH229551   1.340   6.532   0.569 -0.3514  0.1686  0.2742
 2639TIP3    H129552   1.274   6.480   0.525 -0.4398  1.0017 -0.6153
 2639TIP3    H229553   1.399   6.469   0.608  0.4235 -0.6304 -2.0678
 2640TIP3   OH229554   5.172   4.671   0.650  0.2269 -0.2900  0.0318
 2640TIP3    H129555   5.083   4.645   0.676 -2.2599  3.8231 -3.0433
 2640TIP3    H229556   5.203   4.599   0.596 -1.1011 -1.9265  1.3315
 2641TIP3   OH229557   1.709   3.703   8.514 -0.3584 -0.5290  0.0539
 2641TIP3    H129558   1.659   3.778   8.546 -0.0793 -1.3430  2.6043
 2641TIP3    H229559   1.790   3.740   8.480 -0.3788  0.3818  0.9642
 2642TIP3   OH229560   5.058   3.564   0.636  0.6170  0.0710  0.8265
 2642TIP3    H129561   5.068   3.549   0.542 -0.0332  2.3072  0.3379
 2642TIP3    H229562   5.148   3.568   0.669  0.8652 -0.3381  0.2270
 2643TIP3   OH229563   3.900   3.352   0.681 -0.0607 -0.2656 -0.2593
 2643TIP3    H129564   3.904   3.432   0.732  0.9295 -0.3651 -0.1598
 2643TIP3    H229565   3.818   3.358   0.632  0.6673  1.4696 -1.3418
 2644TIP3   OH229566   0.672   3.866   0.309  0.0282  0.1735  0.2306
 2644TIP3    H129567   0.633   3.898   0.390 -0.1392  0.1865  0.1451
 2644TIP3    H229568   0.732   3.797   0.337 -0.5101 -0.2724  0.3142
 2645TIP3   OH229569   0.991   0.775   6.489 -0.2803  0.0557 -0.3594
 2645TIP3    H129570   1.044   0.700   6.460 -0.5205 -0.6920  1.0379
 2645TIP3    H229571   0.901   0.741   6.488 -0.5571  0.7814 -1.0530
 2646TIP3   OH229572   0.583   0.784   0.171 -0.2874 -0.4435 -0.6335
 2646TIP3    H129573   0.547   0.739   0.247  0.3797  0.9620  0.5590
 2646TIP3    H229574   0.621   0.713   0.118 -1.5762 -1.5421 -0.1476
 2647TIP3   OH229575   3.048   4.936   7.749  0.1942 -0.2700  0.2805
 2647TIP3    H129576   3.069   4.968   7.661  1.2572 -1.6349 -0.0064
 2647TIP3    H229577   3.127   4.953   7.800  0.0159 -0.5434  0.6531
 2648TIP3   OH229578   4.072   2.070   8.677 -0.0641  0.2064 -0.6910
 2648TIP3    H129579   4.073   2.085   8.582 -0.7050 -0.5988 -0.8404
 2648TIP3    H229580   4.076   2.157   8.715  0.8379  0.5106 -1.4533
 2649TIP3   OH229581   2.870   3.855   8.659  0.4016  0.1005 -0.2252
 2649TIP3    H129582   2.858   3.902   8.742 -1.6089  1.6539 -1.2936
 2649TIP3    H229583   2.952   3.808   8.669  2.0134  3.0131  1.3514
 2650TIP3   OH229584   5.198   1.017   0.702  0.0553 -0.2684  0.5085
 2650TIP3    H129585   5.224   0.961   0.630  0.5241 -0.9119  1.1663
 2650TIP3    H229586   5.213   1.106   0.670  1.1909 -0.5699  0.1661
 2651TIP3   OH229587   6.751   1.503   1.028 -0.3847 -0.1294  0.3947
 2651TIP3    H129588   6.800   1.580   0.998 -1.1345 -0.4134 -1.6692
 2651TIP3    H229589   6.680   1.493   0.965 -2.3697 -0.5265  2.5497
 2652TIP3   OH229590   6.856   4.274   7.374 -0.5277  0.0658  0.5277
 2652TIP3    H129591   6.848   4.291   7.468  2.9127 -1.2435  1.2306
 2652TIP3    H229592   6.919   4.340   7.344 -0.6262 -0.3201 -0.5544
 2653TIP3   OH229593   3.976   2.059   1.186 -0.0743 -0.5797  0.8136
 2653TIP3    H129594   4.053   2.010   1.213 -0.1613  0.0810  2.3879
 2653TIP3    H229595   3.968   2.128   1.251 -0.0974  1.3980 -1.1591
 2654TIP3   OH229596   1.223   1.275   6.672 -0.1570  0.0883 -0.1261
 2654TIP3    H129597   1.290   1.207   6.662 -1.3556 -1.0810 -0.6224
 2654TIP3    H229598   1.256   1.332   6.741 -0.1174 -2.2739  1.9166
 2655TIP3   OH229599   0.567   0.833   6.396 -0.3257  0.4451 -0.8068
 2655TIP3    H129600   0.508   0.882   6.339  1.1987  2.4660 -0.7547
 2655TIP3    H229601   0.624   0.900   6.434 -0.3446 -1.0062  1.9893
 2656TIP3   OH229602   6.061   1.621   6.786  0.2931  0.1995  0.4284
 2656TIP3    H129603   6.122   1.650   6.854  1.3265 -0.7656 -0.0703
 2656TIP3    H229604   5.975   1.631   6.826  0.3445  5.0939 -0.0631
 2657TIP3   OH229605   1.342   0.344   0.480 -0.3163  0.0239  0.4189
 2657TIP3    H129606   1.368   0.309   0.565  0.6406  0.7024  0.4092
 2657TIP3    H229607   1.291   0.273   0.440 -2.0042  0.2018  2.1207
 2658TIP3   OH229608   4.441   1.821   0.567 -0.4299 -0.5631  0.3792
 2658TIP3    H129609   4.526   1.796   0.602  0.9586  1.3428 -1.3984
 2658TIP3    H229610   4.417   1.900   0.616 -0.2301 -0.0025 -0.4066
 2659TIP3   OH229611   3.235   2.920   8.035 -0.2667  0.6130 -0.2312
 2659TIP3    H129612   3.189   2.843   8.001 -1.4142  1.1059  0.1514
 2659TIP3    H229613   3.322   2.916   7.995 -1.0702  0.3644 -2.0498
 2660TIP3   OH229614   6.037   5.888   7.900  0.7253  0.5521  0.6221
 2660TIP3    H129615   6.097   5.835   7.847 -1.0103 -0.8567 -0.0579
 2660TIP3    H229616   6.011   5.830   7.972 -3.2815 -0.7836 -1.5666
 2661TIP3   OH229617   5.553   6.222   7.532 -0.0419  0.1138 -0.5792
 2661TIP3    H129618   5.599   6.295   7.491 -1.7007  0.9841 -0.9804
 2661TIP3    H229619   5.494   6.264   7.595  2.6558 -1.1532  3.1466
 2662TIP3   OH229620   5.159   4.466   1.333  0.4896  0.3281 -0.1226
 2662TIP3    H129621   5.252   4.443   1.337  0.7305  1.1056 -0.7946
 2662TIP3    H229622   5.158   4.562   1.336 -0.2944  0.3300 -0.1125
 2663TIP3   OH229623   0.008   5.831   7.313  0.0855  0.0414 -0.1413
 2663TIP3    H129624  -0.074   5.823   7.361 -0.7084 -2.0065 -1.6938
 2663TIP3    H229625   0.051   5.746   7.324  0.6893  0.1258 -1.6213
 2664TIP3   OH229626   0.012   4.456   0.160  0.1954 -0.2981 -0.4376
 2664TIP3    H129627  -0.025   4.515   0.225 -0.0324 -0.2873 -0.5784
 2664TIP3    H229628  -0.043   4.378   0.164  1.5998 -1.2932  1.0928
 2665TIP3   OH229629   2.035   6.069   7.507  0.2156 -0.0081 -0.4342
 2665TIP3    H129630   1.948   6.029   7.496 -1.4981  2.9953  0.8118
 2665TIP3    H229631   2.062   6.093   7.418 -0.5713 -0.3844 -0.7820
 2666TIP3   OH229632   0.133   0.639   8.633  0.6815 -0.0940  0.0410
 2666TIP3    H129633   0.069   0.668   8.697  1.4427  1.0691  0.2972
 2666TIP3    H229634   0.088   0.570   8.584  0.6161 -2.2077  2.8501
 2667TIP3   OH229635   6.132   3.962   7.189  0.5602  0.3146  0.2093
 2667TIP3    H129636   6.209   3.915   7.158  0.1554 -0.7267  0.7074
 2667TIP3    H229637   6.059   3.923   7.141  0.1096 -0.2328  1.3121
 2668TIP3   OH229638   3.441   0.655   7.033 -0.1133  0.5024  0.4991
 2668TIP3    H129639   3.361   0.654   7.084  0.0664  1.6908  0.8426
 2668TIP3    H229640   3.511   0.659   7.098  0.1869  0.3905  0.1892
 2669TIP3   OH229641   6.656   4.333   7.909  0.1357 -0.4830  0.2471
 2669TIP3    H129642   6.587   4.288   7.860 -0.5328  0.9770 -0.2061
 2669TIP3    H229643   6.613   4.362   7.990  0.6014 -0.7593  0.6033
 2670TIP3   OH229644   2.073   4.299   7.570  0.2565 -0.2965 -0.0688
 2670TIP3    H129645   2.145   4.236   7.570  1.3627  0.9025 -1.3316
 2670TIP3    H229646   2.108   4.375   7.523 -1.9336  0.1964 -1.0261
 2671TIP3   OH229647   0.350   1.242   0.780  0.4201  0.3196 -0.0114
 2671TIP3    H129648   0.437   1.236   0.820 -0.3459  0.0805  1.7019
 2671TIP3    H229649   0.298   1.177   0.826 -0.4657 -0.1893 -1.6496
 2672TIP3   OH229650   1.242   0.067   0.430  0.2133  0.5307  0.2771
 2672TIP3    H129651   1.310   0.065   0.498 -0.7238  0.3804  1.2431
 2672TIP3    H229652   1.235  -0.024   0.401  0.6786  0.6097 -0.0823
 2673TIP3   OH229653   6.672   6.004   0.874  1.1605  0.0626 -0.1031
 2673TIP3    H129654   6.689   6.091   0.909  0.8913 -0.1732  0.6244
 2673TIP3    H229655   6.631   6.019   0.789  0.7226  0.6405  0.2112
 2674TIP3   OH229656   5.154   4.425   0.500 -0.5945  0.0603 -0.4579
 2674TIP3    H129657   5.080   4.363   0.502 -1.7545  1.3470 -1.3901
 2674TIP3    H229658   5.145   4.470   0.417  1.7516 -0.2699 -0.9478
 2675TIP3   OH229659   5.917   3.530   2.128  0.1326  0.1206  0.1720
 2675TIP3    H129660   5.828   3.532   2.093 -0.9419  0.3429  2.7370
 2675TIP3    H229661   5.931   3.618   2.163  0.9083 -0.2738  0.8778
 2676TIP3   OH229662   6.038   2.486   7.417 -0.5730 -0.3375  0.3633
 2676TIP3    H129663   5.982   2.411   7.399  0.8035 -0.9251 -1.8251
 2676TIP3    H229664   6.115   2.450   7.461 -0.3869 -0.0279  0.2970
 2677TIP3   OH229665   4.766   5.243   0.903 -0.0234 -0.3905  0.6797
 2677TIP3    H129666   4.817   5.324   0.897 -2.2384  1.1736  1.4306
 2677TIP3    H229667   4.800   5.199   0.981  1.9396 -0.7884 -0.3417
 2678TIP3   OH229668   6.776   6.238   6.613 -0.1117  0.0108 -0.1361
 2678TIP3    H129669   6.822   6.245   6.530  1.8850  3.1935  1.0232
 2678TIP3    H229670   6.845   6.216   6.677 -0.2248  3.5062  1.4403
 2679TIP3   OH229671   6.128   6.301   5.922 -0.3412  0.4021  0.5549
 2679TIP3    H129672   6.055   6.275   5.979 -0.9880  1.6113  0.3113
 2679TIP3    H229673   6.164   6.219   5.891 -2.0399 -0.2331  0.1340
 2680TIP3   OH229674   3.411   6.105   7.030 -0.2316  0.0537  0.3469
 2680TIP3    H129675   3.334   6.094   7.087 -1.5736  1.5261 -1.0665
 2680TIP3    H229676   3.382   6.073   6.945  0.4638  1.2454 -0.3680
 2681TIP3   OH229677   1.724   2.880   5.849  0.3233 -0.2302  0.5578
 2681TIP3    H129678   1.676   2.948   5.802  0.3482  0.3769  1.3966
 2681TIP3    H229679   1.707   2.800   5.799 -0.3471  0.2410  0.0101
 2682TIP3   OH229680   1.718   2.655   6.335  0.7363  0.0648  0.4730
 2682TIP3    H129681   1.693   2.585   6.275  1.1320 -0.3849  0.8252
 2682TIP3    H229682   1.638   2.705   6.349  0.6422  0.1753 -0.4309
 2683TIP3   OH229683   5.738   5.273   1.864  0.5448  0.0896  0.1167
 2683TIP3    H129684   5.762   5.194   1.816 -0.0538  0.2552 -0.4772
 2683TIP3    H229685   5.744   5.248   1.956 -0.6991 -0.9896 -0.0609
 2684TIP3   OH229686   2.327   5.335   8.723 -0.1528 -0.2531 -0.5077
 2684TIP3    H129687   2.274   5.302   8.795  1.5646 -1.0955  0.4358
 2684TIP3    H229688   2.366   5.415   8.756 -0.0687 -0.1551 -0.8371
 2685TIP3   OH229689   5.012   3.704   7.730  0.4802  0.5678 -0.6108
 2685TIP3    H129690   5.083   3.645   7.706  0.5504  0.7040 -0.7382
 2685TIP3    H229691   4.941   3.645   7.757  1.5630  0.4388  2.2907
 2686TIP3   OH229692   2.153   6.521   1.148 -0.5543  0.4902  0.0232
 2686TIP3    H129693   2.191   6.435   1.163  0.1547  0.1329 -3.1334
 2686TIP3    H229694   2.058   6.508   1.158 -0.5623 -0.9983 -1.5727
 2687TIP3   OH229695   5.874   4.876   8.542  0.4185  0.2876 -0.1525
 2687TIP3    H129696   5.811   4.818   8.500 -0.0570  1.4616 -1.1534
 2687TIP3    H229697   5.915   4.923   8.469  1.4403  0.5431  0.5672
 2688TIP3   OH229698   0.479   6.575   0.832 -0.2263  0.4246  0.1134
 2688TIP3    H129699   0.567   6.600   0.802  0.7673 -2.3807  0.3960
 2688TIP3    H229700   0.479   6.593   0.926  0.2886 -0.0981  0.2222
 2689TIP3   OH229701   3.084   2.783   7.839 -0.3391 -0.8406 -0.1071
 2689TIP3    H129702   3.039   2.866   7.858  0.0376 -0.5589 -0.4380
 2689TIP3    H229703   3.080   2.775   7.744 -0.5015 -1.2789 -0.0658
 2690TIP3   OH229704   3.465   0.220   1.631 -0.5494  0.4642 -0.1326
 2690TIP3    H129705   3.401   0.275   1.587 -0.8428  1.4568  1.4464
 2690TIP3    H229706   3.415   0.176   1.700 -0.1407 -1.1455 -0.8206
 2691TIP3   OH229707   5.480   3.934   0.959  0.0713  0.1049  0.0657
 2691TIP3    H129708   5.414   3.918   0.892 -0.7643  0.7521  0.7080
 2691TIP3    H229709   5.494   3.848   1.000  0.8754 -0.3723 -1.1662
 2692TIP3   OH229710   2.339   5.472   7.802  0.3945 -0.1906  0.1030
 2692TIP3    H129711   2.288   5.552   7.813  1.0213  0.0501  1.4385
 2692TIP3    H229712   2.393   5.489   7.725 -0.9370 -0.1451 -0.8491
 2693TIP3   OH229713   3.310   4.573   8.438 -0.0402  0.0944 -1.0767
 2693TIP3    H129714   3.253   4.564   8.515  1.2535  0.2432 -0.0508
 2693TIP3    H229715   3.348   4.486   8.426  0.1077  0.1846 -1.2640
 2694TIP3   OH229716   6.485   5.748   8.018 -0.1104  0.1402  0.2578
 2694TIP3    H129717   6.544   5.679   8.048  1.8663  0.2018 -3.0162
 2694TIP3    H229718   6.537   5.829   8.027  0.3488  0.2263 -2.4438
 2695TIP3   OH229719   3.410   3.855   7.910  0.0418 -0.2806 -0.1342
 2695TIP3    H129720   3.362   3.792   7.857 -0.0500 -0.7113  0.4505
 2695TIP3    H229721   3.349   3.878   7.980  0.9170 -1.3649  1.0163
 2696TIP3   OH229722   0.786   1.512   7.298  0.0308 -0.3188 -0.0800
 2696TIP3    H129723   0.692   1.522   7.284 -0.2274 -0.5076  1.3657
 2696TIP3    H229724   0.826   1.551   7.220 -1.2432 -1.1062 -1.1674
 2697TIP3   OH229725   5.712   3.342   0.700  0.5906  0.4133 -0.2421
 2697TIP3    H129726   5.653   3.375   0.632  0.6303 -1.9264 -1.4966
 2697TIP3    H229727   5.671   3.368   0.782 -3.0576 -2.2962 -0.9865
 2698TIP3   OH229728   4.797   4.964   1.315  0.2551 -0.1730  0.4329
 2698TIP3    H129729   4.886   4.987   1.288  0.2608  1.0581  1.4064
 2698TIP3    H229730   4.741   4.998   1.246  0.4506  0.2922  0.5042
 2699TIP3   OH229731   3.599   5.782   7.482  0.0951 -0.2984  0.0698
 2699TIP3    H129732   3.662   5.835   7.434 -0.0072 -0.9243 -0.7696
 2699TIP3    H229733   3.515   5.798   7.438  0.1355 -1.4718 -0.4694
 2700TIP3   OH229734   6.653   6.435   0.017  0.2079 -0.0499  0.1662
 2700TIP3    H129735   6.643   6.506   0.082  0.4500 -0.3026  0.4859
 2700TIP3    H229736   6.723   6.381   0.053  0.9563  0.2905 -0.7499
 2701TIP3   OH229737   4.214   0.239   1.923 -0.6548 -0.5141 -0.0898
 2701TIP3    H129738   4.238   0.225   2.015 -2.1192 -1.3350  0.2104
 2701TIP3    H229739   4.120   0.220   1.920 -0.6551 -0.4052 -1.7473
 2702TIP3   OH229740   6.862   3.738   1.049 -0.1244  0.7894  0.2943
 2702TIP3    H129741   6.838   3.648   1.027  0.5692  1.0908 -1.9901
 2702TIP3    H229742   6.835   3.749   1.140 -0.2390 -1.7115  0.6277
 2703TIP3   OH229743   4.132   3.719   6.647 -0.1808  0.1437  0.2262
 2703TIP3    H129744   4.184   3.718   6.567  0.4282  1.2068  0.5941
 2703TIP3    H229745   4.157   3.799   6.691  0.2760 -0.9440  2.0272
 2704TIP3   OH229746   5.386   4.816   0.211 -0.5549 -0.4215  0.0433
 2704TIP3    H129747   5.404   4.722   0.212  0.1308 -0.3013  1.0734
 2704TIP3    H229748   5.351   4.834   0.299  0.4647  0.4736  0.2852
 2705TIP3   OH229749   1.191   3.848   6.358  0.1106  0.1845  0.1320
 2705TIP3    H129750   1.194   3.842   6.263 -0.5054  3.1592 -0.1897
 2705TIP3    H229751   1.098   3.862   6.378  0.4223  1.1723  0.9852
 2706TIP3   OH229752   1.712   4.666   8.361 -0.0890  0.1744  0.7505
 2706TIP3    H129753   1.698   4.760   8.371 -4.0949  0.2283 -2.5425
 2706TIP3    H229754   1.670   4.627   8.437 -2.4531  1.0587 -0.0110
 2707TIP3   OH229755   4.073   5.505   1.237  0.3817  0.1997  0.0461
 2707TIP3    H129756   4.114   5.457   1.165  0.3624 -1.2554  0.9476
 2707TIP3    H229757   4.116   5.471   1.316 -0.9213  0.3155  0.8469
 2708TIP3   OH229758   2.957   0.985   7.615  0.3726 -0.1221  0.1776
 2708TIP3    H129759   2.921   0.925   7.681  1.9023 -1.1525  0.1370
 2708TIP3    H229760   2.893   1.056   7.610 -1.9648 -2.1259 -0.3790
 2709TIP3   OH229761   6.187   6.007   5.958 -0.1263 -0.2920 -0.3579
 2709TIP3    H129762   6.207   5.971   6.045  1.1254  0.2739 -0.3778
 2709TIP3    H229763   6.126   5.945   5.919  1.1537 -1.8449 -0.0024
 2710TIP3   OH229764   0.909   5.542   8.688  0.5913  0.2192  0.2928
 2710TIP3    H129765   0.836   5.518   8.630  0.5836 -2.2356  1.1902
 2710TIP3    H229766   0.986   5.502   8.648  1.2110  1.5348  0.1363
 2711TIP3   OH229767   5.700   1.190   6.404 -0.0278 -0.6891  0.0454
 2711TIP3    H129768   5.607   1.207   6.421  0.4523  2.1111  0.3989
 2711TIP3    H229769   5.725   1.256   6.339  1.6736 -1.5504 -0.2458
 2712TIP3   OH229770   1.018   4.599   1.947  0.1480  0.2491 -0.1865
 2712TIP3    H129771   0.938   4.644   1.973 -1.3721 -1.5269 -1.4952
 2712TIP3    H229772   1.033   4.534   2.017 -0.0703 -0.0137 -0.3828
 2713TIP3   OH229773   5.024   1.092   8.046  0.6917  0.3088  0.1507
 2713TIP3    H129774   5.067   1.137   7.973  0.4457  0.0183 -0.1709
 2713TIP3    H229775   5.091   1.033   8.081  0.8380  0.5136  0.2270
 2714TIP3   OH229776   4.475   5.359   1.742 -0.4642 -0.3603 -0.5135
 2714TIP3    H129777   4.487   5.295   1.812  1.1970 -0.4702 -0.8561
 2714TIP3    H229778   4.380   5.368   1.734 -0.6946 -0.6374  1.4623
 2715TIP3   OH229779   1.771   4.272   0.311 -0.7247 -0.3611 -0.1315
 2715TIP3    H129780   1.841   4.234   0.258  0.3207  1.2252  0.0328
 2715TIP3    H229781   1.707   4.201   0.322  0.5147 -1.6401 -0.8846
 2716TIP3   OH229782   4.777   0.750   7.629  0.0788 -0.1211 -0.1170
 2716TIP3    H129783   4.872   0.734   7.633  0.1098  0.1871  0.4374
 2716TIP3    H229784   4.739   0.676   7.676 -0.1358 -1.6645 -2.5105
 2717TIP3   OH229785   0.446   4.496   0.384  0.1259 -0.4279 -0.5124
 2717TIP3    H129786   0.500   4.486   0.463 -0.3292  0.2259 -0.1150
 2717TIP3    H229787   0.358   4.472   0.412 -0.1312  0.2865 -0.6943
 2718TIP3   OH229788   5.811   2.700   7.787  0.0280 -0.3076 -1.1198
 2718TIP3    H129789   5.807   2.716   7.693  0.3753  2.7403 -0.7349
 2718TIP3    H229790   5.863   2.773   7.821  1.0320 -2.0113  1.3320
 2719TIP3   OH229791   5.677   4.773   6.481 -0.2167 -0.0989  0.8171
 2719TIP3    H129792   5.618   4.815   6.544  1.5316  3.3521  0.4193
 2719TIP3    H229793   5.730   4.714   6.534 -2.1576 -1.1969  1.6209
 2720TIP3   OH229794   3.598   6.221   7.487 -0.2651  0.2756 -1.0054
 2720TIP3    H129795   3.632   6.174   7.411 -0.7086 -1.0831 -0.3944
 2720TIP3    H229796   3.514   6.179   7.505 -0.2074  0.6408  0.1861
 2721TIP3   OH229797   4.438   2.641   8.090  0.3868  0.8350  0.1710
 2721TIP3    H129798   4.448   2.682   8.176  0.8806  1.1880 -0.0535
 2721TIP3    H229799   4.487   2.559   8.097 -3.1280 -1.3741  1.6652
 2722TIP3   OH229800   4.996   4.094   2.071  0.4422  0.0357  0.6162
 2722TIP3    H129801   5.039   4.024   2.022 -1.3022 -1.0695  0.5745
 2722TIP3    H229802   5.015   4.074   2.163  1.3233  0.4821  0.5452
 2723TIP3   OH229803   3.513   3.034   7.101 -0.0018  0.0004  0.3352
 2723TIP3    H129804   3.604   3.010   7.117 -0.0842  0.5753  1.8021
 2723TIP3    H229805   3.517   3.122   7.065  0.0646 -0.4943 -0.9445
 2724TIP3   OH229806   2.026   5.279   5.962 -0.2956 -0.6039 -0.0777
 2724TIP3    H129807   2.094   5.242   6.019  0.5106 -1.4024 -1.4984
 2724TIP3    H229808   2.015   5.214   5.893 -0.7805  0.6056 -1.1760
 2725TIP3   OH229809   6.378   2.572   6.473 -0.3639 -0.3929 -0.1215
 2725TIP3    H129810   6.313   2.643   6.475 -0.8022 -0.6578 -2.2269
 2725TIP3    H229811   6.330   2.498   6.437  0.6126 -1.1898  0.1975
 2726TIP3   OH229812   2.786   0.954   0.159 -0.2222  0.3694 -0.0777
 2726TIP3    H129813   2.810   0.864   0.136 -0.9218 -0.1016  0.9776
 2726TIP3    H229814   2.821   0.967   0.247 -1.1723  0.7085  0.2596
 2727TIP3   OH229815   0.535   6.843   1.038 -0.0448  0.2158  0.6396
 2727TIP3    H129816   0.502   6.879   0.956 -0.9155 -1.7209  0.0798
 2727TIP3    H229817   0.619   6.887   1.052 -0.7301  1.9075 -0.3111
 2728TIP3   OH229818   1.019   1.418   1.265 -0.7452 -0.2380  0.0237
 2728TIP3    H129819   1.028   1.432   1.359 -2.3498 -0.1293  0.1857
 2728TIP3    H229820   1.068   1.338   1.247  0.4825  0.3294  0.7486
 2729TIP3   OH229821   0.529   2.258   0.295 -0.2595  0.3291  0.0480
 2729TIP3    H129822   0.455   2.319   0.295  0.7267  1.5972 -1.1720
 2729TIP3    H229823   0.511   2.198   0.222  0.6273  1.6110 -1.2713
 2730TIP3   OH229824   0.135   3.683   1.326  0.4893  0.2452  0.4745
 2730TIP3    H129825   0.169   3.662   1.413  0.3409 -2.5043 -0.0257
 2730TIP3    H229826   0.185   3.627   1.267  0.5905  2.0644 -1.2457
 2731TIP3   OH229827   5.477   0.175   7.872  0.0572 -0.2442 -0.4310
 2731TIP3    H129828   5.460   0.232   7.797  0.8996  0.6764  0.0723
 2731TIP3    H229829   5.413   0.104   7.862 -0.0072 -0.0123 -1.8797
 2732TIP3   OH229830   1.806   1.478   7.144  0.3444  0.4584 -0.0138
 2732TIP3    H129831   1.753   1.412   7.099  1.1705 -0.3790  0.2135
 2732TIP3    H229832   1.851   1.524   7.073  1.9439 -1.1134 -0.0872
 2733TIP3   OH229833   0.245   3.700   1.569 -0.1654 -0.1782 -0.0128
 2733TIP3    H129834   0.286   3.769   1.517 -1.0826  0.6929  0.4075
 2733TIP3    H229835   0.282   3.710   1.657 -0.1460 -0.3577  0.0000
 2734TIP3   OH229836   0.803   2.922   1.297 -0.7645  0.0128  0.0395
 2734TIP3    H129837   0.784   2.993   1.359  0.5395 -1.3595  2.1475
 2734TIP3    H229838   0.894   2.935   1.272 -0.4446 -0.9756  0.6088
 2735TIP3   OH229839   6.370   6.243   0.464 -0.0341 -0.4649 -0.2991
 2735TIP3    H129840   6.423   6.288   0.399 -1.1378  0.4831 -0.5877
 2735TIP3    H229841   6.282   6.280   0.453  0.1105  1.2483  3.0045
 2736TIP3   OH229842   1.991   2.880   5.895 -0.6990  0.5495 -0.2301
 2736TIP3    H129843   2.031   2.893   5.809  1.6919 -2.5369  0.2300
 2736TIP3    H229844   1.898   2.871   5.877 -0.1889 -0.7157 -2.6526
 2737TIP3   OH229845   3.486   0.701   2.002  0.3833 -0.2994  0.2067
 2737TIP3    H129846   3.445   0.644   2.067  0.8685 -1.1302 -0.1878
 2737TIP3    H229847   3.413   0.750   1.964 -0.4171 -2.2753 -1.0002
 2738TIP3   OH229848   4.491   3.201   1.168 -0.1852  0.2156 -0.2189
 2738TIP3    H129849   4.501   3.210   1.074 -2.2645  0.9954 -0.4230
 2738TIP3    H229850   4.485   3.290   1.201  2.0323  0.0174  0.9133
 2739TIP3   OH229851   5.505   3.582   1.842  0.3627  0.5246 -0.2525
 2739TIP3    H129852   5.450   3.505   1.829  2.0554 -0.4397 -2.3458
 2739TIP3    H229853   5.443   3.655   1.850 -1.2425 -0.8863  0.6629
 2740TIP3   OH229854   0.459   4.561   0.071 -0.2214 -0.5188  0.0168
 2740TIP3    H129855   0.485   4.619   0.142  0.1090  1.0632 -1.3539
 2740TIP3    H229856   0.493   4.475   0.097 -0.8189 -0.1797  2.1420
 2741TIP3   OH229857   0.029   3.625   1.728 -0.1905 -0.0139 -0.1803
 2741TIP3    H129858   0.084   3.640   1.650 -0.9350  1.3268 -0.4830
 2741TIP3    H229859   0.089   3.588   1.793  0.2064 -2.2476 -1.7205
 2742TIP3   OH229860   5.532   5.744   0.300  0.4956 -0.2781  0.1363
 2742TIP3    H129861   5.450   5.697   0.287 -0.1647  0.4128  1.6265
 2742TIP3    H229862   5.598   5.675   0.312 -0.0275 -0.8288 -0.1084
 2743TIP3   OH229863   3.695   4.325   7.388 -0.1649 -0.0734 -0.0491
 2743TIP3    H129864   3.619   4.327   7.330 -0.4256 -0.2194  0.2840
 2743TIP3    H229865   3.754   4.261   7.347 -1.3331 -1.9544  1.0336
 2744TIP3   OH229866   4.337   2.633   6.861  0.4630  0.0110 -0.2554
 2744TIP3    H129867   4.424   2.619   6.824  0.8165  1.5569 -0.0903
 2744TIP3    H229868   4.307   2.714   6.820 -1.2272 -0.8842 -0.8654
 2745TIP3   OH229869   2.004   5.400   6.299  0.2702  0.4130 -0.6740
 2745TIP3    H129870   1.983   5.474   6.244  2.5199 -0.3797 -2.7800
 2745TIP3    H229871   1.972   5.324   6.251 -0.4961 -0.1447  0.6456
 2746TIP3   OH229872   2.331   6.717   1.415  0.0245  0.7836 -0.4093
 2746TIP3    H129873   2.257   6.662   1.390  0.7834 -0.2335 -0.4970
 2746TIP3    H229874   2.403   6.656   1.427  0.5149  1.6067  1.0464
 2747TIP3   OH229875   5.703   2.330   7.641  0.5105  0.0373  0.3880
 2747TIP3    H129876   5.768   2.273   7.602 -0.6558 -1.3097  0.3458
 2747TIP3    H229877   5.680   2.392   7.571  1.2807  0.1461  0.2229
 2748TIP3   OH229878   0.767   5.538   0.570  0.0465 -0.1008 -0.0707
 2748TIP3    H129879   0.855   5.501   0.576  0.2080  0.4119  0.9674
 2748TIP3    H229880   0.780   5.633   0.574 -0.3055  0.1951 -3.3967
 2749TIP3   OH229881   6.436   4.780   7.194  0.3069  0.3124 -0.3738
 2749TIP3    H129882   6.458   4.709   7.255  1.3812  0.9396  0.0114
 2749TIP3    H229883   6.383   4.738   7.126 -1.3953 -0.3103  1.2443
 2750TIP3   OH229884   3.647   4.956   6.880  0.0585  0.4860  0.2080
 2750TIP3    H129885   3.641   4.957   6.784  2.0387  1.6688  0.0461
 2750TIP3    H229886   3.570   5.004   6.909  0.2727  1.5468 -0.8909
 2751TIP3   OH229887   5.079   2.598   6.373 -0.2346  0.1788 -0.2775
 2751TIP3    H129888   5.129   2.678   6.357 -1.9889  1.3868  0.0819
 2751TIP3    H229889   5.144   2.536   6.409  0.8129  2.0243  1.1796
 2752TIP3   OH229890   0.089   0.830   7.725 -0.5028  0.3059  0.5578
 2752TIP3    H129891   0.130   0.901   7.775  0.9641  1.0617 -1.5730
 2752TIP3    H229892   0.052   0.874   7.648 -2.2173 -0.8867  0.6468
 2753TIP3   OH229893   1.790   3.571   1.677  0.1333 -0.0961 -0.3026
 2753TIP3    H129894   1.718   3.595   1.618 -1.3687 -0.9704  1.0728
 2753TIP3    H229895   1.751   3.577   1.764  1.7592 -0.6227  0.4855
 2754TIP3   OH229896   6.068   1.947   7.219 -0.1779 -0.4757 -0.3115
 2754TIP3    H129897   6.113   1.877   7.267 -0.0912  0.5564  1.1812
 2754TIP3    H229898   6.118   1.955   7.137  2.7247  0.8823  1.4226
 2755TIP3   OH229899   2.363   5.820   1.075  0.1532 -0.4500 -0.5869
 2755TIP3    H129900   2.391   5.874   1.000  1.3174  0.0095  0.1402
 2755TIP3    H229901   2.329   5.740   1.036 -2.5812  1.1482 -1.7774
 2756TIP3   OH229902   3.408   4.410   6.329 -0.4677 -0.3115  0.1725
 2756TIP3    H129903   3.376   4.438   6.244 -1.4344 -1.5603  0.0794
 2756TIP3    H229904   3.408   4.314   6.324 -2.1491 -0.4929  2.0743
 2757TIP3   OH229905   4.229   2.831   0.128 -0.5593 -0.0724  0.4932
 2757TIP3    H129906   4.274   2.901   0.174 -2.3964  0.0211  2.2995
 2757TIP3    H229907   4.170   2.876   0.067 -1.1022 -0.0484  1.0259
 2758TIP3   OH229908   0.314   1.410   7.382 -0.3594 -0.4188 -0.1564
 2758TIP3    H129909   0.272   1.353   7.318  0.8044 -0.9350 -0.4865
 2758TIP3    H229910   0.391   1.361   7.411 -0.4457  0.1358  1.0700
 2759TIP3   OH229911   2.859   1.512   7.546 -0.5432  1.2201  0.1381
 2759TIP3    H129912   2.825   1.544   7.462  0.5440  1.7014 -0.1287
 2759TIP3    H229913   2.951   1.535   7.546 -0.0832 -0.4237  0.6757
 2760TIP3   OH229914   2.397   3.555   6.623 -0.5766 -0.2500 -0.1076
 2760TIP3    H129915   2.474   3.498   6.617 -0.4765 -0.2582  0.9891
 2760TIP3    H229916   2.434   3.642   6.641 -0.8287 -0.3378  0.8917
 2761TIP3   OH229917   3.347   3.513   8.020  0.0872 -0.2151 -0.0523
 2761TIP3    H129918   3.256   3.512   8.051  1.1838 -1.4390  3.6401
 2761TIP3    H229919   3.399   3.516   8.100  3.3597  0.7276 -2.0382
 2762TIP3   OH229920   4.651   0.455   1.157 -0.1536  0.2327  0.1385
 2762TIP3    H129921   4.582   0.520   1.161 -0.3120  0.0060  1.4267
 2762TIP3    H229922   4.730   0.504   1.137 -0.5831  0.5538 -0.8495
 2763TIP3   OH229923   3.724   4.200   0.703  0.1775  0.2915 -0.1831
 2763TIP3    H129924   3.648   4.166   0.656  0.6787 -0.2911 -0.5706
 2763TIP3    H229925   3.722   4.294   0.686 -0.9388  0.4078  0.5038
 2764TIP3   OH229926   6.514   1.587   0.927  0.0769  0.2926 -0.0116
 2764TIP3    H129927   6.453   1.593   0.853 -0.1064  2.9181  0.2754
 2764TIP3    H229928   6.460   1.597   1.005  0.6458  0.6646  0.3443
 2765TIP3   OH229929   6.639   5.421   7.185 -0.9182 -0.2314 -0.3307
 2765TIP3    H129930   6.732   5.419   7.163 -0.4019 -1.6973  1.6805
 2765TIP3    H229931   6.624   5.511   7.217  0.0705 -0.2502  0.2394
 2766TIP3   OH229932   1.200   4.412   7.496 -0.2619  0.0330 -0.1885
 2766TIP3    H129933   1.220   4.471   7.423  0.2349  0.9602  0.6721
 2766TIP3    H229934   1.127   4.359   7.464 -0.2045  0.5766 -1.2732
 2767TIP3   OH229935   6.500   0.332   7.826 -0.3251  0.1548  0.4386
 2767TIP3    H129936   6.518   0.425   7.832  0.4545  0.1592 -1.4719
 2767TIP3    H229937   6.421   0.325   7.773  0.0882 -0.2717 -0.1494
 2768TIP3   OH229938   1.636   2.500   8.175 -0.0715  0.6016  0.3036
 2768TIP3    H129939   1.586   2.581   8.179  0.0501  0.7789 -1.2409
 2768TIP3    H229940   1.624   2.469   8.085  0.7535 -0.5317  0.5645
 2769TIP3   OH229941   0.503   5.671   7.865  0.0931  0.1893 -0.6475
 2769TIP3    H129942   0.586   5.696   7.906  1.2292 -0.8742 -2.1983
 2769TIP3    H229943   0.513   5.578   7.844 -1.9920 -0.2941  0.2209
 2770TIP3   OH229944   4.735   1.102   0.517  0.1656  0.1195  0.4780
 2770TIP3    H129945   4.687   1.022   0.536  0.3836 -0.6529 -2.0001
 2770TIP3    H229946   4.787   1.118   0.597 -0.5983 -1.6432  1.3790
 2771TIP3   OH229947   5.301   5.106   1.107 -0.3869 -0.0422  0.1722
 2771TIP3    H129948   5.299   5.035   1.172 -0.3716  0.0136  0.2342
 2771TIP3    H229949   5.362   5.076   1.040  1.2480  0.8124  1.2353
 2772TIP3   OH229950   0.220   2.157   0.860  0.0215  0.4331  0.0985
 2772TIP3    H129951   0.302   2.115   0.831  1.7166  3.4546  0.1295
 2772TIP3    H229952   0.159   2.142   0.788  0.7895 -1.2513 -0.2549
 2773TIP3   OH229953   1.207   0.240   7.414 -0.4282 -0.2557  0.0730
 2773TIP3    H129954   1.283   0.299   7.408 -0.3374 -0.4143 -0.4044
 2773TIP3    H229955   1.131   0.298   7.404 -0.3413 -0.1999 -0.3035
 2774TIP3   OH229956   2.584   4.880   7.393 -0.1653 -0.0280 -0.2694
 2774TIP3    H129957   2.505   4.844   7.434 -0.7601  0.6559 -0.7765
 2774TIP3    H229958   2.649   4.881   7.463 -0.3063 -1.4928 -0.0840
 2775TIP3   OH229959   3.515   3.849   0.611  0.1574 -0.1952  0.1620
 2775TIP3    H129960   3.526   3.779   0.675 -0.2403 -2.1413 -1.7571
 2775TIP3    H229961   3.552   3.813   0.530 -1.0565  1.3899 -1.1677
 2776TIP3   OH229962   3.446   1.790   2.683 -0.2214 -0.0917  0.4305
 2776TIP3    H129963   3.456   1.867   2.740  0.5090  0.9258 -1.0135
 2776TIP3    H229964   3.377   1.815   2.621  0.3640 -0.4111 -0.3589
 2777TIP3   OH229965   4.565   1.704   6.544 -0.5128 -0.4974 -0.2676
 2777TIP3    H129966   4.589   1.662   6.462  1.2668 -1.9112  0.8760
 2777TIP3    H229967   4.496   1.649   6.580 -2.1216  0.7756 -1.2894
 2778TIP3   OH229968   0.205   3.271   0.940  0.0930  0.0832  0.0077
 2778TIP3    H129969   0.137   3.241   1.001 -2.1651  1.3106 -1.7195
 2778TIP3    H229970   0.239   3.351   0.980  1.0964 -0.9185  1.2357
 2779TIP3   OH229971   6.802   4.132   6.568 -0.5322 -0.1662 -0.0035
 2779TIP3    H129972   6.810   4.097   6.656 -1.5185  3.1154  1.5591
 2779TIP3    H229973   6.712   4.112   6.542 -0.1835 -1.2992 -0.3836
 2780TIP3   OH229974   1.731   1.365   1.531 -0.4238  0.3113 -0.0301
 2780TIP3    H129975   1.806   1.306   1.546  0.3002  1.1424 -0.2967
 2780TIP3    H229976   1.698   1.385   1.618  0.1493  0.5360  0.1457
 2781TIP3   OH229977   4.398   3.627   6.794 -0.2398 -0.1717 -0.5638
 2781TIP3    H129978   4.317   3.624   6.742 -0.7731  0.5748  0.1795
 2781TIP3    H229979   4.368   3.652   6.882  0.8805  0.8376 -0.4469
 2782TIP3   OH229980   5.506   4.045   0.246 -0.6190  0.2346  0.3847
 2782TIP3    H129981   5.430   3.994   0.273 -0.8396  1.0176  1.2976
 2782TIP3    H229982   5.532   4.006   0.163 -1.3361 -0.7604  0.6029
 2783TIP3   OH229983   2.108   1.932   0.610 -0.3422 -0.3123  0.7741
 2783TIP3    H129984   2.020   1.906   0.583  0.2028 -0.1986 -1.2363
 2783TIP3    H229985   2.166   1.879   0.555  0.8157  1.8440 -0.1814
 2784TIP3   OH229986   4.568   3.697   7.515  0.1359  0.8623 -0.6718
 2784TIP3    H129987   4.614   3.614   7.503  0.4210  1.0856 -1.1324
 2784TIP3    H229988   4.637   3.763   7.519 -0.1697  1.3079 -2.2685
 2785TIP3   OH229989   1.362   4.441   0.179  0.0580  0.1104 -0.0442
 2785TIP3    H129990   1.392   4.439   0.089 -0.2568 -0.5532 -0.1473
 2785TIP3    H229991   1.330   4.530   0.193 -0.1856  0.1284 -0.6903
 2786TIP3   OH229992   5.493   4.823   8.495 -0.0322 -0.4904  0.3171
 2786TIP3    H129993   5.421   4.848   8.437  0.4168  0.3984  0.1151
 2786TIP3    H229994   5.543   4.904   8.507  0.5487 -0.9372  0.9957
 2787TIP3   OH229995   3.550   1.045   7.607  0.4771 -0.2683 -0.0623
 2787TIP3    H129996   3.458   1.070   7.610 -0.0446 -1.9898 -0.5252
 2787TIP3    H229997   3.552   0.969   7.549  2.0257 -0.9361  0.8107
 2788TIP3   OH229998   6.054   1.891   7.775 -0.4252 -0.4449 -0.0823
 2788TIP3    H129999   5.962   1.871   7.792 -0.5428  1.6226  2.1327
 2788TIP3    H230000   6.097   1.885   7.860  0.8184  1.7429 -0.4761
 2789TIP3   OH230001   1.069   0.781   8.142  0.0787  0.4074  0.1345
 2789TIP3    H130002   1.041   0.782   8.050  1.4574  0.4802 -0.3123
 2789TIP3    H230003   1.054   0.691   8.171  0.2602  0.2149 -0.3656
 2790TIP3   OH230004   4.997   6.148   6.114  0.1778 -0.6440 -0.4183
 2790TIP3    H130005   4.907   6.115   6.110 -0.4841  0.4243  2.4941
 2790TIP3    H230006   5.049   6.073   6.142 -0.1392 -0.8652 -0.4132
 2791TIP3   OH230007   4.807   0.790   8.323  0.3034  0.1285  0.1590
 2791TIP3    H130008   4.767   0.775   8.236 -1.6884  0.5840  0.9314
 2791TIP3    H230009   4.779   0.714   8.374  2.7377 -0.9206  0.0588
 2792TIP3   OH230010   6.120   6.846   0.111  0.2784  0.0707  0.0705
 2792TIP3    H130011   6.083   6.924   0.152  1.3089  0.1234  0.9354
 2792TIP3    H230012   6.046   6.786   0.103 -0.2573  0.6428  0.5981
 2793TIP3   OH230013   3.383   0.542   1.282 -0.0043  0.1292  1.0551
 2793TIP3    H130014   3.329   0.546   1.203 -0.9460  1.4397  1.7225
 2793TIP3    H230015   3.423   0.455   1.280 -0.6733 -0.1680 -0.4225
 2794TIP3   OH230016   3.866   2.755   7.744  0.0673 -0.1735 -0.4249
 2794TIP3    H130017   3.908   2.779   7.661  0.7319  0.0503 -0.0323
 2794TIP3    H230018   3.928   2.783   7.811 -0.9660  0.6605  0.2040
 2795TIP3   OH230019   6.385   5.395   0.308  0.2550  0.1816 -0.0058
 2795TIP3    H130020   6.400   5.470   0.366 -0.4948  0.4015 -0.0956
 2795TIP3    H230021   6.318   5.424   0.247 -0.7668 -0.8934  0.5701
 2796TIP3   OH230022   6.527   3.459   1.234 -0.3087  0.0971  0.0715
 2796TIP3    H130023   6.555   3.375   1.197  1.6659  0.9298 -0.4617
 2796TIP3    H230024   6.551   3.453   1.326 -2.4393 -0.8222  0.6088
 2797TIP3   OH230025   0.360   2.954   0.976 -0.4474 -0.2268 -0.1662
 2797TIP3    H130026   0.435   2.894   0.985  0.8773  1.2684 -0.8643
 2797TIP3    H230027   0.395   3.039   1.001 -1.8889  0.5345 -0.6720
 2798TIP3   OH230028   1.474   4.789   7.896  0.0695 -0.0337 -0.3982
 2798TIP3    H130029   1.500   4.748   7.979  0.0709 -1.9305 -1.2817
 2798TIP3    H230030   1.384   4.817   7.911  0.0493 -0.4136  0.2442
 2799TIP3   OH230031   5.868   4.013   1.525  0.0523 -0.1468 -0.5014
 2799TIP3    H130032   5.818   4.073   1.469 -0.2976  1.1718  1.1384
 2799TIP3    H230033   5.802   3.968   1.577  0.4681  0.6141  0.7226
 2800TIP3   OH230034   6.294   5.638   7.566 -0.2427 -0.3331 -0.2574
 2800TIP3    H130035   6.243   5.558   7.576 -0.0361 -0.3031  1.1258
 2800TIP3    H230036   6.340   5.626   7.483  0.4561 -2.0374  0.3256
 2801TIP3   OH230037   4.799   4.698   8.665 -0.1651 -0.1389 -0.4172
 2801TIP3    H130038   4.877   4.702   8.610 -0.0943  0.4376 -0.2795
 2801TIP3    H230039   4.746   4.628   8.627  1.0336 -1.4974  0.3025
 2802TIP3   OH230040   1.642   1.108   1.856  0.0557 -0.0776 -0.1009
 2802TIP3    H130041   1.720   1.139   1.901 -0.2997  1.4175 -0.4636
 2802TIP3    H230042   1.651   1.013   1.855  2.8133  0.0915 -1.7891
 2803TIP3   OH230043   3.762   1.224   2.042  0.0739 -0.1710 -0.3522
 2803TIP3    H130044   3.698   1.295   2.033  1.0090  0.6638 -0.5351
 2803TIP3    H230045   3.804   1.218   1.956  0.7718 -0.1979 -0.0146
 2804TIP3   OH230046   1.919   3.581   8.044  0.2827  0.2427 -0.5733
 2804TIP3    H130047   1.959   3.570   8.131 -1.6547  1.3421  0.5234
 2804TIP3    H230048   1.974   3.529   7.986  2.2131  0.2438  1.1377
 2805TIP3   OH230049   1.349   3.456   7.279 -0.4437  0.2699 -0.1179
 2805TIP3    H130050   1.293   3.532   7.262 -2.8018 -0.7992  2.2483
 2805TIP3    H230051   1.389   3.474   7.364  0.3096 -0.4235 -0.3130
 2806TIP3   OH230052   6.151   4.879   0.554  0.1273  0.2732  0.2096
 2806TIP3    H130053   6.126   4.786   0.559  0.6954  0.1846  2.2012
 2806TIP3    H230054   6.126   4.914   0.640  2.1567  1.3767  0.3882
 2807TIP3   OH230055   3.916   2.435   2.053 -0.0637  0.3717  0.6569
 2807TIP3    H130056   4.009   2.457   2.058 -0.0898  0.3910  1.0948
 2807TIP3    H230057   3.883   2.450   2.142  0.1255 -2.4772  1.2982
 2808TIP3   OH230058   0.048   1.092   1.387 -0.4223 -0.0734  0.3132
 2808TIP3    H130059  -0.011   1.145   1.333 -0.3706 -0.2400  0.0946
 2808TIP3    H230060   0.127   1.145   1.396 -0.0516 -0.4514 -0.5872
 2809TIP3   OH230061   5.729   4.922   6.782 -0.4411  0.4343  0.1728
 2809TIP3    H130062   5.668   4.848   6.783 -1.2127  1.0631  0.3527
 2809TIP3    H230063   5.683   4.991   6.735 -0.1714  1.1785  0.9707
 2810TIP3   OH230064   1.459   1.395   1.035  0.2845  0.0707  0.1393
 2810TIP3    H130065   1.375   1.439   1.045  0.5358  0.6630 -0.3239
 2810TIP3    H230066   1.503   1.408   1.120  0.2102  0.4010  0.1289
 2811TIP3   OH230067   2.680   6.345   8.066  0.0486 -0.1821  0.8128
 2811TIP3    H130068   2.735   6.268   8.054 -0.7836 -0.9139  1.5697
 2811TIP3    H230069   2.688   6.367   8.159 -2.4952 -1.5612  1.4441
 2812TIP3   OH230070   2.222   3.054   7.626 -0.2347 -0.6067 -0.4585
 2812TIP3    H130071   2.242   3.090   7.713  0.7190 -1.3959 -0.3385
 2812TIP3    H230072   2.232   3.129   7.567  0.6441 -0.4147 -0.0764
 2813TIP3   OH230073   3.604   6.258   7.164 -0.3746  0.2638  0.3792
 2813TIP3    H130074   3.535   6.219   7.111 -2.2022  1.5277  1.7027
 2813TIP3    H230075   3.661   6.185   7.186 -1.0706 -0.7608 -1.0422
 2814TIP3   OH230076   6.462   0.463   7.561 -0.4222 -0.0030 -0.1763
 2814TIP3    H130077   6.488   0.542   7.608  0.1936 -1.0798  1.3799
 2814TIP3    H230078   6.544   0.426   7.529 -0.7330  0.1120 -1.1336
 2815TIP3   OH230079   1.614   4.136   0.030  0.6768  0.1671 -0.1100
 2815TIP3    H130080   1.668   4.212   0.008 -0.5345  2.1004  2.8944
 2815TIP3    H230081   1.610   4.085  -0.051  1.3116  3.4654 -2.4468
 2816TIP3   OH230082   6.789   2.253   1.739  0.2619  0.7272  0.2382
 2816TIP3    H130083   6.822   2.332   1.782 -2.1428  0.4670  2.8319
 2816TIP3    H230084   6.697   2.271   1.724  0.1279 -0.8562 -1.0266
 2817TIP3   OH230085   3.382   1.557   6.306 -0.3849  0.3855 -0.5068
 2817TIP3    H130086   3.369   1.462   6.308  0.4806  0.2626  0.2454
 2817TIP3    H230087   3.470   1.569   6.343  0.0151  1.3950 -1.7134
 2818TIP3   OH230088   2.945   5.710   7.388  0.5403  0.3550  0.1167
 2818TIP3    H130089   3.028   5.682   7.426  0.6961 -0.7238 -0.9387
 2818TIP3    H230090   2.968   5.742   7.301 -0.0416  0.9731  0.1754
 2819TIP3   OH230091   5.019   5.414   0.549  0.3181  0.3673  0.2423
 2819TIP3    H130092   5.000   5.321   0.551 -0.5079  0.5320  0.7837
 2819TIP3    H230093   5.112   5.420   0.528  0.0495 -0.5316 -1.3446
 2820TIP3   OH230094   1.199   4.837   7.504 -0.0674  0.7788 -0.6001
 2820TIP3    H130095   1.289   4.867   7.515  0.3070  0.0950 -1.5751
 2820TIP3    H230096   1.166   4.886   7.429 -0.3276  0.6670 -0.5607
 2821TIP3   OH230097   0.023   4.173   1.216 -0.6428 -0.1820 -0.3814
 2821TIP3    H130098   0.103   4.141   1.175 -1.0610  0.8795 -2.1246
 2821TIP3    H230099   0.013   4.119   1.294  1.5634 -0.5840 -0.3103
 2822TIP3   OH230100   5.067   1.051   8.741  0.3969  0.3593 -0.4480
 2822TIP3    H130101   5.029   1.110   8.675  0.5959 -0.2940 -1.1523
 2822TIP3    H230102   5.145   1.015   8.699  2.4562  2.4204  1.3047
 2823TIP3   OH230103   3.393   4.938   1.664 -0.2665 -0.6575  0.3362
 2823TIP3    H130104   3.443   4.859   1.644 -0.3113 -0.3189 -1.1971
 2823TIP3    H230105   3.302   4.911   1.656 -0.3042 -0.7259  0.9506
 2824TIP3   OH230106   4.986   4.583   5.885  0.3298 -0.0565 -0.0138
 2824TIP3    H130107   4.934   4.511   5.920  3.2733 -2.0730  0.5524
 2824TIP3    H230108   4.922   4.640   5.843 -2.4730 -1.4979  1.9896
 2825TIP3   OH230109   3.406   6.245   1.522  0.3495 -0.0866  0.3665
 2825TIP3    H130110   3.438   6.180   1.586  0.3333 -2.3215 -1.7357
 2825TIP3    H230111   3.328   6.283   1.563 -0.7869 -2.8254  0.9654
 2826TIP3   OH230112   3.143   2.311   8.100 -0.1039 -0.1735  1.0362
 2826TIP3    H130113   3.135   2.340   8.191  1.8548 -0.3126  1.2816
 2826TIP3    H230114   3.135   2.392   8.049  0.2687  0.1068  1.4154
 2827TIP3   OH230115   2.735   1.398   0.531 -0.1542 -0.3050 -0.4539
 2827TIP3    H130116   2.737   1.450   0.451  1.3554  2.1887  1.0846
 2827TIP3    H230117   2.656   1.427   0.576 -0.7944 -1.4217 -0.8273
 2828TIP3   OH230118   2.568   6.244   6.849  0.2799  0.3014  0.0206
 2828TIP3    H130119   2.610   6.221   6.766  2.5559  0.6161  1.0120
 2828TIP3    H230120   2.526   6.328   6.832 -0.4265 -0.2582 -1.1462
 2829TIP3   OH230121   1.648   4.388   6.256 -0.0070 -0.6935  0.4056
 2829TIP3    H130122   1.678   4.395   6.346  0.4849 -0.9227  0.2620
 2829TIP3    H230123   1.557   4.360   6.263 -0.0839 -0.3468  0.8357
 2830TIP3   OH230124   4.468   1.207   8.029 -0.2353 -0.2532  0.5124
 2830TIP3    H130125   4.402   1.241   7.969  0.9537 -1.5277 -1.6832
 2830TIP3    H230126   4.476   1.114   8.005 -0.0889 -0.9690  3.0699
 2831TIP3   OH230127   2.910   2.067   8.560 -0.0615  0.2004 -0.1754
 2831TIP3    H130128   2.947   1.994   8.511  2.5666  0.4560  1.2551
 2831TIP3    H230129   2.962   2.072   8.640 -0.5781  3.2158  0.1009
 2832TIP3   OH230130   6.559   1.616   1.236  0.1099 -0.3591  0.2362
 2832TIP3    H130131   6.581   1.702   1.273 -2.9180  1.6235 -2.0118
 2832TIP3    H230132   6.628   1.599   1.172  0.8108  0.3123  0.7923
 2833TIP3   OH230133   5.874   1.971   1.346 -0.7734 -0.5443  0.0531
 2833TIP3    H130134   5.780   1.985   1.358 -0.2218  2.5597  1.9525
 2833TIP3    H230135   5.909   1.963   1.435  0.8693 -0.6253 -0.5641
 2834TIP3   OH230136   6.869   0.088   0.430  0.1134  0.2307 -0.0416
 2834TIP3    H130137   6.912   0.008   0.460 -0.8954  0.5039  2.3245
 2834TIP3    H230138   6.779   0.061   0.412 -0.5187  0.9519  1.7712
 2835TIP3   OH230139   3.541   3.302   6.767 -0.4781 -0.4377 -0.0017
 2835TIP3    H130140   3.629   3.294   6.803 -0.6148  2.5133  1.2118
 2835TIP3    H230141   3.499   3.371   6.818 -3.1698 -1.0036 -1.2329
 2836TIP3   OH230142   3.563   1.735   1.331 -0.1419  0.2687  1.2491
 2836TIP3    H130143   3.488   1.794   1.322  0.1494  0.6043  1.0162
 2836TIP3    H230144   3.565   1.688   1.247  0.1323  0.5267  1.1088
 2837TIP3   OH230145   6.687   6.213   8.043  0.0857 -0.2917  0.4743
 2837TIP3    H130146   6.667   6.303   8.020  2.3654  0.5373  1.4006
 2837TIP3    H230147   6.730   6.177   7.965  1.4789  0.2947  0.9259
 2838TIP3   OH230148   1.470   5.858   5.945  0.2349 -0.0553 -0.0144
 2838TIP3    H130149   1.435   5.935   5.990 -1.1383 -0.6994  0.0954
 2838TIP3    H230150   1.564   5.862   5.958  0.1053  1.1845  0.6586
 2839TIP3   OH230151   6.788   1.872   6.638  0.0801 -0.1326 -0.0966
 2839TIP3    H130152   6.778   1.856   6.544  0.7877 -0.4292 -0.1256
 2839TIP3    H230153   6.789   1.967   6.646 -1.1201 -0.0907 -0.2572
 2840TIP3   OH230154   5.819   2.076   8.463 -0.0433 -0.1251 -0.0687
 2840TIP3    H130155   5.841   2.163   8.496 -1.7627 -0.3742  1.9458
 2840TIP3    H230156   5.898   2.024   8.477  0.6588  0.8479 -0.3297
 2841TIP3   OH230157   6.192   4.175   1.041 -1.0631 -0.1846  0.7514
 2841TIP3    H130158   6.215   4.267   1.032  0.9230 -0.6012  0.9512
 2841TIP3    H230159   6.125   4.160   0.974 -1.2914  1.3426  0.5983
 2842TIP3   OH230160   2.866   6.487   6.545 -0.4103 -0.1041  0.6438
 2842TIP3    H130161   2.872   6.492   6.450  0.3902  0.1019  0.6927
 2842TIP3    H230162   2.882   6.395   6.565  2.0795  0.2730  0.7064
 2843TIP3   OH230163   1.401   0.715   8.651 -0.0071 -0.0402 -0.1721
 2843TIP3    H130164   1.401   0.628   8.612  0.8508 -0.6473  1.1555
 2843TIP3    H230165   1.390   0.701   8.745  1.8834  1.1567  0.2837
 2844TIP3   OH230166   5.050   6.602   0.249 -0.2985 -0.3434 -0.8000
 2844TIP3    H130167   5.111   6.671   0.222  0.7676 -0.7357  0.5051
 2844TIP3    H230168   5.067   6.590   0.342 -2.4131 -0.4667 -0.3749
 2845TIP3   OH230169   0.960   2.943   7.288 -0.3219 -0.1462  0.0546
 2845TIP3    H130170   0.888   2.988   7.245 -0.7833 -0.3506  0.6007
 2845TIP3    H230171   1.036   2.962   7.233 -0.7102  0.4029 -0.3091
 2846TIP3   OH230172   5.211   3.199   7.959 -0.3066  0.1931  0.0201
 2846TIP3    H130173   5.125   3.175   7.993  0.5433 -1.8686  0.8688
 2846TIP3    H230174   5.209   3.171   7.868 -0.4911  0.0337  0.0724
 2847TIP3   OH230175   3.189   3.835   8.057 -0.1166 -0.7093  0.1757
 2847TIP3    H130176   3.131   3.760   8.045 -0.1406 -0.6204 -0.3020
 2847TIP3    H230177   3.151   3.903   8.001  0.9760 -0.9541 -0.8985
 2848TIP3   OH230178   5.784   4.642   0.706  0.5264 -0.1044  0.5024
 2848TIP3    H130179   5.773   4.548   0.686 -3.9211  0.2592  0.0952
 2848TIP3    H230180   5.778   4.647   0.801 -1.8673 -0.1843  0.4289
 2849TIP3   OH230181   2.549   5.430   6.550  0.5339 -0.1758  0.4105
 2849TIP3    H130182   2.455   5.436   6.562  0.4727 -0.0440 -0.0982
 2849TIP3    H230183   2.586   5.450   6.636  0.1600  1.9380  0.1469
 2850TIP3   OH230184   3.687   0.717   2.274  0.1237 -0.5032  0.0643
 2850TIP3    H130185   3.618   0.651   2.268  0.3636 -0.7815  0.3445
 2850TIP3    H230186   3.646   0.790   2.320 -0.2148 -0.3591 -0.4597
 2851TIP3   OH230187   5.482   3.486   7.992 -0.2233  0.0714  0.0228
 2851TIP3    H130188   5.449   3.552   7.931 -0.3749 -0.2309 -0.2261
 2851TIP3    H230189   5.466   3.523   8.079  1.9029  1.4689 -0.0923
 2852TIP3   OH230190   4.481   6.280   1.086  0.2531 -0.9741 -0.1534
 2852TIP3    H130191   4.564   6.306   1.046  0.1188 -0.1494  0.0919
 2852TIP3    H230192   4.503   6.202   1.137  0.9627 -0.5505  0.2052
 2853TIP3   OH230193   0.378   5.638   7.129 -0.3864  0.1410  0.5668
 2853TIP3    H130194   0.346   5.573   7.192 -0.9705 -0.3823 -0.2397
 2853TIP3    H230195   0.437   5.588   7.072  1.9544  1.0799  2.0156
 2854TIP3   OH230196   0.140   5.441   1.020 -0.4286  0.9438 -0.2668
 2854TIP3    H130197   0.109   5.510   1.078 -0.1373 -0.0266  1.0979
 2854TIP3    H230198   0.085   5.365   1.042  0.5311  0.2038 -0.3548
 2855TIP3   OH230199   1.957   4.396   1.242 -0.2778 -0.1906  0.3625
 2855TIP3    H130200   1.947   4.364   1.332 -0.0038  0.1876  0.5332
 2855TIP3    H230201   1.879   4.449   1.226 -1.4328 -2.0166 -0.4097
 2856TIP3   OH230202   5.336   3.835   8.500  0.1548  0.1405  0.5647
 2856TIP3    H130203   5.365   3.745   8.517  1.3556  0.4181  0.0930
 2856TIP3    H230204   5.330   3.874   8.587 -2.2718 -0.9056  0.9536
 2857TIP3   OH230205   4.775   0.238   6.605  0.5519 -0.5127 -0.3754
 2857TIP3    H130206   4.812   0.165   6.654  0.1196  0.1780  1.0492
 2857TIP3    H230207   4.749   0.302   6.672 -1.5466 -0.2005 -1.3856
 2858TIP3   OH230208   2.798   0.867   0.756  0.1035 -0.1256 -0.2583
 2858TIP3    H130209   2.718   0.820   0.732  0.4577 -0.7887 -0.1540
 2858TIP3    H230210   2.868   0.821   0.711  0.4119  0.5900 -0.5300
 2859TIP3   OH230211   6.690   3.321   0.873 -0.4237 -0.4759  0.5820
 2859TIP3    H130212   6.671   3.227   0.870 -1.0909 -0.3648  1.2148
 2859TIP3    H230213   6.705   3.340   0.965  0.6184 -0.1263  0.3540
 2860TIP3   OH230214   2.250   3.686   2.198  0.0703  0.3876  0.6550
 2860TIP3    H130215   2.334   3.645   2.215  0.5436 -1.0311 -3.7178
 2860TIP3    H230216   2.206   3.626   2.137 -1.9746  3.3455 -1.0820
 2861TIP3   OH230217   1.025   0.118   1.705  0.0129  0.9948 -0.4353
 2861TIP3    H130218   0.938   0.145   1.675  1.0017  2.1392 -2.4126
 2861TIP3    H230219   1.084   0.185   1.672  1.6689  0.2424  0.8853
 2862TIP3   OH230220   4.349   4.416   1.919 -0.1233 -0.0834  0.9715
 2862TIP3    H130221   4.412   4.481   1.887 -0.9615  0.7107  0.9323
 2862TIP3    H230222   4.324   4.447   2.006 -1.5473  0.3903  0.4139
 2863TIP3   OH230223   0.020   0.247   7.353  0.0255 -0.5643  0.5649
 2863TIP3    H130224   0.029   0.267   7.446 -0.3235  1.0709  0.2756
 2863TIP3    H230225  -0.022   0.161   7.352 -1.5125  0.1018  1.9531
 2864TIP3   OH230226   1.215   3.476   0.530 -0.2015 -0.2925 -0.6347
 2864TIP3    H130227   1.205   3.402   0.470  0.5318 -0.3049 -0.7502
 2864TIP3    H230228   1.204   3.437   0.617 -0.7896 -0.3577 -0.7295
 2865TIP3   OH230229   2.564   1.551   7.749 -0.3752 -0.0113 -0.0446
 2865TIP3    H130230   2.528   1.542   7.660 -3.1191 -0.4135  1.0261
 2865TIP3    H230231   2.488   1.548   7.806  1.3839 -0.4306  2.4100
 2866TIP3   OH230232   0.133   5.173   7.144  0.2717  0.5952  0.5906
 2866TIP3    H130233   0.211   5.125   7.117 -0.2693  0.3219 -0.5378
 2866TIP3    H230234   0.096   5.121   7.214 -0.4809 -0.8527 -0.8224
 2867TIP3   OH230235   4.070   2.013   7.705 -0.2521  0.3991 -0.3334
 2867TIP3    H130236   3.996   1.953   7.714 -0.0150 -0.2908 -2.4742
 2867TIP3    H230237   4.129   1.970   7.643  0.5655  2.2384 -0.9091
 2868TIP3   OH230238   4.490   5.512   7.439  0.3968 -0.7730  0.1621
 2868TIP3    H130239   4.505   5.537   7.348 -0.6319 -0.1471  0.1509
 2868TIP3    H230240   4.491   5.416   7.438  1.1814 -0.7696 -0.3631
 2869TIP3   OH230241   4.842   4.425   8.566 -0.1628 -0.4573  0.1541
 2869TIP3    H130242   4.806   4.359   8.506  0.7055  0.2261 -1.1681
 2869TIP3    H230243   4.937   4.411   8.562 -0.0909 -0.4758  1.4956
 2870TIP3   OH230244   4.105   6.688   7.010  0.1822 -0.0218 -0.0146
 2870TIP3    H130245   4.040   6.638   6.961  0.3120 -0.3368  0.1352
 2870TIP3    H230246   4.104   6.650   7.098  1.8952 -1.3071 -0.4929
 2871TIP3   OH230247   4.410   4.708   6.350  0.1540 -0.2344 -0.0678
 2871TIP3    H130248   4.458   4.646   6.294  0.2900 -1.0727  0.9587
 2871TIP3    H230249   4.328   4.723   6.304  0.4233 -0.6080 -0.6882
 2872TIP3   OH230250   3.098   0.139   7.215  0.1927 -0.6414  0.2068
 2872TIP3    H130251   3.190   0.163   7.203 -0.3719  2.7479  1.3687
 2872TIP3    H230252   3.091   0.116   7.308 -0.5042  1.9362  0.8920
 2873TIP3   OH230253   2.245   3.524   0.152  0.1206  0.6893  0.0814
 2873TIP3    H130254   2.187   3.595   0.183 -0.2768  0.2712  0.3102
 2873TIP3    H230255   2.252   3.465   0.227  0.6040  0.5813 -0.0490
 2874TIP3   OH230256   3.062   0.004   7.855 -0.0577  0.3639 -0.3633
 2874TIP3    H130257   3.070   0.091   7.817 -0.0776  0.3470 -0.4061
 2874TIP3    H230258   3.045   0.020   7.948  1.6106  0.4105 -0.0308
 2875TIP3   OH230259   4.464   3.695   7.796 -0.1492 -0.2849 -0.4532
 2875TIP3    H130260   4.483   3.660   7.709  0.1689 -0.4226 -0.3309
 2875TIP3    H230261   4.376   3.664   7.815  0.0009 -0.7507 -0.4859
 2876TIP3   OH230262   0.628   6.612   7.480 -0.1987 -0.3702 -0.1604
 2876TIP3    H130263   0.613   6.518   7.476  2.6728 -1.0748  2.0089
 2876TIP3    H230264   0.542   6.650   7.496 -1.1913 -2.8213  0.7893
 2877TIP3   OH230265   3.175   3.134   7.856  0.3899 -0.4656  0.6326
 2877TIP3    H130266   3.210   3.058   7.902  0.2117  0.1171  1.7831
 2877TIP3    H230267   3.236   3.150   7.784  1.3981 -0.6581  1.4208
 2878TIP3   OH230268   3.676   5.485   7.466  1.0793 -0.5854  0.3671
 2878TIP3    H130269   3.671   5.581   7.472  0.3212 -0.6035  0.0746
 2878TIP3    H230270   3.703   5.458   7.554  0.7583 -0.1380  0.6115
 2879TIP3   OH230271   1.802   0.596   0.460 -0.2950 -0.3024  0.0376
 2879TIP3    H130272   1.735   0.541   0.420 -0.2816 -0.3016  0.0138
 2879TIP3    H230273   1.829   0.655   0.390 -0.2620 -0.3097  0.0439
 2880TIP3   OH230274   1.387   4.831   8.525 -0.2150  0.5933 -0.3060
 2880TIP3    H130275   1.349   4.763   8.580  0.3178  1.3648  1.0472
 2880TIP3    H230276   1.326   4.838   8.451 -2.8787  1.9246  1.8491
 2881TIP3   OH230277   5.607   5.083   6.580 -0.0210 -0.6268  0.3268
 2881TIP3    H130278   5.551   5.152   6.546 -0.2259 -0.0418  1.7970
 2881TIP3    H230279   5.677   5.075   6.515  0.3403  1.3722  0.4081
 2882TIP3   OH230280   1.923   4.719   6.827  0.6514 -0.2793 -0.5196
 2882TIP3    H130281   1.943   4.650   6.763  0.3779 -0.1796 -0.7120
 2882TIP3    H230282   2.007   4.764   6.840  0.7507 -0.4194 -0.6640
 2883TIP3   OH230283   2.701   4.996   6.085 -0.3411  0.2171 -0.0025
 2883TIP3    H130284   2.695   5.085   6.119 -1.0370 -0.6248  2.2632
 2883TIP3    H230285   2.627   4.989   6.025 -2.4423  0.2214  2.3819
 2884TIP3   OH230286   4.947   4.355   7.495 -0.2798 -0.1381  0.0760
 2884TIP3    H130287   4.876   4.404   7.537 -0.5689  0.0998 -0.6789
 2884TIP3    H230288   5.026   4.382   7.542 -0.8662 -1.7479  2.1395
 2885TIP3   OH230289   4.507   2.289   8.386  0.0160 -0.2392  0.2626
 2885TIP3    H130290   4.429   2.248   8.349 -1.9096  1.6676  1.9176
 2885TIP3    H230291   4.522   2.242   8.468  0.8748 -0.8530 -0.2362
 2886TIP3   OH230292   2.219   2.856   8.415 -0.6820 -0.0283  0.1739
 2886TIP3    H130293   2.219   2.916   8.341 -0.0102 -0.8910 -0.5434
 2886TIP3    H230294   2.259   2.906   8.486  0.0359  0.3189 -0.4615
 2887TIP3   OH230295   4.602   0.813   0.854  0.0871 -0.0609 -0.2399
 2887TIP3    H130296   4.518   0.857   0.841 -1.3014 -1.7825  2.0974
 2887TIP3    H230297   4.647   0.865   0.921 -0.1002 -0.3640  0.1227
 2888TIP3   OH230298   4.751   1.565   1.536 -0.2412 -0.2811 -0.3197
 2888TIP3    H130299   4.833   1.525   1.506 -0.5922 -1.8064  0.5933
 2888TIP3    H230300   4.711   1.497   1.590 -1.9840  0.5464 -0.5211
 2889TIP3   OH230301   4.947   0.344   7.523  0.1297  0.2144  0.0606
 2889TIP3    H130302   4.857   0.364   7.495 -0.4785 -2.4350 -0.1124
 2889TIP3    H230303   4.949   0.367   7.616 -0.5068  0.9229 -0.0886
 2890TIP3   OH230304   3.703   3.254   2.026  0.0373 -0.7254 -0.2174
 2890TIP3    H130305   3.778   3.204   1.992  0.4332 -1.0470  1.0885
 2890TIP3    H230306   3.741   3.338   2.053  0.1603 -1.2775  1.4354
 2891TIP3   OH230307   0.062   2.433   7.448 -0.1065  0.6544  0.4657
 2891TIP3    H130308   0.041   2.495   7.518  0.0488  1.0826  0.1399
 2891TIP3    H230309   0.059   2.486   7.368 -3.5703 -0.4291 -0.3057
 2892TIP3   OH230310   0.778   1.342   8.354 -0.3584 -0.0243 -0.6845
 2892TIP3    H130311   0.767   1.328   8.260 -3.5797 -2.1641 -0.1601
 2892TIP3    H230312   0.856   1.291   8.377 -0.1153 -0.3115 -2.0344
 2893TIP3   OH230313   3.254   6.375   0.282  0.2690  0.3779 -0.2644
 2893TIP3    H130314   3.302   6.458   0.292  0.2216  0.3664  0.0655
 2893TIP3    H230315   3.315   6.318   0.236 -0.1151  0.9526 -1.5106
 2894TIP3   OH230316   1.259   2.292   6.874  0.3564  0.1305  0.1588
 2894TIP3    H130317   1.264   2.344   6.794 -1.0251 -0.6748 -0.4887
 2894TIP3    H230318   1.176   2.245   6.867  0.9995 -1.2604  1.2588
 2895TIP3   OH230319   0.245   4.306   0.108 -0.3217 -0.3164 -0.0987
 2895TIP3    H130320   0.152   4.329   0.121 -0.2345 -0.0797  0.1251
 2895TIP3    H230321   0.277   4.291   0.197 -0.4639 -1.6728 -0.2536
 2896TIP3   OH230322   1.558   3.211   7.445 -0.2547  0.2121  0.3681
 2896TIP3    H130323   1.472   3.214   7.489 -0.9885  2.4186 -1.0674
 2896TIP3    H230324   1.575   3.302   7.420  1.2660 -0.5830 -1.7165
 2897TIP3   OH230325   0.110   2.836   0.956 -0.2256 -0.4329  0.0067
 2897TIP3    H130326   0.090   2.852   0.864 -0.5907  0.4457  0.2290
 2897TIP3    H230327   0.196   2.877   0.970  0.0691 -1.0181 -0.0641
 2898TIP3   OH230328   5.051   2.669   0.714 -0.2379  0.3984 -0.4898
 2898TIP3    H130329   5.006   2.714   0.784 -0.6794  1.3105 -1.3383
 2898TIP3    H230330   5.084   2.739   0.657  2.3768 -0.1878  0.1394
 2899TIP3   OH230331   1.547   5.781   7.629  0.1415  0.4157  0.1763
 2899TIP3    H130332   1.618   5.811   7.572 -0.2715  1.4144  0.1482
 2899TIP3    H230333   1.549   5.686   7.623  0.9832  0.4604 -0.4254
 2900TIP3   OH230334   4.088   2.339   2.315 -0.0323  0.0031  0.0800
 2900TIP3    H130335   4.084   2.418   2.369  1.1760  0.4718 -0.4984
 2900TIP3    H230336   4.015   2.286   2.347 -0.5155  1.0909  0.8733
 2901TIP3   OH230337   2.180   2.133   2.132  0.8520 -0.3012  0.1174
 2901TIP3    H130338   2.136   2.113   2.049  1.3965 -1.6460  0.1281
 2901TIP3    H230339   2.126   2.089   2.198 -0.0478  1.4423  0.6079
 2902TIP3   OH230340   5.724   2.356   7.254 -0.5851  0.6325  0.2078
 2902TIP3    H130341   5.689   2.270   7.278  0.9995  0.8215  3.7614
 2902TIP3    H230342   5.735   2.351   7.159 -3.5228 -1.8679 -0.1654
 2903TIP3   OH230343   1.919   2.488   8.175 -0.1253  0.0939  0.2142
 2903TIP3    H130344   1.827   2.475   8.195 -0.0984 -0.7241 -0.1654
 2903TIP3    H230345   1.942   2.569   8.221 -0.1601 -1.4279  3.2285
 2904TIP3   OH230346   6.352   2.281   0.437 -0.0791  0.7504  0.6690
 2904TIP3    H130347   6.342   2.205   0.494 -0.3882 -0.9370 -1.5249
 2904TIP3    H230348   6.442   2.310   0.450  0.3547 -0.6173  0.8193
 2905TIP3   OH230349   1.028   6.073   0.767 -0.1408  0.3828 -0.2298
 2905TIP3    H130350   1.053   6.057   0.858 -0.2582  0.3923 -0.1956
 2905TIP3    H230351   0.963   6.005   0.749  0.4781 -0.1353 -0.5594
 2906TIP3   OH230352   4.880   4.753   1.664 -0.3739 -0.2399  0.3385
 2906TIP3    H130353   4.859   4.712   1.748  0.7981  1.5743  1.5784
 2906TIP3    H230354   4.957   4.706   1.633 -0.6089 -0.6955  0.4408
 2907TIP3   OH230355   4.224   1.197   1.515  0.6183  0.2555 -0.1085
 2907TIP3    H130356   4.157   1.265   1.509  0.1534 -0.3079 -1.6401
 2907TIP3    H230357   4.303   1.237   1.479  0.8314  0.5491  0.6577
 2908TIP3   OH230358   2.463   2.084   7.993 -0.9361 -0.2998 -0.3839
 2908TIP3    H130359   2.392   2.148   7.983 -1.5509 -0.0406  3.8331
 2908TIP3    H230360   2.534   2.133   8.033  1.6440 -0.7032 -4.0240
 2909TIP3   OH230361   3.753   3.099   7.901 -0.4541 -0.5308 -0.1099
 2909TIP3    H130362   3.764   3.049   7.820  1.2116 -1.6238  0.7494
 2909TIP3    H230363   3.713   3.182   7.872 -1.3119 -1.4894 -1.8284
 2910TIP3   OH230364   3.721   4.794   7.878  0.6766  0.0494 -0.0453
 2910TIP3    H130365   3.653   4.728   7.891 -0.4418  1.5178  2.1745
 2910TIP3    H230366   3.761   4.804   7.964  3.2217 -0.1875 -1.1316
 2911TIP3   OH230367   5.196   1.677   1.700 -0.3206 -0.0387 -0.4153
 2911TIP3    H130368   5.285   1.687   1.735 -0.5888  1.1214 -0.0120
 2911TIP3    H230369   5.196   1.591   1.658  0.9258 -0.1501 -0.2248
 2912TIP3   OH230370   1.911   2.416   0.693 -0.5177  0.3119  0.3639
 2912TIP3    H130371   1.882   2.505   0.674 -0.6097  0.2744  0.3287
 2912TIP3    H230372   1.912   2.372   0.608 -1.8306 -0.1249  0.5531
 2913TIP3   OH230373   3.246   4.780   1.113  0.9288 -0.3607 -0.1597
 2913TIP3    H130374   3.165   4.778   1.062  0.6032 -0.2700  0.3463
 2913TIP3    H230375   3.218   4.761   1.202  1.1992  1.4707  0.3585
 2914TIP3   OH230376   2.536   0.513   7.118 -0.4665 -0.6075  0.3454
 2914TIP3    H130377   2.527   0.424   7.153  1.8417 -0.5538  1.2407
 2914TIP3    H230378   2.580   0.562   7.187 -0.4963  0.8991 -0.6537
 2915TIP3   OH230379   5.101   3.760   8.371 -0.1612 -0.2986  0.2609
 2915TIP3    H130380   5.062   3.702   8.436 -1.8578  0.2969 -0.1707
 2915TIP3    H230381   5.173   3.802   8.417 -0.0817 -1.3505  1.1401
 2916TIP3   OH230382   5.369   6.259   7.737  0.0656 -0.1593  0.1686
 2916TIP3    H130383   5.332   6.179   7.699 -1.4522  0.1284  0.9833
 2916TIP3    H230384   5.392   6.236   7.826  2.3791 -0.4551 -0.4325
 2917TIP3   OH230385   1.442   6.840   6.868 -0.5619 -0.0515 -0.4655
 2917TIP3    H130386   1.462   6.764   6.813 -0.2178  1.1158 -2.0033
 2917TIP3    H230387   1.493   6.825   6.948  0.8849 -0.6189 -1.4444
 2918TIP3   OH230388   3.410   5.425   7.038 -0.2330  0.9393 -0.5912
 2918TIP3    H130389   3.329   5.458   7.078 -0.3283 -0.0879  0.1082
 2918TIP3    H230390   3.480   5.469   7.085 -0.3723  2.3842 -1.6881
 2919TIP3   OH230391   1.204   5.803   6.464 -0.0797  0.1044  0.6074
 2919TIP3    H130392   1.135   5.823   6.527 -0.6290  0.8099 -0.2037
 2919TIP3    H230393   1.163   5.816   6.379  0.3346 -1.9054  0.0608
 2920TIP3   OH230394   0.460   5.052   7.374  0.3724 -0.5675  0.3582
 2920TIP3    H130395   0.396   4.984   7.395 -0.3874 -0.3934 -1.2355
 2920TIP3    H230396   0.458   5.058   7.278  3.8378 -1.5495  0.0877
 2921TIP3   OH230397   2.116   1.698   7.293  0.2472 -0.0950  0.5471
 2921TIP3    H130398   2.044   1.738   7.244  0.4785 -0.6096 -0.2235
 2921TIP3    H230399   2.192   1.753   7.274  0.2744 -0.1298  0.5539
 2922TIP3   OH230400   4.631   4.856   0.968  0.4195 -0.1353 -0.2007
 2922TIP3    H130401   4.565   4.909   1.012  0.6342 -0.4089  0.4533
 2922TIP3    H230402   4.580   4.792   0.918  0.1787 -0.0117 -0.1158
 2923TIP3   OH230403   1.685   3.136   7.843 -0.1086 -0.0040 -0.4817
 2923TIP3    H130404   1.650   3.134   7.754 -0.4564 -1.5138 -0.3223
 2923TIP3    H230405   1.614   3.171   7.896  0.2467  1.3220 -0.8314
 2924TIP3   OH230406   2.912   4.635   8.510 -0.0271 -0.1475 -0.7976
 2924TIP3    H130407   2.873   4.559   8.467  0.2530 -0.2383 -0.8904
 2924TIP3    H230408   2.885   4.709   8.456  0.7751 -0.3152 -1.4503
 2925TIP3   OH230409   0.020   4.392   6.231  0.5831  0.2971 -0.2858
 2925TIP3    H130410   0.075   4.419   6.157 -0.8432 -0.4479 -1.6861
 2925TIP3    H230411  -0.065   4.433   6.213  0.0456 -0.3985  0.6270
 2926TIP3   OH230412   3.069   2.544   0.793  0.6427 -0.0556 -0.3722
 2926TIP3    H130413   2.996   2.605   0.806  1.4545  0.9487 -0.4199
 2926TIP3    H230414   3.133   2.593   0.741  1.8607 -0.5049  0.6433
 2927TIP3   OH230415   5.423   0.477   0.661 -0.5634  0.1918 -0.4047
 2927TIP3    H130416   5.405   0.570   0.672  0.8610  0.6273 -1.4305
 2927TIP3    H230417   5.337   0.436   0.654 -1.2444  1.2594  1.1693
 2928TIP3   OH230418   0.311   5.743   1.293  0.2214  0.4393  0.2395
 2928TIP3    H130419   0.240   5.758   1.231  0.4860 -0.2344 -0.2469
 2928TIP3    H230420   0.331   5.829   1.329 -0.8021  0.6365  0.3419
 2929TIP3   OH230421   6.725   3.623   1.354 -0.1216 -0.4884  0.1001
 2929TIP3    H130422   6.805   3.675   1.345 -0.4543  0.4178  1.8831
 2929TIP3    H230423   6.658   3.675   1.309  0.4367 -1.8403 -2.5030
 2930TIP3   OH230424   6.382   1.570   8.743 -0.8362 -0.2234 -0.3348
 2930TIP3    H130425   6.295   1.608   8.757 -0.3024  0.8804  0.0416
 2930TIP3    H230426   6.422   1.625   8.676  0.3231  0.5245  0.9396
 2931TIP3   OH230427   0.007   4.248   7.637  0.3809 -0.1986  0.0530
 2931TIP3    H130428  -0.060   4.302   7.680  0.6345 -0.3082  0.5963
 2931TIP3    H230429   0.086   4.262   7.689  0.9335  0.3562 -0.9076
 2932TIP3   OH230430   6.193   0.787   1.080  0.1158  0.3274 -0.1510
 2932TIP3    H130431   6.231   0.720   1.136  0.5632  0.9507  0.3093
 2932TIP3    H230432   6.132   0.740   1.024  1.2861 -0.6397 -0.6531
 2933TIP3   OH230433   5.597   3.981   6.725 -0.0213  0.7166  0.5128
 2933TIP3    H130434   5.582   3.985   6.819  1.1394 -0.4746  0.7727
 2933TIP3    H230435   5.637   3.895   6.710  0.6202  1.2266 -0.9421
 2934TIP3   OH230436   0.036   1.581   2.050 -0.2644  0.2018 -0.5540
 2934TIP3    H130437   0.094   1.520   2.004 -0.3414  1.0093 -1.7484
 2934TIP3    H230438   0.095   1.647   2.087 -0.2811  0.0702 -0.2920
 2935TIP3   OH230439   5.349   5.019   2.442  0.1359 -0.2664 -0.4084
 2935TIP3    H130440   5.263   5.010   2.399  0.6916  0.3073 -1.7002
 2935TIP3    H230441   5.339   5.096   2.498  0.3014  0.9250 -1.9286
 2936TIP3   OH230442   3.873   3.958   0.087  0.0903 -0.3604  0.3877
 2936TIP3    H130443   3.828   3.874   0.100 -0.8670 -0.0969 -1.0513
 2936TIP3    H230444   3.875   3.997   0.174  0.6579 -1.8979  1.1171
 2937TIP3   OH230445   2.671   5.841   5.938  0.4411  0.3842 -0.2593
 2937TIP3    H130446   2.644   5.922   5.894 -0.3058 -0.2692 -1.0175
 2937TIP3    H230447   2.722   5.794   5.873  0.9241  0.2575  0.1993
 2938TIP3   OH230448   1.941   5.448   6.953  0.5047 -0.1426  0.1255
 2938TIP3    H130449   1.890   5.427   6.875 -0.9777 -1.0206  1.2643
 2938TIP3    H230450   2.007   5.379   6.957  0.3843 -0.2781 -0.1730
 2939TIP3   OH230451   2.976   6.704   0.701 -0.6976 -0.2064  0.1487
 2939TIP3    H130452   2.895   6.721   0.749 -0.3108  1.0619  0.3933
 2939TIP3    H230453   3.043   6.695   0.769 -0.2667  0.8996 -0.1138
 2940TIP3   OH230454   3.154   3.873   6.839  0.3620 -0.2782 -0.1173
 2940TIP3    H130455   3.183   3.960   6.868  0.8055 -1.0254  1.8344
 2940TIP3    H230456   3.213   3.812   6.884 -1.4338 -1.6744  0.4494
 2941TIP3   OH230457   1.084   4.428   8.340  0.0937  0.2423 -0.4714
 2941TIP3    H130458   1.024   4.406   8.411 -0.1623  0.4682 -0.6170
 2941TIP3    H230459   1.042   4.500   8.295 -0.5386 -0.9470 -1.8535
 2942TIP3   OH230460   4.210   4.037   0.888 -0.0401  0.6798  0.5876
 2942TIP3    H130461   4.213   4.080   0.973 -1.2491  1.1092  0.4280
 2942TIP3    H230462   4.117   4.031   0.867  0.0471 -2.0074  0.5938
 2943TIP3   OH230463   4.582   4.892   6.514 -0.1148  0.5942  0.5119
 2943TIP3    H130464   4.492   4.887   6.483  0.4548 -1.0983 -1.0343
 2943TIP3    H230465   4.594   4.811   6.564  1.0762 -0.1699 -0.9339
 2944TIP3   OH230466   4.514   5.369   0.819  0.6347  0.2707  0.0155
 2944TIP3    H130467   4.590   5.324   0.857  0.0011 -0.5812  0.3026
 2944TIP3    H230468   4.550   5.421   0.748  1.3450 -1.0224 -0.6017
 2945TIP3   OH230469   1.243   2.158   7.729  0.0718 -0.1720  0.0221
 2945TIP3    H130470   1.188   2.163   7.807 -1.2592 -0.3863 -0.8650
 2945TIP3    H230471   1.203   2.220   7.667 -0.1865 -1.5362 -1.2368
 2946TIP3   OH230472   6.025   2.549   1.355 -0.1940 -0.0981  0.4310
 2946TIP3    H130473   6.040   2.511   1.441 -0.6654 -1.1261  0.0828
 2946TIP3    H230474   5.931   2.537   1.340 -0.0290 -0.4072 -0.4276
 2947TIP3   OH230475   1.071   3.361   8.350  0.7032 -0.1458  0.0035
 2947TIP3    H130476   1.107   3.443   8.318  1.9971 -0.6309  0.1825
 2947TIP3    H230477   1.048   3.312   8.271 -0.3351  0.4726 -0.1034
 2948TIP3   OH230478   0.556   2.162   8.227 -0.1757  0.3203  0.4696
 2948TIP3    H130479   0.509   2.230   8.275  2.2983  0.9238  2.2099
 2948TIP3    H230480   0.617   2.125   8.290  0.8395 -1.2629 -1.3256
 2949TIP3   OH230481   4.656   5.647   0.372 -0.6931  0.1919 -0.2354
 2949TIP3    H130482   4.648   5.587   0.298 -0.1152  1.4220 -1.3287
 2949TIP3    H230483   4.751   5.656   0.385 -0.7832  0.3656  0.3402
 2950TIP3   OH230484   0.823   3.039   6.401 -0.2931 -0.2533 -0.1621
 2950TIP3    H130485   0.732   3.067   6.417 -0.1789  0.0373 -0.0130
 2950TIP3    H230486   0.818   2.988   6.320 -0.2102  1.8130 -1.5338
 2951TIP3   OH230487   5.657   2.559   1.961  0.1871 -0.0186  0.6212
 2951TIP3    H130488   5.562   2.571   1.960  0.1192 -0.5160 -0.6380
 2951TIP3    H230489   5.692   2.648   1.964 -0.3121  0.1830  0.6051
 2952TIP3   OH230490   3.516   4.717   8.038 -0.0313 -0.4541 -0.1711
 2952TIP3    H130491   3.447   4.776   8.068 -1.5241 -2.1897 -0.0061
 2952TIP3    H230492   3.532   4.659   8.113  0.0430 -1.4389 -0.9313
 2953TIP3   OH230493   1.851   4.144   7.572  0.4768 -0.6730  0.1102
 2953TIP3    H130494   1.931   4.196   7.584  0.4595 -0.8516  1.0512
 2953TIP3    H230495   1.829   4.156   7.479  0.7276  0.6379  0.1949
 2954TIP3   OH230496   0.661   5.083   7.094  0.1968 -0.7813  0.0191
 2954TIP3    H130497   0.737   5.061   7.040  0.7276 -1.1526  0.8937
 2954TIP3    H230498   0.658   5.178   7.094  0.1563 -0.7804 -0.7063
 2955TIP3   OH230499   3.165   5.979   6.617 -0.6935 -0.1558  0.5778
 2955TIP3    H130500   3.170   5.960   6.523  1.6842 -0.6724  0.7400
 2955TIP3    H230501   3.127   6.066   6.622 -1.2404 -0.2786 -0.8234
 2956TIP3   OH230502   2.523   2.478   8.537 -0.8671 -0.3402 -0.5821
 2956TIP3    H130503   2.532   2.412   8.468  0.0981 -0.7983 -0.0505
 2956TIP3    H230504   2.602   2.532   8.528 -1.2803  0.2815 -0.5278
 2957TIP3   OH230505   4.479   3.696   8.205  0.3666 -0.2446 -0.1745
 2957TIP3    H130506   4.565   3.657   8.221  0.7490  1.3344  2.0583
 2957TIP3    H230507   4.417   3.635   8.245  0.4175 -1.3091 -1.6510
 2958TIP3   OH230508   2.014   1.558   8.254 -0.2346 -0.6540  0.5503
 2958TIP3    H130509   2.065   1.595   8.182 -2.2014  0.5143 -0.3119
 2958TIP3    H230510   2.079   1.539   8.322  2.2283 -4.4987 -2.4231
 2959TIP3   OH230511   5.084   2.733   7.796 -0.3986 -1.0200  0.6230
 2959TIP3    H130512   5.170   2.703   7.824  1.0437  1.8578 -0.2799
 2959TIP3    H230513   5.085   2.726   7.700 -0.4767  0.5683  0.4807
 2960TIP3   OH230514   5.595   3.472   0.920 -0.2442 -0.0689  0.1364
 2960TIP3    H130515   5.538   3.536   0.878 -0.0475 -0.6592 -1.0843
 2960TIP3    H230516   5.631   3.518   0.996 -1.1575  0.8046  0.0656
 2961TIP3   OH230517   6.806   5.862   0.138  0.1202 -0.8054  0.3827
 2961TIP3    H130518   6.849   5.916   0.071  1.6362 -0.3522  1.6685
 2961TIP3    H230519   6.864   5.787   0.149 -1.0787 -1.8482 -0.1026
 2962TIP3   OH230520   5.190   4.541   0.249 -0.1947  0.2418 -0.5804
 2962TIP3    H130521   5.190   4.486   0.171 -2.3366 -0.6069 -0.0578
 2962TIP3    H230522   5.126   4.610   0.231  2.3096  2.6217 -1.1558
 2963TIP3   OH230523   6.542   0.994   0.046  0.0632 -0.4680  0.6482
 2963TIP3    H130524   6.623   1.045   0.044  0.9347 -1.8256 -0.2938
 2963TIP3    H230525   6.509   1.005   0.136  2.2043 -1.2556  1.5814
 2964TIP3   OH230526   4.180   0.851   7.409 -0.1171  0.2739 -0.2305
 2964TIP3    H130527   4.088   0.827   7.401 -0.2632  0.7250  0.0537
 2964TIP3    H230528   4.196   0.852   7.503  0.5783 -1.2577 -0.2963
 2965TIP3   OH230529   5.017   0.371   6.846 -0.5163  0.6203 -0.1397
 2965TIP3    H130530   5.006   0.412   6.760 -1.8145  0.7708  0.0724
 2965TIP3    H230531   4.937   0.395   6.894 -0.4020 -0.5370  0.6599
 2966TIP3   OH230532   3.539   1.904   7.578  0.1741  0.1401 -0.3260
 2966TIP3    H130533   3.446   1.902   7.603 -0.0114  0.2132 -0.9752
 2966TIP3    H230534   3.573   1.819   7.606 -0.2161 -0.0929 -0.5454
 2967TIP3   OH230535   4.971   3.706   8.642  0.3401  0.1365  0.1118
 2967TIP3    H130536   4.943   3.695   8.733  1.1442  0.9796  0.4786
 2967TIP3    H230537   5.035   3.777   8.645  3.9271 -2.8057 -0.3754
 2968TIP3   OH230538   2.731   5.164   0.389  0.2415  0.2842 -0.3902
 2968TIP3    H130539   2.814   5.147   0.344  1.7954 -0.9671  2.6982
 2968TIP3    H230540   2.702   5.078   0.420 -0.4043  1.1219  1.4677
 2969TIP3   OH230541   1.152   1.172   7.830 -0.4836  0.4224 -0.0325
 2969TIP3    H130542   1.061   1.171   7.859  0.1544 -1.2600  2.1751
 2969TIP3    H230543   1.150   1.135   7.742 -1.9158  0.3719 -0.0016
 2970TIP3   OH230544   3.840   1.668   7.074  0.4339 -0.6400  0.3448
 2970TIP3    H130545   3.816   1.635   6.987  0.3646  0.6295 -0.1418
 2970TIP3    H230546   3.784   1.620   7.134  0.3488 -1.4098 -0.3328
 2971TIP3   OH230547   1.130   5.072   1.011  0.3466  0.4802 -0.2715
 2971TIP3    H130548   1.145   5.006   0.944  0.5283  0.7757 -0.5279
 2971TIP3    H230549   1.154   5.155   0.968  1.4981  0.5602  0.4916
 2972TIP3   OH230550   3.484   2.752   1.020 -0.0580  0.3355  0.6010
 2972TIP3    H130551   3.549   2.778   0.955  1.1739  2.2689  2.4740
 2972TIP3    H230552   3.402   2.790   0.989  0.6415  1.7789  0.4475
 2973TIP3   OH230553   1.354   3.730   7.437 -0.0434  0.0027 -0.1103
 2973TIP3    H130554   1.302   3.792   7.489 -1.0588 -2.6628  2.3053
 2973TIP3    H230555   1.444   3.741   7.469 -0.2738  0.0087  0.5465
 2974TIP3   OH230556   6.135   1.035   7.902  0.6214 -0.1552  0.4079
 2974TIP3    H130557   6.164   1.104   7.842  0.0569 -0.7720 -0.6074
 2974TIP3    H230558   6.216   0.998   7.937  0.9515  0.3219  0.1573
 2975TIP3   OH230559   2.250   1.956   6.758 -0.2821  0.1939 -0.2703
 2975TIP3    H130560   2.237   1.939   6.852  0.8328 -1.0060 -0.2969
 2975TIP3    H230561   2.173   1.916   6.717 -0.2102 -0.3141  0.0663
 2976TIP3   OH230562   6.819   6.182   8.282  0.2691 -0.2949 -0.0469
 2976TIP3    H130563   6.774   6.221   8.356  0.1452 -1.1664  0.3446
 2976TIP3    H230564   6.770   6.213   8.205  0.0457  0.1341  0.2617
 2977TIP3   OH230565   0.568   2.885   6.786 -0.1932  0.3509 -0.3974
 2977TIP3    H130566   0.566   2.950   6.715 -1.3951  0.0910 -0.6205
 2977TIP3    H230567   0.480   2.847   6.787 -0.1754  0.2563  1.1526
 2978TIP3   OH230568   2.695   5.426   0.582 -0.5437 -0.3120 -0.0901
 2978TIP3    H130569   2.714   5.333   0.570 -1.3011 -0.4382 -0.3844
 2978TIP3    H230570   2.599   5.431   0.584 -0.5098  0.2899  1.3350
 2979TIP3   OH230571   0.461   4.263   6.366  0.0498  0.0533 -0.3477
 2979TIP3    H130572   0.542   4.298   6.328  0.6631 -0.5690  0.3559
 2979TIP3    H230573   0.477   4.265   6.460  0.2140 -2.3775 -0.2847
 2980TIP3   OH230574   0.487   1.823   7.488 -0.2963 -0.1076 -0.5401
 2980TIP3    H130575   0.471   1.877   7.411 -1.0579  0.8874  0.2872
 2980TIP3    H230576   0.460   1.878   7.562  3.4010  0.2591  0.7351
 2981TIP3   OH230577   3.437   2.620   8.038 -0.0823  0.1950 -0.5709
 2981TIP3    H130578   3.490   2.654   7.967 -0.9656  0.0988 -1.2835
 2981TIP3    H230579   3.417   2.530   8.013 -1.5448  0.5842 -0.8740
 2982TIP3   OH230580   5.919   4.470   6.390 -0.3737 -0.1236  0.8242
 2982TIP3    H130581   5.949   4.395   6.338  1.2021  1.1527 -0.1866
 2982TIP3    H230582   5.855   4.514   6.333  0.3907  0.5469  0.4651
 2983TIP3   OH230583   5.155   1.131   7.434  0.1063 -0.3790  0.6061
 2983TIP3    H130584   5.226   1.187   7.466  1.2008  0.2789 -2.5893
 2983TIP3    H230585   5.184   1.042   7.454  2.2510 -0.1723 -1.1363
 2984TIP3   OH230586   5.667   1.136   7.447  0.2814  0.1733  0.1436
 2984TIP3    H130587   5.645   1.229   7.439  0.6647  0.1060 -2.2651
 2984TIP3    H230588   5.762   1.135   7.460  0.4298  0.1098 -0.8740
 2985TIP3   OH230589   5.139   2.081   0.071 -0.0867 -0.2706 -0.1661
 2985TIP3    H130590   5.127   2.152   0.134  0.6946 -0.7146  0.5138
 2985TIP3    H230591   5.090   2.008   0.109  0.1793 -0.4643 -0.1924
 2986TIP3   OH230592   3.528   1.884   8.593  0.2735 -0.2155  0.1723
 2986TIP3    H130593   3.612   1.928   8.605 -0.1654  0.4054  1.0541
 2986TIP3    H230594   3.529   1.813   8.658  0.4523 -0.7410 -0.3898
 2987TIP3   OH230595   5.906   3.205   0.285 -0.4269 -0.4105 -0.2041
 2987TIP3    H130596   5.947   3.279   0.328  0.5822 -0.7811 -0.4992
 2987TIP3    H230597   5.924   3.131   0.342  0.1786 -0.7523 -0.8203
 2988TIP3   OH230598   0.982   1.051   6.422 -0.3523 -0.2910 -0.1084
 2988TIP3    H130599   0.942   1.046   6.336 -0.0590  0.8738 -0.3383
 2988TIP3    H230600   0.986   0.960   6.453 -3.7930 -0.4349  0.2646
 2989TIP3   OH230601   0.009   3.156   1.105 -0.9472  0.0813  0.0555
 2989TIP3    H130602  -0.084   3.166   1.126 -1.1503 -2.4734  0.7985
 2989TIP3    H230603   0.054   3.170   1.188 -0.7279  0.7108 -0.1707
 2990TIP3   OH230604   5.123   4.732   6.879  0.4255  0.3207  0.5052
 2990TIP3    H130605   5.062   4.763   6.812 -1.8328 -2.1308  1.2465
 2990TIP3    H230606   5.165   4.811   6.911 -1.2529  1.9952 -1.1366
 2991TIP3   OH230607   6.412   2.916   8.072 -0.3214  0.4870  0.1471
 2991TIP3    H130608   6.393   3.002   8.111  1.0927  1.1416 -0.5098
 2991TIP3    H230609   6.450   2.865   8.143 -0.5251  0.6424  0.3697
 2992TIP3   OH230610   5.422   2.247   7.715 -0.3038 -0.0870  0.2140
 2992TIP3    H130611   5.379   2.178   7.767 -0.4093  0.5813  1.0308
 2992TIP3    H230612   5.515   2.226   7.720 -0.4491 -1.2102 -1.0806
 2993TIP3   OH230613   1.704   5.021   1.210  0.3902  0.3756 -0.3114
 2993TIP3    H130614   1.627   5.076   1.229 -0.2509 -0.5021 -0.3238
 2993TIP3    H230615   1.777   5.070   1.248 -0.5268 -0.1245  2.3431
 2994TIP3   OH230616   3.736   0.851   8.576  0.3164 -0.4141  0.0519
 2994TIP3    H130617   3.655   0.802   8.592 -0.3488  0.9012  0.8196
 2994TIP3    H230618   3.768   0.874   8.663  0.8733  0.1137 -0.2873
 2995TIP3   OH230619   4.848   6.451   7.758  0.2901  1.1745  0.0278
 2995TIP3    H130620   4.864   6.379   7.818  2.4240  1.0119 -0.6404
 2995TIP3    H230621   4.812   6.410   7.679 -0.0224  1.0532  0.2330
 2996TIP3   OH230622   1.696   5.531   7.633 -0.1738  0.3626 -0.3563
 2996TIP3    H130623   1.750   5.578   7.697 -0.9997 -0.1315  0.7220
 2996TIP3    H230624   1.757   5.469   7.591  0.3621  0.6645 -0.0370
 2997TIP3   OH230625   3.947   1.152   6.442  0.4136  0.3306 -0.1591
 2997TIP3    H130626   4.033   1.184   6.468  0.1428 -0.3544  1.7538
 2997TIP3    H230627   3.891   1.230   6.442  0.8619  0.6569 -0.6601
 2998TIP3   OH230628   0.799   2.283   0.047  0.5887  0.4251 -0.2716
 2998TIP3    H130629   0.861   2.341   0.003  2.2692 -1.1186 -0.0633
 2998TIP3    H230630   0.854   2.222   0.096 -1.0944 -1.3632 -0.4998
 2999TIP3   OH230631   1.382   0.271   1.115 -0.1681 -0.2662  0.9452
 2999TIP3    H130632   1.331   0.318   1.049  0.7882 -0.7591 -0.1837
 2999TIP3    H230633   1.434   0.339   1.158  0.9462 -0.2071 -0.4358
 3000TIP3   OH230634   3.839   6.492   6.477  0.6102  0.0235 -0.0967
 3000TIP3    H130635   3.929   6.524   6.475 -0.1181  2.5611 -4.0595
 3000TIP3    H230636   3.793   6.546   6.412 -3.3564 -2.3934  0.3669
 3001TIP3   OH230637   3.001   3.010   0.937 -0.3275 -0.2865 -0.0214
 3001TIP3    H130638   3.008   2.932   0.991 -0.2328  1.3012  2.4338
 3001TIP3    H230639   2.907   3.023   0.924 -0.3502 -0.6632 -0.2634
 3002TIP3   OH230640   3.682   5.697   8.170 -0.2130  0.1470  0.0671
 3002TIP3    H130641   3.657   5.790   8.170  1.1508  0.5523 -0.8168
 3002TIP3    H230642   3.776   5.699   8.188  0.1671 -0.9459 -1.6154
 3003TIP3   OH230643   0.028   1.278   0.788  0.3811 -0.0528 -0.1121
 3003TIP3    H130644   0.055   1.357   0.835 -0.3327 -0.5634  1.2183
 3003TIP3    H230645   0.008   1.215   0.857 -0.7390 -0.8342 -1.1007
 3004TIP3   OH230646   4.849   3.193   0.388 -0.0682 -0.1663 -0.4594
 3004TIP3    H130647   4.795   3.260   0.347 -2.0662 -1.1169  0.4661
 3004TIP3    H230648   4.897   3.238   0.458  0.8541  0.8064 -1.6805
 3005TIP3   OH230649   6.001   0.609   7.731  0.3152  0.3694  0.1576
 3005TIP3    H130650   5.917   0.656   7.731  0.2802  0.3564  1.4535
 3005TIP3    H230651   5.986   0.534   7.674 -1.2200 -0.7241  1.8913
 3006TIP3   OH230652   6.734   0.669   7.697  0.3203 -0.0800 -0.1104
 3006TIP3    H130653   6.674   0.674   7.771 -0.2752  0.6879 -0.6377
 3006TIP3    H230654   6.810   0.720   7.724  0.1919  0.0232  0.0566
 3007TIP3   OH230655   1.605   1.795   7.361  0.6767  0.1122  0.2790
 3007TIP3    H130656   1.572   1.715   7.322 -0.1144  0.7956 -0.4904
 3007TIP3    H230657   1.528   1.849   7.375  1.3564  1.5343 -1.0712
 3008TIP3   OH230658   0.833   4.939   7.982 -0.5006 -0.2531 -0.4160
 3008TIP3    H130659   0.827   5.025   8.023 -1.7489 -1.0265  1.1508
 3008TIP3    H230660   0.833   4.957   7.888  0.7236  1.5049 -0.1350
 3009TIP3   OH230661   5.711   3.602   1.663  0.5360 -0.9247  0.2210
 3009TIP3    H130662   5.636   3.573   1.715 -1.8692  0.4187 -2.2255
 3009TIP3    H230663   5.724   3.693   1.689  1.5664 -1.2397  0.8494
 3010TIP3   OH230664   3.610   3.342   8.467 -0.6979 -0.1483  0.0669
 3010TIP3    H130665   3.625   3.304   8.553 -0.0909  1.2275  0.5906
 3010TIP3    H230666   3.648   3.278   8.406 -0.2604 -0.6729  0.8641
 3011TIP3   OH230667   2.899   2.878   7.467 -0.2694  0.2976  0.1505
 3011TIP3    H130668   2.865   2.788   7.468 -0.6388  0.4334  0.5985
 3011TIP3    H230669   2.836   2.927   7.520  0.7666  0.5081  1.2254
 3012TIP3   OH230670   5.694   3.908   8.255  0.3531 -0.4947 -0.3118
 3012TIP3    H130671   5.767   3.918   8.193  0.8532 -2.0879 -0.0473
 3012TIP3    H230672   5.648   3.992   8.253  1.8733  0.3617 -0.9043
 3013TIP3   OH230673   2.791   6.834   1.133 -0.1006  0.3762 -0.1302
 3013TIP3    H130674   2.748   6.857   1.215 -0.9571 -2.1191  0.1991
 3013TIP3    H230675   2.883   6.820   1.156 -0.2757 -0.0031  0.3294
 3014TIP3   OH230676   0.914   1.457   0.699  0.5843  0.3080 -1.0514
 3014TIP3    H130677   0.960   1.510   0.633  2.5277 -0.9134 -0.7682
 3014TIP3    H230678   0.984   1.408   0.742 -0.6164  0.9822  1.8972
 3015TIP3   OH230679   0.417   2.260   7.266  0.0612  0.0155 -0.1154
 3015TIP3    H130680   0.389   2.267   7.175  2.8777  0.0859 -1.0665
 3015TIP3    H230681   0.440   2.349   7.292  3.5201 -0.5007 -0.9308
 3016TIP3   OH230682   6.039   2.669   0.392 -0.4442  0.0101 -0.2952
 3016TIP3    H130683   5.987   2.697   0.468  1.5285  1.3339  0.6200
 3016TIP3    H230684   6.094   2.598   0.426  1.2190  1.3239 -0.1618
 3017TIP3   OH230685   6.692   1.174   8.343 -0.1839  0.1425 -0.1507
 3017TIP3    H130686   6.741   1.092   8.345 -1.5210 -0.7321 -1.4752
 3017TIP3    H230687   6.692   1.204   8.434  1.8317 -0.3758  0.0730
 3018TIP3   OH230688   4.942   1.337   8.160  0.0178 -0.1387 -0.3808
 3018TIP3    H130689   4.983   1.267   8.109  0.5117  0.2059 -0.4630
 3018TIP3    H230690   4.853   1.342   8.126  0.6171  0.7619 -1.9144
 3019TIP3   OH230691   4.831   5.503   7.607 -0.2167 -0.2794 -0.5348
 3019TIP3    H130692   4.801   5.454   7.684  0.2631 -0.3323 -0.3817
 3019TIP3    H230693   4.769   5.576   7.599 -0.6516 -0.6378 -0.4821
 3020TIP3   OH230694   3.929   6.739   1.072 -0.0590 -0.8736 -0.3753
 3020TIP3    H130695   3.957   6.741   0.981 -0.0293 -0.0084 -0.3562
 3020TIP3    H230696   4.005   6.707   1.121  0.4294  0.0950 -0.4864
 3021TIP3   OH230697   2.775   5.103   6.403 -0.7582 -0.1714  0.3363
 3021TIP3    H130698   2.730   5.149   6.332  1.2392  0.2767 -0.7324
 3021TIP3    H230699   2.821   5.031   6.359 -0.4928 -0.6476  1.3693
 3022TIP3   OH230700   4.268   0.677   6.703 -0.8436 -0.6491  0.2771
 3022TIP3    H130701   4.248   0.763   6.668  1.9983  0.0440  0.1205
 3022TIP3    H230702   4.291   0.624   6.627 -0.2605 -0.8227  0.5650
 3023TIP3   OH230703   0.895   4.439   0.877 -0.1301  0.1408  0.0933
 3023TIP3    H130704   0.919   4.411   0.966 -0.4714 -0.9497 -0.1480
 3023TIP3    H230705   0.838   4.514   0.891  0.6543  0.6362  0.7639
 3024TIP3   OH230706   2.882   3.321   7.178 -0.6490 -0.1432  0.3803
 3024TIP3    H130707   2.938   3.253   7.215 -0.2661 -0.2077 -0.2984
 3024TIP3    H230708   2.817   3.275   7.126  1.3453  0.0058 -2.5357
 3025TIP3   OH230709   5.124   4.102   7.322 -0.6371  0.2508  0.2374
 3025TIP3    H130710   5.073   4.173   7.284 -0.8602 -0.4559 -0.8367
 3025TIP3    H230711   5.062   4.029   7.329 -0.1458 -0.1654  0.3013
 3026TIP3   OH230712   3.665   1.776   6.637 -0.3744  0.4640  0.2634
 3026TIP3    H130713   3.647   1.857   6.590 -1.5617  2.3153  3.5227
 3026TIP3    H230714   3.760   1.764   6.630 -0.1069  2.4113  0.0128
 3027TIP3   OH230715   4.218   3.861   0.235  0.0735 -0.0685 -0.5085
 3027TIP3    H130716   4.162   3.923   0.188  0.3902  0.8194  0.2504
 3027TIP3    H230717   4.167   3.835   0.311  0.0419 -0.5521 -0.6908
 3028TIP3   OH230718   1.828   5.740   6.525  0.2683  0.2954  0.1787
 3028TIP3    H130719   1.786   5.750   6.440 -0.9849  1.2687  0.8662
 3028TIP3    H230720   1.922   5.743   6.506  0.0715  3.4772 -0.9337
 3029TIP3   OH230721   0.355   0.904   8.123  0.0928  0.2735  0.5275
 3029TIP3    H130722   0.377   0.974   8.184  1.5490  0.3311 -0.0179
 3029TIP3    H230723   0.330   0.949   8.042  0.1889  0.1831  0.4457
 3030TIP3   OH230724   5.658   4.790   7.980 -0.1031 -0.0493  0.4513
 3030TIP3    H130725   5.649   4.859   7.914 -0.8463 -1.4864 -1.0463
 3030TIP3    H230726   5.753   4.776   7.987  0.1040  1.6682  1.4158
 3031TIP3   OH230727   6.447   6.190   7.057  0.2890  0.1799 -0.6939
 3031TIP3    H130728   6.400   6.262   7.099 -1.8779 -0.2858 -2.1912
 3031TIP3    H230729   6.465   6.222   6.969 -1.4226 -1.3592 -1.6447
 3032TIP3   OH230730   1.821   4.710   6.412 -0.1065 -0.2763  0.9612
 3032TIP3    H130731   1.903   4.759   6.408 -0.2290 -0.0730  0.9164
 3032TIP3    H230732   1.807   4.678   6.323  0.9219 -1.9758  1.3632
 3033TIP3   OH230733   2.763   0.625   0.209 -0.6685 -0.0175 -0.0713
 3033TIP3    H130734   2.730   0.545   0.168 -1.1772 -0.2444  0.7511
 3033TIP3    H230735   2.791   0.597   0.296 -0.0108  0.5351 -0.1007
 3034TIP3   OH230736   5.649   2.272   0.626 -0.0062  0.4464 -0.1793
 3034TIP3    H130737   5.585   2.335   0.592  0.9373  0.4766 -1.9779
 3034TIP3    H230738   5.596   2.201   0.662 -1.0678  0.7897 -1.0225
 3035TIP3   OH230739   5.786   3.116   8.170  0.3222 -0.0361  0.3919
 3035TIP3    H130740   5.715   3.144   8.228 -0.4301  1.4157 -1.1564
 3035TIP3    H230741   5.863   3.165   8.201  0.2956 -0.4201  1.0893
 3036TIP3   OH230742   3.282   5.735   5.894 -0.1791 -0.2236 -0.3981
 3036TIP3    H130743   3.188   5.736   5.876 -0.5944 -1.9750  1.2944
 3036TIP3    H230744   3.294   5.805   5.959 -0.7453 -1.3459  0.9720
 3037TIP3   OH230745   0.700   1.554   0.302  0.4817 -0.1609 -0.3569
 3037TIP3    H130746   0.790   1.586   0.308  0.9761 -1.3855 -0.9340
 3037TIP3    H230747   0.672   1.577   0.213 -0.0712  0.9010  0.0683
 3038TIP3   OH230748   3.276   6.785   1.282  0.4001 -0.0028  0.1221
 3038TIP3    H130749   3.366   6.801   1.255  0.4855 -0.1739  0.3048
 3038TIP3    H230750   3.263   6.691   1.266  0.2030  0.0538 -0.0563
 3039TIP3   OH230751   1.877   3.347   8.552  0.8216 -0.5612  0.3782
 3039TIP3    H130752   1.951   3.402   8.526  0.5307 -0.0426  0.6269
 3039TIP3    H230753   1.851   3.302   8.472  0.4557  0.3964 -0.0488
 3040TIP3   OH230754   1.258   5.368   7.954 -0.1875 -0.2206  0.3227
 3040TIP3    H130755   1.351   5.380   7.975 -0.3458  1.6158  0.1954
 3040TIP3    H230756   1.257   5.352   7.860  0.0243 -0.7734  0.4094
 3041TIP3   OH230757   4.414   5.204   0.176 -0.1644  0.5901 -0.0172
 3041TIP3    H130758   4.374   5.131   0.224  1.0119 -0.6497 -0.8175
 3041TIP3    H230759   4.394   5.281   0.227 -0.3770 -0.4731  1.5687
 3042TIP3   OH230760   0.182   0.027   5.874 -0.1753  0.3465 -0.0934
 3042TIP3    H130761   0.208   0.010   5.783 -0.1896  3.2961 -0.7739
 3042TIP3    H230762   0.265   0.044   5.919 -0.2089 -0.5731  0.3182
 3043TIP3   OH230763   4.795   3.475   7.473  0.7462 -0.8089 -0.0600
 3043TIP3    H130764   4.843   3.400   7.437  1.1951 -0.6124  0.1189
 3043TIP3    H230765   4.797   3.462   7.568  0.8803 -0.5424 -0.0241
 3044TIP3   OH230766   0.824   3.344   6.288 -0.1143  0.3644 -0.0482
 3044TIP3    H130767   0.818   3.388   6.373 -2.4307  1.3990 -0.6701
 3044TIP3    H230768   0.839   3.415   6.225 -1.2059 -0.0428 -0.7920
 3045TIP3   OH230769   0.551   3.957   0.524 -0.1703 -0.3040 -0.5505
 3045TIP3    H130770   0.613   3.973   0.595 -0.1055  4.1464 -1.3429
 3045TIP3    H230771   0.465   3.972   0.563 -0.3208 -0.4425 -0.8243
 3046TIP3   OH230772   4.948   5.253   1.964  0.6427 -0.2312  0.1736
 3046TIP3    H130773   5.004   5.232   2.038 -0.1604 -1.2660  0.5087
 3046TIP3    H230774   4.863   5.275   2.003  0.7245  1.1032 -0.3372
 3047TIP3   OH230775   4.788   5.200   6.809 -0.2473 -0.0127 -0.0833
 3047TIP3    H130776   4.828   5.150   6.737 -0.1400  0.5095 -0.3910
 3047TIP3    H230777   4.842   5.180   6.885 -0.9772 -1.4062  0.0986
 3048TIP3   OH230778   4.541   6.630   1.383 -0.1376  0.1661  0.3072
 3048TIP3    H130779   4.536   6.676   1.299  1.2980 -0.4538 -0.1470
 3048TIP3    H230780   4.466   6.571   1.383 -0.5246  0.6479 -0.2418
 3049TIP3   OH230781   6.722   6.270   0.966 -0.0749  0.2344 -0.0523
 3049TIP3    H130782   6.705   6.358   0.932  1.1557  1.3233  1.9869
 3049TIP3    H230783   6.817   6.266   0.978 -0.3039 -0.5534  1.8966
 3050TIP3   OH230784   2.776   2.342   7.627  0.3146 -0.4650 -0.3460
 3050TIP3    H130785   2.803   2.252   7.608 -0.6007 -0.6328 -0.8793
 3050TIP3    H230786   2.767   2.344   7.723  1.4149 -0.6151 -0.2213
 3051TIP3   OH230787   3.082   5.277   8.331 -0.2487 -0.3558 -0.3324
 3051TIP3    H130788   3.097   5.371   8.337 -0.9441 -0.2033 -0.8453
 3051TIP3    H230789   3.167   5.241   8.304 -0.4060  0.3296 -1.8380
 3052TIP3   OH230790   2.551   3.517   0.509 -0.1628  0.2811 -0.0560
 3052TIP3    H130791   2.607   3.471   0.446  0.4509  1.1917 -0.2018
 3052TIP3    H230792   2.530   3.600   0.467  0.0686  0.8105  0.8378
 3053TIP3   OH230793   6.868   5.082   6.597 -0.2294 -0.0065 -0.0128
 3053TIP3    H130794   6.914   5.075   6.680 -0.9749 -1.6243  0.3037
 3053TIP3    H230795   6.913   5.153   6.551 -0.0152  1.1703  1.8787
 3054TIP3   OH230796   0.152   4.462   5.999  0.5442 -0.1690 -0.0243
 3054TIP3    H130797   0.198   4.546   6.009  0.9486 -0.4667  0.6868
 3054TIP3    H230798   0.218   4.396   6.022 -0.4286 -0.5838  1.7829
 3055TIP3   OH230799   0.285   1.637   6.452  0.1177  0.1119  0.1538
 3055TIP3    H130800   0.361   1.645   6.395  0.2521 -0.7886  0.1890
 3055TIP3    H230801   0.210   1.645   6.393  0.2314 -2.7145 -0.5316
 3056TIP3   OH230802   4.610   3.981   8.638 -0.0416 -0.4773 -0.3247
 3056TIP3    H130803   4.628   3.927   8.561  0.3462  0.0422 -0.6067
 3056TIP3    H230804   4.579   3.919   8.704 -0.7623 -0.8713 -1.0191
 3057TIP3   OH230805   5.693   6.430   8.082 -0.3653  0.0955 -0.4764
 3057TIP3    H130806   5.739   6.512   8.065 -0.2959  0.0072 -0.7217
 3057TIP3    H230807   5.635   6.419   8.007 -0.9755  0.3355 -0.0433
 3058TIP3   OH230808   1.070   2.160   8.456 -0.1775  0.5492 -0.2310
 3058TIP3    H130809   1.100   2.174   8.546 -1.1719  0.1896  0.1689
 3058TIP3    H230810   1.038   2.246   8.429 -2.5455  0.0917  0.8099
 3059TIP3   OH230811   2.834   3.804   0.312  0.0200  0.0357  0.4588
 3059TIP3    H130812   2.745   3.776   0.290  0.8653 -3.7001  0.9964
 3059TIP3    H230813   2.831   3.825   0.405 -0.2011 -0.8116  0.6538
 3060TIP3   OH230814   0.661   5.001   8.360 -0.1538 -0.1284 -0.0434
 3060TIP3    H130815   0.598   5.028   8.427  0.4701 -1.9745  1.3859
 3060TIP3    H230816   0.737   4.970   8.410  1.2260  0.4579 -1.6910
 3061TIP3   OH230817   1.234   1.396   8.546  0.2383 -0.3493 -0.1563
 3061TIP3    H130818   1.239   1.427   8.456 -0.2574  0.4841  0.0996
 3061TIP3    H230819   1.142   1.372   8.559  0.5943 -1.9844 -0.3481
 3062TIP3   OH230820   0.442   1.693   7.899 -0.2467  0.4752  0.4825
 3062TIP3    H130821   0.446   1.741   7.816 -0.4461  0.6568  0.5765
 3062TIP3    H230822   0.532   1.692   7.931 -0.1210  0.1562  0.1242
 3063TIP3   OH230823   0.448   5.333   1.753 -0.2346  0.4887  0.3890
 3063TIP3    H130824   0.503   5.298   1.823  1.1345 -0.4164 -1.0536
 3063TIP3    H230825   0.439   5.426   1.772  2.2235  0.7621  0.4472
 3064TIP3   OH230826   1.509   1.828   8.257  0.3522 -0.3629  0.4761
 3064TIP3    H130827   1.495   1.749   8.204  1.1443 -0.6818  0.7385
 3064TIP3    H230828   1.524   1.795   8.346 -0.2928  0.1374  0.7813
 3065TIP3   OH230829   1.209   2.957   8.361 -0.1033 -0.9426 -0.0068
 3065TIP3    H130830   1.134   2.898   8.358 -0.6684 -0.2396  0.3359
 3065TIP3    H230831   1.216   2.984   8.453 -1.0096  0.9943 -0.4584
 3066TIP3   OH230832   1.500   4.820   6.693 -0.1420 -0.6476 -0.2277
 3066TIP3    H130833   1.530   4.770   6.769 -0.7206  0.2708  0.6274
 3066TIP3    H230834   1.429   4.768   6.656 -0.7644 -0.4555  0.6808
 3067TIP3   OH230835   0.596   3.149   6.284  0.1385 -0.0410  0.0287
 3067TIP3    H130836   0.668   3.209   6.262  0.8555 -1.1300 -0.6894
 3067TIP3    H230837   0.518   3.204   6.281  0.3979  0.3866 -3.3370
 3068TIP3   OH230838   0.372   0.065   6.797  0.2381  0.0317  0.0686
 3068TIP3    H130839   0.405  -0.006   6.852  1.7079  1.6336  1.3735
 3068TIP3    H230840   0.399   0.042   6.709  0.6547 -1.0270  0.4553
 3069TIP3   OH230841   2.928   0.297   8.753  0.2342 -0.1736  0.2227
 3069TIP3    H130842   2.934   0.234   8.681 -1.2735  0.6018 -0.6216
 3069TIP3    H230843   2.898   0.246   8.828 -2.1672 -0.3039 -0.7535
 3070TIP3   OH230844   6.255   3.524   5.993 -0.0145  0.3105  0.7773
 3070TIP3    H130845   6.311   3.447   5.984 -1.5516 -0.6400 -1.3345
 3070TIP3    H230846   6.192   3.500   6.061  1.0386  0.7365  1.9419
 3071TIP3   OH230847   0.325   6.248   8.705  0.2716 -0.0901 -0.3454
 3071TIP3    H130848   0.273   6.325   8.729 -1.1937 -1.1277 -0.0375
 3071TIP3    H230849   0.397   6.283   8.653 -0.2418  1.5063 -0.0469
 3072TIP3   OH230850   6.520   0.147   8.048 -0.7512  0.0761  0.2761
 3072TIP3    H130851   6.545   0.189   8.131  0.9988  0.1537 -0.2461
 3072TIP3    H230852   6.532   0.215   7.982  0.0917 -0.6161 -0.3094
 3073TIP3   OH230853   3.299   3.890   1.311 -0.3068  0.4860  1.0364
 3073TIP3    H130854   3.270   3.800   1.328  1.1936 -0.1022  0.6512
 3073TIP3    H230855   3.364   3.907   1.378  1.4356  0.2446 -0.5003
 3074TIP3   OH230856   3.339   2.337   7.319  0.0318 -0.5837  0.2933
 3074TIP3    H130857   3.433   2.339   7.336  0.0105  0.4163  0.3047
 3074TIP3    H230858   3.305   2.417   7.359 -0.7443 -0.6575 -0.1968
 3075TIP3   OH230859   4.160   2.943   0.739  0.1670 -0.0290  0.1148
 3075TIP3    H130860   4.107   3.007   0.691  2.7039  2.1959  0.0270
 3075TIP3    H230861   4.110   2.924   0.818 -0.6500  2.1637  0.1769
 3076TIP3   OH230862   4.897   2.397   6.458 -0.3561  0.3372 -0.5560
 3076TIP3    H130863   4.881   2.351   6.376 -0.2124  2.3027 -1.7250
 3076TIP3    H230864   4.972   2.453   6.440  0.9859 -0.6520  1.5515
 3077TIP3   OH230865   2.408   4.806   1.936 -0.4073  0.3925 -0.3443
 3077TIP3    H130866   2.492   4.786   1.976 -1.1416  0.1808  1.1541
 3077TIP3    H230867   2.345   4.803   2.008 -1.8355 -0.2780 -1.5436
 3078TIP3   OH230868   6.214   5.493   0.049 -0.1508 -0.0890  0.3121
 3078TIP3    H130869   6.128   5.462   0.077  0.4918 -1.4972  0.7919
 3078TIP3    H230870   6.270   5.416   0.052  1.3556  0.9814  0.8592
 3079TIP3   OH230871   6.500   2.243   2.087  0.0386  0.2163  0.1967
 3079TIP3    H130872   6.555   2.172   2.054  0.5927  0.1897  1.1370
 3079TIP3    H230873   6.558   2.294   2.144 -0.7960  0.4526  0.8527
 3080TIP3   OH230874   3.281   3.672   6.990  0.1845  0.5621 -0.3171
 3080TIP3    H130875   3.295   3.696   7.082  1.4927 -2.5574  0.4292
 3080TIP3    H230876   3.216   3.602   6.994 -0.9585  1.4480 -1.9974
 3081TIP3   OH230877   6.249   4.354   6.754 -0.0746  0.4080 -0.2188
 3081TIP3    H130878   6.192   4.427   6.777 -1.4527 -0.1904 -1.5588
 3081TIP3    H230879   6.246   4.296   6.830  0.5741  1.4201  0.6189
 3082TIP3   OH230880   2.308   5.187   0.345 -0.5965  0.3895  0.3533
 3082TIP3    H130881   2.281   5.201   0.254  0.4631  2.4861  0.2923
 3082TIP3    H230882   2.227   5.167   0.391 -1.7670  2.7375 -0.4820
 3083TIP3   OH230883   0.603   1.652   1.288  0.1812 -0.2045  0.0693
 3083TIP3    H130884   0.577   1.640   1.197  0.4793  0.6693 -0.1438
 3083TIP3    H230885   0.521   1.674   1.334  0.0160 -0.7406  0.0360
 3084TIP3   OH230886   6.657   2.932   7.817  0.2290 -0.1491 -0.4262
 3084TIP3    H130887   6.570   2.902   7.844 -0.3112  0.8043 -1.0489
 3084TIP3    H230888   6.677   2.878   7.740 -0.1886  0.2115 -0.7924
 3085TIP3   OH230889   5.331   2.991   0.248 -0.1473 -0.6919 -0.0749
 3085TIP3    H130890   5.270   3.064   0.259 -0.5301 -0.7852 -1.3762
 3085TIP3    H230891   5.277   2.913   0.262 -0.1306 -0.7595 -0.3902
 3086TIP3   OH230892   3.292   2.056   8.623 -0.0190 -0.0555  0.6000
 3086TIP3    H130893   3.227   1.986   8.614  1.1977 -1.2266  0.6260
 3086TIP3    H230894   3.286   2.105   8.541  0.4714 -1.4215 -0.3028
 3087TIP3   OH230895   0.147   6.688   6.936 -0.2305  0.4106  1.0460
 3087TIP3    H130896   0.111   6.604   6.907  1.8517 -0.5999  1.2378
 3087TIP3    H230897   0.079   6.724   6.993 -2.4413  0.3007 -1.3068
 3088TIP3   OH230898   1.570   2.352   1.130 -0.3085  0.0677 -0.4673
 3088TIP3    H130899   1.529   2.372   1.214 -0.5896  2.2656 -1.0535
 3088TIP3    H230900   1.498   2.326   1.073 -0.2097 -0.7450 -0.2334
 3089TIP3   OH230901   1.342   2.640   0.183 -0.1205 -0.4220 -0.1195
 3089TIP3    H130902   1.429   2.643   0.142  0.2298 -0.8113  0.5651
 3089TIP3    H230903   1.341   2.715   0.242 -0.7555  0.3383 -1.0848
 3090TIP3   OH230904   5.782   6.816   6.472  0.3453 -0.0243  0.0922
 3090TIP3    H130905   5.876   6.819   6.451  0.5012 -1.8090  0.3844
 3090TIP3    H230906   5.745   6.753   6.410 -0.6221  0.4859  0.1406
 3091TIP3   OH230907   2.297   5.960   8.161  0.1082  0.3761 -0.1425
 3091TIP3    H130908   2.261   6.049   8.161 -1.0085 -0.0494 -1.3641
 3091TIP3    H230909   2.237   5.910   8.106  1.6117 -0.7872 -0.7649
 3092TIP3   OH230910   5.024   5.548   1.207 -0.3156 -0.3693  0.0099
 3092TIP3    H130911   5.101   5.499   1.238 -0.1081 -1.2179 -1.6951
 3092TIP3    H230912   5.056   5.599   1.133 -1.0731  0.5156  0.2702
 3093TIP3   OH230913   5.695   3.441   7.102 -0.0135 -0.5736  0.1746
 3093TIP3    H130914   5.699   3.348   7.123 -0.3086 -0.7140 -0.3637
 3093TIP3    H230915   5.676   3.443   7.008  1.6105  0.0274 -0.1715
 3094TIP3   OH230916   4.443   1.364   0.046 -0.2261  0.1308  0.1880
 3094TIP3    H130917   4.440   1.329   0.134  1.2505  0.1225  0.2590
 3094TIP3    H230918   4.464   1.457   0.058 -0.6456  0.2714 -0.1344
 3095TIP3   OH230919   6.466   2.005   8.622  0.2151 -0.0445  0.0226
 3095TIP3    H130920   6.383   2.030   8.663  0.8315  2.9852 -0.3096
 3095TIP3    H230921   6.459   1.911   8.609 -1.7401 -0.4735  3.1203
 3096TIP3   OH230922   2.007   5.007   6.602  0.0420 -0.0567  0.1067
 3096TIP3    H130923   2.043   4.951   6.671 -1.2752  0.2711  1.0964
 3096TIP3    H230924   2.015   4.954   6.522  0.2558 -1.0272  0.7537
 3097TIP3   OH230925   5.859   3.616   0.503  0.4728  0.4094 -0.3568
 3097TIP3    H130926   5.915   3.551   0.545  0.6369  0.2880 -0.7609
 3097TIP3    H230927   5.870   3.695   0.556  0.0728  0.0391  0.2922
 3098TIP3   OH230928   6.325   5.025   7.249  0.4331  0.3843  0.3175
 3098TIP3    H130929   6.345   4.931   7.255 -2.0550 -0.2527 -0.1742
 3098TIP3    H230930   6.285   5.035   7.163  0.8484  1.9695  0.2860
 3099TIP3   OH230931   5.799   1.820   8.158 -0.0996  0.4087  0.2353
 3099TIP3    H130932   5.878   1.795   8.110  1.0547  0.8188  1.8066
 3099TIP3    H230933   5.786   1.912   8.137  1.2900  1.0099  1.7778
 3100TIP3   OH230934   3.278   1.064   8.649  0.0490 -0.0370 -0.1517
 3100TIP3    H130935   3.295   0.976   8.684 -0.1448 -0.0668 -0.1343
 3100TIP3    H230936   3.338   1.120   8.698 -1.8268  0.2826  1.9075
 3101TIP3   OH230937   5.071   5.072   0.309 -0.3109 -0.1337 -0.5493
 3101TIP3    H130938   5.028   5.109   0.386 -2.2030 -0.6097 -1.3263
 3101TIP3    H230939   5.126   5.002   0.344  0.0988  0.6823  0.5036
 3102TIP3   OH230940   3.898   4.539   7.837  0.0243  0.1109  0.0975
 3102TIP3    H130941   3.895   4.507   7.747 -3.0887  0.1510  0.0754
 3102TIP3    H230942   3.817   4.589   7.848  0.4589  0.4055  2.8175
 3103TIP3   OH230943   3.494   4.608   1.144  0.2012 -0.0117 -0.2293
 3103TIP3    H130944   3.447   4.691   1.153  1.5677  0.5816  2.9757
 3103TIP3    H230945   3.452   4.551   1.209  0.6585 -1.1406 -0.9120
 3104TIP3   OH230946   4.395   3.452   1.206  0.2360 -0.1907 -0.1158
 3104TIP3    H130947   4.433   3.486   1.287 -1.6984 -1.2935  1.3584
 3104TIP3    H230948   4.307   3.489   1.204  0.8508  1.3983 -2.8181
 3105TIP3   OH230949   6.056   1.845   0.268 -0.0162  0.4762  0.1907
 3105TIP3    H130950   6.001   1.780   0.311  0.5793 -1.1803 -1.3950
 3105TIP3    H230951   5.997   1.917   0.247 -0.0450  2.2237  5.0871
 3106TIP3   OH230952   3.645   2.608   6.542  0.3184 -0.0078 -0.0770
 3106TIP3    H130953   3.623   2.561   6.623  0.5978  0.8917  0.5408
 3106TIP3    H230954   3.660   2.698   6.571 -1.7554  0.8517 -1.4390
 3107TIP3   OH230955   4.615   1.929   6.734 -0.1460 -0.3473 -0.3365
 3107TIP3    H130956   4.526   1.964   6.735 -0.6436 -1.5735  0.7797
 3107TIP3    H230957   4.617   1.871   6.657  0.1755  0.7796 -1.2172
 3108TIP3   OH230958   4.709   3.099   7.719 -0.3407  0.0643 -0.4161
 3108TIP3    H130959   4.786   3.152   7.700 -1.1107  1.2161 -0.4356
 3108TIP3    H230960   4.659   3.099   7.638 -0.1624 -1.0444 -0.5382
 3109TIP3   OH230961   3.782   0.619   1.384  0.0396  0.0136 -0.4368
 3109TIP3    H130962   3.833   0.629   1.304  1.1825 -0.5083  0.1848
 3109TIP3    H230963   3.825   0.546   1.430  0.4177  1.3006  1.3790
 3110TIP3   OH230964   5.052   4.004   0.238 -0.0568  0.4513 -0.4437
 3110TIP3    H130965   4.966   4.043   0.220  0.3874  1.4319 -0.4887
 3110TIP3    H230966   5.056   4.000   0.334 -1.1265 -1.8552 -0.4271
 3111TIP3   OH230967   0.870   2.605   8.063  0.0318 -0.2384 -0.5402
 3111TIP3    H130968   0.841   2.514   8.070 -0.0835 -0.4566 -2.9342
 3111TIP3    H230969   0.835   2.647   8.141  2.3484 -2.7539  2.0605
 3112TIP3   OH230970   0.368   2.204   8.594 -0.1397  0.3361 -0.0406
 3112TIP3    H130971   0.435   2.228   8.658  0.9835 -1.2321 -0.5792
 3112TIP3    H230972   0.408   2.220   8.509 -0.8201  0.3063 -0.3740
 3113TIP3   OH230973   1.047   6.458   1.261  0.9852 -0.1964 -0.0152
 3113TIP3    H130974   1.110   6.477   1.332 -1.2628 -0.3805  2.1569
 3113TIP3    H230975   1.051   6.536   1.205  0.5452  1.4783  2.1269
 3114TIP3   OH230976   3.524   0.259   0.034 -0.1465 -0.2390 -0.5224
 3114TIP3    H130977   3.529   0.259   0.129 -0.5735  0.3632 -0.4920
 3114TIP3    H230978   3.497   0.170   0.011  1.8561 -0.9831 -0.2092
 3115TIP3   OH230979   0.393   1.984   7.259  0.0808 -0.4749  0.2836
 3115TIP3    H130980   0.435   2.068   7.276  0.4113 -0.6028  0.1127
 3115TIP3    H230981   0.357   1.992   7.171  1.9365 -1.2170 -0.6159
 3116TIP3   OH230982   2.399   5.225   8.456  0.7983  0.2137  0.0917
 3116TIP3    H130983   2.353   5.252   8.536 -2.2203 -0.6584 -1.2318
 3116TIP3    H230984   2.390   5.130   8.454  0.6044  0.2447 -1.3902
 3117TIP3   OH230985   4.848   3.279   1.083  0.1117 -0.1253  0.0624
 3117TIP3    H130986   4.787   3.351   1.101  1.5953  1.0906  0.4013
 3117TIP3    H230987   4.823   3.210   1.145 -2.0301 -0.3768 -1.0020
 3118TIP3   OH230988   6.024   3.445   6.562 -0.5531  0.3263 -0.8301
 3118TIP3    H130989   6.022   3.483   6.650 -2.0752 -0.0952 -0.6523
 3118TIP3    H230990   5.950   3.485   6.517  0.3736  0.7299 -2.0200
 3119TIP3   OH230991   6.103   0.921   7.474 -0.8151 -0.0776 -0.6559
 3119TIP3    H130992   6.050   0.975   7.415 -0.2884  1.9583  0.6529
 3119TIP3    H230993   6.067   0.833   7.463 -0.9891  0.2525 -3.7025
 3120TIP3   OH230994   1.684   2.347   7.921 -0.1098  0.0029  0.2347
 3120TIP3    H130995   1.605   2.294   7.936 -0.7299  0.9322  0.3551
 3120TIP3    H230996   1.683   2.365   7.827 -0.4795  0.6674  0.3594
 3121TIP3   OH230997   6.349   4.661   8.065 -0.5632  0.5111 -0.3799
 3121TIP3    H130998   6.347   4.690   7.973  0.3415 -2.3447 -1.4001
 3121TIP3    H230999   6.442   4.656   8.087 -0.6201 -1.9562 -0.4615
 3122TIP3   OH231000   0.302   1.531   1.182 -0.3762  0.2520  0.1049
 3122TIP3    H131001   0.375   1.522   1.122 -1.5150  0.7016 -1.3970
 3122TIP3    H231002   0.225   1.510   1.130 -1.2453 -1.7100  2.0118
 3123TIP3   OH231003   2.031   0.582   7.269  0.3596 -0.0215  0.5581
 3123TIP3    H131004   2.058   0.584   7.361  1.4921 -1.1798  0.2836
 3123TIP3    H231005   2.113   0.572   7.220  0.0384  2.6772 -0.7604
 3124TIP3   OH231006   2.194   5.431   5.799  0.0832  0.1873 -0.4191
 3124TIP3    H131007   2.239   5.361   5.752  1.6983  2.6058 -2.7362
 3124TIP3    H231008   2.127   5.385   5.851  2.0610 -3.1635 -0.4998
 3125TIP3   OH231009   0.647   0.875   7.786 -0.0945 -0.1657  0.1057
 3125TIP3    H131010   0.636   0.813   7.714  1.1833 -0.1041 -0.1598
 3125TIP3    H231011   0.635   0.822   7.865  3.4912 -1.4091 -0.0246
 3126TIP3   OH231012   0.620   5.810   1.650  0.0003  0.6257  0.2784
 3126TIP3    H131013   0.628   5.803   1.555 -0.4921  0.8752  0.2174
 3126TIP3    H231014   0.611   5.904   1.666 -1.1598  0.4910  0.4684
 3127TIP3   OH231015   3.655   3.337   0.971 -0.1235  0.1864  0.3299
 3127TIP3    H131016   3.737   3.381   0.990  0.2098  0.0105 -0.6177
 3127TIP3    H231017   3.589   3.386   1.020  0.2511  1.6803 -0.5824
 3128TIP3   OH231018   1.857   1.019   0.361 -0.2656 -0.1475 -0.3761
 3128TIP3    H131019   1.942   1.019   0.404 -0.8505 -0.8741  0.8274
 3128TIP3    H231020   1.805   1.084   0.409 -0.4487  0.2112 -1.0301
 3129TIP3   OH231021   5.130   2.423   1.658 -0.3360 -0.0450 -0.0326
 3129TIP3    H131022   5.107   2.443   1.748  0.6659  2.6551 -0.2904
 3129TIP3    H231023   5.133   2.327   1.655 -2.4207 -0.2840  2.2144
 3130TIP3   OH231024   0.059   0.696   0.777  0.0007 -0.2474 -0.3929
 3130TIP3    H131025   0.007   0.625   0.740 -0.4052 -0.5178  0.6590
 3130TIP3    H231026   0.090   0.662   0.861 -0.2171  0.8191  0.1359
 3131TIP3   OH231027   6.804   1.800   0.166 -0.0784  0.2183  0.2464
 3131TIP3    H131028   6.840   1.886   0.185  2.2732 -0.7491  0.4585
 3131TIP3    H231029   6.711   1.808   0.186  0.1886  2.5114  0.8366
 3132TIP3   OH231030   5.519   4.809   0.704  0.3099  0.1129 -0.2296
 3132TIP3    H131031   5.526   4.719   0.736 -0.4756 -0.5220 -1.7806
 3132TIP3    H231032   5.586   4.816   0.636  1.2984  1.1510  0.7902
 3133TIP3   OH231033   0.220   4.447   8.501  0.2194 -0.1125  0.2850
 3133TIP3    H131034   0.215   4.534   8.461 -0.8938 -0.1528  0.3169
 3133TIP3    H231035   0.225   4.465   8.595 -1.6097 -0.0778  0.4162
 3134TIP3   OH231036   3.214   2.618   8.620 -0.4247 -0.3833  0.7903
 3134TIP3    H131037   3.162   2.542   8.646 -0.5486 -0.7030 -0.3592
 3134TIP3    H231038   3.170   2.692   8.662 -0.8665 -0.8324  1.1351
 3135TIP3   OH231039   1.140   4.602   1.236 -0.3409  0.0084 -0.4564
 3135TIP3    H131040   1.099   4.654   1.305  1.6691  2.3220 -0.8710
 3135TIP3    H231041   1.185   4.531   1.283 -1.5711 -0.3149  0.2831
 3136TIP3   OH231042   1.390   5.972   0.891 -0.1335 -0.2911  0.6300
 3136TIP3    H131043   1.385   5.918   0.812 -0.2173 -0.4347  0.7332
 3136TIP3    H231044   1.361   6.058   0.863  0.4124 -0.1870  0.3622
 3137TIP3   OH231045   5.601   2.453   8.443  0.0719  0.0105 -0.0654
 3137TIP3    H131046   5.564   2.539   8.466 -0.6812 -0.4666  0.5648
 3137TIP3    H231047   5.616   2.411   8.528  2.6792  0.4042 -0.2486
 3138TIP3   OH231048   3.403   0.187   8.385 -0.6228 -0.2767 -0.3829
 3138TIP3    H131049   3.355   0.151   8.459  0.8063  0.5329  0.9958
 3138TIP3    H231050   3.495   0.181   8.411  0.0281 -1.1727 -2.6475
 3139TIP3   OH231051   3.852   3.912   6.080  0.0480  0.7576 -0.3161
 3139TIP3    H131052   3.814   3.917   5.992  1.0432 -2.7657 -1.1370
 3139TIP3    H231053   3.778   3.892   6.137 -0.2972  0.6483 -0.7961
 3140TIP3   OH231054   6.567   1.863   0.293 -0.1747  0.4208  0.0913
 3140TIP3    H131055   6.482   1.900   0.320 -0.4661 -0.3727  0.2747
 3140TIP3    H231056   6.606   1.832   0.374  0.4768  1.1365  0.0621
 3141TIP3   OH231057   2.877   2.413   8.705  0.2267  0.0683  0.0985
 3141TIP3    H131058   2.952   2.387   8.651  0.1692  0.4865 -0.1888
 3141TIP3    H231059   2.835   2.484   8.655  0.2779  0.5879  0.7882
 3142TIP3   OH231060   5.961   4.996   1.048 -0.4988  0.0239  0.5203
 3142TIP3    H131061   5.890   5.038   1.000  1.2141  1.2079 -1.1453
 3142TIP3    H231062   5.992   5.063   1.109  1.1614  0.7028 -0.9749
 3143TIP3   OH231063   2.315   3.256   7.794  0.3126  0.3718 -0.6212
 3143TIP3    H131064   2.258   3.312   7.741 -0.6985 -1.2961 -1.3738
 3143TIP3    H231065   2.326   3.304   7.876  2.9478  3.6642 -2.6622
 3144TIP3   OH231066   4.345   4.549   8.078  0.2254  0.5701  0.4809
 3144TIP3    H131067   4.334   4.579   7.987 -0.4521 -0.1001  0.3295
 3144TIP3    H231068   4.375   4.459   8.070  0.2389  0.5336  0.9256
 3145TIP3   OH231069   6.151   6.748   8.034 -0.3049  0.3813  0.1288
 3145TIP3    H131070   6.100   6.814   8.082  0.4612  0.7565  0.4433
 3145TIP3    H231071   6.166   6.678   8.099 -0.2951  0.3399  0.0816
 3146TIP3   OH231072   4.007   2.249   1.392 -0.3281 -0.3777 -0.1324
 3146TIP3    H131073   4.003   2.210   1.479 -1.5649 -0.7834 -0.3470
 3146TIP3    H231074   3.970   2.337   1.403  1.0701  0.2078  0.0603
 3147TIP3   OH231075   4.223   1.525   7.314 -0.2293 -0.1426 -0.2985
 3147TIP3    H131076   4.173   1.492   7.389 -2.6205 -2.5026 -2.7409
 3147TIP3    H231077   4.182   1.609   7.294 -0.8085 -0.3644 -0.0750
 3148TIP3   OH231078   0.269   2.368   0.520 -0.1094  0.0320 -0.0074
 3148TIP3    H131079   0.277   2.273   0.533 -0.5101 -0.0229 -0.1622
 3148TIP3    H231080   0.302   2.382   0.431  1.5372  0.2598  0.5980
 3149TIP3   OH231081   6.792   2.092   2.251 -0.0219  0.3527 -0.0331
 3149TIP3    H131082   6.785   2.008   2.295  0.3981  0.2918 -0.0718
 3149TIP3    H231083   6.759   2.076   2.162 -0.6982  0.4313  0.2019
 3150TIP3   OH231084   4.430   3.054   8.218  0.5074 -0.2192 -0.2479
 3150TIP3    H131085   4.470   3.051   8.131 -2.1424  1.1071 -1.6445
 3150TIP3    H231086   4.352   2.999   8.210  0.0792  0.1309  1.2137
 3151TIP3   OH231087   4.939   6.009   0.726  0.2701  0.3925  0.2452
 3151TIP3    H131088   4.950   6.104   0.732 -1.1647  0.6334 -0.4548
 3151TIP3    H231089   4.847   5.997   0.702  0.0424 -1.2399  1.7143
 3152TIP3   OH231090   0.129   4.522   7.357 -0.1207 -0.5637 -0.0875
 3152TIP3    H131091   0.206   4.527   7.414  0.4108  1.0991 -0.9011
 3152TIP3    H231092   0.160   4.553   7.272 -1.6840  0.1395 -0.4358
 3153TIP3   OH231093   3.984   3.276   5.766  0.5106 -0.1951 -0.7104
 3153TIP3    H131094   4.078   3.262   5.772  0.2580 -2.2525 -0.9798
 3153TIP3    H231095   3.947   3.226   5.839 -0.4260 -0.1260 -1.1204
 3154TIP3   OH231096   3.827   0.803   0.551 -0.2680 -0.5911 -0.2219
 3154TIP3    H131097   3.783   0.718   0.546  0.9911 -1.2388 -0.6500
 3154TIP3    H231098   3.918   0.784   0.530 -0.2306  1.1110 -1.8607
 3155TIP3   OH231099   0.384   4.790   1.265  0.0798  0.3490 -0.7322
 3155TIP3    H131100   0.392   4.882   1.242 -1.1846  0.6841  0.0663
 3155TIP3    H231101   0.433   4.782   1.347  0.8301  0.1277 -1.1906
 3156TIP3   OH231102   5.054   0.422   1.456 -0.1522 -0.2094 -0.2510
 3156TIP3    H131103   5.140   0.458   1.479 -0.7004 -0.3760  2.3916
 3156TIP3    H231104   5.071   0.365   1.382  2.0004 -0.1099  0.0977
 3157TIP3   OH231105   1.285   2.390   1.369  0.2732 -0.5307  0.2291
 3157TIP3    H131106   1.256   2.414   1.457  0.1832  1.1759 -0.2407
 3157TIP3    H231107   1.341   2.313   1.383  0.3506 -0.2244  1.7834
 3158TIP3   OH231108   1.484   5.459   7.778  0.4034 -0.5563  0.3711
 3158TIP3    H131109   1.570   5.487   7.745 -1.0201  2.3874 -1.2589
 3158TIP3    H231110   1.465   5.520   7.849 -0.7104 -0.5403  0.0768
 3159TIP3   OH231111   4.698   3.743   0.259  0.2978 -0.8242 -0.2758
 3159TIP3    H131112   4.654   3.805   0.200  0.0849  2.1275  2.7309
 3159TIP3    H231113   4.629   3.680   0.283 -0.4089 -0.3009 -0.8746
 3160TIP3   OH231114   0.379   1.578   1.518  0.0655  0.4671 -0.1200
 3160TIP3    H131115   0.345   1.657   1.476 -0.6091 -1.2419 -3.1326
 3160TIP3    H231116   0.308   1.549   1.576  0.0213  1.6226  0.4277
 3161TIP3   OH231117   2.471   3.033   0.969  0.4753  0.9682  0.0644
 3161TIP3    H131118   2.458   2.962   0.906  0.5724 -0.4511  1.5892
 3161TIP3    H231119   2.456   2.993   1.054 -0.0751  2.9466  0.9482
 3162TIP3   OH231120   2.383   4.072   6.487 -0.1007 -0.2612 -0.3405
 3162TIP3    H131121   2.399   4.161   6.457 -0.2395 -0.8398 -2.2279
 3162TIP3    H231122   2.288   4.065   6.493 -0.0701  0.2143  1.5519
 3163TIP3   OH231123   3.639   0.506   6.874  0.4935 -0.0607  0.1561
 3163TIP3    H131124   3.628   0.562   6.950  2.2006  0.9084 -0.2520
 3163TIP3    H231125   3.605   0.557   6.801  2.4442  0.7105 -0.2821
 3164TIP3   OH231126   6.490   5.670   7.300  0.0534 -0.2337  0.4399
 3164TIP3    H131127   6.403   5.699   7.272 -0.0685 -1.7511 -0.9227
 3164TIP3    H231128   6.549   5.742   7.276 -0.2451 -0.8784 -2.7078
 3165TIP3   OH231129   6.234   3.187   0.146 -0.0928 -0.3322  0.0257
 3165TIP3    H131130   6.196   3.113   0.100 -0.1416  0.1717 -0.7617
 3165TIP3    H231131   6.160   3.231   0.188 -0.1129 -0.5072  0.1728
 3166TIP3   OH231132   4.154   0.625   1.507 -0.0954 -0.1187  0.2781
 3166TIP3    H131133   4.211   0.672   1.446 -1.6555 -0.0154 -1.1632
 3166TIP3    H231134   4.127   0.692   1.570 -1.7071  0.8425 -1.3351
 3167TIP3   OH231135   5.637   3.203   6.212 -0.7773 -0.3826  0.5760
 3167TIP3    H131136   5.687   3.126   6.237 -1.3389 -0.6441  0.9300
 3167TIP3    H231137   5.702   3.268   6.186 -0.2436 -0.5647  1.4376
 3168TIP3   OH231138   1.245   3.417   1.329 -0.1690  0.4060  0.2338
 3168TIP3    H131139   1.269   3.397   1.420  1.2195  1.5858  0.1687
 3168TIP3    H231140   1.272   3.340   1.280 -1.1019 -0.3205  0.8312
 3169TIP3   OH231141   4.282   0.108   0.771 -0.1405  0.1840  0.0268
 3169TIP3    H131142   4.272   0.082   0.862  0.1152  0.3403  0.0994
 3169TIP3    H231143   4.336   0.187   0.774 -1.5243  1.1701 -0.1326
 3170TIP3   OH231144   6.023   3.283   1.019 -0.8439 -0.4620 -0.0615
 3170TIP3    H131145   6.029   3.357   0.959  1.5773 -1.3663 -1.0473
 3170TIP3    H231146   6.069   3.313   1.098 -0.3423 -0.7012 -0.2575
 3171TIP3   OH231147   3.295   3.153   6.114  0.3744 -0.3178  0.4075
 3171TIP3    H131148   3.235   3.080   6.097  0.6766 -0.4850  0.0710
 3171TIP3    H231149   3.382   3.116   6.101  0.4873  0.5164 -1.3882
 3172TIP3   OH231150   4.924   3.279   6.841  0.0876 -0.3119  0.2684
 3172TIP3    H131151   4.967   3.228   6.910  1.6253 -0.4974 -0.7683
 3172TIP3    H231152   4.831   3.274   6.862  0.5414  0.2244  2.7091
 3173TIP3   OH231153   6.110   1.780   1.416  0.2346  0.4720 -0.0372
 3173TIP3    H131154   6.054   1.795   1.491 -2.1883 -1.3366 -1.3399
 3173TIP3    H231155   6.080   1.841   1.349 -0.2014 -0.4713 -0.7332
 3174TIP3   OH231156   1.756   5.828   8.551  0.1607 -0.1609  0.0044
 3174TIP3    H131157   1.797   5.844   8.635 -0.2644  0.7819  0.0470
 3174TIP3    H231158   1.699   5.752   8.565 -0.4859  0.4543  0.7751
 3175TIP3   OH231159   3.969   6.290   8.302 -0.3534 -0.0636  0.1803
 3175TIP3    H131160   4.013   6.308   8.219  0.4563 -0.9342  0.4068
 3175TIP3    H231161   3.957   6.377   8.342 -1.0559  0.3916 -0.9809
 3176TIP3   OH231162   3.556   1.425   0.989  0.1620  0.3959  0.6287
 3176TIP3    H131163   3.538   1.434   0.895 -0.1938  0.0448  0.6573
 3176TIP3    H231164   3.616   1.350   0.994 -3.3912 -2.7191  0.9859
 3177TIP3   OH231165   2.291   4.463   5.910 -0.2685  0.7254 -0.7820
 3177TIP3    H131166   2.330   4.466   5.998 -0.0946 -0.2711 -0.8240
 3177TIP3    H231167   2.225   4.533   5.912  0.1839  1.1532 -0.0813
 3178TIP3   OH231168   6.327   2.011   8.056  0.3051  0.7470  0.0913
 3178TIP3    H131169   6.420   1.990   8.048  0.1452 -0.1419  0.4764
 3178TIP3    H231170   6.311   2.073   7.985  1.1793  0.8810 -0.0088
 3179TIP3   OH231171   3.284   4.009   0.588 -0.2310 -0.0013  0.6981
 3179TIP3    H131172   3.365   3.958   0.591  0.8444  1.6706  0.9731
 3179TIP3    H231173   3.278   4.051   0.673  0.3483  2.4360 -0.3835
 3180TIP3   OH231174   4.613   1.297   0.866  0.1807  0.4138  0.2950
 3180TIP3    H131175   4.550   1.229   0.888  0.8687 -0.6429 -0.8841
 3180TIP3    H231176   4.642   1.332   0.951 -0.1044 -0.8453  0.9204
 3181TIP3   OH231177   3.750   2.478   2.281 -0.0736 -1.0294 -0.2306
 3181TIP3    H131178   3.700   2.398   2.298 -0.9088 -0.1786  1.7287
 3181TIP3    H231179   3.699   2.524   2.215  0.2362 -1.9403 -1.1270
 3182TIP3   OH231180   1.223   1.822   0.959  0.4841 -0.4021 -0.5101
 3182TIP3    H131181   1.207   1.882   1.032  1.0045 -0.5562 -0.2633
 3182TIP3    H231182   1.313   1.791   0.973  1.0509  0.5021 -1.8830
 3183TIP3   OH231183   4.954   4.552   0.744  0.0603 -0.7202 -0.6891
 3183TIP3    H131184   4.926   4.479   0.800 -0.2327  1.6528  2.5768
 3183TIP3    H231185   4.874   4.601   0.726  0.4500 -0.3664 -1.5065
 3184TIP3   OH231186   4.377   4.520   2.157 -0.0903  0.0411 -1.0022
 3184TIP3    H131187   4.356   4.456   2.226  0.0197  0.0753 -0.9365
 3184TIP3    H231188   4.472   4.514   2.147 -0.0312  0.4666 -0.7286
 3185TIP3   OH231189   4.839   4.312   1.972 -0.4480  0.3037 -0.0668
 3185TIP3    H131190   4.755   4.277   1.944  0.3802  0.3819 -3.0027
 3185TIP3    H231191   4.885   4.236   2.009 -1.0365 -0.2305 -0.4191
 3186TIP3   OH231192   5.246   3.479   7.753 -0.2531 -0.3813 -0.4645
 3186TIP3    H131193   5.217   3.421   7.823 -3.4621  1.5533  0.0314
 3186TIP3    H231194   5.306   3.540   7.795  1.9664 -2.2763 -0.6720
 3187TIP3   OH231195   0.277   1.871   0.222  0.0212 -0.2431  0.6175
 3187TIP3    H131196   0.208   1.937   0.217  1.9863  1.8290 -0.9745
 3187TIP3    H231197   0.298   1.851   0.131  1.0395 -1.3614  1.0720
 3188TIP3   OH231198   6.007   5.115   7.945 -0.2322 -0.6857  0.1538
 3188TIP3    H131199   5.937   5.175   7.972 -0.2030 -0.2740 -0.6323
 3188TIP3    H231200   5.991   5.101   7.851  2.2749  1.5973 -0.7436
 3189TIP3   OH231201   6.619   2.184   8.523 -0.0806  0.2848 -0.1808
 3189TIP3    H131202   6.543   2.130   8.546 -0.4312  1.1773  0.8650
 3189TIP3    H231203   6.683   2.167   8.592 -0.7464  2.2253  1.0031
 3190TIP3   OH231204   5.164   3.656   6.602  0.1474 -0.4691  0.1606
 3190TIP3    H131205   5.074   3.650   6.571  0.4541 -2.0846 -0.4911
 3190TIP3    H231206   5.159   3.635   6.695 -0.0417 -1.5724 -0.0847
 3191TIP3   OH231207   0.406   3.510   7.977  0.5215  0.0719  0.5398
 3191TIP3    H131208   0.485   3.564   7.981  0.5135  0.1228  0.0944
 3191TIP3    H231209   0.363   3.537   7.896  0.4755 -0.5450  0.3535
 3192TIP3   OH231210   5.821   2.926   7.954  0.7958  0.0405  0.2531
 3192TIP3    H131211   5.779   2.974   8.025  1.6606  1.5139 -0.1961
 3192TIP3    H231212   5.905   2.898   7.991  0.8432 -0.0062  0.1105
 3193TIP3   OH231213   0.999   3.870   0.190  0.0429  0.0855  0.1561
 3193TIP3    H131214   0.946   3.950   0.196 -0.8269 -0.3311 -1.3496
 3193TIP3    H231215   0.975   3.819   0.267 -1.3793  0.1448 -0.2208
 3194TIP3   OH231216   4.009   6.727   0.021  0.9981  0.2693  0.0807
 3194TIP3    H131217   4.104   6.716   0.013  0.8653 -0.5689 -0.4461
 3194TIP3    H231218   3.998   6.782   0.099  1.7967 -2.3917  2.2166
 3195TIP3   OH231219   4.349   4.363   7.561 -0.0037 -0.7058 -0.5884
 3195TIP3    H131220   4.417   4.365   7.494  0.8944  0.3590  0.3265
 3195TIP3    H231221   4.396   4.378   7.643 -0.7334 -4.0341  0.6213
 3196TIP3   OH231222   2.074   1.836   8.254  0.0101  0.1550 -0.0795
 3196TIP3    H131223   2.144   1.877   8.305  1.1061  0.2641 -1.5910
 3196TIP3    H231224   2.005   1.817   8.318  1.6071 -0.4171  1.5703
 3197TIP3   OH231225   0.748   0.118   7.926 -0.2473  0.2045 -0.3191
 3197TIP3    H131226   0.659   0.090   7.947 -1.4351  3.0164 -1.1049
 3197TIP3    H231227   0.803   0.077   7.993 -1.5154 -4.4241 -1.7621
 3198TIP3   OH231228   1.515   4.451   6.623 -0.3146 -0.0876 -0.0004
 3198TIP3    H131229   1.464   4.485   6.550 -0.1015  0.3429  0.0464
 3198TIP3    H231230   1.463   4.475   6.701 -0.7845 -0.9738 -0.0315
 3199TIP3   OH231231   0.285   5.360   6.203  0.5895  0.1923 -0.3217
 3199TIP3    H131232   0.343   5.434   6.219  0.7352 -0.2846  1.6253
 3199TIP3    H231233   0.320   5.319   6.124  1.8845  0.8774 -0.1294
 3200TIP3   OH231234   2.451   4.696   8.561 -0.7689  0.0293  0.2538
 3200TIP3    H131235   2.414   4.712   8.647 -0.3085 -1.1796  0.7030
 3200TIP3    H231236   2.523   4.634   8.577  1.1996  1.9464 -0.6185
 3201TIP3   OH231237   6.791   5.845   8.024  0.0819  0.4913  0.5881
 3201TIP3    H131238   6.854   5.914   8.006  0.2717  0.4421  1.0302
 3201TIP3    H231239   6.764   5.813   7.938 -2.5299  3.3271  0.1737
 3202TIP3   OH231240   5.401   0.389   6.577  0.0929  0.4892  0.3039
 3202TIP3    H131241   5.356   0.454   6.631 -0.6606 -0.7355  1.2074
 3202TIP3    H231242   5.494   0.404   6.594 -0.1208  0.2810  1.7907
 3203TIP3   OH231243   4.967   1.752   1.572 -0.1484  0.5223  0.6844
 3203TIP3    H131244   5.046   1.755   1.625  0.0762 -0.9697  0.4668
 3203TIP3    H231245   4.905   1.701   1.624 -0.2093 -0.2224 -0.1039
 3204TIP3   OH231246   6.674   5.822   7.481  0.0702  0.6010 -0.0894
 3204TIP3    H131247   6.707   5.867   7.559 -1.8196  0.5717  0.7928
 3204TIP3    H231248   6.586   5.859   7.468 -0.5740 -1.0954 -0.7745
 3205TIP3   OH231249   0.384   6.838   6.540 -0.2916 -0.1012  0.1753
 3205TIP3    H131250   0.362   6.891   6.463 -0.3145 -2.3347 -1.4346
 3205TIP3    H231251   0.438   6.767   6.506  0.7912 -0.4650  2.4572
 3206TIP3   OH231252   2.038   1.810   7.765 -0.4243 -0.8271  0.5887
 3206TIP3    H131253   2.086   1.830   7.845 -1.9439  0.1526  1.3042
 3206TIP3    H231254   2.042   1.715   7.757  0.8433 -0.8362  1.1047
 3207TIP3   OH231255   6.607   5.051   7.167 -0.6605  0.1342  0.4861
 3207TIP3    H131256   6.566   5.017   7.087 -0.1976 -1.4184  0.8872
 3207TIP3    H231257   6.536   5.099   7.211 -0.7542  1.6053 -1.1462
 3208TIP3   OH231258   2.460   6.396   7.548  0.4971  0.0241 -0.0404
 3208TIP3    H131259   2.546   6.405   7.509  1.4876 -1.4999  1.6471
 3208TIP3    H231260   2.471   6.424   7.639 -1.5590  2.7785 -0.4756
 3209TIP3   OH231261   5.332   5.559   0.135 -0.1788 -0.4444 -0.0858
 3209TIP3    H131262   5.387   5.611   0.076 -0.6155  1.0116  0.7368
 3209TIP3    H231263   5.366   5.470   0.126  0.6233 -0.0362 -1.5217
 3210TIP3   OH231264   0.849   2.224   7.939  0.4000 -1.1236  0.4752
 3210TIP3    H131265   0.944   2.231   7.943  0.3324  1.2832 -0.2041
 3210TIP3    H231266   0.831   2.209   7.846  0.0793  0.5768  0.2366
 3211TIP3   OH231267   6.133   3.253   0.634 -0.4941  0.5672  0.6373
 3211TIP3    H131268   6.074   3.178   0.627 -0.5910  0.5383  1.5506
 3211TIP3    H231269   6.164   3.268   0.545 -1.5120  0.2846  0.2156
 3212TIP3   OH231270   0.859   6.692   7.939  0.2176  0.0198 -0.1219
 3212TIP3    H131271   0.855   6.689   7.843 -0.0356 -0.4179 -0.0987
 3212TIP3    H231272   0.924   6.760   7.958  1.2059 -0.7717 -0.6065
 3213TIP3   OH231273   1.172   6.667   0.339  0.4895 -0.6167  0.2553
 3213TIP3    H131274   1.121   6.592   0.370 -0.4205  0.0180  0.3525
 3213TIP3    H231275   1.205   6.640   0.254 -0.4341 -0.8703 -0.0317
 3214TIP3   OH231276   5.352   6.515   2.069 -0.4753  0.0367 -0.0708
 3214TIP3    H131277   5.362   6.604   2.104 -1.0905 -0.4400  1.4121
 3214TIP3    H231278   5.440   6.489   2.042 -0.1777  0.8478  0.0829
 3215TIP3   OH231279   4.234   0.239   8.168 -0.2558  0.0324  0.7678
 3215TIP3    H131280   4.205   0.257   8.257 -1.3665 -1.1107  0.6543
 3215TIP3    H231281   4.260   0.325   8.134 -2.7446  1.0250  1.1586
 3216TIP3   OH231282   2.804   2.747   6.201  0.1974  0.2391 -0.3420
 3216TIP3    H131283   2.891   2.742   6.162  0.0892 -0.4587 -0.5071
 3216TIP3    H231284   2.749   2.784   6.133 -0.3622 -2.5804 -1.5500
 3217TIP3   OH231285   2.081   1.769   6.118  0.2007 -0.1750 -0.4216
 3217TIP3    H131286   2.017   1.720   6.066 -0.6421  0.4526 -0.0032
 3217TIP3    H231287   2.164   1.754   6.074 -0.2475 -0.9297 -1.0394
 3218TIP3   OH231288   1.732   6.275   6.546 -0.0415  0.0961  0.1041
 3218TIP3    H131289   1.712   6.356   6.592 -0.5166 -0.6196  1.2219
 3218TIP3    H231290   1.826   6.262   6.559  0.3194  1.1542 -1.2712
 3219TIP3   OH231291   0.970   4.921   1.823  0.4573 -0.5241 -0.1042
 3219TIP3    H131292   0.999   4.911   1.732 -1.4475 -2.4643 -0.5865
 3219TIP3    H231293   0.958   5.016   1.834  2.2190 -0.1083 -1.3322
 3220TIP3   OH231294   1.654   0.563   0.077 -0.6865  0.0478  0.5851
 3220TIP3    H131295   1.620   0.649   0.103  2.3855  1.1303  1.5499
 3220TIP3    H231296   1.656   0.512   0.157  0.6780  0.3508  0.7829
 3221TIP3   OH231297   5.572   1.057   1.200 -0.3485  0.6698  0.3894
 3221TIP3    H131298   5.506   1.116   1.166 -2.2243 -1.1891  0.6071
 3221TIP3    H231299   5.608   1.013   1.123 -2.4308 -1.3270  0.4438
 3222TIP3   OH231300   0.309   6.074   1.336 -0.1335  0.1851 -0.3356
 3222TIP3    H131301   0.217   6.057   1.315 -0.2072 -0.0897  0.1928
 3222TIP3    H231302   0.312   6.168   1.356 -0.6769 -0.1208  1.4179
 3223TIP3   OH231303   3.655   2.148   0.998 -0.2609  0.0394  0.3198
 3223TIP3    H131304   3.634   2.083   0.931  2.0987 -0.8579  0.3755
 3223TIP3    H231305   3.597   2.127   1.071 -0.9673 -0.6761 -0.4248
 3224TIP3   OH231306   4.470   4.438   7.143  0.6874 -0.0312 -0.1309
 3224TIP3    H131307   4.540   4.394   7.096 -0.2486 -1.2633 -0.4202
 3224TIP3    H231308   4.479   4.409   7.234  1.0832  0.5229  0.0140
 3225TIP3   OH231309   6.504   3.885   8.307 -0.2971 -0.0957  0.0144
 3225TIP3    H131310   6.445   3.809   8.312  1.3122 -1.5633 -1.6215
 3225TIP3    H231311   6.497   3.914   8.216  0.0042  0.9862  0.3287
 3226TIP3   OH231312   3.676   2.374   7.090 -0.0804  0.3027  0.1176
 3226TIP3    H131313   3.732   2.298   7.104 -1.1106 -0.4320  0.3677
 3226TIP3    H231314   3.656   2.372   6.996  1.0490  1.1047 -0.1526
 3227TIP3   OH231315   0.960   1.710   1.014 -0.7424 -0.9206 -0.8138
 3227TIP3    H131316   1.051   1.727   1.039 -1.2483 -0.8151  1.0565
 3227TIP3    H231317   0.950   1.754   0.929  0.9615 -1.0143 -1.0980
 3228TIP3   OH231318   2.763   2.373   7.070 -0.2577 -0.1998 -0.7168
 3228TIP3    H131319   2.683   2.323   7.055 -2.1117  2.7254 -1.4486
 3228TIP3    H231320   2.816   2.359   6.992 -0.7725 -0.9268 -0.9430
 3229TIP3   OH231321   1.820   2.092   6.802 -0.9530 -0.0821  0.6983
 3229TIP3    H131322   1.905   2.131   6.781 -0.6347 -0.3359  1.4797
 3229TIP3    H231323   1.769   2.101   6.722  0.0664 -0.6079 -0.0299
 3230TIP3   OH231324   3.926   2.223   1.667  0.0417  0.2515 -0.0106
 3230TIP3    H131325   3.940   2.177   1.749 -0.7287  1.2334  0.6929
 3230TIP3    H231326   3.831   2.239   1.665  0.1735  1.0039 -0.6664
 3231TIP3   OH231327   2.899   0.874   1.259  0.6625  0.2838 -0.0100
 3231TIP3    H131328   2.806   0.860   1.275  0.6493 -0.9702 -0.9973
 3231TIP3    H231329   2.943   0.851   1.341  0.1815 -0.2613  0.0983
 3232TIP3   OH231330   3.555   1.433   1.993 -0.2289 -0.4504 -0.1815
 3232TIP3    H131331   3.532   1.522   2.019  0.5619  0.2252 -1.6275
 3232TIP3    H231332   3.482   1.379   2.024 -0.6259  0.6592  0.8956
 3233TIP3   OH231333   3.168   2.248   1.408  0.0569  0.0519 -0.1821
 3233TIP3    H131334   3.127   2.161   1.399  0.5497 -0.4244  1.6920
 3233TIP3    H231335   3.251   2.231   1.451  0.7106  1.3695 -0.8586
 3234TIP3   OH231336   5.366   3.136   6.549  0.1270 -0.0514  0.5250
 3234TIP3    H131337   5.304   3.207   6.565  1.7462  1.2552  1.3646
 3234TIP3    H231338   5.333   3.063   6.602  0.1506  1.1516  2.2878
 3235TIP3   OH231339   3.457   1.982   1.151  0.4049 -0.1932 -1.3953
 3235TIP3    H131340   3.414   1.906   1.112 -1.0262 -0.6583  0.9255
 3235TIP3    H231341   3.388   2.046   1.162  0.6172 -0.2703  0.7516
 3236TIP3   OH231342   6.203   2.857   8.713  0.4487  0.3185  0.0452
 3236TIP3    H131343   6.158   2.815   8.640 -1.8439  0.0345  1.5339
 3236TIP3    H231344   6.137   2.913   8.754  1.4722  0.0399  2.2403
 3237TIP3   OH231345   6.036   4.680   7.220  0.4503 -0.2867  0.1311
 3237TIP3    H131346   6.090   4.653   7.146  2.4748  0.5684  1.2302
 3237TIP3    H231347   5.967   4.613   7.225  2.0623 -2.0854 -0.6326
 3238TIP3   OH231348   4.109   2.561   8.350 -0.1564 -0.2183 -0.0791
 3238TIP3    H131349   4.022   2.598   8.366  0.1870  0.3218  0.5496
 3238TIP3    H231350   4.116   2.558   8.254 -0.6191  0.3253 -0.1343
 3239TIP3   OH231351   5.094   5.225   8.123 -0.1324 -0.1250  0.0250
 3239TIP3    H131352   5.166   5.181   8.168  1.5874  0.5207 -1.9434
 3239TIP3    H231353   5.062   5.159   8.061  0.7546  0.5139 -1.1453
 3240TIP3   OH231354   3.203   2.062   7.318 -0.2065 -0.6057  0.4799
 3240TIP3    H131355   3.245   2.126   7.377  1.0039 -0.9292 -0.0052
 3240TIP3    H231356   3.117   2.048   7.357  0.0156  0.2870  1.3652
 3241TIP3   OH231357   5.759   3.190   1.064 -0.3270 -0.3158 -0.1652
 3241TIP3    H131358   5.847   3.226   1.075 -0.0325 -0.9600 -0.3407
 3241TIP3    H231359   5.704   3.266   1.047  0.1611  0.1159  0.1549
 3242TIP3   OH231360   4.443   4.312   0.384  0.9538  0.1638 -0.3467
 3242TIP3    H131361   4.352   4.341   0.381  0.5399 -1.1212 -0.5206
 3242TIP3    H231362   4.466   4.296   0.293  2.2124  2.9455 -0.6190
 3243TIP3   OH231363   1.771   5.120   1.532  0.2391  0.3728  0.1043
 3243TIP3    H131364   1.700   5.055   1.538  1.2238 -0.7404  0.2591
 3243TIP3    H231365   1.836   5.079   1.475 -0.2836  2.4370 -2.1349
 3244TIP3   OH231366   1.811   6.759   5.915 -0.1211  0.1413  0.1933
 3244TIP3    H131367   1.790   6.708   5.994  0.7894 -0.9400 -0.2358
 3244TIP3    H231368   1.792   6.699   5.843 -3.1516  1.8479 -0.6004
 3245TIP3   OH231369   3.496   6.161   0.782 -0.2475 -0.3384 -0.2559
 3245TIP3    H131370   3.555   6.087   0.795  0.9649  0.3061 -1.8059
 3245TIP3    H231371   3.514   6.220   0.855 -0.3214 -0.9943  0.2985
 3246TIP3   OH231372   6.835   0.445   1.732  0.2677 -0.3421 -0.2805
 3246TIP3    H131373   6.805   0.357   1.755  3.4403 -1.4310  0.1197
 3246TIP3    H231374   6.809   0.500   1.806 -1.3614 -0.9856 -0.3364
 3247TIP3   OH231375   1.974   0.396   8.369 -0.3580  0.1473  0.3724
 3247TIP3    H131376   2.009   0.445   8.294  0.7716 -0.3927  0.5366
 3247TIP3    H231377   1.879   0.393   8.352 -0.1976  0.5603 -0.7178
 3248TIP3   OH231378   4.484   0.951   1.796 -0.2899  0.2518 -0.1670
 3248TIP3    H131379   4.567   0.918   1.763  0.7967  0.1653  2.3835
 3248TIP3    H231380   4.506   0.988   1.882 -2.8643  0.3852  0.5074
 3249TIP3   OH231381   3.898   3.198   8.735  0.3382 -0.2386  0.3283
 3249TIP3    H131382   3.872   3.154   8.654  1.2800  0.8641 -0.6038
 3249TIP3    H231383   3.975   3.151   8.765  0.7650  0.1502 -0.1400
 3250TIP3   OH231384   0.503   1.260   0.086 -0.3565 -0.2879  0.1554
 3250TIP3    H131385   0.447   1.321   0.039  0.4099  0.8941  0.7331
 3250TIP3    H231386   0.580   1.250   0.029  1.3551  2.4629  1.7890
 3251TIP3   OH231387   0.436   1.963   7.726  0.0348  0.2690  0.5369
 3251TIP3    H131388   0.355   1.913   7.714 -0.1308  0.6626 -0.0083
 3251TIP3    H231389   0.421   2.016   7.804 -1.0993  1.9974 -0.7840
 3252TIP3   OH231390   4.569   0.976   1.150  0.5732 -0.1861 -0.0457
 3252TIP3    H131391   4.555   1.020   1.234  1.0960  0.2454 -0.1818
 3252TIP3    H231392   4.661   0.992   1.130  0.2149  0.5739 -1.1903
 3253TIP3   OH231393   1.320   6.833   7.383 -0.3234 -0.3214  0.1595
 3253TIP3    H131394   1.391   6.896   7.371  0.1566 -0.1456  3.1155
 3253TIP3    H231395   1.241   6.887   7.386 -0.0495  0.0521  1.3645
 3254TIP3   OH231396   2.965   1.944   7.698  0.3882 -0.1162 -0.0618
 3254TIP3    H131397   3.034   1.947   7.764  0.8210  1.1667 -0.5556
 3254TIP3    H231398   2.890   1.904   7.744 -0.8527  4.6458  2.7233
 3255TIP3   OH231399   0.542   6.629   6.495  0.2312 -0.1038  0.0971
 3255TIP3    H131400   0.574   6.576   6.567 -2.2530 -1.5676  0.2663
 3255TIP3    H231401   0.576   6.587   6.416 -0.0925 -0.7633  0.3065
 3256TIP3   OH231402   1.615   5.652   0.264  0.2980  0.2872  0.4934
 3256TIP3    H131403   1.539   5.595   0.250 -0.3581  0.6787  2.1328
 3256TIP3    H231404   1.617   5.664   0.359  2.3512  0.4008  0.4645
 3257TIP3   OH231405   6.397   0.443   2.013  0.3533  0.3242 -0.2623
 3257TIP3    H131406   6.340   0.418   1.940 -0.4966  0.0064  0.4901
 3257TIP3    H231407   6.361   0.397   2.089  0.6976  1.3230  0.5340
 3258TIP3   OH231408   2.566   3.730   0.986 -0.0153 -0.2732 -0.6664
 3258TIP3    H131409   2.551   3.823   0.969  1.1456 -0.2967 -2.0015
 3258TIP3    H231410   2.634   3.729   1.053 -0.5768 -0.1817 -0.0800
 3259TIP3   OH231411   2.686   6.107   5.765  0.0623 -0.3401 -0.1409
 3259TIP3    H131412   2.781   6.121   5.767 -0.1952  1.8179 -0.7487
 3259TIP3    H231413   2.664   6.109   5.672 -0.8601  1.7207  0.0651
 3260TIP3   OH231414   0.563   6.141   1.824  0.2501  0.4530 -0.4846
 3260TIP3    H131415   0.627   6.207   1.848  2.2105 -1.1318 -1.1346
 3260TIP3    H231416   0.556   6.148   1.729  1.4172 -1.0348 -0.7124
 3261TIP3   OH231417   0.519   2.152   1.317 -0.5237 -0.1722  0.2376
 3261TIP3    H131418   0.466   2.167   1.239 -0.3226  0.3131  0.1861
 3261TIP3    H231419   0.513   2.235   1.366 -0.3408 -0.3390  0.5465
 3262TIP3   OH231420   3.879   1.764   7.830  0.0275  0.3537 -0.0474
 3262TIP3    H131421   3.856   1.672   7.838 -1.1318  0.6693  0.3947
 3262TIP3    H231422   3.801   1.811   7.859  0.3221  1.4866 -1.0307
 3263TIP3   OH231423   2.708   5.783   5.495  0.0134 -0.7456  0.3090
 3263TIP3    H131424   2.741   5.785   5.585 -1.9029 -0.7079  1.0617
 3263TIP3    H231425   2.725   5.694   5.465 -1.3472 -1.4664  1.5615
 3264TIP3   OH231426   2.176   0.665   6.002  0.1405 -0.0124  0.1430
 3264TIP3    H131427   2.242   0.596   6.001  0.0599 -0.0971  0.4825
 3264TIP3    H231428   2.137   0.659   6.090  1.0667  1.3389  0.6766
 3265TIP3   OH231429   4.187   1.062   0.682  0.1155 -0.4775 -0.1160
 3265TIP3    H131430   4.224   1.139   0.726 -1.2389  0.2340 -0.1697
 3265TIP3    H231431   4.117   1.032   0.741 -1.6415  0.4065 -1.6703
 3266TIP3   OH231432   2.837   0.429   2.097  0.0694 -0.3289 -0.1851
 3266TIP3    H131433   2.906   0.483   2.136  0.6360 -1.8513  1.0560
 3266TIP3    H231434   2.874   0.340   2.098 -0.9292 -0.7989 -1.8875
 3267TIP3   OH231435   6.530   2.396   7.972 -0.8667 -0.3336 -0.5646
 3267TIP3    H131436   6.597   2.436   8.028 -1.1960 -1.5614  0.7572
 3267TIP3    H231437   6.564   2.310   7.951 -1.0278 -0.1117 -1.8027
 3268TIP3   OH231438   0.642   5.837   1.355  0.3415  0.3976 -0.5114
 3268TIP3    H131439   0.575   5.792   1.304  0.7019 -0.0942 -0.5584
 3268TIP3    H231440   0.626   5.930   1.340  1.0301  0.2744 -2.3066
 3269TIP3   OH231441   5.182   6.828   0.200  0.6624  0.3089 -0.3477
 3269TIP3    H131442   5.156   6.860   0.114  0.4730  0.5038 -0.2170
 3269TIP3    H231443   5.173   6.903   0.258  0.9264  0.2172 -0.1835
 3270TIP3   OH231444   4.737   6.248   7.253  0.3900 -0.6135 -0.1846
 3270TIP3    H131445   4.722   6.158   7.283  0.2681 -0.3192  0.6891
 3270TIP3    H231446   4.825   6.247   7.216  0.3698 -1.1034 -0.2233
 3271TIP3   OH231447   2.852   1.420   1.030 -0.0381  0.2570  0.1019
 3271TIP3    H131448   2.864   1.409   0.936 -0.2005  2.2987 -0.2081
 3271TIP3    H231449   2.941   1.432   1.064  0.0100 -0.3589  0.2117
 3272TIP3   OH231450   4.692   6.744   0.835  0.2985 -0.2930 -0.2352
 3272TIP3    H131451   4.615   6.796   0.811 -0.4843 -1.2734  0.1167
 3272TIP3    H231452   4.765   6.804   0.822 -0.4915  0.5773 -0.8344
 3273TIP3   OH231453   2.874   4.700   6.951  0.4229 -0.2543  0.7698
 3273TIP3    H131454   2.846   4.731   6.865 -1.1510 -1.3239  0.8372
 3273TIP3    H231455   2.816   4.746   7.013  0.7442 -0.3722  1.1644
 3274TIP3   OH231456   5.360   1.306   7.502  0.3233 -0.0138 -0.3497
 3274TIP3    H131457   5.434   1.315   7.442 -0.3049 -0.8943 -1.3023
 3274TIP3    H231458   5.306   1.384   7.486  1.1989  0.8137  0.6094
 3275TIP3   OH231459   6.353   5.744   5.886 -1.0410  0.3661  0.2089
 3275TIP3    H131460   6.353   5.668   5.944  0.3113 -0.8254 -1.2354
 3275TIP3    H231461   6.261   5.755   5.861 -1.0077 -2.9208 -2.0500
 3276TIP3   OH231462   5.082   5.202   0.947 -0.6216 -0.4197  0.0146
 3276TIP3    H131463   5.072   5.121   0.897  2.3937  0.0046 -1.5298
 3276TIP3    H231464   5.166   5.192   0.993 -1.6561  0.6384  2.2863
 3277TIP3   OH231465   4.245   3.976   6.793 -0.1751 -0.4339  0.2756
 3277TIP3    H131466   4.195   4.049   6.831  0.8559 -1.5446  4.2424
 3277TIP3    H231467   4.259   4.001   6.702 -1.3276  3.5018  1.0028
 3278TIP3   OH231468   6.002   2.470   0.637 -0.9651  0.2584 -0.1215
 3278TIP3    H131469   5.985   2.386   0.595 -1.6841  0.0477  0.5626
 3278TIP3    H231470   5.951   2.467   0.718  1.0381  0.2918  1.2152
 3279TIP3   OH231471   6.582   4.429   7.559 -0.2544 -0.0830  0.2244
 3279TIP3    H131472   6.577   4.349   7.507 -1.4133  1.1827 -1.7078
 3279TIP3    H231473   6.504   4.426   7.615 -1.0787  0.3189 -0.8594
 3280TIP3   OH231474   5.882   2.763   7.522 -0.1511  0.1972  0.5541
 3280TIP3    H131475   5.878   2.845   7.572 -0.8390 -0.0841  0.9664
 3280TIP3    H231476   5.955   2.777   7.460 -0.0694  1.0045  0.8142
 3281TIP3   OH231477   2.110   6.241   6.041  0.2125 -0.6969 -0.3662
 3281TIP3    H131478   2.188   6.186   6.040  0.0189 -1.0058  0.4040
 3281TIP3    H231479   2.110   6.281   6.128  0.0479  0.0910 -0.7147
 3282TIP3   OH231480   4.439   6.737   0.731 -0.4306 -0.0523 -0.0348
 3282TIP3    H131481   4.387   6.817   0.737  0.1676  0.3045  0.4837
 3282TIP3    H231482   4.375   6.670   0.705 -0.8344  0.6780 -1.0146
 3283TIP3   OH231483   5.906   1.267   7.581 -0.2428  0.4829  0.2320
 3283TIP3    H131484   5.886   1.208   7.653  1.5466  2.1317  2.2243
 3283TIP3    H231485   5.983   1.228   7.539 -0.7585 -0.0262 -0.2514
 3284TIP3   OH231486   6.144   4.180   8.529  0.1759 -0.6110  0.0875
 3284TIP3    H131487   6.234   4.202   8.554  0.2262  0.6787 -1.1020
 3284TIP3    H231488   6.130   4.226   8.446 -2.0123  0.2567  0.8541
 3285TIP3   OH231489   0.567   5.853   7.176  0.2436  0.0723  0.3264
 3285TIP3    H131490   0.514   5.929   7.199  0.2112 -0.1880  1.1585
 3285TIP3    H231491   0.521   5.779   7.216  0.3056 -0.3812 -0.4200
 3286TIP3   OH231492   5.809   5.372   8.252  0.2303  0.4330  0.1828
 3286TIP3    H131493   5.719   5.397   8.276 -0.0828 -0.4924  0.0350
 3286TIP3    H231494   5.798   5.322   8.171  1.1993  2.9719 -1.6320
 3287TIP3   OH231495   4.696   4.053   1.953  0.0211  0.6257  0.3267
 3287TIP3    H131496   4.631   4.086   2.015  0.9449  4.0396 -0.3197
 3287TIP3    H231497   4.733   3.975   1.996 -2.6122  0.1009  1.8294
 3288TIP3   OH231498   2.285   5.807   8.386  0.0003  0.0522  0.0101
 3288TIP3    H131499   2.296   5.860   8.307 -0.3280 -0.4146 -0.3520
 3288TIP3    H231500   2.214   5.747   8.365  0.2520 -0.4159  0.4808
 3289TIP3   OH231501   1.071   4.098   8.455 -0.8688 -0.1171 -0.4974
 3289TIP3    H131502   1.064   4.143   8.539  0.5859  0.7343 -0.7999
 3289TIP3    H231503   0.982   4.071   8.434 -1.3238  0.0789  1.0809
 3290TIP3   OH231504   4.414   5.213   7.420  0.0316  0.3644 -0.0925
 3290TIP3    H131505   4.376   5.162   7.349  0.6109 -1.7765  1.0442
 3290TIP3    H231506   4.379   5.174   7.500  1.1146  1.2395  0.8547
 3291TIP3   OH231507   5.024   6.706   1.114  0.3728  0.0258  0.0114
 3291TIP3    H131508   4.971   6.628   1.133  0.3617 -0.0894 -0.4686
 3291TIP3    H231509   5.095   6.703   1.178 -0.5892  0.5832  1.1565
 3292TIP3   OH231510   3.549   4.055   6.882 -0.7457  0.1448  0.3502
 3292TIP3    H131511   3.559   4.144   6.913 -1.3359 -0.0643  1.1615
 3292TIP3    H231512   3.456   4.035   6.894 -0.9273 -0.0722 -1.2210
 3293TIP3   OH231513   0.009   6.196   7.824  0.0312 -0.2094  0.8276
 3293TIP3    H131514   0.047   6.136   7.889  1.2421 -0.0765  0.2722
 3293TIP3    H231515   0.059   6.277   7.834 -0.2585  0.0496  0.2155
 3294TIP3   OH231516   5.001   5.038   7.922 -0.3464 -0.0703  0.8873
 3294TIP3    H131517   4.961   4.983   7.855 -2.4314  1.4328  0.7962
 3294TIP3    H231518   4.945   5.026   7.999  1.3712 -0.9166  2.0791
 3295TIP3   OH231519   2.132   3.311   0.929  0.7834 -0.1963  0.0148
 3295TIP3    H131520   2.199   3.360   0.976  0.2468  0.6921 -0.1361
 3295TIP3    H231521   2.109   3.239   0.988 -0.5671  1.4407  1.5702
 3296TIP3   OH231522   4.037   2.027   7.342 -0.3122 -0.3786  0.0686
 3296TIP3    H131523   4.006   1.977   7.417  1.2023 -0.6241  0.5563
 3296TIP3    H231524   4.130   2.006   7.335 -0.3516 -0.1052 -1.6871
 3297TIP3   OH231525   3.152   1.504   7.880  0.3214 -0.5916 -0.1212
 3297TIP3    H131526   3.064   1.539   7.898  0.2933 -0.3255 -0.7550
 3297TIP3    H231527   3.158   1.503   7.785  0.9393 -0.7940 -0.0813
 3298TIP3   OH231528   5.268   3.937   7.748  0.4135  0.1763  0.0459
 3298TIP3    H131529   5.253   3.989   7.669  0.5346  1.5682  0.9029
 3298TIP3    H231530   5.184   3.941   7.795  0.3468 -0.6278  0.0066
 3299TIP3   OH231531   5.581   3.487   0.485  0.2579 -0.2590 -0.5865
 3299TIP3    H131532   5.606   3.414   0.430  1.1465 -0.3295 -0.1198
 3299TIP3    H231533   5.617   3.564   0.441 -0.7850 -0.0796 -1.1427
 3300TIP3   OH231534   1.995   3.057   0.707  0.3888  0.1496 -0.2096
 3300TIP3    H131535   2.088   3.041   0.693  0.4315 -0.9820  1.1540
 3300TIP3    H231536   1.951   2.992   0.650  0.4281  0.4544 -0.5925
 3301TIP3   OH231537   2.846   6.154   8.012 -0.3897 -0.3280  0.0381
 3301TIP3    H131538   2.837   6.086   8.079  0.4342  1.8569  2.5385
 3301TIP3    H231539   2.934   6.141   7.977  0.7810  0.8091  2.2913
 3302TIP3   OH231540   4.874   4.259   0.213 -0.0903 -0.4871 -0.2406
 3302TIP3    H131541   4.912   4.214   0.138 -0.2451 -0.7191 -0.1795
 3302TIP3    H231542   4.800   4.308   0.177 -0.1899 -0.6312 -0.2354
 3303TIP3   OH231543   6.218   2.148   6.713 -0.2691 -0.4888  0.0083
 3303TIP3    H131544   6.303   2.123   6.749  0.1808  0.1783 -0.5593
 3303TIP3    H231545   6.188   2.219   6.769 -0.8951 -1.3286  0.7674
 3304TIP3   OH231546   3.374   0.248   0.308  0.1670 -0.4183 -0.6855
 3304TIP3    H131547   3.353   0.244   0.401 -1.3973 -0.4523 -1.0105
 3304TIP3    H231548   3.346   0.163   0.273  0.5109 -0.3148 -1.2390
 3305TIP3   OH231549   5.089   3.587   6.868  0.4181 -0.2751 -0.3592
 3305TIP3    H131550   5.058   3.630   6.948 -0.7364 -0.1868 -0.8333
 3305TIP3    H231551   5.029   3.514   6.855  0.0643  0.1985 -1.5826
 3306TIP3   OH231552   5.157   5.960   8.536  0.9130  0.3735 -0.3265
 3306TIP3    H131553   5.222   5.935   8.601 -0.1380 -0.1723  0.5449
 3306TIP3    H231554   5.137   5.879   8.490  1.3486  0.6768 -1.0699
 3307TIP3   OH231555   3.888   0.382   0.207 -0.3103 -0.4530 -0.5188
 3307TIP3    H131556   3.974   0.343   0.224  1.0307  0.4674 -4.1936
 3307TIP3    H231557   3.890   0.465   0.255  1.2233 -0.1169 -1.0763
 3308TIP3   OH231558   6.649   5.573   0.505  0.1887  0.2449 -0.0937
 3308TIP3    H131559   6.584   5.638   0.530 -0.6400 -1.0465  1.2382
 3308TIP3    H231560   6.722   5.587   0.566  0.0939  0.0544  0.0636
 3309TIP3   OH231561   4.085   0.982   0.190  0.1538  0.2455  0.0724
 3309TIP3    H131562   4.093   1.027   0.275 -0.7065  1.2931 -0.3732
 3309TIP3    H231563   4.159   0.922   0.187 -0.5365 -0.8018  2.1509
 3310TIP3   OH231564   1.927   3.457   7.490 -0.6554 -0.2032 -0.4842
 3310TIP3    H131565   1.998   3.507   7.451  1.0603 -0.6802  1.8132
 3310TIP3    H231566   1.907   3.389   7.426  0.6191  0.2354 -1.3863
 3311TIP3   OH231567   6.340   1.227   0.412 -0.0474 -0.2695  0.6220
 3311TIP3    H131568   6.311   1.234   0.321  2.0962  2.3932 -0.0044
 3311TIP3    H231569   6.293   1.297   0.458  1.0816  0.4154  0.8058
 3312TIP3   OH231570   1.251   3.703   0.316 -0.0505 -0.2303  0.4013
 3312TIP3    H131571   1.222   3.628   0.368 -1.7149  0.4498  0.5166
 3312TIP3    H231572   1.191   3.705   0.241  0.2773  0.7025  0.1529
 3313TIP3   OH231573   1.785   6.520   8.597 -0.0605  0.7501  0.3226
 3313TIP3    H131574   1.832   6.444   8.631  0.7424  0.7642 -0.7254
 3313TIP3    H231575   1.816   6.594   8.651  2.1888  1.0011 -1.1787
 3314TIP3   OH231576   4.619   1.448   1.737  0.0548 -0.0181  0.1677
 3314TIP3    H131577   4.536   1.489   1.714  0.8011  0.6757 -1.4781
 3314TIP3    H231578   4.603   1.406   1.822 -1.6845  0.8737  0.3205
 3315TIP3   OH231579   4.179   0.627   7.209  0.0590  0.0339  0.1878
 3315TIP3    H131580   4.118   0.658   7.142 -0.9682 -0.0988  1.0404
 3315TIP3    H231581   4.182   0.698   7.273  0.3500 -0.2040  0.4398
 3316TIP3   OH231582   4.807   4.598   7.265 -0.3061 -0.2180  1.0109
 3316TIP3    H131583   4.847   4.593   7.179  0.8680  0.2753  1.5010
 3316TIP3    H231584   4.778   4.689   7.274  1.9489  0.4862  2.0914
 3317TIP3   OH231585   6.533   2.382   6.236  0.2729  0.6606 -0.4188
 3317TIP3    H131586   6.542   2.450   6.169 -0.6389 -0.1690 -1.4312
 3317TIP3    H231587   6.447   2.343   6.219  1.0271 -1.1626 -0.2967
 3318TIP3   OH231588   3.263   5.869   8.307 -0.3258 -0.1968  0.1841
 3318TIP3    H131589   3.318   5.828   8.241  0.6541 -0.3939  1.0906
 3318TIP3    H231590   3.174   5.863   8.272  0.3369  1.2183 -1.8750
 3319TIP3   OH231591   2.482   5.064   0.696 -0.4540 -0.4235 -0.1974
 3319TIP3    H131592   2.494   5.091   0.605 -1.1265 -2.4116 -0.9199
 3319TIP3    H231593   2.423   5.130   0.733 -0.8086 -0.0247 -1.4342
 3320TIP3   OH231594   6.693   3.307   7.415  0.0495  0.0732 -0.2951
 3320TIP3    H131595   6.605   3.305   7.452  0.0046 -1.1477 -0.4319
 3320TIP3    H231596   6.748   3.269   7.484  0.3570  0.1702 -0.4863
 3321TIP3   OH231597   1.615   1.673   1.242 -0.5140 -0.7390  0.1548
 3321TIP3    H131598   1.537   1.704   1.195  0.5474 -1.7991 -2.5074
 3321TIP3    H231599   1.584   1.598   1.291 -1.5681  0.0815  0.8051
 3322TIP3   OH231600   0.837   5.614   1.740 -0.7891 -0.3698 -0.0651
 3322TIP3    H131601   0.924   5.609   1.699  0.1169  0.9446  1.5510
 3322TIP3    H231602   0.783   5.661   1.676 -0.3403 -1.2593 -1.1197
 3323TIP3   OH231603   3.746   1.062   0.444  0.6209  0.3978 -0.1407
 3323TIP3    H131604   3.759   0.980   0.492 -1.8447 -0.6722 -1.1480
 3323TIP3    H231605   3.713   1.035   0.359 -0.8721  2.4587 -0.2869
 3324TIP3   OH231606   0.551   1.600   0.052  0.5265  0.1318  0.1451
 3324TIP3    H131607   0.460   1.632   0.052  1.1229  1.9936  1.1327
 3324TIP3    H231608   0.553   1.533  -0.016 -1.4890  0.3451 -0.1872
 3325TIP3   OH231609   4.098   5.636   0.358 -0.5388  0.5392  0.0514
 3325TIP3    H131610   4.169   5.679   0.310 -0.7974  0.2484 -0.6007
 3325TIP3    H231611   4.065   5.570   0.298  0.4416 -1.2219  1.3591
 3326TIP3   OH231612   0.579   0.337   6.619 -0.2958  0.4296  1.0079
 3326TIP3    H131613   0.623   0.268   6.669  0.8076  0.1083 -0.3825
 3326TIP3    H231614   0.608   0.418   6.660  1.4715  0.2149  0.2318
 3327TIP3   OH231615   3.842   1.339   1.777  0.5802  0.1902 -0.1293
 3327TIP3    H131616   3.805   1.427   1.770  0.1587  0.0213 -0.0212
 3327TIP3    H231617   3.789   1.284   1.720 -0.1800 -0.3155  1.0238
 3328TIP3   OH231618   3.612   2.792   7.283 -0.3840  0.0581  0.0860
 3328TIP3    H131619   3.631   2.850   7.357  1.7601 -0.8677  0.3335
 3328TIP3    H231620   3.642   2.706   7.312 -1.5652 -0.7750 -1.0626
 3329TIP3   OH231621   3.159   4.143   8.682 -0.0193  0.4233  0.2268
 3329TIP3    H131622   3.154   4.179   8.594  2.1951 -2.1527 -1.1210
 3329TIP3    H231623   3.168   4.048   8.669 -4.1789 -0.6972  3.4368
 3330TIP3   OH231624   2.680   6.148   7.795 -0.0277 -0.4788  0.2379
 3330TIP3    H131625   2.723   6.167   7.878 -1.0840 -0.2156  0.7523
 3330TIP3    H231626   2.586   6.157   7.814 -0.3523 -1.5832 -0.6863
 3331TIP3   OH231627   4.486   0.070   1.900 -0.5223 -0.8603 -0.2517
 3331TIP3    H131628   4.432   0.083   1.978  1.2868 -0.5659  1.0012
 3331TIP3    H231629   4.573   0.050   1.934  0.8680  1.4670 -2.1441
 3332TIP3   OH231630   4.111   4.015   7.353 -0.0523  0.5553  0.0869
 3332TIP3    H131631   4.160   4.019   7.435 -1.3627  1.9562  0.8490
 3332TIP3    H231632   4.178   4.007   7.285  1.1715  1.2518  1.1702
 3333TIP3   OH231633   6.422   1.307   0.113 -0.4008  0.5717  0.3199
 3333TIP3    H131634   6.491   1.331   0.174  0.4725 -0.5547 -0.1852
 3333TIP3    H231635   6.398   1.390   0.070  2.6535  0.6640 -1.5290
 3334TIP3   OH231636   4.195   4.597   0.750  0.2378 -0.0371  0.4844
 3334TIP3    H131637   4.216   4.540   0.824  0.2437 -0.9788 -0.2181
 3334TIP3    H231638   4.104   4.576   0.729  0.5642 -0.5917 -0.4550
 3335TIP3   OH231639   4.353   5.772   0.287  0.5420 -0.3273  0.1708
 3335TIP3    H131640   4.416   5.839   0.262  1.0392 -0.9913 -0.3754
 3335TIP3    H231641   4.376   5.750   0.377  0.3802  0.2246  0.3512
 3336TIP3   OH231642   6.232   4.107   7.421 -0.6113  0.1922  0.2055
 3336TIP3    H131643   6.217   4.069   7.507 -1.1450  1.8759  0.8881
 3336TIP3    H231644   6.181   4.052   7.361 -0.1663 -1.0403  0.9210
 3337TIP3   OH231645   3.906   0.204   6.399  0.5974  0.2086  0.5568
 3337TIP3    H131646   3.826   0.239   6.359  0.1977 -0.8546  0.3928
 3337TIP3    H231647   3.875   0.152   6.473  1.1325 -0.3620  0.3832
 3338TIP3   OH231648   5.448   1.380   7.104  0.7402 -0.4073 -0.1126
 3338TIP3    H131649   5.461   1.300   7.153 -0.3035  0.0975  1.0550
 3338TIP3    H231650   5.535   1.419   7.096  1.1811 -1.4092 -0.2866
 3339TIP3   OH231651   2.905   3.548   6.623 -0.5475  0.3687 -0.3605
 3339TIP3    H131652   2.877   3.627   6.669 -0.9678 -0.1743  0.3432
 3339TIP3    H231653   2.963   3.579   6.554 -0.2380  1.2430  0.2743
 3340TIP3   OH231654   5.747   0.852   0.219 -0.0056  0.4779  0.3984
 3340TIP3    H131655   5.731   0.860   0.313 -1.2244  2.8071  0.0807
 3340TIP3    H231656   5.839   0.875   0.209  0.5995 -1.4226  1.1317
 3341TIP3   OH231657   4.781   5.893   2.237  0.8004 -0.0194  0.0255
 3341TIP3    H131658   4.750   5.921   2.324  2.2835  0.3364  0.4645
 3341TIP3    H231659   4.871   5.923   2.233  1.3892 -1.7862 -0.8652
 3342TIP3   OH231660   2.735   1.682   6.762  0.1853  0.0550  0.3502
 3342TIP3    H131661   2.826   1.692   6.790  0.0181 -2.1932  1.9520
 3342TIP3    H231662   2.730   1.595   6.724 -1.5676 -0.4844  1.6460
 3343TIP3   OH231663   3.571   4.190   0.475  0.5211  0.7554 -1.0173
 3343TIP3    H131664   3.534   4.268   0.431  1.0013  0.4300 -2.0384
 3343TIP3    H231665   3.534   4.116   0.426 -0.2467  0.3094  0.2000
 3344TIP3   OH231666   3.856   2.665   8.433 -0.0519  0.0732  0.7434
 3344TIP3    H131667   3.788   2.677   8.367  0.2606 -0.2002  0.3735
 3344TIP3    H231668   3.810   2.674   8.517 -0.3963  0.7237  0.4957
 3345TIP3   OH231669   4.533   2.834   8.622  0.4733 -0.0292  0.7222
 3345TIP3    H131670   4.571   2.746   8.615  0.9277  0.1211  1.2531
 3345TIP3    H231671   4.565   2.867   8.706 -2.2042 -0.5661  2.0797
 3346TIP3   OH231672   5.620   2.128   7.861 -0.1682 -0.3129 -0.0149
 3346TIP3    H131673   5.668   2.117   7.943  0.4067 -2.0080 -0.5426
 3346TIP3    H231674   5.682   2.104   7.793 -0.0328  2.8712 -1.1538
 3347TIP3   OH231675   4.601   5.437   6.777  0.3268 -0.5412 -0.3976
 3347TIP3    H131676   4.667   5.370   6.757  0.8296  0.2080 -1.3504
 3347TIP3    H231677   4.540   5.394   6.836  1.3563 -1.4369  0.0431
 3348TIP3   OH231678   0.517   2.916   7.915 -0.1974  0.3071 -0.1160
 3348TIP3    H131679   0.500   2.989   7.855 -1.2970 -0.4156 -0.7311
 3348TIP3    H231680   0.431   2.897   7.955  0.6252  1.2174  2.2533
 3349TIP3   OH231681   5.048   2.128   8.554  0.0123  0.0813  0.0950
 3349TIP3    H131682   5.116   2.174   8.506  0.3376 -1.2255 -0.7685
 3349TIP3    H231683   5.087   2.109   8.640  0.9254 -0.9969 -0.5227
 3350TIP3   OH231684   3.893   4.792   8.099 -0.6291 -0.2224  0.5774
 3350TIP3    H131685   3.909   4.703   8.132  1.1699  0.1662  0.8094
 3350TIP3    H231686   3.860   4.840   8.175 -2.2986 -0.8344  0.2830
 3351TIP3   OH231687   0.346   3.693   8.531 -0.6366 -0.3878  0.1695
 3351TIP3    H131688   0.398   3.773   8.533 -0.6973 -0.3497  0.2177
 3351TIP3    H231689   0.319   3.685   8.439 -1.0498 -0.0812  0.2601
 3352TIP3   OH231690   3.383   2.781   6.758  0.3788  0.0528 -0.5504
 3352TIP3    H131691   3.398   2.871   6.731  1.2300 -0.2126 -0.9878
 3352TIP3    H231692   3.421   2.775   6.846  1.7210 -0.2715 -1.1324
 3353TIP3   OH231693   6.656   6.512   7.899  0.2744  0.4482 -0.1865
 3353TIP3    H131694   6.633   6.496   7.808 -1.0453  3.0940 -0.4316
 3353TIP3    H231695   6.669   6.607   7.904  0.1916  0.4001  2.3972
 3354TIP3   OH231696   6.470   6.615   0.812 -0.1702  0.0286 -0.0702
 3354TIP3    H131697   6.460   6.636   0.905  0.6511  0.0157  0.0295
 3354TIP3    H231698   6.425   6.532   0.801 -0.9724  0.4290  0.1434
 3355TIP3   OH231699   3.084   1.086   8.248 -0.8921 -0.4027 -0.6412
 3355TIP3    H131700   3.006   1.054   8.295  0.1315 -0.3712  1.1774
 3355TIP3    H231701   3.084   1.181   8.264  0.3070 -0.5948  0.6797
 3356TIP3   OH231702   6.503   5.869   6.689  0.2664 -0.1560  0.1088
 3356TIP3    H131703   6.555   5.789   6.681 -0.0534 -0.1537 -3.8818
 3356TIP3    H231704   6.446   5.854   6.764  1.7562 -2.6699  0.8509
 3357TIP3   OH231705   0.965   1.302   7.540  0.9140  0.7777 -0.3368
 3357TIP3    H131706   0.943   1.214   7.570 -0.3373  0.5050 -1.9025
 3357TIP3    H231707   0.945   1.358   7.615  3.0058 -0.3226  1.1791
 3358TIP3   OH231708   1.899   6.612   0.857 -0.6961  0.1786 -0.1639
 3358TIP3    H131709   1.806   6.603   0.837 -1.1687 -0.3781  1.9658
 3358TIP3    H231710   1.930   6.523   0.873 -0.1737  0.4803  0.5894
 3359TIP3   OH231711   1.281   4.358   8.530 -0.3450  0.3657  0.2506
 3359TIP3    H131712   1.206   4.380   8.476  0.5805  0.7747 -0.9122
 3359TIP3    H231713   1.347   4.327   8.468  1.0976  1.7651  1.0252
 3360TIP3   OH231714   6.170   6.203   8.216 -0.5500 -0.1235  0.0505
 3360TIP3    H131715   6.257   6.215   8.255 -0.8783 -2.0627  1.5119
 3360TIP3    H231716   6.189   6.169   8.128  0.1774  0.3014  0.0297
 3361TIP3   OH231717   4.958   0.707   1.483 -0.1455  0.3520 -0.8788
 3361TIP3    H131718   4.977   0.617   1.458  0.0992  0.5299 -1.3342
 3361TIP3    H231719   4.937   0.702   1.577 -0.6983 -0.2537 -1.0304
 3362TIP3   OH231720   0.423   5.388   0.576  0.3188  0.3325  0.4371
 3362TIP3    H131721   0.503   5.407   0.527 -1.3718  1.2944 -2.1739
 3362TIP3    H231722   0.410   5.465   0.631  1.2711  0.0850  1.0206
 3363TIP3   OH231723   4.182   6.557   0.799  0.4346 -0.0907 -0.3411
 3363TIP3    H131724   4.231   6.525   0.875 -0.5603 -0.2402  0.2568
 3363TIP3    H231725   4.111   6.494   0.788  0.0789  0.3918 -0.8770
 3364TIP3   OH231726   2.526   2.834   7.487 -0.1511  0.3304 -0.4626
 3364TIP3    H131727   2.493   2.744   7.491  0.8876 -0.0291  0.1876
 3364TIP3    H231728   2.612   2.827   7.446  0.3014  0.9215  0.3568
 3365TIP3   OH231729   2.064   4.177   0.386 -0.5856 -0.4858  0.3871
 3365TIP3    H131730   2.121   4.231   0.440 -0.7198 -0.2493  0.2946
 3365TIP3    H231731   2.015   4.124   0.448 -1.0640  0.1060  0.5265
 3366TIP3   OH231732   4.931   3.150   7.590  0.5504  0.0829 -0.1899
 3366TIP3    H131733   4.920   3.056   7.599 -3.3691  0.4570  0.9169
 3366TIP3    H231734   4.935   3.165   7.495 -0.0584 -1.1137 -0.4129
 3367TIP3   OH231735   4.612   4.524   0.507  0.0205  0.4293  0.1325
 3367TIP3    H131736   4.627   4.444   0.457 -0.7262 -0.5723  1.4693
 3367TIP3    H231737   4.554   4.577   0.451  2.4261  1.1633 -1.8316
 3368TIP3   OH231738   1.392   2.357   2.276 -0.3605  0.0518  0.3203
 3368TIP3    H131739   1.435   2.375   2.359 -1.0637 -1.8685  1.1788
 3368TIP3    H231740   1.463   2.345   2.213  0.1888  1.1231  0.7244
 3369TIP3   OH231741   5.108   6.864   2.194 -0.0055 -0.6894 -0.1122
 3369TIP3    H131742   5.047   6.802   2.151  0.4540 -2.1639  1.2683
 3369TIP3    H231743   5.084   6.861   2.286  0.3255  0.9106  0.0458
 3370TIP3   OH231744   0.901   1.664   1.304 -0.1671  0.4115  0.7610
 3370TIP3    H131745   0.814   1.626   1.296  0.0247 -0.4579  2.4052
 3370TIP3    H231746   0.958   1.606   1.254 -0.1956 -0.3406  1.5836
 3371TIP3   OH231747   5.528   6.454   0.651 -0.0295  0.0048 -0.8672
 3371TIP3    H131748   5.464   6.490   0.713 -0.0878 -0.0436 -0.9000
 3371TIP3    H231749   5.587   6.403   0.706 -0.0230  0.0437 -0.8379
 3372TIP3   OH231750   4.335   5.082   7.202  0.2956  0.0695 -0.2946
 3372TIP3    H131751   4.297   5.007   7.248  1.7309  0.1157  1.0485
 3372TIP3    H231752   4.260   5.126   7.162 -0.7988 -1.0065  0.4952
 3373TIP3   OH231753   2.877   0.948   2.285 -0.1016  0.0513 -0.1355
 3373TIP3    H131754   2.923   1.027   2.314 -1.1134  1.3337 -1.7902
 3373TIP3    H231755   2.946   0.885   2.267  0.6331 -0.3039  3.3485
 3374TIP3   OH231756   6.856   4.047   8.524 -0.3110  0.4025 -0.5430
 3374TIP3    H131757   6.846   4.119   8.462  1.0726 -2.1455 -4.0641
 3374TIP3    H231758   6.914   3.985   8.480 -2.0187 -3.2805  1.8394
 3375TIP3   OH231759   2.900   3.063   7.283  0.2704 -0.4055  0.0412
 3375TIP3    H131760   2.923   2.992   7.343  1.1730 -0.8223 -0.7570
 3375TIP3    H231761   2.819   3.034   7.241 -2.3854  1.3940  3.4087
 3376TIP3   OH231762   6.228   3.772   7.753 -0.0105 -0.1184  0.2099
 3376TIP3    H131763   6.143   3.805   7.725 -0.5232 -0.9283  0.7803
 3376TIP3    H231764   6.221   3.677   7.745  0.7312 -0.2143  0.5690
 3377TIP3   OH231765   0.700   3.318   0.897  0.1974  0.1155  0.0568
 3377TIP3    H131766   0.794   3.308   0.889  0.1772  0.2202 -0.3024
 3377TIP3    H231767   0.666   3.311   0.808 -0.0576  0.8396  0.0851
 3378TIP3   OH231768   3.037   2.467   7.668  0.3136 -0.4063  0.0720
 3378TIP3    H131769   2.962   2.425   7.626  0.0418  1.1031 -1.0212
 3378TIP3    H231770   3.021   2.456   7.761 -1.1515 -0.3307 -0.1422
 3379TIP3   OH231771   3.020   5.381   7.937  0.0036  0.2089  0.1047
 3379TIP3    H131772   3.093   5.355   7.994  1.0409  2.5608 -0.0392
 3379TIP3    H231773   2.945   5.388   7.997  0.7780  1.3712  0.9776
 3380TIP3   OH231774   5.675   0.658   1.460 -0.1851  0.0439  0.4826
 3380TIP3    H131775   5.635   0.614   1.535 -0.6600  0.5728  0.5448
 3380TIP3    H231776   5.646   0.749   1.467  1.8923  0.7197  1.1415
 3381TIP3   OH231777   2.837   4.236   1.166  0.5594 -0.2732  0.1411
 3381TIP3    H131778   2.869   4.224   1.077  1.4243 -1.7547  0.6212
 3381TIP3    H231779   2.898   4.298   1.206  2.3863 -2.3476  0.7579
 3382TIP3   OH231780   3.228   6.796   2.401  0.3032  0.1664 -0.0909
 3382TIP3    H131781   3.321   6.779   2.416  0.4861  1.4875  0.3819
 3382TIP3    H231782   3.199   6.723   2.345  1.2472 -1.0666  0.9714
 3383TIP3   OH231783   2.229   2.487   1.127 -0.6485 -0.1002 -0.6556
 3383TIP3    H131784   2.207   2.418   1.190 -0.4783 -1.0165 -1.5630
 3383TIP3    H231785   2.145   2.530   1.109 -0.9799 -0.8386 -0.9455
 3384TIP3   OH231786   0.171   6.646   6.039 -0.7328  0.4870  0.2814
 3384TIP3    H131787   0.183   6.735   6.009 -1.4711  1.1208  1.7522
 3384TIP3    H231788   0.141   6.655   6.130 -0.4458 -1.2582  0.5900
 3385TIP3   OH231789   5.937   5.951   7.456  0.4404 -0.0728  0.4539
 3385TIP3    H131790   5.928   5.923   7.365 -0.2300 -0.2913  0.5768
 3385TIP3    H231791   5.889   5.885   7.506 -0.6129  0.9262  0.8092
 3386TIP3   OH231792   4.367   6.050   0.521  0.5861 -0.5497 -0.2520
 3386TIP3    H131793   4.352   6.091   0.606  0.3186 -0.5810 -0.2831
 3386TIP3    H231794   4.433   5.982   0.538  0.6441 -0.4559 -0.1004
 3387TIP3   OH231795   3.454   3.336   1.964 -0.0157  0.0624 -0.4338
 3387TIP3    H131796   3.469   3.429   1.981  1.2535 -0.3143  0.6732
 3387TIP3    H231797   3.529   3.292   2.005 -0.4109 -1.4209 -1.2521
 3388TIP3   OH231798   3.723   2.664   8.664  0.2998 -0.4734 -0.1827
 3388TIP3    H131799   3.633   2.639   8.644 -0.6113  1.7818  0.7372
 3388TIP3    H231800   3.741   2.625   8.749 -0.0815 -0.3407 -0.0398
 3389TIP3   OH231801   0.482   2.782   0.710  0.3968  0.1348 -0.5623
 3389TIP3    H131802   0.504   2.872   0.684 -0.3184  0.4694 -0.0402
 3389TIP3    H231803   0.452   2.740   0.630 -0.5424  0.7683 -0.5593
 3390TIP3   OH231804   6.374   5.694   8.726 -0.2723 -0.1192  0.4463
 3390TIP3    H131805   6.361   5.703   8.632  0.5413  1.8760  0.4529
 3390TIP3    H231806   6.306   5.634   8.755 -1.4810  0.3804 -1.2064
 3391TIP3   OH231807   4.236   0.925   7.666  0.0182  0.3133  0.2161
 3391TIP3    H131808   4.232   0.861   7.736 -0.1234 -0.2217 -0.2782
 3391TIP3    H231809   4.171   0.991   7.689 -0.7162 -0.3627  0.0865
 3392TIP3   OH231810   1.536   1.446   0.496 -0.0606  0.1906  0.1372
 3392TIP3    H131811   1.514   1.518   0.555 -0.1432  0.0038  0.3338
 3392TIP3    H231812   1.488   1.466   0.415  0.7988  0.9478 -0.2055
 3393TIP3   OH231813   0.184   4.354   1.638  0.0956  0.8710  0.5722
 3393TIP3    H131814   0.136   4.273   1.653  1.5857 -0.1620 -0.0485
 3393TIP3    H231815   0.165   4.408   1.714 -0.8779 -0.0770  1.0209
 3394TIP3   OH231816   6.039   5.691   8.299 -0.3578  0.1872 -0.4093
 3394TIP3    H131817   5.965   5.699   8.239 -0.8102  0.8603  0.2078
 3394TIP3    H231818   6.109   5.741   8.258 -0.4885  0.1741 -0.6483
 3395TIP3   OH231819   5.415   2.665   6.689 -0.0969 -0.0247 -0.1812
 3395TIP3    H131820   5.430   2.610   6.613  1.4585  0.0494  0.0419
 3395TIP3    H231821   5.380   2.747   6.654 -0.9322 -0.5759 -0.6513
 3396TIP3   OH231822   2.578   2.329   2.140  0.6565  0.3238 -0.2888
 3396TIP3    H131823   2.628   2.338   2.059  0.5049  1.9044 -0.2428
 3396TIP3    H231824   2.635   2.365   2.208  0.9685 -1.4151  0.4136
 3397TIP3   OH231825   2.453   6.004   0.254  0.1559  0.3713  0.3460
 3397TIP3    H131826   2.491   6.001   0.167 -0.9495  1.9148 -0.2336
 3397TIP3    H231827   2.362   6.031   0.240  0.3884  2.3459  2.0650
 3398TIP3   OH231828   1.743   4.923   6.850  0.4683  0.2857 -0.1671
 3398TIP3    H131829   1.676   4.866   6.888 -0.6915  1.1952 -0.7838
 3398TIP3    H231830   1.814   4.864   6.825 -0.4956 -0.8264 -0.3455
 3399TIP3   OH231831   6.075   5.377   6.787  0.3130 -0.8587  0.0367
 3399TIP3    H131832   6.053   5.302   6.731  0.1977  0.4254 -1.7140
 3399TIP3    H231833   6.170   5.382   6.784  0.2471  1.0318 -2.7062
 3400TIP3   OH231834   4.801   0.979   1.014  0.1408  0.8606  0.1289
 3400TIP3    H131835   4.848   0.943   1.089 -0.1235  1.7350  0.7303
 3400TIP3    H231836   4.830   1.070   1.010  0.8236  0.5969 -1.3744
 3401TIP3   OH231837   4.876   2.463   1.076  0.3943  0.6360 -0.4031
 3401TIP3    H131838   4.860   2.457   0.982 -0.9961 -0.3791 -0.1352
 3401TIP3    H231839   4.849   2.552   1.099 -1.2801  0.2279 -0.6442
 3402TIP3   OH231840   2.849   5.039   7.939 -0.0416  0.3015  0.2271
 3402TIP3    H131841   2.933   5.015   7.899 -0.9690 -0.1489 -1.5543
 3402TIP3    H231842   2.798   5.077   7.867 -1.2446  0.9077  1.3586
 3403TIP3   OH231843   5.830   2.755   6.769  0.1447  0.2142 -0.2663
 3403TIP3    H131844   5.906   2.804   6.802  0.7812 -1.7256  1.3447
 3403TIP3    H231845   5.805   2.801   6.689  0.8498  2.9820  0.9722
 3404TIP3   OH231846   4.260   6.866   1.304  0.3168 -0.7434  0.2046
 3404TIP3    H131847   4.246   6.954   1.339 -1.0763 -1.2004  0.8601
 3404TIP3    H231848   4.188   6.814   1.339  0.6764 -1.9764 -0.7975
 3405TIP3   OH231849   6.753   3.913   7.022  0.5511  0.6295  0.2247
 3405TIP3    H131850   6.838   3.868   7.018  0.5028  0.6437 -1.4096
 3405TIP3    H231851   6.691   3.845   7.045  0.6295  0.0214 -1.2562
 3406TIP3   OH231852   2.480   3.848   0.642  0.2751  0.1481 -0.0682
 3406TIP3    H131853   2.524   3.886   0.566 -0.8410 -0.6965 -1.1855
 3406TIP3    H231854   2.551   3.818   0.699  1.1719  2.5448  0.2019
 3407TIP3   OH231855   0.782   5.636   6.841  0.4454  0.5101  0.0171
 3407TIP3    H131856   0.724   5.705   6.874 -1.0596 -0.7603  0.1712
 3407TIP3    H231857   0.842   5.619   6.914 -0.1626  0.6033  0.5464
 3408TIP3   OH231858   5.750   5.190   8.032 -0.1805 -0.0084  0.3780
 3408TIP3    H131859   5.674   5.179   7.974 -2.6017  2.4870  2.7641
 3408TIP3    H231860   5.741   5.121   8.097 -0.0481 -0.0791  0.3220
 3409TIP3   OH231861   6.703   0.456   0.116 -0.6920  0.0898 -0.0984
 3409TIP3    H131862   6.755   0.400   0.057 -0.4164  0.9856 -0.7222
 3409TIP3    H231863   6.655   0.514   0.057 -2.8770 -1.0885  0.4244
 3410TIP3   OH231864   3.297   6.376   7.024  0.0246  0.2822 -0.0962
 3410TIP3    H131865   3.345   6.294   7.012  0.2141  0.4859 -0.7645
 3410TIP3    H231866   3.321   6.405   7.112  1.2126  0.4328 -0.4571
 3411TIP3   OH231867   5.178   3.258   1.622 -0.1024 -0.3784 -0.2196
 3411TIP3    H131868   5.198   3.242   1.530 -0.2860 -1.1384 -0.1334
 3411TIP3    H231869   5.100   3.313   1.621 -0.2921 -0.6523 -0.5113
 3412TIP3   OH231870   0.096   5.546   6.788 -0.0199 -0.0867 -0.5224
 3412TIP3    H131871   0.073   5.561   6.697  2.9388  0.2405 -1.3354
 3412TIP3    H231872   0.124   5.631   6.821  1.9800 -0.7319 -0.3679
 3413TIP3   OH231873   4.595   2.716   6.265 -0.6649  0.5824 -0.0505
 3413TIP3    H131874   4.595   2.620   6.258  1.5749  0.4496  0.9911
 3413TIP3    H231875   4.586   2.746   6.175 -2.3839 -0.5683 -0.3141
 3414TIP3   OH231876   5.569   5.817   7.101  0.6399 -0.2573  0.2552
 3414TIP3    H131877   5.546   5.884   7.165 -0.4821  1.0432 -1.4364
 3414TIP3    H231878   5.503   5.749   7.112  1.4662 -0.8968  1.6022
 3415TIP3   OH231879   3.941   0.290   7.946  0.2899 -0.2023 -0.3161
 3415TIP3    H131880   3.957   0.325   8.034  0.2645  2.0596 -1.1412
 3415TIP3    H231881   4.028   0.266   7.914  0.3648 -0.5289  0.1222
 3416TIP3   OH231882   3.036   4.433   1.569 -0.1526 -0.3878  0.1124
 3416TIP3    H131883   2.944   4.429   1.545  0.4772 -0.2125 -2.6641
 3416TIP3    H231884   3.068   4.516   1.532  1.6123 -1.5567 -1.1751
 3417TIP3   OH231885   4.854   5.310   7.211  0.6761  0.5100 -0.7898
 3417TIP3    H131886   4.775   5.257   7.227  0.7893  0.5110 -0.1884
 3417TIP3    H231887   4.900   5.308   7.295 -0.3930  3.3926 -0.0280
 3418TIP3   OH231888   6.682   2.943   1.199 -0.1394 -0.6591  0.5119
 3418TIP3    H131889   6.619   2.900   1.255  0.3822  0.9639  2.4545
 3418TIP3    H231890   6.767   2.909   1.228  0.0281 -2.8640 -2.1050
 3419TIP3   OH231891   5.158   4.663   1.587  0.0863 -0.7114 -0.0493
 3419TIP3    H131892   5.213   4.679   1.664 -0.7121  1.9070  0.0990
 3419TIP3    H231893   5.212   4.690   1.513 -0.1487 -0.3922 -0.1100
 3420TIP3   OH231894   4.265   4.995   0.275 -0.1556 -0.3786  0.0317
 3420TIP3    H131895   4.211   4.936   0.223 -2.4851  1.5838  0.0534
 3420TIP3    H231896   4.261   4.958   0.364 -2.3296  0.1822  0.2326
 3421TIP3   OH231897   4.317   3.759   7.409 -0.0902 -0.2249 -0.0163
 3421TIP3    H131898   4.390   3.706   7.441  1.0446  0.6444 -1.0636
 3421TIP3    H231899   4.297   3.818   7.482  0.3074 -0.4227  0.2548
 3422TIP3   OH231900   5.235   1.105   6.329 -0.1094 -0.1723  0.4787
 3422TIP3    H131901   5.258   1.018   6.361  0.5969  0.5409  1.9979
 3422TIP3    H231902   5.302   1.163   6.366 -1.3207  1.2031  0.5857
 3423TIP3   OH231903   1.667   1.895   1.372  0.7407  0.5014 -0.1252
 3423TIP3    H131904   1.699   1.865   1.457  1.6556  1.3433 -0.1583
 3423TIP3    H231905   1.679   1.819   1.315  0.0734 -0.0871  0.4856
 3424TIP3   OH231906   0.745   4.874   6.427  0.7411 -0.4793 -0.1484
 3424TIP3    H131907   0.664   4.833   6.395  0.5527 -0.3284  0.1265
 3424TIP3    H231908   0.742   4.963   6.391  0.7502 -0.4532 -0.0850
 3425TIP3   OH231909   3.422   0.882   6.882  0.0637  0.3386 -0.4426
 3425TIP3    H131910   3.509   0.899   6.845  0.8278  0.9949  1.5169
 3425TIP3    H231911   3.433   0.802   6.934 -0.6690  0.0730 -0.6895
 3426TIP3   OH231912   5.631   3.266   8.344 -0.2253 -0.3769  0.0110
 3426TIP3    H131913   5.583   3.325   8.285  3.1809 -1.0076 -3.8240
 3426TIP3    H231914   5.674   3.324   8.406 -2.8857  0.4262  1.2501
 3427TIP3   OH231915   3.496   3.135   7.358  0.0429 -0.1515  0.4136
 3427TIP3    H131916   3.539   3.072   7.415 -1.8713 -1.8180  0.1532
 3427TIP3    H231917   3.504   3.097   7.270 -0.5079  0.3385  0.1436
 3428TIP3   OH231918   6.671   1.538   1.917 -0.2085 -0.5021  0.1448
 3428TIP3    H131919   6.646   1.630   1.925  0.6985 -0.3281  1.4094
 3428TIP3    H231920   6.762   1.536   1.947  0.1297 -1.6557 -0.8751
 3429TIP3   OH231921   3.553   3.949   0.273  0.5731 -0.2291 -0.3024
 3429TIP3    H131922   3.469   3.905   0.259 -0.2197  1.1173  0.1352
 3429TIP3    H231923   3.547   4.030   0.222  1.1141  0.4880  0.7406
 3430TIP3   OH231924   3.476   4.482   6.609 -0.4641  0.6803 -0.0962
 3430TIP3    H131925   3.484   4.429   6.530  0.9592  0.6188  0.0613
 3430TIP3    H231926   3.441   4.565   6.579 -0.7895  0.3401 -0.6563
 3431TIP3   OH231927   1.831   5.002   7.108 -0.1100 -0.1802  0.0933
 3431TIP3    H131928   1.859   4.912   7.096  0.8956  0.1940 -0.4900
 3431TIP3    H231929   1.818   5.035   7.020  0.4539  0.5224  0.2633
 3432TIP3   OH231930   5.805   2.782   7.118  0.3847 -0.0036 -0.0104
 3432TIP3    H131931   5.822   2.785   7.212 -0.5019 -1.8078  0.2491
 3432TIP3    H231932   5.842   2.698   7.090 -0.5003 -0.0724 -1.0203
 3433TIP3   OH231933   2.256   3.949   6.923  0.0004  0.0462  0.0026
 3433TIP3    H131934   2.267   4.044   6.913 -2.0008  0.4593  1.2645
 3433TIP3    H231935   2.303   3.927   7.003  0.3175 -0.0069 -0.1965
 3434TIP3   OH231936   5.433   4.920   1.280  1.2971  0.0288 -0.3031
 3434TIP3    H131937   5.519   4.899   1.245  1.6428 -0.3858  0.7345
 3434TIP3    H231938   5.437   5.013   1.302  1.6745 -0.1112  0.2420
 3435TIP3   OH231939   2.042   5.512   0.059 -0.4613 -0.1817 -0.2304
 3435TIP3    H131940   2.007   5.503  -0.030 -0.2395  0.5867 -0.3980
 3435TIP3    H231941   2.029   5.425   0.098 -0.3384 -0.6012 -1.0905
 3436TIP3   OH231942   6.145   1.693   0.042  0.2722  0.4649  0.1053
 3436TIP3    H131943   6.115   1.715   0.130  0.5358  2.0548 -0.1560
 3436TIP3    H231944   6.091   1.748  -0.015  0.1182 -0.5325 -0.7351
 3437TIP3   OH231945   0.597   2.765   7.429  0.2466  0.3141 -0.3689
 3437TIP3    H131946   0.581   2.671   7.443  0.3212  0.4523  0.7160
 3437TIP3    H231947   0.610   2.773   7.334 -0.7216 -0.6244 -0.6004
 3438TIP3   OH231948   1.059   5.933   1.058 -0.4922  0.2404 -0.1674
 3438TIP3    H131949   1.136   5.926   1.116  0.2396  1.6990 -0.9084
 3438TIP3    H231950   0.992   5.880   1.101  0.4844  0.0913  1.2534
 3439TIP3   OH231951   0.956   3.590   1.159 -0.5025  0.0705  0.6606
 3439TIP3    H131952   0.952   3.665   1.217 -1.9396  0.3887  0.2001
 3439TIP3    H231953   0.874   3.543   1.174  0.5851 -1.7471  1.3393
 3440TIP3   OH231954   2.353   1.825   8.412 -0.1496 -0.4826  0.7148
 3440TIP3    H131955   2.280   1.790   8.463  0.5711  0.3230  2.3567
 3440TIP3    H231956   2.409   1.868   8.476  0.8277  0.5308 -0.7624
 3441TIP3   OH231957   1.890   5.351   7.654  0.4970 -0.0959  0.0693
 3441TIP3    H131958   1.884   5.273   7.598  1.8894 -1.0234  1.1529
 3441TIP3    H231959   1.972   5.393   7.629 -0.6274  1.5259 -1.0703
 3442TIP3   OH231960   5.856   4.476   7.222 -0.3158  0.3822  0.2268
 3442TIP3    H131961   5.904   4.411   7.171  1.2437  0.8568  1.0355
 3442TIP3    H231962   5.799   4.424   7.279  0.2466 -0.2442  0.2249
 3443TIP3   OH231963   5.007   4.306   8.325  0.3249  0.9799 -0.5729
 3443TIP3    H131964   5.056   4.238   8.278 -2.5036 -0.6309 -1.4220
 3443TIP3    H231965   4.956   4.349   8.257 -2.6289 -0.2974  0.6540
 3444TIP3   OH231966   0.040   6.780   7.575 -0.3804  0.6668  0.1292
 3444TIP3    H131967   0.050   6.835   7.653  0.6581  0.9551 -0.1921
 3444TIP3    H231968   0.122   6.730   7.570 -1.0993 -0.5482  0.1316
 3445TIP3   OH231969   1.774   1.474   6.436 -0.6127 -0.3617  0.4704
 3445TIP3    H131970   1.726   1.554   6.413  1.7920  1.2511  0.6179
 3445TIP3    H231971   1.794   1.485   6.530  0.8261 -0.4562  0.2015
 3446TIP3   OH231972   1.352   0.678   0.204  0.3406 -0.2014  0.0538
 3446TIP3    H131973   1.404   0.612   0.250 -0.0260  0.5935  1.7166
 3446TIP3    H231974   1.278   0.695   0.263  0.2515  1.4452 -0.4741
 3447TIP3   OH231975   2.649   3.626   6.319 -0.7041  0.1296 -0.4336
 3447TIP3    H131976   2.699   3.583   6.250 -0.6024 -1.9004  0.8287
 3447TIP3    H231977   2.664   3.719   6.305  2.3563 -0.3442 -0.9068
 3448TIP3   OH231978   0.980   5.127   7.430  0.0146  0.0251 -0.1765
 3448TIP3    H131979   0.920   5.072   7.379  0.5774 -1.0010  0.2453
 3448TIP3    H231980   0.950   5.117   7.520 -0.3281  1.0029 -0.1735
 3449TIP3   OH231981   4.469   3.472   6.207 -0.9958  0.1918  0.5967
 3449TIP3    H131982   4.469   3.520   6.124 -2.2541  0.0404  0.5023
 3449TIP3    H231983   4.516   3.530   6.267  1.9288 -0.6284 -0.7003
 3450TIP3   OH231984   6.148   3.367   8.040  0.2743  0.4339 -0.2482
 3450TIP3    H131985   6.134   3.301   7.973 -1.3156  0.3995  0.0891
 3450TIP3    H231986   6.069   3.366   8.093  1.0689  1.1754  1.0211
 3451TIP3   OH231987   6.737   4.864   6.770 -0.3392 -0.7962  0.1376
 3451TIP3    H131988   6.780   4.947   6.788  2.3362 -2.7141  3.8875
 3451TIP3    H231989   6.646   4.876   6.798  0.2964  0.5504  1.7039
 3452TIP3   OH231990   5.349   1.703   8.709  0.1574  0.2010  0.4033
 3452TIP3    H131991   5.351   1.677   8.617 -1.9480  0.3370  0.2712
 3452TIP3    H231992   5.288   1.641   8.749  2.5057 -1.1333  2.1799
 3453TIP3   OH231993   5.904   5.585   7.794 -0.0626 -0.2033 -0.0544
 3453TIP3    H131994   5.824   5.534   7.778 -0.9647  1.2231 -0.2226
 3453TIP3    H231995   5.973   5.536   7.748 -1.1288 -0.5872 -1.3088
 3454TIP3   OH231996   4.173   0.359   1.104  0.5593  0.2151  0.0433
 3454TIP3    H131997   4.265   0.337   1.090  0.2445 -1.2956  0.2668
 3454TIP3    H231998   4.150   0.414   1.030  1.3604 -0.2432 -0.5585
 3455TIP3   OH231999   5.448   0.752   2.060  0.2255 -0.3659  0.3615
 3455TIP3    H132000   5.423   0.794   2.142  0.3202 -1.5809  1.0343
 3455TIP3    H232001   5.457   0.659   2.082  0.8473 -0.6253 -0.8872
 3456TIP3   OH232002   2.116   5.978   0.898  0.4459 -0.1326 -0.2863
 3456TIP3    H132003   2.099   5.884   0.905 -1.0267  0.2469  2.7883
 3456TIP3    H232004   2.211   5.985   0.894  0.6156 -1.7091  0.2831
 3457TIP3   OH232005   2.775   2.633   8.536 -0.0976 -0.2846 -0.6120
 3457TIP3    H132006   2.785   2.684   8.616 -1.0506  0.6065 -1.0413
 3457TIP3    H232007   2.809   2.689   8.466 -0.3681 -0.5680 -0.9796
 3458TIP3   OH232008   0.308   1.137   7.011 -0.0656  0.4931 -0.1346
 3458TIP3    H132009   0.332   1.187   6.934  1.3319 -0.2768 -0.2340
 3458TIP3    H232010   0.383   1.146   7.070 -0.6270  0.1393  0.6513
 3459TIP3   OH232011   4.416   0.879   6.966 -0.1618  0.7582  0.0323
 3459TIP3    H132012   4.417   0.783   6.970  1.6128  0.7447 -0.0923
 3459TIP3    H232013   4.426   0.907   7.057 -1.0657  0.8427  0.1130
 3460TIP3   OH232014   2.809   1.660   1.499  0.5427 -0.1732  0.0219
 3460TIP3    H132015   2.825   1.705   1.416  0.2778 -1.4447 -0.7484
 3460TIP3    H232016   2.896   1.627   1.524  0.7255  0.6860  0.5547
 3461TIP3   OH232017   2.128   4.404   6.972  0.0368  0.3633  0.3671
 3461TIP3    H132018   2.158   4.414   7.062 -1.0131 -1.4283  0.9707
 3461TIP3    H232019   2.058   4.468   6.963 -0.9751 -0.5583  1.3958
 3462TIP3   OH232020   3.737   6.117   8.454  0.0753  0.1361  0.3886
 3462TIP3    H132021   3.641   6.120   8.459  0.1161 -0.0439  1.6930
 3462TIP3    H232022   3.759   6.169   8.377 -1.1283 -0.9329 -0.7244
 3463TIP3   OH232023   0.382   3.946   7.912  0.1643 -0.4410  0.1818
 3463TIP3    H132024   0.340   4.031   7.927 -0.3291 -0.6619  0.0484
 3463TIP3    H232025   0.365   3.897   7.992 -0.8214 -0.9365 -0.3181
 3464TIP3   OH232026   4.258   1.851   0.976  0.1981  0.8588  0.0553
 3464TIP3    H132027   4.292   1.762   0.983  2.4659  1.6117 -0.2259
 3464TIP3    H232028   4.178   1.844   0.924 -0.3780 -1.1379  1.1389
 3465TIP3   OH232029   6.061   4.493   1.123 -0.2106 -0.3499  0.5818
 3465TIP3    H132030   6.053   4.584   1.153 -0.0486  0.1482 -0.8203
 3465TIP3    H232031   6.154   4.484   1.099 -0.3779 -0.6487  0.0222
 3466TIP3   OH232032   1.578   4.897   6.365  0.2695  0.1285  0.0918
 3466TIP3    H132033   1.495   4.857   6.392  0.1427  1.2844  1.5542
 3466TIP3    H232034   1.645   4.835   6.396  0.0290  0.3344  1.0478
 3467TIP3   OH232035   5.865   5.333   8.720 -0.4700 -0.3875 -0.3583
 3467TIP3    H132036   5.812   5.255   8.735 -0.9888  0.0301  0.0274
 3467TIP3    H232037   5.809   5.406   8.748  1.0099 -0.0579  2.0964
 3468TIP3   OH232038   3.148   0.640   0.379 -0.0114 -0.0393  0.1381
 3468TIP3    H132039   3.186   0.722   0.347 -1.4465 -0.0076 -1.6116
 3468TIP3    H232040   3.107   0.601   0.302  0.2226 -2.1810  1.0401
 3469TIP3   OH232041   2.885   4.001   0.883 -0.3764  0.0235  0.6427
 3469TIP3    H132042   2.800   3.963   0.905 -0.7193  0.3569 -0.0654
 3469TIP3    H232043   2.935   3.928   0.847 -0.4471 -0.1273  0.8533
 3470TIP3   OH232044   6.377   5.976   1.101 -0.1399 -0.0175  0.2918
 3470TIP3    H132045   6.363   5.881   1.098  0.4150 -0.0883 -0.4869
 3470TIP3    H232046   6.316   6.007   1.167 -0.2090 -0.9398  0.6822
 3471TIP3   OH232047   4.721   5.138   6.471 -1.0119  0.5766  0.3601
 3471TIP3    H132048   4.689   5.048   6.484  0.5639 -0.6114 -2.7438
 3471TIP3    H232049   4.816   5.130   6.475 -0.6769  1.3831 -2.9214
 3472TIP3   OH232050   1.028   3.632   8.347  0.1174  0.0423  0.0347
 3472TIP3    H132051   1.061   3.721   8.347  0.8841 -0.2055 -1.4942
 3472TIP3    H232052   0.954   3.633   8.408  1.4582  1.1763  1.6996
 3473TIP3   OH232053   3.161   3.120   2.167  0.1381  0.0278  0.0135
 3473TIP3    H132054   3.253   3.108   2.144 -0.2679 -1.3871 -1.0356
 3473TIP3    H232055   3.137   3.203   2.125  0.0073 -1.4231 -3.1159
 3474TIP3   OH232056   0.982   4.681   7.291 -0.1696  0.6241 -0.0194
 3474TIP3    H132057   0.974   4.749   7.225 -0.1299  0.1884 -0.4796
 3474TIP3    H232058   0.892   4.658   7.313 -0.1829  0.8370  0.1492
 3475TIP3   OH232059   5.435   0.661   6.453  0.5287  0.1911  0.6270
 3475TIP3    H132060   5.522   0.629   6.473  0.0878 -1.0416  0.6536
 3475TIP3    H232061   5.429   0.658   6.358  1.7322  3.6730  0.2953
 3476TIP3   OH232062   2.777   3.154   6.979 -0.3210 -0.7400 -0.2392
 3476TIP3    H132063   2.807   3.171   6.890 -3.4795 -1.4985 -1.6136
 3476TIP3    H232064   2.751   3.061   6.977 -2.6030 -0.1910  0.6746
 3477TIP3   OH232065   5.591   1.890   8.460 -0.0170 -0.0470 -0.2540
 3477TIP3    H132066   5.684   1.911   8.467  0.5295 -2.4383  0.9398
 3477TIP3    H232067   5.552   1.928   8.539  0.2428 -0.2124 -0.0391
 3478TIP3   OH232068   3.798   4.249   0.094 -0.1041  0.0549  0.4553
 3478TIP3    H132069   3.871   4.199   0.132  0.5955 -0.2251 -1.1209
 3478TIP3    H232070   3.827   4.267   0.004 -2.4062 -1.0166 -0.6091
 3479TIP3   OH232071   4.844   1.630   0.094  0.3106 -0.5673 -0.4910
 3479TIP3    H132072   4.871   1.722   0.088 -0.9304 -0.1868 -0.5799
 3479TIP3    H232073   4.895   1.585   0.028  2.5069 -0.3543  0.9623
 3480TIP3   OH232074   6.496   3.157   6.998 -0.1645  0.0315  0.5809
 3480TIP3    H132075   6.425   3.095   6.988  0.3749 -0.7140  1.1997
 3480TIP3    H232076   6.565   3.124   6.940 -0.8280  1.5904 -1.1949
 3481TIP3   OH232077   1.209   2.489   1.110  0.0368  0.7113  0.0660
 3481TIP3    H132078   1.281   2.462   1.167  0.0509 -0.8935 -0.6533
 3481TIP3    H232079   1.252   2.536   1.038  0.4873 -0.8044 -0.7033
 3482TIP3   OH232080   0.599   4.900   7.555  0.2736  0.5758  0.5517
 3482TIP3    H132081   0.524   4.960   7.556 -0.1564  0.0630 -0.0256
 3482TIP3    H232082   0.621   4.891   7.463  2.0546  1.9359  0.7993
 3483TIP3   OH232083   4.605   1.697   1.328 -0.1061  0.4541 -0.3032
 3483TIP3    H132084   4.515   1.682   1.358 -0.4876  2.0706 -0.5746
 3483TIP3    H232085   4.659   1.677   1.405 -0.7079 -0.2668 -0.0585
 3484TIP3   OH232086   2.481   0.879   7.173  0.2759  0.4571  0.0411
 3484TIP3    H132087   2.528   0.936   7.113  0.9086  0.1585  0.2453
 3484TIP3    H232088   2.399   0.860   7.128  1.8638 -2.0487 -2.0622
 3485TIP3   OH232089   4.452   1.032   0.577  0.2381 -0.4413 -0.0138
 3485TIP3    H132090   4.446   0.942   0.546  2.1670 -0.2521 -1.0526
 3485TIP3    H232091   4.389   1.036   0.650 -0.1009 -2.5192 -0.1320
 3486TIP3   OH232092   5.007   2.761   1.609 -0.4781 -0.2235 -0.4339
 3486TIP3    H132093   5.004   2.843   1.659  0.0303 -0.7185  0.4424
 3486TIP3    H232094   5.001   2.693   1.676 -2.2467 -0.9198 -1.2350
 3487TIP3   OH232095   0.265   4.619   0.898  0.4812 -0.4968 -0.0306
 3487TIP3    H132096   0.331   4.656   0.956 -1.4837  1.9297  0.8386
 3487TIP3    H232097   0.207   4.569   0.955  1.1533 -2.1151 -0.6956
 3488TIP3   OH232098   2.329   0.160   6.723 -0.2324 -0.0532  0.4792
 3488TIP3    H132099   2.262   0.091   6.715 -0.2138  0.0380 -0.7146
 3488TIP3    H232100   2.279   0.241   6.717 -0.1859  0.0410  1.2807
 3489TIP3   OH232101   5.373   1.103   6.098 -0.2887 -0.0427  0.1909
 3489TIP3    H132102   5.318   1.101   6.176 -1.1040 -2.2209 -0.3720
 3489TIP3    H232103   5.426   1.024   6.104 -1.0127 -0.7544 -1.8498
 3490TIP3   OH232104   4.669   3.605   0.809  0.2534  0.2214  0.7262
 3490TIP3    H132105   4.606   3.675   0.792  0.1624  0.1713  0.8571
 3490TIP3    H232106   4.647   3.537   0.745  0.4505  0.3834  0.4863
 3491TIP3   OH232107   0.479   5.573   6.094 -0.3250 -0.4505 -0.5209
 3491TIP3    H132108   0.475   5.596   6.002 -0.0965  1.7836 -0.0115
 3491TIP3    H232109   0.421   5.635   6.138 -1.6545 -2.4352  0.7076
 3492TIP3   OH232110   4.311   2.785   0.535  0.3589  0.4879 -0.0497
 3492TIP3    H132111   4.322   2.700   0.577 -1.5749 -0.6587 -1.7105
 3492TIP3    H232112   4.239   2.827   0.581 -0.2321  0.2079 -0.6965
 3493TIP3   OH232113   5.269   5.876   6.859  0.4364 -0.3475  0.0160
 3493TIP3    H132114   5.254   5.970   6.872 -0.5426 -0.6133  0.8904
 3493TIP3    H232115   5.239   5.860   6.770 -1.2786 -0.1890  0.5333
 3494TIP3   OH232116   1.921   5.093   8.285 -0.0128  0.6368  0.3020
 3494TIP3    H132117   1.908   5.053   8.199  2.2666  1.3987 -0.4737
 3494TIP3    H232118   1.984   5.036   8.328  1.0360  1.7662  0.3149
 3495TIP3   OH232119   2.495   3.410   8.176  0.9587 -0.5758 -0.3048
 3495TIP3    H132120   2.493   3.338   8.239  0.4126  0.3914  0.8139
 3495TIP3    H232121   2.559   3.472   8.211  0.1061  0.3214 -0.2866
 3496TIP3   OH232122   6.454   2.764   1.274  0.0422 -0.4762  0.2305
 3496TIP3    H132123   6.491   2.682   1.308 -0.2495 -0.5018  0.4845
 3496TIP3    H232124   6.428   2.743   1.184  1.3187 -0.2617 -0.2117
 3497TIP3   OH232125   3.755   2.544   1.851 -0.2650  0.1000 -0.2190
 3497TIP3    H132126   3.751   2.623   1.905 -0.8435  0.9951 -1.4997
 3497TIP3    H232127   3.823   2.490   1.891  0.3107  1.3577  0.5530
 3498TIP3   OH232128   2.974   5.848   8.490 -0.1554 -0.4792  0.2353
 3498TIP3    H132129   2.923   5.819   8.566 -0.3991 -0.0426  0.2376
 3498TIP3    H232130   2.960   5.779   8.424 -1.4862  0.0836 -0.0910
 3499TIP3   OH232131   2.102   4.523   0.179  0.0551 -0.0319  0.8037
 3499TIP3    H132132   2.039   4.547   0.247 -0.7004  2.2005 -0.5937
 3499TIP3    H232133   2.168   4.592   0.183  0.3648 -0.2539 -0.2896
 3500TIP3   OH232134   0.716   5.908   0.157 -0.0577 -0.2209 -0.4857
 3500TIP3    H132135   0.712   5.934   0.250  2.6980 -0.7090 -0.1350
 3500TIP3    H232136   0.718   5.991   0.109  1.9034  0.1642  0.1729
 3501TIP3   OH232137   3.380   1.956   6.914  0.6884 -0.1633  0.0894
 3501TIP3    H132138   3.371   1.966   7.009  1.1678  0.1323  0.1098
 3501TIP3    H232139   3.367   1.862   6.898  0.6329 -0.2180  0.4532
 3502TIP3   OH232140   2.226   2.185   1.278 -0.0728  0.4568  0.3343
 3502TIP3    H132141   2.241   2.143   1.362 -2.0766 -0.1286  0.4451
 3502TIP3    H232142   2.261   2.123   1.214 -2.6388 -1.3239  0.5166
 3503TIP3   OH232143   5.308   2.020   6.601 -0.4345 -0.3248 -0.0939
 3503TIP3    H132144   5.362   1.954   6.557 -1.9964 -1.6773 -0.0682
 3503TIP3    H232145   5.349   2.103   6.577  1.1788 -1.2473 -0.7137
 3504TIP3   OH232146   2.763   6.575   6.770  0.2999  0.8511  0.1349
 3504TIP3    H132147   2.702   6.631   6.721 -0.3988 -0.4086 -0.4990
 3504TIP3    H232148   2.819   6.537   6.703  0.4688  0.4364  0.5077
 3505TIP3   OH232149   4.294   0.568   6.419  0.2510  0.6708 -0.2478
 3505TIP3    H132150   4.388   0.568   6.440  0.3258  1.2775 -0.5688
 3505TIP3    H232151   4.291   0.574   6.323 -0.0835 -2.2873 -0.5281
 3506TIP3   OH232152   1.121   3.294   7.839  0.3442  0.2406 -0.3143
 3506TIP3    H132153   1.074   3.214   7.817 -1.6775  1.4096 -0.4966
 3506TIP3    H232154   1.116   3.348   7.760  2.4239  0.2422 -0.4829
 3507TIP3   OH232155   5.148   6.304   0.932 -0.3155  0.3205  0.1694
 3507TIP3    H132156   5.086   6.283   0.862  0.7860 -0.2980 -0.6625
 3507TIP3    H232157   5.111   6.262   1.010 -0.8259 -0.2323 -0.3577
 3508TIP3   OH232158   4.430   1.518   7.976  0.6540 -0.5416 -0.6096
 3508TIP3    H132159   4.335   1.515   7.970  0.6752 -1.2898 -0.6858
 3508TIP3    H232160   4.451   1.611   7.979 -0.0105 -0.3452 -1.6068
 3509TIP3   OH232161   5.302   5.124   6.704 -0.2061 -0.1391  0.1598
 3509TIP3    H132162   5.264   5.124   6.616  1.3533  0.0508 -0.5384
 3509TIP3    H232163   5.238   5.172   6.757 -0.3615  1.2939 -1.2397
 3510TIP3   OH232164   3.983   2.567   0.731  0.1826 -0.0330  0.1755
 3510TIP3    H132165   4.030   2.489   0.702  0.3919 -1.2397  3.3308
 3510TIP3    H232166   4.052   2.632   0.744  0.1108  0.4472 -1.5832
 3511TIP3   OH232167   1.774   5.338   1.022 -0.2363 -0.3792  0.1767
 3511TIP3    H132168   1.856   5.288   1.029  0.1206  0.2920  1.0015
 3511TIP3    H232169   1.710   5.275   0.989  1.1636 -0.3048 -2.9456
 3512TIP3   OH232170   2.659   0.612   7.743  0.1683  0.0224 -0.0009
 3512TIP3    H132171   2.565   0.593   7.745  0.1360  0.1896  0.0877
 3512TIP3    H232172   2.700   0.528   7.721  0.0856 -0.3955  1.3421
 3513TIP3   OH232173   2.161   4.940   0.052  0.2499 -0.2605  0.6589
 3513TIP3    H132174   2.111   4.866   0.019 -0.0143  0.9697 -1.9575
 3513TIP3    H232175   2.250   4.907   0.063  0.8838 -0.3746 -3.4345
 3514TIP3   OH232176   4.818   2.331   7.003 -0.4766 -0.0023 -0.0664
 3514TIP3    H132177   4.904   2.292   7.015 -0.3579  0.1760 -0.3336
 3514TIP3    H232178   4.806   2.334   6.908 -0.2871  1.0468 -0.0665
 3515TIP3   OH232179   5.898   0.121   0.181 -0.5220  0.1918  0.2426
 3515TIP3    H132180   5.875   0.100   0.091 -0.7889 -0.1799  0.3932
 3515TIP3    H232181   5.840   0.193   0.205 -1.4197 -0.6064  0.5543
 3516TIP3   OH232182   3.029   2.695   0.065 -0.0868 -0.0856  0.0784
 3516TIP3    H132183   3.030   2.738   0.151  0.0319  0.8686 -0.3872
 3516TIP3    H232184   2.969   2.748   0.013 -0.0601 -0.5840 -0.4596
 3517TIP3   OH232185   0.516   3.153   1.055  0.5315  0.3349  0.2694
 3517TIP3    H132186   0.593   3.200   1.022  0.5683  0.2127  0.1816
 3517TIP3    H232187   0.462   3.221   1.095  2.1112  0.0581  3.1028
 3518TIP3   OH232188   6.502   0.073   7.441 -0.1698  0.2990 -0.2099
 3518TIP3    H132189   6.560   0.121   7.501 -0.9997 -0.7924  1.5413
 3518TIP3    H232190   6.444   0.022   7.498 -1.4459 -0.3109 -1.9395
 3519TIP3   OH232191   3.955   6.284   0.530 -0.3989 -0.1280 -0.3715
 3519TIP3    H132192   3.872   6.237   0.528  0.0222 -0.8911 -0.4887
 3519TIP3    H232193   3.959   6.321   0.618 -1.3750  0.8857 -0.7343
 3520TIP3   OH232194   5.164   6.379   6.985 -0.3643 -0.0885 -0.2668
 3520TIP3    H132195   5.143   6.436   7.060  0.9240  0.8667 -0.5903
 3520TIP3    H232196   5.209   6.437   6.924  1.3823 -1.5489 -0.4364
 3521TIP3   OH232197   4.345   3.635   0.121 -0.3416 -0.2637 -0.1048
 3521TIP3    H132198   4.281   3.699   0.151  0.8729  0.4654  1.0463
 3521TIP3    H232199   4.392   3.609   0.201  0.7022 -0.8683 -0.8841
 3522TIP3   OH232200   5.480   2.454   0.545 -0.2708 -0.2522 -0.8988
 3522TIP3    H132201   5.385   2.456   0.532 -0.3063 -0.2526 -0.6424
 3522TIP3    H232202   5.497   2.520   0.613  0.0321  0.4805 -1.6668
 3523TIP3   OH232203   2.040   0.649   1.657 -0.0180  0.0255  0.1531
 3523TIP3    H132204   2.045   0.561   1.693 -2.1233 -0.1480  0.1134
 3523TIP3    H232205   2.125   0.689   1.680  1.7755 -2.5421 -1.4382
 3524TIP3   OH232206   5.895   3.061   1.267  0.2827 -0.4549 -0.2001
 3524TIP3    H132207   5.917   2.969   1.257 -1.2921 -0.9682  0.7253
 3524TIP3    H232208   5.853   3.084   1.184 -0.4129 -0.9251  0.0099
 3525TIP3   OH232209   1.985   3.214   8.069 -0.1977 -0.3102 -0.3807
 3525TIP3    H132210   1.955   3.269   7.997 -1.3094  2.0789  1.7653
 3525TIP3    H232211   2.072   3.249   8.091 -0.3638 -0.2448  0.1808
 3526TIP3   OH232212   4.200   2.312   1.162 -0.1607 -0.1698 -0.5169
 3526TIP3    H132213   4.220   2.219   1.148 -0.9901 -0.1513 -1.9758
 3526TIP3    H232214   4.134   2.312   1.231 -0.5390 -0.7140 -0.8677
 3527TIP3   OH232215   2.450   6.473   1.900 -0.2372  0.0851  0.5119
 3527TIP3    H132216   2.438   6.467   1.806 -1.2720  1.2240  0.5472
 3527TIP3    H232217   2.543   6.453   1.914 -0.5484 -2.3011 -0.4932
 3528TIP3   OH232218   6.843   1.006   6.646 -0.3459 -0.2056  0.3531
 3528TIP3    H132219   6.917   1.013   6.705 -0.4926  3.1031  0.2927
 3528TIP3    H232220   6.874   1.040   6.562 -0.6038 -3.3490 -1.1839
 3529TIP3   OH232221   6.388   4.249   0.701  0.5581 -0.6042  0.5126
 3529TIP3    H132222   6.472   4.258   0.745  1.3411 -0.0583 -1.0106
 3529TIP3    H232223   6.405   4.275   0.610 -1.3764  0.0304  0.2726
 3530TIP3   OH232224   5.554   5.619   6.050  0.5033  0.4663  0.3222
 3530TIP3    H132225   5.569   5.585   5.961  0.3389 -0.2037  0.5462
 3530TIP3    H232226   5.578   5.711   6.044  3.1548 -0.1451  0.2327
 3531TIP3   OH232227   2.431   0.604   8.674 -0.4849 -0.0038  0.3064
 3531TIP3    H132228   2.472   0.521   8.695  1.5771  0.8218 -0.2195
 3531TIP3    H232229   2.470   0.667   8.735  1.2924  1.3480 -2.0598
 3532TIP3   OH232230   6.410   1.166   8.343  0.3524  0.2074  0.5562
 3532TIP3    H132231   6.408   1.167   8.438  0.9800 -1.9760  0.6405
 3532TIP3    H232232   6.503   1.167   8.321  0.2570 -0.8365  0.0358
 3533TIP3   OH232233   4.205   0.345   6.528  0.0948 -0.0078  0.2350
 3533TIP3    H132234   4.263   0.275   6.498  0.2075  0.3511 -0.4074
 3533TIP3    H232235   4.240   0.425   6.487 -1.0019  0.1773 -0.3827
 3534TIP3   OH232236   5.444   5.095   0.738  0.3239  0.0302 -0.2500
 3534TIP3    H132237   5.435   5.148   0.659 -0.7385  0.0589 -0.1234
 3534TIP3    H232238   5.466   5.007   0.706 -0.4191 -0.0330 -0.5914
 3535TIP3   OH232239   1.005   4.396   1.127  0.1216  0.0119  0.1172
 3535TIP3    H132240   1.039   4.481   1.154  0.2429  0.0406 -0.1197
 3535TIP3    H232241   0.947   4.369   1.199 -1.3767  1.1183 -0.6360
 3536TIP3   OH232242   0.049   4.925   8.322 -0.1025  0.2162  0.5993
 3536TIP3    H132243   0.077   4.844   8.366 -1.4638  0.6211  2.3315
 3536TIP3    H232244  -0.028   4.954   8.372 -0.4619  1.8663 -0.8156
 3537TIP3   OH232245   6.065   6.243   0.351  0.5167  0.7628 -0.0597
 3537TIP3    H132246   6.059   6.196   0.434  2.2188 -1.3260 -1.0552
 3537TIP3    H232247   5.975   6.242   0.317  0.0403  0.5536  1.1378
 3538TIP3   OH232248   1.750   2.539   1.085  0.0263  0.5698  0.5463
 3538TIP3    H132249   1.694   2.463   1.101 -0.9297  1.4047  1.3133
 3538TIP3    H232250   1.827   2.504   1.040 -1.5999 -0.4726 -1.5778
 3539TIP3   OH232251   3.873   5.621   1.776  0.5013 -0.8536 -0.3877
 3539TIP3    H132252   3.870   5.650   1.867 -0.5412  0.9265 -0.9376
 3539TIP3    H232253   3.889   5.527   1.781 -1.2919 -1.1334  1.7068
 3540TIP3   OH232254   4.980   6.785   6.400 -0.5379  0.1621 -0.1670
 3540TIP3    H132255   5.034   6.850   6.355 -1.5610  0.9090 -0.3477
 3540TIP3    H232256   4.973   6.713   6.338  1.7378 -0.7816  0.5536
 3541TIP3   OH232257   4.586   5.855   1.781  0.5646 -0.4678 -0.0507
 3541TIP3    H132258   4.507   5.894   1.743 -0.3210 -1.2082  0.9875
 3541TIP3    H232259   4.618   5.921   1.843  1.8502  0.6205 -1.7675
 3542TIP3   OH232260   4.715   4.182   7.827  0.4037 -0.4626  0.1485
 3542TIP3    H132261   4.692   4.193   7.920  0.4507 -0.2659  0.1361
 3542TIP3    H232262   4.657   4.112   7.797 -1.8374  1.5272 -0.4704
 3543TIP3   OH232263   0.071   6.327   6.383  0.4942  0.0341  0.5010
 3543TIP3    H132264   0.013   6.314   6.308  2.2448 -0.7291 -0.7935
 3543TIP3    H232265   0.095   6.419   6.379 -0.6800  0.3870  1.1204
 3544TIP3   OH232266   1.415   1.142   0.595  0.1270  0.0343 -0.1808
 3544TIP3    H132267   1.442   1.062   0.639 -1.1788 -0.5350 -0.3819
 3544TIP3    H232268   1.494   1.196   0.593  0.6794 -0.6796  1.1777
 3545TIP3   OH232269   3.914   3.828   7.317 -0.0460 -0.2821  0.0044
 3545TIP3    H132270   3.987   3.883   7.344  0.4050 -1.1562  0.6320
 3545TIP3    H232271   3.843   3.850   7.376  0.3398 -0.8273  0.6856
 3546TIP3   OH232272   0.138   3.297   7.846  0.5002  0.4722  0.3249
 3546TIP3    H132273   0.071   3.292   7.914  0.5884 -0.4669  0.3622
 3546TIP3    H232274   0.210   3.244   7.880  0.2859 -0.5749 -0.7656
 3547TIP3   OH232275   3.135   5.211   6.906 -0.5655  0.8489  0.2528
 3547TIP3    H132276   3.064   5.212   6.970 -2.0691 -2.5956 -1.0608
 3547TIP3    H232277   3.208   5.170   6.951 -1.1185 -0.1629  0.2660
 3548TIP3   OH232278   6.715   2.068   0.927  0.2772 -1.1328 -0.5201
 3548TIP3    H132279   6.798   2.019   0.924  2.1460  1.5740  1.6639
 3548TIP3    H232280   6.655   2.009   0.972  1.3218 -2.7188 -1.0812
 3549TIP3   OH232281   6.258   1.338   7.801  0.6406 -0.5614  0.9038
 3549TIP3    H132282   6.212   1.360   7.881 -2.1747 -3.5248  0.3311
 3549TIP3    H232283   6.317   1.267   7.826  1.2916 -0.0972  0.7100
 3550TIP3   OH232284   2.291   4.127   7.539  0.5942 -0.0333  0.3564
 3550TIP3    H132285   2.300   4.041   7.580  0.6610 -0.4703 -0.5646
 3550TIP3    H232286   2.377   4.146   7.503 -0.3200 -1.4032 -2.9305
 3551TIP3   OH232287   3.451   3.051   1.909 -0.0756 -0.0817  0.0401
 3551TIP3    H132288   3.482   3.099   1.986 -0.0769 -0.9589  0.6017
 3551TIP3    H232289   3.451   2.960   1.936 -2.2905 -0.2182 -0.2119
 3552TIP3   OH232290   0.434   3.515   8.273  0.1162  0.1976  0.7517
 3552TIP3    H132291   0.498   3.538   8.205  0.7356 -1.7745  0.5978
 3552TIP3    H232292   0.420   3.420   8.262 -1.9558  0.3476  1.5451
 3553TIP3   OH232293   3.551   0.734   0.327 -0.5967 -0.2456  0.4187
 3553TIP3    H132294   3.493   0.659   0.318 -1.1296  0.0793  1.0101
 3553TIP3    H232295   3.505   0.792   0.389 -0.5744  0.9232 -0.6221
 3554TIP3   OH232296   0.900   6.005   8.524 -0.0513  0.5615  0.3909
 3554TIP3    H132297   0.994   5.991   8.535 -0.2640 -1.0959  0.3742
 3554TIP3    H232298   0.860   5.954   8.594 -1.0570 -2.0591 -1.9070
 3555TIP3   OH232299   3.467   3.111   0.881 -0.1794  0.5622 -0.1638
 3555TIP3    H132300   3.536   3.045   0.882  0.3453  1.0709 -1.2343
 3555TIP3    H232301   3.499   3.180   0.939 -0.0987  0.5065 -0.1417
 3556TIP3   OH232302   2.435   3.040   6.550  0.4767 -0.4179 -0.0501
 3556TIP3    H132303   2.404   3.061   6.462  1.0633  2.0061  0.2372
 3556TIP3    H232304   2.369   3.077   6.608  1.2013  0.0286  0.5181
 3557TIP3   OH232305   1.440   4.032   8.090  0.4829  0.3704  0.5665
 3557TIP3    H132306   1.385   4.080   8.027 -0.2380  1.5165  1.9978
 3557TIP3    H232307   1.530   4.049   8.061  0.1688 -0.9800 -1.4204
 3558TIP3   OH232308   4.378   5.354   6.529  0.1384 -0.1516  0.3771
 3558TIP3    H132309   4.357   5.325   6.618 -0.0510 -1.5835 -0.1084
 3558TIP3    H232310   4.357   5.278   6.474  2.3414 -0.0638 -0.6565
 3559TIP3   OH232311   6.045   3.069   2.193 -0.1319 -0.0033  0.3566
 3559TIP3    H132312   6.023   3.003   2.127  0.7754  1.3735 -1.4075
 3559TIP3    H232313   6.134   3.047   2.221 -0.6937 -0.8793  1.5589
 3560TIP3   OH232314   0.967   3.366   1.383 -0.6477  0.0449 -0.4056
 3560TIP3    H132315   0.981   3.288   1.329  0.0028 -0.8700  1.0202
 3560TIP3    H232316   1.055   3.399   1.400 -0.8875  0.7251 -0.4544
 3561TIP3   OH232317   1.709   1.011   8.037  0.0309 -0.1724  0.4958
 3561TIP3    H132318   1.798   1.020   8.004 -0.0997  0.0987  0.2072
 3561TIP3    H232319   1.682   1.101   8.058 -0.6866 -0.0535 -0.7979
 3562TIP3   OH232320   0.882   3.903   8.118  0.0070 -0.0573 -0.1829
 3562TIP3    H132321   0.839   3.973   8.069 -0.4841 -1.9419 -2.6719
 3562TIP3    H232322   0.821   3.880   8.188 -0.5400  0.9268 -0.3296
 3563TIP3   OH232323   5.431   6.187   0.579 -0.0179 -0.1538 -0.2298
 3563TIP3    H132324   5.452   6.280   0.579  1.8009 -0.5297 -0.1700
 3563TIP3    H232325   5.447   6.159   0.488  2.1772 -0.9289  0.3410
 3564TIP3   OH232326   6.058   1.913   8.672  0.2696  0.1972 -0.2345
 3564TIP3    H132327   6.113   1.948   8.742 -0.5514  2.8798 -0.8302
 3564TIP3    H232328   6.101   1.941   8.591 -0.3046 -0.4290 -0.7774
 3565TIP3   OH232329   4.586   3.864   2.283 -0.3649  0.2694 -0.4420
 3565TIP3    H132330   4.540   3.898   2.206 -1.0638  0.9676  0.2761
 3565TIP3    H232331   4.523   3.805   2.325  0.2470 -0.6231 -0.7505
 3566TIP3   OH232332   0.708   3.988   0.740 -0.3060 -0.0340  0.2554
 3566TIP3    H132333   0.731   4.059   0.800  1.7922 -0.6356  0.2559
 3566TIP3    H232334   0.668   3.921   0.796  1.3524 -0.4630  1.0023
 3567TIP3   OH232335   6.129   6.132   0.810 -0.2864 -0.0130  0.2531
 3567TIP3    H132336   6.038   6.113   0.835  0.1565 -0.7436  1.4051
 3567TIP3    H232337   6.171   6.046   0.808  0.4876  0.3635  0.1609
 3568TIP3   OH232338   5.837   1.142   8.190  0.3818 -0.0264  0.2027
 3568TIP3    H132339   5.820   1.236   8.183 -2.0327 -0.2573  1.9040
 3568TIP3    H232340   5.926   1.137   8.225  0.4378  1.6120  0.3838
 3569TIP3   OH232341   5.789   2.217   1.605 -0.1111  0.3046  0.1745
 3569TIP3    H132342   5.882   2.211   1.629  0.3889  0.3442 -1.6432
 3569TIP3    H232343   5.775   2.310   1.589 -0.7503  0.4428  1.3720
 3570TIP3   OH232344   6.266   0.333   1.150 -0.6134  0.2556  0.2363
 3570TIP3    H132345   6.176   0.345   1.120 -0.8355 -1.3300  0.2180
 3570TIP3    H232346   6.296   0.422   1.169 -2.1889  0.8164  0.2820
 3571TIP3   OH232347   0.247   0.979   7.315 -0.3931 -0.1351 -0.4358
 3571TIP3    H132348   0.324   0.941   7.271  0.4037  0.0821  0.7124
 3571TIP3    H232349   0.231   1.062   7.270 -0.2406 -0.3963 -0.9775
 3572TIP3   OH232350   5.096   2.505   7.415  1.2113 -0.4808  0.5460
 3572TIP3    H132351   5.086   2.508   7.320 -0.0057 -0.2938  0.6618
 3572TIP3    H232352   5.104   2.412   7.435  0.2373 -0.6168  0.3580
 3573TIP3   OH232353   4.600   2.401   8.093 -0.0294 -0.1262 -0.0549
 3573TIP3    H132354   4.690   2.397   8.125 -0.4449 -0.5664  1.0813
 3573TIP3    H232355   4.557   2.324   8.130 -0.7592 -0.1847 -0.9790
 3574TIP3   OH232356   6.151   3.357   2.386  0.0182 -0.1344  0.3004
 3574TIP3    H132357   6.136   3.319   2.473  3.6876 -3.5754 -0.2690
 3574TIP3    H232358   6.246   3.367   2.381 -0.2743  2.3502 -2.4881
 3575TIP3   OH232359   3.676   0.742   0.075 -0.6058 -0.2872 -0.0541
 3575TIP3    H132360   3.613   0.734   0.147 -1.0125 -1.3472 -0.5037
 3575TIP3    H232361   3.739   0.671   0.090  0.2486  0.4984  0.1495
 3576TIP3   OH232362   0.271   1.916   0.712  0.5562  0.0875 -0.2350
 3576TIP3    H132363   0.311   1.983   0.656  2.7769 -0.4423  0.6397
 3576TIP3    H232364   0.241   1.849   0.651 -1.4894  1.6744 -1.1154
 3577TIP3   OH232365   4.831   5.805   7.048  0.4338 -0.1002  0.3955
 3577TIP3    H132366   4.844   5.713   7.023 -1.9728 -0.4628  0.2415
 3577TIP3    H232367   4.884   5.854   6.985 -1.6581 -1.2250 -2.4808
 3578TIP3   OH232368   3.643   6.516   6.653 -0.5878  0.9991  0.1707
 3578TIP3    H132369   3.586   6.560   6.590  0.3244  1.4428 -0.3798
 3578TIP3    H232370   3.727   6.508   6.607 -0.4553 -0.4355  0.6362
 3579TIP3   OH232371   2.599   2.552   0.617  0.8361  0.0255 -0.0819
 3579TIP3    H132372   2.503   2.541   0.619  0.7256  0.9764  0.2948
 3579TIP3    H232373   2.612   2.644   0.593  1.6966 -0.4641 -1.6364
 3580TIP3   OH232374   1.196   1.339   8.251 -0.1880 -0.4545  0.4256
 3580TIP3    H132375   1.138   1.367   8.180 -1.9229 -0.5001  1.7529
 3580TIP3    H232376   1.159   1.257   8.282  2.8245 -2.5890 -1.0913
 3581TIP3   OH232377   2.301   2.377   2.171  0.4898 -0.4478  0.3395
 3581TIP3    H132378   2.395   2.357   2.172  0.9679  1.4957 -0.8867
 3581TIP3    H232379   2.259   2.291   2.178  2.3705 -1.6881 -1.9483
 3582TIP3   OH232380   0.025   4.100   8.158 -0.1809 -0.2489 -0.3269
 3582TIP3    H132381   0.029   4.072   8.066  1.1075 -0.1341 -0.3234
 3582TIP3    H232382  -0.005   4.022   8.205  1.2147 -1.0004 -0.6047
 3583TIP3   OH232383   4.690   4.322   1.690  0.2988  0.1617  0.4771
 3583TIP3    H132384   4.762   4.259   1.679 -0.3441 -0.6194  0.6014
 3583TIP3    H232385   4.709   4.392   1.628  0.7968 -0.3884 -0.0054
 3584TIP3   OH232386   3.831   6.674   1.430  0.2876  0.1117  0.3857
 3584TIP3    H132387   3.919   6.640   1.415 -0.0624 -0.7303  0.1277
 3584TIP3    H232388   3.823   6.680   1.526  0.0765 -1.3888  0.4903
 3585TIP3   OH232389   1.362   4.212   7.623 -0.2208 -0.9483 -0.0852
 3585TIP3    H132390   1.334   4.210   7.715 -0.0940 -0.1011 -0.0208
 3585TIP3    H232391   1.291   4.257   7.578 -0.5056 -1.7845 -0.4928
 3586TIP3   OH232392   4.683   1.279   6.212  0.2758 -0.0494 -0.7293
 3586TIP3    H132393   4.673   1.217   6.140  2.6476 -1.9334  0.4301
 3586TIP3    H232394   4.626   1.246   6.281  1.0436 -0.6116 -0.3473
 3587TIP3   OH232395   1.890   2.199   0.470 -0.2384 -0.6866 -0.1238
 3587TIP3    H132396   1.822   2.166   0.529 -1.4977 -1.0635 -1.7248
 3587TIP3    H232397   1.921   2.122   0.423  1.3939 -0.5308  0.6210
 3588TIP3   OH232398   2.355   1.451   6.215 -0.0198 -0.0993  0.8272
 3588TIP3    H132399   2.414   1.439   6.140 -1.2403  1.9097 -0.5439
 3588TIP3    H232400   2.397   1.517   6.269 -1.3147  2.0250 -0.6234
 3589TIP3   OH232401   6.432   1.576   7.913  0.1594 -0.5687 -0.0431
 3589TIP3    H132402   6.362   1.578   7.847  1.7334 -0.0327 -1.7948
 3589TIP3    H232403   6.387   1.583   7.997 -1.9094 -0.8065 -1.0772
 3590TIP3   OH232404   4.937   1.153   1.443  0.7539  0.4245  0.1640
 3590TIP3    H132405   4.944   1.125   1.534 -0.6964 -0.7337 -0.0380
 3590TIP3    H232406   4.935   1.072   1.393 -3.8872  0.6254 -0.4443
 3591TIP3   OH232407   1.789   1.768   6.845  0.4338 -0.1122 -0.2442
 3591TIP3    H132408   1.744   1.792   6.926  1.4683  1.1489 -0.0045
 3591TIP3    H232409   1.750   1.824   6.778  0.9756  0.3236 -0.2079
 3592TIP3   OH232410   2.411   4.933   7.117  0.2519 -0.4650  0.2041
 3592TIP3    H132411   2.436   4.967   7.203  1.1975  1.0563 -0.6204
 3592TIP3    H232412   2.368   4.849   7.135  0.5221 -0.2247  2.1328
 3593TIP3   OH232413   5.594   3.737   0.291  0.6062 -0.0687 -0.0616
 3593TIP3    H132414   5.527   3.797   0.325  1.0332 -0.4009  1.4543
 3593TIP3    H232415   5.558   3.706   0.208 -0.4277  0.9121 -0.0123
 3594TIP3   OH232416   1.329   1.338   7.159 -0.0423  0.4840  0.2314
 3594TIP3    H132417   1.417   1.305   7.139 -0.8983 -0.4057 -2.4209
 3594TIP3    H232418   1.303   1.290   7.238  1.0312 -0.8585 -0.1879
 3595TIP3   OH232419   1.285   0.523   6.131  0.1300 -0.0720 -0.4119
 3595TIP3    H132420   1.260   0.447   6.185  0.3414  1.1983  1.5823
 3595TIP3    H232421   1.275   0.492   6.041  0.7221 -2.6393  0.3074
 3596TIP3   OH232422   0.582   6.243   8.580 -0.7051  0.1368  0.6076
 3596TIP3    H132423   0.575   6.157   8.539 -1.9739 -0.5206  2.1071
 3596TIP3    H232424   0.608   6.301   8.508  1.9756 -1.7333 -0.0982
 3597TIP3   OH232425   4.074   2.294   0.673 -0.1461 -0.0604  0.5753
 3597TIP3    H132426   4.083   2.263   0.763  1.5459  1.4258  0.9736
 3597TIP3    H232427   4.002   2.242   0.637 -1.8815  0.3546  3.2124
 3598TIP3   OH232428   1.605   5.080   7.237 -0.5475 -0.4954 -0.1969
 3598TIP3    H132429   1.689   5.061   7.194  0.2569  2.8905 -0.4620
 3598TIP3    H232430   1.547   5.104   7.164 -1.5973 -2.1040  0.0567
 3599TIP3   OH232431   1.134   3.862   1.561  0.2861 -0.3532  0.4887
 3599TIP3    H132432   1.212   3.816   1.591 -0.3326 -1.1113  0.9899
 3599TIP3    H232433   1.082   3.795   1.516  0.2062  0.2832 -0.4101
 3600TIP3   OH232434   3.725   4.718   0.981  0.6125 -0.1167  0.0198
 3600TIP3    H132435   3.738   4.631   0.943  0.3098  0.5635 -1.7651
 3600TIP3    H232436   3.636   4.717   1.015  0.4184 -0.3491 -0.4846
 3601TIP3   OH232437   6.491   2.751   0.992  0.4294 -0.0080 -0.2767
 3601TIP3    H132438   6.533   2.666   0.975  0.1147  0.0538 -1.4566
 3601TIP3    H232439   6.397   2.734   0.981  0.4212  0.6835 -1.5356
 3602TIP3   OH232440   0.533   2.530   1.131  0.2356  0.5814  0.5964
 3602TIP3    H132441   0.444   2.522   1.167 -0.1190 -2.0425 -0.6748
 3602TIP3    H232442   0.520   2.572   1.046  0.1764 -0.0578  0.2894
 3603TIP3   OH232443   0.293   1.935   8.692  0.2049 -0.0242  0.5790
 3603TIP3    H132444   0.338   2.015   8.665  2.0699 -1.1383  0.2136
 3603TIP3    H232445   0.268   1.893   8.609  2.2143 -1.4078  0.6154
 3604TIP3   OH232446   0.900   4.706   2.386 -0.3602 -0.5106 -0.4411
 3604TIP3    H132447   0.963   4.748   2.445  0.2762 -2.1737  0.1420
 3604TIP3    H232448   0.843   4.777   2.357  0.0645  0.5784  1.2315
 3605TIP3   OH232449   0.657   1.113   1.859  0.0469 -0.4218  0.8033
 3605TIP3    H132450   0.641   1.177   1.790  3.9648 -0.6358 -0.5038
 3605TIP3    H232451   0.689   1.036   1.814 -1.8679 -2.4107  2.5930
 3606TIP3   OH232452   2.796   5.071   7.290  0.7110 -0.0976  0.2904
 3606TIP3    H132453   2.739   5.144   7.316 -0.0031 -0.5816  0.1262
 3606TIP3    H232454   2.752   4.993   7.323  1.3243 -0.4794  0.2242
 3607TIP3   OH232455   4.218   4.611   7.758 -0.1562  0.2199 -0.0110
 3607TIP3    H132456   4.176   4.680   7.810  0.4023  1.1472 -0.7601
 3607TIP3    H232457   4.146   4.570   7.710 -0.4862  0.3516  0.3683
 3608TIP3   OH232458   5.891   4.283   1.090 -0.2876 -0.0978  0.0312
 3608TIP3    H132459   5.945   4.357   1.118 -1.5121  0.2437  1.6658
 3608TIP3    H232460   5.951   4.225   1.044  0.7808  1.7348 -1.0181
 3609TIP3   OH232461   3.060   6.302   2.265  0.1420 -0.0323 -0.1060
 3609TIP3    H132462   2.971   6.298   2.229  0.2364  2.2302 -0.8033
 3609TIP3    H232463   3.109   6.236   2.216 -1.1248 -1.3208  0.2957
 3610TIP3   OH232464   5.412   5.832   1.669 -0.0638  1.2321 -0.1087
 3610TIP3    H132465   5.486   5.872   1.715  0.9800 -0.6887 -0.0297
 3610TIP3    H232466   5.353   5.802   1.739  0.5723  0.0756 -0.0424
 3611TIP3   OH232467   4.334   6.233   7.973 -0.5277 -0.6228 -0.9586
 3611TIP3    H132468   4.363   6.171   8.040 -0.1951 -0.0433 -0.5603
 3611TIP3    H232469   4.351   6.189   7.890  0.7837 -0.6100 -0.7116
 3612TIP3   OH232470   0.723   4.285   7.586  0.5872 -0.0854  0.5949
 3612TIP3    H132471   0.679   4.346   7.528 -1.7779 -1.6167  0.6704
 3612TIP3    H232472   0.678   4.295   7.670 -0.2292 -2.2388  0.4761
 3613TIP3   OH232473   2.050   5.242   1.041 -0.5006 -0.2134  0.0422
 3613TIP3    H132474   2.132   5.287   1.024 -0.4766  0.4335  1.6994
 3613TIP3    H232475   2.061   5.156   1.001  0.5282  0.2789 -0.7616
 3614TIP3   OH232476   5.829   0.413   0.358  0.4819 -0.3752  0.6779
 3614TIP3    H132477   5.785   0.465   0.425 -0.6775 -0.0250 -0.3183
 3614TIP3    H232478   5.759   0.361   0.318  1.0634 -0.2559 -0.5521
 3615TIP3   OH232479   3.806   0.764   6.994  0.4169 -0.4257 -0.1200
 3615TIP3    H132480   3.783   0.789   6.904 -0.4153 -2.4380 -0.5228
 3615TIP3    H232481   3.875   0.698   6.983 -0.2720 -1.3048  0.6414
 3616TIP3   OH232482   2.596   3.648   6.997 -0.4514 -0.3784 -0.2048
 3616TIP3    H132483   2.584   3.590   6.921  0.3624 -1.1375  0.2183
 3616TIP3    H232484   2.543   3.609   7.066  1.0253 -1.3472  0.4346
 3617TIP3   OH232485   5.466   0.159   0.853 -0.3022 -0.1890 -0.0414
 3617TIP3    H132486   5.516   0.083   0.822  1.7977  1.2714 -0.4685
 3617TIP3    H232487   5.377   0.145   0.819  0.0093 -2.4451 -0.0532
 3618TIP3   OH232488   5.245   5.404   0.820  0.1273 -0.4548  0.2749
 3618TIP3    H132489   5.293   5.429   0.899  0.8739 -0.1784 -0.2490
 3618TIP3    H232490   5.156   5.385   0.850  0.4980 -0.7119  1.2296
 3619TIP3   OH232491   6.785   3.683   8.042 -0.5654 -0.2265  0.2357
 3619TIP3    H132492   6.823   3.708   7.958 -1.0150  1.0034  0.3772
 3619TIP3    H232493   6.816   3.749   8.104 -1.6429 -0.0849  0.6632
 3620TIP3   OH232494   2.104   5.788   8.072  0.5148  0.6052 -0.0164
 3620TIP3    H132495   2.026   5.839   8.095  0.5478  1.2931 -1.3001
 3620TIP3    H232496   2.070   5.709   8.030  0.4901  0.2372  0.6884
 3621TIP3   OH232497   4.193   3.386   1.819  0.5222  0.2332 -0.0068
 3621TIP3    H132498   4.249   3.455   1.784  0.9662 -0.8716 -1.5549
 3621TIP3    H232499   4.250   3.336   1.878  0.3816  0.7712  0.5934
 3622TIP3   OH232500   1.272   2.488   7.619 -0.1115  0.5414  0.0978
 3622TIP3    H132501   1.271   2.441   7.535  0.1542 -1.0786  0.9509
 3622TIP3    H232502   1.188   2.468   7.659 -0.3951  1.6284  0.0634
 3623TIP3   OH232503   1.165   3.437   0.079  0.3596 -0.3844 -0.3888
 3623TIP3    H132504   1.149   3.388  -0.002 -0.7526 -0.9681  0.1646
 3623TIP3    H232505   1.237   3.389   0.121  0.5516 -0.4216 -0.7527
 3624TIP3   OH232506   2.546   1.790   0.421  0.0799 -0.8797 -0.0197
 3624TIP3    H132507   2.601   1.837   0.359 -0.1656 -0.0758  0.3592
 3624TIP3    H232508   2.563   1.697   0.402 -0.0922 -0.6627 -1.3702
 3625TIP3   OH232509   1.342   3.847   2.299 -0.1631 -0.1153  0.4322
 3625TIP3    H132510   1.379   3.890   2.222  0.7327 -1.0054  0.3381
 3625TIP3    H232511   1.248   3.860   2.291 -0.0258  0.4645 -0.4091
 3626TIP3   OH232512   5.537   5.949   7.348 -0.6370 -0.1209  0.0988
 3626TIP3    H132513   5.502   6.029   7.387 -1.7602  0.1331 -1.3687
 3626TIP3    H232514   5.471   5.883   7.366 -0.5002 -0.3293 -0.1622
 3627TIP3   OH232515   2.055   4.073   1.859  0.0508  0.1782 -0.1493
 3627TIP3    H132516   2.104   4.074   1.942  2.7138  0.2035 -1.6010
 3627TIP3    H232517   1.972   4.116   1.880  1.7117  2.7417  1.9068
 3628TIP3   OH232518   5.035   5.153   2.210  0.1282  0.7439 -0.2306
 3628TIP3    H132519   4.957   5.099   2.201  1.2591 -0.8719 -0.6467
 3628TIP3    H232520   5.064   5.139   2.300  1.0911 -0.3061 -0.6893
 3629TIP3   OH232521   4.753   3.765   1.287  0.2602 -0.0072 -0.0578
 3629TIP3    H132522   4.685   3.789   1.224 -1.2211 -0.2248  1.3831
 3629TIP3    H232523   4.833   3.757   1.234 -0.8017  0.3054 -1.8061
 3630TIP3   OH232524   0.367   3.163   0.320 -0.8523 -0.5418 -0.4587
 3630TIP3    H132525   0.452   3.206   0.312  0.1499 -2.0633  1.2030
 3630TIP3    H232526   0.317   3.194   0.244  1.8518 -1.1028 -2.6535
 3631TIP3   OH232527   0.291   4.048   6.930 -0.1693  0.2849  0.0288
 3631TIP3    H132528   0.356   4.053   7.000 -1.2192 -1.0449  1.1392
 3631TIP3    H232529   0.291   3.957   6.903 -1.3611  0.3238 -0.1624
 3632TIP3   OH232530   1.553   6.084   6.461 -0.8817 -0.5377  0.1753
 3632TIP3    H132531   1.551   6.107   6.368  0.9233 -2.9215 -0.5313
 3632TIP3    H232532   1.597   6.158   6.503 -0.9420  0.1819 -0.9880
 3633TIP3   OH232533   1.647   0.994   6.963 -0.8385 -0.7263  0.0838
 3633TIP3    H132534   1.569   0.984   6.907 -1.0859  2.1269 -0.1947
 3633TIP3    H232535   1.715   1.026   6.904  0.0940 -1.5806  0.6686
 3634TIP3   OH232536   5.675   4.972   7.721  0.0828  0.1648 -0.2349
 3634TIP3    H132537   5.604   5.007   7.774  0.2228  0.0178  0.0543
 3634TIP3    H232538   5.639   4.965   7.632 -0.2494  0.1183 -0.0944
 3635TIP3   OH232539   5.024   0.200   0.168  0.7837 -0.6358 -0.0719
 3635TIP3    H132540   5.015   0.276   0.111  1.4482  0.9308  1.8200
 3635TIP3    H232541   4.949   0.145   0.146 -0.6646  1.3473 -0.3806
 3636TIP3   OH232542   1.730   3.691   7.255  0.7705  0.6188 -0.1534
 3636TIP3    H132543   1.774   3.776   7.262  0.8454  0.5650  0.0531
 3636TIP3    H232544   1.698   3.688   7.166  1.2429  0.6309 -0.3280
 3637TIP3   OH232545   1.738   2.079   7.292  0.0057 -0.1690 -0.4237
 3637TIP3    H132546   1.712   2.121   7.374 -1.4773 -0.2038 -0.8448
 3637TIP3    H232547   1.703   1.990   7.298 -1.3751  0.2584 -1.6651
 3638TIP3   OH232548   3.892   6.521   0.204  0.2259 -0.1957  0.0279
 3638TIP3    H132549   3.934   6.525   0.290 -0.2839  2.4204  0.2392
 3638TIP3    H232550   3.959   6.553   0.143 -0.2017  0.2816 -0.1970
 3639TIP3   OH232551   2.800   4.636   7.689 -0.1138  0.3278  0.6721
 3639TIP3    H132552   2.771   4.636   7.781 -0.6102 -1.2706  0.5464
 3639TIP3    H232553   2.829   4.726   7.673  0.0046  0.6327  2.4001
 3640TIP3   OH232554   4.788   5.526   7.030 -0.6780  0.0922 -0.1557
 3640TIP3    H132555   4.798   5.450   6.973 -1.4371 -0.0049 -0.1580
 3640TIP3    H232556   4.794   5.490   7.119 -0.6139  0.0890 -0.1613
 3641TIP3   OH232557   6.011   2.850   0.761  0.1249  0.2491 -0.0605
 3641TIP3    H132558   6.075   2.779   0.767  0.1722  0.4310  2.4897
 3641TIP3    H232559   6.055   2.925   0.801 -0.8685  0.9972 -0.3562
 3642TIP3   OH232560   0.958   6.797   8.315  0.0230 -0.2065 -0.7249
 3642TIP3    H132561   0.948   6.792   8.410  0.4147 -0.4136 -0.6961
 3642TIP3    H232562   0.917   6.717   8.282  0.4395 -0.4369 -0.6890
 3643TIP3   OH232563   2.119   5.893   6.806 -0.2639  0.2419 -0.4579
 3643TIP3    H132564   2.195   5.949   6.822 -0.4367 -0.0962  1.9835
 3643TIP3    H232565   2.133   5.858   6.719 -0.1898  4.1018 -2.1994
 3644TIP3   OH232566   4.236   5.219   1.289 -0.2349 -0.1475  0.0573
 3644TIP3    H132567   4.184   5.143   1.315 -0.5721  0.2133  0.4539
 3644TIP3    H232568   4.315   5.213   1.341  0.5506 -1.2009 -1.2127
 3645TIP3   OH232569   2.875   5.237   6.750 -0.4097 -0.0352  0.4080
 3645TIP3    H132570   2.962   5.205   6.728 -0.1781  0.3416  0.7526
 3645TIP3    H232571   2.879   5.331   6.732 -1.2864 -0.2837 -1.2441
 3646TIP3   OH232572   1.198   4.602   8.640 -0.2712  0.0458 -0.1338
 3646TIP3    H132573   1.124   4.585   8.581 -0.5081 -2.4112  0.7512
 3646TIP3    H232574   1.252   4.524   8.633  0.7089  0.5411  1.4401
 3647TIP3   OH232575   4.874   2.871   7.891  0.7708  0.0553  0.4980
 3647TIP3    H132576   4.964   2.845   7.870  0.8139  1.0721 -0.7209
 3647TIP3    H232577   4.882   2.959   7.927  0.3696 -0.4066  1.7749
 3648TIP3   OH232578   1.296   4.723   6.167 -1.4991 -0.5316  0.5908
 3648TIP3    H132579   1.253   4.701   6.085 -0.1919 -0.5384 -0.1264
 3648TIP3    H232580   1.386   4.691   6.156 -0.1122  2.9316  0.3938
 3649TIP3   OH232581   0.167   0.113   8.046  0.4300  0.4456  0.6598
 3649TIP3    H132582   0.175   0.203   8.080 -0.4034  0.5488  0.5926
 3649TIP3    H232583   0.182   0.058   8.123 -1.1672  0.6770  1.1708
 3650TIP3   OH232584   4.527   0.923   6.541 -0.6677  0.6777  0.3057
 3650TIP3    H132585   4.549   0.907   6.449 -0.4778  1.3306  0.2309
 3650TIP3    H232586   4.533   0.837   6.582 -0.9364  0.3440 -0.3293
 3651TIP3   OH232587   0.507   3.881   7.431 -0.3301  0.0853 -0.5606
 3651TIP3    H132588   0.415   3.863   7.411 -0.8005  1.8795 -0.1815
 3651TIP3    H232589   0.517   3.858   7.523  0.1245 -1.8933 -1.0626
 3652TIP3   OH232590   0.606   4.672   7.670  0.4790  0.5943  0.5713
 3652TIP3    H132591   0.615   4.755   7.624  1.2571 -0.6663 -1.7275
 3652TIP3    H232592   0.668   4.613   7.627  0.3861 -1.0507  2.4956
 3653TIP3   OH232593   5.667   0.679   1.921  0.4488  0.4619 -0.0638
 3653TIP3    H132594   5.650   0.584   1.922 -0.0226  0.4726 -2.0566
 3653TIP3    H232595   5.588   0.718   1.958  0.4118  0.1039  0.2384
 3654TIP3   OH232596   1.816   3.910   7.961  0.2307  0.1154 -0.3018
 3654TIP3    H132597   1.762   3.989   7.964 -0.1927 -0.1099 -1.4366
 3654TIP3    H232598   1.849   3.907   7.871 -0.6902 -1.5940 -0.6225
 3655TIP3   OH232599   5.363   1.479   8.186 -0.2806 -0.3703 -0.4367
 3655TIP3    H132600   5.403   1.561   8.159  0.1285 -0.1865  0.6445
 3655TIP3    H232601   5.415   1.411   8.144 -1.4308 -0.0849 -2.4124
 3656TIP3   OH232602   0.363   4.555   7.787  0.2765  0.6543 -0.1807
 3656TIP3    H132603   0.273   4.587   7.787  0.2428  0.6846 -2.3052
 3656TIP3    H232604   0.355   4.460   7.787  0.1909  0.6466 -1.7371
 3657TIP3   OH232605   3.161   6.393   8.015  0.0964 -0.5727 -0.1368
 3657TIP3    H132606   3.148   6.316   7.960  0.1008  0.2927 -1.4078
 3657TIP3    H232607   3.104   6.378   8.090  1.0803 -2.3901  0.2941
 3658TIP3   OH232608   3.853   5.905   6.828  0.1008 -0.5109  0.2147
 3658TIP3    H132609   3.858   5.996   6.798 -0.4564 -0.3763  0.5146
 3658TIP3    H232610   3.844   5.854   6.747 -2.1239 -0.0922  0.1307
 3659TIP3   OH232611   0.963   0.363   7.271  0.1323 -0.1844  0.1326
 3659TIP3    H132612   0.962   0.459   7.273  2.4346 -0.1162  1.8031
 3659TIP3    H232613   1.046   0.340   7.228 -1.1018 -1.5201 -1.7242
 3660TIP3   OH232614   6.796   1.322   1.259 -0.7294  0.3230  0.5561
 3660TIP3    H132615   6.859   1.394   1.257  0.1915 -0.4343  1.5455
 3660TIP3    H232616   6.729   1.348   1.196  0.7956  0.9344 -0.8993
 3661TIP3   OH232617   6.019   3.256   2.598 -0.5446 -0.0134 -0.3092
 3661TIP3    H132618   5.963   3.179   2.589  0.0359 -0.5148  0.3162
 3661TIP3    H232619   5.961   3.324   2.634 -0.6354 -0.6789  0.8319
 3662TIP3   OH232620   6.781   2.968   8.200  0.5726 -0.0971 -0.4283
 3662TIP3    H132621   6.865   2.959   8.245  0.5320  0.6591 -0.1913
 3662TIP3    H232622   6.769   3.062   8.190  0.3030 -0.2307 -1.5164
 3663TIP3   OH232623   5.123   6.053   1.774 -0.3705 -0.0040  0.5933
 3663TIP3    H132624   5.148   5.961   1.778 -0.8972 -0.1352  0.9977
 3663TIP3    H232625   5.204   6.101   1.789  0.0879 -0.3849 -0.6146
 3664TIP3   OH232626   2.805   0.033   8.644  0.0287 -0.4338 -0.2205
 3664TIP3    H132627   2.733  -0.029   8.649 -1.5312  1.3902  1.1263
 3664TIP3    H232628   2.773   0.104   8.589  0.5376  0.6852  0.8714
 3665TIP3   OH232629   0.495   5.318   8.399  0.1115  0.1623 -0.4413
 3665TIP3    H132630   0.508   5.239   8.450  0.6506  1.1661  1.0383
 3665TIP3    H232631   0.400   5.323   8.385 -0.1559  0.3282  1.2668
 3666TIP3   OH232632   6.446   5.281   0.591 -0.3950  0.4453 -0.3264
 3666TIP3    H132633   6.382   5.318   0.531 -1.2465  1.4247  1.1158
 3666TIP3    H232634   6.393   5.239   0.660  0.5449 -1.4849 -0.7074
 3667TIP3   OH232635   5.770   1.596   0.784 -0.2899 -0.4223 -0.1585
 3667TIP3    H132636   5.811   1.514   0.812 -0.1111 -0.2742  0.0124
 3667TIP3    H232637   5.730   1.575   0.700  1.5209 -0.1564 -1.1342
 3668TIP3   OH232638   3.917   3.972   8.566  0.2872 -0.2175 -0.7393
 3668TIP3    H132639   3.904   3.948   8.658  1.4050  1.3241 -0.1577
 3668TIP3    H232640   4.011   3.982   8.557  0.1410  0.1451 -1.9376
 3669TIP3   OH232641   6.267   2.745   7.083 -0.1199 -0.2083 -0.4241
 3669TIP3    H132642   6.196   2.687   7.057  1.0680 -2.0893  0.3355
 3669TIP3    H232643   6.248   2.769   7.173 -0.0009 -0.4040 -0.3456
 3670TIP3   OH232644   4.813   2.379   1.359  0.0253 -0.4709  0.2061
 3670TIP3    H132645   4.906   2.400   1.349 -0.3434  0.5427 -1.3270
 3670TIP3    H232646   4.781   2.444   1.422  0.2764 -0.6299  0.5040
 3671TIP3   OH232647   3.792   2.607   0.945  0.1490  0.1439  0.0178
 3671TIP3    H132648   3.882   2.640   0.939  0.8891 -1.6061  0.6678
 3671TIP3    H232649   3.793   2.549   1.022 -1.3322 -0.5333 -0.4393
 3672TIP3   OH232650   1.989   0.841   7.388  0.5697  0.0720  0.1722
 3672TIP3    H132651   1.905   0.832   7.343 -0.0921  0.4374  1.2925
 3672TIP3    H232652   2.022   0.752   7.397 -0.0022 -0.1298  0.2735
 3673TIP3   OH232653   3.825   2.376   6.210 -0.2380  0.0847  0.8825
 3673TIP3    H132654   3.920   2.373   6.200 -0.4036 -0.5980 -0.8282
 3673TIP3    H232655   3.802   2.467   6.193  0.1773  0.4671  2.2638
 3674TIP3   OH232656   0.703   0.108   6.711 -0.7687  0.0782  0.0888
 3674TIP3    H132657   0.787   0.073   6.684 -0.1193  1.5479  0.0873
 3674TIP3    H232658   0.669   0.044   6.773  0.7048 -0.1826  0.6699
 3675TIP3   OH232659   4.286   2.037   1.176  0.3062  0.1995  0.6503
 3675TIP3    H132660   4.291   1.963   1.116  0.7088  0.9845 -0.3024
 3675TIP3    H232661   4.365   2.030   1.230 -0.8361 -1.4261  2.2297
 3676TIP3   OH232662   2.966   2.154   6.605 -0.0282 -0.8390  0.1089
 3676TIP3    H132663   2.975   2.189   6.693 -0.7357 -1.1122  0.2963
 3676TIP3    H232664   2.966   2.059   6.617 -2.2177 -0.8858  0.0599
 3677TIP3   OH232665   5.391   4.968   1.579 -0.2926 -0.1707  0.3257
 3677TIP3    H132666   5.400   4.940   1.487  0.0401  0.4053  0.1766
 3677TIP3    H232667   5.472   4.938   1.620  0.1206  0.6550  0.1373
 3678TIP3   OH232668   5.178   5.715   0.999  0.1405 -0.2326  0.1613
 3678TIP3    H132669   5.165   5.779   1.069 -2.8411 -0.1353 -0.3254
 3678TIP3    H232670   5.262   5.674   1.019  0.3337  1.1653  2.6510
 3679TIP3   OH232671   0.078   4.098   7.079 -0.0905  0.4668  0.1037
 3679TIP3    H132672   0.143   4.078   7.011  1.4276  0.5444  1.4849
 3679TIP3    H232673   0.007   4.036   7.063  1.0595 -0.7560 -0.4389
 3680TIP3   OH232674   3.538   3.935   8.268  0.6809 -0.0765 -0.0730
 3680TIP3    H132675   3.584   3.945   8.185  0.2610  1.0270 -0.1831
 3680TIP3    H232676   3.581   3.996   8.328  0.2640 -0.0511  0.2103
 3681TIP3   OH232677   0.680   6.419   8.395  0.1525 -0.1469  0.3237
 3681TIP3    H132678   0.683   6.501   8.444  1.2779  0.1461 -0.1929
 3681TIP3    H232679   0.617   6.435   8.325 -0.5832 -0.1698  0.9676
 3682TIP3   OH232680   5.775   4.901   7.418  0.2574 -0.2406  0.1434
 3682TIP3    H132681   5.726   4.821   7.435 -0.8703  0.2175 -0.8350
 3682TIP3    H232682   5.768   4.915   7.323  0.6455  0.8853  0.2551
 3683TIP3   OH232683   3.030   6.867   1.259  0.5191  0.5699 -0.4573
 3683TIP3    H132684   3.025   6.962   1.259  2.3413  0.7065 -0.2602
 3683TIP3    H232685   3.124   6.848   1.258  0.1867 -1.2291 -1.0355
 3684TIP3   OH232686   1.371   2.056   0.763 -1.1942  0.2091  0.0237
 3684TIP3    H132687   1.388   2.146   0.791  0.0385  0.2607 -0.8152
 3684TIP3    H232688   1.411   2.002   0.831  1.0391  0.3354 -1.0936
 3685TIP3   OH232689   1.640   3.436   8.298  0.0312  0.1320 -0.1539
 3685TIP3    H132690   1.561   3.410   8.346  0.2448  0.8648  0.6157
 3685TIP3    H232691   1.709   3.382   8.335  0.0275  0.0121 -0.3198
 3686TIP3   OH232692   1.910   3.335   7.811  0.0814  0.0165  0.2452
 3686TIP3    H132693   1.898   3.397   7.738  0.0954 -0.3590 -0.0804
 3686TIP3    H232694   1.866   3.255   7.782  0.9814 -0.4815  0.1937
 3687TIP3   OH232695   0.388   5.849   0.236  0.2446  0.5028  0.4005
 3687TIP3    H132696   0.371   5.796   0.314 -0.1360  2.3830  1.6375
 3687TIP3    H232697   0.479   5.875   0.244 -0.2766  2.1987  1.2122
 3688TIP3   OH232698   1.897   0.799   1.296  0.5547 -0.5031  0.7760
 3688TIP3    H132699   1.857   0.883   1.274  1.2687 -0.0690  1.1225
 3688TIP3    H232700   1.824   0.737   1.294  0.2229 -0.1157 -0.7392
 3689TIP3   OH232701   4.264   5.253   0.816  0.8132  0.0129 -0.1200
 3689TIP3    H132702   4.351   5.291   0.825  0.6563  0.1755  0.8424
 3689TIP3    H232703   4.212   5.296   0.883 -0.3351  0.7822 -1.4458
 3690TIP3   OH232704   6.771   0.014   7.376 -0.6030  0.7743 -0.8091
 3690TIP3    H132705   6.678   0.015   7.399 -0.2325  1.2802  0.7838
 3690TIP3    H232706   6.815  -0.023   7.452  0.4026 -0.8330 -2.0927
 3691TIP3   OH232707   1.206   6.318   0.131 -0.9613 -0.0757 -0.1791
 3691TIP3    H132708   1.284   6.344   0.082 -1.9870 -0.8415 -2.3944
 3691TIP3    H232709   1.153   6.398   0.135 -0.5735  0.1592  0.2909
 3692TIP3   OH232710   4.420   3.878   8.406  0.1131  0.6886 -0.7275
 3692TIP3    H132711   4.422   3.817   8.479  0.8596  1.3426 -0.1796
 3692TIP3    H232712   4.466   3.833   8.335  1.0015  0.7474 -0.2024
 3693TIP3   OH232713   0.002   3.392   0.562 -0.0980 -0.5987  0.1788
 3693TIP3    H132714  -0.014   3.318   0.620  1.0100 -0.0956  1.1491
 3693TIP3    H232715   0.094   3.386   0.539  0.0019  0.4604  0.2386
 3694TIP3   OH232716   6.660   3.048   6.445 -0.4431  0.0599 -0.0481
 3694TIP3    H132717   6.617   2.981   6.498  1.7332 -1.6239 -0.2492
 3694TIP3    H232718   6.591   3.081   6.387 -1.9097 -1.0022  1.0160
 3695TIP3   OH232719   5.614   4.862   0.418  0.3873 -0.1212 -0.1649
 3695TIP3    H132720   5.694   4.828   0.378  1.1480 -0.3008  1.4185
 3695TIP3    H232721   5.550   4.791   0.407  0.5476 -0.1234 -1.1242
 3696TIP3   OH232722   6.143   1.201   1.687 -0.3977 -0.2448 -0.3440
 3696TIP3    H132723   6.193   1.193   1.768 -0.4551 -1.1663 -0.3843
 3696TIP3    H232724   6.111   1.291   1.686  1.1988  0.3529 -0.2866
 3697TIP3   OH232725   6.623   4.161   8.213  0.3094 -0.4939  0.0917
 3697TIP3    H132726   6.718   4.159   8.207  0.5093  1.1811  1.8335
 3697TIP3    H232727   6.598   4.247   8.178 -0.6995 -1.3325 -1.3721
 3698TIP3   OH232728   6.425   2.956   6.254  0.0577 -0.5048 -0.2227
 3698TIP3    H132729   6.457   2.948   6.164  3.5837  1.6902  0.6231
 3698TIP3    H232730   6.443   2.870   6.293 -0.6008 -1.1679 -1.3360
 3699TIP3   OH232731   4.858   6.651   7.308  0.0169  0.1680  0.2955
 3699TIP3    H132732   4.918   6.610   7.246  0.6918 -2.0501  2.2716
 3699TIP3    H232733   4.775   6.658   7.261  1.1081  0.8535 -1.6097
 3700TIP3   OH232734   4.913   2.116   7.326  0.0908 -0.2016 -0.2852
 3700TIP3    H132735   4.936   2.024   7.339  1.4682  0.2529  0.7767
 3700TIP3    H232736   4.971   2.147   7.256 -1.2735 -0.4384 -1.5626
 3701TIP3   OH232737   5.006   5.219   1.307  0.4430  0.1885 -0.2355
 3701TIP3    H132738   5.084   5.268   1.281 -0.2649  1.7443  0.4649
 3701TIP3    H232739   4.935   5.258   1.256 -0.0029 -0.7788 -0.3828
 3702TIP3   OH232740   3.058   1.855   6.077 -0.0229 -0.1531  0.2663
 3702TIP3    H132741   3.095   1.885   5.993 -0.1883 -0.1682  0.1882
 3702TIP3    H232742   3.005   1.779   6.054  2.5237 -2.2498  0.7896
 3703TIP3   OH232743   1.171   4.683   5.896  0.3157  0.0056  0.0283
 3703TIP3    H132744   1.107   4.753   5.878  1.4757  1.1237  0.1013
 3703TIP3    H232745   1.244   4.702   5.837  0.7437 -1.0368  0.2039
 3704TIP3   OH232746   3.784   6.775   6.524  0.3656  0.0604  0.5627
 3704TIP3    H132747   3.794   6.789   6.430  1.3663  1.3269  0.8338
 3704TIP3    H232748   3.691   6.788   6.541  0.3212  0.6570 -0.1254
 3705TIP3   OH232749   3.517   4.252   1.056 -0.1108 -0.0813 -0.4465
 3705TIP3    H132750   3.463   4.183   1.096 -0.1469  0.3125  0.1965
 3705TIP3    H232751   3.603   4.242   1.096 -0.1787  0.3915 -0.1701
 3706TIP3   OH232752   5.073   6.135   8.329 -0.1771  0.6420  0.5828
 3706TIP3    H132753   5.104   6.087   8.406  0.8858 -0.4851 -0.4953
 3706TIP3    H232754   5.032   6.068   8.275  0.3750  1.1402 -0.4764
 3707TIP3   OH232755   4.412   4.953   6.967 -0.1318  0.4658  0.3164
 3707TIP3    H132756   4.399   4.971   7.060 -1.4660  1.1853  0.0178
 3707TIP3    H232757   4.334   4.903   6.941 -0.8557  2.1044 -0.8586
 3708TIP3   OH232758   6.531   6.248   0.180  0.4695 -0.0443  0.0729
 3708TIP3    H132759   6.604   6.200   0.221  0.8161  1.3419  1.1557
 3708TIP3    H232760   6.574   6.314   0.126 -0.0023 -0.0943 -0.3697
 3709TIP3   OH232761   0.666   1.832   1.013 -0.2434 -0.2928 -0.1454
 3709TIP3    H132762   0.680   1.834   0.918 -0.3295  2.5572 -0.1691
 3709TIP3    H232763   0.577   1.796   1.023 -0.9327  1.0000 -1.2838
 3710TIP3   OH232764   5.192   0.887   6.865 -0.1160 -0.1901  0.8789
 3710TIP3    H132765   5.233   0.845   6.789  0.7880  1.2062  0.5584
 3710TIP3    H232766   5.105   0.913   6.835  0.4604  0.9163  0.0820
 3711TIP3   OH232767   0.930   0.403   0.593  0.4652 -0.4557 -0.5480
 3711TIP3    H132768   0.896   0.399   0.503 -0.0032  1.4829 -0.5009
 3711TIP3    H232769   0.999   0.469   0.589  0.7804 -0.7191  0.4260
 3712TIP3   OH232770   3.221   4.127   6.371 -0.4352  0.4376  0.5006
 3712TIP3    H132771   3.178   4.166   6.295  0.4145 -1.1875 -0.8761
 3712TIP3    H232772   3.201   4.034   6.365  2.7042 -0.3344  0.1019
 3713TIP3   OH232773   0.544   1.080   2.099  0.1111  0.2315 -0.2549
 3713TIP3    H132774   0.586   1.085   2.013 -0.6738 -0.5215 -0.6938
 3713TIP3    H232775   0.616   1.081   2.161  1.0342 -3.4560 -1.0347
 3714TIP3   OH232776   1.459   6.669   5.776 -0.1854 -0.1485 -0.1313
 3714TIP3    H132777   1.432   6.739   5.835 -1.3980 -0.7791  0.0760
 3714TIP3    H232778   1.478   6.595   5.833  1.3326  0.0516 -0.3301
 3715TIP3   OH232779   1.485   0.772   0.534  0.2800 -0.0323  0.1391
 3715TIP3    H132780   1.445   0.811   0.457  1.6217  1.1215 -0.0070
 3715TIP3    H232781   1.538   0.842   0.572  0.6077 -0.9342  1.4269
 3716TIP3   OH232782   1.426   6.696   7.597  0.0895  0.4069 -0.1300
 3716TIP3    H132783   1.374   6.615   7.597  0.2012  0.3359  0.5112
 3716TIP3    H232784   1.393   6.744   7.520  1.3987 -1.1075 -1.7336
 3717TIP3   OH232785   4.092   0.267   7.282  0.2568  0.1976  0.0997
 3717TIP3    H132786   4.042   0.194   7.246 -0.7184  0.8809  0.0514
 3717TIP3    H232787   4.026   0.327   7.316  1.0951  0.4127  1.4123
 3718TIP3   OH232788   5.220   3.218   7.381  0.2314  0.0542  0.1416
 3718TIP3    H132789   5.313   3.232   7.399 -0.0209  0.5536  1.1293
 3718TIP3    H232790   5.210   3.123   7.380  0.9227 -0.0286 -0.9569
 3719TIP3   OH232791   4.230   1.122   7.308  0.3170  0.2298  0.0374
 3719TIP3    H132792   4.266   1.127   7.397 -0.4531 -1.2985  0.4681
 3719TIP3    H232793   4.211   1.029   7.295 -0.7433  0.5995 -1.2702
 3720TIP3   OH232794   1.097   5.618   1.242 -0.4029  0.1264  0.6540
 3720TIP3    H132795   1.154   5.543   1.259  1.0098  0.9498 -0.2951
 3720TIP3    H232796   1.119   5.681   1.310 -0.3730  0.3458  0.4405
 3721TIP3   OH232797   0.548   1.179   8.167  0.1104  0.2775  0.1566
 3721TIP3    H132798   0.629   1.128   8.169 -1.4128 -2.4453 -0.9928
 3721TIP3    H232799   0.512   1.170   8.255  0.4318  0.3880  0.2995
 3722TIP3   OH232800   5.166   0.717   1.993  0.1687  0.0244  0.2440
 3722TIP3    H132801   5.124   0.780   1.934  0.1935 -0.7420 -0.6136
 3722TIP3    H232802   5.202   0.770   2.063 -3.7487  0.6704  2.0713
 3723TIP3   OH232803   0.664   2.431   2.071 -0.7149  0.6123 -0.3609
 3723TIP3    H132804   0.609   2.439   2.149 -0.6081  0.0807 -0.2288
 3723TIP3    H232805   0.621   2.365   2.018 -1.1219  1.4093 -1.0479
 3724TIP3   OH232806   2.212   6.150   0.658  0.6317 -0.5120  0.0545
 3724TIP3    H132807   2.272   6.091   0.612 -0.3409 -1.5899  0.1316
 3724TIP3    H232808   2.151   6.092   0.704  0.0699  0.5544  0.6984
 3725TIP3   OH232809   5.126   4.600   8.113 -0.3584 -0.3457 -0.4231
 3725TIP3    H132810   5.141   4.599   8.019 -0.8592 -1.0279 -0.4972
 3725TIP3    H232811   5.197   4.547   8.150 -0.6595 -0.7891 -0.4864
 3726TIP3   OH232812   5.352   5.542   6.769 -0.8427 -0.1781 -0.3560
 3726TIP3    H132813   5.368   5.561   6.676 -2.8829 -0.2659 -0.7803
 3726TIP3    H232814   5.290   5.610   6.797  1.3394  1.1629  1.5916
 3727TIP3   OH232815   6.667   3.388   1.484  0.2588  0.6002  0.2826
 3727TIP3    H132816   6.716   3.454   1.436 -1.4322  1.3329 -0.5302
 3727TIP3    H232817   6.629   3.436   1.558  0.1856  0.2065  0.5049
 3728TIP3   OH232818   0.983   5.315   7.942 -0.3027  0.2552  0.5244
 3728TIP3    H132819   1.077   5.324   7.934 -0.0953  1.0558  3.0472
 3728TIP3    H232820   0.970   5.246   8.007 -1.5139 -0.6185 -0.5722
 3729TIP3   OH232821   3.123   2.361   8.588  0.3992  0.2621  0.2711
 3729TIP3    H132822   3.209   2.321   8.594  0.8034  1.0431 -0.1384
 3729TIP3    H232823   3.117   2.391   8.497 -1.1095 -1.5389 -0.3009
 3730TIP3   OH232824   4.105   4.970   1.287  0.1447 -0.1705 -0.1598
 3730TIP3    H132825   4.046   4.949   1.359  0.6641 -0.0146  0.3111
 3730TIP3    H232826   4.051   4.958   1.208  0.1395 -2.4501  0.1114
 3731TIP3   OH232827   5.302   6.098   2.132 -0.1630 -0.2708  0.2903
 3731TIP3    H132828   5.273   6.007   2.131 -0.7151 -0.1327  1.6029
 3731TIP3    H232829   5.333   6.114   2.043  1.1735 -2.1139  0.3754
 3732TIP3   OH232830   2.452   1.338   0.262 -0.1655 -0.0083 -0.5021
 3732TIP3    H132831   2.361   1.359   0.244 -0.5178 -1.3143 -0.3273
 3732TIP3    H232832   2.449   1.259   0.316  1.0030  1.1287  1.3490
 3733TIP3   OH232833   0.329   4.209   7.992  0.3162  0.2477 -0.0166
 3733TIP3    H132834   0.309   4.202   8.085  0.0890 -2.2599 -0.1825
 3733TIP3    H232835   0.420   4.238   7.989  0.6947 -0.7559  1.0379
 3734TIP3   OH232836   0.222   3.555   7.751 -0.0939 -0.1081 -0.2666
 3734TIP3    H132837   0.222   3.569   7.656 -0.9804  0.3812 -0.2027
 3734TIP3    H232838   0.172   3.475   7.764  0.9111 -0.7592 -0.2728
 3735TIP3   OH232839   4.208   4.843   1.617  0.0597 -0.0380  0.6084
 3735TIP3    H132840   4.129   4.882   1.577  0.2572  0.8505  1.0650
 3735TIP3    H232841   4.224   4.896   1.694 -0.1929 -1.6105  1.7928
 3736TIP3   OH232842   0.755   5.821   7.788  0.2639  0.0357 -0.2715
 3736TIP3    H132843   0.786   5.909   7.770 -0.2051  0.1296 -0.6207
 3736TIP3    H232844   0.731   5.823   7.881 -2.2313  1.0456 -0.8654
 3737TIP3   OH232845   5.373   5.488   6.247 -0.5241  0.0150  0.0572
 3737TIP3    H132846   5.427   5.453   6.176 -1.7716 -3.6696  0.7013
 3737TIP3    H232847   5.314   5.550   6.204  1.5808  1.2278 -1.2799
 3738TIP3   OH232848   3.392   1.158   7.099  0.1987 -0.3043  0.1474
 3738TIP3    H132849   3.323   1.134   7.037  0.8765  0.4376 -0.9106
 3738TIP3    H232850   3.363   1.119   7.182 -0.2136 -2.1844 -0.8270
 3739TIP3   OH232851   1.141   5.576   8.076  0.2508 -0.2123 -0.3071
 3739TIP3    H132852   1.148   5.505   8.012 -0.7753  0.4078 -1.1451
 3739TIP3    H232853   1.151   5.656   8.023  0.1680  0.2968  0.4329
 3740TIP3   OH232854   1.790   0.970   6.492 -0.1558  0.3370 -0.4294
 3740TIP3    H132855   1.775   1.056   6.452 -0.6195  1.2768  1.5967
 3740TIP3    H232856   1.865   0.984   6.550 -1.1270 -0.2013  1.0161
 3741TIP3   OH232857   1.841   6.842   0.674  0.8118 -0.0532 -0.4266
 3741TIP3    H132858   1.811   6.802   0.592  0.2967 -0.1052 -0.2180
 3741TIP3    H232859   1.787   6.800   0.741  1.4850 -0.2829 -0.0188
 3742TIP3   OH232860   1.137   6.376   7.533 -0.1603  0.1673 -0.4568
 3742TIP3    H132861   1.119   6.293   7.488  0.6367  0.4758 -1.3794
 3742TIP3    H232862   1.061   6.430   7.514 -0.7522 -0.3847  0.2682
 3743TIP3   OH232863   1.522   1.085   7.192 -0.3631 -0.3847 -0.3142
 3743TIP3    H132864   1.558   1.093   7.104 -1.1130  1.0230 -0.5157
 3743TIP3    H232865   1.587   1.127   7.248 -1.2728  1.5053 -0.5944
 3744TIP3   OH232866   1.217   5.430   8.321  0.1736  0.4276 -0.4464
 3744TIP3    H132867   1.311   5.445   8.329  0.5406 -0.1260 -2.9535
 3744TIP3    H232868   1.194   5.468   8.236 -1.6671 -0.3359 -0.3239
 3745TIP3   OH232869   3.108   3.043   8.755 -0.2194 -0.4056  0.1396
 3745TIP3    H132870   3.200   3.035   8.730  0.1218 -2.5027  1.8155
 3745TIP3    H232871   3.096   3.136   8.773  1.3530  0.0168 -0.8125
 3746TIP3   OH232872   2.774   2.817   8.753  0.3906  0.0060 -0.0083
 3746TIP3    H132873   2.680   2.804   8.769  0.3326  0.3872 -0.0330
 3746TIP3    H232874   2.810   2.842   8.838  0.7454 -1.6007  0.3521
 3747TIP3   OH232875   2.281   5.248   0.801 -0.0271 -0.0959  0.1827
 3747TIP3    H132876   2.229   5.170   0.817  1.4494 -0.6508  2.7739
 3747TIP3    H232877   2.311   5.276   0.887  1.2797  2.0960 -0.8741
 3748TIP3   OH232878   2.465   0.429   1.993  0.6620  0.3653 -0.1011
 3748TIP3    H132879   2.445   0.513   2.033 -0.7150  0.3975 -0.7760
 3748TIP3    H232880   2.511   0.450   1.912 -0.5405  0.5391 -0.7559
 3749TIP3   OH232881   1.300   4.195   7.892 -0.5339  0.1197  0.0005
 3749TIP3    H132882   1.219   4.196   7.942 -0.3613 -0.9724  0.3326
 3749TIP3    H232883   1.343   4.277   7.913 -1.5824  0.7492 -0.2417
 3750TIP3   OH232884   6.196   6.058   7.233  0.6500 -0.0198 -0.1075
 3750TIP3    H132885   6.145   6.064   7.152  0.4663  0.3134  0.0291
 3750TIP3    H232886   6.233   5.970   7.231 -1.8943 -1.2390  0.9310
 3751TIP3   OH232887   2.269   2.174   0.598 -0.3374  0.1579 -0.4336
 3751TIP3    H132888   2.199   2.111   0.616  0.5547 -0.6061  0.4613
 3751TIP3    H232889   2.340   2.149   0.657  0.2997  1.5895 -0.5510
 3752TIP3   OH232890   1.676   5.110   5.896 -0.5819 -0.2434 -0.1291
 3752TIP3    H132891   1.684   5.195   5.851  2.6812  0.1131  0.8650
 3752TIP3    H232892   1.689   5.131   5.988  0.7655 -1.8162  0.0891
 3753TIP3   OH232893   2.731   2.421   1.927  0.6794  0.0306 -0.2646
 3753TIP3    H132894   2.745   2.433   1.833  0.9641 -0.3612 -0.2696
 3753TIP3    H232895   2.816   2.439   1.967  1.2888 -2.4126 -0.3053
 3754TIP3   OH232896   3.240   4.799   6.925 -0.4376  0.2310 -0.1020
 3754TIP3    H132897   3.256   4.892   6.908 -1.2610  0.4947  0.4812
 3754TIP3    H232898   3.317   4.755   6.890  0.2702  1.1911  0.1847
 3755TIP3   OH232899   4.473   2.381   7.599 -0.0001 -0.1980 -0.0427
 3755TIP3    H132900   4.424   2.331   7.533  0.9484 -2.0524  0.6015
 3755TIP3    H232901   4.502   2.316   7.663  1.0391  1.2296  1.0196
 3756TIP3   OH232902   4.441   0.270   1.105 -0.0121  0.3554 -0.0867
 3756TIP3    H132903   4.528   0.307   1.089  0.6325 -1.4497 -1.0714
 3756TIP3    H232904   4.448   0.231   1.192  0.3726 -0.2997 -0.4034
 3757TIP3   OH232905   5.227   0.349   6.087 -0.3359  0.4357  0.0584
 3757TIP3    H132906   5.274   0.281   6.040 -0.5831  0.7569 -0.6729
 3757TIP3    H232907   5.266   0.351   6.174  0.4223  0.1271 -0.2735
 3758TIP3   OH232908   0.924   4.231   7.912 -0.4699  0.2015  0.1676
 3758TIP3    H132909   0.840   4.275   7.913 -0.4229  0.5213 -2.3040
 3758TIP3    H232910   0.989   4.302   7.914 -0.3178  0.0771 -0.2121
 3759TIP3   OH232911   0.825   0.484   7.011 -0.5312 -0.0714 -0.1713
 3759TIP3    H132912   0.792   0.559   7.060  2.3667 -0.4648  2.7361
 3759TIP3    H232913   0.793   0.408   7.060  0.3092 -0.5727 -0.3851
 3760TIP3   OH232914   4.065   0.461   7.669  0.1710  0.1766 -0.4361
 3760TIP3    H132915   4.142   0.414   7.634  1.2441  0.7553  1.0709
 3760TIP3    H232916   4.101   0.526   7.728 -1.5555 -0.6647  1.6632
 3761TIP3   OH232917   3.322   2.332   7.678 -0.6960  0.3344 -0.2639
 3761TIP3    H132918   3.414   2.333   7.705 -0.0757 -0.1778 -2.2148
 3761TIP3    H232919   3.314   2.407   7.619 -0.9628 -0.8595 -1.7883
 3762TIP3   OH232920   3.516   6.343   1.060  0.9413  0.0852 -0.0796
 3762TIP3    H132921   3.462   6.276   1.102  0.5989  0.2387 -0.2675
 3762TIP3    H232922   3.588   6.358   1.121  1.4547 -1.0249 -0.3885
 3763TIP3   OH232923   2.952   5.296   7.298  0.0724  0.0277  0.3305
 3763TIP3    H132924   2.910   5.210   7.292 -0.3905  0.2140  0.8104
 3763TIP3    H232925   3.044   5.277   7.316 -0.2185 -0.3579  1.4697
 3764TIP3   OH232926   0.627   2.637   8.506  0.6481 -0.0104 -0.4354
 3764TIP3    H132927   0.553   2.698   8.503  0.7741  0.1630 -0.0915
 3764TIP3    H232928   0.634   2.614   8.599  2.5040  1.7891 -0.0663
 3765TIP3   OH232929   6.228   1.374   8.327 -0.1023 -0.1064  0.0920
 3765TIP3    H132930   6.258   1.457   8.289  0.5689  0.1658  1.1612
 3765TIP3    H232931   6.305   1.318   8.326  0.1333  0.1390  1.6226
 3766TIP3   OH232932   5.931   6.857   1.268  0.5460 -0.7318 -0.2568
 3766TIP3    H132933   5.901   6.925   1.328  0.6303 -0.8334 -0.0995
 3766TIP3    H232934   6.008   6.820   1.311  1.1350 -0.2133 -0.8326
 3767TIP3   OH232935   4.491   0.157   7.432  0.6698 -0.2665 -0.7589
 3767TIP3    H132936   4.579   0.122   7.420  2.2481  2.5449  1.6611
 3767TIP3    H232937   4.466   0.130   7.520  0.2569  1.2159 -0.4059
 3768TIP3   OH232938   0.208   5.580   0.783  0.1139  0.1575 -0.4364
 3768TIP3    H132939   0.192   5.523   0.859  0.4053 -1.3498 -1.4582
 3768TIP3    H232940   0.279   5.638   0.811 -0.7445  0.6074  0.9187
 3769TIP3   OH232941   0.256   1.564   8.561 -0.0694 -0.6028 -0.7076
 3769TIP3    H132942   0.257   1.468   8.557  2.5827 -0.7427  0.9776
 3769TIP3    H232943   0.306   1.591   8.484  1.8255 -0.7676  0.4129
 3770TIP3   OH232944   3.625   4.942   8.497 -0.4110  0.1278  0.2310
 3770TIP3    H132945   3.648   5.031   8.523 -0.9722 -0.2192  2.0111
 3770TIP3    H232946   3.610   4.896   8.579 -0.1962 -1.6077 -0.6567
 3771TIP3   OH232947   2.692   4.643   8.223 -0.0442  0.4213 -0.4440
 3771TIP3    H132948   2.701   4.720   8.279  0.7368  0.2989 -0.3788
 3771TIP3    H232949   2.609   4.604   8.249 -0.1201  0.8632  0.0069
 3772TIP3   OH232950   6.606   6.165   1.464 -0.3548  0.3609  0.1787
 3772TIP3    H132951   6.577   6.185   1.375 -0.8688  0.4483  0.3638
 3772TIP3    H232952   6.591   6.070   1.473 -0.2115  0.3339  0.1399
 3773TIP3   OH232953   1.307   1.148   8.737  0.0535  0.1505  0.1306
 3773TIP3    H132954   1.259   1.182   8.662  0.7411  1.9923  0.4606
 3773TIP3    H232955   1.278   1.057   8.746 -2.4821  0.8460 -0.3637
 3774TIP3   OH232956   1.015   5.710   8.288  0.4750  0.1721  0.3230
 3774TIP3    H132957   1.038   5.658   8.211 -0.3545  0.8755 -0.4394
 3774TIP3    H232958   0.973   5.789   8.251  0.0674  0.5245  1.4946
 3775TIP3   OH232959   2.974   6.435   8.217  0.1277 -0.3934  0.5205
 3775TIP3    H132960   3.026   6.442   8.297 -0.7336  0.5994  1.0138
 3775TIP3    H232961   2.887   6.408   8.247  0.3482 -2.1585 -0.3038
 3776TIP3   OH232962   1.395   1.450   7.571 -0.4845 -0.2829  0.5301
 3776TIP3    H132963   1.389   1.358   7.597  0.4942 -1.0376 -1.6294
 3776TIP3    H232964   1.314   1.467   7.524 -0.3096 -0.3182  0.2094
 3777TIP3   OH232965   4.590   2.276   2.027  0.3834 -0.3197 -0.2576
 3777TIP3    H132966   4.557   2.204   1.972 -0.1287  0.0207 -0.4115
 3777TIP3    H232967   4.514   2.303   2.079  0.7696 -0.3868  0.3462
 3778TIP3   OH232968   0.769   5.034   7.749  0.3389  0.5761  0.3081
 3778TIP3    H132969   0.695   4.993   7.704  0.9213 -1.0510  0.7236
 3778TIP3    H232970   0.777   5.121   7.710 -1.8248  0.8315  0.3192
 3779TIP3   OH232971   3.011   3.833   8.357  0.5335 -0.2041  0.3799
 3779TIP3    H132972   3.034   3.870   8.443  0.8232 -1.5913  0.9250
 3779TIP3    H232973   3.089   3.786   8.329  1.5304  2.5987 -2.0619
 3780TIP3   OH232974   5.339   4.286   6.363  0.8870 -0.4861  0.5159
 3780TIP3    H132975   5.427   4.257   6.343  1.0607 -0.3836  1.0999
 3780TIP3    H232976   5.343   4.382   6.356  1.0681 -0.4132  1.4413
 3781TIP3   OH232977   0.753   1.984   1.608  0.2327 -0.0920 -0.8405
 3781TIP3    H132978   0.836   1.948   1.638  0.6441  0.4142 -1.3390
 3781TIP3    H232979   0.688   1.918   1.631  0.8999 -0.9074 -1.2548
 3782TIP3   OH232980   5.299   3.943   0.561  0.9847 -0.3855  0.0816
 3782TIP3    H132981   5.246   3.902   0.630  2.4887 -1.1762  0.8066
 3782TIP3    H232982   5.299   4.036   0.585  0.7848 -0.5233  0.6573
 3783TIP3   OH232983   2.350   2.352   8.322 -0.1407 -0.4760  0.3031
 3783TIP3    H132984   2.317   2.263   8.322 -2.2386  0.2331  0.5915
 3783TIP3    H232985   2.283   2.402   8.370  1.1434  1.1862  0.4654
 3784TIP3   OH232986   0.629   6.464   6.732 -0.1296 -0.5105  0.1474
 3784TIP3    H132987   0.715   6.496   6.757 -0.5234  1.3398 -0.6699
 3784TIP3    H232988   0.578   6.465   6.814  0.0702  0.3694  0.2754
 3785TIP3   OH232989   4.484   0.532   1.532  0.4215  0.6746 -0.8537
 3785TIP3    H132990   4.484   0.450   1.483 -0.7642 -0.7776  1.3854
 3785TIP3    H232991   4.576   0.552   1.547  0.7664 -1.7813  0.8520
 3786TIP3   OH232992   3.368   5.466   7.764  0.3529  0.0107  0.1677
 3786TIP3    H132993   3.364   5.407   7.840  0.1221 -0.1046  0.0671
 3786TIP3    H232994   3.287   5.449   7.716 -0.8548  2.0527  1.3545
 3787TIP3   OH232995   5.236   6.826   8.049 -0.3167  0.0270 -0.5114
 3787TIP3    H132996   5.283   6.748   8.077  1.1014  0.2509 -2.0874
 3787TIP3    H232997   5.148   6.796   8.026  0.1524 -1.0724 -0.9013
 3788TIP3   OH232998   0.642   1.080   6.577 -0.7740 -0.1589 -0.1678
 3788TIP3    H132999   0.737   1.063   6.576 -0.9198 -1.1971 -2.0094
 3788TIP3    H233000   0.635   1.175   6.579  0.2982 -0.0759  0.4938
 3789TIP3   OH233001   0.857   2.451   0.558  0.0135 -0.2147 -0.0289
 3789TIP3    H133002   0.943   2.430   0.594  0.1646  1.1000  0.4440
 3789TIP3    H233003   0.796   2.430   0.629 -0.2706 -2.6280 -0.8919
 3790TIP3   OH233004   6.316   0.674   8.736 -0.1375  0.0777 -0.4969
 3790TIP3    H133005   6.234   0.722   8.749  0.4618  0.7858  0.8576
 3790TIP3    H233006   6.288   0.585   8.711 -1.3391  0.1331  0.5787
 3791TIP3   OH233007   3.992   6.574   1.960  0.2716  0.4762  0.5359
 3791TIP3    H133008   3.904   6.544   1.941  0.9092 -0.5345 -1.0512
 3791TIP3    H233009   3.997   6.576   2.056 -1.1707 -0.3335  0.6542
 3792TIP3   OH233010   3.985   1.849   8.389 -0.8293  0.4024  0.3559
 3792TIP3    H133011   3.956   1.782   8.327 -0.7018  0.0061  0.7275
 3792TIP3    H233012   4.080   1.847   8.385 -0.7012 -1.4602  2.4852
 3793TIP3   OH233013   3.332   2.145   8.373  0.3569 -0.3880 -0.2383
 3793TIP3    H133014   3.316   2.088   8.298  0.2581  0.6871 -1.0484
 3793TIP3    H233015   3.410   2.196   8.348  0.8251 -0.6039  0.7353
 3794TIP3   OH233016   0.114   2.938   7.534  0.2679  0.2650 -0.1796
 3794TIP3    H133017   0.104   2.890   7.616  0.1915  0.6087  0.0161
 3794TIP3    H233018   0.078   3.025   7.553  2.2654  1.0917  0.1043
 3795TIP3   OH233019   4.768   0.351   1.391 -0.3822  0.2297 -0.1387
 3795TIP3    H133020   4.858   0.335   1.365 -0.9588 -1.8026 -1.0402
 3795TIP3    H233021   4.731   0.401   1.318 -0.2683  0.1587 -0.2455
 3796TIP3   OH233022   4.708   1.917   1.631  0.0940  0.1250  0.3762
 3796TIP3    H133023   4.691   1.901   1.724  0.4436  0.2614  0.4631
 3796TIP3    H233024   4.671   1.841   1.587  2.3195 -1.3037  0.8271
 3797TIP3   OH233025   4.825   2.329   8.583  0.1204 -0.1787  0.1941
 3797TIP3    H133026   4.752   2.277   8.617  1.1772 -1.4904  0.5641
 3797TIP3    H233027   4.893   2.264   8.564  1.2704  1.0260  0.0730
 3798TIP3   OH233028   0.447   2.473   6.736  0.2981 -0.4357  0.4034
 3798TIP3    H133029   0.430   2.423   6.657 -0.1326  2.1709 -1.2798
 3798TIP3    H233030   0.543   2.481   6.739  0.3130 -0.4743  0.0765
 3799TIP3   OH233031   0.162   5.295   8.073 -0.9138  0.0671  0.0489
 3799TIP3    H133032   0.135   5.385   8.058 -0.0664  0.4655  0.7705
 3799TIP3    H233033   0.166   5.255   7.986  1.4248  1.5570 -0.6273
 3800TIP3   OH233034   4.239   1.260   1.026  0.0087 -0.4126  0.3043
 3800TIP3    H133035   4.229   1.311   1.107 -0.3488 -1.4216  0.9202
 3800TIP3    H233036   4.152   1.265   0.985 -0.4780 -1.7114  1.1107
 3801TIP3   OH233037   2.882   1.198   1.506  0.4056 -0.1411  0.1386
 3801TIP3    H133038   2.976   1.207   1.519  0.5321  0.4809 -1.0120
 3801TIP3    H233039   2.862   1.109   1.535  1.2406 -0.0825  0.9336
 3802TIP3   OH233040   3.631   5.425   7.760  0.5064  0.1733  0.1959
 3802TIP3    H133041   3.662   5.496   7.818  2.1002 -0.8248  0.6307
 3802TIP3    H233042   3.550   5.459   7.722  0.2150  1.4751  1.8533
 3803TIP3   OH233043   4.696   0.628   0.421  0.4825  0.1325 -0.2556
 3803TIP3    H133044   4.715   0.535   0.438 -0.8926 -0.0644  0.3033
 3803TIP3    H233045   4.609   0.628   0.381 -0.0358  1.2405  0.8038
 3804TIP3   OH233046   1.391   6.016   0.137  0.0699  0.1038 -0.1116
 3804TIP3    H133047   1.302   5.984   0.121 -0.3910 -0.2039  2.5687
 3804TIP3    H233048   1.392   6.038   0.230  2.9036 -0.1877  0.0131
 3805TIP3   OH233049   2.291   2.050   1.846 -0.1823  0.2704 -0.0871
 3805TIP3    H133050   2.364   2.049   1.909  1.0592 -2.3773 -1.3818
 3805TIP3    H233051   2.248   2.134   1.860  1.1688  0.5957  2.9591
 3806TIP3   OH233052   4.796   2.144   0.470  0.2187  0.3080 -0.3375
 3806TIP3    H133053   4.818   2.236   0.484 -1.4747  0.8984 -1.2668
 3806TIP3    H233054   4.880   2.101   0.452  0.7796  2.2174 -2.7095
 3807TIP3   OH233055   2.464   3.294   0.944  0.4753 -0.2832 -0.5309
 3807TIP3    H133056   2.414   3.307   0.863 -0.4962 -2.4893 -0.3557
 3807TIP3    H233057   2.474   3.199   0.951  0.8989 -0.1316  1.7203
 3808TIP3   OH233058   1.044   6.811   1.348  0.4419 -0.3954  0.0635
 3808TIP3    H133059   1.105   6.753   1.394  0.7105  0.3732  0.6962
 3808TIP3    H233060   1.091   6.837   1.268  0.2596 -1.1555 -0.3023
 3809TIP3   OH233061   5.458   0.118   0.149  0.1193  0.1475  0.1274
 3809TIP3    H133062   5.385   0.177   0.164  1.0198  1.5625 -0.8239
 3809TIP3    H233063   5.465   0.067   0.230 -0.3346  1.7411  1.2142
 3810TIP3   OH233064   3.687   5.233   8.494 -0.3031 -0.2214  0.2563
 3810TIP3    H133065   3.615   5.291   8.516 -0.6206 -0.1821 -0.8252
 3810TIP3    H233066   3.759   5.292   8.470 -0.7529 -0.2458 -1.2422
 3811TIP3   OH233067   1.173   0.311   7.762 -0.4312  0.3377 -0.7033
 3811TIP3    H133068   1.163   0.391   7.710 -0.3515  0.4926 -0.4811
 3811TIP3    H233069   1.096   0.259   7.740 -0.6641  0.6261 -0.5868
 3812TIP3   OH233070   1.272   6.701   1.011  0.0042 -0.5060  0.3809
 3812TIP3    H133071   1.199   6.648   1.043 -1.1272  1.3696  1.0756
 3812TIP3    H233072   1.246   6.726   0.922  1.2880 -2.3633 -0.5914
 3813TIP3   OH233073   5.256   0.415   7.800 -0.1150 -0.0448 -0.0558
 3813TIP3    H133074   5.303   0.422   7.883  0.8978  0.4914 -0.6644
 3813TIP3    H233075   5.319   0.376   7.739  0.0044  1.8803 -1.2307
 3814TIP3   OH233076   4.249   2.292   1.886  0.4373  0.0035  0.3483
 3814TIP3    H133077   4.258   2.214   1.940 -1.0523  0.1823  0.8922
 3814TIP3    H233078   4.295   2.361   1.934  2.2430 -0.6281 -0.4038
 3815TIP3   OH233079   6.051   6.491   7.109  0.0392 -0.9317 -0.5722
 3815TIP3    H133080   6.122   6.443   7.150  0.3603 -0.0607 -0.0885
 3815TIP3    H233081   6.060   6.580   7.141  0.1265 -0.2691 -2.3148
 3816TIP3   OH233082   4.799   2.352   6.732  0.6746 -0.4350 -0.2735
 3816TIP3    H133083   4.713   2.315   6.711 -0.1593  0.4988  1.3245
 3816TIP3    H233084   4.828   2.393   6.650  0.6054 -2.5288 -1.4406
 3817TIP3   OH233085   4.834   2.580   7.556 -0.2783 -0.0378 -0.4907
 3817TIP3    H133086   4.825   2.495   7.600 -0.6842 -0.2310 -0.9263
 3817TIP3    H233087   4.915   2.572   7.505  0.0075  0.0618 -0.0599
 3818TIP3   OH233088   4.430   4.718   0.801  0.4303 -0.3373  0.6350
 3818TIP3    H133089   4.413   4.812   0.802  0.9212 -0.2470  1.4397
 3818TIP3    H233090   4.350   4.679   0.767  0.6739  0.4558 -0.9049
 3819TIP3   OH233091   5.389   1.827   1.454 -0.5185 -0.2609 -0.4420
 3819TIP3    H133092   5.442   1.762   1.500  1.8222  2.0381  0.4242
 3819TIP3    H233093   5.321   1.851   1.516 -0.5736 -0.9142 -0.2454
 3820TIP3   OH233094   0.008   3.724   7.329 -0.2839  0.7012 -0.1278
 3820TIP3    H133095  -0.018   3.811   7.359 -1.2550  0.0668  1.0084
 3820TIP3    H233096  -0.039   3.710   7.248 -0.9467  0.8486  0.2276
 3821TIP3   OH233097   6.238   6.465   8.491 -0.2988 -0.7888 -0.0362
 3821TIP3    H133098   6.240   6.475   8.396 -2.2605 -1.7274 -0.2285
 3821TIP3    H233099   6.260   6.373   8.506  0.3052 -0.5729  0.4561
 3822TIP3   OH233100   2.454   3.961   8.404  0.2384 -0.1908  0.3044
 3822TIP3    H133101   2.435   4.006   8.487 -1.5670  2.4600 -1.3789
 3822TIP3    H233102   2.368   3.944   8.365  0.9604  1.9009 -2.5527
 3823TIP3   OH233103   2.419   6.230   0.923  0.2481 -0.3040 -0.4848
 3823TIP3    H133104   2.456   6.284   0.992  1.9185 -1.0051 -0.7776
 3823TIP3    H233105   2.324   6.242   0.931  0.4899  1.0726  0.7106
 3824TIP3   OH233106   3.016   4.446   7.657 -0.2815  0.6944 -0.3091
 3824TIP3    H133107   2.927   4.480   7.662  0.1643  1.7586  1.0069
 3824TIP3    H233108   3.072   4.523   7.654  0.6171  0.0455 -0.7821
 3825TIP3   OH233109   4.982   0.421   8.385  0.0899  0.3514 -0.0121
 3825TIP3    H133110   5.042   0.366   8.436 -1.2616 -1.8774 -0.7163
 3825TIP3    H233111   5.022   0.424   8.298  0.1902  0.5519  0.0401
 3826TIP3   OH233112   4.505   0.281   1.412 -0.0430  0.7115 -0.2554
 3826TIP3    H133113   4.515   0.223   1.487  1.0643 -1.8719 -2.2280
 3826TIP3    H233114   4.594   0.291   1.378 -0.6829  0.4389 -2.1446
 3827TIP3   OH233115   3.718   6.067   0.301  0.2836 -0.2692 -0.4623
 3827TIP3    H133116   3.707   6.161   0.313 -0.5130 -0.0611 -2.5091
 3827TIP3    H233117   3.802   6.057   0.257  0.1867 -0.4829 -0.6046
 3828TIP3   OH233118   5.736   6.263   6.979 -0.4016  0.6081  0.7224
 3828TIP3    H133119   5.765   6.208   7.051  0.2119  1.5007  1.1855
 3828TIP3    H233120   5.644   6.239   6.965 -0.5876  0.5778  1.9502
 3829TIP3   OH233121   4.159   0.697   8.266  0.2090  0.0104  0.0638
 3829TIP3    H133122   4.081   0.716   8.213  0.1230  0.1501  0.2368
 3829TIP3    H233123   4.183   0.782   8.303  0.1695 -0.1170  0.3807
 3830TIP3   OH233124   3.159   3.620   1.232  0.0284 -0.2101 -0.3289
 3830TIP3    H133125   3.202   3.599   1.315  0.2445 -0.8532 -0.5931
 3830TIP3    H233126   3.112   3.701   1.249  0.6166  0.0209  0.2291
 3831TIP3   OH233127   1.804   2.783   0.247  0.0851 -0.4275  0.4459
 3831TIP3    H133128   1.843   2.732   0.318 -0.2683 -1.9723 -0.4196
 3831TIP3    H233129   1.772   2.717   0.185  0.8263  0.8709 -1.3973
 3832TIP3   OH233130   1.452   6.870   8.627  0.4156  0.2429 -0.3047
 3832TIP3    H133131   1.542   6.884   8.657  0.0807  0.9590  0.4360
 3832TIP3    H233132   1.460   6.812   8.552  1.4924  0.2589 -0.2215
 3833TIP3   OH233133   3.240   3.413   6.105 -0.8844  0.6197 -0.0470
 3833TIP3    H133134   3.250   3.318   6.111 -0.9785  0.6677  1.2795
 3833TIP3    H233135   3.154   3.431   6.143  0.2914  1.4281  2.5083
 3834TIP3   OH233136   2.396   3.394   6.350  0.3077 -0.0569 -0.4211
 3834TIP3    H133137   2.470   3.339   6.323  0.3399 -0.1371 -0.1757
 3834TIP3    H233138   2.433   3.455   6.414  0.1563 -0.1157 -0.2760
 3835TIP3   OH233139   1.853   0.816   0.206 -0.5958 -0.4323  0.0373
 3835TIP3    H133140   1.869   0.893   0.260  0.4339  0.2654 -1.2135
 3835TIP3    H233141   1.764   0.829   0.173 -1.0760 -0.6579  1.1846
 3836TIP3   OH233142   2.232   3.942   0.709  0.2253 -0.6551 -0.0742
 3836TIP3    H133143   2.267   3.973   0.793  0.7884  0.5741 -0.7313
 3836TIP3    H233144   2.307   3.901   0.665 -0.0780 -1.3374  0.0361
 3837TIP3   OH233145   0.664   3.168   8.657 -0.2318 -0.5862 -0.2091
 3837TIP3    H133146   0.683   3.235   8.591 -0.7017 -1.0484 -0.8303
 3837TIP3    H233147   0.596   3.207   8.712 -1.3622 -0.9684 -1.2796
 3838TIP3   OH233148   5.673   2.629   0.978  0.1636 -0.2241  0.6159
 3838TIP3    H133149   5.589   2.626   0.931  0.3321 -0.4637  0.3201
 3838TIP3    H233150   5.696   2.722   0.981  1.0841 -0.3218 -1.4977
 3839TIP3   OH233151   6.086   3.099   6.947 -0.2565 -0.6218 -0.4633
 3839TIP3    H133152   6.149   3.141   6.890 -1.7944  3.5731  0.5856
 3839TIP3    H233153   6.127   3.098   7.034 -0.6652 -0.1448 -0.2562
 3840TIP3   OH233154   3.066   6.285   0.460  0.5831 -0.4385 -0.3168
 3840TIP3    H133155   3.135   6.305   0.398  0.6764  1.8687  0.4160
 3840TIP3    H233156   3.031   6.371   0.485 -0.4662 -1.3679  1.6451
 3841TIP3   OH233157   3.810   2.139   6.630 -0.0750 -0.0969  0.0240
 3841TIP3    H133158   3.771   2.208   6.576  3.2561  0.7780 -1.5416
 3841TIP3    H233159   3.832   2.070   6.568  1.3885 -0.2402  0.6595
 3842TIP3   OH233160   5.201   1.639   0.267  0.0860 -0.0523  0.1173
 3842TIP3    H133161   5.192   1.580   0.192  0.4652  1.2870 -1.0069
 3842TIP3    H233162   5.295   1.651   0.277  0.0082  0.4583  0.2622
 3843TIP3   OH233163   3.830   0.624   0.303 -0.4367 -1.0385 -0.3341
 3843TIP3    H133164   3.906   0.663   0.346 -0.6297  0.6036 -1.3813
 3843TIP3    H233165   3.757   0.641   0.363 -0.0197 -2.6188  0.6733
 3844TIP3   OH233166   6.430   3.582   8.230  0.0776 -0.5972  0.0793
 3844TIP3    H133167   6.455   3.598   8.139 -1.6040 -0.1968 -0.3524
 3844TIP3    H233168   6.335   3.577   8.228 -0.0049 -0.4751  1.8464
 3845TIP3   OH233169   3.338   0.254   7.143 -0.4817 -0.0946  0.0923
 3845TIP3    H133170   3.391   0.269   7.065 -2.6258  2.0626 -1.0392
 3845TIP3    H233171   3.342   0.336   7.192  0.4044 -1.2323  2.0889
 3846TIP3   OH233172   0.699   4.000   8.706  0.0719  0.0493 -0.2400
 3846TIP3    H133173   0.618   3.983   8.754  0.0176 -0.8315 -0.6215
 3846TIP3    H233174   0.746   3.917   8.708  0.5403  0.2935 -0.8189
 3847TIP3   OH233175   5.351   2.022   7.170 -0.0804 -0.3519  0.8788
 3847TIP3    H133176   5.382   2.040   7.258  1.3373  0.0627  0.3248
 3847TIP3    H233177   5.419   1.966   7.132 -0.3662 -0.0273 -0.1379
 3848TIP3   OH233178   0.928   3.541   0.136  0.7411 -0.8626 -0.6148
 3848TIP3    H133179   1.020   3.540   0.112  0.6827 -1.2722 -0.8369
 3848TIP3    H233180   0.899   3.450   0.123  0.3131 -0.7401 -0.5309
 3849TIP3   OH233181   2.650   3.979   6.427 -0.2742  0.1534 -0.3959
 3849TIP3    H133182   2.560   4.005   6.445  0.1382  0.9985  0.4870
 3849TIP3    H233183   2.648   3.947   6.337 -1.5454 -0.2858 -0.2333
 3850TIP3   OH233184   3.677   3.924   7.452  0.6295  0.4890 -0.2496
 3850TIP3    H133185   3.734   3.907   7.527  0.0635  0.4940  0.1892
 3850TIP3    H233186   3.696   4.014   7.427 -1.1010  1.4402  1.6115
 3851TIP3   OH233187   3.653   0.365   8.111 -0.4620  0.0815 -0.2684
 3851TIP3    H133188   3.647   0.323   8.025 -2.8692  1.2306 -0.7441
 3851TIP3    H233189   3.747   0.380   8.124 -0.0526  0.1175 -2.8245
 3852TIP3   OH233190   5.843   5.362   0.643  0.5783  0.2776  0.3612
 3852TIP3    H133191   5.871   5.338   0.555  1.7933  0.2329  0.7414
 3852TIP3    H233192   5.903   5.431   0.670 -0.4659  1.0546  0.7522
 3853TIP3   OH233193   3.772   0.564   2.007 -0.1188 -0.0091  0.2315
 3853TIP3    H133194   3.771   0.519   2.092  0.2595  0.2708  0.3910
 3853TIP3    H233195   3.719   0.510   1.950  0.2128 -0.5820  0.4595
 3854TIP3   OH233196   0.155   3.430   8.425 -0.1612 -0.4934 -0.3903
 3854TIP3    H133197   0.168   3.471   8.511 -2.6456 -2.0412  0.8510
 3854TIP3    H233198   0.167   3.502   8.362  3.6888  0.3020  0.9581
 3855TIP3   OH233199   1.703   0.118   7.660 -0.2088  0.0650 -0.4046
 3855TIP3    H133200   1.713   0.093   7.568  1.2525 -0.2671 -0.1818
 3855TIP3    H233201   1.743   0.046   7.709  0.4716  0.9752  0.4165
 3856TIP3   OH233202   3.472   1.357   7.435  0.2589  0.7943  0.0977
 3856TIP3    H133203   3.505   1.369   7.524  1.4732  3.0101 -0.5627
 3856TIP3    H233204   3.538   1.303   7.392 -0.7571 -1.0179  0.7093
 3857TIP3   OH233205   1.222   5.703   8.516  0.3932 -0.7855  0.0965
 3857TIP3    H133206   1.182   5.705   8.429  0.0507  0.5161  0.2694
 3857TIP3    H233207   1.151   5.679   8.575  0.8642 -2.7641 -0.0756
 3858TIP3   OH233208   1.421   2.317   0.870  0.7478  0.5937 -0.5667
 3858TIP3    H133209   1.372   2.374   0.929  2.3153  0.0807  1.3281
 3858TIP3    H233210   1.442   2.373   0.795 -2.1954  0.9553 -1.2613
 3859TIP3   OH233211   2.194   6.450   1.485  0.8560  0.3778 -0.9157
 3859TIP3    H133212   2.190   6.381   1.419 -1.4124  0.2853 -0.7735
 3859TIP3    H233213   2.110   6.444   1.531  1.1540  2.3697 -0.0058
 3860TIP3   OH233214   0.780   0.765   5.953 -0.1878 -0.1080 -0.1300
 3860TIP3    H133215   0.812   0.847   5.917 -0.1882  0.2718  0.7100
 3860TIP3    H233216   0.857   0.725   5.994 -0.0257 -0.8751 -1.1379
 3861TIP3   OH233217   6.499   1.739   1.647  0.4799  0.0702  0.5930
 3861TIP3    H133218   6.545   1.801   1.703 -0.0399  0.0551  1.0397
 3861TIP3    H233219   6.410   1.735   1.683  0.8942 -2.1037  1.5250
 3862TIP3   OH233220   4.786   5.668   1.726  0.2704 -0.1685 -0.6943
 3862TIP3    H133221   4.861   5.721   1.699 -0.3063  0.5593 -0.8821
 3862TIP3    H233222   4.714   5.730   1.734  0.2789 -0.4110  2.0261
 3863TIP3   OH233223   0.679   4.660   8.292 -0.3590  0.2246  0.3130
 3863TIP3    H133224   0.614   4.591   8.276 -0.4705  0.5037 -0.4829
 3863TIP3    H233225   0.627   4.737   8.314 -0.3363  0.5492 -0.7009
 3864TIP3   OH233226   3.649   3.593   6.633 -0.1494  0.0261  0.4659
 3864TIP3    H133227   3.667   3.684   6.657 -1.4299  0.1954  0.8539
 3864TIP3    H233228   3.568   3.572   6.680 -2.5280  0.1968 -3.1843
 3865TIP3   OH233229   0.653   1.197   0.331  0.1530 -0.2491 -0.0352
 3865TIP3    H133230   0.695   1.281   0.352 -0.8334  0.2611 -0.0258
 3865TIP3    H233231   0.616   1.210   0.244 -2.3295  0.2921  1.0281
 3866TIP3   OH233232   1.509   1.536   5.955 -0.0789 -0.5114 -0.6932
 3866TIP3    H133233   1.567   1.578   5.892 -1.1637  0.2701 -1.1958
 3866TIP3    H233234   1.438   1.598   5.969 -0.8413 -1.4641 -0.1383
 3867TIP3   OH233235   5.985   2.209   8.233 -1.1756  0.2388 -0.1085
 3867TIP3    H133236   5.994   2.225   8.139  0.2964  0.9519  0.1282
 3867TIP3    H233237   5.975   2.296   8.271 -0.2178  0.0844  0.5347
 3868TIP3   OH233238   3.988   0.481   6.710 -0.5014  0.4440 -0.2070
 3868TIP3    H133239   4.039   0.451   6.635 -0.5119 -0.0082 -0.0358
 3868TIP3    H233240   3.932   0.407   6.732 -0.5698  0.6108  0.1847
 3869TIP3   OH233241   5.449   2.657   7.554 -0.2593  0.0262 -0.2863
 3869TIP3    H133242   5.530   2.609   7.535 -0.0060  0.1064  0.5532
 3869TIP3    H233243   5.389   2.590   7.587 -0.7214 -0.1251 -1.3917
 3870TIP3   OH233244   2.465   3.752   8.143 -0.0134  0.1488 -0.2248
 3870TIP3    H133245   2.548   3.704   8.147 -1.3862 -2.4267 -0.0884
 3870TIP3    H233246   2.422   3.732   8.227 -0.4647  2.0824  0.0400
 3871TIP3   OH233247   4.344   0.102   2.163 -0.4620  0.1524  0.0152
 3871TIP3    H133248   4.313   0.012   2.154  1.0465 -0.5413  1.1613
 3871TIP3    H233249   4.310   0.130   2.248 -0.5838  0.4997 -0.1503
 3872TIP3   OH233250   3.007   4.449   0.724  0.4994 -0.3860  0.7524
 3872TIP3    H133251   2.921   4.414   0.702 -0.9796  2.4061  1.5857
 3872TIP3    H233252   3.004   4.464   0.818  1.0236  1.6818  0.5035
 3873TIP3   OH233253   3.446   4.448   0.889  0.8330 -0.2098  0.5027
 3873TIP3    H133254   3.462   4.379   0.954  1.0571 -0.1235  0.5416
 3873TIP3    H233255   3.379   4.411   0.832  1.5641 -0.8239  0.0088
 3874TIP3   OH233256   2.147   1.401   7.303 -0.1298 -0.0559  0.1159
 3874TIP3    H133257   2.156   1.489   7.339  0.0956  0.2581 -0.6813
 3874TIP3    H233258   2.206   1.400   7.227  1.5384 -1.5789  1.3282
 3875TIP3   OH233259   0.922   4.793   0.500  0.6649 -0.6162 -0.6064
 3875TIP3    H133260   0.848   4.853   0.490  0.2419 -1.2328 -1.3729
 3875TIP3    H233261   0.932   4.783   0.595 -0.0282 -0.2706 -0.4854
 3876TIP3   OH233262   1.405   4.729   1.380  0.4793 -0.3116  0.0776
 3876TIP3    H133263   1.470   4.713   1.448  0.2602  1.3440  0.7146
 3876TIP3    H233264   1.393   4.643   1.338  4.2350 -0.4092 -1.1725
 3877TIP3   OH233265   4.849   5.988   8.137 -0.1695  0.4297 -0.1524
 3877TIP3    H133266   4.841   5.894   8.150  0.1054  0.4954  0.4972
 3877TIP3    H233267   4.789   6.027   8.201 -1.6990  0.6597 -1.6491
 3878TIP3   OH233268   1.000   2.552   1.739 -0.3220 -0.1702 -0.3737
 3878TIP3    H133269   0.955   2.631   1.709 -3.1359 -1.5185 -0.0896
 3878TIP3    H233270   0.935   2.507   1.794  0.6945 -3.2116 -1.4417
 3879TIP3   OH233271   0.911   1.029   7.516 -0.1325  0.7340 -0.4288
 3879TIP3    H133272   0.841   1.003   7.457 -1.7421  0.8683  1.2989
 3879TIP3    H233273   0.943   0.947   7.553 -1.1079  0.7752  0.5811
 3880TIP3   OH233274   5.566   2.704   6.982  0.4401  0.1612 -0.4818
 3880TIP3    H133275   5.559   2.719   6.887 -2.3376  2.2861 -0.0873
 3880TIP3    H233276   5.660   2.709   7.000  1.2110 -1.7789 -3.2547
 3881TIP3   OH233277   4.225   5.102   6.718 -0.3672 -0.6229 -0.5064
 3881TIP3    H133278   4.318   5.115   6.738  0.0397  0.5624 -2.8451
 3881TIP3    H233279   4.185   5.186   6.737 -0.9749 -1.1174  0.4419
 3882TIP3   OH233280   0.399   4.174   7.557  0.1355  0.1752 -0.3289
 3882TIP3    H133281   0.486   4.207   7.576 -0.7231  1.8720  0.9109
 3882TIP3    H233282   0.384   4.195   7.465  0.6287  0.7947 -0.2687
 3883TIP3   OH233283   2.110   4.896   6.894  0.3735 -0.3902 -0.8579
 3883TIP3    H133284   2.076   4.978   6.930  0.4658 -1.0841  0.8910
 3883TIP3    H233285   2.183   4.873   6.951  1.0805 -1.1078 -2.0305
 3884TIP3   OH233286   3.861   0.258   0.680 -0.3889 -0.2415  0.1863
 3884TIP3    H133287   3.765   0.266   0.680 -0.3678  0.0226  0.6543
 3884TIP3    H233288   3.887   0.280   0.769 -0.0093 -1.7808  0.4774
 3885TIP3   OH233289   2.405   5.443   7.258 -0.1457 -0.1587  0.8365
 3885TIP3    H133290   2.334   5.458   7.195  0.1898 -2.6978 -0.2790
 3885TIP3    H233291   2.464   5.517   7.245 -1.2121  0.5423 -0.2449
 3886TIP3   OH233292   4.128   6.089   0.390  0.0241  0.5783 -0.8287
 3886TIP3    H133293   4.205   6.096   0.446 -0.3833  0.0639 -0.1847
 3886TIP3    H233294   4.062   6.144   0.432 -0.4454 -0.2143 -0.5045
 3887TIP3   OH233295   2.268   0.497   0.896  0.1520  0.1497  0.0368
 3887TIP3    H133296   2.266   0.466   0.986  1.3034  0.4394  0.1704
 3887TIP3    H233297   2.269   0.593   0.904 -2.1295  0.2753 -0.3485
 3888TIP3   OH233298   2.611   4.490   1.223  0.2755 -0.0605  0.7942
 3888TIP3    H133299   2.706   4.495   1.222  0.2688  0.2407  1.3911
 3888TIP3    H233300   2.582   4.581   1.232 -0.0605 -0.1811  0.9755
 3889TIP3   OH233301   1.044   3.769   0.635 -0.3553 -0.2205 -0.0461
 3889TIP3    H133302   1.048   3.743   0.727  2.3346 -0.0188 -0.0344
 3889TIP3    H233303   1.108   3.714   0.591 -0.1292  1.0668 -1.4206
 3890TIP3   OH233304   1.694   1.682   5.788  0.1294  0.4367 -0.2481
 3890TIP3    H133305   1.724   1.599   5.749 -3.2975  0.4228 -3.3930
 3890TIP3    H233306   1.738   1.749   5.736  0.6333  0.5749  0.3460
 3891TIP3   OH233307   0.863   3.594   7.309  0.2806  0.4139 -1.2269
 3891TIP3    H133308   0.931   3.661   7.300  0.8031  0.0636 -0.0620
 3891TIP3    H233309   0.820   3.591   7.223  1.1662  1.2450 -1.7123
 3892TIP3   OH233310   3.260   3.329   0.064 -0.4606 -0.4760 -0.0870
 3892TIP3    H133311   3.295   3.281  -0.011 -1.5212 -0.1475 -0.8041
 3892TIP3    H233312   3.282   3.420   0.047  1.3770 -0.6198  1.1795
 3893TIP3   OH233313   2.603   0.003   5.925 -0.3362 -0.1857 -0.2057
 3893TIP3    H133314   2.578  -0.031   6.011 -0.8867 -0.0574 -0.3138
 3893TIP3    H233315   2.698   0.010   5.929 -0.5088  2.7483  1.5046
 3894TIP3   OH233316   3.382   5.313   1.155  0.1535 -0.1635 -0.0199
 3894TIP3    H133317   3.298   5.356   1.138  1.2264  1.4265 -1.6734
 3894TIP3    H233318   3.366   5.220   1.136 -0.9567  0.2872 -1.4523
 3895TIP3   OH233319   1.798   5.952   1.030  0.0975 -0.1246 -0.1738
 3895TIP3    H133320   1.866   5.968   0.964  0.1792 -0.2482 -0.1208
 3895TIP3    H233321   1.827   5.873   1.075 -0.2168 -0.3299 -0.3241
 3896TIP3   OH233322   3.012   5.646   1.243  0.6146  0.2889 -0.3505
 3896TIP3    H133323   2.947   5.667   1.310  0.0062 -0.1843 -0.7870
 3896TIP3    H233324   3.029   5.729   1.199 -0.8671  0.1267 -1.2678
 3897TIP3   OH233325   4.142   3.826   7.853 -0.5538 -1.1891 -0.4649
 3897TIP3    H133326   4.181   3.819   7.940 -0.3240 -0.1060 -0.4575
 3897TIP3    H233327   4.052   3.855   7.869 -2.1269 -5.4381 -0.3746
 3898TIP3   OH233328   4.127   1.422   7.546  0.0252  0.0314  0.1900
 3898TIP3    H133329   4.173   1.391   7.624  1.0788 -0.4220 -0.5773
 3898TIP3    H233330   4.082   1.502   7.575 -1.2088 -1.1540  1.7268
 3899TIP3   OH233331   4.321   5.642   6.641  0.6458  0.2791  0.5440
 3899TIP3    H133332   4.264   5.652   6.716 -0.7289  0.6561 -0.5147
 3899TIP3    H233333   4.272   5.587   6.580  0.5536  2.1630 -1.1880
 3900TIP3   OH233334   6.727   2.879   0.245  0.0727 -0.1249  0.1864
 3900TIP3    H133335   6.747   2.819   0.318  1.0462  2.4336  2.1988
 3900TIP3    H233336   6.701   2.822   0.173  1.0548 -2.9413  1.9045
 3901TIP3   OH233337   3.330   5.356   5.851  0.8142  0.2366 -0.3163
 3901TIP3    H133338   3.295   5.409   5.780 -0.0017  1.8216  1.1712
 3901TIP3    H233339   3.299   5.268   5.833 -1.6297  1.0567 -0.5921
 3902TIP3   OH233340   0.290   0.505   0.083  0.9856 -0.3154 -0.5875
 3902TIP3    H133341   0.250   0.575   0.033  2.0466  1.3222  0.7418
 3902TIP3    H233342   0.283   0.534   0.174  0.7734 -2.3073  0.0788
 3903TIP3   OH233343   2.781   5.893   1.290 -0.3540  0.4654  0.6257
 3903TIP3    H133344   2.688   5.911   1.289 -0.3693  0.4544 -0.6454
 3903TIP3    H233345   2.793   5.827   1.358 -1.3379  0.1715  0.5200
 3904TIP3   OH233346   2.983   0.584   7.777 -0.0891  0.2091 -0.0347
 3904TIP3    H133347   2.998   0.609   7.686  2.2562  1.7948  0.6949
 3904TIP3    H233348   2.912   0.520   7.773 -0.6683  0.9000 -2.8622
 3905TIP3   OH233349   3.590   4.841   6.304 -0.2611  0.1782  0.3073
 3905TIP3    H133350   3.613   4.758   6.264  0.5223 -0.3910  1.8703
 3905TIP3    H233351   3.658   4.902   6.275 -1.5791  0.6914 -1.9560
 3906TIP3   OH233352   6.699   3.464   7.706  0.1883 -0.1716  0.3413
 3906TIP3    H133353   6.695   3.388   7.647 -0.6302 -0.6840  1.0304
 3906TIP3    H233354   6.769   3.442   7.767  0.0574 -0.3108  0.4442
 3907TIP3   OH233355   3.287   0.418   6.877  0.0889  0.1879 -0.6253
 3907TIP3    H133356   3.207   0.465   6.851 -0.4930  0.2982  1.1968
 3907TIP3    H233357   3.353   0.486   6.885 -0.4294  0.5595  0.7729
 3908TIP3   OH233358   6.584   1.835   7.982 -0.2406  0.2259  0.5244
 3908TIP3    H133359   6.638   1.780   8.039 -2.5895 -1.8605  0.9067
 3908TIP3    H233360   6.549   1.775   7.916 -1.1624  1.7077 -0.3927
 3909TIP3   OH233361   1.640   5.335   7.354  0.0699  0.4122 -0.2126
 3909TIP3    H133362   1.635   5.245   7.322  1.4534  0.4222 -0.5419
 3909TIP3    H233363   1.730   5.362   7.333  0.3997  1.1151  1.8859
 3910TIP3   OH233364   6.326   4.801   0.859 -0.2648 -0.3179 -0.1302
 3910TIP3    H133365   6.323   4.706   0.874 -0.9270 -0.2693  0.1077
 3910TIP3    H233366   6.236   4.823   0.835 -0.5068  0.5037  1.4395
 3911TIP3   OH233367   4.394   2.164   6.822 -0.0795  0.1363  0.2131
 3911TIP3    H133368   4.366   2.083   6.865 -1.2274  0.5048  0.1847
 3911TIP3    H233369   4.400   2.228   6.892  2.6055 -0.3469  0.5539
 3912TIP3   OH233370   1.930   5.405   7.221  0.0895 -0.4028 -0.1111
 3912TIP3    H133371   1.902   5.436   7.134  1.6733  0.0291 -0.5020
 3912TIP3    H233372   1.968   5.483   7.262 -2.1458 -0.1759  1.6706
 3913TIP3   OH233373   4.347   1.421   6.846 -0.3369 -0.0538 -0.6085
 3913TIP3    H133374   4.404   1.431   6.922 -1.3438  0.7975  0.0679
 3913TIP3    H233375   4.328   1.327   6.842 -1.0583  0.0022  0.8143
 3914TIP3   OH233376   2.312   0.692   0.499 -0.3302 -0.4529 -0.6383
 3914TIP3    H133377   2.227   0.715   0.536 -1.5449 -1.2926 -2.7549
 3914TIP3    H233378   2.300   0.699   0.405  1.5320 -2.0113 -1.0470
 3915TIP3   OH233379   1.520   3.408   7.817 -0.1097 -0.6821  0.5601
 3915TIP3    H133380   1.536   3.344   7.886  1.2017 -1.5181 -0.4719
 3915TIP3    H233381   1.566   3.487   7.846 -0.5663 -0.6339  1.1802
 3916TIP3   OH233382   0.778   5.489   8.025  0.1573 -0.2063  0.2501
 3916TIP3    H133383   0.851   5.446   7.981  0.8922 -0.5814  1.7955
 3916TIP3    H233384   0.791   5.583   8.007  0.2572 -0.3642 -0.5608
 3917TIP3   OH233385   1.483   1.964   7.964  0.2850 -0.2361  0.4452
 3917TIP3    H133386   1.478   2.057   7.942  1.2762 -0.4224 -0.6683
 3917TIP3    H233387   1.482   1.962   8.060  1.2863  1.0109  0.5097
 3918TIP3   OH233388   0.105   2.571   1.556 -0.0231  0.3232 -0.4895
 3918TIP3    H133389   0.177   2.511   1.575  0.8063  1.3625 -0.2733
 3918TIP3    H233390   0.064   2.588   1.641  0.1727  0.5806 -0.4430
 3919TIP3   OH233391   0.103   5.767   1.116  0.3863  0.4336  0.6526
 3919TIP3    H133392   0.097   5.764   1.020  0.6679 -1.7160  0.6580
 3919TIP3    H233393   0.034   5.828   1.142  0.2072  0.9537 -0.8943
 3920TIP3   OH233394   3.422   4.599   0.599  0.2772 -0.0653  0.0851
 3920TIP3    H133395   3.328   4.616   0.597 -0.1042 -1.6389  1.7667
 3920TIP3    H233396   3.450   4.631   0.685  1.6101  1.7059 -0.9392
 3921TIP3   OH233397   6.106   3.965   8.294 -0.0526  0.1515 -0.1584
 3921TIP3    H133398   6.025   4.007   8.324 -0.2019 -0.7716  0.7925
 3921TIP3    H233399   6.172   4.034   8.302 -0.3022  0.2626  1.3379
 3922TIP3   OH233400   2.629   0.015   1.398  0.5681  0.0318  0.6161
 3922TIP3    H133401   2.598  -0.015   1.484  0.2443 -0.6747  0.2527
 3922TIP3    H233402   2.567  -0.021   1.335  2.3903 -1.9039 -0.1822
 3923TIP3   OH233403   3.254   6.422   0.906 -0.0267 -0.1758  0.2480
 3923TIP3    H133404   3.333   6.370   0.925 -0.4280 -0.6158  0.7362
 3923TIP3    H233405   3.185   6.357   0.896 -0.2737  0.1902 -0.4951
 3924TIP3   OH233406   2.903   1.784   0.212  0.2002 -0.5430 -0.7847
 3924TIP3    H133407   2.932   1.714   0.154  0.9508  0.2857 -1.4442
 3924TIP3    H233408   2.984   1.820   0.248 -0.2357 -0.7127  0.3916
 3925TIP3   OH233409   4.542   2.060   1.250  0.2930 -0.0253  0.1062
 3925TIP3    H133410   4.563   2.088   1.339 -0.7479 -2.3965  1.1857
 3925TIP3    H233411   4.627   2.053   1.206  0.8942  0.2441  1.1917
 3926TIP3   OH233412   6.601   2.092   0.150 -1.2325  0.0561  0.1025
 3926TIP3    H133413   6.589   2.006   0.192  0.0300 -0.5153 -0.6467
 3926TIP3    H233414   6.550   2.086   0.070 -3.5621  1.1121  1.3854
 3927TIP3   OH233415   6.640   4.157   0.373  0.7073  0.2170  0.4973
 3927TIP3    H133416   6.650   4.180   0.281  2.4255  2.3590  1.1380
 3927TIP3    H233417   6.689   4.224   0.420 -0.2312 -0.7362  3.0031
 3928TIP3   OH233418   0.784   4.978   1.516  0.4399  0.3519  0.0711
 3928TIP3    H133419   0.784   5.039   1.442 -0.9289  0.6357  0.2800
 3928TIP3    H233420   0.871   4.985   1.554  0.7541  1.1152 -0.7762
 3929TIP3   OH233421   2.972   0.161   0.486  0.0610  0.1353  0.4157
 3929TIP3    H133422   2.988   0.254   0.499  0.9444  0.1836 -0.8776
 3929TIP3    H233423   2.918   0.135   0.561 -0.2391  1.6871  0.7597
 3930TIP3   OH233424   1.708   5.968   6.684  0.4012 -0.5118  0.3954
 3930TIP3    H133425   1.780   5.920   6.642  0.5671  1.8488 -2.3603
 3930TIP3    H233426   1.644   5.980   6.614  0.3468  3.0610  0.8694
 3931TIP3   OH233427   0.518   1.381   1.662  0.2445  0.5341  0.1715
 3931TIP3    H133428   0.598   1.431   1.679  1.1212  0.1356 -2.3000
 3931TIP3    H233429   0.470   1.433   1.598 -0.5172 -0.1711  0.1508
 3932TIP3   OH233430   0.461   5.262   1.488  0.0502  0.0297 -0.5385
 3932TIP3    H133431   0.399   5.320   1.443 -1.5546 -0.5547  0.8435
 3932TIP3    H233432   0.455   5.288   1.580  0.6650 -1.1261 -0.1618
 3933TIP3   OH233433   4.060   3.710   0.426 -0.2107 -0.0230 -0.2307
 3933TIP3    H133434   4.124   3.661   0.478  0.8251  1.5810  0.0729
 3933TIP3    H233435   4.033   3.648   0.358  3.1977 -0.1910 -1.6240
 3934TIP3   OH233436   5.254   2.242   8.386 -0.0826  0.0221 -0.0655
 3934TIP3    H133437   5.246   2.314   8.323 -2.7857 -1.2666 -1.3349
 3934TIP3    H233438   5.347   2.219   8.384  0.2612  1.3471 -2.0875
 3935TIP3   OH233439   6.352   6.339   6.738 -0.5317 -0.5600  0.0972
 3935TIP3    H133440   6.429   6.282   6.744 -0.4581 -0.4747 -0.0351
 3935TIP3    H233441   6.280   6.284   6.769 -0.2840 -0.3511  1.0757
 3936TIP3   OH233442   6.296   5.068   0.025  0.0237  0.0720 -0.2790
 3936TIP3    H133443   6.365   5.134   0.022  0.6712 -0.4526  1.6560
 3936TIP3    H233444   6.220   5.115   0.060  0.3762 -0.0912  0.7398
 3937TIP3   OH233445   1.280   3.705   7.079  0.0077 -0.4329  0.3802
 3937TIP3    H133446   1.373   3.725   7.083 -0.2141  0.9036 -0.3250
 3937TIP3    H233447   1.276   3.618   7.039  0.9744 -1.0102  1.4911
 3938TIP3   OH233448   4.247   0.893   1.361  0.5384  0.0135  0.3210
 3938TIP3    H133449   4.330   0.938   1.348  0.1444  0.6276 -0.0907
 3938TIP3    H233450   4.196   0.951   1.419  0.0852  0.0392 -0.0969
 3939TIP3   OH233451   6.592   2.630   6.975  0.2103 -0.0673  0.2271
 3939TIP3    H133452   6.516   2.618   6.918  1.7568 -1.4012 -1.6513
 3939TIP3    H233453   6.662   2.581   6.934  2.4682  2.0524  1.2446
 3940TIP3   OH233454   3.367   5.053   1.100  0.2694  0.1921  0.5513
 3940TIP3    H133455   3.429   5.053   1.027  0.5829  0.3269  0.8115
 3940TIP3    H233456   3.363   4.962   1.127 -0.6809 -0.0387 -0.3211
 3941TIP3   OH233457   2.464   6.260   6.105  0.0800  0.0589 -0.2682
 3941TIP3    H133458   2.422   6.309   6.176  0.2201 -1.2702  0.7636
 3941TIP3    H233459   2.550   6.301   6.095 -0.6304  1.4461 -0.9602
 3942TIP3   OH233460   1.377   4.520   6.415  0.0517  0.0960 -0.1863
 3942TIP3    H133461   1.400   4.592   6.356  0.2566 -0.3885 -0.7078
 3942TIP3    H233462   1.313   4.469   6.365  1.4460 -1.2393 -0.6681
 3943TIP3   OH233463   1.613   0.329   0.215 -0.0335  0.7657 -0.0899
 3943TIP3    H133464   1.677   0.335   0.144 -0.0379  0.5154 -0.1172
 3943TIP3    H233465   1.639   0.251   0.265 -2.1729 -1.3156 -1.9763
 3944TIP3   OH233466   5.550   5.199   7.022  0.5468 -0.7146 -0.4571
 3944TIP3    H133467   5.518   5.257   6.952  0.5669  0.3775  0.4097
 3944TIP3    H233468   5.471   5.168   7.065  0.4760  2.3326  1.9662
 3945TIP3   OH233469   3.522   0.035   0.604 -0.0338 -0.1082  0.1622
 3945TIP3    H133470   3.473  -0.046   0.595  0.5692 -0.5366  0.6431
 3945TIP3    H233471   3.514   0.059   0.696 -3.4034  2.4833 -0.6365
 3946TIP3   OH233472   0.842   5.943   8.226  0.0657  0.5428 -0.8563
 3946TIP3    H133473   0.822   6.022   8.176 -0.2319  0.2135 -1.2623
 3946TIP3    H233474   0.870   5.975   8.311  0.4470  1.1069 -1.1868
 3947TIP3   OH233475   0.235   4.137   8.661  0.2000  0.2695  0.9409
 3947TIP3    H133476   0.160   4.155   8.605  0.2165 -0.7612  0.5521
 3947TIP3    H233477   0.234   4.206   8.727 -2.0701 -0.6304  1.9423
 3948TIP3   OH233478   2.284   0.579   7.260 -0.3089  0.5889 -0.5884
 3948TIP3    H133479   2.365   0.558   7.214 -0.3195 -0.5162 -0.1360
 3948TIP3    H233480   2.307   0.653   7.317  0.2209  0.6645 -0.8996
 3949TIP3   OH233481   5.034   2.902   1.923  0.2754 -0.4356 -0.1136
 3949TIP3    H133482   5.027   2.807   1.911 -0.3218 -0.5673  1.0952
 3949TIP3    H233483   5.089   2.932   1.851  0.9675 -1.7826 -0.1717
 3950TIP3   OH233484   3.078   6.405   6.856  0.8025  0.1662  0.2922
 3950TIP3    H133485   3.049   6.458   6.930 -0.4999  1.1827 -0.8940
 3950TIP3    H233486   3.173   6.398   6.867  0.5869 -0.0852  2.2678
 3951TIP3   OH233487   0.088   3.778   7.851  0.1818  0.2259  0.1315
 3951TIP3    H133488   0.148   3.714   7.812  0.7385 -0.3814  1.8779
 3951TIP3    H233489   0.053   3.827   7.776 -1.0890 -2.7682 -1.4282
 3952TIP3   OH233490   2.979   0.681   6.368 -0.0166  0.3855 -0.2251
 3952TIP3    H133491   2.994   0.626   6.444 -2.8887 -2.1664 -1.3027
 3952TIP3    H233492   3.017   0.632   6.295 -0.1171  1.2309 -0.8578
 3953TIP3   OH233493   1.177   2.150   8.742  0.0663  0.1736 -0.2958
 3953TIP3    H133494   1.140   2.080   8.797  1.2163 -0.1628  0.0742
 3953TIP3    H233495   1.223   2.207   8.804  1.0292  0.0189 -0.8525
 3954TIP3   OH233496   6.374   0.888   7.149  0.4084 -0.4150  0.4049
 3954TIP3    H133497   6.414   0.935   7.222  1.3689 -1.5959  0.6695
 3954TIP3    H233498   6.430   0.908   7.074 -0.0176  0.0063  0.1905
 3955TIP3   OH233499   0.993   4.754   8.509 -0.0339  0.2046  0.1664
 3955TIP3    H133500   0.977   4.703   8.589 -2.4619  0.4846 -0.0773
 3955TIP3    H233501   0.957   4.841   8.529 -0.7081  0.2629 -1.2200
 3956TIP3   OH233502   1.316   1.542   0.313 -0.0455 -0.4043 -0.8674
 3956TIP3    H133503   1.279   1.461   0.279 -1.2265 -0.3195  0.1183
 3956TIP3    H233504   1.307   1.605   0.242  1.0979 -1.1749 -1.7230
 3957TIP3   OH233505   4.068   4.038   1.667  0.1729 -0.2605  0.0818
 3957TIP3    H133506   4.043   4.057   1.577 -2.1263  0.7772  0.8519
 3957TIP3    H233507   4.124   4.111   1.693  0.5227 -0.3610 -0.3919
 3958TIP3   OH233508   3.007   0.444   6.789  0.2421 -0.2072  0.3360
 3958TIP3    H133509   2.957   0.398   6.856  1.3729 -2.1542 -0.0768
 3958TIP3    H233510   2.943   0.498   6.743 -1.3720 -2.0708  0.2706
 3959TIP3   OH233511   0.495   0.258   8.132 -0.1035 -0.1227  0.0175
 3959TIP3    H133512   0.419   0.291   8.180 -1.7640 -2.5649 -0.7624
 3959TIP3    H233513   0.484   0.293   8.043  0.3414  0.4724  0.1918
 3960TIP3   OH233514   4.371   2.090   6.476 -0.7470  0.1570  0.4048
 3960TIP3    H133515   4.449   2.128   6.517 -1.2841 -0.0210  1.6643
 3960TIP3    H233516   4.357   2.008   6.524 -1.1873 -0.2547 -0.4183
 3961TIP3   OH233517   1.766   0.889   7.184 -0.3058 -0.1146  0.3691
 3961TIP3    H133518   1.714   0.955   7.137 -0.5706 -0.1042  0.6754
 3961TIP3    H233519   1.739   0.898   7.275  0.5312  0.1640  0.5968
 3962TIP3   OH233520   2.469   0.403   7.920  0.3676 -0.3413  0.0196
 3962TIP3    H133521   2.386   0.357   7.931 -0.2346  0.7364  0.1639
 3962TIP3    H233522   2.535   0.335   7.928 -0.4775 -1.1450  0.4207
 3963TIP3   OH233523   6.023   0.906   0.162  0.4912  0.2537  0.0522
 3963TIP3    H133524   6.079   0.981   0.142 -0.7369  1.0942 -0.3793
 3963TIP3    H233525   6.045   0.883   0.252  1.2676  0.7891  0.0148
 3964TIP3   OH233526   3.825   5.927   7.899 -0.8619 -0.5584  0.0857
 3964TIP3    H133527   3.815   5.987   7.973 -3.9700 -2.0137  1.0390
 3964TIP3    H233528   3.735   5.910   7.870  0.1426 -1.6886 -2.7218
 3965TIP3   OH233529   3.457   6.237   8.619 -0.5620  0.0336  0.1485
 3965TIP3    H133530   3.536   6.287   8.599 -0.7919 -0.3663 -1.9601
 3965TIP3    H233531   3.394   6.303   8.650  0.1074  0.5644  0.3921
 3966TIP3   OH233532   0.090   1.569   1.399  0.2898 -0.1233  0.3521
 3966TIP3    H133533   0.022   1.602   1.457  0.7903  1.4520  0.0997
 3966TIP3    H233534   0.131   1.498   1.448 -0.1529  0.3120  1.3893
 3967TIP3   OH233535   2.322   1.453   1.059  0.2759 -0.3247  0.1399
 3967TIP3    H133536   2.404   1.406   1.042  0.4873  0.1350 -0.1253
 3967TIP3    H233537   2.335   1.493   1.145 -0.8062 -2.6778  1.4917
 3968TIP3   OH233538   1.343   2.503   8.073 -0.5553  0.0929 -0.3495
 3968TIP3    H133539   1.379   2.587   8.100  0.4635 -0.5867  0.4635
 3968TIP3    H233540   1.260   2.526   8.031  0.6781  1.6845 -2.1030
 3969TIP3   OH233541   3.546   5.682   1.562 -0.5566 -0.2850 -0.0744
 3969TIP3    H133542   3.591   5.662   1.480 -1.2676  1.4838 -0.9395
 3969TIP3    H233543   3.519   5.596   1.596  0.1423 -1.0828 -1.4447
 3970TIP3   OH233544   4.750   6.484   1.462 -0.5023 -0.1301 -0.5948
 3970TIP3    H133545   4.827   6.528   1.426  0.3638 -1.9186 -1.0757
 3970TIP3    H233546   4.675   6.531   1.426  0.3729  0.3227 -1.8815
 3971TIP3   OH233547   3.660   1.770   0.607 -0.0842  0.9417 -0.3518
 3971TIP3    H133548   3.749   1.766   0.572 -0.4407  0.2834 -1.2083
 3971TIP3    H233549   3.668   1.822   0.687  1.3609 -0.4949  0.4841
 3972TIP3   OH233550   2.549   5.353   0.321 -0.7849  0.3070 -0.3568
 3972TIP3    H133551   2.619   5.295   0.351 -1.2011 -0.0856 -0.1212
 3972TIP3    H233552   2.469   5.305   0.341 -1.1451  1.0345 -0.0148
 3973TIP3   OH233553   4.569   5.724   2.108 -0.1909 -0.2264  0.5389
 3973TIP3    H133554   4.630   5.773   2.164 -0.8994  0.1295  1.0223
 3973TIP3    H233555   4.624   5.662   2.060  0.5264 -0.0267  1.0898
 3974TIP3   OH233556   5.460   5.261   6.424  0.7912 -0.8352  0.0279
 3974TIP3    H133557   5.375   5.223   6.404  0.9721 -1.2700  0.0509
 3974TIP3    H233558   5.473   5.329   6.359  0.8246 -1.3838 -0.5492
 3975TIP3   OH233559   3.172   0.310   7.516 -0.0639  0.3769 -0.2357
 3975TIP3    H133560   3.198   0.349   7.432 -1.0348 -0.1290 -0.7890
 3975TIP3    H233561   3.076   0.307   7.512 -0.1914  1.3363  1.3504
 3976TIP3   OH233562   1.143   0.103   1.160  0.3224  0.2172  0.0852
 3976TIP3    H133563   1.187   0.102   1.075  0.6812  0.8649  0.2654
 3976TIP3    H233564   1.092   0.184   1.160  1.5040  0.9788  1.0879
 3977TIP3   OH233565   1.299   0.255   1.518 -0.9889 -0.3546 -0.5618
 3977TIP3    H133566   1.364   0.274   1.586 -1.3126 -0.7221 -0.1457
 3977TIP3    H233567   1.256   0.339   1.502 -0.9453 -0.2749 -0.2733
 3978TIP3   OH233568   4.790   0.101   0.693  0.5642 -0.3050 -0.0886
 3978TIP3    H133569   4.864   0.072   0.747  1.6514  1.7337 -0.3902
 3978TIP3    H233570   4.753   0.175   0.741 -0.4523 -0.4603 -0.6067
 3979TIP3   OH233571   5.518   5.673   7.662 -0.1429 -0.6008  0.1118
 3979TIP3    H133572   5.572   5.642   7.589 -2.1667 -0.2662 -1.6399
 3979TIP3    H233573   5.514   5.768   7.649 -3.0427 -0.7946 -1.3488
 3980TIP3   OH233574   4.289   1.732   1.332  0.8882 -0.0960 -0.1393
 3980TIP3    H133575   4.200   1.760   1.313  1.8721  2.2000 -1.9711
 3980TIP3    H233576   4.302   1.751   1.425 -0.6289 -0.8616  0.2460
 3981TIP3   OH233577   2.816   2.019   0.493 -0.2244  0.3322 -0.3487
 3981TIP3    H133578   2.838   1.995   0.402  0.1792  0.7393 -0.3650
 3981TIP3    H233579   2.750   2.088   0.484 -1.0619 -0.4522 -0.3091
 3982TIP3   OH233580   1.355   5.979   6.610 -0.0303 -0.1726 -0.6233
 3982TIP3    H133581   1.321   5.906   6.558  0.6672 -0.2153 -1.0377
 3982TIP3    H233582   1.419   6.021   6.553  0.8083 -0.2651  0.2224
 3983TIP3   OH233583   4.603   4.222   7.032  0.3170 -0.1754 -0.3912
 3983TIP3    H133584   4.561   4.138   7.017 -0.4261  0.3100 -1.1168
 3983TIP3    H233585   4.660   4.235   6.957 -0.2115  0.3394 -0.7158
 3984TIP3   OH233586   1.676   1.410   6.125 -1.0536 -0.3563 -0.1444
 3984TIP3    H133587   1.689   1.480   6.189 -0.9005 -0.9584  0.5001
 3984TIP3    H233588   1.626   1.450   6.054 -0.7250  0.4738  0.0837
 3985TIP3   OH233589   0.525   6.262   7.460  0.2788  0.8738 -0.3173
 3985TIP3    H133590   0.443   6.312   7.452  0.9209  1.6679 -2.8044
 3985TIP3    H233591   0.529   6.209   7.381  2.6196  1.6157 -0.7808
 3986TIP3   OH233592   0.063   6.215   0.387 -0.5560  0.1596  0.1993
 3986TIP3    H133593   0.144   6.229   0.338 -0.1783 -1.6825  0.2498
 3986TIP3    H233594   0.090   6.219   0.479 -0.3911 -1.0201  0.2160
 3987TIP3   OH233595   0.973   0.011   6.625 -0.3429  0.4170  0.1900
 3987TIP3    H133596   1.044  -0.049   6.647 -0.4573  0.4596  0.6983
 3987TIP3    H233597   0.994   0.043   6.537  1.5875  2.3012  1.2450
 3988TIP3   OH233598   5.178   0.619   0.160 -0.4393  0.2658  0.0318
 3988TIP3    H133599   5.091   0.596   0.193 -0.4730 -1.3046 -1.0249
 3988TIP3    H233600   5.161   0.684   0.091 -0.6617  0.8185  0.5964
 3989TIP3   OH233601   4.055   4.654   6.574 -0.2497  0.1374 -0.0604
 3989TIP3    H133602   4.033   4.561   6.562  0.7804 -0.0959 -0.2347
 3989TIP3    H233603   3.982   4.701   6.536 -0.5811 -0.6062 -0.3618
 3990TIP3   OH233604   2.600   3.222   6.293  0.5726 -0.4457 -0.2586
 3990TIP3    H133605   2.561   3.137   6.269 -0.4753  0.0996 -0.5897
 3990TIP3    H233606   2.670   3.235   6.230 -0.1416 -0.4670 -1.0843
 3991TIP3   OH233607   1.018   0.386   6.854  0.0119 -0.3694  0.3351
 3991TIP3    H133608   0.943   0.414   6.907  1.6821  0.4164  2.4243
 3991TIP3    H233609   1.075   0.463   6.849  1.9125 -1.6357  1.1054
 3992TIP3   OH233610   5.752   1.346   6.941  0.0271 -0.4402  0.1463
 3992TIP3    H133611   5.689   1.274   6.936 -1.2864  0.7204 -0.4313
 3992TIP3    H233612   5.833   1.309   6.905 -0.9577 -1.2844 -1.2836
 3993TIP3   OH233613   0.349   1.527   6.690 -0.1436 -0.1859 -0.6345
 3993TIP3    H133614   0.335   1.568   6.604  0.4041 -0.5666 -0.9134
 3993TIP3    H233615   0.443   1.507   6.691 -0.0477  0.2648  0.2559
 3994TIP3   OH233616   0.098   4.649   8.385 -0.1893  0.2960 -0.2328
 3994TIP3    H133617   0.009   4.641   8.349  0.0605 -3.9820 -0.3555
 3994TIP3    H233618   0.156   4.632   8.311  0.5878 -0.6116  0.5575
 3995TIP3   OH233619   3.362   0.956   7.920  0.2602 -0.5473 -0.7537
 3995TIP3    H133620   3.356   0.921   8.009  0.2568  0.7225 -0.2267
 3995TIP3    H233621   3.412   0.890   7.871  1.9064 -0.4121  0.6523
 3996TIP3   OH233622   0.343   2.346   7.047 -0.2129 -0.0189  0.6751
 3996TIP3    H133623   0.252   2.374   7.041 -0.3925 -0.3509  1.7450
 3996TIP3    H233624   0.358   2.298   6.965 -0.0147  2.7240 -1.0098
 3997TIP3   OH233625   0.780   1.145   1.481  0.8299 -0.0131 -0.9507
 3997TIP3    H133626   0.816   1.176   1.564 -0.3467  1.5265 -0.9760
 3997TIP3    H233627   0.734   1.064   1.504  1.7160 -0.3743 -0.3825
 3998TIP3   OH233628   3.410   0.002   0.141  0.5514  0.1867  0.2215
 3998TIP3    H133629   3.423  -0.027   0.051 -2.2990  1.9455 -0.8618
 3998TIP3    H233630   3.495  -0.014   0.183  1.5485 -2.0104 -2.3419
 3999TIP3   OH233631   3.216   2.901   1.385 -0.0888 -0.3043 -0.3586
 3999TIP3    H133632   3.291   2.961   1.380 -0.3638 -0.0272 -1.3645
 3999TIP3    H233633   3.236   2.833   1.321 -0.8494 -0.0440 -0.8859
 4000TIP3   OH233634   3.054   0.817   0.028  0.1811 -0.0670  0.7634
 4000TIP3    H133635   3.135   0.807  -0.022 -0.3892 -0.1394 -0.1711
 4000TIP3    H233636   3.083   0.843   0.116  1.2799 -1.4771  0.8550
 4001TIP3   OH233637   5.233   5.840   6.583 -0.4887  0.4723  0.8562
 4001TIP3    H133638   5.289   5.899   6.533  2.6071 -2.7559  0.1019
 4001TIP3    H233639   5.147   5.846   6.542  0.4288  2.3347 -0.9218
 4002TIP3   OH233640   0.712   0.540   5.770 -0.3705 -0.1414  0.4014
 4002TIP3    H133641   0.699   0.619   5.823 -1.7863  0.2646 -0.4935
 4002TIP3    H233642   0.694   0.468   5.831  2.7365  0.0725  1.7387
 4003TIP3   OH233643   3.877   3.314   7.755  0.2242  0.5840 -0.2369
 4003TIP3    H133644   3.957   3.345   7.712  0.4164 -0.4674 -0.6584
 4003TIP3    H233645   3.817   3.296   7.683  0.2529 -0.3772 -0.0359
 4004TIP3   OH233646   3.379   0.503   0.203 -0.0359 -0.3623 -0.1969
 4004TIP3    H133647   3.420   0.426   0.242  0.0913  0.3412  1.1120
 4004TIP3    H233648   3.291   0.506   0.241  0.2377  0.5759  0.3850
 4005TIP3   OH233649   0.711   4.673   7.310 -0.5655  0.8553  0.3949
 4005TIP3    H133650   0.616   4.659   7.311 -1.3311  4.7075 -0.6394
 4005TIP3    H233651   0.732   4.683   7.217  1.1186 -0.8414  0.5313
 4006TIP3   OH233652   2.067   6.731   1.710  0.4026 -0.7053  0.4735
 4006TIP3    H133653   2.096   6.695   1.793  1.8578 -1.1137 -0.1842
 4006TIP3    H233654   2.021   6.659   1.666  3.6729 -2.0854 -1.0256
 4007TIP3   OH233655   4.361   3.304   8.544 -0.3870 -0.1405  0.2516
 4007TIP3    H133656   4.363   3.221   8.497 -1.1950 -0.4270  0.6964
 4007TIP3    H233657   4.287   3.295   8.604 -0.3125  0.8005  0.4934
 4008TIP3   OH233658   4.514   5.955   6.777 -0.0709 -0.5189  0.0253
 4008TIP3    H133659   4.508   6.031   6.835  0.2477  0.1400 -0.7890
 4008TIP3    H233660   4.437   5.962   6.721  0.3050 -0.4320 -0.4844
 4009TIP3   OH233661   2.238   6.820   7.361 -0.2141 -0.2146 -0.0643
 4009TIP3    H133662   2.211   6.728   7.363 -1.2590  0.0821  1.0183
 4009TIP3    H233663   2.327   6.818   7.328  0.0839 -1.7007  0.7130
 4010TIP3   OH233664   3.721   2.021   1.329 -0.1099  0.3447  0.0694
 4010TIP3    H133665   3.755   2.023   1.239  2.0744  2.5146  0.8450
 4010TIP3    H233666   3.638   1.974   1.322  0.5007 -0.4951 -2.8898
 4011TIP3   OH233667   3.212   2.078   1.091 -0.3347  0.1928  0.2970
 4011TIP3    H133668   3.116   2.075   1.098 -0.2248  0.2967  2.7197
 4011TIP3    H233669   3.229   2.129   1.012 -2.2749  0.1151 -0.2188
 4012TIP3   OH233670   5.048   1.661   7.687 -0.5191  0.4485  0.2033
 4012TIP3    H133671   5.098   1.616   7.619 -2.5496  0.1482 -1.1746
 4012TIP3    H233672   5.046   1.599   7.760  0.0100 -0.0569 -0.2041
 4013TIP3   OH233673   0.153   4.726   7.153  0.6353  0.2324 -0.0320
 4013TIP3    H133674   0.157   4.790   7.081  1.2730  1.7977  1.3189
 4013TIP3    H233675   0.060   4.708   7.163  0.6069 -1.2545 -2.2348
 4014TIP3   OH233676   6.741   0.602   8.224  0.4374  0.3512  0.5987
 4014TIP3    H133677   6.808   0.586   8.158  0.6910  1.0867  0.6657
 4014TIP3    H233678   6.786   0.591   8.308 -0.0597 -1.3311  0.6865
 4015TIP3   OH233679   0.735   2.952   0.436  0.0820  0.2177 -0.1845
 4015TIP3    H133680   0.692   2.959   0.522 -0.1416  1.2511 -0.3635
 4015TIP3    H233681   0.701   2.871   0.399 -1.0842  0.5876  0.0336
 4016TIP3   OH233682   2.538   4.279   1.040  0.3424  0.0129  0.6994
 4016TIP3    H133683   2.459   4.333   1.032  0.5934  0.3142  0.1992
 4016TIP3    H233684   2.589   4.321   1.109  0.9785  0.9985 -0.3270
 4017TIP3   OH233685   0.863   5.776   1.178  0.5114 -0.1209  0.3259
 4017TIP3    H133686   0.921   5.711   1.218  1.0075  1.2604  1.9706
 4017TIP3    H233687   0.785   5.776   1.232  0.3326  0.3561  0.0745
 4018TIP3   OH233688   0.356   0.165   7.814 -0.5342 -0.0519  0.3658
 4018TIP3    H133689   0.307   0.136   7.736 -0.9256  1.8842 -0.1574
 4018TIP3    H233690   0.381   0.255   7.794 -0.0711  0.2687  2.2319
 4019TIP3   OH233691   1.491   4.131   0.271  0.7784  0.2997 -0.1091
 4019TIP3    H133692   1.453   4.050   0.305 -0.9262  0.8099 -0.7054
 4019TIP3    H233693   1.522   4.108   0.183  0.4680  0.2575 -0.2068
 4020TIP3   OH233694   6.534   6.198   1.152 -0.1571  0.2727  0.3019
 4020TIP3    H133695   6.471   6.128   1.134 -0.7562  1.0506 -0.6553
 4020TIP3    H233696   6.588   6.203   1.073 -2.1025  2.9657 -0.9898
 4021TIP3   OH233697   5.205   0.869   7.568  0.0407  0.7096 -0.6470
 4021TIP3    H133698   5.231   0.805   7.635  1.5908  2.1219  0.1719
 4021TIP3    H233699   5.271   0.938   7.575 -1.1503  2.0328 -2.0272
 4022TIP3   OH233700   2.795   2.192   1.446 -0.0791  0.1178  0.6582
 4022TIP3    H133701   2.837   2.112   1.412  0.8502  0.4094  1.0793
 4022TIP3    H233702   2.715   2.201   1.394  0.1371 -0.7230  0.1531
 4023TIP3   OH233703   5.464   2.344   7.991 -0.3252 -0.7147 -0.1489
 4023TIP3    H133704   5.498   2.401   7.922  0.2523 -0.4193  0.3699
 4023TIP3    H233705   5.462   2.257   7.952 -1.0634 -0.3707 -0.8963
 4024TIP3   OH233706   2.547   4.234   7.214  0.4245  0.2176  0.0987
 4024TIP3    H133707   2.511   4.307   7.264  0.6659  0.9938 -0.8412
 4024TIP3    H233708   2.494   4.158   7.240 -0.3096  0.8669  0.5203
 4025TIP3   OH233709   4.125   5.113   7.582  0.5454 -0.2206  1.0360
 4025TIP3    H133710   4.067   5.135   7.509  2.3134  0.0609 -0.3301
 4025TIP3    H233711   4.103   5.023   7.604 -0.4041 -0.1207  0.5397
 4026TIP3   OH233712   2.855   4.471   8.063  0.8848 -0.1985 -0.4317
 4026TIP3    H133713   2.914   4.539   8.030  0.3278  0.8666  0.6770
 4026TIP3    H233714   2.799   4.517   8.125  0.0572 -1.5581 -0.1466
 4027TIP3   OH233715   5.837   4.513   0.388 -0.4422 -0.0094 -0.2831
 4027TIP3    H133716   5.864   4.435   0.340 -0.0871 -0.5998  0.8314
 4027TIP3    H233717   5.909   4.531   0.448 -1.4625 -0.1658  1.0417
 4028TIP3   OH233718   1.453   0.076   8.285 -0.9659  0.1454  0.1362
 4028TIP3    H133719   1.386   0.008   8.278 -1.0653  0.3608 -1.2572
 4028TIP3    H233720   1.432   0.138   8.216  0.3616  0.4868  0.0111
 4029TIP3   OH233721   5.991   4.560   8.362 -0.0241 -0.2181 -0.7403
 4029TIP3    H133722   6.043   4.599   8.433  1.4032 -0.6916 -1.4786
 4029TIP3    H233723   5.904   4.597   8.373 -0.1779 -1.1733  1.9650
 4030TIP3   OH233724   6.063   5.411   8.526  0.1109  0.2587 -0.2839
 4030TIP3    H133725   6.095   5.499   8.507  1.4890  0.1727  1.3745
 4030TIP3    H233726   5.993   5.423   8.590  1.0413  0.1349  0.7952
 4031TIP3   OH233727   5.551   3.734   7.625  0.2513  0.3972 -0.0783
 4031TIP3    H133728   5.500   3.723   7.545  0.3494 -1.3181  0.0459
 4031TIP3    H233729   5.492   3.708   7.695  1.0655 -1.1270  0.1081
 4032TIP3   OH233730   3.908   2.559   7.062  0.2683  0.0195 -0.2362
 4032TIP3    H133731   3.891   2.566   6.968 -1.5150  2.4893  0.1612
 4032TIP3    H233732   3.836   2.505   7.096 -0.0303  0.4935 -0.1013
 4033TIP3   OH233733   1.910   2.513   0.352 -0.0987  0.3012  0.3173
 4033TIP3    H133734   1.964   2.540   0.278 -0.9300  1.3172  0.0547
 4033TIP3    H233735   1.875   2.428   0.326 -3.9712  2.4365 -2.5993
 4034TIP3   OH233736   4.114   4.845   7.865  0.0109 -0.4160 -0.2120
 4034TIP3    H133737   4.130   4.901   7.941  0.8044  0.5656 -1.0808
 4034TIP3    H233738   4.026   4.809   7.880  0.6821 -1.3804  1.8617
 4035TIP3   OH233739   1.527   2.523   0.715 -0.6735 -0.7624 -0.4121
 4035TIP3    H133740   1.607   2.476   0.693 -1.5648 -2.3117 -0.5200
 4035TIP3    H233741   1.519   2.589   0.646  0.8690 -0.0794  0.0230
 4036TIP3   OH233742   5.257   0.858   0.489  0.0207  0.3263 -0.2191
 4036TIP3    H133743   5.221   0.902   0.412  0.0001 -0.1386 -0.4868
 4036TIP3    H233744   5.331   0.807   0.455  0.1758  0.3247  0.1147
 4037TIP3   OH233745   5.519   1.636   1.592  0.6258  0.6310 -0.0053
 4037TIP3    H133746   5.499   1.628   1.685  2.0763  0.2034  0.3040
 4037TIP3    H233747   5.550   1.548   1.567  0.6724  0.8607 -0.7717
 4038TIP3   OH233748   5.342   0.725   0.739  0.1115  0.0080 -0.0440
 4038TIP3    H133749   5.382   0.788   0.800 -0.7036 -1.1832  1.8104
 4038TIP3    H233750   5.290   0.779   0.680 -0.1349  1.1573  1.1609
 4039TIP3   OH233751   1.468   5.610   7.987 -0.1371  0.5640 -0.9811
 4039TIP3    H133752   1.449   5.704   7.988 -0.9265  0.4113 -0.6240
 4039TIP3    H233753   1.516   5.594   8.068 -1.2087  0.4329 -0.3588
 4040TIP3   OH233754   3.565   1.608   8.289  0.6349 -0.4683  0.3120
 4040TIP3    H133755   3.611   1.554   8.354 -1.0997 -0.2764  1.7707
 4040TIP3    H233756   3.536   1.547   8.222  0.3672 -1.0579  0.9592
 4041TIP3   OH233757   5.597   5.254   6.100 -0.3896  0.0364 -0.5660
 4041TIP3    H133758   5.676   5.281   6.148 -1.9793  0.1179  2.2360
 4041TIP3    H233759   5.579   5.166   6.132 -1.5350  0.0921 -1.0354
 4042TIP3   OH233760   0.239   5.934   7.372  0.2534  0.1745  0.5244
 4042TIP3    H133761   0.145   5.917   7.365  0.3850 -0.7987  0.9390
 4042TIP3    H233762   0.247   5.990   7.449  0.0588 -0.1100  0.7527
 4043TIP3   OH233763   6.061   5.230   0.103 -0.3075 -0.3017 -0.7230
 4043TIP3    H133764   6.012   5.158   0.143 -3.2094  1.4656 -0.8088
 4043TIP3    H233765   6.004   5.263   0.034  0.7579  2.2401 -0.5169
 4044TIP3   OH233766   1.240   4.690   6.703 -0.5707  0.2026  0.7695
 4044TIP3    H133767   1.202   4.645   6.628 -0.0031 -0.3406  0.8036
 4044TIP3    H233768   1.278   4.620   6.756  2.0191  0.8232 -0.1260
 4045TIP3   OH233769   3.239   2.719   1.174  0.0194 -0.1202 -0.5318
 4045TIP3    H133770   3.209   2.630   1.192  0.9259 -0.3327 -0.0519
 4045TIP3    H233771   3.331   2.709   1.148  0.5040  0.7901  0.7575
 4046TIP3   OH233772   4.623   2.785   7.851  0.0488  0.0055 -0.4962
 4046TIP3    H133773   4.627   2.696   7.817  0.7973 -0.4450  0.6958
 4046TIP3    H233774   4.710   2.801   7.889 -1.2175 -0.2862  2.9023
 4047TIP3   OH233775   5.232   3.419   7.127 -0.1474 -0.1510  0.0522
 4047TIP3    H133776   5.222   3.328   7.156 -1.6145 -0.5777 -1.6202
 4047TIP3    H233777   5.301   3.416   7.061  2.0176  0.5459  2.1296
 4048TIP3   OH233778   6.317   1.660   0.640 -0.2964  0.1457 -0.1224
 4048TIP3    H133779   6.355   1.650   0.553 -0.5293  2.7220 -0.6157
 4048TIP3    H233780   6.313   1.571   0.676  0.5805 -0.8766 -2.3917
 4049TIP3   OH233781   6.541   1.253   8.604 -0.2344 -0.0184  0.0650
 4049TIP3    H133782   6.618   1.241   8.661 -0.3444 -0.6072  0.0986
 4049TIP3    H233783   6.467   1.255   8.664 -0.2969 -0.0072 -0.0124
 4050TIP3   OH233784   4.882   2.545   7.872 -0.1323  0.4100 -0.6921
 4050TIP3    H133785   4.898   2.626   7.920 -0.4632 -0.6435  1.3036
 4050TIP3    H233786   4.795   2.556   7.834 -0.1013  1.0335 -0.5948
 4051TIP3   OH233787   2.728   4.252   0.852  0.0832 -0.1722  0.3733
 4051TIP3    H133788   2.658   4.228   0.913 -0.2765 -0.7705 -0.2524
 4051TIP3    H233789   2.790   4.180   0.856  0.9568  0.6076  1.3233
 4052TIP3   OH233790   2.057   6.176   6.491 -0.4151  0.2706  0.3251
 4052TIP3    H133791   1.994   6.138   6.430  0.5166 -1.6230  0.4910
 4052TIP3    H233792   2.119   6.223   6.435 -0.2399 -0.4437 -0.0895
 4053TIP3   OH233793   6.578   2.115   7.975 -0.1536  0.3815 -0.5161
 4053TIP3    H133794   6.597   2.158   8.058  2.9487  0.9190 -1.3811
 4053TIP3    H233795   6.618   2.028   7.983  0.8960  0.7197 -1.6670
 4054TIP3   OH233796   2.235   5.559   7.047  0.2123 -0.0637  0.2460
 4054TIP3    H133797   2.182   5.639   7.050  2.4444  1.4844  1.0896
 4054TIP3    H233798   2.285   5.567   6.966 -0.0004 -0.9467  0.0178
 4055TIP3   OH233799   6.730   1.188   7.751 -0.0460  0.0042  0.0218
 4055TIP3    H133800   6.658   1.250   7.751  1.2283  1.5852  1.4448
 4055TIP3    H233801   6.725   1.145   7.836 -0.0978 -0.8521 -0.4091
 4056TIP3   OH233802   1.839   1.526   1.138  0.2811 -0.5013  0.4934
 4056TIP3    H133803   1.768   1.575   1.180 -1.3619 -0.7589 -1.8020
 4056TIP3    H233804   1.809   1.435   1.139 -0.7420 -0.3306 -2.6840
 4057TIP3   OH233805   5.920   1.361   0.291  0.0349 -0.3200  0.2512
 4057TIP3    H133806   5.945   1.355   0.199  1.1245 -0.1065  0.5276
 4057TIP3    H233807   5.947   1.278   0.329 -0.5749 -0.4803  0.3559
 4058TIP3   OH233808   1.456   2.398   1.720 -0.0650  0.1350 -0.2123
 4058TIP3    H133809   1.433   2.437   1.804 -1.3679 -0.7203 -0.1384
 4058TIP3    H233810   1.378   2.411   1.665  0.2019 -0.6271 -0.7996
 4059TIP3   OH233811   0.307   5.882   6.532 -0.5382  0.1763 -0.2827
 4059TIP3    H133812   0.223   5.875   6.486 -0.2837  0.0342 -0.7322
 4059TIP3    H233813   0.324   5.794   6.565 -1.9373  0.7890  2.2888
 4060TIP3   OH233814   1.803   2.098   8.692  0.7000  0.2023 -0.2448
 4060TIP3    H133815   1.738   2.107   8.622  0.9537 -1.5490 -0.7575
 4060TIP3    H233816   1.814   2.187   8.726  1.3333  1.3442 -3.1336
 4061TIP3   OH233817   6.004   4.834   0.014  0.4139 -0.3266 -0.7202
 4061TIP3    H133818   5.964   4.889  -0.053  2.2757 -0.5260 -2.0793
 4061TIP3    H233819   5.955   4.751   0.010  1.0414 -0.6502 -2.4878
 4062TIP3   OH233820   4.624   1.669   7.445 -0.0902 -0.4370  0.2025
 4062TIP3    H133821   4.668   1.640   7.525  3.4677  1.1500 -0.9813
 4062TIP3    H233822   4.595   1.587   7.404 -0.7461 -1.3743  2.3575
 4063TIP3   OH233823   5.032   0.666   7.562 -0.3960 -0.4530 -0.0374
 4063TIP3    H133824   5.072   0.611   7.630 -0.8634 -0.9306 -0.1429
 4063TIP3    H233825   5.089   0.742   7.556  0.2953 -0.9516  0.0782
 4064TIP3   OH233826   1.543   2.914   0.078 -0.3344 -0.1118 -0.2486
 4064TIP3    H133827   1.463   2.957   0.109 -0.8222 -1.3390  0.3017
 4064TIP3    H233828   1.614   2.964   0.117 -0.9155 -0.9077  2.0030
 4065TIP3   OH233829   0.314   3.568   0.703 -0.4955 -0.0656  0.6175
 4065TIP3    H133830   0.245   3.634   0.713  0.8159  1.7494 -1.6600
 4065TIP3    H233831   0.269   3.493   0.663 -1.2159  1.0311 -0.7049
 4066TIP3   OH233832   5.994   5.632   1.298  0.4803  0.1194 -0.4335
 4066TIP3    H133833   5.938   5.704   1.325 -0.2028  0.0640 -1.6548
 4066TIP3    H233834   6.082   5.669   1.297  0.6125  0.0531  2.0609
 4067TIP3   OH233835   2.850   4.164   6.492 -0.2589 -0.5549 -0.4269
 4067TIP3    H133836   2.777   4.103   6.488 -0.0364 -0.7872 -1.0417
 4067TIP3    H233837   2.860   4.183   6.585  0.8073 -2.8291 -0.0040
 4068TIP3   OH233838   1.615   1.244   8.255  0.0658 -0.8324 -0.1213
 4068TIP3    H133839   1.571   1.305   8.196  0.3262  0.1228  0.6365
 4068TIP3    H233840   1.686   1.296   8.294  1.3561 -2.1031 -0.6977
 4069TIP3   OH233841   2.483   3.505   7.805 -0.7079  0.0236  0.5633
 4069TIP3    H133842   2.563   3.534   7.848 -0.3596 -0.9113  0.5667
 4069TIP3    H233843   2.489   3.540   7.716 -0.6514  0.5715  0.7777
 4070TIP3   OH233844   1.075   2.513   6.976  0.0497  0.2334 -0.4974
 4070TIP3    H133845   1.113   2.536   6.891  1.3333 -1.1669 -0.3519
 4070TIP3    H233846   1.023   2.590   7.001  2.8094  2.3062 -0.7069
 4071TIP3   OH233847   5.394   6.391   1.057  0.0263 -0.0131 -0.3479
 4071TIP3    H133848   5.305   6.356   1.052 -0.5551  0.9369  1.9288
 4071TIP3    H233849   5.396   6.463   0.994 -1.2572  0.7747  0.4684
 4072TIP3   OH233850   1.586   2.282   6.738  0.2239 -0.1224  0.4159
 4072TIP3    H133851   1.568   2.241   6.823  1.3146  0.1333  0.7762
 4072TIP3    H233852   1.606   2.373   6.759  0.9414 -0.1654 -0.0755
 4073TIP3   OH233853   1.692   1.419   1.800 -0.6874  0.3757 -0.9975
 4073TIP3    H133854   1.726   1.332   1.819 -0.7665  0.6576  0.4820
 4073TIP3    H233855   1.768   1.477   1.807 -0.8897  0.6040 -0.6792
 4074TIP3   OH233856   6.122   2.022   8.393 -0.0050 -0.1757  0.0788
 4074TIP3    H133857   6.206   2.060   8.367 -0.3276  0.9013  0.5406
 4074TIP3    H233858   6.056   2.079   8.353 -0.5158  1.2331  2.6827
 4075TIP3   OH233859   3.428   0.555   2.218 -0.3744 -0.2753 -0.2619
 4075TIP3    H133860   3.396   0.464   2.221  2.0607 -1.1910 -0.0627
 4075TIP3    H233861   3.366   0.603   2.273 -2.0330 -1.6837 -0.7930
 4076TIP3   OH233862   5.480   3.196   1.216  0.0266 -0.9112 -0.1241
 4076TIP3    H133863   5.535   3.275   1.214 -0.0235 -0.8705 -2.6083
 4076TIP3    H233864   5.534   3.128   1.176 -1.3354 -1.1036 -1.7296
 4077TIP3   OH233865   6.504   5.942   0.233 -0.2186 -0.3761  0.3123
 4077TIP3    H133866   6.571   5.996   0.275  0.1197 -0.7297  0.2410
 4077TIP3    H233867   6.439   6.004   0.201 -0.1370 -0.0543  0.7550
 4078TIP3   OH233868   6.589   0.041   6.939  0.3401  0.0342 -0.3634
 4078TIP3    H133869   6.632  -0.041   6.916 -0.1243 -0.9520  1.9607
 4078TIP3    H233870   6.525   0.056   6.869  1.2011 -0.9687 -1.4013
 4079TIP3   OH233871   0.807   0.266   8.172 -0.0681 -0.2728 -0.1569
 4079TIP3    H133872   0.838   0.177   8.158  0.5472  0.0130 -0.6733
 4079TIP3    H233873   0.717   0.266   8.139 -0.7283 -1.1657  1.5439
 4080TIP3   OH233874   1.817   1.067   8.355 -0.1293  0.4532 -0.1039
 4080TIP3    H133875   1.883   1.117   8.306  0.8552 -1.0840 -0.4297
 4080TIP3    H233876   1.733   1.095   8.317  0.3397  2.0112 -0.0851
 4081TIP3   OH233877   2.080   4.162   1.125  0.0533 -0.0646 -0.7058
 4081TIP3    H133878   2.069   4.248   1.166 -1.8355  0.4149 -2.0122
 4081TIP3    H233879   2.167   4.165   1.085 -0.2111  1.5359 -1.2558
 4082TIP3   OH233880   5.088   5.680   6.932  0.6675 -0.1580  0.2264
 4082TIP3    H133881   5.032   5.667   6.854 -1.4795 -0.9900  1.8025
 4082TIP3    H233882   5.137   5.759   6.913 -2.5220  1.8210 -0.5340
 4083TIP3   OH233883   3.852   5.063   0.636  0.2242  0.3571 -0.3274
 4083TIP3    H133884   3.801   4.984   0.656 -1.4117  1.3831 -0.1964
 4083TIP3    H233885   3.935   5.031   0.601  0.5473 -1.4449  1.8774
 4084TIP3   OH233886   5.562   5.289   0.574  0.5652  0.2159 -0.2857
 4084TIP3    H133887   5.528   5.379   0.571 -0.1069 -0.0482 -1.1537
 4084TIP3    H233888   5.654   5.299   0.597  0.1648  1.0308  1.0418
 4085TIP3   OH233889   1.576   3.184   6.871 -0.3461  0.0426 -0.6529
 4085TIP3    H133890   1.500   3.224   6.913  0.3515  0.7822 -0.0552
 4085TIP3    H233891   1.636   3.256   6.857 -0.0948 -0.3932 -1.9138
 4086TIP3   OH233892   0.576   5.113   0.686  0.0416  0.4298  0.0069
 4086TIP3    H133893   0.639   5.092   0.755  0.6509  0.0632 -0.6493
 4086TIP3    H233894   0.601   5.201   0.657 -0.9434  1.0857  1.0266
 4087TIP3   OH233895   3.459   3.904   1.531  0.4388 -0.3800  0.3895
 4087TIP3    H133896   3.452   3.866   1.618  0.0392  0.5431  0.7772
 4087TIP3    H233897   3.496   3.991   1.546 -0.6146  0.2070 -0.2266
 4088TIP3   OH233898   1.788   5.293   6.529  0.0312 -0.2379  0.3250
 4088TIP3    H133899   1.738   5.219   6.563  0.0637 -0.6910 -0.5658
 4088TIP3    H233900   1.810   5.267   6.439  2.9152 -0.6240  1.0344
 4089TIP3   OH233901   2.460   4.624   0.900 -0.6293 -0.1158 -0.3465
 4089TIP3    H133902   2.459   4.707   0.948 -1.4118  0.5445 -1.4462
 4089TIP3    H233903   2.551   4.594   0.907 -0.5548  0.3371  0.8831
 4090TIP3   OH233904   1.962   6.566   6.964  0.0693  0.0033  0.1026
 4090TIP3    H133905   1.884   6.543   7.015 -0.4558 -2.0159 -1.4603
 4090TIP3    H233906   2.030   6.582   7.029 -1.3924  0.9108  1.4798
 4091TIP3   OH233907   4.955   4.715   0.141  0.0987  0.2772  0.4042
 4091TIP3    H133908   4.889   4.726   0.209 -0.9421 -2.9951  0.0824
 4091TIP3    H233909   4.906   4.712   0.059  0.9830  0.7640 -0.1676
 4092TIP3   OH233910   4.967   3.169   2.002  0.4877 -0.4878 -0.0388
 4092TIP3    H133911   4.916   3.186   1.922  0.6352  0.7239  0.0959
 4092TIP3    H233912   5.013   3.087   1.984 -1.6883 -1.7824 -0.0533
 4093TIP3   OH233913   4.973   2.568   6.864  0.6136 -0.0180 -0.3027
 4093TIP3    H133914   5.002   2.618   6.787  1.4081  0.6623  0.4175
 4093TIP3    H233915   4.909   2.507   6.830 -0.2313  1.3455 -1.2536
 4094TIP3   OH233916   3.513   2.585   8.295  0.2688  0.0202 -0.6460
 4094TIP3    H133917   3.488   2.597   8.204  0.8038  0.0422 -0.7947
 4094TIP3    H233918   3.566   2.662   8.316  2.7453 -1.4050 -1.2546
 4095TIP3   OH233919   5.235   0.727   8.032  0.2476 -0.2227 -0.1091
 4095TIP3    H133920   5.175   0.727   8.106  0.1574  0.1431 -0.1834
 4095TIP3    H233921   5.320   0.750   8.070 -0.0057  1.0663 -0.2843
 4096TIP3   OH233922   0.739   3.846   1.115  0.4288  0.0796 -0.1714
 4096TIP3    H133923   0.745   3.799   1.031 -0.2101 -2.7029  1.2258
 4096TIP3    H233924   0.670   3.910   1.100  0.6684 -0.0011 -1.9224
 4097TIP3   OH233925   2.947   3.888   7.322 -0.0830 -0.1075  0.3244
 4097TIP3    H133926   2.903   3.844   7.249 -0.9209 -0.5610  1.0854
 4097TIP3    H233927   2.903   3.973   7.328 -0.9823 -0.6197  1.1812
 4098TIP3   OH233928   5.014   0.126   7.079  0.2749  0.0464 -0.1535
 4098TIP3    H133929   5.014   0.116   7.174  0.4566 -0.2812 -0.1836
 4098TIP3    H233930   5.066   0.205   7.064  0.1835  0.1411  0.0235
 4099TIP3   OH233931   2.750   3.012   8.079  0.5441 -0.0401 -0.2695
 4099TIP3    H133932   2.814   3.019   8.009 -1.7583 -0.5058 -2.5558
 4099TIP3    H233933   2.686   3.080   8.060 -0.3367 -0.4103  1.1983
 4100TIP3   OH233934   6.134   1.113   7.074  0.1737  0.4862 -0.0053
 4100TIP3    H133935   6.222   1.105   7.110  0.3117  0.8331 -0.2612
 4100TIP3    H233936   6.146   1.121   6.980 -0.2596 -1.7600 -0.3056
 4101TIP3   OH233937   5.138   0.424   0.593  0.4358 -1.1046 -0.0957
 4101TIP3    H133938   5.055   0.467   0.611  0.7343  0.1052 -1.3885
 4101TIP3    H233939   5.127   0.386   0.506  2.1689  1.8087 -1.7662
 4102TIP3   OH233940   5.337   0.126   7.059  0.5601  0.4428 -0.4365
 4102TIP3    H133941   5.395   0.159   7.127  1.8381  3.6950 -2.8120
 4102TIP3    H233942   5.383   0.050   7.022  1.0461  0.1958  0.6495
 4103TIP3   OH233943   1.660   1.642   7.712 -0.4983 -0.9049 -0.2024
 4103TIP3    H133944   1.746   1.664   7.676 -0.6444  0.5095  0.2444
 4103TIP3    H233945   1.599   1.693   7.659 -0.7508  0.9218  1.6951
 4104TIP3   OH233946   2.570   4.025   0.474  0.3194  0.1835  0.0442
 4104TIP3    H133947   2.660   4.050   0.491  0.3280  0.2703 -0.1280
 4104TIP3    H233948   2.550   4.063   0.388 -0.1132  0.7857  0.4092
 4105TIP3   OH233949   1.121   4.532   0.741 -0.1791  0.4669  0.4939
 4105TIP3    H133950   1.145   4.475   0.668  0.5406  1.0072  0.3028
 4105TIP3    H233951   1.036   4.498   0.771 -0.4147  0.1537 -0.4978
 4106TIP3   OH233952   2.140   3.047   1.789  0.5219 -0.8937 -0.3061
 4106TIP3    H133953   2.100   3.002   1.864  1.7792  0.0702  1.0012
 4106TIP3    H233954   2.228   3.010   1.783  1.5595  1.2119  0.7564
 4107TIP3   OH233955   3.711   3.998   6.452 -0.4025  0.0906 -0.4532
 4107TIP3    H133956   3.685   3.963   6.537 -2.1860 -0.2810 -1.1137
 4107TIP3    H233957   3.650   3.959   6.390  0.5200  0.7774 -1.8494
 4108TIP3   OH233958   6.602   3.427   8.725  0.0178 -0.6176  0.0275
 4108TIP3    H133959   6.586   3.450   8.633  1.4836 -2.9255 -0.8987
 4108TIP3    H233960   6.522   3.382   8.753 -0.6186  0.5049  0.0570
 4109TIP3   OH233961   4.400   6.811   1.570 -0.2382 -0.0352 -0.5711
 4109TIP3    H133962   4.364   6.816   1.482 -1.5249 -0.7671 -0.1116
 4109TIP3    H233963   4.440   6.724   1.574  1.2812  0.6115 -0.9390
 4110TIP3   OH233964   4.242   6.617   6.777 -0.6765 -0.5429 -0.4959
 4110TIP3    H133965   4.296   6.672   6.721  1.3276  0.2718  2.0407
 4110TIP3    H233966   4.194   6.678   6.833  0.5973 -1.2736  1.4957
 4111TIP3   OH233967   1.664   5.906   0.726 -0.0170  0.6283 -0.4068
 4111TIP3    H133968   1.707   5.990   0.708  0.7530  0.3212 -0.0286
 4111TIP3    H233969   1.623   5.917   0.812 -0.0707  0.6788 -0.4393
 4112TIP3   OH233970   6.220   1.700   6.992  0.2518 -0.5147  0.0952
 4112TIP3    H133971   6.238   1.793   7.004 -1.1152 -0.4282  1.9122
 4112TIP3    H233972   6.306   1.658   6.993  0.8318  0.6425  0.1299
 4113TIP3   OH233973   5.365   3.772   0.152  0.0168 -0.3757  0.3370
 4113TIP3    H133974   5.271   3.785   0.141  0.1403  1.9131  1.2788
 4113TIP3    H233975   5.405   3.829   0.086  0.7965 -2.3613 -0.9784
 4114TIP3   OH233976   0.191   3.848   8.103 -0.3833  0.4666 -0.4153
 4114TIP3    H133977   0.158   3.849   8.013  0.4606  1.0176 -0.7290
 4114TIP3    H233978   0.163   3.932   8.140 -0.9564  0.1293 -0.0753
 4115TIP3   OH233979   1.868   0.448   0.975  0.0554  0.3333 -1.0789
 4115TIP3    H133980   1.791   0.469   0.922 -1.9789 -0.2603  1.4343
 4115TIP3    H233981   1.841   0.467   1.065  2.0781 -1.9214  0.1250
 4116TIP3   OH233982   0.919   3.470   6.511  0.1345 -0.3176  0.4347
 4116TIP3    H133983   1.010   3.497   6.496 -0.4913  0.8092 -1.6362
 4116TIP3    H233984   0.872   3.552   6.528 -0.6871 -0.7712  0.4119
 4117TIP3   OH233985   2.471   2.125   0.770  0.0893  0.3839  0.3083
 4117TIP3    H133986   2.501   2.105   0.859  0.1034 -1.5242 -0.0936
 4117TIP3    H233987   2.547   2.164   0.727  1.6278 -2.8709 -0.2004
 4118TIP3   OH233988   6.593   1.868   8.315 -0.5234  0.4523 -0.4005
 4118TIP3    H133989   6.666   1.810   8.337 -1.4926 -0.7105 -0.1387
 4118TIP3    H233990   6.576   1.917   8.396  1.6329  2.7181 -1.1817
 4119TIP3   OH233991   5.295   1.589   7.251  0.7044 -0.2719 -0.2632
 4119TIP3    H133992   5.329   1.537   7.178  0.9972 -0.7929  0.2282
 4119TIP3    H233993   5.257   1.667   7.210  0.2365 -0.8824 -1.0186
 4120TIP3   OH233994   3.632   6.078   2.123  0.1739  0.2234 -0.3657
 4120TIP3    H133995   3.578   6.155   2.137 -0.1362  0.0721 -0.6862
 4120TIP3    H233996   3.585   6.028   2.056  1.2619  0.6161 -1.4533
 4121TIP3   OH233997   4.388   1.118   8.698  0.3623 -0.2350  0.3964
 4121TIP3    H133998   4.295   1.115   8.676  0.5745  0.3799 -0.6593
 4121TIP3    H233999   4.400   1.205   8.737  0.5435 -0.2246  0.3160
 4122TIP3   OH234000   1.275   2.484   8.345 -0.2035 -0.7745  0.1586
 4122TIP3    H134001   1.342   2.505   8.281  0.3031  1.6214  1.3324
 4122TIP3    H234002   1.209   2.553   8.333 -0.6678 -0.9838  1.3847
 4123TIP3   OH234003   2.388   0.134   1.087 -0.0037  0.0556  0.6717
 4123TIP3    H134004   2.443   0.156   1.013 -0.0116  0.4156  0.7725
 4123TIP3    H234005   2.370   0.040   1.077 -0.1553  0.1405  0.1217
 4124TIP3   OH234006   5.227   0.298   7.499 -0.0165 -0.4460  0.6190
 4124TIP3    H134007   5.132   0.298   7.511 -0.0055 -1.1798  0.7020
 4124TIP3    H234008   5.241   0.352   7.421 -0.6553 -1.9811 -0.6148
 4125TIP3   OH234009   4.503   4.189   0.629 -0.0791 -0.3789  0.2480
 4125TIP3    H134010   4.591   4.213   0.602 -0.6286  2.4011  0.6398
 4125TIP3    H234011   4.451   4.193   0.549 -0.4686  1.4609  0.5534
 4126TIP3   OH234012   5.499   3.220   7.383 -0.0762 -0.3384  0.4237
 4126TIP3    H134013   5.531   3.163   7.453  1.2957 -1.2932 -0.9245
 4126TIP3    H234014   5.537   3.184   7.303  0.1461  1.9598 -0.5933
 4127TIP3   OH234015   6.076   2.391   6.059 -0.2364  0.2766 -0.8611
 4127TIP3    H134016   6.162   2.398   6.102 -0.3926 -0.7322 -0.3568
 4127TIP3    H234017   6.023   2.459   6.099 -0.0325  0.0917 -0.2696
 4128TIP3   OH234018   6.338   3.604   7.101  0.1582 -0.0729  0.5541
 4128TIP3    H134019   6.360   3.651   7.021 -0.5229 -2.5105 -1.2116
 4128TIP3    H234020   6.395   3.641   7.168  2.1643  0.7669 -1.4952
 4129TIP3   OH234021   1.052   6.146   6.504 -0.0413 -0.3585 -0.4704
 4129TIP3    H134022   1.072   6.067   6.554  0.2334 -0.8215 -1.2923
 4129TIP3    H234023   1.099   6.135   6.421 -0.3861  0.4494 -0.7884
 4130TIP3   OH234024   4.147   4.228   0.657 -0.1753  0.3156  0.4438
 4130TIP3    H134025   4.161   4.208   0.750 -1.2257 -1.7728  0.2326
 4130TIP3    H234026   4.083   4.163   0.629  3.0343 -1.8799 -2.7032
 4131TIP3   OH234027   4.023   4.616   1.559 -0.4209 -0.3789 -0.2534
 4131TIP3    H134028   3.963   4.688   1.538  0.7073  0.5124 -0.5637
 4131TIP3    H234029   4.092   4.658   1.611  0.2905 -1.2282 -0.4932
 4132TIP3   OH234030   3.747   1.596   1.744  0.7655 -0.1232 -0.3810
 4132TIP3    H134031   3.695   1.617   1.822  0.2423 -0.5344 -0.6183
 4132TIP3    H234032   3.743   1.675   1.690 -0.5947 -0.5548 -0.9356
 4133TIP3   OH234033   1.031   2.178   1.586  0.0611  0.5075  0.3157
 4133TIP3    H134034   0.965   2.230   1.540 -0.4465  0.3821  0.8824
 4133TIP3    H234035   0.997   2.088   1.583 -1.7463  0.8836  3.7682
 4134TIP3   OH234036   3.304   1.134   7.718 -0.4430 -0.6840 -0.1560
 4134TIP3    H134037   3.335   1.084   7.793  1.1140 -0.3617 -0.5348
 4134TIP3    H234038   3.355   1.215   7.721 -2.5135  0.6836  0.1351
 4135TIP3   OH234039   2.236   1.252   7.974  0.4571 -0.0869  0.2136
 4135TIP3    H134040   2.161   1.273   7.919 -0.4494 -0.0752  1.4085
 4135TIP3    H234041   2.309   1.240   7.913 -0.4756  0.0696 -0.9542
 4136TIP3   OH234042   4.884   5.611   0.706 -0.3312 -0.7942 -0.0658
 4136TIP3    H134043   4.921   5.529   0.673 -0.0723 -0.9675  0.6536
 4136TIP3    H234044   4.946   5.641   0.772 -0.0267  0.3970 -0.8820
 4137TIP3   OH234045   2.635   4.640   0.263 -0.1546 -0.4234 -0.2843
 4137TIP3    H134046   2.688   4.664   0.338 -0.9003 -0.1933  0.1792
 4137TIP3    H234047   2.661   4.701   0.194  0.0989 -0.2489 -0.0330
 4138TIP3   OH234048   5.929   0.062   8.421  0.2095  0.0927 -0.7375
 4138TIP3    H134049   5.843   0.104   8.426 -0.8146 -2.0031  0.9233
 4138TIP3    H234050   5.914  -0.016   8.367  0.6105 -1.1854  0.9153
 4139TIP3   OH234051   2.199   6.365   7.855 -0.1124 -0.4130  0.2380
 4139TIP3    H134052   2.290   6.361   7.884 -0.2208 -0.8417  0.5286
 4139TIP3    H234053   2.155   6.297   7.906 -0.5386 -0.3954 -0.1072
 4140TIP3   OH234054   5.183   3.056   7.724  0.0777  0.5134  0.2616
 4140TIP3    H134055   5.123   3.106   7.669  1.4427  0.7741 -1.0608
 4140TIP3    H234056   5.195   2.973   7.679  0.6557  0.4391  0.5338
 4141TIP3   OH234057   1.154   2.691   0.565  0.8500  0.4468 -0.0273
 4141TIP3    H134058   1.233   2.666   0.517 -0.6740  0.0430 -2.5317
 4141TIP3    H234059   1.118   2.764   0.515 -1.4576 -0.7558 -0.2301
 4142TIP3   OH234060   4.459   2.147   8.123  0.4017  0.1131 -0.2889
 4142TIP3    H134061   4.422   2.102   8.047 -0.1838  0.2907 -0.1139
 4142TIP3    H234062   4.383   2.170   8.177  0.5823  2.1455 -0.8191
 4143TIP3   OH234063   2.553   2.121   1.034  0.2501  0.1376  0.3478
 4143TIP3    H134064   2.571   2.164   1.118 -0.1852  1.9835 -0.4385
 4143TIP3    H234065   2.466   2.083   1.045 -0.6304  1.9792  0.1968
 4144TIP3   OH234066   4.980   5.419   6.509  1.1540  0.0451  0.1606
 4144TIP3    H134067   5.050   5.459   6.458  0.7502 -0.8222 -1.1381
 4144TIP3    H234068   5.008   5.329   6.522  0.5359 -0.1596  0.1050
 4145TIP3   OH234069   3.523   5.614   0.767  0.2335  0.2244  0.1163
 4145TIP3    H134070   3.474   5.658   0.698 -1.0275 -2.1566 -0.6315
 4145TIP3    H234071   3.605   5.663   0.775 -0.9603  2.4808 -0.7748
 4146TIP3   OH234072   1.802   1.431   8.341  0.6557 -0.6072 -0.5251
 4146TIP3    H134073   1.866   1.484   8.295 -1.6484  2.8106 -0.2561
 4146TIP3    H234074   1.846   1.403   8.421  2.1076  0.7441 -0.8171
 4147TIP3   OH234075   1.357   5.789   0.413  0.1492  0.0916  0.1005
 4147TIP3    H134076   1.397   5.707   0.384  1.3121  1.5995 -3.0392
 4147TIP3    H234077   1.266   5.783   0.386  0.4615  0.1807 -1.0002
 4148TIP3   OH234078   0.534   5.972   8.521  0.2816 -0.5806  0.2332
 4148TIP3    H134079   0.478   5.936   8.590  0.0015 -2.4678 -0.9161
 4148TIP3    H234080   0.567   5.895   8.475 -2.1293  0.5269 -3.8130
 4149TIP3   OH234081   2.410   3.966   7.975 -0.2233 -0.1786 -0.3981
 4149TIP3    H134082   2.425   3.908   7.901  0.7367 -1.0003  0.4170
 4149TIP3    H234083   2.407   3.908   8.051 -0.9669  0.6677  0.2479
 4150TIP3   OH234084   4.599   3.347   8.726 -0.0480 -0.1704  0.2671
 4150TIP3    H134085   4.653   3.403   8.670  1.5914 -1.8777  0.0510
 4150TIP3    H234086   4.527   3.320   8.670  1.1612 -1.2352 -0.8229
 4151TIP3   OH234087   4.878   2.976   6.718 -0.1482  0.2586 -1.0236
 4151TIP3    H134088   4.828   2.948   6.795  0.4910 -0.3024 -0.7979
 4151TIP3    H234089   4.888   3.071   6.728 -1.3846  0.4230 -1.2130
 4152TIP3   OH234090   4.887   6.258   6.904  0.1505  0.3796 -0.2983
 4152TIP3    H134091   4.931   6.223   6.982 -0.1842  1.4959  0.4156
 4152TIP3    H234092   4.835   6.184   6.870 -0.2940  0.0838  0.9737
 4153TIP3   OH234093   0.857   1.586   8.253  0.4089 -0.3923 -0.0447
 4153TIP3    H134094   0.887   1.560   8.166 -0.8162  0.2776 -0.6860
 4153TIP3    H234095   0.813   1.507   8.287 -1.4061  0.0800 -1.1242
 4154TIP3   OH234096   5.055   6.572   8.252  0.3727  0.0215 -0.2456
 4154TIP3    H134097   4.994   6.527   8.193 -0.3696  1.3010 -0.4866
 4154TIP3    H234098   5.010   6.653   8.276  1.4847  0.4301  0.5354
 4155TIP3   OH234099   1.831   3.685   7.649  0.0956  0.3068  0.1036
 4155TIP3    H134100   1.847   3.656   7.559 -1.2090  0.0864 -0.0745
 4155TIP3    H234101   1.883   3.764   7.658 -0.4399  0.8376 -1.1433
 4156TIP3   OH234102   1.870   1.835   8.433 -0.6475 -0.3985 -0.4017
 4156TIP3    H134103   1.809   1.773   8.472 -2.0589 -0.0436 -1.9171
 4156TIP3    H234104   1.816   1.890   8.377  0.6400  1.8285  0.3838
 4157TIP3   OH234105   6.441   4.052   1.033 -0.4896  0.0996  0.7441
 4157TIP3    H134106   6.360   4.067   1.083  0.0664  0.7652  1.4588
 4157TIP3    H234107   6.507   4.035   1.100 -0.1928 -1.3326  0.1358
 4158TIP3   OH234108   2.591   0.153   0.057  0.3864  0.2286  0.7515
 4158TIP3    H134109   2.577   0.160  -0.038 -0.5432  1.7945  0.9807
 4158TIP3    H234110   2.642   0.072   0.067  0.3798 -0.0492 -1.0627
 4159TIP3   OH234111   4.501   1.174   6.416 -0.2146 -0.2440  0.5279
 4159TIP3    H134112   4.416   1.204   6.450 -1.4646 -2.0354 -0.8060
 4159TIP3    H234113   4.524   1.099   6.470  0.1273 -0.2547  0.3722
 4160TIP3   OH234114   0.986   1.839   6.361 -0.4179 -0.0339  0.5829
 4160TIP3    H134115   0.995   1.768   6.425 -2.1491 -0.1946  0.6957
 4160TIP3    H234116   1.054   1.821   6.296  0.3892 -0.7208  1.5832
 4161TIP3   OH234117   5.880   1.464   6.425 -0.5141  0.0143 -0.7922
 4161TIP3    H134118   5.858   1.518   6.350  0.6060 -0.9976 -1.8807
 4161TIP3    H234119   5.974   1.473   6.435 -0.4845 -0.8004 -0.2524
 4162TIP3   OH234120   2.402   5.949   0.844 -0.2218 -0.1110  0.0656
 4162TIP3    H134121   2.414   5.941   0.749  1.7687 -0.8439  0.3205
 4162TIP3    H234122   2.435   6.036   0.865  0.3767 -0.3605  0.1949
 4163TIP3   OH234123   1.595   0.383   7.595  0.1935 -0.1379  0.0068
 4163TIP3    H134124   1.651   0.453   7.561  0.7217 -0.3715  0.3933
 4163TIP3    H234125   1.637   0.303   7.565 -0.4305 -0.2955 -0.4658
 4164TIP3   OH234126   3.087   6.844   1.844  0.0174 -0.0333  0.1274
 4164TIP3    H134127   3.112   6.765   1.893 -0.7660 -0.4684 -0.1507
 4164TIP3    H234128   3.052   6.810   1.762 -0.9125  0.5731  0.2623
 4165TIP3   OH234129   6.694   3.414   7.002 -0.1308 -0.2829 -0.1618
 4165TIP3    H134130   6.633   3.341   6.993 -0.3047 -0.4772  1.9113
 4165TIP3    H234131   6.777   3.373   7.027  0.3426  0.1152 -1.0182
 4166TIP3   OH234132   0.639   2.732   7.033  0.5628 -0.2958  0.5590
 4166TIP3    H134133   0.715   2.789   7.028 -0.1464  0.5932 -0.3977
 4166TIP3    H234134   0.596   2.741   6.948 -0.4870 -0.9479  0.9979
 4167TIP3   OH234135   2.134   4.254   5.777 -0.0493 -0.1936 -0.2025
 4167TIP3    H134136   2.189   4.328   5.803  0.2089 -0.8927  1.3620
 4167TIP3    H234137   2.196   4.192   5.738 -0.2610  0.3657 -1.4850
 4168TIP3   OH234138   5.988   2.460   8.407 -0.3443 -0.4090 -0.1325
 4168TIP3    H134139   5.981   2.460   8.502 -0.0391  0.8017 -0.0889
 4168TIP3    H234140   5.953   2.545   8.380  2.6044  0.7111 -0.8018
 4169TIP3   OH234141   3.259   5.407   0.859  0.1890 -0.2196  0.3353
 4169TIP3    H134142   3.342   5.425   0.815 -0.6862 -0.2191 -1.4187
 4169TIP3    H234143   3.265   5.314   0.883  0.7714 -0.1758  0.3704
 4170TIP3   OH234144   1.823   0.718   8.652  0.0330 -0.3198  0.1446
 4170TIP3    H134145   1.875   0.676   8.720 -0.3402 -3.1013 -1.1082
 4170TIP3    H234146   1.733   0.690   8.671  0.0455 -2.1110 -1.9638
 4171TIP3   OH234147   0.524   0.364   0.791 -0.9882 -0.8390  0.2341
 4171TIP3    H134148   0.471   0.443   0.789  0.3335  0.2815 -4.4899
 4171TIP3    H234149   0.613   0.394   0.811 -0.7724 -1.4086  0.1711
 4172TIP3   OH234150   6.308   1.790   1.142  0.0683  1.0264 -0.0343
 4172TIP3    H134151   6.318   1.773   1.235  1.3356  0.8355 -0.1843
 4172TIP3    H234152   6.222   1.832   1.134  0.3032  1.8338  1.3190
 4173TIP3   OH234153   4.601   6.096   7.634  0.0977  0.3469  0.1580
 4173TIP3    H134154   4.553   6.014   7.621  1.8424 -0.6254 -0.5510
 4173TIP3    H234155   4.537   6.165   7.617 -1.2706 -0.8725  0.2224
 4174TIP3   OH234156   3.874   6.218   6.406  0.1096 -0.0664  0.1884
 4174TIP3    H134157   3.957   6.243   6.365  0.1591 -1.8763 -0.8914
 4174TIP3    H234158   3.836   6.302   6.433  1.5416  0.9450 -0.7287
 4175TIP3   OH234159   5.225   6.742   8.652  0.5594 -0.2978  0.4826
 4175TIP3    H134160   5.215   6.837   8.653  0.4008 -0.2847 -0.6168
 4175TIP3    H234161   5.318   6.728   8.634  0.4373 -0.3341 -0.1532
 4176TIP3   OH234162   0.853   1.631   7.027 -0.0594 -0.0127  0.2166
 4176TIP3    H134163   0.819   1.718   7.006 -1.7112 -1.2147 -2.7379
 4176TIP3    H234164   0.927   1.619   6.966  0.0022 -0.7446  0.4256
 4177TIP3   OH234165   0.904   5.575   7.675  0.4450  0.1563  0.4264
 4177TIP3    H134166   0.939   5.628   7.604 -2.3395  1.1279 -0.3494
 4177TIP3    H234167   0.846   5.635   7.723 -2.4646 -1.9218 -0.2099
 4178TIP3   OH234168   5.632   0.180   6.844  0.1173  0.2502  0.1069
 4178TIP3    H134169   5.666   0.189   6.755  1.9537 -0.2109  0.7072
 4178TIP3    H234170   5.666   0.256   6.890 -1.0958  0.6576  0.3580
 4179TIP3   OH234171   4.644   6.145   7.910  0.7427 -0.5974  0.6539
 4179TIP3    H134172   4.621   6.137   7.817 -0.2554  1.0917  0.7227
 4179TIP3    H234173   4.738   6.161   7.910  0.4074  1.8836 -0.2933
 4180TIP3   OH234174   4.476   3.817   0.470  0.2620 -0.7388  0.7442
 4180TIP3    H134175   4.424   3.897   0.467 -1.2778 -1.7099  0.6271
 4180TIP3    H234176   4.465   3.785   0.559 -0.4965 -1.6854  0.3203
 4181TIP3   OH234177   2.553   0.794   1.112 -0.0199 -0.3051  0.5794
 4181TIP3    H134178   2.579   0.864   1.173  0.5115  1.1588 -1.2108
 4181TIP3    H234179   2.631   0.740   1.102  0.9349  1.2618 -1.0773
 4182TIP3   OH234180   5.758   3.375   8.574  0.6806 -0.2470 -0.4226
 4182TIP3    H134181   5.752   3.408   8.664  1.0926 -1.7631  0.1946
 4182TIP3    H234182   5.768   3.454   8.520 -0.5143  0.7623  0.7542
 4183TIP3   OH234183   3.186   6.104   2.136 -0.2025 -0.2846 -0.0562
 4183TIP3    H134184   3.246   6.137   2.069 -0.6337 -0.0921 -0.3477
 4183TIP3    H234185   3.239   6.042   2.187  0.8516  1.4256  1.0187
 4184TIP3   OH234186   0.785   3.078   7.131 -0.4860 -0.2215  0.6401
 4184TIP3    H134187   0.845   3.096   7.059 -1.0853  0.4866  0.3101
 4184TIP3    H234188   0.738   3.161   7.144 -0.1880 -0.2470  2.0273
 4185TIP3   OH234189   3.013   6.005   0.810  0.7078 -0.2633 -0.6994
 4185TIP3    H134190   2.948   6.032   0.745  1.8846  0.4654 -1.5945
 4185TIP3    H234191   3.097   6.031   0.774  1.3470  1.2097  1.6097
 4186TIP3   OH234192   2.193   3.969   1.668  0.2132 -0.3782 -0.1366
 4186TIP3    H134193   2.147   4.044   1.705 -0.8471 -1.1374  0.1580
 4186TIP3    H234194   2.144   3.893   1.701  1.4155 -1.2089 -0.2041
 4187TIP3   OH234195   1.089   2.282   0.267  0.3772  0.3457 -0.2222
 4187TIP3    H134196   1.127   2.327   0.191  0.5403  0.4109 -0.1016
 4187TIP3    H234197   1.149   2.301   0.339 -0.7755  1.9545  0.3923
 4188TIP3   OH234198   0.569   4.442   0.623 -0.2731 -0.6944  0.4785
 4188TIP3    H134199   0.563   4.513   0.686  1.1833  0.7407 -0.8865
 4188TIP3    H234200   0.529   4.367   0.666 -0.8207  0.6550  2.4209
 4189TIP3   OH234201   5.156   3.901   0.808 -0.1388  0.5877 -0.1737
 4189TIP3    H134202   5.063   3.878   0.811 -0.2265  0.9611 -0.0341
 4189TIP3    H234203   5.169   3.959   0.883  0.6692 -1.1228  1.0689
 4190TIP3   OH234204   6.044   0.110   8.144 -0.4636 -0.2081  0.1707
 4190TIP3    H134205   6.130   0.152   8.143 -1.2825  1.5661  0.6777
 4190TIP3    H234206   6.027   0.092   8.237 -0.6397 -0.5573  0.0741
 4191TIP3   OH234207   3.777   3.088   7.112 -0.3856  0.1912  0.0016
 4191TIP3    H134208   3.744   3.138   7.188  0.3589  0.0650  0.4212
 4191TIP3    H234209   3.804   3.156   7.050  0.3272  0.3264  0.4414
 4192TIP3   OH234210   5.264   6.221   8.676  0.1955 -0.2807  0.5567
 4192TIP3    H134211   5.342   6.277   8.682 -0.0487  0.0561  0.6623
 4192TIP3    H234212   5.288   6.151   8.616  0.9730 -0.8273  1.4779
 4193TIP3   OH234213   6.480   2.088   1.243 -0.0788 -0.1956  0.2419
 4193TIP3    H134214   6.492   1.995   1.262  1.8999  0.3021  1.7475
 4193TIP3    H234215   6.418   2.090   1.171 -2.0972 -2.5844  1.7395
 4194TIP3   OH234216   0.333   4.597   6.625  0.3684  0.6026  0.7033
 4194TIP3    H134217   0.250   4.617   6.668  0.3853 -3.0504  2.8271
 4194TIP3    H234218   0.308   4.552   6.545  0.1326 -1.5241  1.8850
 4195TIP3   OH234219   0.025   3.628   0.705 -0.9244 -0.9658  0.5000
 4195TIP3    H134220  -0.017   3.552   0.666 -1.2661 -1.1994  1.3016
 4195TIP3    H234221  -0.047   3.678   0.744 -0.5945 -0.7507  0.8460
 4196TIP3   OH234222   3.906   1.255   0.327 -0.1846  0.1484 -0.0368
 4196TIP3    H134223   3.865   1.195   0.389 -0.4598  0.1665 -0.1998
 4196TIP3    H234224   4.000   1.241   0.339 -0.2388 -0.0093  0.2246
 4197TIP3   OH234225   5.122   1.422   8.367  0.6651  0.0582 -0.4659
 4197TIP3    H134226   5.051   1.405   8.305  0.9121  0.2324 -0.8003
 4197TIP3    H234227   5.199   1.436   8.312  0.6111  1.6049 -0.1792
 4198TIP3   OH234228   4.711   3.553   8.573  0.0665  0.2298 -0.6954
 4198TIP3    H134229   4.802   3.579   8.587  0.6046 -1.9689  0.3932
 4198TIP3    H234230   4.706   3.530   8.480  0.2109  1.6613 -1.0848
 4199TIP3   OH234231   6.182   0.973   1.539  0.1166  0.4086  0.2625
 4199TIP3    H134232   6.197   1.057   1.582 -0.3310 -0.3455  1.9378
 4199TIP3    H234233   6.093   0.948   1.566  1.0722 -1.6815  1.6646
 4200TIP3   OH234234   2.466   4.939   8.450  0.1111 -0.6177 -0.3484
 4200TIP3    H134235   2.457   4.845   8.464 -1.2908 -0.7033 -1.5810
 4200TIP3    H234236   2.536   4.948   8.385 -0.5356 -0.9149 -1.1068
 4201TIP3   OH234237   4.711   4.737   0.663  0.3176  0.0985  0.1450
 4201TIP3    H134238   4.673   4.667   0.610 -0.0619  0.8967 -0.6737
 4201TIP3    H234239   4.635   4.779   0.705  0.5779 -0.2458  0.9832
 4202TIP3   OH234240   6.463   6.652   8.638 -0.1673 -0.3595 -0.3158
 4202TIP3    H134241   6.421   6.598   8.571 -0.2041  0.0399 -0.6200
 4202TIP3    H234242   6.544   6.605   8.658 -0.4481 -0.7988 -0.1936
 4203TIP3   OH234243   0.045   3.479   6.605  0.2675 -0.1855  0.4947
 4203TIP3    H134244  -0.004   3.410   6.560 -0.7221  0.5254  0.4275
 4203TIP3    H234245  -0.022   3.526   6.655  0.6682  1.5495 -0.5209
 4204TIP3   OH234246   5.785   3.282   2.286 -0.3819 -0.7369 -0.2771
 4204TIP3    H134247   5.698   3.311   2.259 -0.9473 -1.1219  1.0124
 4204TIP3    H234248   5.770   3.196   2.325  0.1441  0.1662  2.1346
 4205TIP3   OH234249   1.957   1.167   6.936  0.3157  0.3287  0.1354
 4205TIP3    H134250   1.870   1.181   6.897  0.7288 -0.8650 -1.3488
 4205TIP3    H234251   1.939   1.151   7.028 -1.2262 -1.1896 -0.3518
 4206TIP3   OH234252   0.730   2.346   8.426  0.4702  0.3680  0.0150
 4206TIP3    H134253   0.734   2.408   8.499  1.7619  0.3822 -0.0363
 4206TIP3    H234254   0.645   2.361   8.386  0.2914  1.2996  0.7091
 4207TIP3   OH234255   6.139   2.026   0.602 -0.5705 -0.0970  0.4071
 4207TIP3    H134256   6.217   2.014   0.656  0.2752 -1.1847 -0.9691
 4207TIP3    H234257   6.085   2.089   0.650  1.4846  1.2704  1.0380
 4208TIP3   OH234258   0.832   5.809   7.174 -0.7314 -0.2290 -0.2448
 4208TIP3    H134259   0.738   5.826   7.178 -1.3164 -3.1346  1.1514
 4208TIP3    H234260   0.859   5.799   7.266  1.3146  1.9235 -0.5045
 4209TIP3   OH234261   5.596   4.227   6.259  0.6642 -0.5603 -1.0282
 4209TIP3    H134262   5.648   4.239   6.338 -1.2629  1.9750  0.0141
 4209TIP3    H234263   5.651   4.259   6.188  0.7928  1.5657 -0.0385
 4210TIP3   OH234264   1.616   1.060   1.278 -0.1953 -0.0683 -0.4631
 4210TIP3    H134265   1.634   1.028   1.366  0.3337  0.9512 -0.1875
 4210TIP3    H234266   1.522   1.082   1.279  0.1754  1.7337  0.4775
 4211TIP3   OH234267   4.620   4.654   8.472  0.2184  0.4997 -0.0052
 4211TIP3    H134268   4.573   4.576   8.442 -1.5996  1.0195  1.2992
 4211TIP3    H234269   4.667   4.685   8.394  0.1077 -1.2674 -0.8197
 4212TIP3   OH234270   5.742   0.846   7.497 -0.4707 -0.5598  0.1617
 4212TIP3    H134271   5.820   0.811   7.453  0.5988  1.1304  0.6080
 4212TIP3    H234272   5.703   0.905   7.432 -1.7693 -1.8577 -0.2849
 4213TIP3   OH234273   5.903   3.536   6.816 -0.0930 -0.1289 -0.4008
 4213TIP3    H134274   5.945   3.616   6.783  0.1441  0.0152  0.2315
 4213TIP3    H234275   5.953   3.514   6.895 -1.5490  0.3770  0.7090
 4214TIP3   OH234276   3.742   6.005   8.710 -0.1695 -0.1843 -0.4267
 4214TIP3    H134277   3.759   6.038   8.621  0.7850 -2.8452 -1.3446
 4214TIP3    H234278   3.818   6.034   8.761 -1.0583  1.9567 -0.2331
 4215TIP3   OH234279   0.460   5.386   8.681  0.0620 -0.0350 -0.0837
 4215TIP3    H134280   0.446   5.348   8.594 -1.8136 -0.9918  0.5892
 4215TIP3    H234281   0.394   5.345   8.736 -1.6517  3.6762  0.9008
 4216TIP3   OH234282   3.259   2.288   0.923 -0.2365 -0.1712  0.4548
 4216TIP3    H134283   3.245   2.286   0.828 -2.0898  0.7176  0.6457
 4216TIP3    H234284   3.342   2.333   0.934 -0.8690  1.4051 -0.7412
 4217TIP3   OH234285   5.006   3.971   2.365 -0.3448  0.4060 -0.0349
 4217TIP3    H134286   4.993   3.899   2.427  1.7708  0.1146  0.1612
 4217TIP3    H234287   5.099   3.966   2.342 -0.2671  2.7006 -0.4919
 4218TIP3   OH234288   4.950   5.781   1.365 -0.0000  0.0058  0.7217
 4218TIP3    H134289   5.026   5.809   1.416  1.3448 -0.5037 -0.8956
 4218TIP3    H234290   4.978   5.700   1.323 -1.1024  0.2907 -0.6524
 4219TIP3   OH234291   1.249   3.645   8.059 -0.3837  0.0525 -0.3513
 4219TIP3    H134292   1.268   3.716   8.120  1.8111 -0.6056 -0.1556
 4219TIP3    H234293   1.335   3.621   8.024 -1.4059 -0.7228 -2.4359
 4220TIP3   OH234294   6.471   6.550   7.700  0.5121  0.0268 -0.3340
 4220TIP3    H134295   6.436   6.463   7.677  1.6647 -0.7089  0.5621
 4220TIP3    H234296   6.413   6.612   7.655 -0.7112 -1.1814 -0.5031
 4221TIP3   OH234297   2.083   3.309   6.945 -0.0064  0.3868 -0.7488
 4221TIP3    H134298   2.071   3.404   6.951  1.1166  0.5315 -0.4663
 4221TIP3    H234299   2.170   3.294   6.982 -0.3435 -0.8056 -0.4149
 4222TIP3   OH234300   4.847   4.368   0.928  0.1860  0.0404 -0.3529
 4222TIP3    H134301   4.877   4.445   0.977 -1.7256  0.0587  0.8778
 4222TIP3    H234302   4.766   4.397   0.886  0.8933 -0.5113 -2.1948
 4223TIP3   OH234303   2.350   2.484   8.082  0.1383 -0.7392  0.8250
 4223TIP3    H134304   2.356   2.473   8.177  1.5006 -0.5139  0.7818
 4223TIP3    H234305   2.258   2.466   8.061  0.4338 -4.1032  1.7744
 4224TIP3   OH234306   6.400   6.554   0.363  0.0171  0.1261 -0.8579
 4224TIP3    H134307   6.400   6.621   0.295  0.5526  0.0937 -0.8938
 4224TIP3    H234308   6.313   6.561   0.403  0.3153  1.3593 -0.3605
 4225TIP3   OH234309   2.859   2.940   0.616 -0.3780 -0.0402 -0.8927
 4225TIP3    H134310   2.863   3.024   0.661 -0.5233 -1.3003  1.6919
 4225TIP3    H234311   2.948   2.925   0.585  0.6415 -0.5285  1.9549
 4226TIP3   OH234312   0.629   3.223   8.044  0.0683 -0.1789  0.4957
 4226TIP3    H134313   0.693   3.169   8.090  1.6669  1.8011  0.7458
 4226TIP3    H234314   0.658   3.313   8.059 -1.0332  0.6768 -1.9633
 4227TIP3   OH234315   0.734   6.134   8.073 -0.0445  0.0584  0.1701
 4227TIP3    H134316   0.680   6.093   8.005 -1.3369  0.5663  0.8489
 4227TIP3    H234317   0.738   6.227   8.047 -0.0119  0.1359  0.4526
 4228TIP3   OH234318   5.607   0.778   7.030 -0.1810 -0.2343 -0.4815
 4228TIP3    H134319   5.515   0.766   7.051 -0.1949  0.1643 -0.3156
 4228TIP3    H234320   5.643   0.689   7.032 -0.1872 -0.2381  1.2015
 4229TIP3   OH234321   3.004   5.888   6.063 -0.4720  0.2269 -0.1705
 4229TIP3    H134322   3.077   5.949   6.067 -1.6254  1.6153  0.4673
 4229TIP3    H234323   3.028   5.827   5.993  1.5697  0.2398  0.4463
 4230TIP3   OH234324   1.213   0.178   6.653 -0.3694 -0.3630 -0.0456
 4230TIP3    H134325   1.177   0.108   6.708 -1.6876 -1.2144 -1.8632
 4230TIP3    H234326   1.186   0.154   6.564  2.9554  0.1270 -1.3036
 4231TIP3   OH234327   3.675   2.384   7.389  0.0276 -0.1304 -0.0780
 4231TIP3    H134328   3.730   2.306   7.401  1.1316  0.2723 -2.1103
 4231TIP3    H234329   3.662   2.389   7.294  0.7067  2.6358 -0.0964
 4232TIP3   OH234330   2.585   5.430   1.796  0.4607 -0.2426 -0.9895
 4232TIP3    H134331   2.509   5.389   1.755 -1.2844  1.7736  0.0923
 4232TIP3    H234332   2.615   5.495   1.731  2.7238 -2.4556 -2.3543
 4233TIP3   OH234333   2.064   3.830   8.060 -0.1617  0.1192 -0.5245
 4233TIP3    H134334   1.970   3.817   8.069  0.0464 -0.5075  1.0546
 4233TIP3    H234335   2.098   3.742   8.042  0.1098  0.3745 -1.2931
 4234TIP3   OH234336   2.143   2.902   6.142  0.1605 -0.0696 -0.7218
 4234TIP3    H134337   2.124   2.814   6.174 -1.2980  0.5123  0.0745
 4234TIP3    H234338   2.104   2.905   6.055  1.1405 -0.5288 -1.1985
 4235TIP3   OH234339   5.446   6.559   8.694 -0.6384  0.1510 -0.3777
 4235TIP3    H134340   5.491   6.514   8.623 -1.0665  1.8557 -1.7932
 4235TIP3    H234341   5.514   6.575   8.759  0.3572  0.7967 -1.5338
 4236TIP3   OH234342   4.195   5.927   7.359 -0.7669  0.1494 -0.3362
 4236TIP3    H134343   4.217   5.854   7.301 -1.4672 -1.1926  1.0252
 4236TIP3    H234344   4.277   5.973   7.374  0.0514 -1.4406  0.2151
 4237TIP3   OH234345   2.045   3.654   8.646 -0.4017  0.2163 -0.1420
 4237TIP3    H134346   1.976   3.678   8.708  0.1870  2.0156 -0.1298
 4237TIP3    H234347   2.104   3.729   8.645  2.4597 -1.8117  1.0158
 4238TIP3   OH234348   1.992   4.619   7.120 -0.0468  0.5738 -0.3265
 4238TIP3    H134349   1.985   4.530   7.156  0.3474  0.9783  0.7936
 4238TIP3    H234350   1.907   4.659   7.139  0.3477  0.9656  0.6947
 4239TIP3   OH234351   0.308   2.181   6.755 -0.0769 -0.5391  0.6352
 4239TIP3    H134352   0.221   2.201   6.791 -0.2508 -0.8092  0.3708
 4239TIP3    H234353   0.325   2.251   6.692 -1.2321 -1.8508 -1.2265
 4240TIP3   OH234354   6.045   4.205   6.492 -0.1030 -0.5329  0.0547
 4240TIP3    H134355   6.059   4.226   6.400  2.0931  1.8685  0.8061
 4240TIP3    H234356   6.081   4.280   6.539 -1.2664 -1.6092  2.8984
 4241TIP3   OH234357   5.754   2.903   0.974 -0.1244 -0.1047 -0.2731
 4241TIP3    H134358   5.749   2.990   1.013 -2.1380 -0.0491 -0.5476
 4241TIP3    H234359   5.828   2.908   0.913  0.8482  0.8721  0.9416
 4242TIP3   OH234360   1.430   1.887   1.584  0.2047 -0.9538 -0.0522
 4242TIP3    H134361   1.388   1.801   1.576  0.3722 -1.0125 -0.2827
 4242TIP3    H234362   1.524   1.869   1.584  0.2396 -0.7767 -0.0126
 4243TIP3   OH234363   5.468   0.301   7.628 -0.3552 -0.5504 -0.1322
 4243TIP3    H134364   5.389   0.308   7.574  0.6781 -2.3874 -2.0350
 4243TIP3    H234365   5.528   0.366   7.591 -0.9694  1.0415  1.4889
 4244TIP3   OH234366   0.228   6.337   1.086 -0.2099 -0.3507 -0.3327
 4244TIP3    H134367   0.296   6.393   1.123 -0.9769  1.2223 -1.2332
 4244TIP3    H234368   0.166   6.323   1.158  0.0477 -0.1348 -0.0686
 4245TIP3   OH234369   5.900   2.290   1.291 -0.2487 -0.7357  0.2463
 4245TIP3    H134370   5.883   2.204   1.253  0.6608 -1.0404  0.5067
 4245TIP3    H234371   5.993   2.306   1.275  0.0995 -0.7528  2.0720
 4246TIP3   OH234372   1.274   2.209   8.281  0.1489 -0.1638 -0.0759
 4246TIP3    H134373   1.191   2.174   8.312 -0.3013 -0.0870 -1.1479
 4246TIP3    H234374   1.279   2.296   8.321 -0.3345 -0.1301 -0.0766
 4247TIP3   OH234375   0.666   3.638   7.938 -0.6962  0.2853  0.2720
 4247TIP3    H134376   0.755   3.621   7.966 -0.1371  2.3681 -0.0515
 4247TIP3    H234377   0.675   3.699   7.864 -2.2538 -1.9452 -1.9541
 4248TIP3   OH234378   1.505   3.829   0.995 -0.5081  0.0812 -0.1821
 4248TIP3    H134379   1.451   3.837   1.074  0.7009  1.0689  0.6008
 4248TIP3    H234380   1.476   3.901   0.939 -0.4339  0.2187 -0.0437
 4249TIP3   OH234381   6.174   0.510   0.674 -0.4940  0.2983 -0.0605
 4249TIP3    H134382   6.200   0.601   0.689 -1.0247  0.4730 -0.1421
 4249TIP3    H234383   6.206   0.462   0.750 -0.4207  0.5999  0.0985
 4250TIP3   OH234384   0.013   0.757   1.069 -0.3676 -0.0653 -0.1047
 4250TIP3    H134385   0.012   0.677   1.122 -0.7993  1.7362  2.8189
 4250TIP3    H234386   0.083   0.810   1.107 -2.2328  2.2780  0.3392
 4251TIP3   OH234387   4.431   0.049   7.671 -0.1290  0.0954  0.1485
 4251TIP3    H134388   4.367   0.040   7.741 -0.4120 -0.9788 -0.2150
 4251TIP3    H234389   4.516   0.051   7.715 -0.3501  0.2943  0.5636
 4252TIP3   OH234390   0.411   1.460   7.083  0.3710 -0.4654  0.3715
 4252TIP3    H134391   0.471   1.524   7.124  0.2955 -1.2298  1.7354
 4252TIP3    H234392   0.324   1.490   7.108  0.1749  0.2588 -1.0496
 4253TIP3   OH234393   4.675   5.208   0.384 -0.3454  0.0499  0.1390
 4253TIP3    H134394   4.612   5.209   0.312  0.9718 -1.5633 -1.1299
 4253TIP3    H234395   4.628   5.168   0.457 -1.2305  0.2201 -0.3299
 4254TIP3   OH234396   3.410   1.147   0.636  0.2185 -0.0172  0.1325
 4254TIP3    H134397   3.501   1.174   0.651  1.7671 -4.4612  0.0429
 4254TIP3    H234398   3.370   1.153   0.723 -0.3519  4.2439 -0.1948
 4255TIP3   OH234399   2.602   2.388   7.389 -0.5873 -0.2751  0.1444
 4255TIP3    H134400   2.600   2.343   7.474  2.0952  1.6421  1.3660
 4255TIP3    H234401   2.682   2.440   7.391  0.4308 -1.2284 -4.1900
 4256TIP3   OH234402   3.251   2.148   1.909  0.1756  0.1890 -0.2411
 4256TIP3    H134403   3.172   2.098   1.887 -0.9891  1.5931  0.5432
 4256TIP3    H234404   3.249   2.222   1.848  2.5405 -1.2147 -2.2336
 4257TIP3   OH234405   2.148   3.068   0.396 -0.4803 -0.3396 -0.1427
 4257TIP3    H134406   2.197   3.060   0.478 -0.8735  1.3109  0.2856
 4257TIP3    H234407   2.209   3.039   0.328 -0.1323 -1.6981  0.6997
 4258TIP3   OH234408   1.770   4.225   7.302  0.2231  0.0568  0.0959
 4258TIP3    H134409   1.804   4.297   7.250 -1.1531  2.0955  1.8468
 4258TIP3    H234410   1.675   4.236   7.299 -0.0622 -2.0127  0.0235
 4259TIP3   OH234411   6.771   4.646   7.539 -0.3570 -0.0813 -0.3157
 4259TIP3    H134412   6.699   4.597   7.500 -0.5715  0.0675 -0.1096
 4259TIP3    H234413   6.849   4.617   7.491 -0.7102  0.6491 -1.3548
 4260TIP3   OH234414   4.941   3.902   7.298  0.3425 -0.0631 -0.1231
 4260TIP3    H134415   4.957   3.818   7.341 -1.5074 -0.5269 -0.2374
 4260TIP3    H234416   4.929   3.880   7.205 -0.3076  0.2864 -0.1301
 4261TIP3   OH234417   4.993   6.654   6.121 -0.3808 -0.2399 -0.7106
 4261TIP3    H134418   5.011   6.561   6.133 -1.1717 -0.3102  0.0078
 4261TIP3    H234419   5.075   6.697   6.144 -0.8690 -0.5834  1.9313
 4262TIP3   OH234420   4.307   4.599   6.799  0.1719 -0.2749 -0.5476
 4262TIP3    H134421   4.295   4.584   6.892  3.3283 -1.7640 -0.2366
 4262TIP3    H234422   4.303   4.511   6.760  3.0754 -0.2957 -1.0859
 4263TIP3   OH234423   5.840   6.098   0.231  0.1426 -0.0791 -0.6437
 4263TIP3    H134424   5.877   6.026   0.180 -1.5435 -1.2384 -0.3213
 4263TIP3    H234425   5.837   6.171   0.169  1.0381 -0.5337 -1.2571
 4264TIP3   OH234426   2.589   1.412   1.121 -0.3838  0.0994 -0.0467
 4264TIP3    H134427   2.678   1.396   1.089 -0.0193  1.7048  0.0740
 4264TIP3    H234428   2.588   1.374   1.209  0.0257 -0.3577 -0.2337
 4265TIP3   OH234429   0.146   6.586   1.292  0.2368 -0.1761  0.1857
 4265TIP3    H134430   0.177   6.496   1.293 -1.5840 -0.8884  2.4206
 4265TIP3    H234431   0.176   6.622   1.375  0.3350  1.0630 -0.3717
 4266TIP3   OH234432   3.746   6.384   7.964  0.1551  0.4601  0.1378
 4266TIP3    H134433   3.747   6.413   7.872 -0.4096  0.0099 -0.0155
 4266TIP3    H234434   3.686   6.445   8.007  0.3958  0.6516  0.2064
 4267TIP3   OH234435   4.280   2.890   7.589 -0.3049  0.1798 -0.1583
 4267TIP3    H134436   4.273   2.858   7.500  1.7690  3.6167 -1.7824
 4267TIP3    H234437   4.197   2.937   7.604 -2.0711 -3.0519  1.1318
 4268TIP3   OH234438   2.034   4.760   0.762  0.2783  0.0054 -0.0469
 4268TIP3    H134439   2.125   4.771   0.734  0.3721  1.4890  0.7141
 4268TIP3    H234440   1.994   4.706   0.695  2.2623 -2.6046  0.7204
 4269TIP3   OH234441   0.903   6.193   1.256 -0.3557  0.6057 -0.3912
 4269TIP3    H134442   0.951   6.275   1.243 -0.7835  0.9563  0.1994
 4269TIP3    H234443   0.969   6.132   1.290 -0.1816  0.8924 -0.2107
 4270TIP3   OH234444   4.070   0.890   6.828 -0.7084  0.1204 -0.1974
 4270TIP3    H134445   3.987   0.917   6.790 -0.0229 -0.5827 -2.4134
 4270TIP3    H234446   4.136   0.921   6.765  0.5125 -1.4347  0.2447
 4271TIP3   OH234447   2.406   2.981   7.299  0.0077 -0.2951 -0.5755
 4271TIP3    H134448   2.420   2.929   7.378  0.5497 -0.5692 -0.8427
 4271TIP3    H234449   2.316   2.961   7.273 -0.4872  0.5084  0.4698
 4272TIP3   OH234450   6.452   2.023   6.726 -0.1027  0.3620  0.4146
 4272TIP3    H134451   6.530   2.064   6.687 -0.7750  2.0896  0.8132
 4272TIP3    H234452   6.482   1.991   6.811  0.3895  0.1733  0.1765
 4273TIP3   OH234453   4.264   1.874   6.597 -0.7380 -0.2076  0.1852
 4273TIP3    H134454   4.291   1.827   6.676  1.9571  1.1471  0.1744
 4273TIP3    H234455   4.261   1.806   6.530  0.1618 -0.8836  0.7845
 4274TIP3   OH234456   2.662   4.795   1.264  0.5933  0.0179  0.0797
 4274TIP3    H134457   2.683   4.762   1.351 -0.3370 -1.2309 -0.1322
 4274TIP3    H234458   2.745   4.795   1.217  1.2218  1.2894  1.1227
 4275TIP3   OH234459   3.424   2.341   8.056  0.1251 -0.4712  0.2363
 4275TIP3    H134460   3.329   2.326   8.064 -0.1452  0.9031 -0.0684
 4275TIP3    H234461   3.464   2.257   8.080 -1.0876 -0.5007  2.3578
 4276TIP3   OH234462   2.092   5.206   0.129  0.2020  0.1280 -0.0343
 4276TIP3    H134463   2.014   5.191   0.181  0.1707  0.2205 -0.0535
 4276TIP3    H234464   2.119   5.120   0.098 -0.9955  0.2859 -1.6349
 4277TIP3   OH234465   0.403   3.415   8.583  0.4796 -0.4265  0.5273
 4277TIP3    H134466   0.430   3.368   8.504 -1.8184 -0.4167 -0.3456
 4277TIP3    H234467   0.418   3.507   8.563  1.1346 -0.5098  0.6265
 4278TIP3   OH234468   3.316   4.499   1.643 -0.9933 -0.4330  0.7389
 4278TIP3    H134469   3.406   4.487   1.672 -1.2570 -1.0312  1.3252
 4278TIP3    H234470   3.309   4.593   1.625 -0.5809 -0.1840  1.7994
 4279TIP3   OH234471   5.489   4.412   7.264  0.5217 -0.5075 -0.4249
 4279TIP3    H134472   5.441   4.367   7.194  3.2845 -3.0584 -0.8728
 4279TIP3    H234473   5.442   4.388   7.344 -1.0876  0.2333 -1.0935
 4280TIP3   OH234474   2.863   0.702   1.646 -0.6199  0.2964 -0.0819
 4280TIP3    H134475   2.801   0.716   1.718 -0.0845 -1.1662  0.6924
 4280TIP3    H234476   2.933   0.649   1.684  0.2904  0.5328 -1.3747
 4281TIP3   OH234477   0.636   4.063   8.084  0.0127 -0.1658  0.3649
 4281TIP3    H134478   0.574   4.016   8.028  1.0915 -0.3697 -0.7115
 4281TIP3    H234479   0.677   4.127   8.026  0.4436  0.3035  1.1721
 4282TIP3   OH234480   4.663   0.759   6.734 -0.0616 -1.0408 -0.6004
 4282TIP3    H134481   4.752   0.725   6.743  1.1583  2.2397  1.0771
 4282TIP3    H234482   4.627   0.757   6.822 -1.0342 -0.7160 -0.9718
 4283TIP3   OH234483   0.964   0.295   1.162  0.0944 -0.0558 -0.5919
 4283TIP3    H134484   0.927   0.354   1.097 -0.0914  1.8645  1.1708
 4283TIP3    H234485   0.943   0.335   1.246 -0.8564 -3.1036  0.7899
 4284TIP3   OH234486   3.580   1.294   6.351  0.1622 -0.2268 -0.2175
 4284TIP3    H134487   3.601   1.376   6.396 -0.7889 -1.1721  2.0952
 4284TIP3    H234488   3.484   1.292   6.348  0.1730 -1.2985 -0.1427
 4285TIP3   OH234489   1.126   3.225   8.100 -0.4336  0.2025 -0.5848
 4285TIP3    H134490   1.148   3.278   8.023  0.5475  0.3340 -0.2331
 4285TIP3    H234491   1.180   3.146   8.091 -0.3924  0.1711 -0.0908
 4286TIP3   OH234492   4.537   0.987   0.159  0.5282 -0.9266  0.0648
 4286TIP3    H134493   4.518   1.035   0.078 -0.5181 -2.2162 -0.4872
 4286TIP3    H234494   4.523   1.052   0.228  1.4713  0.2083 -0.7602
 4287TIP3   OH234495   4.874   6.542   0.702 -0.4863  0.4537  0.2354
 4287TIP3    H134496   4.793   6.551   0.752 -0.1728  0.4527  0.7466
 4287TIP3    H234497   4.943   6.568   0.763 -0.1108  0.5667 -0.2354
 4288TIP3   OH234498   2.668   2.916   7.202 -0.9191 -0.0819 -0.4032
 4288TIP3    H134499   2.582   2.940   7.236 -0.6831 -0.9590  0.9000
 4288TIP3    H234500   2.668   2.820   7.200  0.3164 -0.1396  0.4962
 4289TIP3   OH234501   1.996   5.565   0.576 -0.0666 -0.4159 -0.4599
 4289TIP3    H134502   2.007   5.503   0.648  3.2573  0.7276  0.1947
 4289TIP3    H234503   1.926   5.623   0.605  2.0220  0.8302  2.6393
 4290TIP3   OH234504   4.846   4.064   8.269 -0.3445  0.6415  0.1404
 4290TIP3    H134505   4.908   4.001   8.231 -1.5112  0.0494 -0.8566
 4290TIP3    H234506   4.848   4.138   8.209 -0.9009  0.4360 -0.1415
 4291TIP3   OH234507   4.151   2.059   1.735  0.0063  0.7260 -0.2980
 4291TIP3    H134508   4.223   2.027   1.681 -0.4469 -0.4361 -0.2426
 4291TIP3    H234509   4.189   2.130   1.787  1.4200 -0.6014  0.5645
 4292TIP3   OH234510   4.173   4.052   2.123 -0.0372 -0.0124  0.2511
 4292TIP3    H134511   4.131   3.984   2.176 -0.2222 -0.8802 -0.9875
 4292TIP3    H234512   4.100   4.102   2.086  0.0948  0.5619  0.7325
 4293TIP3   OH234513   5.424   6.594   6.503  0.2415 -0.1698  0.1409
 4293TIP3    H134514   5.413   6.680   6.464 -1.1770 -0.6744 -0.6670
 4293TIP3    H234515   5.419   6.533   6.429 -0.9239 -1.0571  0.8982
 4294TIP3   OH234516   4.208   3.742   1.440  0.0685  0.0545 -0.3126
 4294TIP3    H134517   4.183   3.690   1.363 -1.0012  0.6842 -0.4054
 4294TIP3    H234518   4.199   3.681   1.513 -1.5389  0.1874 -0.3756
 4295TIP3   OH234519   3.245   0.596   0.864  0.2314 -0.1461 -0.4068
 4295TIP3    H134520   3.249   0.500   0.861  0.3880 -0.2644  1.7363
 4295TIP3    H234521   3.318   0.625   0.810  0.2127 -1.2352 -1.0360
 4296TIP3   OH234522   2.056   2.381   1.358 -0.5037 -0.1482 -0.4837
 4296TIP3    H134523   1.994   2.327   1.407  0.8169 -2.0603 -0.8330
 4296TIP3    H234524   2.124   2.320   1.330  1.9162  1.9798  0.4496
 4297TIP3   OH234525   6.332   4.304   0.096 -0.2406 -0.3310 -0.1972
 4297TIP3    H134526   6.276   4.246   0.147  1.2721 -2.2268 -0.5516
 4297TIP3    H234527   6.368   4.248   0.027  2.1490  0.7162  0.0984
 4298TIP3   OH234528   1.061   2.237   1.212  0.4484  0.1976 -0.3541
 4298TIP3    H134529   1.012   2.314   1.183 -1.8410 -0.0279  2.4353
 4298TIP3    H234530   1.136   2.272   1.259  2.8801  0.5469 -4.0537
 4299TIP3   OH234531   2.946   4.502   0.996 -0.2345  0.6819 -0.1357
 4299TIP3    H134532   2.923   4.524   1.086 -0.1412 -2.5520  0.7706
 4299TIP3    H234533   2.989   4.417   1.001  0.9265  0.9437 -3.1274
 4300TIP3   OH234534   1.945   3.352   1.750  0.4015  0.5238 -0.2467
 4300TIP3    H134535   1.900   3.427   1.712 -0.3673  0.4639  0.5274
 4300TIP3    H234536   1.900   3.275   1.714  1.0698  0.4194 -0.8948
 4301TIP3   OH234537   0.559   0.035   2.021 -0.6695  0.5406  1.3727
 4301TIP3    H134538   0.521   0.102   2.078 -1.2617  2.0417 -0.6923
 4301TIP3    H234539   0.483  -0.014   1.988 -0.2900 -0.7040  2.2595
 4302TIP3   OH234540   4.118   4.206   7.105  0.2571 -0.7715  0.3574
 4302TIP3    H134541   4.087   4.249   7.026  0.4342 -3.3826 -1.2656
 4302TIP3    H234542   4.099   4.268   7.175 -1.2242  1.0634 -1.5273
 4303TIP3   OH234543   4.343   4.899   7.535  0.1455 -0.6938  0.6388
 4303TIP3    H134544   4.356   4.833   7.602  1.1443  0.0934  1.2565
 4303TIP3    H234545   4.251   4.924   7.543  0.1500 -0.9160  1.4287
 4304TIP3   OH234546   3.487   2.854   6.165 -0.2824 -0.4358 -0.2572
 4304TIP3    H134547   3.394   2.835   6.163 -0.1894 -1.0851  0.9145
 4304TIP3    H234548   3.494   2.940   6.206 -0.3162 -0.8472  0.6324
 4305TIP3   OH234549   5.415   4.618   7.581  0.1469  0.5720 -0.3435
 4305TIP3    H134550   5.336   4.574   7.612  0.8731 -0.4955  0.0507
 4305TIP3    H234551   5.486   4.555   7.597  0.9802  1.2229 -1.3448
 4306TIP3   OH234552   1.950   2.529   5.917 -0.1038  0.0269  0.1823
 4306TIP3    H134553   1.915   2.441   5.931 -0.4006  0.3897  1.9157
 4306TIP3    H234554   1.879   2.577   5.873 -0.1034 -0.4720 -0.3674
 4307TIP3   OH234555   2.222   4.969   8.336 -0.0522  0.7601 -0.1170
 4307TIP3    H134556   2.224   4.984   8.242  0.0061  1.6430  0.0157
 4307TIP3    H234557   2.313   4.956   8.361 -0.1170  0.0541 -0.2563
 4308TIP3   OH234558   3.341   0.458   7.928  0.1471  0.0665 -0.4981
 4308TIP3    H134559   3.342   0.384   7.867  0.6016  1.1878 -1.8994
 4308TIP3    H234560   3.347   0.417   8.014  2.4527 -1.4781 -1.2804
 4309TIP3   OH234561   6.655   3.234   8.236  0.5675  1.0801  0.3594
 4309TIP3    H134562   6.636   3.276   8.152 -0.3506  1.2707  0.6515
 4309TIP3    H234563   6.638   3.302   8.301  1.6690  1.0582  0.6921
 4310TIP3   OH234564   6.636   4.708   0.549 -0.4537 -0.0327 -0.1137
 4310TIP3    H134565   6.638   4.756   0.632  0.4520  0.9313 -0.6592
 4310TIP3    H234566   6.548   4.723   0.516 -0.8743 -0.5575  0.7428
 4311TIP3   OH234567   3.776   4.702   0.402  0.5129 -0.0602  0.5959
 4311TIP3    H134568   3.837   4.773   0.380  0.8785 -0.5871 -0.0930
 4311TIP3    H234569   3.781   4.641   0.329  0.0049 -0.6803  1.0625
 4312TIP3   OH234570   4.580   2.803   7.272  0.8127  0.4079  0.2362
 4312TIP3    H134571   4.568   2.774   7.362  3.1104  1.9066  1.1049
 4312TIP3    H234572   4.603   2.723   7.224 -2.3807 -0.7560  0.4659
 4313TIP3   OH234573   1.492   3.206   8.032  0.2811 -0.1689 -0.7622
 4313TIP3    H134574   1.483   3.122   8.076 -0.9544  0.2519 -0.1542
 4313TIP3    H234575   1.416   3.257   8.061  1.0500  1.2000 -1.0223
 4314TIP3   OH234576   0.218   5.961   6.798 -0.7256  0.2269 -0.0682
 4314TIP3    H134577   0.192   5.929   6.884 -0.2914  0.5523  0.1927
 4314TIP3    H234578   0.270   5.891   6.761  0.8020  0.8634  0.7817
 4315TIP3   OH234579   5.220   3.196   1.343 -0.1191 -0.3340 -0.1223
 4315TIP3    H134580   5.311   3.211   1.318 -0.5295  0.2347 -1.3649
 4315TIP3    H234581   5.209   3.101   1.340  0.1001 -0.3401 -1.2863
 4316TIP3   OH234582   2.681   2.889   1.232  0.0250 -0.0655 -0.3024
 4316TIP3    H134583   2.733   2.821   1.275  0.8929  1.4473  1.1455
 4316TIP3    H234584   2.618   2.840   1.179  0.7569 -1.9884  0.4908
 4317TIP3   OH234585   5.958   2.149   6.104 -0.2427 -0.1859  0.4447
 4317TIP3    H134586   6.017   2.223   6.090  0.9221 -1.3168 -0.8930
 4317TIP3    H234587   5.881   2.188   6.147  0.2699  1.8039 -0.3298
 4318TIP3   OH234588   0.436   6.017   8.183 -0.2632  0.3376  0.4225
 4318TIP3    H134589   0.428   5.960   8.107  1.3827 -3.3627  2.7759
 4318TIP3    H234590   0.503   6.081   8.158  0.0376 -0.6024 -1.3127
 4319TIP3   OH234591   6.745   5.067   7.969 -0.9051  0.2173  0.0675
 4319TIP3    H134592   6.824   5.035   8.012 -0.4509  0.5973 -0.4794
 4319TIP3    H234593   6.677   5.004   7.995 -0.6615  0.4602  1.3663
 4320TIP3   OH234594   4.179   3.482   0.561 -0.5959  0.6569 -0.2936
 4320TIP3    H134595   4.245   3.423   0.596  0.4392  0.4308 -2.5063
 4320TIP3    H234596   4.097   3.435   0.571 -0.1067 -0.1094  0.2111
 4321TIP3   OH234597   5.523   2.118   1.920 -0.2575  0.0952  0.7878
 4321TIP3    H134598   5.467   2.039   1.919  0.4027 -0.3935  1.5242
 4321TIP3    H234599   5.482   2.174   1.986 -3.2483  2.3048 -2.5677
 4322TIP3   OH234600   4.032   2.363   7.194 -0.0672 -0.4752 -0.8273
 4322TIP3    H134601   4.005   2.431   7.132  1.2365  0.8983  0.0417
 4322TIP3    H234602   4.075   2.297   7.139 -0.7720 -0.2957 -1.6135
 4323TIP3   OH234603   5.083   2.577   0.326 -0.0744 -0.2962  0.2198
 4323TIP3    H134604   4.997   2.609   0.297  0.2527 -0.5685 -1.0977
 4323TIP3    H234605   5.144   2.645   0.299  0.2352 -0.5176  0.3600
 4324TIP3   OH234606   6.196   3.463   1.251 -0.6955 -0.0537 -0.0504
 4324TIP3    H134607   6.248   3.391   1.287 -1.9869 -0.3264  1.3715
 4324TIP3    H234608   6.249   3.541   1.267 -0.2738 -0.4350  0.4471
 4325TIP3   OH234609   2.155   2.880   7.247  0.3692 -0.0592  0.0221
 4325TIP3    H134610   2.155   2.785   7.238 -0.7053 -0.1955  1.2030
 4325TIP3    H234611   2.112   2.897   7.331  0.0995  1.4812 -0.3865
 4326TIP3   OH234612   4.023   2.346   8.710 -0.8477  0.3369 -0.0414
 4326TIP3    H134613   3.967   2.339   8.632  1.0001  0.2258 -1.4426
 4326TIP3    H234614   4.088   2.413   8.686 -0.5420  0.6698  1.6213
 4327TIP3   OH234615   2.285   3.351   8.436  0.0184  0.0837  0.6857
 4327TIP3    H134616   2.355   3.413   8.457 -2.6781  4.0883 -0.9640
 4327TIP3    H234617   2.233   3.347   8.516  0.7823 -1.1017  1.1614
 4328TIP3   OH234618   5.583   2.655   2.297 -0.5869 -0.0255  0.3186
 4328TIP3    H134619   5.580   2.727   2.360 -0.9948 -0.1748  0.4755
 4328TIP3    H234620   5.498   2.658   2.254 -0.1773  0.3024 -0.4887
 4329TIP3   OH234621   1.571   2.121   8.509 -0.7113  0.2965  0.5817
 4329TIP3    H134622   1.605   2.089   8.425  1.1119  0.7277  1.1285
 4329TIP3    H234623   1.552   2.214   8.494  0.1507  0.5112  0.7923
 4330TIP3   OH234624   5.262   0.392   6.997 -0.4409 -0.4984 -0.3680
 4330TIP3    H134625   5.185   0.392   6.940 -0.6001 -1.4115 -0.1735
 4330TIP3    H234626   5.284   0.299   7.006  0.1039 -0.3001  0.3586
 4331TIP3   OH234627   1.757   4.806   7.463 -0.2227  0.0616  0.4774
 4331TIP3    H134628   1.689   4.861   7.424 -1.0282 -1.8571 -0.9961
 4331TIP3    H234629   1.713   4.760   7.534  0.0468  0.2293  0.7528
 4332TIP3   OH234630   1.141   4.000   0.897 -0.0697  0.1558  0.9373
 4332TIP3    H134631   1.080   3.928   0.915 -1.5877  1.0840 -0.2484
 4332TIP3    H234632   1.167   4.032   0.984  0.5339 -1.6802  1.4860
 4333TIP3   OH234633   4.755   0.031   1.190 -0.0577 -0.2044  0.6157
 4333TIP3    H134634   4.833   0.087   1.191 -1.2332  1.6167  2.9096
 4333TIP3    H234635   4.789  -0.058   1.186  2.1499  0.5345  1.2281
 4334TIP3   OH234636   3.585   2.177   6.851  0.2507  0.5245  0.0384
 4334TIP3    H134637   3.513   2.200   6.793 -0.6677  0.2060  1.0353
 4334TIP3    H234638   3.565   2.090   6.883  2.1787 -0.4950 -1.3277
 4335TIP3   OH234639   1.646   4.326   8.524 -0.5471  0.1705  0.4311
 4335TIP3    H134640   1.717   4.263   8.514 -1.7559 -1.2678  0.5478
 4335TIP3    H234641   1.599   4.324   8.441 -1.2500  0.0946  0.8228
 4336TIP3   OH234642   4.563   3.062   7.499 -0.5324 -0.4886 -0.3447
 4336TIP3    H134643   4.571   2.974   7.461 -0.5585 -1.5458  1.9231
 4336TIP3    H234644   4.478   3.093   7.469 -0.2324 -0.9193 -1.7357
 4337TIP3   OH234645   5.926   5.126   6.658  0.5271  0.3484  0.6099
 4337TIP3    H134646   5.878   5.200   6.696 -0.7267 -0.1624  0.0695
 4337TIP3    H234647   5.878   5.049   6.686 -0.6157 -0.0523 -2.1193
 4338TIP3   OH234648   5.504   2.695   8.578  0.2817  0.2348 -0.0426
 4338TIP3    H134649   5.569   2.765   8.585  0.7687 -0.1270 -0.8014
 4338TIP3    H234650   5.521   2.639   8.654  1.2341 -0.1580 -0.5349
 4339TIP3   OH234651   3.562   2.556   6.795  0.1961  0.0268 -0.7643
 4339TIP3    H134652   3.502   2.630   6.804  0.0669 -0.2271  0.7657
 4339TIP3    H234653   3.506   2.479   6.801  0.5101 -0.2056 -0.7936
 4340TIP3   OH234654   5.622   3.172   1.993  0.2050 -0.0862  0.0101
 4340TIP3    H134655   5.611   3.077   1.998  0.2168 -0.1612 -1.2068
 4340TIP3    H234656   5.590   3.204   2.078 -0.0055 -1.1455  0.3503
 4341TIP3   OH234657   2.388   2.004   6.028 -0.2589 -0.3323  0.2448
 4341TIP3    H134658   2.355   1.915   6.012 -0.8291  0.2531 -2.0810
 4341TIP3    H234659   2.444   2.023   5.953  0.1673  1.1549  0.9062
 4342TIP3   OH234660   3.457   6.814   7.463  0.4420 -0.2131 -0.1301
 4342TIP3    H134661   3.460   6.815   7.368  1.7980 -1.1330 -0.1273
 4342TIP3    H234662   3.497   6.731   7.488  0.7853  0.3290  1.2539
 4343TIP3   OH234663   1.343   1.282   5.647  0.1672  0.3300  0.1665
 4343TIP3    H134664   1.388   1.364   5.629 -0.2380  0.2188 -1.4759
 4343TIP3    H234665   1.402   1.235   5.707  0.5089  1.6864  0.9431
 4344TIP3   OH234666   0.317   6.190   0.869  0.3575 -0.3681 -0.2193
 4344TIP3    H134667   0.275   6.252   0.929  0.2987 -0.5877 -0.0338
 4344TIP3    H234668   0.344   6.118   0.925 -0.0421 -0.7512 -0.5163
 4345TIP3   OH234669   4.154   1.641   7.038 -0.7176 -0.5837  0.1285
 4345TIP3    H134670   4.094   1.653   7.112 -0.3939  2.4028  0.0264
 4345TIP3    H234671   4.241   1.650   7.077 -0.4777 -0.7719 -0.3560
 4346TIP3   OH234672   2.151   4.395   7.229 -0.3920  0.3931  0.3459
 4346TIP3    H134673   2.180   4.442   7.307  0.7718 -0.9002  0.7188
 4346TIP3    H234674   2.150   4.303   7.255  0.8409 -0.1578 -1.3833
 4347TIP3   OH234675   5.629   0.540   6.798 -0.3504  0.2096  0.4205
 4347TIP3    H134676   5.688   0.575   6.866 -0.6696  2.1870 -0.2385
 4347TIP3    H234677   5.547   0.524   6.845  0.2037 -1.0299  1.0164
 4348TIP3   OH234678   2.802   4.121   7.267 -0.2966 -0.4786 -0.0313
 4348TIP3    H134679   2.858   4.197   7.279 -0.6416 -0.4561  1.6272
 4348TIP3    H234680   2.715   4.157   7.249  0.0733 -0.5159 -2.1606
 4349TIP3   OH234681   3.977   5.872   0.477  0.2955  0.7011 -0.4117
 4349TIP3    H134682   3.996   5.808   0.408 -0.2366 -0.2252  0.2668
 4349TIP3    H234683   4.047   5.936   0.471  1.7882 -0.8144 -0.0931
 4350TIP3   OH234684   6.568   1.862   1.414 -0.3869 -0.7030  0.2386
 4350TIP3    H134685   6.599   1.952   1.424  0.5416 -1.0164  0.2697
 4350TIP3    H234686   6.549   1.832   1.503  0.0577 -0.7961  0.3027
 4351TIP3   OH234687   6.112   0.701   1.456 -0.4347  0.6602 -0.0472
 4351TIP3    H134688   6.178   0.738   1.516  0.7148 -0.0979 -0.8070
 4351TIP3    H234689   6.035   0.756   1.469  0.6175  2.1270  0.2375
 4352TIP3   OH234690   1.559   5.664   7.088  0.3092 -0.2333  0.1561
 4352TIP3    H134691   1.580   5.678   7.180 -0.9075 -0.4628  0.4835
 4352TIP3    H234692   1.512   5.581   7.087  0.4414 -0.3046 -0.6950
 4353TIP3   OH234693   2.558   5.072   1.314  0.3796  0.5051  0.5231
 4353TIP3    H134694   2.511   5.043   1.236 -0.6907 -2.1665  2.0374
 4353TIP3    H234695   2.527   5.160   1.330 -0.3599  0.6171 -1.3053
 4354TIP3   OH234696   2.724   2.323   6.697 -0.0826 -0.5394 -0.4815
 4354TIP3    H134697   2.669   2.261   6.745 -0.6867  2.1199  2.6030
 4354TIP3    H234698   2.812   2.311   6.734 -0.4110  1.0320  0.9430
 4355TIP3   OH234699   3.311   5.748   7.907  0.2696 -0.8704  0.3170
 4355TIP3    H134700   3.259   5.786   7.837  1.3306  1.2921  0.6170
 4355TIP3    H234701   3.364   5.681   7.865 -0.5487 -0.9982 -0.5392
 4356TIP3   OH234702   6.567   4.928   0.774 -0.5517  0.2475 -0.2292
 4356TIP3    H134703   6.486   4.977   0.787 -1.1226 -0.1818 -1.8812
 4356TIP3    H234704   6.550   4.843   0.816 -1.8959 -0.6855 -2.4638
 4357TIP3   OH234705   3.981   6.393   6.749  0.3507  0.7379  0.3629
 4357TIP3    H134706   3.954   6.449   6.822 -0.2297  1.6560 -0.5246
 4357TIP3    H234707   4.019   6.454   6.685 -1.3285  0.3268 -1.1183
 4358TIP3   OH234708   6.305   2.799   8.438  0.2084 -0.1792 -0.1333
 4358TIP3    H134709   6.349   2.880   8.413  0.1424 -0.6807 -1.9861
 4358TIP3    H234710   6.344   2.731   8.382  1.1281 -1.7128  2.1795
 4359TIP3   OH234711   4.158   6.301   7.662  0.1204  0.2676  0.2648
 4359TIP3    H134712   4.079   6.255   7.634  1.0196 -0.7310 -0.7571
 4359TIP3    H234713   4.207   6.236   7.712  1.1830  0.2346 -0.7776
 4360TIP3   OH234714   6.461   2.924   8.741  0.0486 -0.2551 -0.4699
 4360TIP3    H134715   6.389   2.862   8.736  1.7826 -2.3079 -2.0825
 4360TIP3    H234716   6.465   2.963   8.653 -0.3122  1.3387  0.1971
 4361TIP3   OH234717   0.976   1.621   7.996 -0.2672 -0.5991 -0.4179
 4361TIP3    H134718   1.029   1.679   8.051 -1.2268  0.0908 -0.2004
 4361TIP3    H234719   1.021   1.536   8.001  0.6340 -0.1172  0.0101
 4362TIP3   OH234720   6.810   5.563   1.232  0.0933 -0.0051 -0.3265
 4362TIP3    H134721   6.718   5.586   1.219 -0.1483 -1.1680 -0.8233
 4362TIP3    H234722   6.859   5.630   1.183 -0.5289  0.1651 -0.7221
 4363TIP3   OH234723   5.014   3.810   6.100  0.0405  0.7123  0.2053
 4363TIP3    H134724   5.071   3.765   6.037  0.7347  1.1522  0.5046
 4363TIP3    H234725   5.043   3.902   6.097 -0.8368  0.9936  0.1682
 4364TIP3   OH234726   6.088   5.418   7.666  0.2538  0.6993 -0.2029
 4364TIP3    H134727   6.177   5.384   7.680  0.8130  1.7662 -1.0188
 4364TIP3    H234728   6.038   5.342   7.637  1.2466  0.3575 -1.0824
 4365TIP3   OH234729   1.403   3.363   8.463 -0.4506  0.5849  0.0737
 4365TIP3    H134730   1.405   3.458   8.459 -0.2197  0.6799  1.8762
 4365TIP3    H234731   1.310   3.340   8.466 -0.5172  0.7100 -0.7437
 4366TIP3   OH234732   0.101   0.290   0.228  0.2806  0.4047  0.1989
 4366TIP3    H134733   0.058   0.253   0.305 -0.1190  2.5221  1.0666
 4366TIP3    H234734   0.147   0.216   0.188 -0.7376 -1.0588  1.6077
 4367TIP3   OH234735   5.587   0.045   7.525  0.7539  0.4392  0.1736
 4367TIP3    H134736   5.544  -0.033   7.560  0.8834 -0.8375 -2.2921
 4367TIP3    H234737   5.567   0.114   7.588 -1.6839 -0.9641  1.0613
 4368TIP3   OH234738   6.581   6.768   0.639 -0.0153  0.0566  0.2479
 4368TIP3    H134739   6.603   6.853   0.675 -0.4932  0.2698  0.0435
 4368TIP3    H234740   6.536   6.722   0.710  0.3980 -0.0895  0.4140
 4369TIP3   OH234741   6.700   4.450   1.877  0.4061  0.1707 -0.4428
 4369TIP3    H134742   6.740   4.372   1.916  1.5920  0.7396 -0.4829
 4369TIP3    H234743   6.774   4.502   1.846 -0.3829  1.1829 -0.6742
 4370TIP3   OH234744   1.970   3.251   0.086  0.3513 -0.0878  0.0313
 4370TIP3    H134745   2.050   3.203   0.066 -0.0226 -1.2699  1.2331
 4370TIP3    H234746   1.988   3.340   0.057  2.5264 -0.0449  1.2766
 4371TIP3   OH234747   6.414   3.630   0.574  0.2953 -0.4356 -0.3491
 4371TIP3    H134748   6.437   3.602   0.663  0.1128 -2.4983 -0.8879
 4371TIP3    H234749   6.487   3.685   0.546  1.1197 -1.0456  0.5340
 4372TIP3   OH234750   2.890   4.958   8.724 -0.0614 -0.3582 -0.2655
 4372TIP3    H134751   2.847   5.039   8.750  0.9271 -0.0089  0.3544
 4372TIP3    H234752   2.980   4.983   8.706  0.5148 -1.4545  0.8923
 4373TIP3   OH234753   6.125   5.783   6.809 -0.2938 -0.3071 -0.2708
 4373TIP3    H134754   6.159   5.730   6.737  0.2881 -0.4924  0.1262
 4373TIP3    H234755   6.087   5.719   6.869 -0.9868 -0.1338 -0.5225
 4374TIP3   OH234756   4.002   6.087   7.262  0.4058 -0.0538 -0.3517
 4374TIP3    H134757   3.917   6.061   7.296  0.7213  0.2559  0.7228
 4374TIP3    H234758   4.065   6.031   7.307  0.7785 -0.2990 -1.1532
 4375TIP3   OH234759   6.338   3.266   1.657 -0.4474  0.5880  0.9322
 4375TIP3    H134760   6.425   3.238   1.629 -0.6862 -0.3410  1.0737
 4375TIP3    H234761   6.315   3.337   1.598  1.2824  2.3323  2.2063
 4376TIP3   OH234762   2.898   4.016   0.145 -0.0655  0.4911  0.4455
 4376TIP3    H134763   2.963   4.077   0.179  0.3610  0.2892 -0.0041
 4376TIP3    H234764   2.879   3.958   0.219  1.7401 -0.6987  0.0471
 4377TIP3   OH234765   1.489   1.364   8.652 -0.3510 -0.1216 -0.2080
 4377TIP3    H134766   1.480   1.284   8.702 -1.9645 -0.5187 -1.0620
 4377TIP3    H234767   1.399   1.390   8.631 -0.1098  3.2023  1.9838
 4378TIP3   OH234768   1.074   5.774   7.862  0.0716 -0.0532  0.0514
 4378TIP3    H134769   1.008   5.838   7.836  0.3991  0.3317  0.1666
 4378TIP3    H234770   1.132   5.766   7.786 -0.5025 -0.9196 -0.3164
 4379TIP3   OH234771   0.781   0.048   0.339 -0.3870  0.0101  0.0056
 4379TIP3    H134772   0.855  -0.010   0.321 -1.0948 -0.7844 -0.4019
 4379TIP3    H234773   0.804   0.130   0.296  0.7573  0.1473  0.8247
 4380TIP3   OH234774   1.051   3.726   0.921  0.5685 -0.3659 -0.1441
 4380TIP3    H134775   0.972   3.716   0.976 -0.5501 -2.0921 -1.9331
 4380TIP3    H234776   1.114   3.666   0.960  0.9096  0.7398  1.0741
 4381TIP3   OH234777   3.328   0.341   0.839  0.6160  0.3783 -0.1535
 4381TIP3    H134778   3.265   0.283   0.798  2.8625 -1.5130 -1.1789
 4381TIP3    H234779   3.322   0.320   0.933 -0.3605  0.3510 -0.2136
 4382TIP3   OH234780   3.848   1.078   8.461 -0.3147 -0.3210 -0.1546
 4382TIP3    H134781   3.801   1.001   8.494  0.4703 -0.0379  1.7302
 4382TIP3    H234782   3.832   1.146   8.527  0.3376  0.6613 -0.9777
 4383TIP3   OH234783   2.223   2.211   7.981 -0.0610  0.6652  0.2091
 4383TIP3    H134784   2.170   2.290   7.988  0.5329  1.0282  0.6610
 4383TIP3    H234785   2.161   2.140   7.999 -0.4444  1.0673  0.5131
 4384TIP3   OH234786   5.947   2.251   7.944 -0.7278 -0.0143  0.3469
 4384TIP3    H134787   5.965   2.235   7.851 -0.3876  1.4481  0.1348
 4384TIP3    H234788   5.949   2.347   7.953  2.3295 -0.1068  2.4177
 4385TIP3   OH234789   0.773   1.522   0.931 -0.0310  0.0608  0.2300
 4385TIP3    H134790   0.848   1.572   0.964  1.2322 -1.0114 -0.9027
 4385TIP3    H234791   0.810   1.465   0.864 -1.9661 -0.1249 -0.7492
 4386TIP3   OH234792   1.738   6.722   0.448  0.6639 -0.8605  0.2749
 4386TIP3    H134793   1.681   6.646   0.442  0.2212 -0.5118 -0.0050
 4386TIP3    H234794   1.824   6.689   0.424  0.8886 -1.7119  2.0661
 4387TIP3   OH234795   4.054   0.084   2.563 -0.3519 -0.4145  0.2259
 4387TIP3    H134796   4.015   0.153   2.618  1.0365  0.2617  0.4239
 4387TIP3    H234797   4.077   0.129   2.481 -0.8486 -1.0172 -0.2502
 4388TIP3   OH234798   1.373   5.788   0.686 -0.1355  0.3228  0.2865
 4388TIP3    H134799   1.378   5.797   0.591 -0.3695 -0.2585  0.2161
 4388TIP3    H234800   1.395   5.697   0.703 -2.2805 -0.2001  0.5910
 4389TIP3   OH234801   6.183   4.598   7.440  0.2080  0.2698 -0.2801
 4389TIP3    H134802   6.155   4.620   7.351  2.6820  0.0618 -1.1972
 4389TIP3    H234803   6.128   4.525   7.466  0.0835 -0.2909 -2.0343
 4390TIP3   OH234804   5.305   3.124   1.943  0.0177 -0.0991  0.1446
 4390TIP3    H134805   5.316   3.033   1.967  1.4022  0.7405  3.1084
 4390TIP3    H234806   5.302   3.171   2.026  1.8672  2.8324 -1.2776
 4391TIP3   OH234807   0.947   6.003   6.196  0.0025  0.5177 -0.0435
 4391TIP3    H134808   1.038   6.016   6.171  0.7426 -1.3686  1.4175
 4391TIP3    H234809   0.913   5.942   6.129 -0.2008  1.2095 -0.5800
 4392TIP3   OH234810   2.507   3.494   8.568  0.1545 -0.0376 -0.1008
 4392TIP3    H134811   2.509   3.526   8.658  1.7006  0.5962 -0.3242
 4392TIP3    H234812   2.582   3.433   8.564 -0.6840 -1.0678 -0.6202
 4393TIP3   OH234813   0.678   6.560   6.248 -0.5541 -0.7674  0.3098
 4393TIP3    H134814   0.769   6.541   6.226 -0.1967  0.8019  0.3072
 4393TIP3    H234815   0.627   6.497   6.196  0.5165 -1.6853  0.3406
 4394TIP3   OH234816   0.322   4.292   8.268 -0.4812 -0.6376  0.1291
 4394TIP3    H134817   0.279   4.324   8.347 -0.1842 -0.2562  0.1419
 4394TIP3    H234818   0.411   4.270   8.296 -0.6165 -1.2819  0.0729
 4395TIP3   OH234819   1.524   3.586   8.082 -0.0944 -0.5411 -0.0047
 4395TIP3    H134820   1.603   3.618   8.037 -0.7507 -0.7368 -1.3545
 4395TIP3    H234821   1.557   3.520   8.143  0.6208 -2.6018 -2.4256
 4396TIP3   OH234822   2.092   6.121   7.930  0.0045  0.6137  0.0074
 4396TIP3    H134823   2.081   6.114   8.025  2.7570 -1.3449  0.2931
 4396TIP3    H234824   2.029   6.058   7.894 -0.0283  0.2735  0.6383
 4397TIP3   OH234825   5.113   3.721   1.319 -0.4132  0.1383 -0.4040
 4397TIP3    H134826   5.146   3.637   1.351  0.1548 -0.2925 -2.0300
 4397TIP3    H234827   5.052   3.698   1.249 -1.0053  1.0720 -0.2208
 4398TIP3   OH234828   0.865   1.732   5.942  0.0772 -0.1803 -0.1831
 4398TIP3    H134829   0.871   1.823   5.914  0.3539 -0.2185 -0.2515
 4398TIP3    H234830   0.795   1.731   6.008  0.8941  0.3103  0.7261
 4399TIP3   OH234831   6.361   4.799   6.488 -0.3407  0.2039  0.1804
 4399TIP3    H134832   6.421   4.832   6.421  1.3599 -0.5381  1.2690
 4399TIP3    H234833   6.325   4.719   6.450 -0.4702  0.5325 -0.4007
 4400TIP3   OH234834   6.370   0.724   7.467 -0.2230  0.7477  0.2035
 4400TIP3    H134835   6.417   0.795   7.423  0.0016 -0.0537 -0.9152
 4400TIP3    H234836   6.283   0.723   7.426 -0.4744  0.8452  0.7318
 4401TIP3   OH234837   4.184   3.649   5.582  0.1280 -0.4622  0.0359
 4401TIP3    H134838   4.136   3.569   5.558 -0.1883 -0.0862 -0.5805
 4401TIP3    H234839   4.260   3.617   5.631  0.4938 -1.2009 -0.9872
 4402TIP3   OH234840   3.551   3.637   7.714 -0.2297 -0.0669 -0.2463
 4402TIP3    H134841   3.462   3.620   7.745 -0.7284  0.0693 -1.5394
 4402TIP3    H234842   3.603   3.646   7.793 -1.2793 -0.6385  0.5260
 4403TIP3   OH234843   0.006   6.729   7.166  0.0924 -0.0594 -0.6762
 4403TIP3    H134844  -0.064   6.667   7.187  0.6625 -0.2161  0.8226
 4403TIP3    H234845  -0.025   6.813   7.201 -0.4818  0.4619 -2.3186
 4404TIP3   OH234846   1.163   4.921   7.200  0.2830  0.7569 -0.3886
 4404TIP3    H134847   1.075   4.955   7.184 -1.0456 -2.1035  0.0579
 4404TIP3    H234848   1.189   4.882   7.116  0.0939 -0.4167  0.0797
 4405TIP3   OH234849   3.055   4.040   7.904 -0.3706  0.7443  0.1862
 4405TIP3    H134850   2.988   4.034   7.836 -0.5529 -0.0599  0.4189
 4405TIP3    H234851   3.055   4.132   7.930  1.1879  1.5522 -2.3292
 4406TIP3   OH234852   5.197   1.967   7.476 -0.2204 -0.4293 -0.5599
 4406TIP3    H134853   5.217   2.022   7.400 -2.8462  2.0531  0.3523
 4406TIP3    H234854   5.271   1.907   7.483  1.1717  0.7092 -3.7097
 4407TIP3   OH234855   0.821   2.220   6.430 -0.3081  0.2233 -0.2325
 4407TIP3    H134856   0.771   2.294   6.397  0.9802  0.9682 -0.5777
 4407TIP3    H234857   0.820   2.156   6.359 -1.3741 -0.0903  0.0439
 4408TIP3   OH234858   3.814   0.995   0.125  0.3235 -0.6299 -0.0470
 4408TIP3    H134859   3.753   0.921   0.124  0.0834 -0.4329 -0.3968
 4408TIP3    H234860   3.892   0.962   0.170  0.2672 -1.1344 -0.3144
 4409TIP3   OH234861   2.735   3.399   0.187  0.4130  0.2148 -0.4688
 4409TIP3    H134862   2.758   3.367   0.099  0.7429 -1.1847  0.0976
 4409TIP3    H234863   2.659   3.455   0.172  0.3127 -0.1902 -1.6307
 4410TIP3   OH234864   5.632   0.218   0.614 -0.1825 -0.2984  0.4734
 4410TIP3    H134865   5.568   0.285   0.591  1.2033  1.0153  0.2714
 4410TIP3    H234866   5.671   0.250   0.696  1.1249 -0.3629 -0.0969
 4411TIP3   OH234867   6.020   0.320   8.570 -0.3830 -1.0498 -0.0234
 4411TIP3    H134868   5.957   0.297   8.502  0.1128 -2.4987 -0.0308
 4411TIP3    H234869   5.981   0.394   8.615 -0.0972  0.9357 -2.7723
 4412TIP3   OH234870   6.344   5.538   6.050 -0.1454 -0.1084 -0.0932
 4412TIP3    H134871   6.257   5.524   6.086 -0.2996 -0.8243 -0.7183
 4412TIP3    H234872   6.403   5.495   6.112 -0.2938 -0.2067 -0.0205
 4413TIP3   OH234873   1.250   4.689   0.145 -0.2582 -0.0329 -0.8318
 4413TIP3    H134874   1.218   4.646   0.065  1.6677 -1.0869 -1.0966
 4413TIP3    H234875   1.176   4.742   0.175 -0.9713  0.5883 -3.4435
 4414TIP3   OH234876   4.756   4.104   2.339  0.3968 -0.2152  0.3385
 4414TIP3    H134877   4.706   4.023   2.335  0.2129 -0.0657 -1.3422
 4414TIP3    H234878   4.846   4.077   2.355 -0.0257 -0.5604  2.2780
 4415TIP3   OH234879   5.251   5.697   7.906 -0.1055 -0.2476 -0.2901
 4415TIP3    H134880   5.165   5.728   7.934  0.3165  0.8929 -0.2362
 4415TIP3    H234881   5.257   5.722   7.814  0.5400  0.5124 -0.0468
 4416TIP3   OH234882   6.767   3.668   8.491  0.0863  0.2146  0.0422
 4416TIP3    H134883   6.845   3.669   8.546 -0.3192  0.3981  0.6254
 4416TIP3    H234884   6.701   3.715   8.542 -0.3662  0.1861 -0.5031
 4417TIP3   OH234885   4.941   6.871   0.919 -0.2070  0.1193 -0.0444
 4417TIP3    H134886   4.985   6.825   0.990  0.4970 -2.2585 -1.8804
 4417TIP3    H234887   4.907   6.951   0.959 -0.1512 -1.2563  2.9977
 4418TIP3   OH234888   5.703   3.316   1.778  0.1010  0.1438 -0.0531
 4418TIP3    H134889   5.731   3.405   1.799  1.0561 -0.3243  0.7083
 4418TIP3    H234890   5.684   3.276   1.863 -2.7516  0.3611 -0.5046
 4419TIP3   OH234891   1.676   6.733   7.429 -0.1101 -0.2913  0.2126
 4419TIP3    H134892   1.626   6.697   7.503  2.2444 -1.3945  1.3886
 4419TIP3    H234893   1.684   6.660   7.368  1.1199 -0.5226  0.6372
 4420TIP3   OH234894   2.878   4.218   7.527 -0.7133 -0.3349 -0.2404
 4420TIP3    H134895   2.918   4.297   7.564  0.4280 -1.0002 -0.0132
 4420TIP3    H234896   2.893   4.227   7.433  2.2250 -1.6844 -0.0253
 4421TIP3   OH234897   5.782   4.233   8.422 -0.0391  0.9498 -0.1045
 4421TIP3    H134898   5.855   4.274   8.376  0.3197  0.3442 -0.0871
 4421TIP3    H234899   5.708   4.238   8.361  0.1180  1.2134 -0.2725
 4422TIP3   OH234900   2.387   1.820   1.713  0.6910 -0.4071  0.1898
 4422TIP3    H134901   2.409   1.780   1.797  0.4416 -1.2171 -0.1204
 4422TIP3    H234902   2.347   1.904   1.736  0.0735 -0.8902  0.9106
 4423TIP3   OH234903   3.987   3.810   8.275  0.4929  0.5163  0.1929
 4423TIP3    H134904   4.002   3.904   8.287 -0.3437  0.5917  0.6815
 4423TIP3    H234905   3.950   3.781   8.358 -1.4255  0.2098 -0.7110
 4424TIP3   OH234906   1.065   6.073   0.171 -0.3701 -0.5283  0.1947
 4424TIP3    H134907   0.994   6.095   0.110 -0.9437  0.4555  1.1797
 4424TIP3    H234908   1.121   6.151   0.172 -0.2237 -0.6331  0.7036
 4425TIP3   OH234909   2.201   0.437   1.781  0.2026  0.4667 -0.0565
 4425TIP3    H134910   2.128   0.406   1.727 -0.2057  0.4201  0.5061
 4425TIP3    H234911   2.260   0.480   1.720  0.5047 -0.9128 -0.7831
 4426TIP3   OH234912   0.117   4.790   0.400 -0.2660 -0.0192  0.3167
 4426TIP3    H134913   0.196   4.823   0.358  0.7260 -2.9470 -0.3505
 4426TIP3    H234914   0.133   4.802   0.494  0.4405  0.5288  0.1323
 4427TIP3   OH234915   2.164   6.252   1.269  0.0508  0.1926  0.3935
 4427TIP3    H134916   2.259   6.252   1.280  0.3284  1.7445 -1.4701
 4427TIP3    H234917   2.141   6.159   1.268  1.3690 -0.2029  1.9385
 4428TIP3   OH234918   3.135   2.572   8.045 -0.2461 -0.1257 -0.9851
 4428TIP3    H134919   3.127   2.637   7.976 -0.0430 -0.0964 -0.9820
 4428TIP3    H234920   3.206   2.605   8.101  0.5292 -0.8296 -1.5199
 4429TIP3   OH234921   4.296   2.867   6.260 -0.3643 -0.3125 -0.1839
 4429TIP3    H134922   4.322   2.842   6.171 -0.8558 -0.2339 -0.3535
 4429TIP3    H234923   4.202   2.883   6.254 -0.7862 -2.1817  0.7801
 4430TIP3   OH234924   2.335   6.652   0.596 -0.2239  0.1364 -0.4112
 4430TIP3    H134925   2.371   6.569   0.566 -0.1560 -0.0629  0.2031
 4430TIP3    H234926   2.266   6.628   0.658 -0.2178  0.5297 -0.2442
 4431TIP3   OH234927   6.528   0.290   8.560 -0.4084  0.1168 -0.5627
 4431TIP3    H134928   6.543   0.380   8.590  1.9544 -0.4897  0.3665
 4431TIP3    H234929   6.465   0.254   8.622 -0.3493  0.7522 -0.1242
 4432TIP3   OH234930   0.048   2.909   1.771  0.5336 -0.2426  0.4294
 4432TIP3    H134931  -0.015   2.843   1.741  1.7509 -0.8799 -0.7974
 4432TIP3    H234932   0.005   2.949   1.847 -1.6599 -0.1687 -0.7507
 4433TIP3   OH234933   4.310   6.217   0.712 -0.0060 -0.7834 -0.0847
 4433TIP3    H134934   4.290   6.308   0.733 -0.5118 -1.0872  0.8076
 4433TIP3    H234935   4.286   6.168   0.790  0.6373 -1.6450 -0.4037
 4434TIP3   OH234936   2.750   0.991   2.044  0.1064  0.1939 -0.6031
 4434TIP3    H134937   2.763   0.965   2.135  0.2080  0.4904 -0.5320
 4434TIP3    H234938   2.739   0.908   1.997  0.0332  0.0410 -0.3200
 4435TIP3   OH234939   5.903   2.222   0.560  0.5671 -0.4879 -0.0441
 4435TIP3    H134940   5.908   2.173   0.642  0.7109  0.5580  0.5840
 4435TIP3    H234941   5.814   2.257   0.558  0.6682 -0.2366 -0.1830
 4436TIP3   OH234942   5.471   6.277   6.940 -0.8091  0.1880 -0.1682
 4436TIP3    H134943   5.399   6.247   6.884  0.0772 -1.4300 -0.5035
 4436TIP3    H234944   5.437   6.268   7.029 -1.0064 -0.6583 -0.3207
 4437TIP3   OH234945   6.599   0.309   6.675 -0.6900 -0.4930  0.0825
 4437TIP3    H134946   6.682   0.335   6.714 -1.2922  0.0730  1.0312
 4437TIP3    H234947   6.620   0.288   6.584  0.3425  0.4576  0.0884
 4438TIP3   OH234948   0.051   5.523   8.014 -0.0559  0.2907 -0.5181
 4438TIP3    H134949   0.093   5.592   8.065 -0.8647  0.2966  0.1705
 4438TIP3    H234950   0.003   5.570   7.945 -0.6588  0.4422 -0.0125
 4439TIP3   OH234951   1.029   2.736   7.763 -0.2436 -0.0540  0.1242
 4439TIP3    H134952   0.951   2.777   7.798  0.4424  0.7139  0.7959
 4439TIP3    H234953   1.029   2.761   7.670 -0.8519 -0.1610  0.0932
 4440TIP3   OH234954   4.683   6.382   0.911 -0.5423  0.2346  0.5726
 4440TIP3    H134955   4.753   6.319   0.931  0.1522  0.9909  0.5852
 4440TIP3    H234956   4.641   6.347   0.833  0.3773  0.1688  0.0839
 4441TIP3   OH234957   3.640   1.263   7.056 -0.6033 -0.8203 -0.2916
 4441TIP3    H134958   3.557   1.225   7.086  1.3196 -4.0528  1.4234
 4441TIP3    H234959   3.678   1.196   6.999  0.9859  0.4539 -0.7870
 4442TIP3   OH234960   6.107   0.858   0.414  0.2716  0.1468  0.6677
 4442TIP3    H134961   6.184   0.850   0.358 -1.7796 -3.7756 -1.9882
 4442TIP3    H234962   6.137   0.828   0.500  1.9593 -0.0190  0.0543
 4443TIP3   OH234963   5.865   5.389   1.205  0.1087 -0.0438  0.2010
 4443TIP3    H134964   5.890   5.481   1.193  0.8693 -0.2677  0.0134
 4443TIP3    H234965   5.851   5.380   1.299  0.3669  0.1884  0.2649
 4444TIP3   OH234966   2.578   5.224   7.381  0.2622 -0.0160  0.0938
 4444TIP3    H134967   2.571   5.314   7.348 -0.3900  0.2281  0.8954
 4444TIP3    H234968   2.491   5.187   7.370  0.5321 -0.5673 -0.2522
 4445TIP3   OH234969   5.628   3.150   7.643 -0.0522  0.2201 -0.1262
 4445TIP3    H134970   5.647   3.205   7.719 -0.3282  0.3314 -0.1373
 4445TIP3    H234971   5.574   3.078   7.678 -1.3829  1.0234 -0.4497
 4446TIP3   OH234972   4.324   4.761   2.000 -0.2316 -0.2335  0.1806
 4446TIP3    H134973   4.267   4.738   1.927 -0.9499  0.3706  0.5354
 4446TIP3    H234974   4.328   4.682   2.054 -1.2237 -0.1047  0.4559
 4447TIP3   OH234975   1.715   0.260   8.129 -0.9713 -0.3230  0.4664
 4447TIP3    H134976   1.758   0.188   8.176  1.5941  1.4493  1.0376
 4447TIP3    H234977   1.757   0.261   8.043 -1.4924  0.0606  0.2110
 4448TIP3   OH234978   3.561   4.517   7.754 -0.7574  0.2856 -0.6980
 4448TIP3    H134979   3.616   4.453   7.708 -0.0132  0.9729 -0.7884
 4448TIP3    H234980   3.577   4.499   7.847 -0.2720  0.5592 -0.7228
 4449TIP3   OH234981   6.499   6.614   1.118  0.0795  0.1422  0.2217
 4449TIP3    H134982   6.454   6.532   1.139  0.5271 -0.2836 -0.4399
 4449TIP3    H234983   6.585   6.606   1.161  0.3160  0.0403 -0.2635
 4450TIP3   OH234984   1.497   2.243   6.989  0.4929 -0.1333 -0.0667
 4450TIP3    H134985   1.409   2.266   6.960  1.0944  1.1786 -0.9193
 4450TIP3    H234986   1.541   2.327   7.000  0.8438 -0.5837  3.0476
 4451TIP3   OH234987   0.093   1.827   7.961 -0.0738  0.0898 -0.1595
 4451TIP3    H134988   0.077   1.783   7.877  0.4793 -0.3558 -0.0384
 4451TIP3    H234989   0.121   1.758   8.020  0.9923  0.6207 -0.0131
 4452TIP3   OH234990   4.908   5.789   0.118  0.0775  0.0745  0.3504
 4452TIP3    H134991   4.867   5.874   0.129 -1.7376 -0.7793  0.5859
 4452TIP3    H234992   4.910   5.752   0.207  2.7441  0.6452  0.6056
 4453TIP3   OH234993   3.605   1.731   1.940  0.1062 -0.0685 -0.0038
 4453TIP3    H134994   3.550   1.809   1.949  0.2456  0.1081 -0.6080
 4453TIP3    H234995   3.623   1.703   2.029 -1.1173 -0.2321  0.2045
 4454TIP3   OH234996   5.133   4.438   7.673 -0.5036 -0.9721 -0.2037
 4454TIP3    H134997   5.120   4.519   7.723 -1.3614 -1.6697  0.7312
 4454TIP3    H234998   5.155   4.372   7.738 -0.2148 -1.5937 -0.9124
 4455TIP3   OH234999   2.881   0.868   8.158 -0.1001  0.5981 -0.4270
 4455TIP3    H135000   2.840   0.936   8.212 -0.0421 -0.7372  1.4197
 4455TIP3    H235001   2.808   0.831   8.107 -0.1512  1.9136 -1.3432
 4456TIP3   OH235002   0.251   6.607   7.249 -0.3840 -0.1569 -0.2856
 4456TIP3    H135003   0.185   6.667   7.214  1.2382  1.2613 -1.0449
 4456TIP3    H235004   0.221   6.588   7.338 -2.4645 -0.5973 -1.0087
 4457TIP3   OH235005   5.809   2.072   7.132  0.0565  0.0709  0.3776
 4457TIP3    H135006   5.730   2.073   7.187 -0.9667  0.8648 -1.0202
 4457TIP3    H235007   5.857   1.994   7.160 -2.3302 -1.7331 -0.2018
 4458TIP3   OH235008   4.437   4.311   1.437 -0.1072 -0.0706  0.0982
 4458TIP3    H135009   4.530   4.335   1.436 -0.0654 -0.2352  0.0450
 4458TIP3    H235010   4.431   4.234   1.381  0.0553 -1.2839  1.6943
 4459TIP3   OH235011   0.916   0.395   1.412  0.1152  0.0365 -0.3137
 4459TIP3    H135012   0.983   0.381   1.479  1.2709  0.8457 -1.2662
 4459TIP3    H235013   0.834   0.372   1.455  0.9549 -0.5778  1.0107
 4460TIP3   OH235014   3.813   6.738   7.628  0.1016 -1.2401 -0.2350
 4460TIP3    H135015   3.898   6.695   7.617  0.2018 -0.6503 -2.3030
 4460TIP3    H235016   3.832   6.817   7.678  0.6870 -1.3490 -0.2769
 4461TIP3   OH235017   5.173   2.986   6.873  0.3251  0.9100 -0.5946
 4461TIP3    H135018   5.148   2.894   6.887  0.4909  0.8878 -0.4439
 4461TIP3    H235019   5.103   3.037   6.914 -1.1519  0.8914 -2.8807
 4462TIP3   OH235020   4.052   3.544   0.912 -0.0227 -0.6606 -0.1605
 4462TIP3    H135021   4.021   3.634   0.902 -0.9878 -1.1479 -1.7781
 4462TIP3    H235022   4.143   3.547   0.881 -0.5631 -0.5461 -1.8392
 4463TIP3   OH235023   5.388   1.117   8.179  0.0328  0.0344 -0.1472
 4463TIP3    H135024   5.398   1.052   8.110  1.0439  0.1252 -0.1056
 4463TIP3    H235025   5.407   1.201   8.136  2.2147 -0.0506  0.5396
 4464TIP3   OH235026   2.201   3.326   1.798 -0.4935  0.4058  0.2689
 4464TIP3    H135027   2.208   3.233   1.778  0.2154  0.1674  1.5192
 4464TIP3    H235028   2.107   3.344   1.794 -0.7255 -0.5764  0.8522
 4465TIP3   OH235029   0.335   2.782   8.229  0.4948 -0.3280 -0.2357
 4465TIP3    H135030   0.391   2.705   8.219  2.8397  1.1533  0.6573
 4465TIP3    H235031   0.298   2.773   8.317 -1.1681 -1.5514 -1.0045
 4466TIP3   OH235032   4.272   0.500   8.114  0.6497  0.0081  0.2826
 4466TIP3    H135033   4.264   0.549   8.196  1.6072  1.9632 -0.6978
 4466TIP3    H235034   4.229   0.556   8.049  0.5434 -1.1467 -0.6712
 4467TIP3   OH235035   1.062   3.440   1.769 -0.0033 -0.3424 -0.0661
 4467TIP3    H135036   1.100   3.450   1.856 -0.8927 -0.0130  0.2957
 4467TIP3    H235037   1.098   3.357   1.736  2.9318  1.0618 -0.7475
 4468TIP3   OH235038   4.673   3.175   6.836  0.1434  0.1246 -0.0808
 4468TIP3    H135039   4.591   3.223   6.849 -0.9669 -0.9985 -2.3337
 4468TIP3    H235040   4.660   3.092   6.883 -0.0145 -0.0488 -0.4286
 4469TIP3   OH235041   5.228   1.360   6.515  0.7524  0.0939 -0.1711
 4469TIP3    H135042   5.148   1.363   6.568 -1.0181  1.1733 -2.6860
 4469TIP3    H235043   5.283   1.295   6.558 -0.7106  0.5820  2.6713
 4470TIP3   OH235044   6.790   1.702   8.414 -0.3820 -0.0002 -0.5347
 4470TIP3    H135045   6.873   1.669   8.379  1.1004  1.7561  1.1141
 4470TIP3    H235046   6.806   1.714   8.507 -2.9797 -0.9016  0.1243
 4471TIP3   OH235047   4.538   1.003   7.774 -0.2373 -0.8761 -0.0757
 4471TIP3    H135048   4.474   0.996   7.844 -0.1537  0.8201  0.2105
 4471TIP3    H235049   4.622   0.982   7.816 -0.3131 -0.7960  0.1172
 4472TIP3   OH235050   0.057   0.090   7.790  0.0402 -0.6223 -0.3711
 4472TIP3    H135051   0.101   0.104   7.873  2.0037 -2.3735 -1.0330
 4472TIP3    H235052   0.032   0.178   7.761  1.4165  0.2593  0.9468
 4473TIP3   OH235053   2.667   2.505   6.232 -0.1336 -0.1348 -0.4785
 4473TIP3    H135054   2.731   2.547   6.175 -0.6651  0.7481 -0.4661
 4473TIP3    H235055   2.622   2.442   6.176  0.8831 -0.9232 -0.4242
 4474TIP3   OH235056   6.608   3.003   0.926 -0.0343 -0.0583 -0.1746
 4474TIP3    H135057   6.677   2.983   0.989  1.7369 -0.4680 -2.1325
 4474TIP3    H235058   6.540   2.937   0.943  0.1932  0.1019  1.5316
 4475TIP3   OH235059   0.668   4.103   1.775 -0.4316 -0.3411 -0.1387
 4475TIP3    H135060   0.729   4.074   1.843  0.0046  0.5545 -0.1364
 4475TIP3    H235061   0.588   4.124   1.822 -0.6305 -1.1545 -0.0958
 4476TIP3   OH235062   3.114   5.418   1.209 -0.1033  0.0977  0.0410
 4476TIP3    H135063   3.075   5.504   1.221 -0.7014 -0.4108  2.1514
 4476TIP3    H235064   3.052   5.357   1.248  1.5088 -1.0275  0.9931
 4477TIP3   OH235065   3.435   3.567   6.788  0.2311  0.6619 -0.4198
 4477TIP3    H135066   3.344   3.592   6.768  0.2616  0.2841 -1.0784
 4477TIP3    H235067   3.452   3.604   6.875 -0.1665  1.7527 -0.7832
 4478TIP3   OH235068   2.751   0.272   8.459  0.1371 -0.3038 -0.5673
 4478TIP3    H135069   2.788   0.359   8.471 -0.3237 -0.3739  2.0017
 4478TIP3    H235070   2.731   0.266   8.366 -2.6096  3.4775 -0.4113
 4479TIP3   OH235071   1.083   0.687   6.815 -0.0971 -0.7534  0.2589
 4479TIP3    H135072   1.081   0.672   6.721  0.0140  2.9545 -0.4978
 4479TIP3    H235073   1.002   0.734   6.834  0.6767  0.1028  1.6625
 4480TIP3   OH235074   4.208   2.587   7.680  0.0200  0.0109 -0.0238
 4480TIP3    H135075   4.180   2.516   7.737  0.5363  0.4497  0.7887
 4480TIP3    H235076   4.150   2.581   7.604 -0.3601 -0.8747  0.3277
 4481TIP3   OH235077   4.973   1.425   1.447 -0.0050  0.3197  0.2757
 4481TIP3    H135078   5.027   1.437   1.524 -0.9339 -0.3903  1.0687
 4481TIP3    H235079   4.968   1.330   1.435  2.2705  0.3946 -2.2481
 4482TIP3   OH235080   5.909   5.115   7.637  0.0870 -0.5925 -0.5128
 4482TIP3    H135081   5.825   5.073   7.652 -0.4650  1.1228  1.7075
 4482TIP3    H235082   5.892   5.180   7.569 -0.4307 -0.1516  0.0351
 4483TIP3   OH235083   2.072   1.326   0.985 -0.0179 -0.2461 -0.0970
 4483TIP3    H135084   2.098   1.324   0.893 -0.3911 -1.1896 -0.1972
 4483TIP3    H235085   2.135   1.384   1.027  1.2642 -1.2179 -0.6133
 4484TIP3   OH235086   5.956   0.602   0.956 -0.2461 -0.1093 -0.5068
 4484TIP3    H135087   5.914   0.539   0.897 -0.9771 -0.4827  0.3736
 4484TIP3    H235088   5.926   0.688   0.925 -0.8384 -0.3169 -0.5333
 4485TIP3   OH235089   4.222   0.572   0.903  0.1608 -0.2620  0.0105
 4485TIP3    H135090   4.231   0.621   0.985 -1.1754  0.7340 -0.3833
 4485TIP3    H235091   4.231   0.639   0.835 -0.6696 -0.7364 -0.5777
 4486TIP3   OH235092   4.776   2.104   8.355  0.4406 -0.0267 -0.0838
 4486TIP3    H135093   4.870   2.089   8.342  0.2637 -0.2698 -1.2551
 4486TIP3    H235094   4.766   2.199   8.347  0.5553 -0.0284 -0.2756
 4487TIP3   OH235095   2.551   5.809   7.643 -0.0368  0.7309 -0.4399
 4487TIP3    H135096   2.456   5.800   7.650  0.1983 -1.2437  1.0992
 4487TIP3    H235097   2.573   5.881   7.703 -0.4253  0.1202  0.4525
 4488TIP3   OH235098   4.844   3.425   7.733  0.1932 -0.0755  0.5061
 4488TIP3    H135099   4.888   3.346   7.765  2.9947  1.8088  1.6210
 4488TIP3    H235100   4.756   3.420   7.771  0.7113 -1.9932  1.5964
 4489TIP3   OH235101   4.816   1.638   0.368  0.7355  0.7412  0.1238
 4489TIP3    H135102   4.849   1.637   0.279 -2.7849 -0.2122 -1.3701
 4489TIP3    H235103   4.728   1.676   0.361  0.3400  0.6915  3.1949
 4490TIP3   OH235104   0.152   5.339   7.439 -0.5099 -0.1909 -0.2232
 4490TIP3    H135105   0.186   5.307   7.523  1.4080 -0.0246 -0.8685
 4490TIP3    H235106   0.063   5.307   7.435 -0.3307 -1.0208  1.4550
 4491TIP3   OH235107   0.377   3.216   6.453  0.3510  0.4967  0.2411
 4491TIP3    H135108   0.374   3.235   6.547 -0.3687 -0.3985  0.4101
 4491TIP3    H235109   0.319   3.141   6.442  2.3636 -1.0198 -0.5291
 4492TIP3   OH235110   4.419   0.559   7.831 -0.0352  0.4495  0.6071
 4492TIP3    H135111   4.358   0.531   7.899 -1.4206 -0.7613 -1.0493
 4492TIP3    H235112   4.383   0.642   7.799 -1.3549 -0.6783 -0.9418
 4493TIP3   OH235113   6.413   3.284   6.097  0.1191  0.8305 -0.5530
 4493TIP3    H135114   6.420   3.293   6.192  1.5911  2.4925 -0.7737
 4493TIP3    H235115   6.486   3.226   6.073 -1.0503 -0.7036 -0.5832
 4494TIP3   OH235116   4.783   5.058   6.215 -0.1852 -0.6416 -0.2249
 4494TIP3    H135117   4.776   4.963   6.224 -0.0738 -0.6474 -0.2015
 4494TIP3    H235118   4.876   5.077   6.229  0.0834 -0.6965 -1.7832
 4495TIP3   OH235119   0.798   6.656   1.385  0.1870 -0.0815 -0.2644
 4495TIP3    H135120   0.777   6.683   1.475  0.0896  0.7569 -0.5224
 4495TIP3    H235121   0.874   6.709   1.362 -0.2594  0.2871 -0.9357
 4496TIP3   OH235122   5.286   5.198   1.703 -0.0352  0.1133 -0.3856
 4496TIP3    H135123   5.324   5.125   1.654 -1.7247  0.2463 -1.9977
 4496TIP3    H235124   5.357   5.262   1.709  1.1285 -1.1791  0.0765
 4497TIP3   OH235125   3.827   5.693   0.930  0.4460  0.2936 -0.3892
 4497TIP3    H135126   3.882   5.684   0.852 -1.4849 -1.7156 -1.6314
 4497TIP3    H235127   3.818   5.604   0.964 -0.3472  0.8700  0.9886
 4498TIP3   OH235128   3.279   4.940   7.264 -0.3147  0.2922 -0.0555
 4498TIP3    H135129   3.355   4.882   7.253  0.2583  0.7220  1.3889
 4498TIP3    H235130   3.207   4.895   7.219  0.6357 -0.4331 -0.8892
 4499TIP3   OH235131   5.382   2.293   1.035  0.2126  0.3666  0.2053
 4499TIP3    H135132   5.348   2.379   1.012  0.3516 -0.2039 -2.4756
 4499TIP3    H235133   5.475   2.307   1.050  0.1024  0.8063  0.4713
 4500TIP3   OH235134   5.485   6.859   1.500  0.3994  0.0697 -0.2892
 4500TIP3    H135135   5.434   6.937   1.522 -0.6901 -0.9991  1.1662
 4500TIP3    H235136   5.534   6.884   1.422 -0.6669  1.8806 -0.4376
 4501TIP3   OH235137   5.733   4.297   7.404  0.2440  0.1318 -0.0087
 4501TIP3    H135138   5.679   4.240   7.459  0.3680  0.2013  0.1853
 4501TIP3    H235139   5.793   4.237   7.359 -0.6622 -0.0668 -1.0106
 4502TIP3   OH235140   3.634   5.793   0.072  0.0964  0.1719 -0.1181
 4502TIP3    H135141   3.680   5.872   0.042 -0.2005  0.7108  0.7867
 4502TIP3    H235142   3.592   5.820   0.154 -0.5504 -0.7505 -0.1329
 4503TIP3   OH235143   3.375   4.350   6.829  0.4340 -0.3124  0.3468
 4503TIP3    H135144   3.328   4.278   6.788 -1.2805  0.0594  1.5318
 4503TIP3    H235145   3.397   4.408   6.757 -1.3659 -0.2948 -0.2511
 4504TIP3   OH235146   2.511   5.582   0.160 -0.1883  0.3149 -0.5254
 4504TIP3    H135147   2.528   5.510   0.221 -0.7547 -0.2112 -0.9861
 4504TIP3    H235148   2.579   5.572   0.093 -0.0371  0.4401 -0.3937
 4505TIP3   OH235149   2.995   2.764   1.060  0.0273 -0.2914  0.2205
 4505TIP3    H135150   2.950   2.713   1.127 -0.5370 -1.3365 -0.9323
 4505TIP3    H235151   3.088   2.745   1.075 -0.1609 -1.4683 -0.0362
 4506TIP3   OH235152   2.070   2.331   7.344 -0.0356 -0.2725 -0.1095
 4506TIP3    H135153   2.061   2.247   7.297 -0.2706  0.1626 -0.8597
 4506TIP3    H235154   2.003   2.387   7.306  1.0415  0.7075 -0.6391
 4507TIP3   OH235155   6.651   2.368   6.823  0.0544 -0.3058  0.1193
 4507TIP3    H135156   6.658   2.403   6.734 -0.8204  1.5097  0.7008
 4507TIP3    H235157   6.638   2.274   6.811 -1.1040  0.0308 -1.7310
 4508TIP3   OH235158   1.951   2.418   0.964 -0.3802  0.7230 -0.1516
 4508TIP3    H135159   2.024   2.356   0.972 -0.9816  0.0789  0.4778
 4508TIP3    H235160   1.917   2.403   0.876 -0.8920 -0.2853  0.1979
 4509TIP3   OH235161   1.592   6.783   0.816  0.7468 -0.9390  0.2090
 4509TIP3    H135162   1.563   6.820   0.900  0.5166 -1.1359  0.2150
 4509TIP3    H235163   1.545   6.834   0.750 -1.5435 -2.8226  0.2430
 4510TIP3   OH235164   6.657   2.273   1.334 -0.6082 -0.1488  0.2934
 4510TIP3    H135165   6.635   2.255   1.426 -1.4061 -0.8439 -0.0088
 4510TIP3    H235166   6.603   2.211   1.285 -0.5578  0.5480 -0.6686
 4511TIP3   OH235167   4.893   2.761   8.662 -0.2352 -0.1291 -0.2942
 4511TIP3    H135168   4.900   2.790   8.571 -0.4943 -1.2489 -0.6856
 4511TIP3    H235169   4.963   2.697   8.672  0.2771  0.5376  0.5352
 4512TIP3   OH235170   0.692   4.086   1.492 -0.3040 -0.4834 -0.4559
 4512TIP3    H135171   0.691   4.086   1.588 -1.2777  2.9173 -0.3141
 4512TIP3    H235172   0.784   4.092   1.469 -0.1252  1.2183  0.4687
 4513TIP3   OH235173   1.344   2.432   8.600  0.8726  0.4494  0.8210
 4513TIP3    H135174   1.288   2.438   8.522  0.2676  0.8919  1.2842
 4513TIP3    H235175   1.433   2.430   8.565  0.5705 -0.3713  0.0681
 4514TIP3   OH235176   0.939   4.818   1.124  0.4361 -0.6877  0.2398
 4514TIP3    H135177   0.865   4.848   1.176  0.9387 -0.5153  0.8766
 4514TIP3    H235178   0.904   4.805   1.036  0.6525  4.5246 -0.9543
 4515TIP3   OH235179   1.512   3.862   7.852  0.0882 -0.1526  0.0914
 4515TIP3    H135180   1.572   3.792   7.878  0.5165 -0.1351 -0.7866
 4515TIP3    H235181   1.552   3.942   7.886 -0.3098 -0.3092  0.9438
 4516TIP3   OH235182   4.430   4.916   0.510  0.2322 -0.2136  0.4884
 4516TIP3    H135183   4.412   5.007   0.532 -0.8950 -0.4362  0.5273
 4516TIP3    H235184   4.487   4.886   0.580 -1.0687 -0.1158  1.6347
 4517TIP3   OH235185   0.173   3.096   1.323 -0.3954 -0.5036  0.0135
 4517TIP3    H135186   0.200   3.074   1.412 -0.1054 -1.1095 -0.2100
 4517TIP3    H235187   0.141   3.013   1.287  0.5189 -0.5338 -0.7944
 4518TIP3   OH235188   2.783   0.169   0.715 -0.4359 -0.1526  0.2221
 4518TIP3    H135189   2.742   0.254   0.728  0.7807  0.4281  0.4498
 4518TIP3    H235190   2.823   0.148   0.800  0.2953 -0.3707 -0.1626
 4519TIP3   OH235191   0.105   0.045   6.745 -0.5177  0.0244 -0.7706
 4519TIP3    H135192   0.112  -0.038   6.793  1.6661  0.7791  0.3729
 4519TIP3    H235193   0.191   0.086   6.757 -1.7018  2.6974 -0.8767
 4520TIP3   OH235194   0.883   6.631   0.407  0.0153 -0.2957  0.5771
 4520TIP3    H135195   0.871   6.635   0.312  1.3993 -1.8528  0.2893
 4520TIP3    H235196   0.835   6.552   0.434  0.9179 -0.7385  0.9196
 4521TIP3   OH235197   0.334   4.952   0.291 -0.3253 -0.1940 -0.5248
 4521TIP3    H135198   0.371   5.035   0.322  1.7371 -1.1387 -0.2354
 4521TIP3    H235199   0.261   4.978   0.235 -2.9203  1.6777  3.2743
 4522TIP3   OH235200   4.714   6.770   0.464  0.2376 -0.1714  0.4805
 4522TIP3    H135201   4.653   6.834   0.426 -0.9860 -1.1834  0.6497
 4522TIP3    H235202   4.739   6.807   0.548 -1.8361 -0.6592  1.3733
 4523TIP3   OH235203   6.336   3.361   8.688  0.2528 -0.6151  0.3943
 4523TIP3    H135204   6.293   3.346   8.772 -2.2535 -2.9083 -1.1431
 4523TIP3    H235205   6.287   3.433   8.648  0.3339 -0.6726  0.1885
 4524TIP3   OH235206   4.231   4.539   7.061 -0.0528 -0.1150 -0.3762
 4524TIP3    H135207   4.322   4.518   7.084 -0.0401 -1.3181 -1.3991
 4524TIP3    H235208   4.180   4.509   7.136  0.4670  1.7252  0.7636
 4525TIP3   OH235209   3.867   2.382   8.468 -0.5633 -0.4253 -0.6936
 4525TIP3    H135210   3.875   2.450   8.402 -0.7506  1.2193  0.8877
 4525TIP3    H235211   3.774   2.360   8.469 -1.0337  1.3568  0.6478
 4526TIP3   OH235212   4.268   1.327   0.696  0.7424 -0.1316 -0.5483
 4526TIP3    H135213   4.220   1.386   0.638  2.6210  0.7821 -1.2673
 4526TIP3    H235214   4.360   1.349   0.681  1.3967 -1.7512  0.8136
 4527TIP3   OH235215   1.525   6.560   7.057 -0.2076 -0.1938  0.2051
 4527TIP3    H135216   1.548   6.653   7.058 -2.9104  0.5498  0.8981
 4527TIP3    H235217   1.571   6.523   7.132  0.1607  0.7807  0.4731
 4528TIP3   OH235218   0.911   0.149   7.710  0.5008 -0.0447 -0.2324
 4528TIP3    H135219   0.859   0.133   7.630  1.6158  1.6801 -1.3723
 4528TIP3    H235220   0.854   0.122   7.781 -0.9872 -0.5746 -1.5621
 4529TIP3   OH235221   2.897   2.025   6.856 -0.0483 -0.0363  0.8629
 4529TIP3    H135222   2.860   1.995   6.774  1.6296 -2.7573  0.9668
 4529TIP3    H235223   2.826   2.070   6.901 -1.3470  0.3804 -1.4893
 4530TIP3   OH235224   4.586   5.474   8.089  0.1448 -0.1666 -0.4813
 4530TIP3    H135225   4.661   5.488   8.032  0.2281 -0.8384 -0.5481
 4530TIP3    H235226   4.570   5.559   8.129 -1.5081  1.0179 -3.3682
 4531TIP3   OH235227   1.233   1.714   0.124 -0.4080 -0.3991  0.0829
 4531TIP3    H135228   1.276   1.797   0.147  0.9169 -1.1658  0.4898
 4531TIP3    H235229   1.214   1.721   0.031  0.1843  0.1585 -0.0021
 4532TIP3   OH235230   4.926   5.049   7.403  0.5506  0.0446 -0.6251
 4532TIP3    H135231   4.966   5.085   7.482 -1.0257  2.4565 -0.8265
 4532TIP3    H235232   4.832   5.059   7.416  0.1443 -1.6958 -1.8485
 4533TIP3   OH235233   1.679   5.068   6.625  0.1418  0.6118 -0.1523
 4533TIP3    H135234   1.695   5.009   6.699 -1.2308  2.5839  1.8663
 4533TIP3    H235235   1.635   5.013   6.560 -0.5433 -0.7426  1.3790
 4534TIP3   OH235236   0.095   3.735   7.009 -0.1346  0.4665  0.0726
 4534TIP3    H135237   0.095   3.641   7.025 -1.3206  0.2843 -0.8494
 4534TIP3    H235238   0.182   3.753   6.973 -0.3141 -0.4967 -0.8865
 4535TIP3   OH235239   2.840   2.931   0.253  0.5252  0.3315 -0.3598
 4535TIP3    H135240   2.766   2.977   0.293  0.0689  0.5561 -1.4136
 4535TIP3    H235241   2.916   2.958   0.304 -0.2319 -0.7753  1.4782
 4536TIP3   OH235242   0.998   6.230   0.544  0.0923  0.5024  0.5116
 4536TIP3    H135243   1.080   6.260   0.505  1.1369 -2.3475  0.3467
 4536TIP3    H235244   1.023   6.194   0.629 -1.4053  1.7376  1.5521
 4537TIP3   OH235245   0.521   3.972   0.996  0.0330  0.2270  0.1289
 4537TIP3    H135246   0.515   4.067   0.986 -2.1490  0.1853  0.5501
 4537TIP3    H235247   0.435   3.939   0.970  0.9695 -1.7224 -0.7150
 4538TIP3   OH235248   4.823   3.905   7.011 -0.0259  0.8372 -0.0404
 4538TIP3    H135249   4.756   3.967   7.040 -1.5773 -1.1615  0.8694
 4538TIP3    H235250   4.778   3.847   6.951  1.4689  0.7123 -1.1001
 4539TIP3   OH235251   2.867   4.181   8.633 -0.2262 -0.3369  0.1609
 4539TIP3    H135252   2.888   4.117   8.701  0.6696 -0.8720 -0.5980
 4539TIP3    H235253   2.933   4.167   8.566  0.5631  1.9979  0.3571
 4540TIP3   OH235254   4.073   4.829   7.600  0.1058 -0.3231  0.6233
 4540TIP3    H135255   3.977   4.834   7.595  0.1783  3.5844 -0.2593
 4540TIP3    H235256   4.093   4.847   7.692  0.0202 -1.0599  0.7917
 4541TIP3   OH235257   3.781   2.891   1.099 -0.2332  0.6910  0.0320
 4541TIP3    H135258   3.822   2.976   1.089  2.3574 -0.6324 -1.6386
 4541TIP3    H235259   3.807   2.862   1.186  0.0017  1.0393  0.0799
 4542TIP3   OH235260   0.912   0.656   1.337 -0.1730  0.5042  0.3122
 4542TIP3    H135261   0.867   0.712   1.401 -0.8581  1.8515 -1.2515
 4542TIP3    H235262   0.916   0.570   1.378 -1.6633  1.0335  1.6679
 4543TIP3   OH235263   1.309   5.231   7.437 -0.2226 -0.0933  0.1675
 4543TIP3    H135264   1.319   5.326   7.441 -1.3051  0.0707 -0.5207
 4543TIP3    H235265   1.259   5.215   7.357  2.3386 -1.4728 -1.2962
 4544TIP3   OH235266   3.988   6.870   8.049  0.0730  0.6712 -0.4132
 4544TIP3    H135267   4.055   6.876   7.981  0.6853 -1.1619 -0.0322
 4544TIP3    H235268   3.920   6.814   8.010 -0.0483  0.4549  0.1080
 4545TIP3   OH235269   1.136   0.753   8.535  0.2873 -0.1956  0.3460
 4545TIP3    H135270   1.220   0.755   8.581 -0.8968  0.3282  2.6299
 4545TIP3    H235271   1.110   0.845   8.529  0.3489 -0.2583 -1.3525
 4546TIP3   OH235272   6.303   1.826   6.249 -0.5209 -0.3091 -0.3400
 4546TIP3    H135273   6.363   1.835   6.175 -0.9663  2.6090 -0.4805
 4546TIP3    H235274   6.348   1.870   6.321 -1.5048 -0.1491  0.1857
 4547TIP3   OH235275   1.998   4.583   1.546  0.1397  0.2449  0.2050
 4547TIP3    H135276   1.918   4.625   1.515  0.8273  0.6912 -1.0390
 4547TIP3    H235277   2.059   4.655   1.562  0.2144 -0.0619  1.4762
 4548TIP3   OH235278   4.726   0.096   7.343  0.2632  0.3786 -0.0025
 4548TIP3    H135279   4.718   0.021   7.284 -1.1943 -0.6897  1.4650
 4548TIP3    H235280   4.820   0.113   7.347  0.4911 -0.3154 -1.6134
 4549TIP3   OH235281   2.314   3.276   1.473  0.5379  0.6179  0.5015
 4549TIP3    H135282   2.326   3.301   1.381 -0.6314  1.3754  0.5333
 4549TIP3    H235283   2.220   3.280   1.487  0.3467 -2.5790  0.9018
 4550TIP3   OH235284   4.787   2.025   7.625 -0.5243  0.0809  0.4385
 4550TIP3    H135285   4.784   1.995   7.716 -0.6390 -0.2671  0.3217
 4550TIP3    H235286   4.879   2.016   7.600 -0.8356 -2.0500 -0.2029
 4551TIP3   OH235287   1.633   5.676   7.371 -1.2245 -0.4591 -0.3480
 4551TIP3    H135288   1.651   5.619   7.446 -0.3761 -2.1599 -1.7750
 4551TIP3    H235289   1.719   5.707   7.343 -1.4434 -0.4650 -1.0574
 4552TIP3   OH235290   5.610   5.284   7.297 -0.3109 -0.3216 -0.5191
 4552TIP3    H135291   5.586   5.256   7.209 -1.0123  0.2645 -0.5255
 4552TIP3    H235292   5.531   5.326   7.331  0.3988  0.7523 -0.1513
 4553TIP3   OH235293   2.739   4.431   0.600 -0.5150 -0.1232  0.4497
 4553TIP3    H135294   2.784   4.505   0.560 -0.7311  0.1334  0.6785
 4553TIP3    H235295   2.676   4.471   0.660 -0.0523 -0.4950  1.2073
 4554TIP3   OH235296   6.608   3.095   6.051  0.7339 -0.1390  0.1522
 4554TIP3    H135297   6.641   3.045   5.977  1.0413 -1.9630  1.4594
 4554TIP3    H235298   6.686   3.121   6.100  0.5064  0.4896  0.1937
 4555TIP3   OH235299   0.378   0.663   6.247  0.1201  0.2456  0.4250
 4555TIP3    H135300   0.424   0.731   6.297 -0.6135  1.0295  0.0589
 4555TIP3    H235301   0.437   0.644   6.174 -0.1947  1.3712 -0.1429
 4556TIP3   OH235302   4.121   1.087   8.444  0.1231 -0.3807 -0.6352
 4556TIP3    H135303   4.030   1.061   8.457 -0.2557  1.0434 -0.2342
 4556TIP3    H235304   4.145   1.130   8.526 -0.1996  2.9738 -2.1341
 4557TIP3   OH235305   5.703   0.499   1.235  0.1368  0.1936  0.2225
 4557TIP3    H135306   5.798   0.498   1.237  0.1801 -1.6445 -0.5211
 4557TIP3    H235307   5.678   0.552   1.310  1.7310  1.5246 -0.1301
 4558TIP3   OH235308   4.997   5.794   7.928  0.4680  0.5046 -0.2248
 4558TIP3    H135309   5.039   5.872   7.966 -1.7143  1.7975 -0.3161
 4558TIP3    H235310   4.952   5.753   8.001  1.1398 -0.3741 -0.2946
 4559TIP3   OH235311   2.043   3.687   0.236 -0.4750  0.7865 -0.1654
 4559TIP3    H135312   2.035   3.672   0.330 -0.4659 -1.7844 -0.5190
 4559TIP3    H235313   1.975   3.633   0.197  0.4410  0.6789 -1.6971
 4560TIP3   OH235314   6.261   0.437   8.603  0.1675 -0.0365  0.0468
 4560TIP3    H135315   6.203   0.364   8.581 -0.8949  0.6713  0.3603
 4560TIP3    H235316   6.305   0.459   8.521 -1.4702  0.6332 -0.7044
 4561TIP3   OH235317   4.240   4.250   8.517 -0.1789 -0.2279 -0.2132
 4561TIP3    H135318   4.269   4.215   8.433 -0.6302 -0.5034 -0.2574
 4561TIP3    H235319   4.220   4.342   8.499  0.7434 -0.0065 -0.1598
 4562TIP3   OH235320   1.700   4.918   0.746 -0.3548  0.0445  0.3722
 4562TIP3    H135321   1.758   4.877   0.683 -1.4771  0.7023 -1.1407
 4562TIP3    H235322   1.702   4.860   0.822  2.4073  0.1512  0.5002
 4563TIP3   OH235323   2.839   3.279   1.175  0.5223 -0.3155  0.3696
 4563TIP3    H135324   2.900   3.219   1.220  1.2779 -0.9326 -1.3893
 4563TIP3    H235325   2.753   3.241   1.191  0.9290 -1.5142 -0.1332
 4564TIP3   OH235326   1.320   2.865   0.357  0.3948 -0.6669  0.0190
 4564TIP3    H135327   1.270   2.944   0.338 -1.2065 -1.5524  0.3622
 4564TIP3    H235328   1.376   2.889   0.431  1.3402  0.6728 -1.0805
 4565TIP3   OH235329   1.555   4.804   0.068  0.0901  0.5263 -1.0230
 4565TIP3    H135330   1.592   4.803  -0.021 -2.6656 -0.0040 -2.2600
 4565TIP3    H235331   1.512   4.719   0.076  0.0979  0.6696  0.7726
 4566TIP3   OH235332   3.373   6.421   7.304 -0.1468 -0.3869  0.5042
 4566TIP3    H135333   3.449   6.364   7.319 -0.7259 -1.4956 -0.6144
 4566TIP3    H235334   3.340   6.440   7.392  2.8181  2.1752  1.2385
 4567TIP3   OH235335   6.113   2.539   6.738  0.2803  0.2265 -0.2615
 4567TIP3    H135336   6.109   2.616   6.681  0.1056  2.1133  2.0982
 4567TIP3    H235337   6.021   2.521   6.759  0.3105 -0.7833 -0.9897
 4568TIP3   OH235338   1.724   2.978   6.961  0.0827 -0.0664  0.1096
 4568TIP3    H135339   1.680   3.059   6.935 -0.8265  0.4610  2.9420
 4568TIP3    H235340   1.802   3.008   7.009  1.5409 -0.9654 -1.5662
 4569TIP3   OH235341   6.705   6.342   8.502 -0.8067  0.3664 -0.3444
 4569TIP3    H135342   6.668   6.349   8.590 -0.8352 -0.2130 -0.3056
 4569TIP3    H235343   6.721   6.432   8.475 -2.4083  0.6508 -0.4369
 4570TIP3   OH235344   0.498   2.532   7.190  0.7019  0.7014 -0.2894
 4570TIP3    H135345   0.443   2.476   7.134  1.2585 -0.3956  0.2431
 4570TIP3    H235346   0.546   2.587   7.128  2.0764 -1.1997 -0.9910
 4571TIP3   OH235347   2.654   2.136   6.940  0.1759 -0.1357  0.4615
 4571TIP3    H135348   2.610   2.104   6.862 -0.8268  0.4321  0.7776
 4571TIP3    H235349   2.587   2.135   7.008  0.5252  1.1709  0.8515
 4572TIP3   OH235350   4.111   3.528   1.595  0.4969 -0.3329  0.3299
 4572TIP3    H135351   4.168   3.558   1.666  1.9653 -0.7796 -0.5986
 4572TIP3    H235352   4.023   3.552   1.622  0.9590 -0.9149  2.5146
 4573TIP3   OH235353   1.666   6.107   6.198  0.0090 -0.2811  0.2021
 4573TIP3    H135354   1.578   6.076   6.175 -0.0516  1.2032 -1.8123
 4573TIP3    H235355   1.714   6.107   6.115  0.9983  1.7439  0.7157
 4574TIP3   OH235356   1.684   4.702   7.710  0.7865 -0.2214 -0.1945
 4574TIP3    H135357   1.683   4.608   7.729  0.0530 -0.0523  0.6777
 4574TIP3    H235358   1.612   4.738   7.762  3.4297  1.4312  2.6594
 4575TIP3   OH235359   5.773   4.674   6.224  1.1329  0.1448 -0.5557
 4575TIP3    H135360   5.706   4.724   6.271  2.4650  1.4784 -0.0272
 4575TIP3    H235361   5.723   4.622   6.160 -0.4377  0.7321  0.1376
 4576TIP3   OH235362   2.046   4.397   8.694 -0.2503  0.1737 -0.1721
 4576TIP3    H135363   2.073   4.446   8.772  0.6679 -0.1536 -0.2781
 4576TIP3    H235364   2.115   4.413   8.630 -0.3451 -0.5995 -0.4816
 4577TIP3   OH235365   4.263   4.892   6.531  0.1990  0.0433 -0.9180
 4577TIP3    H135366   4.261   4.968   6.588 -1.1596  0.6699 -1.7355
 4577TIP3    H235367   4.232   4.925   6.446 -0.7082 -1.4597 -1.2150
 4578TIP3   OH235368   1.480   5.395   7.060 -0.1517  1.4162 -0.2287
 4578TIP3    H135369   1.439   5.332   7.119 -1.1903  1.1514 -1.2014
 4578TIP3    H235370   1.551   5.346   7.019 -1.1432  0.7605 -1.2060
 4579TIP3   OH235371   5.979   1.147   8.667  0.5689 -0.2097  0.4584
 4579TIP3    H135372   5.970   1.222   8.608 -1.2502 -0.7579 -0.0075
 4579TIP3    H235373   5.894   1.139   8.709  0.5832 -2.2559  0.1959
 4580TIP3   OH235374   6.622   3.291   6.346 -0.1689 -0.2837  0.1526
 4580TIP3    H135375   6.703   3.277   6.297 -1.0629 -0.2547 -1.4009
 4580TIP3    H235376   6.636   3.374   6.391  0.2089  0.3722 -1.1171
 4581TIP3   OH235377   2.494   4.308   8.468  0.4289  0.0292  0.2343
 4581TIP3    H135378   2.488   4.373   8.399 -0.2988 -0.7650 -0.4799
 4581TIP3    H235379   2.428   4.242   8.445  2.3077 -1.8808 -0.0802
 4582TIP3   OH235380   1.163   2.191   2.247 -0.3785 -0.7240  0.5735
 4582TIP3    H135381   1.133   2.209   2.158 -3.0350 -0.0151  1.5204
 4582TIP3    H235382   1.203   2.273   2.276 -0.0411 -0.7721  0.2566
 4583TIP3   OH235383   3.777   3.998   0.424 -0.1347 -0.1167 -0.1690
 4583TIP3    H135384   3.701   3.945   0.401  0.1935 -1.9951  2.5483
 4583TIP3    H235385   3.744   4.088   0.426 -1.8701 -0.7011 -0.6035
 4584TIP3   OH235386   4.414   5.728   6.922  0.1299  0.0686  0.1955
 4584TIP3    H135387   4.475   5.786   6.874  0.8926 -0.6413  0.2763
 4584TIP3    H235388   4.356   5.694   6.854  1.1883 -0.9075 -0.2675
 4585TIP3   OH235389   2.177   6.522   7.463 -0.8620 -0.2092 -0.1102
 4585TIP3    H135390   2.128   6.452   7.508 -2.2304 -0.0176 -1.2334
 4585TIP3    H235391   2.260   6.526   7.509 -0.3791 -3.1709 -0.5406
 4586TIP3   OH235392   4.408   1.531   8.293 -0.9200  0.2313 -0.4166
 4586TIP3    H135393   4.424   1.544   8.387 -2.3937 -0.1264 -0.0938
 4586TIP3    H235394   4.394   1.619   8.259  0.9644  0.5004 -0.5951
 4587TIP3   OH235395   3.700   2.929   0.027  0.0986  0.4377 -0.1010
 4587TIP3    H135396   3.608   2.942   0.005 -0.5793 -1.1858  1.5431
 4587TIP3    H235397   3.726   2.851  -0.021  0.1630  0.0171  0.6004
 4588TIP3   OH235398   4.708   4.323   6.444 -0.4872 -0.4459 -0.0046
 4588TIP3    H135399   4.718   4.279   6.528  0.1465 -0.7879 -0.2501
 4588TIP3    H235400   4.782   4.291   6.392 -0.1692  0.7036 -0.2809
 4589TIP3   OH235401   3.555   5.049   0.533  0.8255 -0.1893  0.3698
 4589TIP3    H135402   3.622   5.084   0.475 -0.2762 -1.1334 -1.5664
 4589TIP3    H235403   3.553   4.955   0.514 -0.8921 -0.2062  0.5012
 4590TIP3   OH235404   2.806   2.597   7.487 -0.7466  0.0640  0.2104
 4590TIP3    H135405   2.770   2.549   7.562 -1.4502 -1.5759 -1.1063
 4590TIP3    H235406   2.877   2.542   7.455  0.2591  1.2779  0.2828
 4591TIP3   OH235407   3.186   5.164   0.776  0.2122  0.2033  0.3547
 4591TIP3    H135408   3.211   5.075   0.802 -0.6014  0.3000  1.5106
 4591TIP3    H235409   3.095   5.172   0.802 -0.5737  0.4757 -2.1674
 4592TIP3   OH235410   5.378   1.244   1.136  0.6122 -0.7237  0.2106
 4592TIP3    H135411   5.390   1.321   1.192 -2.3599 -0.2021  0.3251
 4592TIP3    H235412   5.365   1.280   1.048  2.0361 -1.3369 -0.2813
 4593TIP3   OH235413   5.735   5.414   7.669 -0.5011 -0.0466  0.4912
 4593TIP3    H135414   5.654   5.368   7.647  0.5517 -3.1640  2.4661
 4593TIP3    H235415   5.780   5.425   7.585 -2.6873  1.3788 -0.5721
 4594TIP3   OH235416   1.687   4.270   1.904 -0.2720 -0.0875 -0.1990
 4594TIP3    H135417   1.656   4.355   1.874  1.2680  0.4582 -0.2930
 4594TIP3    H235418   1.668   4.210   1.831 -0.7214  0.3033 -0.4085
 4595TIP3   OH235419   1.895   1.611   0.509  0.1666  0.5298  0.0093
 4595TIP3    H135420   1.878   1.560   0.589 -1.3632 -0.0928 -0.6731
 4595TIP3    H235421   1.847   1.564   0.441  1.2953  1.1590 -1.2614
 4596TIP3   OH235422   6.210   0.168   0.663 -0.7230 -0.7321  0.1157
 4596TIP3    H135423   6.193   0.148   0.571 -0.9158  1.0822 -0.2872
 4596TIP3    H235424   6.305   0.155   0.673 -0.8616 -2.0136 -0.0128
 4597TIP3   OH235425   6.226   0.105   6.063  0.4023  0.3990 -0.2941
 4597TIP3    H135426   6.156   0.097   5.998 -0.5664  1.1254  0.6229
 4597TIP3    H235427   6.220   0.024   6.114  0.0731  0.5585 -0.0755
 4598TIP3   OH235428   1.070   4.448   7.874 -0.8888  0.3851  0.4492
 4598TIP3    H135429   1.053   4.524   7.930  3.0255  0.0885  2.3603
 4598TIP3    H235430   1.097   4.485   7.790 -0.2377  1.0732  0.9540
 4599TIP3   OH235431   5.025   2.897   0.200  0.0044  0.3927 -0.3013
 4599TIP3    H135432   5.048   2.989   0.217  3.5468 -0.2572 -0.9002
 4599TIP3    H235433   5.007   2.894   0.105  0.6735  0.3504 -0.4312
 4600TIP3   OH235434   6.258   4.278   8.006 -0.2567 -0.4657 -0.2284
 4600TIP3    H135435   6.328   4.230   7.960 -0.9775 -0.8340 -0.9627
 4600TIP3    H235436   6.294   4.294   8.093  1.4884  0.9721 -1.1399
 4601TIP3   OH235437   5.492   3.677   8.200 -0.1067 -0.4750  0.0520
 4601TIP3    H135438   5.581   3.703   8.178 -0.1898 -1.3210 -1.4043
 4601TIP3    H235439   5.488   3.683   8.296  1.2406  0.3704  0.0844
 4602TIP3   OH235440   6.708   1.689   7.246  0.8505  0.0363 -0.3658
 4602TIP3    H135441   6.678   1.653   7.330  0.2597  1.3182 -0.0081
 4602TIP3    H235442   6.795   1.724   7.264  0.5969  0.5906 -0.2008
 4603TIP3   OH235443   5.485   6.263   1.651  0.4168 -0.4550  0.2503
 4603TIP3    H135444   5.484   6.191   1.588  0.8752  0.3900 -0.7372
 4603TIP3    H235445   5.557   6.320   1.622 -0.6088  0.9539  0.3969
 4604TIP3   OH235446   3.967   2.534   1.359  0.0290 -0.2166  0.4165
 4604TIP3    H135447   4.032   2.568   1.420  1.4388 -0.1197 -1.0645
 4604TIP3    H235448   3.899   2.601   1.356 -0.1858 -0.3221  2.0096
 4605TIP3   OH235449   6.018   3.723   0.893 -0.0577  0.2406  0.3251
 4605TIP3    H135450   6.033   3.629   0.882 -0.0717  0.0214  1.8561
 4605TIP3    H235451   5.972   3.750   0.814 -0.5922 -1.1786  0.1185
 4606TIP3   OH235452   6.402   1.630   0.373  0.1667 -0.1829  0.0044
 4606TIP3    H135453   6.381   1.717   0.342 -0.4288  0.0043  0.8692
 4606TIP3    H235454   6.338   1.573   0.330 -1.3362  0.2074  1.5840
 4607TIP3   OH235455   6.261   4.424   7.709 -0.1517  0.0007 -0.0842
 4607TIP3    H135456   6.197   4.387   7.648  1.4295 -0.3884 -1.6035
 4607TIP3    H235457   6.209   4.458   7.782 -1.9841 -1.1583 -0.7957
 4608TIP3   OH235458   1.884   3.639   6.929  0.1424 -0.2505 -0.0324
 4608TIP3    H135459   1.791   3.661   6.943  0.4131  1.7176 -1.0472
 4608TIP3    H235460   1.883   3.570   6.863 -0.5941 -0.1617 -0.1214
 4609TIP3   OH235461   1.869   6.857   0.996  0.0809 -0.5669 -0.2852
 4609TIP3    H135462   1.899   6.788   0.936  0.1103 -1.3892  0.6537
 4609TIP3    H235463   1.935   6.926   0.988  0.3509 -0.8833 -0.8234
 4610TIP3   OH235464   6.380   0.158   0.040 -0.6640 -0.0506 -0.1644
 4610TIP3    H135465   6.412   0.228   0.096  0.2452  1.1405 -2.0459
 4610TIP3    H235466   6.285   0.168   0.040 -0.7797 -0.7724  1.9474
 4611TIP3   OH235467   5.815   1.551   7.633 -0.2265  0.2335 -0.0092
 4611TIP3    H135468   5.825   1.458   7.612 -0.5362  0.4012 -0.9485
 4611TIP3    H235469   5.865   1.596   7.564 -0.2984  0.7751  0.2885
 4612TIP3   OH235470   3.263   2.115   7.846 -0.2594 -0.6245 -0.1364
 4612TIP3    H135471   3.274   2.187   7.784 -1.4083  0.0100  0.3597
 4612TIP3    H235472   3.350   2.103   7.885  0.1478 -0.1139 -0.8690
 4613TIP3   OH235473   3.590   6.088   6.715  0.0172  0.6486  0.0061
 4613TIP3    H135474   3.536   6.137   6.652  1.7188  2.2161 -0.3310
 4613TIP3    H235475   3.548   6.002   6.720 -1.9792  1.4948 -0.8784
 4614TIP3   OH235476   6.795   3.454   1.106  0.0026 -0.3021  0.0157
 4614TIP3    H135477   6.870   3.415   1.151 -0.5315 -0.8132  0.4559
 4614TIP3    H235478   6.731   3.472   1.175 -0.2173  0.3041 -0.3338
 4615TIP3   OH235479   6.691   3.655   7.145 -0.0329  0.4816  0.2977
 4615TIP3    H135480   6.622   3.650   7.211 -0.2374 -0.7974  0.0244
 4615TIP3    H235481   6.703   3.564   7.117  0.1111  0.9874 -1.3618
 4616TIP3   OH235482   1.968   1.099   6.189  0.3744 -0.4917  0.1736
 4616TIP3    H135483   2.020   1.179   6.200  1.7596 -0.7517 -3.1460
 4616TIP3    H235484   1.889   1.114   6.241  2.1963  1.4152  2.6312
 4617TIP3   OH235485   1.437   5.830   6.824  0.3710  0.4069  0.7674
 4617TIP3    H135486   1.426   5.885   6.746  1.0823 -0.5529 -0.0295
 4617TIP3    H235487   1.369   5.763   6.816  1.0655 -0.2778  0.4369
 4618TIP3   OH235488   3.757   3.351   6.169 -0.0008  0.5383 -0.4715
 4618TIP3    H135489   3.793   3.326   6.254 -0.8274  1.6429  0.2329
 4618TIP3    H235490   3.662   3.350   6.182 -0.1184  1.9521 -0.9959
 4619TIP3   OH235491   0.386   4.981   6.718 -0.3347  0.0031 -0.1092
 4619TIP3    H135492   0.370   5.063   6.766  0.5178  1.2724 -1.8843
 4619TIP3    H235493   0.326   4.985   6.644 -0.7788 -1.3527  0.1550
 4620TIP3   OH235494   1.482   0.658   6.501  0.2494  0.0653 -0.0658
 4620TIP3    H135495   1.393   0.694   6.498 -0.2301 -1.0564  0.3809
 4620TIP3    H235496   1.527   0.712   6.567 -0.5375 -0.2979  0.7919
 4621TIP3   OH235497   0.271   3.016   8.700 -0.1439  0.5493 -0.0544
 4621TIP3    H135498   0.187   3.000   8.744 -0.0305 -2.1557 -0.6443
 4621TIP3    H235499   0.247   3.041   8.611 -0.3008  2.5045  0.4817
 4622TIP3   OH235500   4.226   6.041   1.249 -0.1897 -0.0166  0.3450
 4622TIP3    H135501   4.253   5.954   1.218  1.9234  1.3451 -2.0877
 4622TIP3    H235502   4.306   6.078   1.286 -0.7163  1.3534  0.1517
 4623TIP3   OH235503   1.377   3.220   6.592 -0.4580 -0.4689  0.0932
 4623TIP3    H135504   1.350   3.265   6.512 -1.6206 -0.7677  0.3030
 4623TIP3    H235505   1.376   3.287   6.660  1.3785 -0.0136 -0.2774
 4624TIP3   OH235506   2.630   2.152   0.331 -0.6359  0.6461 -0.1598
 4624TIP3    H135507   2.676   2.184   0.254  1.4600 -0.3713  0.6186
 4624TIP3    H235508   2.580   2.076   0.299  0.6937 -0.1419 -0.4146
 4625TIP3   OH235509   1.547   1.351   6.975  0.2832  0.3650  0.0757
 4625TIP3    H135510   1.617   1.304   6.930  1.9766  0.7290  2.1419
 4625TIP3    H235511   1.523   1.422   6.916 -2.2882 -2.7623 -3.1053
 4626TIP3   OH235512   3.523   5.518   1.021 -0.1193  0.1831 -0.4669
 4626TIP3    H135513   3.550   5.516   0.929 -0.4624  1.2757 -0.5956
 4626TIP3    H235514   3.514   5.425   1.044 -1.0356 -0.0990 -1.8219
 4627TIP3   OH235515   0.357   2.704   6.841 -0.2292  0.8256 -0.4531
 4627TIP3    H135516   0.278   2.737   6.798 -0.8351  0.1141  0.0735
 4627TIP3    H235517   0.361   2.611   6.817 -1.0785  0.1710  1.6525
 4628TIP3   OH235518   5.862   4.313   6.156 -0.0696 -0.5888 -0.0930
 4628TIP3    H135519   5.919   4.296   6.082  0.4253 -0.1685  0.1816
 4628TIP3    H235520   5.843   4.227   6.193  0.0153 -0.7662 -0.4611
 4629TIP3   OH235521   3.806   1.836   7.457  0.2074  0.1553 -0.0865
 4629TIP3    H135522   3.733   1.883   7.497 -0.4362 -0.2502 -0.7625
 4629TIP3    H235523   3.815   1.877   7.370  1.9588  1.4298  0.6380
 4630TIP3   OH235524   5.526   4.625   1.720 -0.2830  0.1110  0.2694
 4630TIP3    H135525   5.556   4.707   1.681 -1.8086 -0.0331 -1.2862
 4630TIP3    H235526   5.435   4.641   1.744 -0.7677 -1.2608 -0.5289
 4631TIP3   OH235527   1.717   1.248   1.101  0.2896  0.0151  0.4554
 4631TIP3    H135528   1.674   1.189   1.164  1.0462  0.8682  1.8175
 4631TIP3    H235529   1.644   1.291   1.056 -0.2783 -0.2590  1.0841
 4632TIP3   OH235530   6.705   2.715   0.738  0.1092 -0.0050  0.7288
 4632TIP3    H135531   6.774   2.651   0.720  0.7456  0.9701 -0.4557
 4632TIP3    H235532   6.668   2.688   0.822  0.5564 -1.7330  0.4024
 4633TIP3   OH235533   1.489   5.852   1.583 -0.2688  0.4623 -0.2567
 4633TIP3    H135534   1.495   5.759   1.561 -3.7186 -0.3661  1.6545
 4633TIP3    H235535   1.498   5.855   1.678  0.1148  2.1867 -0.3019
 4634TIP3   OH235536   6.795   5.956   7.025  0.3883  0.3149  0.1481
 4634TIP3    H135537   6.730   5.901   6.982  0.7527 -0.3568  0.4346
 4634TIP3    H235538   6.869   5.898   7.041  0.1443  0.4454  1.9800
 4635TIP3   OH235539   2.516   6.809   6.208  0.3486 -0.2608 -0.0866
 4635TIP3    H135540   2.598   6.856   6.224  0.3814  0.0293 -1.0304
 4635TIP3    H235541   2.541   6.716   6.212  0.6411 -0.1777  0.0445
 4636TIP3   OH235542   1.377   5.990   7.103 -0.4357 -0.0302 -0.1962
 4636TIP3    H135543   1.326   5.909   7.109 -1.5468  0.5634 -1.1619
 4636TIP3    H235544   1.370   6.015   7.011 -0.5503  1.4438  0.1941
 4637TIP3   OH235545   5.900   1.685   8.378  0.5766 -0.1688  0.0338
 4637TIP3    H135546   5.841   1.705   8.451  0.8785  0.7854  0.0278
 4637TIP3    H235547   5.862   1.730   8.303 -0.0197 -1.5825 -0.5376
 4638TIP3   OH235548   6.419   5.892   7.559  0.1794 -0.3397  1.1452
 4638TIP3    H135549   6.388   5.814   7.604 -1.1300 -0.6304 -0.2043
 4638TIP3    H235550   6.340   5.941   7.538  0.9071  0.7789  0.9223
 4639TIP3   OH235551   0.235   0.486   0.368 -0.3981 -0.1805  0.1637
 4639TIP3    H135552   0.311   0.444   0.409  0.0823 -0.3444 -0.8445
 4639TIP3    H235553   0.203   0.421   0.306 -1.5128 -0.1914  0.7260
 4640TIP3   OH235554   4.543   2.125   0.632  0.1788 -0.3687 -0.2723
 4640TIP3    H135555   4.603   2.104   0.561  0.7903  1.4121 -0.3279
 4640TIP3    H235556   4.599   2.144   0.706 -0.2925  1.2750 -0.3123
 4641TIP3   OH235557   2.358   4.450   1.404  0.3035  0.6086  0.0859
 4641TIP3    H135558   2.404   4.508   1.465 -1.0020  1.8734 -0.0827
 4641TIP3    H235559   2.411   4.452   1.324  0.9865  0.4828  0.5280
 4642TIP3   OH235560   6.375   4.695   7.811 -0.1722 -0.3159  0.0149
 4642TIP3    H135561   6.401   4.619   7.759  1.3964 -0.6127  1.1504
 4642TIP3    H235562   6.331   4.753   7.749  1.7293 -0.6024 -1.6934
 4643TIP3   OH235563   2.342   2.048   0.350  0.4839 -0.1138 -0.2569
 4643TIP3    H135564   2.289   2.062   0.428  0.1854 -0.2427 -0.4358
 4643TIP3    H235565   2.398   2.125   0.345  1.0411 -0.4548  0.5105
 4644TIP3   OH235566   2.550   1.604   8.215  0.5518 -0.7771 -0.1938
 4644TIP3    H135567   2.618   1.570   8.157 -0.2221  0.3621 -1.8738
 4644TIP3    H235568   2.516   1.681   8.169 -1.2144 -0.7665  1.0236
 4645TIP3   OH235569   4.176   3.821   6.217  0.0548  0.5361 -0.0590
 4645TIP3    H135570   4.117   3.766   6.269 -0.4817  0.5085 -0.6749
 4645TIP3    H235571   4.129   3.905   6.210  1.0894  1.2721  1.3042
 4646TIP3   OH235572   4.743   1.363   7.949 -0.4207 -0.0496 -0.4863
 4646TIP3    H135573   4.759   1.328   7.862  1.4211  0.8413 -0.5424
 4646TIP3    H235574   4.731   1.457   7.935  1.1691  0.3074  0.3132
 4647TIP3   OH235575   2.836   2.674   1.373  0.4701  0.4995  0.0826
 4647TIP3    H135576   2.856   2.596   1.321  1.5900  0.8793 -0.0844
 4647TIP3    H235577   2.887   2.662   1.453 -1.3916 -0.1730  1.2281
 4648TIP3   OH235578   0.457   1.945   1.495 -0.1404 -0.3967 -0.1640
 4648TIP3    H135579   0.409   1.905   1.422 -0.8513  0.1749 -0.0258
 4648TIP3    H235580   0.510   2.013   1.455 -0.1759 -0.3923 -0.2036
 4649TIP3   OH235581   5.780   3.448   1.452  1.5348  0.4176  0.0354
 4649TIP3    H135582   5.772   3.500   1.532  0.5948 -0.6483  0.6716
 4649TIP3    H235583   5.813   3.363   1.482  2.3239  0.3837 -0.8763
 4650TIP3   OH235584   4.984   5.334   7.450 -0.4202 -0.6691  1.1184
 4650TIP3    H135585   4.920   5.391   7.494  1.2694  1.1174  1.4031
 4650TIP3    H235586   5.065   5.345   7.500  0.2468 -2.5853  0.5515
 4651TIP3   OH235587   4.795   4.964   2.198  0.3629 -0.8110 -0.2374
 4651TIP3    H135588   4.756   4.883   2.231 -0.9050  0.2830  1.0963
 4651TIP3    H235589   4.721   5.013   2.162  0.7592  0.5746  0.7583
 4652TIP3   OH235590   5.147   4.485   8.508  0.5231 -0.1149 -0.3919
 4652TIP3    H135591   5.241   4.467   8.508  0.3445 -1.2136 -1.2285
 4652TIP3    H235592   5.114   4.439   8.430 -0.7079  0.2376 -0.1083
 4653TIP3   OH235593   6.674   0.790   8.653 -0.5075 -0.0739  1.1017
 4653TIP3    H135594   6.753   0.785   8.706 -0.6524 -0.5996  1.2712
 4653TIP3    H235595   6.624   0.864   8.689 -0.3222 -0.0474  1.2998
 4654TIP3   OH235596   5.491   5.025   7.364  0.9180 -0.2314  0.3655
 4654TIP3    H135597   5.562   4.990   7.309  1.2223 -0.4858  0.9153
 4654TIP3    H235598   5.522   5.111   7.391 -0.1455  0.8396 -1.5961
 4655TIP3   OH235599   4.208   3.111   6.566 -0.9106 -0.0972  0.0056
 4655TIP3    H135600   4.127   3.097   6.614 -1.8406 -0.8418 -1.6732
 4655TIP3    H235601   4.192   3.193   6.517 -0.5775 -0.1360 -0.1697
 4656TIP3   OH235602   3.725   4.804   0.671 -0.2328  0.4820 -0.3155
 4656TIP3    H135603   3.656   4.804   0.737  1.7481  0.0726  1.8967
 4656TIP3    H235604   3.698   4.737   0.608 -1.9487  0.5108  0.3443
 4657TIP3   OH235605   3.568   1.511   0.729 -0.1797  0.3626 -0.1016
 4657TIP3    H135606   3.597   1.589   0.681 -0.2517 -0.2426 -1.1535
 4657TIP3    H235607   3.596   1.437   0.675  2.1947 -0.5001  2.1104
 4658TIP3   OH235608   5.381   1.530   1.249 -0.2088 -0.2851 -1.1963
 4658TIP3    H135609   5.328   1.603   1.216 -0.0075  0.5804  0.2966
 4658TIP3    H235610   5.341   1.507   1.332 -0.6237 -2.3269 -1.9013
 4659TIP3   OH235611   6.017   6.053   6.660  0.0267  0.3848  0.7260
 4659TIP3    H135612   6.067   5.977   6.630  1.6587  1.7830 -0.2752
 4659TIP3    H235613   5.927   6.021   6.666  0.6910 -1.6711  0.5307
 4660TIP3   OH235614   5.066   0.110   0.515  0.2250  0.2692 -0.3306
 4660TIP3    H135615   5.000   0.046   0.542  0.3672  0.1699 -0.2222
 4660TIP3    H235616   5.016   0.191   0.502 -0.2369 -0.2449 -2.0620
 4661TIP3   OH235617   5.795   5.707   1.030  0.4533 -0.0197 -0.6142
 4661TIP3    H135618   5.883   5.715   1.068  0.1018 -0.7093  0.4212
 4661TIP3    H235619   5.736   5.714   1.106 -0.4872  1.8603 -1.4542
 4662TIP3   OH235620   6.661   1.531   0.017  0.0878 -0.2363 -0.4242
 4662TIP3    H135621   6.566   1.536   0.018  0.0857  0.4868  2.1351
 4662TIP3    H235622   6.681   1.477  -0.059 -2.3808 -0.8971 -0.7010
 4663TIP3   OH235623   4.153   4.717   1.071 -0.0214  0.1384 -0.3187
 4663TIP3    H135624   4.137   4.687   1.161 -1.4843 -1.6885 -1.1113
 4663TIP3    H235625   4.161   4.636   1.020 -1.6989  1.0612 -2.2008
 4664TIP3   OH235626   0.039   5.094   6.868  0.2976  0.4874  0.1841
 4664TIP3    H135627  -0.040   5.141   6.893  0.3538  0.9933 -0.5551
 4664TIP3    H235628   0.107   5.161   6.866  0.4614  0.3003 -0.5102
 4665TIP3   OH235629   5.922   4.052   7.571  0.1283 -0.0807  0.8424
 4665TIP3    H135630   5.951   4.071   7.482  1.6891  2.0809  1.7413
 4665TIP3    H235631   5.958   3.965   7.589  0.3195 -0.2825 -0.4200
 4666TIP3   OH235632   1.664   1.752   1.621 -0.0127  0.1857  0.1181
 4666TIP3    H135633   1.751   1.730   1.656 -0.2695  1.1427  1.4287
 4666TIP3    H235634   1.605   1.689   1.662 -0.0124 -0.2291 -0.4930
 4667TIP3   OH235635   6.508   4.533   0.850 -0.1985 -0.2997  0.2419
 4667TIP3    H135636   6.537   4.515   0.939  0.5752  0.5555  0.1826
 4667TIP3    H235637   6.574   4.489   0.795 -0.9067 -1.1836  0.0774
 4668TIP3   OH235638   3.675   1.500   7.197  0.1843 -0.4053 -0.3565
 4668TIP3    H135639   3.656   1.418   7.152  0.1324 -0.0828 -0.9288
 4668TIP3    H235640   3.589   1.541   7.207  0.1676 -0.5699  0.2333
 4669TIP3   OH235641   1.971   6.519   6.481  0.1894 -0.0130  0.2811
 4669TIP3    H135642   1.936   6.508   6.569  1.0319  0.9758  0.7587
 4669TIP3    H235643   1.910   6.577   6.437 -1.0716 -1.7048 -0.3284
 4670TIP3   OH235644   3.465   1.427   8.130  0.6688 -0.1308 -0.1381
 4670TIP3    H135645   3.370   1.427   8.128  0.6678  0.4189 -0.1674
 4670TIP3    H235646   3.488   1.347   8.179  0.1394  1.2051  2.4786
 4671TIP3   OH235647   5.848   3.725   1.869  0.4232 -0.1148  0.4136
 4671TIP3    H135648   5.861   3.632   1.853 -2.2437 -0.4059 -0.6279
 4671TIP3    H235649   5.865   3.736   1.962  2.5519 -1.2318  0.2212
 4672TIP3   OH235650   2.403   3.630   1.362 -0.7970  0.1676  0.1017
 4672TIP3    H135651   2.326   3.686   1.371 -1.6323 -1.0183  0.6625
 4672TIP3    H235652   2.476   3.685   1.389 -1.7315  0.6408  1.8371
 4673TIP3   OH235653   3.627   6.761   0.262 -0.2647  0.0539 -0.1534
 4673TIP3    H135654   3.669   6.829   0.315  1.1389 -0.0558 -1.0708
 4673TIP3    H235655   3.699   6.705   0.234 -1.0426 -0.1951 -1.7361
 4674TIP3   OH235656   4.037   3.459   8.724 -0.1734 -0.2450 -0.4724
 4674TIP3    H135657   4.017   3.370   8.753  0.7870 -0.3782 -0.1732
 4674TIP3    H235658   4.133   3.462   8.720 -0.1987  0.7241 -0.6400
 4675TIP3   OH235659   6.004   4.212   1.662 -0.1941 -0.4011  0.2622
 4675TIP3    H135660   5.971   4.140   1.608  1.0710 -1.2025  0.5007
 4675TIP3    H235661   6.068   4.257   1.607 -0.9107  0.5026  0.1494
 4676TIP3   OH235662   4.164   2.845   7.342  0.3296  0.1138 -0.2737
 4676TIP3    H135663   4.072   2.822   7.329  0.1148  0.5141  0.4608
 4676TIP3    H235664   4.182   2.912   7.276 -0.9797  2.7738  1.8569
 4677TIP3   OH235665   2.466   5.375   8.226  0.5786 -0.2242  0.3991
 4677TIP3    H135666   2.451   5.342   8.315  1.6601 -1.1913  0.2417
 4677TIP3    H235667   2.538   5.436   8.236  2.0436 -1.8063 -0.0789
 4678TIP3   OH235668   5.672   3.879   1.729 -0.2205  0.4155  0.4346
 4678TIP3    H135669   5.731   3.832   1.787 -1.5781  0.7281  2.1468
 4678TIP3    H235670   5.678   3.970   1.758  0.2299  0.8530 -0.9620
 4679TIP3   OH235671   3.786   5.644   7.880 -0.1340  0.3427 -0.3624
 4679TIP3    H135672   3.837   5.721   7.903  0.2369 -0.3777  1.3625
 4679TIP3    H235673   3.842   5.570   7.902 -0.6729 -0.4441 -1.5276
 4680TIP3   OH235674   0.347   1.211   6.720  0.3039  0.3950 -0.2345
 4680TIP3    H135675   0.361   1.195   6.627  0.7526  1.3233 -0.3374
 4680TIP3    H235676   0.364   1.304   6.731 -0.8742  0.5260  0.5798
 4681TIP3   OH235677   2.287   0.690   6.683  0.0313  0.6736  0.1846
 4681TIP3    H135678   2.332   0.758   6.633 -0.9866  3.5678  2.8544
 4681TIP3    H235679   2.194   0.711   6.673 -0.3476 -0.6470  0.6933
 4682TIP3   OH235680   4.733   3.928   7.550 -0.6885 -0.9780  0.1755
 4682TIP3    H135681   4.674   3.973   7.610 -1.2787 -0.0506 -1.0452
 4682TIP3    H235682   4.778   3.999   7.503 -0.8416 -1.6524 -1.0398
 4683TIP3   OH235683   6.115   1.934   2.062 -0.2807 -0.1784 -0.3774
 4683TIP3    H135684   6.165   1.917   2.142  0.7322  1.2021 -0.6672
 4683TIP3    H235685   6.114   1.850   2.016  0.7403 -0.5365  0.2102
 4684TIP3   OH235686   2.135   4.427   8.293 -0.3879 -0.3125 -0.6633
 4684TIP3    H135687   2.174   4.340   8.294 -0.3463 -0.3112 -1.6047
 4684TIP3    H235688   2.041   4.412   8.306 -0.3121 -0.4516 -0.2707
 4685TIP3   OH235689   2.441   3.307   0.030 -0.3710 -0.2886 -0.0417
 4685TIP3    H135690   2.472   3.397   0.037 -0.3692 -0.0709 -2.3706
 4685TIP3    H235691   2.348   3.314   0.009 -0.3050 -0.8166 -0.5451
 4686TIP3   OH235692   4.174   0.114   7.550 -0.1206  0.5039  0.0342
 4686TIP3    H135693   4.203   0.161   7.472  0.8949  1.5189  0.9751
 4686TIP3    H235694   4.254   0.075   7.585 -0.7094 -0.6892  0.1072
 4687TIP3   OH235695   2.968   6.542   8.565 -0.0915 -0.3098 -0.0395
 4687TIP3    H135696   3.014   6.573   8.643 -1.0988  1.2435 -0.0331
 4687TIP3    H235697   2.892   6.496   8.599  0.3490 -1.0950 -0.0931
 4688TIP3   OH235698   2.559   0.320   0.481  0.0929  0.0765 -0.1361
 4688TIP3    H135699   2.539   0.293   0.391  1.1137 -1.1665 -0.0203
 4688TIP3    H235700   2.473   0.328   0.522 -0.4311  1.2970 -1.3640
 4689TIP3   OH235701   5.590   4.377   1.825 -0.3477  0.2046 -0.0375
 4689TIP3    H135702   5.559   4.448   1.769 -0.4115  0.2906  0.1055
 4689TIP3    H235703   5.638   4.421   1.895  1.2451  0.0178 -0.9551
 4690TIP3   OH235704   2.562   1.417   7.227 -0.2287 -0.3599  0.3960
 4690TIP3    H135705   2.627   1.481   7.197 -1.8439  1.2239  0.1536
 4690TIP3    H235706   2.484   1.435   7.174 -1.7221 -0.4689  2.4427
 4691TIP3   OH235707   0.830   1.199   7.791 -0.2178 -0.1756  0.1431
 4691TIP3    H135708   0.805   1.135   7.724 -0.0034  1.5476 -1.6632
 4691TIP3    H235709   0.797   1.282   7.758  1.2171  0.9675  1.4613
 4692TIP3   OH235710   0.575   5.204   7.560 -0.5007 -0.5018  0.1653
 4692TIP3    H135711   0.522   5.166   7.489 -1.8729  0.2389  0.7418
 4692TIP3    H235712   0.624   5.275   7.518 -1.1021 -0.2427 -0.1234
 4693TIP3   OH235713   3.255   4.161   1.566 -0.4742 -0.7133  0.3752
 4693TIP3    H135714   3.271   4.066   1.573 -0.6105 -0.9477 -1.7506
 4693TIP3    H235715   3.343   4.200   1.570 -0.5060 -0.7605  2.6642
 4694TIP3   OH235716   4.546   5.227   8.246  0.0975  0.0782 -0.0307
 4694TIP3    H135717   4.628   5.203   8.289  0.2703  2.0194  0.8474
 4694TIP3    H235718   4.564   5.314   8.208 -0.8341 -0.5010 -1.9224
 4695TIP3   OH235719   1.465   0.547   0.707 -0.2875  0.4696 -0.4762
 4695TIP3    H135720   1.557   0.527   0.722 -0.3618 -1.4400 -2.0164
 4695TIP3    H235721   1.466   0.623   0.650  0.2943  0.9570  0.1682
 4696TIP3   OH235722   4.779   2.229   2.498 -0.0871 -0.3786 -0.0990
 4696TIP3    H135723   4.852   2.176   2.531 -1.6915 -1.7016  1.5201
 4696TIP3    H235724   4.801   2.246   2.406  1.2923 -2.4651 -0.2099
 4697TIP3   OH235725   5.648   1.324   7.729  0.5978  0.0958 -0.4348
 4697TIP3    H135726   5.634   1.336   7.635  0.7409  2.4741 -0.2149
 4697TIP3    H235727   5.600   1.244   7.750 -1.7416  0.9442 -2.0558
 4698TIP3   OH235728   6.013   1.400   8.537  0.9663  0.2705 -0.2318
 4698TIP3    H135729   6.075   1.430   8.471  1.5352 -1.1882 -0.3960
 4698TIP3    H235730   5.927   1.425   8.502  1.3994  1.5257 -0.4198
 4699TIP3   OH235731   6.334   2.386   6.880 -0.4300  0.0820 -0.3740
 4699TIP3    H135732   6.270   2.450   6.846 -0.0051  1.7908  1.7927
 4699TIP3    H235733   6.413   2.402   6.828 -0.5002  0.9517 -0.2282
 4700TIP3   OH235734   2.207   3.571   0.574  0.0720 -0.0267  0.4918
 4700TIP3    H135735   2.274   3.555   0.640 -0.2797 -0.3144  0.7805
 4700TIP3    H235736   2.216   3.499   0.512  0.0950 -0.0118  0.4778
 4701TIP3   OH235737   1.964   4.314   1.554  0.1988 -1.0265  0.6671
 4701TIP3    H135738   1.868   4.315   1.552  0.1771 -0.7992  1.5290
 4701TIP3    H235739   1.989   4.406   1.556  0.4592 -1.0725 -0.0554
 4702TIP3   OH235740   0.379   3.651   0.420 -0.2514  0.5794 -1.0945
 4702TIP3    H135741   0.291   3.689   0.423  0.6792  2.8848 -1.1215
 4702TIP3    H235742   0.400   3.632   0.512  0.3791  2.9963 -0.6777
 4703TIP3   OH235743   4.147   1.970   0.565 -0.4168 -0.0592 -0.0451
 4703TIP3    H135744   4.057   2.002   0.561 -0.2312  0.4852  0.0150
 4703TIP3    H235745   4.189   2.008   0.488  0.4237  1.8212  1.2642
 4704TIP3   OH235746   5.637   5.589   0.777 -0.0506  0.8493 -0.1458
 4704TIP3    H135747   5.717   5.536   0.786 -0.3072  0.8068  2.4334
 4704TIP3    H235748   5.663   5.676   0.807 -1.1547  0.6142  1.5935
 4705TIP3   OH235749   2.421   4.487   0.346 -0.0601 -0.3348  0.6530
 4705TIP3    H135750   2.487   4.556   0.334 -1.9993  1.6258  0.7068
 4705TIP3    H235751   2.423   4.438   0.264  0.0996  0.9564 -0.1443
 4706TIP3   OH235752   0.033   5.421   7.082 -0.1899  0.4557  0.8884
 4706TIP3    H135753   0.070   5.461   7.004 -0.8896 -0.5420  0.0159
 4706TIP3    H235754   0.080   5.338   7.091 -0.9030  0.0384  0.8479
 4707TIP3   OH235755   3.862   1.319   2.268  0.0081  0.3523  0.1617
 4707TIP3    H135756   3.831   1.273   2.189  1.0421 -0.7951  0.3953
 4707TIP3    H235757   3.783   1.331   2.320 -0.3350 -1.1344  0.0502
 4708TIP3   OH235758   5.477   1.174   7.246  0.0260  0.4080 -0.1453
 4708TIP3    H135759   5.419   1.102   7.221  0.7359  0.0942 -0.9352
 4708TIP3    H235760   5.556   1.131   7.280  0.1200  0.8280  0.1868
 4709TIP3   OH235761   6.567   5.970   7.243  0.3334 -0.6460  0.4635
 4709TIP3    H135762   6.518   6.049   7.220  1.5419 -0.0966 -0.3308
 4709TIP3    H235763   6.658   5.999   7.248  0.7715 -1.9409  0.3934
 4710TIP3   OH235764   3.424   4.706   6.448  0.0169 -0.3357 -0.2352
 4710TIP3    H135765   3.345   4.692   6.396  0.0569  1.6070 -0.8891
 4710TIP3    H235766   3.477   4.766   6.396  0.6165  0.7243  1.5055
 4711TIP3   OH235767   6.659   0.653   0.935 -0.5839 -0.4133  0.4797
 4711TIP3    H135768   6.737   0.692   0.975 -0.0725 -1.4102  0.4846
 4711TIP3    H235769   6.600   0.727   0.920  1.8181  1.1068 -3.0599
 4712TIP3   OH235770   1.533   2.969   0.465 -0.1359 -0.1753 -0.7886
 4712TIP3    H135771   1.510   3.036   0.529 -1.7217  0.1181 -1.6226
 4712TIP3    H235772   1.575   3.018   0.394  2.5793 -0.6181  0.3893
 4713TIP3   OH235773   4.611   0.839   8.105  0.1579  0.1295  0.0979
 4713TIP3    H135774   4.675   0.904   8.076  0.3234 -0.3105 -0.5462
 4713TIP3    H235775   4.531   0.860   8.056  0.0429  0.1850  0.3051
 4714TIP3   OH235776   6.260   6.362   0.876 -0.2301 -0.3340  0.2484
 4714TIP3    H135777   6.235   6.276   0.841 -0.5948 -0.9938  2.0025
 4714TIP3    H235778   6.187   6.419   0.851  0.3429 -0.3268 -1.5471
 4715TIP3   OH235779   0.409   5.630   1.761  0.1905 -0.7189 -0.2721
 4715TIP3    H135780   0.476   5.665   1.702  0.0384 -1.5994 -0.9948
 4715TIP3    H235781   0.455   5.616   1.844  0.8966 -1.2604 -0.7453
 4716TIP3   OH235782   6.685   0.251   6.417 -0.4992 -0.3240 -0.0119
 4716TIP3    H135783   6.674   0.225   6.325  2.6960  3.2313 -1.6890
 4716TIP3    H235784   6.780   0.255   6.429 -0.8396 -0.1039  3.3242
 4717TIP3   OH235785   1.382   0.984   0.341  0.0252 -0.6115  0.1859
 4717TIP3    H135786   1.295   0.991   0.303  0.7879 -0.9630 -1.7309
 4717TIP3    H235787   1.390   1.062   0.396 -0.9617  0.1673 -0.7354
 4718TIP3   OH235788   2.045   2.193   6.715  0.3223  0.1735 -0.1575
 4718TIP3    H135789   2.044   2.186   6.619  1.1508 -0.9774 -0.0975
 4718TIP3    H235790   2.119   2.140   6.742  0.1504  0.5682  1.1341
 4719TIP3   OH235791   3.217   3.455   1.038  0.2089 -0.1353 -0.2330
 4719TIP3    H135792   3.191   3.507   0.962  0.7559  2.1493  1.0396
 4719TIP3    H235793   3.179   3.502   1.113  0.3301 -1.8742  0.9655
 4720TIP3   OH235794   5.294   1.284   8.577  0.0171  0.6504 -0.3857
 4720TIP3    H135795   5.198   1.278   8.572  0.0080  0.9723 -0.6164
 4720TIP3    H235796   5.316   1.361   8.525  0.3672  0.8407  0.0302
 4721TIP3   OH235797   2.836   4.025   7.718  0.3240 -0.1569  0.7385
 4721TIP3    H135798   2.852   4.090   7.650  0.7463  0.7730  1.6985
 4721TIP3    H235799   2.793   3.953   7.672 -0.6234  0.9881 -0.2639
 4722TIP3   OH235800   1.986   3.084   7.129 -0.0345 -0.0940  0.2994
 4722TIP3    H135801   2.025   2.998   7.141 -3.2132 -1.5834  1.0200
 4722TIP3    H235802   2.036   3.123   7.057  2.6532 -1.7477  1.1383
 4723TIP3   OH235803   3.617   0.223   7.868  0.1663  0.0444  0.4761
 4723TIP3    H135804   3.596   0.136   7.902 -0.2130 -0.8258 -1.8598
 4723TIP3    H235805   3.565   0.233   7.789  1.4068  1.7492 -0.2116
 4724TIP3   OH235806   1.018   0.235   0.807  0.3543 -0.2184 -0.1303
 4724TIP3    H135807   0.986   0.262   0.721 -0.7300 -1.3173 -0.0972
 4724TIP3    H235808   1.108   0.205   0.790  0.0235 -0.7760 -0.9473
 4725TIP3   OH235809   0.101   5.852   8.645 -0.6460 -0.5366  0.4810
 4725TIP3    H135810   0.197   5.846   8.644 -0.5742  0.5409  0.1834
 4725TIP3    H235811   0.072   5.764   8.621  0.3170 -0.3247 -1.7780
 4726TIP3   OH235812   4.929   2.020   6.971 -0.4515 -0.6453 -0.4922
 4726TIP3    H135813   4.838   1.993   6.976 -0.2923 -0.9820  0.9196
 4726TIP3    H235814   4.958   1.991   6.884 -1.3105 -1.7289 -0.4323
 4727TIP3   OH235815   2.714   1.363   6.917 -0.1566 -0.1712 -0.4153
 4727TIP3    H135816   2.770   1.370   6.840 -0.4727 -1.2499 -0.7702
 4727TIP3    H235817   2.627   1.343   6.882 -0.0160 -2.1754  0.2215
 4728TIP3   OH235818   5.932   3.766   8.532  0.6502 -0.1061 -0.2688
 4728TIP3    H135819   5.933   3.862   8.525  0.2745 -0.2109 -2.7575
 4728TIP3    H235820   6.006   3.738   8.478  0.9580 -1.2259  0.7177
 4729TIP3   OH235821   3.437   2.539   2.555  0.1274 -0.2623  0.0240
 4729TIP3    H135822   3.521   2.503   2.529  1.1295  1.1424  1.1325
 4729TIP3    H235823   3.427   2.618   2.501  0.3785  0.5211  1.0808
 4730TIP3   OH235824   1.077   1.915   7.865 -0.1839  0.2036 -0.2905
 4730TIP3    H135825   1.000   1.889   7.814  0.7334 -0.1802 -1.5248
 4730TIP3    H235826   1.043   1.930   7.953 -1.7352  0.3940 -0.8833
 4731TIP3   OH235827   6.239   6.297   7.721  0.1215 -0.4557 -0.0383
 4731TIP3    H135828   6.300   6.239   7.676  0.3017 -0.1911 -0.1379
 4731TIP3    H235829   6.187   6.336   7.650 -1.0552 -1.6627  0.1184
 4732TIP3   OH235830   4.304   4.932   1.069 -0.3202 -0.3446 -0.2453
 4732TIP3    H135831   4.244   4.942   1.143 -1.3638  0.2065 -1.1367
 4732TIP3    H235832   4.272   4.854   1.023 -0.5410  0.1082 -0.8794
 4733TIP3   OH235833   3.922   1.193   8.230  0.4049  0.3479  0.0531
 4733TIP3    H135834   3.887   1.129   8.292  1.3759 -0.0698  0.1847
 4733TIP3    H235835   3.971   1.255   8.284 -0.2152  1.0021 -0.1160
 4734TIP3   OH235836   3.134   1.697   7.603 -0.7618  0.1861 -0.0804
 4734TIP3    H135837   3.210   1.733   7.558  0.6206 -2.6269 -0.2428
 4734TIP3    H235838   3.080   1.773   7.624  0.5374  2.0233 -2.7707
 4735TIP3   OH235839   1.878   3.394   6.747 -0.4735  0.6777  0.5918
 4735TIP3    H135840   1.913   3.365   6.831  0.8208 -0.6940 -0.3820
 4735TIP3    H235841   1.944   3.454   6.712 -0.0782 -0.2709 -0.3080
 4736TIP3   OH235842   6.631   2.935   7.261 -0.2120 -0.0891 -0.5197
 4736TIP3    H135843   6.622   3.026   7.232  0.1674 -0.3817 -1.5954
 4736TIP3    H235844   6.592   2.884   7.191 -0.0444 -0.7819 -0.1140
 4737TIP3   OH235845   3.862   3.826   1.950 -0.4544  0.1906  0.1883
 4737TIP3    H135846   3.918   3.797   1.879 -1.5659  1.1313 -1.1249
 4737TIP3    H235847   3.811   3.899   1.913 -1.7595  0.0807  1.6339
 4738TIP3   OH235848   3.254   5.500   8.271  0.1658  0.6090  0.3301
 4738TIP3    H135849   3.322   5.433   8.279  0.2102  0.7428  1.1709
 4738TIP3    H235850   3.299   5.574   8.229 -0.1507 -0.2388 -1.5956
 4739TIP3   OH235851   5.169   1.289   7.157  0.3262 -0.3636 -0.2530
 4739TIP3    H135852   5.115   1.211   7.173 -0.2599  0.3090  1.2934
 4739TIP3    H235853   5.218   1.301   7.239 -1.0607  1.9776  0.3250
 4740TIP3   OH235854   4.261   5.776   6.298 -0.1820  0.8618 -0.4521
 4740TIP3    H135855   4.174   5.738   6.305  0.4035 -0.7808 -1.4104
 4740TIP3    H235856   4.296   5.741   6.216  2.1488 -0.2638  0.9294
 4741TIP3   OH235857   2.710   4.744   0.033 -0.2817 -0.8816  0.0681
 4741TIP3    H135858   2.755   4.660   0.040  0.6067 -0.4046  0.2956
 4741TIP3    H235859   2.775   4.803  -0.005 -0.7531 -0.1914  0.3048
 4742TIP3   OH235860   1.544   1.055   8.737 -0.4920  0.7466  0.4488
 4742TIP3    H135861   1.544   1.029   8.645  1.6848  0.4134  0.4931
 4742TIP3    H235862   1.453   1.077   8.756 -1.0636  0.3658 -1.6454
 4743TIP3   OH235863   4.886   0.045   1.487  0.3053  0.1843 -0.2690
 4743TIP3    H135864   4.843   0.066   1.570 -0.9916 -0.8119 -0.6442
 4743TIP3    H235865   4.835   0.092   1.421 -0.9722 -1.8231 -0.8347
 4744TIP3   OH235866   1.328   1.998   8.522  0.0687 -0.2311  0.0398
 4744TIP3    H135867   1.423   2.012   8.521  0.1337 -0.2270  2.3416
 4744TIP3    H235868   1.295   2.054   8.451  1.9010 -1.6316 -2.0439
 4745TIP3   OH235869   0.119   3.368   1.272 -0.3984 -0.5543 -0.3465
 4745TIP3    H135870   0.150   3.277   1.271  1.2089 -0.0443  0.1577
 4745TIP3    H235871   0.199   3.420   1.271 -1.2195  0.8575  1.5810
 4746TIP3   OH235872   2.278   6.313   6.890 -0.2386  0.2911 -0.2167
 4746TIP3    H135873   2.195   6.268   6.872  0.0766  0.2753 -1.7501
 4746TIP3    H235874   2.342   6.267   6.836  0.7107  0.5309  0.6922
 4747TIP3   OH235875   1.192   6.817   8.744  0.6430  0.2374  0.0950
 4747TIP3    H135876   1.278   6.849   8.715  0.5917  0.7010  0.4432
 4747TIP3    H235877   1.159   6.885   8.802  0.5228 -0.4448  0.8527
 4748TIP3   OH235878   2.845   5.259   8.740  0.4424  0.1065 -0.2422
 4748TIP3    H135879   2.904   5.285   8.811 -0.6599 -0.7960  1.0633
 4748TIP3    H235880   2.817   5.342   8.700  0.8716  0.6504  0.5592
 4749TIP3   OH235881   4.606   1.926   7.387  0.2913  0.0770  0.1400
 4749TIP3    H135882   4.611   1.838   7.423 -0.7270  0.4614  1.2988
 4749TIP3    H235883   4.691   1.965   7.405  0.8467 -0.7494 -0.6423
 4750TIP3   OH235884   4.388   4.979   8.358 -0.2055 -0.2491 -1.0173
 4750TIP3    H135885   4.295   4.974   8.338 -0.8450 -0.9669  1.6565
 4750TIP3    H235886   4.405   5.073   8.370 -1.5087 -0.2764  1.8283
 4751TIP3   OH235887   2.519   4.093   0.205  0.3307  0.0944  0.0318
 4751TIP3    H135888   2.565   4.074   0.123 -1.3686 -0.5534 -0.8338
 4751TIP3    H235889   2.560   4.172   0.238  1.3765  0.1071 -1.2044
 4752TIP3   OH235890   2.666   4.144   7.904 -0.6477 -0.1170 -0.2202
 4752TIP3    H135891   2.658   4.074   7.839 -0.0510  0.3932 -0.8574
 4752TIP3    H235892   2.757   4.173   7.897 -0.7072  0.2748  0.5070
 4753TIP3   OH235893   0.045   4.264   0.793  0.4073 -0.4085 -0.2287
 4753TIP3    H135894   0.073   4.280   0.883 -0.5188  3.2941 -0.4259
 4753TIP3    H235895  -0.016   4.190   0.800  1.7848 -1.4665  1.8105
 4754TIP3   OH235896   0.115   1.551   6.816  0.0616 -0.3306 -0.5153
 4754TIP3    H135897   0.097   1.645   6.806  1.3745  0.1063  0.8609
 4754TIP3    H235898   0.210   1.545   6.807 -0.0383 -1.5917 -0.8725
 4755TIP3   OH235899   1.744   1.212   6.333  0.1593 -0.1377  0.5289
 4755TIP3    H135900   1.745   1.231   6.239  0.1569 -0.0191  0.5526
 4755TIP3    H235901   1.745   1.298   6.375 -1.8524 -0.1084  0.6226
 4756TIP3   OH235902   0.854   4.984   8.596  0.2885  0.2924  0.5006
 4756TIP3    H135903   0.786   4.929   8.635  1.0352 -1.9259 -1.1107
 4756TIP3    H235904   0.827   5.073   8.615 -1.3323 -0.5788  2.7145
 4757TIP3   OH235905   4.881   4.633   1.068  0.0483  0.4426  0.4113
 4757TIP3    H135906   4.977   4.635   1.063  0.0012 -0.0337 -1.7004
 4757TIP3    H235907   4.854   4.716   1.030 -0.3989  0.3521  0.5321
 4758TIP3   OH235908   5.805   1.584   6.850  0.7355 -0.0671 -0.8152
 4758TIP3    H135909   5.790   1.495   6.882  0.5795  0.1579 -0.2540
 4758TIP3    H235910   5.727   1.605   6.799 -0.5630  0.7865  1.3912
 4759TIP3   OH235911   2.728   2.706   7.893  0.6847  0.2452 -0.4775
 4759TIP3    H135912   2.737   2.801   7.885  4.1338  0.2368  1.4990
 4759TIP3    H235913   2.711   2.691   7.986  0.9053 -1.0821 -0.6259
 4760TIP3   OH235914   4.210   0.923   2.075 -0.0168  0.4647  0.1937
 4760TIP3    H135915   4.237   0.985   2.007  2.1456 -0.8508 -0.2518
 4760TIP3    H235916   4.285   0.917   2.134 -0.7806 -0.5374  1.1222
 4761TIP3   OH235917   3.739   2.645   6.104  0.5464  0.1862 -0.1183
 4761TIP3    H135918   3.739   2.607   6.017 -3.3715 -0.9520  0.1448
 4761TIP3    H235919   3.719   2.737   6.090 -1.8975 -0.3213 -0.5213
 4762TIP3   OH235920   5.657   6.173   8.368 -0.8080 -0.2799 -0.0655
 4762TIP3    H135921   5.576   6.129   8.394  0.0266 -1.0914  1.2921
 4762TIP3    H235922   5.721   6.103   8.360 -0.4058  0.2541 -1.9458
 4763TIP3   OH235923   2.325   5.150   7.326  0.2151  0.0796  0.4007
 4763TIP3    H135924   2.236   5.115   7.329  0.7393 -1.4655 -0.9980
 4763TIP3    H235925   2.328   5.202   7.246  0.7882 -0.5219  0.0221
 4764TIP3   OH235926   0.559   3.385   0.038  0.4074  0.1228  1.0375
 4764TIP3    H135927   0.502   3.409  -0.035  0.8181 -0.4910  0.5043
 4764TIP3    H235928   0.583   3.468   0.078  0.1829  0.4673  0.4636
 4765TIP3   OH235929   4.551   6.150   6.969  0.2740 -0.3764 -0.1138
 4765TIP3    H135930   4.482   6.215   6.976  0.2211 -0.5535  1.4002
 4765TIP3    H235931   4.589   6.146   7.057  1.0572 -1.5381 -0.4798
 4766TIP3   OH235932   4.448   1.085   0.926  0.3075  0.2252  0.0465
 4766TIP3    H135933   4.366   1.121   0.960 -0.1719 -0.5896 -0.2298
 4766TIP3    H235934   4.480   1.030   0.997  0.4572  0.2872  0.0278
 4767TIP3   OH235935   2.977   2.009   1.284 -0.3641 -0.0326 -0.5401
 4767TIP3    H135936   2.966   2.045   1.196 -2.4498  0.4061 -0.1507
 4767TIP3    H235937   2.927   1.927   1.283  2.4266 -1.8910 -0.7191
 4768TIP3   OH235938   3.674   2.964   7.487 -0.0248  0.2455 -0.2284
 4768TIP3    H135939   3.644   2.982   7.576 -2.1876 -0.7430 -0.6727
 4768TIP3    H235940   3.752   3.018   7.476  0.6362 -0.0115  2.4315
 4769TIP3   OH235941   0.392   1.363   6.372 -0.1953 -0.0700 -0.2677
 4769TIP3    H135942   0.360   1.316   6.295 -1.9928 -0.8675  0.9171
 4769TIP3    H235943   0.414   1.450   6.339 -0.0787 -0.6507 -1.8374
 4770TIP3   OH235944   6.120   1.383   0.564  1.0775 -0.4907  0.1827
 4770TIP3    H135945   6.033   1.376   0.602  0.5633 -0.6327 -0.9799
 4770TIP3    H235946   6.179   1.391   0.639  0.0930 -0.6502  0.9855
 4771TIP3   OH235947   2.274   1.791   0.423  0.3424 -1.0085  0.2995
 4771TIP3    H135948   2.364   1.822   0.432  0.4107 -1.0820 -0.1115
 4771TIP3    H235949   2.234   1.851   0.360 -0.5825  0.4680  2.1902
 4772TIP3   OH235950   3.159   0.969   7.115  0.0469 -0.3697 -0.4474
 4772TIP3    H135951   3.138   0.958   7.208  0.5805 -1.0512 -0.4005
 4772TIP3    H235952   3.102   1.040   7.086  0.9162  0.8675  0.7573
 4773TIP3   OH235953   3.076   4.795   7.141 -0.0853  0.6142  0.3453
 4773TIP3    H135954   3.049   4.710   7.177 -3.5657  0.9015 -1.2198
 4773TIP3    H235955   3.090   4.778   7.048  2.2175  1.2340  0.5127
 4774TIP3   OH235956   3.778   2.217   1.938  0.6339  0.5120  0.3158
 4774TIP3    H135957   3.706   2.213   2.002  0.6725  0.9362  0.3844
 4774TIP3    H235958   3.832   2.290   1.967  0.4690  0.9271 -0.3988
 4775TIP3   OH235959   1.956   5.372   0.789 -0.2934  0.0796  0.2560
 4775TIP3    H135960   1.895   5.309   0.749  2.1068 -1.0100 -1.9909
 4775TIP3    H235961   1.980   5.333   0.873  0.5343 -1.6725 -0.7412
 4776TIP3   OH235962   5.876   1.823   7.467 -0.2714 -0.1265  0.7074
 4776TIP3    H135963   5.859   1.743   7.418 -1.1391  0.2785  0.3268
 4776TIP3    H235964   5.966   1.846   7.445 -0.9658  0.6343 -1.6317
 4777TIP3   OH235965   6.201   3.643   8.024 -0.5179  0.5511  0.1445
 4777TIP3    H135966   6.184   3.549   8.019 -1.9253  0.8488 -1.9901
 4777TIP3    H235967   6.279   3.657   7.971  0.3951  0.4741  1.4311
 4778TIP3   OH235968   4.185   1.266   6.545 -0.2976  0.0305  0.0619
 4778TIP3    H135969   4.140   1.256   6.628  1.0713 -0.9508  0.7264
 4778TIP3    H235970   4.216   1.357   6.545  0.5576 -0.2352  1.1168
 4779TIP3   OH235971   4.950   3.063   7.039  0.0484 -0.1588  0.3543
 4779TIP3    H135972   4.886   3.007   6.997 -1.5445  2.3271 -0.7744
 4779TIP3    H235973   4.949   3.035   7.131 -0.7466 -1.8604 -0.1349
 4780TIP3   OH235974   5.216   4.122   8.269  0.7004  0.0070 -0.0661
 4780TIP3    H135975   5.234   4.039   8.224  2.2888  1.1077 -1.5909
 4780TIP3    H235976   5.302   4.163   8.279  0.0536  1.0891  1.4966
 4781TIP3   OH235977   6.498   3.687   1.038 -0.0093  0.1985 -0.4030
 4781TIP3    H135978   6.483   3.629   1.113  2.3549 -0.8309 -0.6342
 4781TIP3    H235979   6.535   3.766   1.077 -0.9235  0.5959 -0.3128
 4782TIP3   OH235980   6.704   3.806   1.750  0.1300 -0.0062 -0.2448
 4782TIP3    H135981   6.759   3.736   1.714  0.1049  0.3182 -0.9304
 4782TIP3    H235982   6.644   3.761   1.810 -0.7529 -0.7699 -1.6534
 4783TIP3   OH235983   5.623   3.489   6.830  0.3389  0.3442 -0.2742
 4783TIP3    H135984   5.709   3.531   6.836  0.7539 -0.6578  1.2088
 4783TIP3    H235985   5.572   3.548   6.774  1.7418  1.3570 -0.5495
 4784TIP3   OH235986   4.461   3.917   0.118 -0.0805 -0.1890  0.2473
 4784TIP3    H135987   4.388   3.905   0.179  0.7514  0.0145  1.3268
 4784TIP3    H235988   4.459   4.010   0.096 -0.1990 -0.2022  0.2034
 4785TIP3   OH235989   4.708   0.460   7.463  0.2808 -0.2821 -0.2673
 4785TIP3    H135990   4.726   0.464   7.557  1.2895 -0.2686 -0.4477
 4785TIP3    H235991   4.634   0.519   7.450  0.9250  0.6918  0.3422
 4786TIP3   OH235992   6.139   0.815   6.231 -0.2693 -0.6631  0.8049
 4786TIP3    H135993   6.121   0.847   6.143 -0.4297 -2.3075  0.2108
 4786TIP3    H235994   6.235   0.818   6.238 -0.2564 -0.5177  0.5785
 4787TIP3   OH235995   5.052   2.266   6.218  0.3281  0.7540  0.0320
 4787TIP3    H135996   5.098   2.280   6.135  1.3405 -0.0254  0.4271
 4787TIP3    H235997   5.115   2.292   6.285  0.0360  0.0738  0.5842
 4788TIP3   OH235998   1.320   6.298   8.088 -0.2971 -0.8199  0.1133
 4788TIP3    H135999   1.387   6.249   8.136  1.6812  2.2842  0.8260
 4788TIP3    H236000   1.368   6.370   8.046 -2.7921 -0.2249 -1.9870
 4789TIP3   OH236001   6.234   5.885   6.198 -0.3459 -0.9255  0.5790
 4789TIP3    H136002   6.149   5.841   6.205 -0.0773 -1.4191  0.7886
 4789TIP3    H236003   6.257   5.906   6.289 -0.7852  0.2694  0.4360
 4790TIP3   OH236004   0.466   4.808   6.938  0.5545  0.2132 -0.1097
 4790TIP3    H136005   0.506   4.876   6.884  2.2990  1.3786  2.4684
 4790TIP3    H236006   0.511   4.728   6.912  0.6996  0.5711 -0.9976
 4791TIP3   OH236007   0.081   6.306   1.319 -0.0106 -0.5490  0.0562
 4791TIP3    H136008   0.021   6.342   1.385 -0.1106 -1.1378  0.2994
 4791TIP3    H236009   0.058   6.213   1.315  0.2552 -0.5911 -0.5380
 4792TIP3   OH236010   1.544   6.623   8.487 -0.1593  0.3498 -0.4784
 4792TIP3    H136011   1.463   6.572   8.497 -0.4770  0.4536 -2.1953
 4792TIP3    H236012   1.607   6.578   8.543 -1.1311 -0.3558  0.0908
 4793TIP3   OH236013   6.363   1.030   0.612 -0.3963 -0.1313 -0.3658
 4793TIP3    H136014   6.363   1.076   0.528  1.3523  1.1955  0.2966
 4793TIP3    H236015   6.306   1.083   0.668 -0.8453 -0.5216 -0.4422
 4794TIP3   OH236016   4.849   1.790   6.559 -0.5723  0.6477 -0.1425
 4794TIP3    H136017   4.781   1.828   6.503 -2.2370  3.1930  3.2614
 4794TIP3    H236018   4.893   1.865   6.598 -0.4582 -0.8456  2.9324
 4795TIP3   OH236019   3.617   2.208   2.143  0.0950 -0.6643 -0.2550
 4795TIP3    H136020   3.617   2.244   2.231 -0.5025  0.2784 -0.6230
 4795TIP3    H236021   3.569   2.126   2.150  1.1264 -1.2239  0.5198
 4796TIP3   OH236022   0.872   1.893   6.897 -0.4434 -0.4346  0.3736
 4796TIP3    H136023   0.936   1.941   6.844 -0.5353 -0.3669  0.3238
 4796TIP3    H236024   0.867   1.941   6.979 -0.5036 -0.3833  0.3402
 4797TIP3   OH236025   6.431   5.227   8.307 -0.4280 -0.3188 -0.3353
 4797TIP3    H136026   6.463   5.292   8.370  0.6896 -0.8219 -0.3619
 4797TIP3    H236027   6.392   5.159   8.362 -0.2028 -0.3628 -0.2271
 4798TIP3   OH236028   3.222   3.308   7.003  0.2612  0.2649 -0.0534
 4798TIP3    H136029   3.315   3.316   7.027  0.7489  0.6104 -1.9382
 4798TIP3    H236030   3.213   3.216   6.978 -0.2671 -0.1104  1.3799
 4799TIP3   OH236031   3.280   5.783   0.658  0.5669 -0.4037 -0.1709
 4799TIP3    H136032   3.265   5.877   0.663  0.1716 -0.4930  0.6357
 4799TIP3    H236033   3.228   5.753   0.584 -0.3427 -0.1682  0.3633
 4800TIP3   OH236034   1.043   6.804   1.910 -0.2000 -0.3183  0.1901
 4800TIP3    H136035   1.037   6.885   1.858 -0.1131 -0.9245 -0.7948
 4800TIP3    H236036   0.955   6.767   1.906 -0.6475  0.4386  1.8871
 4801TIP3   OH236037   3.468   2.752   7.018 -0.2739 -0.5316 -0.5589
 4801TIP3    H136038   3.552   2.779   7.057 -0.2563 -1.7979  0.3386
 4801TIP3    H236039   3.402   2.784   7.080 -0.2626 -2.2895  0.4205
 4802TIP3   OH236040   6.584   5.119   5.600  0.3697  0.5589 -0.0806
 4802TIP3    H136041   6.673   5.097   5.573  0.8507  1.9055  0.3173
 4802TIP3    H236042   6.594   5.162   5.684 -0.6622  0.7230 -0.0219
 4803TIP3   OH236043   0.473   2.020   8.003 -0.0221 -0.0448 -0.0946
 4803TIP3    H136044   0.494   2.074   8.079 -1.6192  0.4364  0.0446
 4803TIP3    H236045   0.436   1.940   8.040 -0.3010 -0.0346 -0.3414
 4804TIP3   OH236046   3.991   5.391   7.577  0.4745  0.2330  0.3203
 4804TIP3    H136047   4.061   5.385   7.512  0.4430  0.5879  0.2492
 4804TIP3    H236048   3.911   5.374   7.527  0.6751 -2.9687  0.8894
 4805TIP3   OH236049   4.334   5.678   1.251 -0.7138  0.3270  0.3328
 4805TIP3    H136050   4.240   5.666   1.263 -0.9993  2.6243  0.8476
 4805TIP3    H236051   4.374   5.644   1.331 -1.1201 -0.2584  0.2907
 4806TIP3   OH236052   3.962   3.485   6.621 -0.9370  0.3074  0.2306
 4806TIP3    H136053   4.012   3.552   6.574 -1.8143  0.7468 -0.0933
 4806TIP3    H236054   3.887   3.533   6.657 -2.0834 -0.6778 -0.8006
 4807TIP3   OH236055   0.819   4.080   0.265 -0.2761 -0.6676 -0.2263
 4807TIP3    H136056   0.865   4.052   0.344 -0.3257 -1.0941 -0.3444
 4807TIP3    H236057   0.744   4.021   0.259 -1.8382  1.0885  0.9018
 4808TIP3   OH236058   3.905   1.281   0.868 -0.5176 -0.3029  0.1092
 4808TIP3    H136059   3.829   1.253   0.919  1.9212 -2.0662  3.1500
 4808TIP3    H236060   3.925   1.369   0.901 -0.1715 -0.6032  0.7231
 4809TIP3   OH236061   5.425   5.355   8.304  0.7637 -0.4275  0.4868
 4809TIP3    H136062   5.409   5.420   8.236 -0.0586 -1.5194 -0.3915
 4809TIP3    H236063   5.341   5.311   8.316  1.3150 -1.3712  1.0177
 4810TIP3   OH236064   0.957   5.242   8.391  0.1013  0.7076 -0.3951
 4810TIP3    H136065   0.889   5.237   8.458 -0.3925  1.2406 -0.8448
 4810TIP3    H236066   0.996   5.328   8.402  2.2782 -0.4039  1.3227
 4811TIP3   OH236067   0.100   0.684   1.987  0.1244 -0.1429 -0.4466
 4811TIP3    H136068   0.092   0.753   2.054 -0.5980  0.2662 -0.9468
 4811TIP3    H236069   0.016   0.640   1.988  0.5470 -0.9512 -0.2164
 4812TIP3   OH236070   5.615   5.816   8.093 -0.2620  0.2639 -1.0662
 4812TIP3    H136071   5.660   5.860   8.020  1.1413  1.0922  0.2574
 4812TIP3    H236072   5.662   5.734   8.104  2.0633  1.7995  1.3205
 4813TIP3   OH236073   6.845   0.270   0.851 -0.1146 -0.6590 -0.6516
 4813TIP3    H136074   6.932   0.257   0.815 -0.2541 -1.3979 -0.7465
 4813TIP3    H236075   6.787   0.226   0.789 -0.5273 -0.4164 -0.4425
 4814TIP3   OH236076   2.639   1.327   1.370  0.1204 -0.1838  1.0960
 4814TIP3    H136077   2.584   1.283   1.435 -1.0397  1.4635  1.3015
 4814TIP3    H236078   2.728   1.311   1.400 -0.3717  0.8113  3.3765
 4815TIP3   OH236079   5.142   2.906   8.420  0.1451  0.4399  0.0028
 4815TIP3    H136080   5.166   2.816   8.400 -0.3746  0.2528  0.2101
 4815TIP3    H236081   5.223   2.956   8.407  0.8724 -0.2947  1.5136
 4816TIP3   OH236082   0.967   2.934   0.183  0.4164  0.1385 -0.7832
 4816TIP3    H136083   0.956   3.013   0.236  0.6103 -0.1146 -0.3562
 4816TIP3    H236084   0.908   2.946   0.109 -1.0667 -0.1855  0.2918
 4817TIP3   OH236085   0.665   2.367   8.075 -0.1290 -0.1064  0.2207
 4817TIP3    H136086   0.723   2.329   8.010  0.0204  0.5119 -0.0115
 4817TIP3    H236087   0.617   2.293   8.112  1.5398 -0.7621  1.1513
 4818TIP3   OH236088   6.727   0.776   6.976 -0.1938 -0.4810  0.6382
 4818TIP3    H136089   6.768   0.775   7.063  0.9702 -1.4450  0.1174
 4818TIP3    H236090   6.799   0.756   6.916 -1.2617 -1.3738 -0.3997
 4819TIP3   OH236091   0.226   4.445   1.365  0.4101  0.2554  0.1067
 4819TIP3    H136092   0.211   4.396   1.446 -1.9236 -0.4354 -0.6627
 4819TIP3    H236093   0.321   4.449   1.357  0.6925 -1.0044  2.0752
 4820TIP3   OH236094   2.473   1.168   0.001  1.0868 -0.4626 -0.0605
 4820TIP3    H136095   2.531   1.095  -0.021 -0.9576 -2.4097  0.6653
 4820TIP3    H236096   2.533   1.239   0.027  3.2254 -0.9446 -3.2075
 4821TIP3   OH236097   0.722   3.511   8.214 -0.2418  0.1095 -0.2160
 4821TIP3    H136098   0.798   3.534   8.161 -0.0334  2.9020  1.1118
 4821TIP3    H236099   0.759   3.465   8.289  0.1012  0.9409  0.1370
 4822TIP3   OH236100   0.136   2.646   6.609  0.1294  0.7643 -0.3647
 4822TIP3    H136101   0.157   2.728   6.565 -0.0003  0.3926 -1.1509
 4822TIP3    H236102   0.146   2.580   6.540  0.0827  0.1438  0.2175
 4823TIP3   OH236103   4.780   2.866   6.986  0.6921  0.4896 -0.9905
 4823TIP3    H136104   4.710   2.898   7.042  1.4028  0.8057 -0.2528
 4823TIP3    H236105   4.769   2.771   6.986  0.2872  0.5342 -0.8569
 4824TIP3   OH236106   2.649   3.459   6.549 -0.0150  0.1433  0.2243
 4824TIP3    H136107   2.648   3.520   6.475 -0.7031  1.4751  1.2931
 4824TIP3    H236108   2.717   3.493   6.607 -0.6356  0.0964  0.9891
 4825TIP3   OH236109   0.238   3.147   8.475  0.0363  0.1606  0.5334
 4825TIP3    H136110   0.190   3.229   8.486 -0.6398 -0.3136  1.2110
 4825TIP3    H236111   0.323   3.174   8.440  0.1266  1.2390  1.5121
 4826TIP3   OH236112   6.166   6.723   1.395  0.4170 -0.0618 -0.0969
 4826TIP3    H136113   6.238   6.784   1.411 -0.1569  0.4291  0.6227
 4826TIP3    H236114   6.182   6.692   1.305  1.3224  0.3021 -0.0795
 4827TIP3   OH236115   2.334   1.916   1.381  0.0169  0.4087  0.7976
 4827TIP3    H136116   2.425   1.919   1.412 -0.6024 -0.3251  2.8789
 4827TIP3    H236117   2.282   1.926   1.460 -1.7340 -2.6252  0.1840
 4828TIP3   OH236118   4.459   2.364   0.513  0.1186 -0.5175  0.2809
 4828TIP3    H136119   4.505   2.285   0.542  1.6182 -0.9637 -2.9537
 4828TIP3    H236120   4.486   2.431   0.575  0.8971 -1.9538  1.5698
 4829TIP3   OH236121   1.126   6.366   6.654  0.2641  0.1700  0.1023
 4829TIP3    H136122   1.051   6.423   6.638 -0.3500 -0.3687  1.0040
 4829TIP3    H236123   1.105   6.285   6.608 -0.0136 -0.2054  0.8650
 4830TIP3   OH236124   3.640   4.679   8.415 -0.3516  0.4446 -0.2786
 4830TIP3    H136125   3.668   4.769   8.430  0.3479 -0.1206  2.3736
 4830TIP3    H236126   3.550   4.677   8.445 -0.1305  0.1245  0.3896
 4831TIP3   OH236127   0.403   5.081   1.292  0.0447 -0.4305 -0.1194
 4831TIP3    H136128   0.419   5.109   1.382 -0.2353 -0.0195 -0.1936
 4831TIP3    H236129   0.326   5.131   1.264 -1.1759 -2.0897  0.1035
 4832TIP3   OH236130   3.156   6.402   8.423  0.5114  0.8151  0.0935
 4832TIP3    H136131   3.101   6.452   8.483  1.1485  0.4061  1.0215
 4832TIP3    H236132   3.221   6.359   8.478 -0.7060 -2.0113 -0.4888
 4833TIP3   OH236133   6.213   4.490   1.808  0.2161 -0.2732 -0.0687
 4833TIP3    H136134   6.258   4.565   1.769  0.7033 -0.3090  0.4185
 4833TIP3    H236135   6.182   4.439   1.733  0.7136 -0.0814 -0.4060
 4834TIP3   OH236136   0.198   1.592   8.115 -0.5741  0.2145  0.0293
 4834TIP3    H136137   0.220   1.509   8.072  0.7447  1.0472 -0.9693
 4834TIP3    H236138   0.282   1.629   8.142 -1.2298  0.6510  1.6358
 4835TIP3   OH236139   2.797   4.149   6.755  0.2225  0.0145 -0.0070
 4835TIP3    H136140   2.709   4.112   6.748  0.8161 -1.1363 -2.8047
 4835TIP3    H236141   2.827   4.123   6.842 -1.8189 -0.4073  0.6254
 4836TIP3   OH236142   0.729   0.625   6.476 -0.4614  0.0327 -0.3160
 4836TIP3    H136143   0.713   0.627   6.570  0.5398 -0.2635 -0.1307
 4836TIP3    H236144   0.670   0.693   6.441 -3.0486 -1.8204  0.1295
 4837TIP3   OH236145   3.871   5.407   8.394  0.1903 -0.3024  0.1601
 4837TIP3    H136146   3.964   5.402   8.413  0.0571 -0.7420  0.7477
 4837TIP3    H236147   3.842   5.490   8.432  0.1696 -0.5938  0.7941
 4838TIP3   OH236148   3.358   1.164   0.965 -0.0284  0.8746 -0.2877
 4838TIP3    H136149   3.292   1.223   0.930 -1.3837 -0.4991 -0.1545
 4838TIP3    H236150   3.348   1.171   1.060 -1.5401 -0.9382 -0.2627
 4839TIP3   OH236151   1.309   6.282   7.119  0.3662  0.1396 -0.4838
 4839TIP3    H136152   1.341   6.283   7.029 -1.5598 -0.7190 -1.2249
 4839TIP3    H236153   1.291   6.189   7.137  0.5478  0.3179  0.7358
 4840TIP3   OH236154   3.629   1.408   1.550 -0.0946 -0.2519 -0.1489
 4840TIP3    H136155   3.677   1.464   1.610  2.8734  0.5478 -3.0052
 4840TIP3    H236156   3.627   1.322   1.593  0.2213  0.6931  1.8332
 4841TIP3   OH236157   4.189   1.405   8.607 -0.1751 -0.9811  0.2482
 4841TIP3    H136158   4.255   1.457   8.652 -0.0954 -1.1862  0.3679
 4841TIP3    H236159   4.152   1.349   8.675  0.2475 -1.6025 -0.0257
 4842TIP3   OH236160   2.106   0.949   7.165  0.0560 -0.1084  0.7207
 4842TIP3    H136161   2.064   0.922   7.083 -0.6788  1.6111  0.4816
 4842TIP3    H236162   2.073   0.888   7.231 -0.5773 -0.5417  0.0177
 4843TIP3   OH236163   5.501   1.614   7.891 -0.1613 -0.1198  0.5436
 4843TIP3    H136164   5.592   1.593   7.913  0.3361  0.3598 -0.9103
 4843TIP3    H236165   5.491   1.706   7.914 -0.3835 -0.2492  0.9803
 4844TIP3   OH236166   2.753   6.417   7.465 -0.3669 -0.1455 -0.0834
 4844TIP3    H136167   2.760   6.500   7.513 -1.1366 -0.0053 -0.1995
 4844TIP3    H236168   2.823   6.421   7.400  0.7223 -0.3611  1.0429
 4845TIP3   OH236169   6.233   4.517   0.714 -0.4702 -0.3811 -0.1535
 4845TIP3    H136170   6.325   4.542   0.705 -0.7971  1.0254  0.1042
 4845TIP3    H236171   6.234   4.422   0.718  0.9131 -0.4178 -0.8312
 4846TIP3   OH236172   3.939   5.763   6.590  0.3072  0.1107 -0.2746
 4846TIP3    H136173   4.023   5.748   6.546  0.9087  1.5437  0.3453
 4846TIP3    H236174   3.878   5.785   6.519  1.3083  2.5808 -0.4374
 4847TIP3   OH236175   5.149   3.333   8.490 -0.0906  0.4296 -0.0771
 4847TIP3    H136176   5.077   3.273   8.470  0.5923  0.0072 -1.3860
 4847TIP3    H236177   5.199   3.290   8.559  0.4305 -0.5822 -1.0490
 4848TIP3   OH236178   6.406   3.135   7.872 -0.2992 -0.5002  0.2399
 4848TIP3    H136179   6.406   3.111   7.965 -2.1309 -2.4391 -0.1822
 4848TIP3    H236180   6.313   3.136   7.848  0.0002  1.9765 -1.1396
 4849TIP3   OH236181   2.601   1.676   1.097  0.9913 -0.9128  0.2139
 4849TIP3    H136182   2.588   1.582   1.110 -0.2263 -0.8633 -0.4501
 4849TIP3    H236183   2.512   1.711   1.083  1.3208  0.4950  1.3897
 4850TIP3   OH236184   5.762   5.972   6.696 -0.2545  0.2058 -0.3335
 4850TIP3    H136185   5.682   5.954   6.746 -0.0410 -1.1629 -0.4570
 4850TIP3    H236186   5.734   5.968   6.604 -0.3548  1.3147 -0.3647
 4851TIP3   OH236187   3.242   2.428   1.206  0.6418  0.4318 -0.6901
 4851TIP3    H136188   3.244   2.375   1.126  2.2980 -2.4892  1.0924
 4851TIP3    H236189   3.208   2.368   1.273 -2.0046  3.1883  0.6212
 4852TIP3   OH236190   3.620   2.793   1.399 -0.3269 -0.0947  0.6000
 4852TIP3    H136191   3.703   2.799   1.352 -0.5094  0.0935  0.2999
 4852TIP3    H236192   3.585   2.707   1.374  0.8726 -1.2061  2.5573
 4853TIP3   OH236193   2.956   5.267   1.356 -0.4716  0.3440 -0.2120
 4853TIP3    H136194   2.905   5.214   1.294 -1.5013 -0.5878  1.3593
 4853TIP3    H236195   2.892   5.327   1.394 -0.4049 -0.6478  1.5861
 4854TIP3   OH236196   6.386   5.702   0.414  0.2834  0.2730  0.3990
 4854TIP3    H136197   6.436   5.675   0.337 -1.2710 -0.8273 -0.2801
 4854TIP3    H236198   6.371   5.796   0.401 -0.2807  0.0250 -0.8517
 4855TIP3   OH236199   4.752   4.515   1.506  0.3717  0.1117  0.5511
 4855TIP3    H136200   4.760   4.609   1.487  0.2587 -0.1109 -0.6676
 4855TIP3    H236201   4.783   4.472   1.426 -0.3250 -0.8894  0.8091
 4856TIP3   OH236202   0.006   6.622   0.794 -0.1835 -0.0427 -0.0326
 4856TIP3    H136203   0.089   6.652   0.830 -0.4367  0.0999  0.4534
 4856TIP3    H236204  -0.060   6.671   0.843 -0.5410  0.1740 -0.7228
 4857TIP3   OH236205   2.718   6.758   8.218 -0.6395  0.1290 -0.2066
 4857TIP3    H136206   2.789   6.752   8.283 -0.2899 -3.3980 -0.7058
 4857TIP3    H236207   2.646   6.709   8.257 -1.8237  1.2565 -0.9171
 4858TIP3   OH236208   3.345   5.248   0.012 -0.1514 -0.5580  0.0988
 4858TIP3    H136209   3.392   5.328   0.038  0.0311 -0.7992  0.5197
 4858TIP3    H236210   3.355   5.189   0.087 -0.5924 -0.8453 -0.0636
 4859TIP3   OH236211   0.427   4.146   0.269 -0.6739  0.5399  0.0445
 4859TIP3    H136212   0.455   4.114   0.355  2.0620 -0.0384 -0.9604
 4859TIP3    H236213   0.381   4.071   0.229  1.2336 -0.4961 -0.3278
 4860TIP3   OH236214   3.034   4.229   0.956 -0.6589 -1.0512 -0.8598
 4860TIP3    H136215   3.117   4.249   0.913  0.0172 -0.1854  0.7435
 4860TIP3    H236216   3.009   4.144   0.922  1.5849 -1.9715 -0.3915
 4861TIP3   OH236217   2.528   5.705   7.276 -0.7366  0.1213 -0.7196
 4861TIP3    H136218   2.594   5.752   7.328  0.5351 -1.6281 -0.6353
 4861TIP3    H236219   2.512   5.761   7.201  0.1836  1.0082 -0.2872
 4862TIP3   OH236220   2.834   0.282   7.415 -0.2402  0.5273  0.3944
 4862TIP3    H136221   2.741   0.262   7.423 -0.5108  2.1753  1.7390
 4862TIP3    H236222   2.875   0.196   7.400 -2.1072 -0.0466 -2.2737
 4863TIP3   OH236223   3.010   4.495   7.070  0.4075 -0.0223 -0.5586
 4863TIP3    H136224   2.976   4.571   7.023  0.2638  0.6927  0.6634
 4863TIP3    H236225   2.933   4.443   7.092  0.6069 -1.2654 -2.5672
 4864TIP3   OH236226   0.209   1.025   0.894  0.0264 -0.5816 -0.4377
 4864TIP3    H136227   0.231   0.965   0.966  0.0128  0.2035  0.2291
 4864TIP3    H236228   0.129   1.069   0.923  1.2574  1.4085  0.1217
 4865TIP3   OH236229   2.790   0.393   7.671 -0.0163 -0.6413  0.5418
 4865TIP3    H136230   2.776   0.316   7.726 -2.2237 -1.3281 -0.8656
 4865TIP3    H236231   2.801   0.358   7.583 -1.0993  0.6275 -0.1357
 4866TIP3   OH236232   2.593   5.336   6.895 -0.0837 -0.8237  0.4074
 4866TIP3    H136233   2.655   5.270   6.925  0.5542 -0.1242  0.6708
 4866TIP3    H236234   2.647   5.407   6.861 -0.6509  0.4697  2.0334
 4867TIP3   OH236235   0.716   2.113   7.043 -0.1240  0.9318  0.7636
 4867TIP3    H136236   0.701   2.171   7.117 -0.6923  2.0807 -0.2144
 4867TIP3    H236237   0.789   2.152   6.995 -0.7222  1.0452 -0.0846
 4868TIP3   OH236238   6.064   3.445   0.300 -0.2279 -0.2061 -0.1535
 4868TIP3    H136239   6.016   3.499   0.362 -2.5712 -0.2531 -1.7940
 4868TIP3    H236240   6.128   3.504   0.260 -0.2989  0.3969  0.6110
 4869TIP3   OH236241   2.754   6.714   0.888 -0.0802 -0.4191  0.4921
 4869TIP3    H136242   2.664   6.727   0.860 -0.0486 -0.1560  0.5047
 4869TIP3    H236243   2.761   6.763   0.970 -0.0591 -0.8390  0.7456
 4870TIP3   OH236244   1.491   6.286   0.598 -0.4332 -1.1469  0.1658
 4870TIP3    H136245   1.432   6.250   0.664  1.3009  0.1423  2.5430
 4870TIP3    H236246   1.566   6.226   0.598  0.9363  0.4667  1.6681
 4871TIP3   OH236247   0.096   3.580   0.174  0.3790  0.5994  0.3401
 4871TIP3    H136248   0.172   3.574   0.233 -0.8638 -1.0926  1.8880
 4871TIP3    H236249   0.032   3.631   0.223 -1.9567 -3.6042  2.1693
 4872TIP3   OH236250   3.145   5.560   7.535  0.1538  0.4448  0.2999
 4872TIP3    H136251   3.225   5.565   7.482 -1.2505  0.5464 -1.9533
 4872TIP3    H236252   3.152   5.477   7.582  0.8068 -0.4318 -1.2744
 4873TIP3   OH236253   0.731   3.488   1.436 -0.0097  0.1517  0.2657
 4873TIP3    H136254   0.809   3.433   1.439  0.3375  0.4687 -1.6814
 4873TIP3    H236255   0.706   3.488   1.344 -3.0581 -0.9355  0.9951
 4874TIP3   OH236256   0.343   6.167   8.426  0.7060 -0.4115  0.3232
 4874TIP3    H136257   0.386   6.105   8.367  0.9866 -0.5853  0.7044
 4874TIP3    H236258   0.388   6.155   8.510 -0.8989 -1.5034  1.0815
 4875TIP3   OH236259   0.656   5.545   1.474  0.0444  0.4588 -0.0793
 4875TIP3    H136260   0.721   5.574   1.410  0.7173 -1.2377 -0.2232
 4875TIP3    H236261   0.579   5.524   1.422  0.0149  0.7036 -0.1338
 4876TIP3   OH236262   5.939   4.556   6.872 -0.2638 -0.1167 -0.4765
 4876TIP3    H136263   6.014   4.532   6.927 -0.7632 -0.7206 -0.0528
 4876TIP3    H236264   5.868   4.499   6.901 -0.8517  0.3453 -0.9810
 4877TIP3   OH236265   4.990   0.378   7.795  0.1136  0.3648 -0.4052
 4877TIP3    H136266   4.973   0.397   7.888  1.0676  2.9624 -0.6716
 4877TIP3    H236267   5.083   0.393   7.784  0.3504 -1.5630 -1.5012
 4878TIP3   OH236268   0.278   3.048   2.028 -0.4279  0.2044  0.2408
 4878TIP3    H136269   0.322   3.067   2.111 -0.7978  0.4235  0.3878
 4878TIP3    H236270   0.218   3.121   2.016  0.0094  0.4447 -0.4889
 4879TIP3   OH236271   4.100   6.539   7.258  0.2894  0.1216  0.0212
 4879TIP3    H136272   4.148   6.474   7.309 -0.2070 -0.0753  0.2414
 4879TIP3    H236273   4.095   6.615   7.316  1.3046  0.5509 -0.4199
 4880TIP3   OH236274   2.119   4.130   6.413 -0.3807  0.6330 -0.3762
 4880TIP3    H136275   2.051   4.071   6.444 -0.4393  0.2504 -1.1956
 4880TIP3    H236276   2.109   4.129   6.317  1.8324 -0.7560 -0.6643
 4881TIP3   OH236277   3.998   4.149   0.284  0.2000  0.1649  0.0347
 4881TIP3    H136278   4.047   4.111   0.357  2.2756 -0.0085 -1.3498
 4881TIP3    H236279   3.931   4.203   0.326  1.5236  0.3503  2.0765
 4882TIP3   OH236280   0.567   6.379   6.065  0.3388 -0.1592  0.1902
 4882TIP3    H136281   0.610   6.358   5.982  0.5657  1.2384 -0.0716
 4882TIP3    H236282   0.474   6.377   6.045  0.3510 -0.8833  0.1765
 4883TIP3   OH236283   2.716   6.535   1.178 -0.2545 -0.1245 -0.2967
 4883TIP3    H136284   2.683   6.581   1.101  0.2381  0.0939 -0.3836
 4883TIP3    H236285   2.754   6.454   1.144  0.5963  0.2978 -0.3735
 4884TIP3   OH236286   5.189   0.269   8.439  0.1445 -0.1205 -0.4908
 4884TIP3    H136287   5.173   0.204   8.371 -0.3229  0.6847 -1.1774
 4884TIP3    H236288   5.244   0.335   8.396 -2.6364  1.9878 -1.1299
 4885TIP3   OH236289   1.695   6.179   7.604 -0.0243  0.5232  0.1557
 4885TIP3    H136290   1.622   6.148   7.658 -0.1700 -0.8547 -0.7770
 4885TIP3    H236291   1.659   6.254   7.557 -0.3929  0.7434  0.7773
 4886TIP3   OH236292   3.137   6.436   6.347  0.5173  0.7189  0.8542
 4886TIP3    H136293   3.063   6.469   6.297  0.5751 -3.4296 -2.5565
 4886TIP3    H236294   3.214   6.476   6.306  0.3683  1.0593  0.9061
 4887TIP3   OH236295   0.499   6.103   1.565  0.2669 -0.0658  0.3856
 4887TIP3    H136296   0.441   6.076   1.494 -2.2855  2.3217  1.3838
 4887TIP3    H236297   0.539   6.184   1.533 -1.3755  1.3687  1.7760
 4888TIP3   OH236298   5.364   0.070   1.228 -0.0787 -0.6657  0.1294
 4888TIP3    H136299   5.451   0.109   1.218  0.4625 -1.5765  1.0749
 4888TIP3    H236300   5.305   0.129   1.181  1.1061 -0.2661 -0.9164
 4889TIP3   OH236301   3.864   6.220   1.996  0.2349 -0.0058  0.1243
 4889TIP3    H136302   3.840   6.307   1.964 -0.7291 -0.5033 -0.5303
 4889TIP3    H236303   3.791   6.194   2.052  0.6656 -0.2784  0.5716
 4890TIP3   OH236304   4.311   4.015   7.183  0.3393  0.0448 -0.2498
 4890TIP3    H136305   4.290   4.102   7.149  1.2080  0.6605  0.7248
 4890TIP3    H236306   4.381   3.983   7.127  1.1546  0.6820  0.3846
 4891TIP3   OH236307   0.425   0.312   7.566 -0.5728 -0.4469 -0.1443
 4891TIP3    H136308   0.505   0.355   7.536 -0.4345  0.1852  1.0869
 4891TIP3    H236309   0.412   0.240   7.504  1.0375 -0.6842 -0.2387
 4892TIP3   OH236310   2.216   1.049   0.803 -0.1872 -0.2888 -0.5724
 4892TIP3    H136311   2.213   1.128   0.749 -1.9981  0.7035  0.8661
 4892TIP3    H236312   2.287   1.064   0.865 -1.3993  0.8936  0.5904
 4893TIP3   OH236313   5.224   6.139   6.859 -0.2754  0.0759  0.1355
 4893TIP3    H136314   5.200   6.217   6.909  0.5319  1.8320 -2.0735
 4893TIP3    H236315   5.160   6.136   6.787  0.5888 -0.4580 -0.6290
 4894TIP3   OH236316   0.820   3.223   7.699  0.8635  0.0316 -0.2307
 4894TIP3    H136317   0.819   3.319   7.708  0.1877 -0.1322  1.9947
 4894TIP3    H236318   0.772   3.191   7.775 -0.4815 -2.0663 -1.8470
 4895TIP3   OH236319   6.833   6.103   7.280 -0.0201  0.4923  1.1147
 4895TIP3    H136320   6.898   6.158   7.235 -0.7148  0.9756  0.6732
 4895TIP3    H236321   6.838   6.018   7.236 -0.6842  0.9573  0.0965
 4896TIP3   OH236322   3.639   1.609   7.619  0.9095  0.2645 -0.2297
 4896TIP3    H136323   3.637   1.534   7.679  0.6547  1.7465  1.7327
 4896TIP3    H236324   3.698   1.582   7.549  1.4788 -1.4643  0.8427
 4897TIP3   OH236325   2.486   6.406   7.141  0.2713  0.0615 -0.1608
 4897TIP3    H136326   2.572   6.448   7.143 -0.4794  1.6987 -0.3084
 4897TIP3    H236327   2.441   6.448   7.067 -1.1504  0.3055  0.8021
 4898TIP3   OH236328   3.225   3.493   7.402  0.0323  0.3441 -0.4516
 4898TIP3    H136329   3.281   3.546   7.345  1.2506  0.3562  0.7185
 4898TIP3    H236330   3.181   3.557   7.457  1.0729  0.2140  0.5739
 4899TIP3   OH236331   2.211   2.094   1.549  0.3194 -0.1904  0.4969
 4899TIP3    H136332   2.247   2.120   1.633  0.5027  1.8271 -0.1572
 4899TIP3    H236333   2.117   2.093   1.562  0.3666 -0.2862  0.8296
 4900TIP3   OH236334   5.859   5.888   1.378 -0.0074 -0.0417  0.1672
 4900TIP3    H136335   5.814   5.915   1.458 -2.6354  0.5829 -1.4110
 4900TIP3    H236336   5.923   5.957   1.362  1.5166 -0.8514  2.3752
 4901TIP3   OH236337   0.650   1.180   0.809 -0.0225  0.2611  0.0382
 4901TIP3    H136338   0.728   1.215   0.852  0.3463 -0.3511 -0.1184
 4901TIP3    H236339   0.675   1.170   0.718 -0.9950  2.1157 -0.4750
 4902TIP3   OH236340   4.037   2.030   7.011 -0.3278  0.0652 -0.3443
 4902TIP3    H136341   4.131   2.018   7.016 -0.4508 -1.0450 -0.5610
 4902TIP3    H236342   4.005   2.004   7.098 -0.6022 -1.3633 -0.8449
 4903TIP3   OH236343   4.770   3.367   0.195 -0.0799  0.3296  0.9648
 4903TIP3    H136344   4.704   3.363   0.125 -0.9393 -0.1727  1.7775
 4903TIP3    H236345   4.852   3.387   0.150 -1.0442  2.6135  0.0924
 4904TIP3   OH236346   1.625   5.584   6.770 -0.2815 -0.0981 -0.3466
 4904TIP3    H136347   1.574   5.506   6.749 -0.0397 -0.9002  1.8260
 4904TIP3    H236348   1.712   5.567   6.734 -0.4426 -0.4840 -0.5542
 4905TIP3   OH236349   6.267   1.436   6.865  0.0926 -0.5788  0.3803
 4905TIP3    H136350   6.318   1.356   6.856 -0.8630 -1.4006  1.8567
 4905TIP3    H236351   6.177   1.409   6.848 -0.5907 -0.4154  3.1821
 4906TIP3   OH236352   3.555   0.651   0.989  0.7227  0.3559 -0.0015
 4906TIP3    H136353   3.578   0.558   0.987  0.2106  0.2214  0.2487
 4906TIP3    H236354   3.532   0.671   0.899  1.4597  0.4027 -0.1842
 4907TIP3   OH236355   2.703   0.399   6.879 -0.2420 -0.3419  0.3003
 4907TIP3    H136356   2.617   0.420   6.841 -0.9327 -2.5148  0.5070
 4907TIP3    H236357   2.694   0.423   6.971 -0.7218 -0.6894  0.3553
 4908TIP3   OH236358   1.949   0.456   1.939  0.0934 -0.2615 -0.5153
 4908TIP3    H136359   2.019   0.431   2.000 -0.3996 -1.2598 -0.3393
 4908TIP3    H236360   1.960   0.396   1.865  0.4829  0.7216 -1.2906
 4909TIP3   OH236361   4.896   4.654   8.250 -0.1074 -0.0328  0.3078
 4909TIP3    H136362   4.844   4.586   8.206 -0.1531  1.5028 -2.2400
 4909TIP3    H236363   4.983   4.646   8.212  0.0105  0.9958  0.3195
 4910TIP3   OH236364   0.739   3.496   2.267  0.0142 -0.0587 -0.1183
 4910TIP3    H136365   0.683   3.570   2.291 -0.0448 -0.3901  0.8026
 4910TIP3    H236366   0.827   3.533   2.259  0.2214 -0.1068  1.6553
 4911TIP3   OH236367   3.691   4.490   0.568 -0.3263  0.1780  0.2799
 4911TIP3    H136368   3.596   4.490   0.556 -0.1848 -1.9638 -1.4879
 4911TIP3    H236369   3.722   4.557   0.507 -0.6782  1.1931  1.1736
 4912TIP3   OH236370   1.469   4.148   1.545 -0.3902  0.3362 -0.4852
 4912TIP3    H136371   1.514   4.099   1.615 -0.9507  0.4258 -0.0546
 4912TIP3    H236372   1.499   4.239   1.557  1.6179 -0.0608 -2.0524
 4913TIP3   OH236373   0.344   0.888   0.690 -0.1569  0.4349 -0.3474
 4913TIP3    H136374   0.388   0.930   0.616 -0.0001  1.2265  0.1786
 4913TIP3    H236375   0.400   0.907   0.765 -0.8310  0.5176  0.1489
 4914TIP3   OH236376   5.492   2.795   8.330  0.3470  0.4005 -0.7650
 4914TIP3    H136377   5.457   2.879   8.359  0.6768  0.1787  0.3284
 4914TIP3    H236378   5.509   2.747   8.411  0.5031 -0.5806 -1.3655
 4915TIP3   OH236379   0.573   4.805   7.998  0.2060 -0.0621 -0.6994
 4915TIP3    H136380   0.534   4.865   8.061  0.0005  0.3202 -1.1859
 4915TIP3    H236381   0.654   4.847   7.971  0.1776 -0.1141 -0.8670
 4916TIP3   OH236382   5.596   6.780   7.290  0.2515  0.4283 -0.2324
 4916TIP3    H136383   5.589   6.841   7.364 -2.9321 -1.2577  1.0575
 4916TIP3    H236384   5.687   6.752   7.292  1.5582  4.1241 -0.1582
 4917TIP3   OH236385   1.082   1.753   7.256 -0.1807  0.0740  0.2011
 4917TIP3    H136386   1.113   1.750   7.347 -0.8197 -2.4928  0.4237
 4917TIP3    H236387   0.992   1.786   7.263  0.0915  0.8087  0.3581
 4918TIP3   OH236388   3.315   3.533   5.873  0.1465 -0.3202  0.4046
 4918TIP3    H136389   3.297   3.487   5.955 -0.5872 -0.8134 -0.0337
 4918TIP3    H236390   3.392   3.489   5.837 -1.1557 -1.9098 -0.5239
 4919TIP3   OH236391   5.182   5.708   8.389 -0.1739 -0.4422  0.0356
 4919TIP3    H136392   5.163   5.695   8.482  1.2286 -1.1532  0.2577
 4919TIP3    H236393   5.119   5.654   8.343 -0.3907 -0.6894  0.6127
 4920TIP3   OH236394   3.227   2.326   1.706  0.4386  0.4506  0.6624
 4920TIP3    H136395   3.207   2.384   1.632 -0.3809  0.3613  0.7960
 4920TIP3    H236396   3.262   2.247   1.665  0.6949  0.6874  0.4191
 4921TIP3   OH236397   2.003   3.031   1.568  0.4303  0.1401 -1.4816
 4921TIP3    H136398   1.988   2.936   1.566  1.6388 -0.0999 -0.4756
 4921TIP3    H236399   2.050   3.046   1.650  2.6764  1.1915 -2.8556
 4922TIP3   OH236400   1.927   1.341   5.954  0.7821 -0.1859 -0.6306
 4922TIP3    H136401   1.918   1.246   5.962 -1.1382  0.1193  1.8737
 4922TIP3    H236402   1.970   1.369   6.035  0.0493  1.2164 -0.6933
 4923TIP3   OH236403   1.470   5.551   1.238  0.4900  0.0743  0.4656
 4923TIP3    H136404   1.420   5.615   1.188  0.9024 -0.7299 -1.0251
 4923TIP3    H236405   1.407   5.480   1.255  0.4054  0.2577  0.9518
 4924TIP3   OH236406   0.864   2.804   1.694 -0.0439 -0.0605 -0.2322
 4924TIP3    H136407   0.901   2.883   1.735  0.1601  0.8155 -2.0354
 4924TIP3    H236408   0.779   2.793   1.736 -0.5333  1.7404 -0.6679
 4925TIP3   OH236409   4.982   3.718   0.182  0.7446  0.0230 -0.8817
 4925TIP3    H136410   4.898   3.727   0.226  0.5361 -0.1845 -1.2369
 4925TIP3    H236411   5.011   3.808   0.165  0.5210  0.0905 -0.8993
 4926TIP3   OH236412   3.732   5.521   0.046 -0.8681 -0.0769 -0.0203
 4926TIP3    H136413   3.698   5.598   0.093 -0.5562 -0.0902  0.2316
 4926TIP3    H236414   3.664   5.501  -0.019 -0.8608  0.5261 -0.2198
 4927TIP3   OH236415   2.678   6.769   0.159 -0.3634  0.1680 -0.3482
 4927TIP3    H136416   2.727   6.687   0.150  0.0407  0.5969 -2.8677
 4927TIP3    H236417   2.607   6.749   0.220  1.2146 -1.2934  1.1070
 4928TIP3   OH236418   6.303   1.950   0.338  0.2347  0.2744  0.0453
 4928TIP3    H136419   6.261   1.970   0.422 -0.0100  1.6278 -0.3731
 4928TIP3    H236420   6.234   1.907   0.288 -0.2553  1.2404 -0.1441
 4929TIP3   OH236421   5.967   5.616   6.979 -0.0351  0.0304  0.1349
 4929TIP3    H136422   5.956   5.543   6.918 -0.1686 -1.0749  1.4479
 4929TIP3    H236423   5.915   5.592   7.056 -0.5024  1.7505  0.4174
 4930TIP3   OH236424   5.017   0.137   7.354 -0.7972  0.0985  0.2916
 4930TIP3    H136425   4.986   0.219   7.392 -0.5512 -0.0892  0.9105
 4930TIP3    H236426   5.088   0.108   7.412  0.6940  0.6141 -1.1850
 4931TIP3   OH236427   6.602   2.504   8.485 -0.1616  0.1129 -0.1759
 4931TIP3    H136428   6.529   2.531   8.429  1.1360 -0.2452 -2.1412
 4931TIP3    H236429   6.572   2.422   8.525 -1.8061  1.2895  1.1312
 4932TIP3   OH236430   4.952   4.346   7.896 -0.0891  0.1871  0.3904
 4932TIP3    H136431   4.885   4.316   7.834 -0.7733  2.9870 -0.3386
 4932TIP3    H236432   5.028   4.291   7.877 -0.6799  0.1148 -2.1140
 4933TIP3   OH236433   5.516   4.685   8.201 -0.2865  0.3736 -0.1136
 4933TIP3    H136434   5.560   4.601   8.189 -0.6346  0.3389 -1.3116
 4933TIP3    H236435   5.547   4.738   8.128  0.4400  1.5245  1.0006
 4934TIP3   OH236436   4.890   0.871   0.140 -0.1859  0.4168 -0.2980
 4934TIP3    H136437   4.811   0.911   0.104 -0.3256  1.0036  0.6305
 4934TIP3    H236438   4.962   0.912   0.091 -0.4058  0.5929 -0.4745
 4935TIP3   OH236439   5.241   0.477   2.264  0.7100  0.9391 -0.2430
 4935TIP3    H136440   5.248   0.390   2.302  0.5590  0.3840 -1.4347
 4935TIP3    H236441   5.166   0.472   2.205 -2.1056  3.1342  2.8045
 4936TIP3   OH236442   4.980   3.955   1.431  0.6096 -0.4211 -0.2968
 4936TIP3    H136443   5.016   3.874   1.395 -0.8149 -0.0755 -2.7878
 4936TIP3    H236444   4.887   3.936   1.444  0.4986  0.4564  0.2806
 4937TIP3   OH236445   2.087   5.849   6.500  0.0864 -0.1117 -0.4885
 4937TIP3    H136446   2.039   5.925   6.468  0.2408  0.8982  1.5145
 4937TIP3    H236447   2.139   5.820   6.426 -0.6701  1.1588 -1.5660
 4938TIP3   OH236448   3.687   6.314   6.835  0.3258 -0.5379  0.1930
 4938TIP3    H136449   3.673   6.229   6.792  1.2785 -1.0070  0.7682
 4938TIP3    H236450   3.723   6.370   6.765 -0.4647 -0.5500 -0.2298
 4939TIP3   OH236451   4.437   5.134   5.775 -0.4480 -0.4737  0.4744
 4939TIP3    H136452   4.507   5.100   5.830  0.9736  2.6782  0.8502
 4939TIP3    H236453   4.444   5.085   5.694  3.2582  0.6071 -0.0547
 4940TIP3   OH236454   6.507   6.485   6.931 -0.0511  0.0860  0.0199
 4940TIP3    H136455   6.459   6.473   6.849  1.7027  2.0634 -1.4148
 4940TIP3    H236456   6.454   6.546   6.981 -0.3374  0.1630 -0.3749
 4941TIP3   OH236457   4.644   5.597   1.388 -0.5352 -0.2661 -0.4240
 4941TIP3    H136458   4.579   5.650   1.433 -0.1354  0.0857 -0.2444
 4941TIP3    H236459   4.705   5.661   1.350 -0.1910 -0.5898 -0.4290
 4942TIP3   OH236460   1.949   5.438   8.578 -0.0577 -0.0875  0.4107
 4942TIP3    H136461   1.863   5.398   8.589 -0.5330  0.2989 -1.5742
 4942TIP3    H236462   1.995   5.381   8.517  0.4137  0.6996  0.0150
 4943TIP3   OH236463   2.288   5.653   6.547  0.2226 -0.7536 -0.9130
 4943TIP3    H136464   2.376   5.687   6.534 -0.2322  1.0046  0.2200
 4943TIP3    H236465   2.232   5.731   6.543 -1.0374 -1.5456  0.4627
 4944TIP3   OH236466   5.904   6.428   8.519 -0.2827 -0.1357 -0.4990
 4944TIP3    H136467   5.858   6.512   8.509 -0.6216 -0.2896 -0.2493
 4944TIP3    H236468   5.996   6.450   8.505 -0.5012  0.0528 -1.6919
 4945TIP3   OH236469   5.779   5.299   6.892  0.4541 -0.2503  0.1881
 4945TIP3    H136470   5.734   5.215   6.903  1.7638 -0.7923  1.8092
 4945TIP3    H236471   5.708   5.362   6.882 -0.5897 -1.4243 -0.1289
 4946TIP3   OH236472   4.875   3.757   0.531  0.2846  0.2364 -0.2153
 4946TIP3    H136473   4.947   3.699   0.557  0.0707  0.3477  0.6549
 4946TIP3    H236474   4.823   3.705   0.470 -0.8252 -1.1427  1.7828
 4947TIP3   OH236475   3.273   5.246   6.110  0.4374 -0.0151  0.2188
 4947TIP3    H136476   3.266   5.166   6.163 -0.3065 -0.7671 -0.9666
 4947TIP3    H236477   3.345   5.228   6.050 -1.4710 -0.9867 -1.9257
 4948TIP3   OH236478   6.688   4.879   7.683  0.0641 -0.2271 -0.2918
 4948TIP3    H136479   6.700   4.813   7.615  0.1040 -2.1116  1.4345
 4948TIP3    H236480   6.771   4.927   7.685  0.0957 -0.2173 -1.4701
 4949TIP3   OH236481   0.303   1.479   7.822  0.2920 -0.4341 -0.2286
 4949TIP3    H136482   0.245   1.510   7.752 -1.8249 -2.3565  0.5321
 4949TIP3    H236483   0.340   1.559   7.860 -2.0214  0.9636 -0.6825
 4950TIP3   OH236484   1.349   4.916   0.314 -0.0142 -0.0292 -0.7346
 4950TIP3    H136485   1.338   4.884   0.404  1.4798 -0.6952 -0.7668
 4950TIP3    H236486   1.332   4.839   0.259 -0.0216  0.1536 -0.9903
 4951TIP3   OH236487   3.012   1.340   8.330 -0.4841 -0.0788 -0.3344
 4951TIP3    H136488   3.072   1.408   8.299 -0.3304 -0.1202 -0.1284
 4951TIP3    H236489   2.977   1.376   8.412  1.2487 -1.1706  0.9457
 4952TIP3   OH236490   4.954   1.460   7.091 -0.3642 -0.2226  1.5019
 4952TIP3    H136491   5.035   1.411   7.106 -0.1818 -0.7059 -0.7187
 4952TIP3    H236492   4.890   1.393   7.065 -0.3513  0.5193 -0.6842
 4953TIP3   OH236493   1.450   1.756   0.452 -0.4385  0.2283  0.0824
 4953TIP3    H136494   1.495   1.751   0.368 -0.3993  1.8731 -0.0385
 4953TIP3    H236495   1.366   1.711   0.438  0.2238 -0.9106 -0.3410
 4954TIP3   OH236496   2.244   4.389   0.529 -0.2310 -0.0272  0.3266
 4954TIP3    H136497   2.295   4.411   0.451 -1.5206 -2.6182 -1.4446
 4954TIP3    H236498   2.289   4.313   0.567 -1.4167 -0.9000  0.0665
 4955TIP3   OH236499   5.259   4.340   7.421  0.0497 -0.1907  0.0519
 4955TIP3    H136500   5.219   4.254   7.411 -1.4418  0.3490  1.1558
 4955TIP3    H236501   5.218   4.377   7.499 -0.5418  2.1699 -1.3039
 4956TIP3   OH236502   0.422   3.984   0.002  0.5070  0.3824  0.0005
 4956TIP3    H136503   0.353   4.044  -0.023  0.5080  0.8090  1.0032
 4956TIP3    H236504   0.378   3.915   0.052  0.7955  0.6385  0.6153
 4957TIP3   OH236505   0.608   1.654   8.507 -0.0005 -0.1582 -0.1164
 4957TIP3    H136506   0.679   1.715   8.486 -0.4083  0.5786  0.6013
 4957TIP3    H236507   0.546   1.663   8.435 -1.4484  2.4343  1.3417
 4958TIP3   OH236508   1.114   3.903   8.268 -0.4270  1.1076 -0.2391
 4958TIP3    H136509   1.046   3.890   8.202 -1.9717  1.6941  1.1809
 4958TIP3    H236510   1.106   3.995   8.294  1.2848  1.3434 -0.4006
 4959TIP3   OH236511   1.484   5.881   7.865  0.1086  0.0595 -0.1348
 4959TIP3    H136512   1.566   5.929   7.877  0.2045 -0.1712  0.1523
 4959TIP3    H236513   1.488   5.848   7.775  0.2665  0.1716 -0.1692
 4960TIP3   OH236514   0.919   6.514   6.527  0.3390 -0.0247 -0.4046
 4960TIP3    H136515   0.944   6.582   6.465 -0.5321  1.0670  0.4031
 4960TIP3    H236516   0.828   6.492   6.504  0.1265  0.1394  0.2521
 4961TIP3   OH236517   1.994   1.960   7.469 -0.0096  0.1417  0.1713
 4961TIP3    H136518   1.954   1.998   7.547  0.3698  0.3785  0.2537
 4961TIP3    H236519   2.068   2.017   7.450  0.7748 -0.7278  0.4884
 4962TIP3   OH236520   2.017   0.215   0.995 -0.3118 -0.7357 -0.0428
 4962TIP3    H136521   1.976   0.301   0.993  0.3826 -0.4070 -1.3557
 4962TIP3    H236522   2.103   0.228   0.956 -0.2476 -2.0511 -0.4130
 4963TIP3   OH236523   6.270   4.039   7.704  0.5599 -0.3182  0.6450
 4963TIP3    H136524   6.198   4.068   7.760  1.3591  0.8103  1.1299
 4963TIP3    H236525   6.288   3.949   7.733 -1.2151 -0.9449 -0.0985
 4964TIP3   OH236526   4.410   2.811   0.829 -0.2139 -0.5159 -0.0637
 4964TIP3    H136527   4.317   2.821   0.812 -0.1776  0.7362  0.3924
 4964TIP3    H236528   4.414   2.772   0.917 -0.3394  2.4934  1.4080
 4965TIP3   OH236529   5.256   0.114   1.700 -0.7371  0.1252  0.4055
 4965TIP3    H136530   5.283   0.044   1.759 -0.1046 -1.5160 -1.7369
 4965TIP3    H236531   5.330   0.175   1.700 -0.0407 -0.7065  0.0521
 4966TIP3   OH236532   5.309   0.540   1.089  0.8407  0.4165  0.1313
 4966TIP3    H136533   5.242   0.591   1.044  1.2990  0.8682 -0.0573
 4966TIP3    H236534   5.389   0.592   1.078  1.3356 -0.3904 -0.1330
 4967TIP3   OH236535   3.057   1.950   8.337 -0.5967  0.4892  0.1419
 4967TIP3    H136536   3.091   1.977   8.252 -0.2593 -1.6539 -0.4752
 4967TIP3    H236537   3.134   1.917   8.384 -1.1430 -0.5787  0.3241
 4968TIP3   OH236538   3.306   0.245   0.559  0.0099 -0.5148 -0.2116
 4968TIP3    H136539   3.232   0.242   0.619 -0.1579 -0.6342 -0.4222
 4968TIP3    H236540   3.357   0.167   0.579 -0.4341 -0.9391 -0.7150
 4969TIP3   OH236541   0.832   6.394   8.728  0.0018  0.3466  0.1495
 4969TIP3    H136542   0.908   6.342   8.704  1.2485  0.4844  3.2870
 4969TIP3    H236543   0.758   6.349   8.689  1.4095 -1.5285 -0.4750
 4970TIP3   OH236544   2.571   0.140   7.434 -0.1576  0.3829  0.0537
 4970TIP3    H136545   2.531   0.201   7.496 -1.1900 -0.3684  0.1357
 4970TIP3    H236546   2.534   0.055   7.455  0.0949 -0.0288 -1.0708
 4971TIP3   OH236547   5.694   1.141   8.717  0.2662 -0.5664 -0.0714
 4971TIP3    H136548   5.631   1.072   8.698 -0.6969  0.4398 -0.6638
 4971TIP3    H236549   5.640   1.217   8.740  1.3052 -0.1919  1.2828
 4972TIP3   OH236550   3.266   0.373   8.707 -0.1459 -0.7040  0.4396
 4972TIP3    H136551   3.208   0.423   8.764  1.2284  0.5953  0.7598
 4972TIP3    H236552   3.347   0.363   8.757  0.4479 -1.1568 -0.5714
 4973TIP3   OH236553   0.453   1.857   0.435 -0.3519 -0.0937 -0.8774
 4973TIP3    H136554   0.400   1.823   0.363  1.0582  0.1884 -2.1135
 4973TIP3    H236555   0.543   1.845   0.406  0.2497  0.7429  0.5198
 4974TIP3   OH236556   1.863   0.038   1.726 -0.6438 -0.4649 -0.1325
 4974TIP3    H136557   1.947  -0.008   1.727  0.0255  0.6770  1.6927
 4974TIP3    H236558   1.803  -0.021   1.773 -0.4273 -0.5619  0.0255
 4975TIP3   OH236559   1.779   3.368   1.419 -0.1068 -0.0853  0.3734
 4975TIP3    H136560   1.739   3.427   1.483 -1.6145 -0.9496  0.2711
 4975TIP3    H236561   1.795   3.424   1.343  1.5303  0.9127  1.3651
 4976TIP3   OH236562   6.504   3.508   1.680 -0.0351  0.6499 -0.3918
 4976TIP3    H136563   6.508   3.573   1.751  0.2325 -1.8815  2.1090
 4976TIP3    H236564   6.412   3.506   1.655 -0.1139  1.6961 -0.2380
 4977TIP3   OH236565   1.857   3.517   1.198 -0.1109  0.1355  0.3046
 4977TIP3    H136566   1.947   3.501   1.229  0.0100  1.6002  0.7872
 4977TIP3    H236567   1.868   3.571   1.120 -0.5726  0.4003  0.4200
 4978TIP3   OH236568   0.294   2.934   6.644 -0.0508  0.4673  0.8847
 4978TIP3    H136569   0.244   2.970   6.571  1.5506  0.8659 -0.0676
 4978TIP3    H236570   0.286   2.999   6.714 -0.4976  0.7352  0.5852
 4979TIP3   OH236571   4.373   2.757   6.495  0.0124  0.2685  0.1553
 4979TIP3    H136572   4.360   2.779   6.402 -0.8201 -1.1840 -0.1088
 4979TIP3    H236573   4.463   2.783   6.513  0.1371  0.7417 -1.0060
 4980TIP3   OH236574   2.153   5.283   6.868 -0.3204  0.1854 -0.4693
 4980TIP3    H136575   2.214   5.326   6.808 -0.7229  0.1604 -0.9011
 4980TIP3    H236576   2.208   5.248   6.938  0.6123 -2.8635 -2.5598
 4981TIP3   OH236577   0.754   4.903   2.245 -0.0568  0.4947 -0.7430
 4981TIP3    H136578   0.667   4.862   2.239  0.3488 -0.5946  0.4443
 4981TIP3    H236579   0.747   4.980   2.190 -2.7980  2.1768  1.6564
 4982TIP3   OH236580   2.671   0.127   1.948  0.0920  0.2058 -0.3953
 4982TIP3    H136581   2.723   0.171   1.881 -0.8058  0.4951 -0.9223
 4982TIP3    H236582   2.733   0.068   1.991  0.9430  0.8209 -0.7373
 4983TIP3   OH236583   6.639   0.644   0.396  0.0640  0.0193 -0.3454
 4983TIP3    H136584   6.573   0.712   0.387 -0.4321 -0.1778  1.4777
 4983TIP3    H236585   6.647   0.606   0.308  0.2603  2.2960 -1.3754
 4984TIP3   OH236586   6.041   6.108   8.426 -0.1984 -0.4358 -0.3279
 4984TIP3    H136587   6.108   6.116   8.359  0.8524  1.6752  0.8480
 4984TIP3    H236588   5.959   6.132   8.382  0.5405  1.3530 -0.8189
 4985TIP3   OH236589   0.318   5.561   7.613  0.2161  0.1855  0.0010
 4985TIP3    H136590   0.298   5.469   7.632  0.4529  0.1638  0.1529
 4985TIP3    H236591   0.322   5.603   7.699 -0.0966  0.3830 -0.0780
 4986TIP3   OH236592   4.057   4.098   8.346  0.3772 -0.4159  1.0891
 4986TIP3    H136593   4.030   4.179   8.304 -0.9214 -1.1962  0.3448
 4986TIP3    H236594   4.003   4.092   8.425  1.9213  0.4200  2.2693
 4987TIP3   OH236595   1.949   1.959   6.993 -0.2243 -0.3584  0.3455
 4987TIP3    H136596   1.892   1.988   6.921  0.2211 -1.4699 -0.4924
 4987TIP3    H236597   1.897   1.892   7.038  0.1904 -0.9522 -0.0567
 4988TIP3   OH236598   3.587   3.431   0.277  0.7217  0.1539  0.6583
 4988TIP3    H136599   3.644   3.389   0.212  1.1482  1.4765  0.1429
 4988TIP3    H236600   3.502   3.438   0.234  1.3441  2.3048 -0.3830
 4989TIP3   OH236601   5.455   2.070   0.715  0.9481 -0.2790  0.1270
 4989TIP3    H136602   5.376   2.120   0.693 -0.3541 -2.8563 -1.6284
 4989TIP3    H236603   5.450   2.057   0.810 -1.2645 -1.0489 -0.0166
 4990TIP3   OH236604   3.584   2.279   1.371 -0.6821  0.1037  0.0609
 4990TIP3    H136605   3.605   2.314   1.284  1.5707 -1.4640 -0.1232
 4990TIP3    H236606   3.634   2.197   1.377 -2.9603 -1.2913  1.7966
 4991TIP3   OH236607   1.367   3.834   8.263  0.3067 -0.2142 -0.2015
 4991TIP3    H136608   1.274   3.852   8.250  0.2069  1.3878  2.0118
 4991TIP3    H236609   1.412   3.893   8.202 -0.0822 -1.5327 -1.8165
 4992TIP3   OH236610   5.033   5.687   7.684 -0.3799  0.3534 -0.4938
 4992TIP3    H136611   4.983   5.606   7.696  0.4346 -0.0334  0.4617
 4992TIP3    H236612   5.012   5.740   7.761  0.3228  0.3630 -0.2983
 4993TIP3   OH236613   5.397   6.006   8.098  0.1560  0.1552  0.4248
 4993TIP3    H136614   5.364   6.007   8.188 -1.6193 -2.9929 -0.0669
 4993TIP3    H236615   5.463   5.936   8.098 -0.9529 -0.9387 -0.9895
 4994TIP3   OH236616   5.773   3.574   7.610  0.0366 -0.1144 -0.0085
 4994TIP3    H136617   5.688   3.601   7.577  1.0161  0.8778 -1.8852
 4994TIP3    H236618   5.801   3.505   7.551 -0.5038 -2.2698  2.1211
 4995TIP3   OH236619   6.074   1.698   1.906 -0.3399  0.3623  0.6545
 4995TIP3    H136620   5.999   1.695   1.846  1.2051  0.9596 -1.4218
 4995TIP3    H236621   6.090   1.606   1.928 -1.5813  0.2187  1.0269
 4996TIP3   OH236622   0.758   1.668   7.536 -0.0842  0.1497  0.3329
 4996TIP3    H136623   0.763   1.599   7.470 -0.5295  0.3854  0.0521
 4996TIP3    H236624   0.804   1.631   7.612  0.0630 -0.2830  0.0396
 4997TIP3   OH236625   3.854   3.197   1.442 -0.0092  0.7322  0.2016
 4997TIP3    H136626   3.895   3.157   1.365 -0.4127  0.6195  0.0422
 4997TIP3    H236627   3.925   3.204   1.506  1.1809  3.9125 -1.2918
 4998TIP3   OH236628   3.631   3.860   6.708 -0.0339 -0.8972 -0.1377
 4998TIP3    H136629   3.632   3.946   6.749  2.7846 -0.0550 -1.6680
 4998TIP3    H236630   3.552   3.859   6.654  0.1824  0.9693 -0.5236
 4999TIP3   OH236631   4.359   4.630   1.612 -0.2635  0.8352 -0.1353
 4999TIP3    H136632   4.383   4.625   1.704 -2.4596  0.5169  0.4827
 4999TIP3    H236633   4.305   4.709   1.605  0.3555  1.1909 -1.2966
 5000TIP3   OH236634   1.218   0.550   7.598  0.0844 -0.3505 -0.6146
 5000TIP3    H136635   1.270   0.552   7.518  0.4967  1.1943 -0.3384
 5000TIP3    H236636   1.270   0.600   7.662 -1.2245  0.2975 -0.0079
 5001TIP3   OH236637   2.439   1.116   7.819 -0.8508  0.3361 -0.4465
 5001TIP3    H136638   2.503   1.129   7.750  1.6942 -0.0234  1.6802
 5001TIP3    H236639   2.388   1.039   7.791  1.0533 -0.6846 -1.2731
 5002TIP3   OH236640   1.294   2.980   8.081 -0.4512 -0.0722 -0.3198
 5002TIP3    H136641   1.284   2.953   8.172 -0.4196  1.8482  0.2863
 5002TIP3    H236642   1.217   2.945   8.037 -1.8229  1.1471  1.0099
 5003TIP3   OH236643   3.957   6.714   6.710 -0.1069  0.2447  0.0394
 5003TIP3    H136644   4.032   6.680   6.662 -0.1597  0.1882 -0.0032
 5003TIP3    H236645   3.893   6.737   6.642 -0.7710 -1.2150  0.1283
 5004TIP3   OH236646   1.875   5.373   1.523  0.7218 -0.1772  0.1396
 5004TIP3    H136647   1.846   5.393   1.612 -1.1667 -0.1667 -0.4300
 5004TIP3    H236648   1.852   5.281   1.510 -1.7202  0.5504 -1.2617
 5005TIP3   OH236649   5.685   6.652   7.664  0.1307  0.1441 -0.5508
 5005TIP3    H136650   5.599   6.649   7.621  0.7662 -1.0618 -1.7882
 5005TIP3    H236651   5.721   6.564   7.653  1.1062  0.3251  0.8873
 5006TIP3   OH236652   2.405   0.578   7.634 -0.6915 -0.0788  0.0076
 5006TIP3    H136653   2.326   0.605   7.681 -1.1010  0.2720 -0.8649
 5006TIP3    H236654   2.409   0.636   7.558  1.0764  0.7441  0.6577
 5007TIP3   OH236655   6.032   0.646   7.998  0.5665 -0.8547 -0.4638
 5007TIP3    H136656   6.082   0.642   7.917  4.2904  0.7769  1.4439
 5007TIP3    H236657   5.984   0.729   7.993  1.3808 -0.3833 -0.7809
 5008TIP3   OH236658   0.282   3.559   6.738  0.2721 -0.4625 -0.0958
 5008TIP3    H136659   0.195   3.530   6.709  1.3824 -1.8925 -2.2606
 5008TIP3    H236660   0.320   3.484   6.782  0.2476  0.3384  1.3497
 5009TIP3   OH236661   6.486   1.175   7.173 -0.1841 -0.6614  0.2762
 5009TIP3    H136662   6.549   1.144   7.108 -0.6083 -1.1517  0.0875
 5009TIP3    H236663   6.538   1.228   7.233  0.4550 -1.2411  0.2517
 5010TIP3   OH236664   2.657   1.610   8.491  0.0623  0.0531 -0.0406
 5010TIP3    H136665   2.638   1.631   8.400 -0.7564 -0.3473  0.0307
 5010TIP3    H236666   2.674   1.516   8.492  4.0951  0.6145 -0.4151
 5011TIP3   OH236667   6.673   0.196   6.154  0.1632 -0.8706  0.1921
 5011TIP3    H136668   6.756   0.189   6.107  0.7837  3.5996  0.2576
 5011TIP3    H236669   6.609   0.217   6.085  0.1374  0.7989  0.6904
 5012TIP3   OH236670   2.913   1.334   6.294  0.1978  0.2710 -0.0005
 5012TIP3    H136671   2.995   1.288   6.276  0.5962  0.8315  0.3337
 5012TIP3    H236672   2.845   1.278   6.257  0.6552 -0.6532  0.5276
 5013TIP3   OH236673   4.142   5.334   1.051  0.2379  0.0455  0.8606
 5013TIP3    H136674   4.070   5.275   1.031  0.8060  0.0351 -1.5321
 5013TIP3    H236675   4.191   5.291   1.121 -0.5069 -1.3055  0.5719
 5014TIP3   OH236676   4.464   4.696   8.718  0.8151  0.6994 -0.4441
 5014TIP3    H136677   4.431   4.785   8.720  1.3616  0.9415 -1.3810
 5014TIP3    H236678   4.491   4.683   8.627 -1.0018 -1.0598 -0.7955
 5015TIP3   OH236679   3.536   6.866   8.049 -0.3910 -0.2307  0.1011
 5015TIP3    H136680   3.445   6.889   8.067  0.4218  2.1523  1.5470
 5015TIP3    H236681   3.573   6.845   8.135  1.1764  1.9579  0.0400
 5016TIP3   OH236682   2.038   2.462   6.784 -0.1487 -0.1916 -0.2874
 5016TIP3    H136683   2.128   2.486   6.764 -0.1928  1.6726  1.4432
 5016TIP3    H236684   2.036   2.367   6.773  1.7814 -0.1742 -1.2121
 5017TIP3   OH236685   4.981   4.504   2.190 -0.4450  0.3771 -0.0457
 5017TIP3    H136686   5.024   4.487   2.106 -1.9950 -1.1087 -0.5854
 5017TIP3    H236687   4.993   4.424   2.240  1.0750  1.4909  1.4892
 5018TIP3   OH236688   0.273   0.064   0.703  0.0043 -0.5973  0.4163
 5018TIP3    H136689   0.226   0.146   0.688 -1.1820 -1.2491  0.4176
 5018TIP3    H236690   0.365   0.090   0.710 -0.2321  0.6060 -0.5524
 5019TIP3   OH236691   1.103   2.560   7.952 -0.0661 -0.2358 -0.3356
 5019TIP3    H136692   1.087   2.602   7.867  2.6047  2.4853  0.2971
 5019TIP3    H236693   1.027   2.582   8.005 -1.5878 -1.6375 -1.8015
 5020TIP3   OH236694   0.301   6.408   5.962 -0.4393 -0.1413 -0.2234
 5020TIP3    H136695   0.261   6.493   5.981  1.1863  0.7220 -0.4859
 5020TIP3    H236696   0.231   6.357   5.922 -0.9478  1.7361 -1.8777
 5021TIP3   OH236697   1.123   2.873   6.913  0.2887 -0.0901  0.6754
 5021TIP3    H136698   1.134   2.919   6.830 -0.3011 -0.1930  0.5367
 5021TIP3    H236699   1.155   2.785   6.896 -0.7125 -0.3866  0.2776
 5022TIP3   OH236700   4.361   2.025   7.339 -0.2459  0.7955  0.3224
 5022TIP3    H136701   4.396   2.062   7.258  0.8213 -0.0930  0.3619
 5022TIP3    H236702   4.428   1.965   7.369 -1.5429 -0.5080  0.7270
 5023TIP3   OH236703   2.582   0.057   7.939  0.0022  0.5024 -0.0431
 5023TIP3    H136704   2.634  -0.019   7.967  0.8323  0.7579 -0.8108
 5023TIP3    H236705   2.492   0.034   7.962  0.5214  0.4161  2.1322
 5024TIP3   OH236706   3.835   5.343   6.352 -0.2014  0.6989  0.4189
 5024TIP3    H136707   3.928   5.320   6.358 -0.1953  0.9710  1.4286
 5024TIP3    H236708   3.831   5.405   6.278 -0.0441 -1.4917 -1.5537
 5025TIP3   OH236709   6.797   1.387   8.159  0.2012 -0.3714  0.5027
 5025TIP3    H136710   6.750   1.319   8.206  1.0640 -2.0058 -0.9146
 5025TIP3    H236711   6.881   1.348   8.136  1.2147  1.5646  0.6236
 5026TIP3   OH236712   0.035   3.882   6.669 -0.1147 -0.5370 -0.3778
 5026TIP3    H136713   0.041   3.832   6.751 -0.3200  0.3405  0.1957
 5026TIP3    H236714  -0.024   3.830   6.614 -0.2242 -0.9941  0.1536
 5027TIP3   OH236715   0.585   3.036   0.672  0.2884 -0.0394  0.4534
 5027TIP3    H136716   0.618   3.126   0.667  2.4194 -0.8216 -1.7611
 5027TIP3    H236717   0.633   2.996   0.744  0.3302  0.2283  0.5761
 5028TIP3   OH236718   2.595   2.832   0.572 -0.1752  0.3132  0.5940
 5028TIP3    H136719   2.583   2.857   0.480 -1.4750 -0.9722  0.3649
 5028TIP3    H236720   2.667   2.886   0.603  1.2693 -0.2332 -1.6011
 5029TIP3   OH236721   4.443   4.142   8.340  0.0579  0.9899 -0.4427
 5029TIP3    H136722   4.534   4.141   8.370 -0.2418  0.6946  0.5024
 5029TIP3    H236723   4.405   4.062   8.376 -0.8919  1.7169  0.2294
 5030TIP3   OH236724   1.712   2.611   5.806 -0.2514 -0.1476  0.0247
 5030TIP3    H136725   1.687   2.532   5.757 -0.9205 -0.9447  1.5904
 5030TIP3    H236726   1.647   2.617   5.876  1.0274  0.6262  1.1785
 5031TIP3   OH236727   1.949   3.304   6.275 -0.0829 -0.4314 -0.3563
 5031TIP3    H136728   1.893   3.370   6.235  1.0605  0.3768 -0.6504
 5031TIP3    H236729   1.889   3.232   6.295 -1.5879  1.1509  1.1230
 5032TIP3   OH236730   2.343   3.912   7.201 -0.1700  0.5263 -0.3140
 5032TIP3    H136731   2.383   3.931   7.285 -1.2405  0.3906  0.2464
 5032TIP3    H236732   2.352   3.817   7.191 -0.7872  0.4246  0.0516
 5033TIP3   OH236733   4.993   5.870   6.458  0.0120  0.3664 -0.3995
 5033TIP3    H136734   4.969   5.813   6.386  0.3953 -1.1439  0.6214
 5033TIP3    H236735   4.918   5.929   6.468 -0.6840 -0.3764 -1.0743
 5034TIP3   OH236736   3.064   0.985   7.937  0.2588 -0.9477  0.3198
 5034TIP3    H136737   3.014   1.063   7.916 -0.6663 -2.0213 -1.7441
 5034TIP3    H236738   3.151   1.001   7.900  1.2493  0.4803  2.9907
 5035TIP3   OH236739   1.023   0.859   0.835 -0.1358  0.0580  0.2039
 5035TIP3    H136740   1.005   0.822   0.922 -2.2498 -0.9615 -0.5789
 5035TIP3    H236741   1.036   0.952   0.851 -0.4483 -0.1101  1.6169
 5036TIP3   OH236742   0.202   3.644   8.268  0.3378 -0.8561  0.0718
 5036TIP3    H136743   0.189   3.720   8.212 -1.8094 -1.7500 -0.7588
 5036TIP3    H236744   0.289   3.612   8.246  0.7682  0.6063 -0.4640
 5037TIP3   OH236745   2.420   1.756   0.082 -0.5959  0.0566 -0.2451
 5037TIP3    H136746   2.407   1.846   0.109 -3.5923 -0.9940  2.3623
 5037TIP3    H236747   2.384   1.751  -0.006  1.5284  1.7569 -1.2871
 5038TIP3   OH236748   3.152   2.013   8.080  0.1947 -0.2005  0.0904
 5038TIP3    H136749   3.240   1.975   8.078  1.0169  1.5745  1.1947
 5038TIP3    H236750   3.158   2.090   8.024 -0.9618 -0.6149 -0.6424
 5039TIP3   OH236751   1.204   1.658   2.251 -0.0644  0.0922  0.1540
 5039TIP3    H136752   1.216   1.748   2.220 -0.0169 -1.0599 -3.6444
 5039TIP3    H236753   1.111   1.641   2.238 -0.0563 -0.4845  0.7833
 5040TIP3   OH236754   2.582   1.807   6.999  0.1197  0.2174 -0.2369
 5040TIP3    H136755   2.625   1.892   6.996 -0.7250  0.7954  2.0205
 5040TIP3    H236756   2.615   1.761   6.922  1.7514  2.0253 -0.7041
 5041TIP3   OH236757   1.132   1.139   0.644 -0.4074  0.1598  0.1248
 5041TIP3    H136758   1.138   1.202   0.716  2.2704 -1.2821  1.2952
 5041TIP3    H236759   1.208   1.158   0.589 -0.3625 -1.0860 -0.2832
 5042TIP3   OH236760   4.365   2.179   8.665  0.6419 -0.2700 -0.0586
 5042TIP3    H136761   4.346   2.256   8.610  2.2046  0.3137  0.1638
 5042TIP3    H236762   4.352   2.210   8.754  0.4879 -0.5102  0.0017
 5043TIP3   OH236763   2.910   6.516   0.520  0.3112  0.2277 -0.2390
 5043TIP3    H136764   2.942   6.574   0.589  0.3751 -0.9376  0.7467
 5043TIP3    H236765   2.823   6.551   0.499  0.7624  1.2922 -0.4156
 5044TIP3   OH236766   5.637   5.643   8.474  0.8145  0.4912  0.3525
 5044TIP3    H136767   5.622   5.550   8.491  0.8216 -0.2452 -2.9468
 5044TIP3    H236768   5.551   5.683   8.479  0.4357 -0.1824 -0.5473
 5045TIP3   OH236769   3.602   1.536   6.468 -0.3516 -0.4224  0.2834
 5045TIP3    H136770   3.627   1.486   6.546  2.2843 -0.4046 -0.4582
 5045TIP3    H236771   3.652   1.617   6.474 -1.4079  0.3162 -0.5972
 5046TIP3   OH236772   1.606   0.936   7.745 -0.7948  0.0974  0.0224
 5046TIP3    H136773   1.623   0.994   7.819 -2.2266  1.5284 -0.7102
 5046TIP3    H236774   1.599   0.849   7.783 -0.1548  0.6106  1.3665
 5047TIP3   OH236775   4.327   0.776   2.376  0.1702 -0.1770  0.2973
 5047TIP3    H136776   4.393   0.800   2.311  1.9116  0.8281  2.3130
 5047TIP3    H236777   4.276   0.856   2.388  0.9684  0.1915  1.3730
 5048TIP3   OH236778   5.633   1.049   7.825  0.2886 -0.3677  0.2871
 5048TIP3    H136779   5.610   0.978   7.885 -0.1976 -0.2799  0.2091
 5048TIP3    H236780   5.712   1.019   7.781  0.6742 -0.4185  1.0023
 5049TIP3   OH236781   3.985   5.714   0.720  0.6117  0.3580  0.3185
 5049TIP3    H136782   3.947   5.763   0.648  0.4738 -1.7477 -1.1183
 5049TIP3    H236783   4.065   5.762   0.743 -0.6922  2.5242  0.6106
 5050TIP3   OH236784   0.800   0.064   0.010 -0.0688  0.6635  0.1269
 5050TIP3    H136785   0.852   0.125   0.061 -0.9891  0.2573  1.6247
 5050TIP3    H236786   0.775   0.113  -0.069  1.5874  1.2208 -0.0831
 5051TIP3   OH236787   5.747   5.077   8.717  0.3212  0.6199  0.1067
 5051TIP3    H136788   5.789   5.003   8.673  1.9063  0.3592  1.9272
 5051TIP3    H236789   5.676   5.038   8.768 -0.1488  0.6431 -0.5189
 5052TIP3   OH236790   3.499   5.182   7.226 -0.6948 -0.3352 -0.2853
 5052TIP3    H136791   3.484   5.134   7.144 -1.8868 -0.9801  0.2987
 5052TIP3    H236792   3.526   5.114   7.288  0.1292  0.1440 -0.1005
 5053TIP3   OH236793   6.148   3.340   2.033 -0.1854 -0.0808 -0.1875
 5053TIP3    H136794   6.235   3.378   2.018 -0.4652  0.7533  0.2636
 5053TIP3    H236795   6.152   3.255   1.989 -0.0552  1.0761 -2.5785
 5054TIP3   OH236796   0.941   3.428   0.609  0.2226 -0.1041  0.2053
 5054TIP3    H136797   1.004   3.449   0.541 -0.0958  1.0808  0.2567
 5054TIP3    H236798   0.897   3.511   0.628 -0.2798 -0.5886  1.2534
 5055TIP3   OH236799   4.564   3.138   7.954  0.6846 -0.0132 -0.3440
 5055TIP3    H136800   4.589   3.230   7.963  0.3556  0.1491 -1.0381
 5055TIP3    H236801   4.621   3.104   7.885 -0.1396  0.0441 -1.0723
 5056TIP3   OH236802   5.020   6.463   6.452  0.7990  0.0900  0.0956
 5056TIP3    H136803   5.111   6.441   6.430  0.6524 -1.4896  0.9576
 5056TIP3    H236804   5.007   6.426   6.539 -0.6774  0.2916 -0.0213
 5057TIP3   OH236805   6.225   6.101   7.924 -0.1008 -0.0015 -0.4737
 5057TIP3    H136806   6.181   6.021   7.894  0.3084  0.3000 -1.9801
 5057TIP3    H236807   6.219   6.161   7.849  0.3736  1.0708  0.3188
 5058TIP3   OH236808   2.745   0.408   0.866  0.2692  0.0412 -0.2478
 5058TIP3    H136809   2.671   0.460   0.832  0.0844  1.1751  1.7530
 5058TIP3    H236810   2.793   0.468   0.922  1.6025 -1.2469  0.0454
 5059TIP3   OH236811   4.626   5.919   7.200 -0.3569  0.4589  0.1744
 5059TIP3    H136812   4.558   5.871   7.153 -1.3221  1.0884  0.8888
 5059TIP3    H236813   4.704   5.908   7.147  0.0134 -3.5629  1.2525
 5060TIP3   OH236814   1.934   6.369   8.148 -0.1732  0.2716 -0.4303
 5060TIP3    H136815   1.871   6.394   8.080 -3.8609 -2.0748  1.7547
 5060TIP3    H236816   1.957   6.279   8.128  0.4471  0.2784  0.2261
 5061TIP3   OH236817   1.409   2.829   7.250 -0.0882 -0.0820 -0.1356
 5061TIP3    H136818   1.396   2.908   7.197 -0.7837 -0.3846 -0.4263
 5061TIP3    H236819   1.503   2.815   7.248 -0.0502  0.1992 -0.8800
 5062TIP3   OH236820   5.983   5.266   7.078  0.2813  0.3271  0.5921
 5062TIP3    H136821   5.996   5.172   7.068  1.8709  0.5508  0.2255
 5062TIP3    H236822   5.932   5.292   7.002  3.1718  0.3268 -1.4957
 5063TIP3   OH236823   5.231   1.631   6.535 -0.2849  0.1047  0.1449
 5063TIP3    H136824   5.314   1.670   6.506 -1.1664  1.7746 -0.2540
 5063TIP3    H236825   5.241   1.538   6.515  1.7207  0.1541  0.6585
 5064TIP3   OH236826   0.466   3.939   8.449 -0.6364  0.1612  1.1506
 5064TIP3    H136827   0.488   3.973   8.536 -1.2704  1.6377  0.7615
 5064TIP3    H236828   0.500   4.004   8.388  0.6515 -1.3218  0.2150
 5065TIP3   OH236829   6.453   1.716   8.541  0.4200  0.7947 -0.0627
 5065TIP3    H136830   6.503   1.649   8.495 -0.5449  0.3600 -0.5131
 5065TIP3    H236831   6.364   1.708   8.506 -0.3419  0.4850  1.8226
 5066TIP3   OH236832   2.562   6.569   1.397  0.1292 -0.2586 -0.4217
 5066TIP3    H136833   2.619   6.572   1.319  1.0885 -0.6638  0.2384
 5066TIP3    H236834   2.623   6.569   1.471 -0.7317 -1.0184  0.3077
 5067TIP3   OH236835   4.620   2.560   8.409  0.1705 -0.2069  0.3771
 5067TIP3    H136836   4.545   2.612   8.379 -0.2411 -0.4855  0.9126
 5067TIP3    H236837   4.598   2.470   8.384  0.8596 -0.1491 -0.5055
 5068TIP3   OH236838   4.473   5.357   1.128 -0.3341 -0.1504 -0.4529
 5068TIP3    H136839   4.400   5.355   1.190 -3.5777 -0.2063 -3.9056
 5068TIP3    H236840   4.456   5.434   1.074  1.0036 -1.2988 -2.6457
 5069TIP3   OH236841   2.849   1.507   7.902 -0.1807 -0.0996  0.3283
 5069TIP3    H136842   2.810   1.594   7.899 -1.1558 -0.4985  0.8193
 5069TIP3    H236843   2.847   1.484   7.995 -0.6936 -0.9674  0.1117
 5070TIP3   OH236844   2.946   6.525   1.356 -0.1986  0.3747 -0.1460
 5070TIP3    H136845   2.923   6.448   1.408  1.5677 -0.6202 -0.7228
 5070TIP3    H236846   2.876   6.533   1.291 -0.3962 -0.7812 -0.0940
 5071TIP3   OH236847   5.898   3.893   8.080  0.3115 -0.1170  0.5533
 5071TIP3    H136848   5.958   3.962   8.053 -0.7536  1.7466  2.6431
 5071TIP3    H236849   5.856   3.864   7.998  1.8294  0.6535 -0.5405
 5072TIP3   OH236850   1.411   0.457   7.820  0.0519  0.0347  0.1741
 5072TIP3    H136851   1.337   0.398   7.808 -0.8210  1.5614 -3.3995
 5072TIP3    H236852   1.479   0.424   7.762 -0.0297  1.7554 -0.9930
 5073TIP3   OH236853   0.774   6.817   7.242 -0.5588 -0.5349 -0.2532
 5073TIP3    H136854   0.866   6.837   7.262 -1.2664  1.4210  1.3193
 5073TIP3    H236855   0.779   6.752   7.172  2.0276 -1.6539  0.8365
 5074TIP3   OH236856   5.342   1.120   6.932  0.7689  0.1344  0.0510
 5074TIP3    H136857   5.296   1.038   6.952 -0.1592  0.6907  0.2699
 5074TIP3    H236858   5.295   1.187   6.982 -0.9612  1.4098 -2.9626
 5075TIP3   OH236859   6.069   4.113   7.906 -0.1133 -0.4248 -0.1473
 5075TIP3    H136860   6.132   4.175   7.942 -1.3327 -1.2856  3.9190
 5075TIP3    H236861   5.999   4.167   7.871  1.3118  0.4547 -1.8355
 5076TIP3   OH236862   1.302   1.622   7.153 -0.3805 -0.3475  0.1804
 5076TIP3    H136863   1.277   1.530   7.159 -0.7581 -0.3337 -0.8718
 5076TIP3    H236864   1.226   1.670   7.187  0.5836 -0.4329  2.6812
 5077TIP3   OH236865   4.170   1.212   7.959 -0.6754  0.0344  0.5035
 5077TIP3    H136866   4.082   1.181   7.939 -0.4110 -0.8829  0.7054
 5077TIP3    H236867   4.189   1.178   8.046 -0.6198  1.3625  1.0364
 5078TIP3   OH236868   0.370   5.028   7.108  0.4576  0.5106  0.4503
 5078TIP3    H136869   0.456   5.020   7.066  0.3597  0.4310  0.2597
 5078TIP3    H236870   0.329   4.943   7.094 -0.1028  0.9103 -0.4867
 5079TIP3   OH236871   6.791   3.857   8.280 -0.3989 -0.0715 -0.0972
 5079TIP3    H136872   6.796   3.784   8.342  0.1250 -1.1708 -1.3706
 5079TIP3    H236873   6.698   3.870   8.266 -0.5939  1.1542  1.9585
 5080TIP3   OH236874   0.831   4.930   7.292  0.0578 -0.4575  0.0224
 5080TIP3    H136875   0.777   4.854   7.314 -1.0049  0.1316 -0.4995
 5080TIP3    H236876   0.793   4.965   7.212  0.3171  0.8243  0.4298
 5081TIP3   OH236877   0.079   0.258   6.431 -0.1083 -0.5469 -0.3644
 5081TIP3    H136878   0.124   0.289   6.509  0.9812  0.9086 -1.4970
 5081TIP3    H236879   0.146   0.261   6.362 -1.5242  0.1559 -1.7712
 5082TIP3   OH236880   2.863   3.753   1.805  0.6538  0.1043 -0.3233
 5082TIP3    H136881   2.908   3.730   1.886  0.2673 -1.1542 -0.4448
 5082TIP3    H236882   2.798   3.819   1.831 -1.4757 -2.3629  1.0068
 5083TIP3   OH236883   4.318   3.034   0.258 -0.2846  0.3457 -0.0528
 5083TIP3    H136884   4.366   2.979   0.320 -2.3153 -0.6167  0.7657
 5083TIP3    H236885   4.368   3.115   0.254  2.6662 -1.3535 -1.0589
 5084TIP3   OH236886   4.241   0.550   6.161  0.9143 -0.2271 -0.7828
 5084TIP3    H136887   4.182   0.478   6.186  0.7874  0.2653  0.4363
 5084TIP3    H236888   4.182   0.621   6.135  0.9303  0.2975  0.5281
 5085TIP3   OH236889   2.672   0.034   0.511  0.0654 -0.3814 -0.0505
 5085TIP3    H136890   2.711   0.071   0.590  0.8874  1.7946 -1.3793
 5085TIP3    H236891   2.688   0.100   0.444 -2.3624 -1.2570 -1.5995
 5086TIP3   OH236892   5.145   6.017   7.941 -0.2405 -0.3719 -0.1052
 5086TIP3    H136893   5.232   6.021   7.981  0.7318 -3.4236 -1.5460
 5086TIP3    H236894   5.162   6.026   7.847 -1.8284  1.4488 -0.2707
 5087TIP3   OH236895   2.406   5.434   7.510 -0.2351  0.0933  0.0579
 5087TIP3    H136896   2.454   5.352   7.522  1.7648  1.3007  0.8604
 5087TIP3    H236897   2.391   5.439   7.416  1.6092 -0.1816 -0.2989
 5088TIP3   OH236898   2.738   0.692   6.933 -0.0618 -0.2558 -0.0556
 5088TIP3    H136899   2.672   0.636   6.975 -0.0099 -1.0265 -0.9592
 5088TIP3    H236900   2.754   0.761   6.996  0.1529 -1.4813  1.2971
 5089TIP3   OH236901   5.625   4.372   1.126 -0.0782  0.4621 -0.7337
 5089TIP3    H136902   5.716   4.347   1.109 -0.3061 -1.0951  0.1295
 5089TIP3    H236903   5.573   4.313   1.072 -0.5940  0.9021 -0.7262
 5090TIP3   OH236904   3.991   5.904   1.004 -0.1885  0.6488 -0.0966
 5090TIP3    H136905   3.948   5.820   1.019 -1.4497  0.9347 -1.8352
 5090TIP3    H236906   3.964   5.958   1.078 -0.6757  0.0157  0.2002
 5091TIP3   OH236907   1.880   1.625   1.862 -0.1107 -0.2810  0.1866
 5091TIP3    H136908   1.839   1.704   1.899 -0.1249 -0.0366 -0.3465
 5091TIP3    H236909   1.963   1.656   1.827 -0.3616 -0.3937 -0.5192
 5092TIP3   OH236910   4.382   1.365   1.383 -0.2936  0.4764  0.0558
 5092TIP3    H136911   4.460   1.321   1.348  0.4713  2.2361 -0.5778
 5092TIP3    H236912   4.338   1.401   1.306 -0.6713  1.1479  0.5704
 5093TIP3   OH236913   1.245   0.977   7.629 -0.2491 -0.4390 -0.5557
 5093TIP3    H136914   1.304   0.934   7.567  1.6401  1.2305 -0.0411
 5093TIP3    H236915   1.248   0.922   7.707  1.8849  0.3601 -0.0135
 5094TIP3   OH236916   6.363   3.965   8.052 -0.2242  0.1417 -0.3112
 5094TIP3    H136917   6.311   3.885   8.039 -0.5938 -0.1101  2.1820
 5094TIP3    H236918   6.436   3.956   7.990 -1.5205 -0.9486 -1.7710
 5095TIP3   OH236919   2.234   4.555   2.023  0.5211  0.8845 -0.3596
 5095TIP3    H136920   2.196   4.631   2.068 -2.9281 -0.3106 -0.9576
 5095TIP3    H236921   2.237   4.487   2.089  0.6631  0.6615 -0.5954
 5096TIP3   OH236922   2.759   6.638   7.680 -0.2648 -0.5936 -0.5270
 5096TIP3    H136923   2.741   6.545   7.688 -0.1147 -0.5256  0.7197
 5096TIP3    H236924   2.768   6.669   7.770  1.2977  0.3031 -0.9466
 5097TIP3   OH236925   6.680   0.040   8.482  0.7453  0.1408  0.2858
 5097TIP3    H136926   6.768   0.048   8.519  1.7867 -0.6350 -1.8640
 5097TIP3    H236927   6.640   0.125   8.499  1.1824 -0.1026  2.9491
 5098TIP3   OH236928   1.156   1.138   5.807 -0.7123  0.2474 -0.6067
 5098TIP3    H136929   1.250   1.146   5.791 -0.3787 -0.1702  1.0565
 5098TIP3    H236930   1.118   1.218   5.769  0.0934 -0.2865 -2.6618
 5099TIP3   OH236931   3.240   5.077   0.500 -0.1080  0.2447  0.1085
 5099TIP3    H136932   3.331   5.096   0.521 -0.2333  2.6188 -1.1500
 5099TIP3    H236933   3.192   5.097   0.581  0.3495 -0.0308  0.4552
 5100TIP3   OH236934   3.400   5.699   8.152 -0.2161  0.4147  0.4335
 5100TIP3    H136935   3.374   5.719   8.062 -0.3173 -1.7033 -0.0598
 5100TIP3    H236936   3.495   5.690   8.149 -0.2623 -0.0885  0.4453
 5101TIP3   OH236937   2.684   0.266   1.108  0.2987  0.2967 -0.0649
 5101TIP3    H136938   2.628   0.191   1.089  1.5833 -0.4890 -0.9682
 5101TIP3    H236939   2.676   0.323   1.031 -0.1997  0.7935  0.3483
 5102TIP3   OH236940   5.486   3.954   8.737  0.5183 -0.3107  0.0912
 5102TIP3    H136941   5.556   3.906   8.695  1.3408  0.9728 -0.0461
 5102TIP3    H236942   5.483   4.038   8.692 -1.9653 -0.7585 -0.7794
 5103TIP3   OH236943   2.125   5.241   6.465  0.3305  0.1153 -0.1311
 5103TIP3    H136944   2.061   5.179   6.500  0.4084  0.6202  0.9328
 5103TIP3    H236945   2.076   5.292   6.400  0.2329 -0.9549 -0.9294
 5104TIP3   OH236946   4.816   3.230   1.785  0.1844  0.2739 -0.6947
 5104TIP3    H136947   4.797   3.317   1.749  1.7171  0.4735 -1.0890
 5104TIP3    H236948   4.733   3.201   1.821 -0.5817  1.5235 -1.3617
 5105TIP3   OH236949   1.910   5.454   8.135 -0.0709  0.2174 -0.0163
 5105TIP3    H136950   1.934   5.522   8.199 -1.1272  1.5146 -0.9358
 5105TIP3    H236951   1.897   5.375   8.188  0.5106  0.8933  1.1801
 5106TIP3   OH236952   3.362   1.519   1.152  0.1489 -0.1406  0.3201
 5106TIP3    H136953   3.435   1.491   1.096  1.9444 -0.0656  2.5130
 5106TIP3    H236954   3.332   1.438   1.194  1.1194  0.2556  1.8323
 5107TIP3   OH236955   5.451   5.456   1.488  0.1017 -0.1626  0.1576
 5107TIP3    H136956   5.429   5.463   1.581  0.4700  1.7257  0.1296
 5107TIP3    H236957   5.544   5.477   1.484  0.0182  0.0639 -0.6787
 5108TIP3   OH236958   5.204   5.967   7.695  0.0952 -0.2479 -0.5582
 5108TIP3    H136959   5.158   5.930   7.620  1.2735  1.7555 -2.4020
 5108TIP3    H236960   5.295   5.936   7.686  0.2270 -0.0724  0.0997
 5109TIP3   OH236961   1.798   2.866   8.530 -0.2013  0.2339  0.1382
 5109TIP3    H136962   1.820   2.890   8.621  0.9827  0.1816 -0.1095
 5109TIP3    H236963   1.882   2.873   8.484 -1.1349  2.1863 -1.3881
 5110TIP3   OH236964   2.295   4.215   6.849  0.0110 -0.3904 -0.5648
 5110TIP3    H136965   2.234   4.281   6.881  1.1698  0.6558 -0.4212
 5110TIP3    H236966   2.343   4.259   6.780 -0.6352 -1.7874 -1.9591
 5111TIP3   OH236967   4.613   0.140   0.369  0.4922 -0.2463 -0.4174
 5111TIP3    H136968   4.526   0.123   0.406  0.7522  2.7923  2.0370
 5111TIP3    H236969   4.596   0.203   0.299  0.5936 -1.4168 -1.5433
 5112TIP3   OH236970   5.728   4.375   6.923  0.0159  0.3904 -0.4359
 5112TIP3    H136971   5.666   4.303   6.930  0.6315 -0.1026  0.0496
 5112TIP3    H236972   5.680   4.451   6.954 -0.3871  0.0363 -0.1783
 5113TIP3   OH236973   1.487   4.497   1.162  0.0172  0.3034 -0.1095
 5113TIP3    H136974   1.501   4.403   1.163  0.8269  0.4123 -0.6099
 5113TIP3    H236975   1.401   4.508   1.120 -0.1933 -0.2147  0.1734
 5114TIP3   OH236976   2.462   6.428   1.122  0.1571 -0.1890  0.3399
 5114TIP3    H136977   2.455   6.522   1.139  1.2774 -0.1006  0.3506
 5114TIP3    H236978   2.470   6.389   1.209  0.2048 -0.2491  0.3081
 5115TIP3   OH236979   4.312   3.599   6.435 -0.2836  0.6706 -0.1724
 5115TIP3    H136980   4.374   3.537   6.473 -0.4355  1.6506  1.8084
 5115TIP3    H236981   4.367   3.665   6.392  0.0248  0.9286  0.6005
 5116TIP3   OH236982   2.526   0.399   1.615 -0.7717 -0.4004  0.4574
 5116TIP3    H136983   2.473   0.477   1.631 -0.2726 -0.2515  1.5093
 5116TIP3    H236984   2.568   0.415   1.531  1.3520  1.6941  1.7931
 5117TIP3   OH236985   3.530   0.256   6.928 -0.0468 -0.0903  0.1935
 5117TIP3    H136986   3.548   0.350   6.925 -0.9181  0.0622 -0.9038
 5117TIP3    H236987   3.454   0.244   6.871 -1.2257 -1.1790  1.8702
 5118TIP3   OH236988   6.114   3.253   7.623  0.2738  0.2012 -0.3270
 5118TIP3    H136989   6.055   3.314   7.578 -0.2206  0.2873  0.4288
 5118TIP3    H236990   6.063   3.220   7.697  1.3669  0.7167  0.6771
 5119TIP3   OH236991   2.392   3.000   0.262  0.1814  0.9012  0.0696
 5119TIP3    H136992   2.470   3.037   0.304  0.1411  1.3193 -0.2126
 5119TIP3    H236993   2.406   2.906   0.265  0.7129  0.9701 -0.0006
 5120TIP3   OH236994   2.059   2.169   0.161  0.1202  0.4186 -0.6890
 5120TIP3    H136995   2.135   2.205   0.206  0.7056  0.0928 -1.3995
 5120TIP3    H236996   2.065   2.075   0.175  0.0593  0.3562 -1.0676
 5121TIP3   OH236997   0.441   3.648   0.943  0.3779 -0.2283  0.0933
 5121TIP3    H136998   0.434   3.575   1.005 -1.7665 -0.4872 -0.3737
 5121TIP3    H236999   0.416   3.610   0.859  0.4942  0.7752 -0.4022
 5122TIP3   OH237000   3.579   6.339   8.306  0.0078  0.0837 -0.1895
 5122TIP3    H137001   3.537   6.259   8.337 -0.2299  0.6333  0.9163
 5122TIP3    H237002   3.533   6.360   8.224 -0.8455 -0.1667  0.2155
 5123TIP3   OH237003   3.362   3.830   7.550  0.7299 -0.0792  0.7596
 5123TIP3    H137004   3.351   3.761   7.615  4.1734 -1.9442 -0.3495
 5123TIP3    H237005   3.436   3.882   7.581 -0.0006  1.3879  0.1645
 5124TIP3   OH237006   1.371   3.006   1.135 -0.9965  0.2930 -0.1997
 5124TIP3    H137007   1.411   2.984   1.052 -1.8738 -2.8415  0.0745
 5124TIP3    H237008   1.379   3.101   1.142  2.6895  0.2552 -1.9466
 5125TIP3   OH237009   3.667   1.231   1.323 -0.3566  0.4693  0.1813
 5125TIP3    H137010   3.595   1.264   1.270  0.7426  1.9064 -0.4891
 5125TIP3    H237011   3.672   1.291   1.398  1.4525  1.7343 -0.8756
 5126TIP3   OH237012   2.450   1.840   8.108  1.1169  0.1404 -0.6564
 5126TIP3    H137013   2.424   1.850   8.200 -0.5504 -2.0763 -0.8058
 5126TIP3    H237014   2.468   1.929   8.078 -2.9584  1.5846  0.5331
 5127TIP3   OH237015   5.580   3.442   6.298 -0.5924 -0.6171  0.1275
 5127TIP3    H137016   5.563   3.352   6.269 -0.4867 -0.1535 -1.4344
 5127TIP3    H237017   5.675   3.447   6.308 -0.5773 -0.6057 -0.0231
 5128TIP3   OH237018   1.258   0.160   8.535  0.4312 -0.8428  0.0800
 5128TIP3    H137019   1.251   0.072   8.499  0.1068 -1.1518  0.8691
 5128TIP3    H237020   1.346   0.163   8.573  0.3696 -0.8906  0.2255
 5129TIP3   OH237021   3.960   1.501   1.251  0.0195 -0.4793 -0.1828
 5129TIP3    H137022   3.960   1.541   1.164  2.2083 -0.0943 -0.0701
 5129TIP3    H237023   3.875   1.458   1.258 -1.9653  3.0439 -0.7972
 5130TIP3   OH237024   2.189   2.696   6.393 -0.0209 -0.5139 -0.1949
 5130TIP3    H137025   2.245   2.701   6.470 -0.0117 -1.5758 -0.1302
 5130TIP3    H237026   2.234   2.636   6.334 -0.8309 -0.9658 -0.3592
 5131TIP3   OH237027   5.416   5.476   7.369 -0.2791  0.2972 -0.3163
 5131TIP3    H137028   5.324   5.494   7.389 -0.1690 -0.7012  1.2013
 5131TIP3    H237029   5.454   5.562   7.349 -1.4163  0.7749 -0.4656
 5132TIP3   OH237030   3.199   6.537   1.220 -0.5802  0.4333 -0.0074
 5132TIP3    H137031   3.209   6.449   1.185 -2.2758  0.9145 -1.8904
 5132TIP3    H237032   3.109   6.539   1.253 -1.9865  2.4489 -3.4023
 5133TIP3   OH237033   4.934   1.713   8.225  0.3821 -0.3659  0.6697
 5133TIP3    H137034   5.019   1.685   8.260  0.6737 -0.0562  0.2090
 5133TIP3    H237035   4.954   1.753   8.141 -0.1668  0.1779  0.7909
 5134TIP3   OH237036   5.345   1.331   0.872 -0.0156 -0.7163  0.1509
 5134TIP3    H137037   5.268   1.389   0.869 -0.0503 -0.7696 -0.0488
 5134TIP3    H237038   5.340   1.283   0.789  0.4055 -0.5015  0.0003
 5135TIP3   OH237039   5.333   3.509   0.314 -0.8475  0.1191  0.3167
 5135TIP3    H137040   5.349   3.580   0.251 -0.4384  0.5501  0.8962
 5135TIP3    H237041   5.403   3.519   0.379  0.7560 -2.3395 -0.8966
 5136TIP3   OH237042   2.160   2.584   7.382  0.0809  0.3465  0.4449
 5136TIP3    H137043   2.245   2.575   7.425  1.1521  0.6136 -1.5126
 5136TIP3    H237044   2.109   2.509   7.414  0.4592  1.0128  2.8338
 5137TIP3   OH237045   3.011   1.177   8.598 -0.6524  0.2897  0.2000
 5137TIP3    H137046   2.996   1.153   8.506 -1.4050  2.7249 -0.3791
 5137TIP3    H237047   3.106   1.171   8.610 -0.6795 -1.7160 -0.1823
 5138TIP3   OH237048   5.205   5.660   0.378 -0.5568  0.2999  0.6028
 5138TIP3    H137049   5.236   5.604   0.450 -0.0708  0.9983  0.9525
 5138TIP3    H237050   5.227   5.612   0.299  1.8530  0.9461  0.8180
 5139TIP3   OH237051   4.394   5.356   6.969 -0.2362 -0.1254  0.2185
 5139TIP3    H137052   4.355   5.359   6.882 -0.2263  4.4930  0.1429
 5139TIP3    H237053   4.326   5.317   7.024 -2.3197  1.4379 -1.0983
 5140TIP3   OH237054   0.816   4.510   0.516 -0.0560 -0.1165 -0.2788
 5140TIP3    H137055   0.820   4.595   0.560 -0.8717 -0.2894  0.1490
 5140TIP3    H237056   0.730   4.475   0.539  0.4379 -1.2614 -0.0617
 5141TIP3   OH237057   2.597   0.274   7.200 -0.1644 -0.2696 -0.3040
 5141TIP3    H137058   2.582   0.249   7.291 -1.0659 -0.6125 -0.5363
 5141TIP3    H237059   2.631   0.195   7.159  0.5196 -0.0307 -0.2036
 5142TIP3   OH237060   1.035   5.909   6.666 -0.3758  0.3655 -0.5476
 5142TIP3    H137061   0.959   5.935   6.717 -0.6780 -0.1051 -0.7500
 5142TIP3    H237062   1.086   5.853   6.724 -0.6050  0.0131 -0.6828
 5143TIP3   OH237063   2.055   6.338   7.618 -0.2205  0.2239  0.3427
 5143TIP3    H137064   2.045   6.244   7.609 -0.0332  0.3344 -1.2495
 5143TIP3    H237065   2.099   6.349   7.703 -0.0696 -1.1155  0.4595
 5144TIP3   OH237066   5.409   5.837   8.336  0.1258  0.2533 -0.4912
 5144TIP3    H137067   5.448   5.776   8.273  0.8727 -0.8791  0.9996
 5144TIP3    H237068   5.322   5.801   8.353  0.2213  0.1052 -0.3037
 5145TIP3   OH237069   6.585   1.357   7.940 -0.1860  0.7843  0.7356
 5145TIP3    H137070   6.642   1.339   8.015  2.1624  0.7786 -0.9421
 5145TIP3    H237071   6.571   1.451   7.943 -0.9815  0.6488  1.7423
 5146TIP3   OH237072   0.013   6.046   1.359  0.1098  0.1435  0.0145
 5146TIP3    H137073  -0.020   6.036   1.448 -0.2977 -0.8978 -0.2425
 5146TIP3    H237074  -0.039   5.985   1.307  1.1874 -0.1697 -0.7231
 5147TIP3   OH237075   1.866   5.473   0.311 -0.2297  0.5212 -0.7629
 5147TIP3    H137076   1.783   5.466   0.263 -0.7509  0.2995  0.1598
 5147TIP3    H237077   1.890   5.565   0.302 -1.7985  1.1549  0.9199
 5148TIP3   OH237078   4.897   2.332   7.709 -0.9179 -0.1607 -0.0786
 5148TIP3    H137079   4.912   2.380   7.790  0.2701 -1.2435  0.3818
 5148TIP3    H237080   4.815   2.286   7.722 -1.0153  0.1147  0.2891
 5149TIP3   OH237081   2.403   2.933   1.757 -0.1377  0.1820 -0.5949
 5149TIP3    H137082   2.486   2.891   1.782  0.0145 -0.7646 -2.4722
 5149TIP3    H237083   2.429   3.016   1.718 -0.2193  0.7162  0.4765
 5150TIP3   OH237084   3.333   1.799   1.013 -0.4953 -0.2597  0.3182
 5150TIP3    H137085   3.274   1.724   1.003 -1.0935  0.3830 -1.4067
 5150TIP3    H237086   3.319   1.850   0.933  2.6258 -0.2122 -0.3074
 5151TIP3   OH237087   2.581   2.091   5.803  0.0872  0.3308  0.8380
 5151TIP3    H137088   2.558   2.065   5.714 -2.6999  1.4108  1.1616
 5151TIP3    H237089   2.654   2.152   5.791 -0.7125  1.0450 -0.8040
 5152TIP3   OH237090   5.750   6.155   0.525 -0.1355 -0.0811 -0.7515
 5152TIP3    H137091   5.798   6.108   0.457 -0.5821  0.6909 -1.6175
 5152TIP3    H237092   5.692   6.214   0.477 -1.8829 -0.9036  0.2625
 5153TIP3   OH237093   4.806   2.809   0.356 -0.6068 -0.6537 -0.3804
 5153TIP3    H137094   4.867   2.828   0.284  0.6153  0.5442  0.8898
 5153TIP3    H237095   4.724   2.849   0.329  0.0326  0.4089 -0.8283
 5154TIP3   OH237096   6.202   3.136   7.192 -0.3361  0.0727 -0.6190
 5154TIP3    H137097   6.249   3.219   7.198 -0.0600 -0.1072 -0.2905
 5154TIP3    H237098   6.217   3.094   7.277 -0.5759 -0.2587 -0.7411
 5155TIP3   OH237099   0.124   5.327   1.372 -0.0437  0.1367  0.0186
 5155TIP3    H137100   0.078   5.410   1.359 -1.7960 -0.8773 -0.6711
 5155TIP3    H237101   0.106   5.304   1.463  1.4018  1.0283  0.5565
 5156TIP3   OH237102   4.114   2.266   7.656 -0.5043 -0.3136  0.4116
 5156TIP3    H137103   4.185   2.252   7.593 -0.1978  1.3014  0.3587
 5156TIP3    H237104   4.080   2.178   7.673  0.1597 -0.9064 -1.1136
 5157TIP3   OH237105   2.066   4.171   0.691  0.5816  0.5731 -0.9029
 5157TIP3    H137106   2.005   4.158   0.618 -0.8539 -0.9421  0.4642
 5157TIP3    H237107   2.130   4.099   0.681  1.2643  1.2397 -1.4597
 5158TIP3   OH237108   0.231   6.131   1.648 -0.4808 -0.1593 -0.5754
 5158TIP3    H137109   0.221   6.050   1.599 -1.2892  0.4169 -1.3943
 5158TIP3    H237110   0.291   6.109   1.720  2.2259 -0.5698 -2.8133
 5159TIP3   OH237111   4.030   1.779   1.369  0.6414 -0.3982  0.4332
 5159TIP3    H137112   3.976   1.855   1.390  0.7143 -0.2258  0.0027
 5159TIP3    H237113   3.990   1.707   1.418  0.6295 -0.0684  0.9210
 5160TIP3   OH237114   2.945   1.926   7.388 -0.6919  0.7017  0.7076
 5160TIP3    H137115   2.875   1.964   7.335 -0.1415  0.3004 -0.3503
 5160TIP3    H237116   2.943   1.975   7.470 -0.8465  2.1174 -0.1071
 5161TIP3   OH237117   1.150   2.689   8.742 -0.0290  0.2979 -0.0819
 5161TIP3    H137118   1.199   2.639   8.676  0.4503 -0.7825  1.0477
 5161TIP3    H237119   1.189   2.662   8.825 -2.3608 -0.3850  0.8503
 5162TIP3   OH237120   4.769   3.507   1.756  0.1097  0.2995  1.0330
 5162TIP3    H137121   4.762   3.529   1.663 -1.0083 -1.3688  0.6766
 5162TIP3    H237122   4.696   3.555   1.796 -1.3847 -1.3984  0.4981
 5163TIP3   OH237123   0.027   5.491   6.502 -0.1567 -0.4354  0.3130
 5163TIP3    H137124   0.014   5.397   6.511  0.7104 -0.5696  0.2604
 5163TIP3    H237125  -0.042   5.519   6.442  1.7222 -1.6795 -2.6536
 5164TIP3   OH237126   4.735   4.089   1.260  0.0668  0.4332  0.6065
 5164TIP3    H137127   4.692   4.117   1.180 -0.1426  0.2407  0.6498
 5164TIP3    H237128   4.829   4.103   1.244  0.0754 -0.1677  0.1062
 5165TIP3   OH237129   4.053   5.954   7.010  0.0349  0.5396  0.5668
 5165TIP3    H137130   4.024   5.999   7.089  0.8489  3.6244 -0.7346
 5165TIP3    H237131   3.972   5.935   6.963 -0.4005 -0.5625  1.7207
 5166TIP3   OH237132   3.444   5.053   6.421 -0.0558 -0.4239  0.0557
 5166TIP3    H137133   3.367   5.040   6.365 -0.5019 -1.1889  0.8297
 5166TIP3    H237134   3.515   5.010   6.373  0.0697  0.9153 -1.0149
 5167TIP3   OH237135   5.579   5.874   0.602  0.3881  0.4262  0.2883
 5167TIP3    H137136   5.524   5.922   0.665  3.1938  2.7581  1.1786
 5167TIP3    H237137   5.591   5.936   0.530  0.7436 -0.5778 -0.5319
 5168TIP3   OH237138   4.536   4.863   1.785 -0.4640 -0.1923  0.0335
 5168TIP3    H137139   4.586   4.835   1.861 -0.5621 -2.7471 -0.7722
 5168TIP3    H237140   4.446   4.873   1.816 -0.0129  1.8676  0.8858
 5169TIP3   OH237141   0.256   3.319   0.558 -0.4467 -0.5570  0.5165
 5169TIP3    H137142   0.266   3.268   0.639 -0.7460 -1.1233  0.2066
 5169TIP3    H237143   0.279   3.257   0.489  1.4427  0.3828  0.2305
 5170TIP3   OH237144   4.255   3.149   5.384  0.2842  0.2499  0.2137
 5170TIP3    H137145   4.293   3.175   5.468  0.7809  0.0650  0.0523
 5170TIP3    H237146   4.177   3.098   5.407  1.2290 -1.0725  0.5957
 5171TIP3   OH237147   1.531   4.512   7.233 -0.0970 -0.4356  0.1746
 5171TIP3    H137148   1.450   4.556   7.258 -0.7884 -2.2931  1.4222
 5171TIP3    H237149   1.508   4.419   7.230  1.9937 -1.0322  0.6974
 5172TIP3   OH237150   2.309   0.740   8.281  0.2240  0.6571  0.6256
 5172TIP3    H137151   2.395   0.697   8.286 -0.4377 -0.9888 -1.0608
 5172TIP3    H237152   2.316   0.796   8.204 -0.1177  0.7311  0.6506
 5173TIP3   OH237153   4.320   6.652   7.779 -0.3835 -0.3623 -0.3587
 5173TIP3    H137154   4.403   6.682   7.743  0.4433 -1.1880  0.7954
 5173TIP3    H237155   4.323   6.677   7.871 -1.8835  0.5296 -0.5257
 5174TIP3   OH237156   2.216   2.185   7.506 -0.0015  0.3975 -0.8511
 5174TIP3    H137157   2.174   2.242   7.442  0.8039 -0.0107 -1.7692
 5174TIP3    H237158   2.242   2.243   7.577 -1.6447  0.7341 -0.4728
 5175TIP3   OH237159   4.847   0.936   2.290  0.6622 -0.6174 -0.1060
 5175TIP3    H137160   4.801   0.885   2.224 -0.1029 -0.2234  0.1226
 5175TIP3    H237161   4.901   0.871   2.337 -1.3455 -1.4970  1.1050
 5176TIP3   OH237162   6.477   0.278   1.596  0.2422  0.1522 -0.0080
 5176TIP3    H137163   6.538   0.209   1.623  0.3170  0.1621 -0.1505
 5176TIP3    H237164   6.476   0.273   1.501 -0.1862 -0.0254  0.0022
 5177TIP3   OH237165   0.552   6.098   7.847  0.2866 -0.1854  0.0495
 5177TIP3    H137166   0.605   6.134   7.776 -0.1116  1.4754  0.5299
 5177TIP3    H237167   0.477   6.157   7.852 -1.1161 -1.8870  0.0479
 5178TIP3   OH237168   6.322   3.472   7.439  0.3867  0.0911 -0.0093
 5178TIP3    H137169   6.359   3.407   7.499  0.8882  1.5059  1.2588
 5178TIP3    H237170   6.322   3.428   7.354 -0.1711 -1.9036  0.9546
 5179TIP3   OH237171   4.543   2.082   0.240  0.3262  0.0052 -0.2269
 5179TIP3    H137172   4.587   2.166   0.228  0.6144 -0.1110 -0.0017
 5179TIP3    H237173   4.450   2.100   0.225  0.4324  0.2895 -0.5252
 5180TIP3   OH237174   6.661   2.882   1.487 -0.2480  0.2565 -0.1275
 5180TIP3    H137175   6.610   2.826   1.545  0.2601  1.0204  1.0993
 5180TIP3    H237176   6.743   2.834   1.471 -0.8187 -0.4312 -1.1223
 5181TIP3   OH237177   0.074   4.633   8.031 -0.1268  0.1701  0.3480
 5181TIP3    H137178   0.140   4.620   8.099 -0.3713 -0.2608  0.5101
 5181TIP3    H237179   0.031   4.548   8.024 -1.8631  0.8996  1.4906
 5182TIP3   OH237180   4.310   0.828   0.222  0.1200 -0.4484 -0.4255
 5182TIP3    H137181   4.355   0.750   0.254  1.3520  1.0018  1.5629
 5182TIP3    H237182   4.379   0.880   0.181 -0.4982  0.0709 -0.8240
 5183TIP3   OH237183   2.015   4.620   7.741  0.7958 -0.1757 -0.3474
 5183TIP3    H137184   1.939   4.596   7.793  0.7173 -0.6906 -0.6931
 5183TIP3    H237185   2.041   4.706   7.775  0.5340 -0.3453  0.2929
 5184TIP3   OH237186   0.965   3.338   7.167  0.4119 -0.3685 -0.4819
 5184TIP3    H137187   0.946   3.401   7.237 -0.3239 -1.8451  0.7249
 5184TIP3    H237188   1.005   3.264   7.212 -0.5185 -1.5585 -1.5481
 5185TIP3   OH237189   6.316   6.521   8.199 -0.2392  0.0370 -0.0270
 5185TIP3    H137190   6.328   6.516   8.105  0.2838 -0.5771  0.0641
 5185TIP3    H237191   6.401   6.497   8.236 -0.3366  0.6076  0.5996
 5186TIP3   OH237192   3.491   4.471   8.686 -0.4362  0.4142  0.9284
 5186TIP3    H137193   3.421   4.459   8.750 -0.9147  0.7442  0.4847
 5186TIP3    H237194   3.467   4.552   8.641 -0.3437 -0.0367  0.0492
 5187TIP3   OH237195   3.597   3.624   8.542 -0.0724 -0.1745 -0.2095
 5187TIP3    H137196   3.646   3.655   8.465 -1.2633  0.0231 -0.9217
 5187TIP3    H237197   3.585   3.530   8.527 -1.6065  0.1112 -1.0776
 5188TIP3   OH237198   2.276   4.688   7.116 -0.0823  0.0888  0.4888
 5188TIP3    H137199   2.184   4.677   7.140 -0.5488 -0.3467 -1.3612
 5188TIP3    H237200   2.315   4.602   7.132  0.0417  0.3001  1.3679
 5189TIP3   OH237201   0.442   5.497   1.329 -0.2997  0.5870 -0.1725
 5189TIP3    H137202   0.386   5.575   1.328 -3.3384 -1.4432 -0.8445
 5189TIP3    H237203   0.446   5.469   1.237  1.1452  0.1734 -0.0062
 5190TIP3   OH237204   2.144   5.432   7.596  0.1562 -0.8845 -0.4456
 5190TIP3    H137205   2.180   5.421   7.684 -1.4176  0.1774  0.3801
 5190TIP3    H237206   2.220   5.427   7.538  1.1296 -2.6066  0.8539
 5191TIP3   OH237207   2.905   5.586   0.575 -0.2412  0.2363  0.4662
 5191TIP3    H137208   2.825   5.535   0.569  0.4427 -0.8460  0.3504
 5191TIP3    H237209   2.960   5.538   0.636  0.4436  0.8057  0.3139
 5192TIP3   OH237210   6.779   6.341   6.149 -0.8432 -0.2943  0.2112
 5192TIP3    H137211   6.691   6.303   6.141 -1.7403  1.5179  0.9131
 5192TIP3    H237212   6.804   6.364   6.060 -2.9349  2.9976  0.3149
 5193TIP3   OH237213   6.124   3.438   7.013  0.2471 -0.5457  0.3585
 5193TIP3    H137214   6.195   3.501   7.026  0.1500 -0.6289  1.3547
 5193TIP3    H237215   6.160   3.373   6.953  1.0469 -0.6300  0.9183
 5194TIP3   OH237216   3.995   5.765   8.221  0.1590 -0.1300  0.0185
 5194TIP3    H137217   4.085   5.733   8.216  0.6580  1.2090 -0.0822
 5194TIP3    H237218   3.992   5.815   8.303 -0.4147  0.0561 -0.1080
 5195TIP3   OH237219   4.834   2.344   8.185 -0.0772 -0.5355 -0.4756
 5195TIP3    H137220   4.907   2.284   8.200 -0.0706 -0.3321  0.3439
 5195TIP3    H237221   4.850   2.417   8.244 -0.2393  0.1489 -1.2604
 5196TIP3   OH237222   4.407   3.988   6.146 -0.0635 -0.3960  0.0993
 5196TIP3    H137223   4.456   4.055   6.194  0.5540  0.9291 -2.1969
 5196TIP3    H237224   4.389   3.920   6.211 -0.2605  1.7313  2.4434
 5197TIP3   OH237225   0.843   5.847   5.987  0.0646 -0.3988  0.4512
 5197TIP3    H137226   0.834   5.906   5.912  0.0833  0.0912  0.8273
 5197TIP3    H237227   0.754   5.823   6.010  0.0012  0.2472  0.8912
 5198TIP3   OH237228   5.604   6.796   0.828  0.4746 -0.2786 -0.2648
 5198TIP3    H137229   5.663   6.807   0.753  0.4611 -0.8011 -0.3539
 5198TIP3    H237230   5.658   6.819   0.904  0.9640 -1.2730 -0.2994
 5199TIP3   OH237231   0.155   0.775   7.093  0.4595  0.4421  0.3404
 5199TIP3    H137232   0.244   0.808   7.098  0.5246  0.3808 -0.3119
 5199TIP3    H237233   0.102   0.850   7.067  0.9109 -0.3088 -3.3506
 5200TIP3   OH237234   4.354   0.971   7.957 -0.1274  0.4044 -0.1711
 5200TIP3    H137235   4.309   0.990   8.039  0.6022  0.1459  0.2941
 5200TIP3    H237236   4.302   0.902   7.916 -2.0030  2.3212 -1.1993
 5201TIP3   OH237237   1.679   3.352   6.572 -0.4568  0.0582 -0.1625
 5201TIP3    H137238   1.754   3.382   6.623  0.4323 -2.1026 -0.0821
 5201TIP3    H237239   1.692   3.391   6.485 -0.1327  1.0111  0.3006
 5202TIP3   OH237240   0.140   2.639   8.079  0.1117 -0.0153  0.1909
 5202TIP3    H137241   0.124   2.686   8.161  2.1658  0.1731  0.5379
 5202TIP3    H237242   0.233   2.618   8.081  0.1685 -0.2296 -1.9893
 5203TIP3   OH237243   3.978   4.877   0.338 -0.2748 -0.3765  0.4394
 5203TIP3    H137244   4.043   4.902   0.403  0.8178  0.4544 -0.9090
 5203TIP3    H237245   4.029   4.842   0.265 -1.4986 -2.0497  0.3214
 5204TIP3   OH237246   6.032   4.919   7.332 -0.3529  0.2891 -0.0705
 5204TIP3    H137247   5.944   4.915   7.371  0.5047  0.4994  1.9689
 5204TIP3    H237248   6.040   4.836   7.284 -1.4541  0.0299  0.1610
 5205TIP3   OH237249   6.023   3.961   1.307  0.2909  0.0940  0.1772
 5205TIP3    H137250   6.106   3.912   1.303 -0.2575 -0.9452  1.0175
 5205TIP3    H237251   5.990   3.944   1.395 -0.4174  1.1928  0.1397
 5206TIP3   OH237252   0.763   0.208   7.143  0.6968 -0.9799 -0.0666
 5206TIP3    H137253   0.773   0.116   7.169  2.5777 -0.4192  1.4378
 5206TIP3    H237254   0.823   0.255   7.200 -2.6016  1.6453  1.5825
 5207TIP3   OH237255   2.577   5.730   0.388  0.9159  0.1893 -0.6876
 5207TIP3    H137256   2.537   5.657   0.340  2.4559 -1.5146  0.4670
 5207TIP3    H237257   2.553   5.808   0.339 -0.2570 -1.1689 -2.3600
 5208TIP3   OH237258   6.619   2.512   0.935 -0.8825 -0.5537  0.3819
 5208TIP3    H137259   6.674   2.453   0.987  0.7462  1.2736  0.8382
 5208TIP3    H237260   6.599   2.461   0.856  0.1441 -1.8537  0.9109
 5209TIP3   OH237261   6.512   0.904   0.838  0.6370  0.0796  0.2790
 5209TIP3    H137262   6.458   0.935   0.765  1.0760 -2.5264 -1.2675
 5209TIP3    H237263   6.465   0.934   0.916 -0.7092  1.5692 -1.0134
 5210TIP3   OH237264   3.636   1.932   2.380 -0.1650  0.0130 -0.4833
 5210TIP3    H137265   3.608   1.959   2.293  0.0029  1.8374 -0.0032
 5210TIP3    H237266   3.575   1.975   2.440  0.6198 -0.0192  0.3632
 5211TIP3   OH237267   6.259   2.444   7.560 -0.0135  0.6086 -0.6153
 5211TIP3    H137268   6.266   2.455   7.655  0.0576  0.0960 -0.5590
 5211TIP3    H237269   6.292   2.526   7.524 -0.3969  0.9563 -0.1889
 5212TIP3   OH237270   4.922   5.169   0.494  0.1389 -0.4124  0.6471
 5212TIP3    H137271   4.845   5.213   0.459  0.9794 -0.3500 -1.2297
 5212TIP3    H237272   4.889   5.088   0.532 -0.7692 -0.8369 -0.9696
 5213TIP3   OH237273   5.204   0.074   0.781  0.3271  0.2700 -0.2477
 5213TIP3    H137274   5.130   0.027   0.820 -1.0243  2.1822 -0.3797
 5213TIP3    H237275   5.232   0.019   0.709 -0.4360 -0.8822  0.3077
 5214TIP3   OH237276   2.353   1.257   1.899  0.5261  0.3375 -0.4311
 5214TIP3    H137277   2.409   1.203   1.955  1.4861  2.8025  1.1711
 5214TIP3    H237278   2.279   1.200   1.877  0.1223 -0.9042  3.3186
 5215TIP3   OH237279   3.836   1.869   2.212  0.2100 -0.1817  0.2062
 5215TIP3    H137280   3.909   1.921   2.245  1.2499 -2.5061  1.8609
 5215TIP3    H237281   3.764   1.888   2.272  0.2928  0.0939  0.2183
 5216TIP3   OH237282   3.039   3.895   1.992  0.1859  0.1954  0.0766
 5216TIP3    H137283   3.043   3.807   2.030  1.8931  0.5403  0.7954
 5216TIP3    H237284   2.951   3.926   2.012 -0.5091 -1.3865 -0.3195
 5217TIP3   OH237285   3.296   1.113   6.793  0.4889 -0.1656  0.6889
 5217TIP3    H137286   3.293   1.105   6.698 -0.8150 -0.5020  0.7303
 5217TIP3    H237287   3.337   1.033   6.823  0.7070 -0.1558  0.4158
 5218TIP3   OH237288   1.181   4.786   0.786 -0.4932  0.0990  0.0013
 5218TIP3    H137289   1.147   4.697   0.780  0.2601 -0.3900  2.1488
 5218TIP3    H237290   1.276   4.775   0.796 -0.3395  1.1678 -0.1165
 5219TIP3   OH237291   4.950   1.167   0.665  0.2529 -0.7949  0.1962
 5219TIP3    H137292   4.960   1.232   0.595 -2.5528 -0.9351 -0.4511
 5219TIP3    H237293   5.028   1.112   0.658  0.5171 -0.2216 -2.1816
 5220TIP3   OH237294   1.090   4.490   6.986  0.2704 -0.2271 -0.1016
 5220TIP3    H137295   1.087   4.432   7.062  0.2468 -0.8171 -0.5509
 5220TIP3    H237296   1.002   4.483   6.947  0.6825 -0.9466 -0.9325
 5221TIP3   OH237297   6.628   0.163   0.742 -0.0303 -0.1749  0.5086
 5221TIP3    H137298   6.552   0.145   0.798 -0.3861  2.4710  0.9797
 5221TIP3    H237299   6.593   0.215   0.670  1.1158 -0.2016 -0.0931
 5222TIP3   OH237300   2.968   6.167   6.943  0.2974  0.4915  0.1070
 5222TIP3    H137301   3.040   6.224   6.918  1.0292 -0.2563  0.4566
 5222TIP3    H237302   2.997   6.128   7.026  0.1715 -0.9968 -0.5296
 5223TIP3   OH237303   1.748   3.883   0.289  0.1627 -0.3402 -0.0280
 5223TIP3    H137304   1.669   3.836   0.262  0.0132  0.1276 -0.4224
 5223TIP3    H237305   1.792   3.823   0.349  0.4135 -1.3416 -1.1902
 5224TIP3   OH237306   3.672   1.415   2.417 -0.4407  0.5902 -0.4156
 5224TIP3    H137307   3.584   1.378   2.410 -0.4140  0.3148  0.5767
 5224TIP3    H237308   3.658   1.501   2.457 -0.1120 -0.2337  1.5617
 5225TIP3   OH237309   4.751   2.482   1.942  0.5681 -0.0543  0.0624
 5225TIP3    H137310   4.792   2.494   2.027 -0.1986 -0.8951  0.5654
 5225TIP3    H237311   4.671   2.432   1.960 -0.6607  1.4691 -0.8990
 5226TIP3   OH237312   5.029   4.713   2.353  0.3912 -0.8735  0.7392
 5226TIP3    H137313   4.989   4.656   2.288  1.7190  0.1269 -1.0273
 5226TIP3    H237314   5.109   4.669   2.379  0.5214 -0.6544  0.7153
 5227TIP3   OH237315   2.029   3.265   1.449  0.7861 -0.2787  0.0208
 5227TIP3    H137316   2.024   3.183   1.498  0.6775  0.9919  2.3174
 5227TIP3    H237317   1.939   3.297   1.445  1.0754  0.8559  1.3692
 5228TIP3   OH237318   0.171   3.339   1.715 -0.6995 -0.3302 -0.3310
 5228TIP3    H137319   0.238   3.379   1.660 -0.6892  1.7201  1.0575
 5228TIP3    H237320   0.172   3.391   1.795 -1.5857 -2.4097  1.1119
 5229TIP3   OH237321   2.547   4.864   1.019 -0.7174  0.0797 -0.0326
 5229TIP3    H137322   2.475   4.926   1.030 -0.5733  0.0467  1.3129
 5229TIP3    H237323   2.556   4.822   1.105 -0.2348 -1.1718 -0.6715
 5230TIP3   OH237324   4.944   1.583   6.079  0.2780  0.0837  0.4695
 5230TIP3    H137325   4.931   1.672   6.113 -0.9345 -0.6785  2.1400
 5230TIP3    H237326   4.880   1.575   6.008  1.0993  0.8617 -0.3824
 5231TIP3   OH237327   0.429   5.008   2.153  0.0532 -0.2863 -0.3160
 5231TIP3    H137328   0.394   4.975   2.236 -0.0374 -1.9757 -0.9854
 5231TIP3    H237329   0.441   5.102   2.168 -2.1653 -0.1032  0.8567
 5232TIP3   OH237330   4.669   1.374   0.274  0.1717  0.2145  0.2427
 5232TIP3    H137331   4.639   1.462   0.252  2.4342  1.2104  0.8694
 5232TIP3    H237332   4.693   1.379   0.367  0.1876 -1.1100  0.3295
 5233TIP3   OH237333   0.035   1.720   8.670  0.2613  0.5056  0.2082
 5233TIP3    H137334   0.095   1.646   8.662  0.8610  0.9509  0.5464
 5233TIP3    H237335   0.002   1.714   8.760 -2.9902 -1.8368 -0.9579
 5234TIP3   OH237336   0.750   6.579   0.727 -0.3646 -0.0181  0.6776
 5234TIP3    H137337   0.751   6.498   0.675 -0.0769  0.0887  0.5158
 5234TIP3    H237338   0.768   6.551   0.816  1.7504  0.0845  0.3192
 5235TIP3   OH237339   4.078   3.391   7.582 -0.5806 -0.1482 -0.0542
 5235TIP3    H137340   4.085   3.485   7.565 -0.8407 -0.0513  0.3441
 5235TIP3    H237341   4.031   3.357   7.506  1.4236 -0.3287 -1.2892
 5236TIP3   OH237342   3.538   1.971   0.787 -0.1475 -0.1388  0.0955
 5236TIP3    H137343   3.528   2.002   0.697 -1.6940  0.5075  0.4756
 5236TIP3    H237344   3.453   1.933   0.810  0.0888  0.0714  1.4214
 5237TIP3   OH237345   3.019   5.053   7.117 -0.1272  0.1007 -0.4265
 5237TIP3    H137346   2.967   5.057   7.197  0.4357  0.2483 -0.0625
 5237TIP3    H237347   3.053   4.964   7.116 -0.4900 -0.0373 -0.7349
 5238TIP3   OH237348   1.500   5.534   0.748  0.1657  0.0962 -0.1716
 5238TIP3    H137349   1.542   5.509   0.666  0.0311 -0.2305 -0.1422
 5238TIP3    H237350   1.572   5.547   0.809  0.1743 -2.2702  0.3918
 5239TIP3   OH237351   0.058   1.007   7.048 -0.1926  0.7025  0.2274
 5239TIP3    H137352   0.130   1.070   7.046 -0.2054  0.7513  1.1936
 5239TIP3    H237353  -0.005   1.043   7.111 -0.2460 -0.2191  0.7197
 5240TIP3   OH237354   0.917   2.283   7.270 -0.2955 -0.5894  0.0871
 5240TIP3    H137355   0.999   2.237   7.290  0.4866 -0.2381 -2.0421
 5240TIP3    H237356   0.920   2.297   7.175 -1.0209  2.8155  0.4328
 5241TIP3   OH237357   1.156   2.076   6.274  0.2268 -0.2027 -0.3354
 5241TIP3    H137358   1.151   1.985   6.244  0.4475  0.2176 -1.7398
 5241TIP3    H237359   1.210   2.120   6.208 -0.8521  1.1998 -0.3506
 5242TIP3   OH237360   1.327   3.347   1.590 -0.2108 -0.4960  0.1995
 5242TIP3    H137361   1.373   3.298   1.522 -0.2164  0.1258 -0.2550
 5242TIP3    H237362   1.261   3.285   1.623  0.3273 -1.0759  0.2168
 5243TIP3   OH237363   3.582   1.703   0.037 -0.4207  0.0314  0.2954
 5243TIP3    H137364   3.644   1.729   0.105 -0.9511 -1.7102  1.4977
 5243TIP3    H237365   3.620   1.625  -0.002 -0.9496  0.0420 -0.2569
 5244TIP3   OH237366   2.899   2.261   2.281 -0.1763 -0.1515 -0.5095
 5244TIP3    H137367   2.923   2.231   2.368 -1.9290 -0.9173 -0.2429
 5244TIP3    H237368   2.862   2.348   2.295 -1.3836 -0.6763 -0.3197
 5245TIP3   OH237369   4.085   1.557   6.791 -0.8707  0.0285 -0.1424
 5245TIP3    H137370   4.107   1.466   6.806 -2.3699 -0.1718  1.0221
 5245TIP3    H237371   4.093   1.599   6.876 -2.7913  0.3723 -0.0794
 5246TIP3   OH237372   0.351   0.220   0.388  0.1727  0.4725 -0.7240
 5246TIP3    H137373   0.413   0.147   0.377 -0.1426 -0.1060  1.1305
 5246TIP3    H237374   0.267   0.179   0.405 -0.4391  1.2796 -1.6584
 5247TIP3   OH237375   2.647   3.888   6.858 -0.0510 -0.0169 -0.2409
 5247TIP3    H137376   2.631   3.966   6.911 -0.6084  0.4523 -1.0761
 5247TIP3    H237377   2.602   3.818   6.905  1.9646 -0.2605  1.5046
 5248TIP3   OH237378   6.037   1.778   0.663  0.5742  0.2366 -0.1146
 5248TIP3    H137379   6.121   1.731   0.659  1.9795  2.3027  1.9698
 5248TIP3    H237380   6.053   1.859   0.615 -0.6858  0.1342 -0.7432
 5249TIP3   OH237381   3.970   0.832   8.063 -0.2042  0.0924 -0.0334
 5249TIP3    H137382   4.032   0.777   8.016 -0.0861 -0.1073  0.3518
 5249TIP3    H237383   3.889   0.781   8.064 -0.0166 -0.1955  0.5639
 5250TIP3   OH237384   0.725   0.018   6.266 -0.0704  0.1304  0.2260
 5250TIP3    H137385   0.639  -0.021   6.283 -0.5602  1.0755 -0.0090
 5250TIP3    H237386   0.781  -0.056   6.247 -1.1981 -0.4079 -1.1484
 5251TIP3   OH237387   3.052   1.013   0.757 -0.0783 -0.0988 -0.2672
 5251TIP3    H137388   2.976   1.057   0.719  0.2469 -0.4729 -1.4028
 5251TIP3    H237389   3.071   1.062   0.837 -2.6025 -1.0818  1.0449
 5252TIP3   OH237390   1.477   2.740   8.177 -0.0328  0.4666 -0.5781
 5252TIP3    H137391   1.475   2.800   8.103 -1.1790  0.4524 -0.5780
 5252TIP3    H237392   1.489   2.796   8.254  0.4248  0.5484 -0.7074
 5253TIP3   OH237393   3.413   0.702   7.780  0.2147 -0.0567  0.3375
 5253TIP3    H137394   3.422   0.631   7.844  0.5417  0.4699  0.8814
 5253TIP3    H237395   3.322   0.697   7.751  0.0182 -0.1867  0.9732
 5254TIP3   OH237396   4.451   4.090   1.287 -0.0718 -0.3485  0.4542
 5254TIP3    H137397   4.520   4.114   1.225  1.4240  1.6887  2.7050
 5254TIP3    H237398   4.475   4.002   1.317  0.7094 -0.2708  0.0893
 5255TIP3   OH237399   4.467   3.819   1.308 -0.1123 -0.4920  0.2921
 5255TIP3    H137400   4.378   3.803   1.340 -0.1618 -0.7744  0.0074
 5255TIP3    H237401   4.471   3.775   1.224 -0.6530  1.9439 -1.1085
 5256TIP3   OH237402   0.960   4.051   0.480  0.3252  0.3553 -0.1304
 5256TIP3    H137403   0.943   4.017   0.567  1.6141  0.6059  0.2373
 5256TIP3    H237404   1.054   4.068   0.478  0.6395 -1.1954 -2.1135
 5257TIP3   OH237405   4.740   4.410   7.683  0.0585 -0.0334  0.3350
 5257TIP3    H137406   4.724   4.324   7.722  0.0292 -0.0006  0.3963
 5257TIP3    H237407   4.658   4.457   7.696  0.4006  0.3500  1.2118
 5258TIP3   OH237408   0.992   3.215   6.537  0.4412 -0.3050 -0.1342
 5258TIP3    H137409   0.937   3.186   6.464  0.4933 -0.2887 -0.1803
 5258TIP3    H237410   0.987   3.310   6.534  1.4867 -0.2476 -0.9318
 5259TIP3   OH237411   4.109   3.810   1.080 -0.4940  0.3630  0.1234
 5259TIP3    H137412   4.136   3.900   1.099 -1.4131  0.5320  0.6918
 5259TIP3    H237413   4.051   3.818   1.004 -0.4716  0.2417  0.0940
 5260TIP3   OH237414   3.103   3.287   8.400  0.8846  0.0699  0.8425
 5260TIP3    H137415   3.026   3.321   8.354  1.2045  0.1564  0.3768
 5260TIP3    H237416   3.105   3.194   8.378  1.2682  0.1919  0.3574
 5261TIP3   OH237417   0.625   1.411   8.602  0.3085  0.0406 -0.1642
 5261TIP3    H137418   0.615   1.496   8.559  1.4448  0.5228  0.4768
 5261TIP3    H237419   0.668   1.356   8.536  1.0237  0.4441 -0.0453
 5262TIP3   OH237420   3.205   3.604   0.038 -0.1268  0.4218 -0.0566
 5262TIP3    H137421   3.144   3.661   0.085  0.2277  0.3478  0.5008
 5262TIP3    H237422   3.165   3.593  -0.049 -0.7329  0.6499  0.1850
 5263TIP3   OH237423   2.278   3.594   7.960  0.4995 -0.0655  0.6392
 5263TIP3    H137424   2.337   3.575   7.888 -0.2059  1.3030 -0.3388
 5263TIP3    H237425   2.336   3.620   8.032  1.1284  0.1546  0.0617
 5264TIP3   OH237426   6.591   2.878   0.498  0.0960 -0.3923  0.8376
 5264TIP3    H137427   6.626   2.800   0.455  1.8856  0.8154 -0.0700
 5264TIP3    H237428   6.545   2.924   0.428  2.1300  1.0664  0.3347
 5265TIP3   OH237429   1.260   1.752   0.695 -0.5719 -0.5859 -0.3620
 5265TIP3    H137430   1.320   1.822   0.668 -1.1837 -0.1186 -0.5203
 5265TIP3    H237431   1.271   1.747   0.789  1.5060 -2.1591 -0.6119
 5266TIP3   OH237432   6.230   6.323   7.221  0.1514 -0.2113  0.0117
 5266TIP3    H137433   6.287   6.348   7.294  0.1024 -0.1447  0.0271
 5266TIP3    H237434   6.230   6.227   7.222 -0.5551 -0.2093  0.6478
 5267TIP3   OH237435   2.441   2.633   7.056 -0.1825 -0.9162  0.1905
 5267TIP3    H137436   2.451   2.587   6.973  0.1204  1.2323 -1.0491
 5267TIP3    H237437   2.531   2.652   7.084 -0.2876 -1.4736  0.9362
 5268TIP3   OH237438   0.777   6.404   0.467  0.2425  0.6997  0.1431
 5268TIP3    H137439   0.856   6.356   0.490 -0.5141 -0.1548  1.0613
 5268TIP3    H237440   0.714   6.336   0.442 -0.0172  1.4015 -1.1956
 5269TIP3   OH237441   4.782   1.300   0.030  0.6461  0.0366 -0.3357
 5269TIP3    H137442   4.696   1.314   0.070  0.5935 -0.6924 -0.1842
 5269TIP3    H237443   4.843   1.299   0.104  0.7443  0.2028 -0.4134
 5270TIP3   OH237444   2.135   3.595   1.260  0.3764 -0.1599  0.0129
 5270TIP3    H137445   2.160   3.670   1.315 -0.3329  0.6258 -0.6991
 5270TIP3    H237446   2.199   3.527   1.282  0.3668  0.2696  1.4900
 5271TIP3   OH237447   6.731   6.780   7.879 -0.0712 -0.6714  0.8009
 5271TIP3    H137448   6.792   6.844   7.840  0.9354 -0.6529  2.3434
 5271TIP3    H237449   6.656   6.833   7.907  1.5078  0.2264  3.6968
 5272TIP3   OH237450   1.800   3.131   1.203 -0.1642  0.0820 -0.4004
 5272TIP3    H137451   1.892   3.156   1.206  0.1502 -1.0776  0.6431
 5272TIP3    H237452   1.799   3.039   1.231 -1.5544 -0.1709 -1.1759
 5273TIP3   OH237453   1.222   5.197   7.729 -0.2043  0.0881  0.3400
 5273TIP3    H137454   1.189   5.109   7.747 -0.6705 -0.2843 -2.0466
 5273TIP3    H237455   1.192   5.217   7.641  2.2445  1.5179 -0.2814
 5274TIP3   OH237456   0.495   1.565   0.995  0.2808 -0.2547  0.3106
 5274TIP3    H137457   0.583   1.535   0.969  0.1132 -0.6701  0.2221
 5274TIP3    H237458   0.455   1.593   0.913 -0.3251 -1.7621  0.0657
 5275TIP3   OH237459   3.363   4.308   0.363 -0.2029 -0.2050 -0.7362
 5275TIP3    H137460   3.289   4.357   0.397 -0.4891 -1.3470  0.3450
 5275TIP3    H237461   3.326   4.226   0.331  0.3748 -0.0815 -1.7885
 5276TIP3   OH237462   5.772   3.649   6.499  0.2315  0.3832  0.1507
 5276TIP3    H137463   5.778   3.591   6.423 -0.7343  2.2248 -1.4022
 5276TIP3    H237464   5.785   3.737   6.464 -0.5764  1.3348  2.0707
 5277TIP3   OH237465   0.566   4.403   7.402  0.5123  0.1684  0.0365
 5277TIP3    H137466   0.553   4.399   7.307 -0.7173  0.4712  0.1774
 5277TIP3    H237467   0.489   4.449   7.435  0.6644 -0.4043  1.2457
 5278TIP3   OH237468   4.187   6.306   7.378  0.2399 -0.2842  0.2906
 5278TIP3    H137469   4.113   6.255   7.348  0.5360 -0.4812 -0.1056
 5278TIP3    H237470   4.208   6.270   7.465  0.2666 -0.6399  0.1370
 5279TIP3   OH237471   3.231   0.132   6.912  0.3318  0.3455  0.2227
 5279TIP3    H137472   3.223   0.226   6.896  2.9157  0.8699  1.4312
 5279TIP3    H237473   3.239   0.125   7.007 -3.4132 -1.5501  0.5961
 5280TIP3   OH237474   6.268   1.562   5.637  0.3046 -0.0764  0.2437
 5280TIP3    H137475   6.289   1.536   5.726 -0.0201 -0.6397  0.1600
 5280TIP3    H237476   6.180   1.528   5.622 -2.5945  5.5646  1.9325
 5281TIP3   OH237477   2.273   1.274   8.257  0.8501  0.0322 -0.3777
 5281TIP3    H137478   2.235   1.294   8.172 -0.7355  1.3341  0.5659
 5281TIP3    H237479   2.228   1.195   8.285 -0.6684  1.1105  0.3752
 5282TIP3   OH237480   3.128   0.333   6.304  0.3079 -0.5446 -0.1456
 5282TIP3    H137481   3.148   0.409   6.249 -0.5109 -0.3894 -0.2426
 5282TIP3    H237482   3.044   0.300   6.271 -0.3018 -0.3372  1.1175
 5283TIP3   OH237483   0.217   0.348   8.477  0.6258  0.4031 -0.3817
 5283TIP3    H137484   0.309   0.368   8.492  0.7465 -0.9212  0.8667
 5283TIP3    H237485   0.195   0.282   8.543 -1.0958  0.3384 -0.9518
 5284TIP3   OH237486   6.503   1.712   7.070  0.0285  0.3506  0.1274
 5284TIP3    H137487   6.531   1.653   7.000 -0.0516  0.7134 -0.2161
 5284TIP3    H237488   6.577   1.714   7.131 -0.2976 -0.7556  0.5778
 5285TIP3   OH237489   2.455   5.055   5.973 -0.8465 -0.5176  0.3465
 5285TIP3    H137490   2.500   5.133   5.942 -0.5368 -0.5361  0.7417
 5285TIP3    H237491   2.375   5.087   6.014 -1.4892 -0.5244 -0.8595
 5286TIP3   OH237492   2.285   6.259   8.728 -0.0679 -0.0389  0.4151
 5286TIP3    H137493   2.223   6.251   8.656 -0.7226 -1.8981  1.1100
 5286TIP3    H237494   2.335   6.177   8.726  1.0283  0.5864  1.0709
 5287TIP3   OH237495   6.491   0.959   7.408  0.0553 -0.3042  0.3625
 5287TIP3    H137496   6.537   0.959   7.492 -1.2297 -0.5729  1.1098
 5287TIP3    H237497   6.445   1.043   7.407 -0.5672 -0.6406  0.3051
 5288TIP3   OH237498   1.239   2.886   0.796  0.2415 -0.1264  0.0027
 5288TIP3    H137499   1.277   2.798   0.791 -1.4302 -0.9636  1.2269
 5288TIP3    H237500   1.294   2.932   0.859  1.2921 -0.1591 -0.8465
 5289TIP3   OH237501   5.527   2.917   2.362 -0.3455  0.0688 -0.0183
 5289TIP3    H137502   5.602   2.972   2.338 -1.1219  1.6987  1.0420
 5289TIP3    H237503   5.451   2.973   2.346 -1.3205 -1.3943 -0.6560
 5290TIP3   OH237504   4.958   1.869   0.628 -0.4107  0.0199 -0.0404
 5290TIP3    H137505   4.996   1.933   0.567 -0.7560  1.6478  1.3580
 5290TIP3    H237506   4.877   1.841   0.585 -0.1190  0.3173 -0.8125
 5291TIP3   OH237507   3.072   6.538   7.107 -0.0956 -0.5452  0.1016
 5291TIP3    H137508   3.155   6.492   7.092 -0.4035 -0.6945 -1.3307
 5291TIP3    H237509   3.046   6.512   7.195  0.3526 -2.1626 -0.1953
 5292TIP3   OH237510   3.988   3.960   6.378  0.5138  0.4037 -0.4495
 5292TIP3    H137511   3.988   4.055   6.388  0.8234  0.3999 -0.3998
 5292TIP3    H237512   3.896   3.937   6.368  0.2905  0.5385  1.1024
 5293TIP3   OH237513   6.790   3.809   0.232  0.1665  0.3726  0.2413
 5293TIP3    H137514   6.703   3.775   0.214 -0.1257  1.3649 -0.2657
 5293TIP3    H237515   6.815   3.855   0.152  0.9829  0.4520  0.5337
 5294TIP3   OH237516   2.851   2.073   2.078 -0.5611 -0.9813  0.1333
 5294TIP3    H137517   2.880   2.136   2.144 -1.4986 -0.5897  0.1934
 5294TIP3    H237518   2.755   2.077   2.082 -0.6313 -1.7579 -0.4895
 5295TIP3   OH237519   2.453   0.862   8.533 -0.1511  0.4779 -0.2711
 5295TIP3    H137520   2.434   0.775   8.569  0.9338  1.3607  2.7486
 5295TIP3    H237521   2.528   0.849   8.475  0.5828 -0.5024  0.8609
 5296TIP3   OH237522   0.002   0.354   7.733  0.3369  0.3492  0.5945
 5296TIP3    H137523  -0.007   0.404   7.814  0.9806 -2.1843  2.3312
 5296TIP3    H237524   0.080   0.391   7.691 -1.3208  3.2665 -0.1738
 5297TIP3   OH237525   3.456   0.811   7.528 -0.1316  0.1015 -0.0350
 5297TIP3    H137526   3.486   0.720   7.533  1.4949  0.6337  0.4922
 5297TIP3    H237527   3.385   0.816   7.592  1.3927 -0.2310  1.7611
 5298TIP3   OH237528   2.152   2.557   8.387  0.0793 -0.1123 -0.0345
 5298TIP3    H137529   2.150   2.643   8.344  2.9313  1.3929  2.4388
 5298TIP3    H237530   2.139   2.576   8.480  1.9815 -2.1529  0.7335
 5299TIP3   OH237531   1.425   1.381   8.106  0.1106 -0.0759 -0.3584
 5299TIP3    H137532   1.402   1.328   8.029 -0.9412  1.5803 -1.2600
 5299TIP3    H237533   1.354   1.365   8.168  0.4256 -0.6327 -0.1383
 5300TIP3   OH237534   2.398   5.530   6.827 -0.2231  0.9545 -0.0020
 5300TIP3    H137535   2.361   5.497   6.746 -2.5381  0.5585  1.1275
 5300TIP3    H237536   2.448   5.457   6.863  1.0388  1.2178 -1.1437
 5301TIP3   OH237537   4.135   2.112   6.723 -0.1524  0.0246 -0.3017
 5301TIP3    H137538   4.228   2.135   6.716 -0.1013 -0.1653 -0.2667
 5301TIP3    H237539   4.128   2.029   6.675 -0.2142 -0.1948  0.0819
 5302TIP3   OH237540   0.165   6.252   7.160  0.4094  0.1315  0.3537
 5302TIP3    H137541   0.225   6.307   7.209 -1.3136  1.3071  1.2452
 5302TIP3    H237542   0.139   6.305   7.085 -1.8411  0.9542  1.6120
 5303TIP3   OH237543   0.003   2.009   7.707 -0.1293 -0.0389 -0.1421
 5303TIP3    H137544  -0.037   1.991   7.792 -1.3518  0.8112 -0.5048
 5303TIP3    H237545   0.083   2.057   7.727  0.1859 -0.8455  0.5658
 5304TIP3   OH237546   0.545   0.861   7.436  0.0177  0.1533  0.2695
 5304TIP3    H137547   0.630   0.895   7.408 -0.1143  1.1466  1.0225
 5304TIP3    H237548   0.512   0.813   7.360  0.4836  1.2204 -0.6263
 5305TIP3   OH237549   3.439   2.441   1.858  0.1730 -0.2980  0.3106
 5305TIP3    H137550   3.530   2.448   1.830 -0.1666 -0.9201 -1.0594
 5305TIP3    H237551   3.393   2.407   1.781 -1.2883  0.3669  0.8434
 5306TIP3   OH237552   3.226   2.705   0.638  0.0891  0.5849  0.0993
 5306TIP3    H137553   3.313   2.688   0.603  0.7082  3.6851 -0.1588
 5306TIP3    H237554   3.241   2.757   0.718 -1.4940  0.3624  0.5845
 5307TIP3   OH237555   6.278   0.584   1.273 -0.5164 -0.2773  0.0283
 5307TIP3    H137556   6.233   0.640   1.336  0.2234  1.0040 -0.5585
 5307TIP3    H237557   6.370   0.589   1.298 -0.2242  0.1918 -1.1082
 5308TIP3   OH237558   1.807   0.509   7.143 -0.3422  0.0895 -0.2562
 5308TIP3    H137559   1.880   0.538   7.198  0.2404 -1.2984 -0.2341
 5308TIP3    H237560   1.800   0.575   7.075  1.4945 -0.1399 -0.7176
 5309TIP3   OH237561   0.736   4.575   1.079 -0.4586 -0.4779  0.2468
 5309TIP3    H137562   0.747   4.482   1.099 -0.1524 -0.5894 -0.4273
 5309TIP3    H237563   0.762   4.620   1.159 -2.7323 -1.0348  1.3888
 5310TIP3   OH237564   5.101   2.388   7.918 -0.9444  0.5466  0.0349
 5310TIP3    H137565   5.027   2.447   7.903 -0.5141  0.8308 -1.0660
 5310TIP3    H237566   5.179   2.443   7.910 -0.5610 -0.0121 -0.2114
 5311TIP3   OH237567   0.861   3.170   8.174 -0.5903 -0.8563 -0.3140
 5311TIP3    H137568   0.950   3.204   8.160 -1.3068  0.2524 -2.7304
 5311TIP3    H237569   0.872   3.075   8.180  0.6315 -0.8973 -2.2970
 5312TIP3   OH237570   6.777   3.279   0.129  0.0327 -0.4135 -0.0286
 5312TIP3    H137571   6.730   3.325   0.199 -2.9559 -3.4311  0.2125
 5312TIP3    H237572   6.749   3.323   0.048  0.1074  0.4151  0.3843
 5313TIP3   OH237573   3.953   5.149   0.940 -0.0043  0.3800  0.6156
 5313TIP3    H137574   3.971   5.139   0.847  0.2833  1.4695  0.5440
 5313TIP3    H237575   3.948   5.059   0.973  1.8177 -0.0168 -0.0751
 5314TIP3   OH237576   6.393   2.189   0.677 -0.8744  0.0747 -0.0332
 5314TIP3    H137577   6.469   2.214   0.729 -1.9581 -0.2398  1.7750
 5314TIP3    H237578   6.404   2.095   0.661  0.1166  0.4121 -1.5770
 5315TIP3   OH237579   2.742   2.281   0.884  0.4630  0.9082 -0.0539
 5315TIP3    H137580   2.728   2.309   0.793  0.4710 -0.0470 -0.3587
 5315TIP3    H237581   2.669   2.222   0.902  0.9696  0.3645  0.2460
 5316TIP3   OH237582   1.280   3.087   8.584 -0.4705  0.0008 -0.0073
 5316TIP3    H137583   1.373   3.106   8.572 -0.8739  1.9135 -0.3744
 5316TIP3    H237584   1.274   3.047   8.672  0.9872 -2.7970 -1.0559
 5317TIP3   OH237585   4.746   3.730   7.796  0.3371  0.0447  0.0205
 5317TIP3    H137586   4.797   3.795   7.748 -1.0978  1.8756  0.8639
 5317TIP3    H237587   4.655   3.749   7.773 -0.3040  0.1932  2.4568
 5318TIP3   OH237588   1.842   4.448   8.209 -0.0687  0.0793 -0.6457
 5318TIP3    H137589   1.859   4.376   8.269  0.8438 -1.8139 -3.0190
 5318TIP3    H237590   1.792   4.511   8.261  0.6021 -1.4348  2.0305
 5319TIP3   OH237591   2.296   0.263   7.149  0.6715  0.1075  0.2180
 5319TIP3    H137592   2.326   0.316   7.075  0.9912 -1.1644 -0.5918
 5319TIP3    H237593   2.351   0.185   7.146 -2.7211 -2.4693 -1.4589
 5320TIP3   OH237594   2.050   0.554   7.530  0.3152  0.4694 -0.1789
 5320TIP3    H137595   2.053   0.585   7.621 -2.0281  0.4441 -0.0356
 5320TIP3    H237596   2.088   0.466   7.534  1.1483  0.8424  0.5743
 5321TIP3   OH237597   5.549   5.027   0.127 -0.6262 -0.3272 -0.0111
 5321TIP3    H137598   5.563   5.073   0.209  0.2261 -0.8117  0.1232
 5321TIP3    H237599   5.497   4.950   0.151 -0.0772 -0.6570  0.1398
 5322TIP3   OH237600   5.980   6.325   6.907  0.2629  0.1575  0.1464
 5322TIP3    H137601   5.885   6.316   6.909 -0.0577  2.1429 -1.6820
 5322TIP3    H237602   6.001   6.379   6.983 -0.0774 -0.2222  0.5129
 5323TIP3   OH237603   6.859   4.951   8.615  0.1149  0.1968  0.2887
 5323TIP3    H137604   6.844   4.861   8.642 -1.7148  0.4364  0.1694
 5323TIP3    H237605   6.772   4.990   8.609  0.7336  1.4540 -1.4833
 5324TIP3   OH237606   4.871   6.045   1.286  0.4133  0.0134  0.2615
 5324TIP3    H137607   4.849   6.077   1.374 -0.3336 -0.7062  0.3484
 5324TIP3    H237608   4.906   5.957   1.301 -2.5452 -1.3808 -0.3497
 5325TIP3   OH237609   1.383   3.778   1.682 -0.2999 -0.1650 -0.2816
 5325TIP3    H137610   1.313   3.740   1.735 -0.9528  0.5587 -0.6051
 5325TIP3    H237611   1.445   3.812   1.746 -0.1664 -0.9345  0.0077
 5326TIP3   OH237612   2.165   5.841   7.602 -0.4048  0.3735 -0.0537
 5326TIP3    H137613   2.162   5.804   7.514  1.5379  0.5144 -0.2221
 5326TIP3    H237614   2.137   5.932   7.591 -1.6846 -0.0322 -0.2446
 5327TIP3   OH237615   2.613   3.088   8.741 -0.2019  0.8842 -0.1536
 5327TIP3    H137616   2.555   3.163   8.756 -0.9532  0.5814 -1.4110
 5327TIP3    H237617   2.593   3.028   8.813 -0.0004  1.6334  0.5407
 5328TIP3   OH237618   6.022   1.371   7.973 -0.2174 -0.5571  0.2054
 5328TIP3    H137619   5.981   1.324   8.045  0.8495 -0.7223  0.7115
 5328TIP3    H237620   6.016   1.463   7.998 -0.1135 -0.5940  0.3663
 5329TIP3   OH237621   5.576   4.814   2.392 -0.3661 -0.2347 -0.1813
 5329TIP3    H137622   5.531   4.897   2.410  1.1981  0.4270  0.8338
 5329TIP3    H237623   5.668   4.838   2.383 -0.2415 -1.3731 -3.4017
 5330TIP3   OH237624   1.753   4.450   6.508  0.0204 -0.2552 -0.4388
 5330TIP3    H137625   1.662   4.450   6.539 -0.5949 -0.0996 -2.1757
 5330TIP3    H237626   1.769   4.539   6.478  0.5977 -0.3987 -0.5835
 5331TIP3   OH237627   4.883   4.080   8.755 -0.0438  0.0353  0.7371
 5331TIP3    H137628   4.918   4.079   8.666  1.4321  1.2845  1.2731
 5331TIP3    H237629   4.789   4.091   8.743 -0.1062 -1.6026 -0.7011
 5332TIP3   OH237630   3.710   2.510   5.878 -0.9068  0.7076 -0.2500
 5332TIP3    H137631   3.641   2.446   5.897 -0.8834  0.9361  0.6412
 5332TIP3    H237632   3.672   2.569   5.813  0.0500 -1.9218 -3.5056
 5333TIP3   OH237633   1.435   5.088   8.639  0.3798  0.4546  0.1010
 5333TIP3    H137634   1.344   5.093   8.668  0.0441  0.7844 -0.9499
 5333TIP3    H237635   1.445   4.999   8.605 -0.7730  1.4984 -3.4392
 5334TIP3   OH237636   3.955   6.096   0.117  0.1432  0.3569 -0.4672
 5334TIP3    H137637   3.970   6.163   0.050  0.2210  3.1009  2.0657
 5334TIP3    H237638   4.041   6.055   0.130  0.7576  1.6249 -0.3124
 5335TIP3   OH237639   2.885   2.616   1.665  0.0600 -0.3966 -0.2650
 5335TIP3    H137640   2.975   2.644   1.647  0.0432 -0.3949 -0.3502
 5335TIP3    H237641   2.858   2.667   1.741  0.0221 -0.1710 -0.4303
 5336TIP3   OH237642   1.905   2.627   6.967 -0.2489 -0.1293  0.0723
 5336TIP3    H137643   1.938   2.638   7.057 -0.7434 -3.3703  0.7859
 5336TIP3    H237644   1.972   2.574   6.924 -0.7010  0.1894 -1.0406
 5337TIP3   OH237645   2.226   1.239   6.338 -0.0173 -0.2286  0.4197
 5337TIP3    H137646   2.282   1.303   6.293  0.7014 -2.3625 -1.9396
 5337TIP3    H237647   2.281   1.161   6.346 -1.1364 -0.8775  2.4764
 5338TIP3   OH237648   4.180   4.441   0.463 -0.7094 -0.1045 -0.1720
 5338TIP3    H137649   4.177   4.393   0.546  0.9782 -0.2444 -0.1624
 5338TIP3    H237650   4.088   4.461   0.444 -1.0656  1.1864  2.4421
 5339TIP3   OH237651   4.133   0.348   0.541  0.0689 -0.4648 -0.1569
 5339TIP3    H137652   4.045   0.376   0.514  0.2329  0.5516  0.2947
 5339TIP3    H237653   4.117   0.279   0.606 -0.4197  0.0021  0.2338
 5340TIP3   OH237654   5.636   6.438   7.369  0.1023 -0.1387 -0.2653
 5340TIP3    H137655   5.593   6.482   7.443  0.6065  0.8366 -0.5348
 5340TIP3    H237656   5.713   6.491   7.351  0.2994 -0.6938 -1.1262
 5341TIP3   OH237657   0.392   2.860   7.576  0.0522  0.1211  0.0867
 5341TIP3    H137658   0.442   2.834   7.499 -0.8158 -0.6421 -0.2383
 5341TIP3    H237659   0.301   2.863   7.547 -0.7340 -3.0604  1.6736
 5342TIP3   OH237660   4.875   5.957   1.701  0.3209 -0.4385 -0.1109
 5342TIP3    H137661   4.882   5.942   1.795  1.7800 -0.6609 -0.2197
 5342TIP3    H237662   4.952   6.010   1.680 -0.8887  1.0861 -0.9168
 5343TIP3   OH237663   2.881   3.270   7.782  0.5337 -0.0087  0.0771
 5343TIP3    H137664   2.891   3.249   7.689 -0.1805  0.7203 -0.1727
 5343TIP3    H237665   2.791   3.244   7.802 -0.2459  2.3533 -0.1334
 5344TIP3   OH237666   0.152   4.240   6.809 -0.1776  0.1705 -0.1611
 5344TIP3    H137667   0.213   4.294   6.858  0.8702 -0.4105 -0.7899
 5344TIP3    H237668   0.186   4.151   6.818 -1.8486 -0.4379  0.8394
 5345TIP3   OH237669   4.860   2.381   0.824 -0.7948 -0.1777 -0.5984
 5345TIP3    H137670   4.872   2.404   0.732 -0.9870 -0.7011 -0.7590
 5345TIP3    H237671   4.769   2.355   0.830 -0.8838  0.2262 -0.1726
 5346TIP3   OH237672   2.354   4.687   8.062 -0.3363  0.8330  0.2196
 5346TIP3    H137673   2.284   4.724   8.008 -0.6148  1.3547  0.9316
 5346TIP3    H237674   2.417   4.758   8.071  1.5338 -0.3033 -2.4216
 5347TIP3   OH237675   5.119   1.727   8.520 -0.1949  0.3993 -0.2754
 5347TIP3    H137676   5.184   1.764   8.460  1.3208  0.6157  1.4267
 5347TIP3    H237677   5.065   1.802   8.545 -0.3656  0.4528 -0.7945
 5348TIP3   OH237678   3.179   2.504   8.348 -0.0316 -0.0040  0.8184
 5348TIP3    H137679   3.269   2.518   8.376 -1.2736  2.0269  4.4689
 5348TIP3    H237680   3.139   2.591   8.350 -2.3096 -0.9608  0.3621
 5349TIP3   OH237681   3.413   3.091   1.653  0.0652  0.4699  0.3016
 5349TIP3    H137682   3.332   3.141   1.647  0.3828  1.1115  1.1223
 5349TIP3    H237683   3.422   3.073   1.747  0.8424  0.3505  0.2075
 5350TIP3   OH237684   0.068   6.623   0.498  0.1269  0.6534  0.0667
 5350TIP3    H137685   0.076   6.620   0.593  2.6161  1.1045 -0.0699
 5350TIP3    H237686   0.158   6.635   0.466 -0.0169 -3.1129 -2.5012
 5351TIP3   OH237687   3.079   5.292   0.163  0.0011  0.0593 -0.4531
 5351TIP3    H137688   3.150   5.352   0.139 -0.8532  2.2306  1.9753
 5351TIP3    H237689   3.015   5.347   0.208 -0.6019 -2.7806  2.5129
 5352TIP3   OH237690   5.410   4.482   8.390  0.0175  0.6797  0.0718
 5352TIP3    H137691   5.420   4.566   8.345  1.0090  0.4639 -0.1421
 5352TIP3    H237692   5.465   4.422   8.340 -1.3403 -0.3150 -0.3047
 5353TIP3   OH237693   6.020   4.851   7.720 -0.3300  0.1599  0.0648
 5353TIP3    H137694   5.964   4.909   7.668 -0.0007 -0.7723 -1.3673
 5353TIP3    H237695   6.108   4.864   7.686  0.1984  0.8012  1.5752
 5354TIP3   OH237696   1.462   0.790   5.814 -0.3171  0.2347 -0.2308
 5354TIP3    H137697   1.480   0.696   5.810  0.0175  0.1584  1.9207
 5354TIP3    H237698   1.370   0.797   5.838  0.7454  0.1934  4.9926
 5355TIP3   OH237699   3.255   4.375   0.041  0.1763  0.2179  0.0045
 5355TIP3    H137700   3.218   4.461   0.022 -0.3561 -0.0331 -0.1165
 5355TIP3    H237701   3.209   4.316  -0.018 -0.5164 -0.3634  1.0902
 5356TIP3   OH237702   1.077   6.660   6.968  0.1529  0.0069 -0.2044
 5356TIP3    H137703   1.124   6.655   7.051 -0.9875  1.2910  0.5717
 5356TIP3    H237704   1.089   6.751   6.939  0.3183 -0.3518 -1.3215
 5357TIP3   OH237705   2.294   6.009   8.591 -0.6949  0.0627 -0.4537
 5357TIP3    H137706   2.345   6.072   8.540 -0.8903 -0.5194 -1.4029
 5357TIP3    H237707   2.290   5.931   8.536 -0.8515 -0.6234  0.5031
 5358TIP3   OH237708   5.615   1.971   1.492 -0.0537 -0.0890 -0.1481
 5358TIP3    H137709   5.595   2.054   1.450 -0.8675  0.0838  0.5561
 5358TIP3    H237710   5.534   1.920   1.485  0.4605 -0.8627 -0.6497
 5359TIP3   OH237711   5.590   3.472   7.350  0.1706  0.1165  0.3125
 5359TIP3    H137712   5.627   3.465   7.262  1.8339 -0.7314  1.0140
 5359TIP3    H237713   5.540   3.391   7.362 -0.0494  0.2282  0.1514
 5360TIP3   OH237714   6.150   3.505   7.731  1.0511 -0.4158  0.2128
 5360TIP3    H137715   6.183   3.419   7.705  1.2485 -0.3745  0.3267
 5360TIP3    H237716   6.064   3.487   7.768  0.7166 -0.4614 -0.5753
 5361TIP3   OH237717   5.444   1.842   8.047 -0.3828  0.0604  0.4989
 5361TIP3    H137718   5.484   1.788   8.115 -1.1678 -0.4411  0.5779
 5361TIP3    H237719   5.438   1.930   8.087  0.8246  0.2004  0.3976
 5362TIP3   OH237720   3.316   5.270   7.986 -0.0468 -0.2719 -0.3128
 5362TIP3    H137721   3.278   5.189   7.953  0.4998 -0.4015 -0.6557
 5362TIP3    H237722   3.369   5.243   8.061  0.4139 -0.2926 -0.6376
 5363TIP3   OH237723   5.485   0.137   8.158  0.2571 -0.0407  0.0176
 5363TIP3    H137724   5.393   0.128   8.134  0.3426 -0.3344 -0.2016
 5363TIP3    H237725   5.529   0.157   8.075  0.2670  1.0381  0.2587
 5364TIP3   OH237726   4.640   4.524   1.097 -0.3219  0.6308 -0.6967
 5364TIP3    H137727   4.726   4.547   1.133  0.7451 -1.4057 -1.7926
 5364TIP3    H237728   4.649   4.534   1.003 -0.2688 -2.3923 -1.1211
 5365TIP3   OH237729   4.851   0.323   1.666 -0.4554  0.3211 -0.4155
 5365TIP3    H137730   4.797   0.334   1.588 -0.5994  0.1589 -0.3402
 5365TIP3    H237731   4.941   0.317   1.634 -0.7144 -2.9629 -0.8948
 5366TIP3   OH237732   1.398   6.236   8.396  0.4040  0.6160  0.7183
 5366TIP3    H137733   1.480   6.212   8.352 -0.8587 -1.1389 -0.8800
 5366TIP3    H237734   1.337   6.166   8.372 -1.8913  2.4230  0.9189
 5367TIP3   OH237735   6.454   4.008   0.087  0.3602 -0.4280  0.0762
 5367TIP3    H137736   6.427   3.987   0.177 -2.1990 -0.6742 -0.6587
 5367TIP3    H237737   6.525   4.071   0.098 -0.3926  0.1559  2.3000
 5368TIP3   OH237738   0.534   1.008   6.827  0.0213 -0.0459  0.0939
 5368TIP3    H137739   0.503   1.098   6.815 -0.9770 -0.4542 -0.5848
 5368TIP3    H237740   0.580   0.988   6.745 -1.3122 -0.7253 -0.5296
 5369TIP3   OH237741   3.409   0.922   0.500 -0.2693 -0.4066 -0.1156
 5369TIP3    H137742   3.425   0.998   0.556 -0.1979 -0.4622 -0.0601
 5369TIP3    H237743   3.327   0.885   0.534 -0.4397 -0.2064 -0.3067
 5370TIP3   OH237744   5.679   0.275   0.150  0.2930  0.5941 -0.1996
 5370TIP3    H137745   5.610   0.209   0.160  0.1590  0.9981  2.2024
 5370TIP3    H237746   5.667   0.308   0.061 -0.1385 -2.0074 -1.2077
 5371TIP3   OH237747   3.111   1.862   0.355  0.2318  0.0270  0.0060
 5371TIP3    H137748   3.147   1.932   0.409  0.2764  0.2585 -0.3191
 5371TIP3    H237749   3.094   1.790   0.416  0.1324  0.3410  0.3508
 5372TIP3   OH237750   3.724   1.175   7.768  0.0601  0.1324  0.1293
 5372TIP3    H137751   3.778   1.124   7.829 -1.3881 -0.7132  0.7480
 5372TIP3    H237752   3.679   1.108   7.716  1.2856  0.8268 -1.9308
 5373TIP3   OH237753   5.261   1.455   6.852  0.0681 -0.8325 -0.3632
 5373TIP3    H137754   5.346   1.497   6.868 -0.5589 -0.1662  1.4627
 5373TIP3    H237755   5.252   1.392   6.923 -1.2071 -0.4919 -0.2017
 5374TIP3   OH237756   4.713   1.538   8.222 -0.3347  0.7257  0.1258
 5374TIP3    H137757   4.779   1.597   8.185 -1.3578  1.4742 -0.5605
 5374TIP3    H237758   4.718   1.552   8.316  1.8504 -0.7162  0.2960
 5375TIP3   OH237759   3.238   1.409   8.668  0.6278 -0.0872 -0.3605
 5375TIP3    H137760   3.277   1.479   8.615  0.1375 -0.2271 -0.9225
 5375TIP3    H237761   3.144   1.426   8.664  0.5936  0.0074  0.6360
 5376TIP3   OH237762   3.523   1.174   8.240  0.0531  0.2859 -0.5421
 5376TIP3    H137763   3.535   1.117   8.165  1.5051  2.3094 -1.9546
 5376TIP3    H237764   3.484   1.118   8.307 -0.6813 -1.7501 -2.5562
 5377TIP3   OH237765   1.041   2.120   6.805  0.8528  0.2105 -0.0870
 5377TIP3    H137766   1.017   2.110   6.713 -1.1951 -0.3937  0.4490
 5377TIP3    H237767   0.987   2.192   6.836  0.8800 -0.1532  0.8423
 5378TIP3   OH237768   4.044   1.888   8.064 -0.1510 -0.4148  0.7928
 5378TIP3    H137769   4.025   1.806   8.110  0.3094 -0.9878 -0.0014
 5378TIP3    H237770   3.998   1.879   7.980 -0.4473  0.3301  0.8700
 5379TIP3   OH237771   4.157   5.389   6.751  0.4826  0.2858  0.2313
 5379TIP3    H137772   4.098   5.426   6.686  2.4532  1.2472 -1.0931
 5379TIP3    H237773   4.136   5.435   6.832 -0.6121  0.5452 -0.1887
 5380TIP3   OH237774   4.599   4.467   0.802  0.3668 -0.2882 -1.1149
 5380TIP3    H137775   4.601   4.462   0.706  1.5365 -0.6036 -1.0828
 5380TIP3    H237776   4.549   4.546   0.821 -0.0895 -0.3561 -1.9792
 5381TIP3   OH237777   2.687   2.050   7.731  0.3473 -0.4147  0.2888
 5381TIP3    H137778   2.646   2.109   7.794 -0.6552 -0.6252 -0.1542
 5381TIP3    H237779   2.640   1.967   7.741  0.3819 -0.5399 -0.5100
 5382TIP3   OH237780   3.141   0.568   6.589  0.0092 -0.1082  0.0215
 5382TIP3    H137781   3.176   0.642   6.639  1.2764 -0.5854 -0.1305
 5382TIP3    H237782   3.088   0.519   6.653 -0.7554  0.8520  0.1476
 5383TIP3   OH237783   4.815   1.392   6.512  0.0357  0.0365  0.2518
 5383TIP3    H137784   4.750   1.384   6.583 -0.5498 -0.2471 -0.3037
 5383TIP3    H237785   4.898   1.407   6.557 -0.4359  0.5565  0.9808
 5384TIP3   OH237786   1.680   1.011   1.553 -0.1039  0.3400  0.0986
 5384TIP3    H137787   1.641   0.941   1.605 -1.2451  0.6774 -0.2859
 5384TIP3    H237788   1.742   1.053   1.613 -0.8353  0.2389  0.9495
 5385TIP3   OH237789   0.628   2.377   6.247  0.3338  0.7004 -0.2066
 5385TIP3    H137790   0.652   2.329   6.168 -0.1663 -1.2150  0.7462
 5385TIP3    H237791   0.533   2.367   6.253  0.5155 -0.5334  1.4149
 5386TIP3   OH237792   2.458   2.104   6.393 -0.3691  0.2996 -0.0843
 5386TIP3    H137793   2.464   2.121   6.487 -2.6866 -0.8201  0.3354
 5386TIP3    H237794   2.522   2.035   6.377 -1.3524 -0.9288  1.0969
 5387TIP3   OH237795   1.007   4.326   0.581  0.1797 -0.4274 -0.3903
 5387TIP3    H137796   0.971   4.237   0.581  1.9283 -1.1858 -0.0583
 5387TIP3    H237797   0.931   4.383   0.582 -1.0025 -1.9168 -1.3460
 5388TIP3   OH237798   6.850   1.160   1.026 -0.4583  0.1675 -0.1745
 5388TIP3    H137799   6.878   1.232   1.082  0.4805 -0.0643 -0.3236
 5388TIP3    H237800   6.760   1.182   1.002 -0.4993  0.8163  0.5296
 5389TIP3   OH237801   1.340   5.136   6.502  0.0115 -0.0269 -0.5203
 5389TIP3    H137802   1.389   5.095   6.431 -2.4198 -0.1200 -2.2579
 5389TIP3    H237803   1.344   5.072   6.573 -0.9521 -1.8948 -2.0478
 5390TIP3   OH237804   5.781   6.181   8.020 -0.2939 -0.1853  0.1495
 5390TIP3    H137805   5.746   6.266   8.047 -0.7786 -0.3270 -0.0161
 5390TIP3    H237806   5.787   6.130   8.100 -3.5887 -1.2866 -0.1609
 5391TIP3   OH237807   6.252   1.453   1.407 -0.3401  0.3345  0.2644
 5391TIP3    H137808   6.219   1.459   1.497  0.9776  0.3014  0.7808
 5391TIP3    H237809   6.254   1.543   1.376  1.3716  0.6533  1.1372
 5392TIP3   OH237810   6.678   5.273   0.039  0.3860  0.0704  0.2206
 5392TIP3    H137811   6.759   5.323   0.045 -0.8823  2.1833  0.6619
 5392TIP3    H237812   6.690   5.199   0.099  2.6362 -0.7145 -1.0906
 5393TIP3   OH237813   0.263   0.681   7.881 -0.0661 -0.3023  0.0182
 5393TIP3    H137814   0.344   0.714   7.844  0.3513 -2.0768 -0.7692
 5393TIP3    H237815   0.194   0.719   7.827  0.2670  0.7614  0.3317
 5394TIP3   OH237816   5.818   1.728   7.088 -0.1127 -1.0703 -0.0579
 5394TIP3    H137817   5.818   1.712   6.994  0.2152  0.8449 -0.4212
 5394TIP3    H237818   5.901   1.690   7.119  1.4770  1.2695 -1.1633
 5395TIP3   OH237819   2.854   2.726   0.803 -0.0083 -0.2069 -0.6605
 5395TIP3    H137820   2.846   2.788   0.731 -2.0238  1.6184  1.0051
 5395TIP3    H237821   2.842   2.778   0.882 -2.2430 -2.7203  0.8477
 5396TIP3   OH237822   0.881   4.353   1.374 -0.0078 -0.0170  0.3581
 5396TIP3    H137823   0.952   4.343   1.437 -0.7765 -1.0481  1.1124
 5396TIP3    H237824   0.839   4.436   1.397  0.2353  0.0205  0.6717
 5397TIP3   OH237825   6.086   0.026   7.809  0.2875 -0.2796  0.0494
 5397TIP3    H137826   5.998   0.011   7.776 -0.1226  0.9405  0.5183
 5397TIP3    H237827   6.088  -0.017   7.894 -0.7620  1.8388  1.2321
 5398TIP3   OH237828   4.040   6.570   7.659  0.2258  0.5414 -0.7400
 5398TIP3    H137829   4.090   6.489   7.644 -0.2203  0.0147  0.4629
 5398TIP3    H237830   4.105   6.635   7.682  0.6192  0.6197 -1.9847
 5399TIP3   OH237831   6.304   2.549   0.389 -0.0033 -0.2704  0.2301
 5399TIP3    H137832   6.304   2.453   0.395  1.0115 -0.3681 -0.8973
 5399TIP3    H237833   6.346   2.578   0.470  1.5192 -0.8846 -0.3094
 5400TIP3   OH237834   5.913   4.948   6.993 -0.4412 -0.1433 -0.5916
 5400TIP3    H137835   5.858   4.922   6.919  0.7220 -0.9632 -1.2028
 5400TIP3    H237836   5.970   4.873   7.008  0.4321  0.6256  0.0859
 5401TIP3   OH237837   2.230   6.437   6.556  0.1030 -0.0409  0.1467
 5401TIP3    H137838   2.135   6.434   6.563  0.1966 -0.6354  1.2722
 5401TIP3    H237839   2.262   6.421   6.644  1.2578  0.2250 -0.1990
 5402TIP3   OH237840   2.554   6.386   0.006 -0.1699  0.3484 -0.4674
 5402TIP3    H137841   2.577   6.465   0.055  0.0407  0.3384 -0.5474
 5402TIP3    H237842   2.478   6.411  -0.046 -1.2572 -0.0443  0.8934
 5403TIP3   OH237843   3.877   1.439   7.784 -0.1883 -0.1802 -1.0426
 5403TIP3    H137844   3.811   1.373   7.808 -1.3200  1.1802 -0.2640
 5403TIP3    H237845   3.854   1.464   7.694  0.3708 -0.9588 -1.4181
 5404TIP3   OH237846   1.315   4.567   7.691 -0.0417  0.2219  0.0142
 5404TIP3    H137847   1.269   4.651   7.682 -0.5221 -0.0494 -0.1025
 5404TIP3    H237848   1.278   4.511   7.623  0.3468 -0.0580  0.0261
 5405TIP3   OH237849   6.107   0.084   0.891  0.6157 -0.4066 -0.5281
 5405TIP3    H137850   6.129   0.131   0.811 -0.0770  1.0350  0.0862
 5405TIP3    H237851   6.026   0.036   0.869  0.7652 -0.5051 -0.8651
 5406TIP3   OH237852   6.624   6.418   5.889 -0.6062 -0.5821 -0.1559
 5406TIP3    H137853   6.530   6.435   5.884 -0.5647 -0.3804 -0.2529
 5406TIP3    H237854   6.664   6.491   5.842 -0.2427  0.7765  2.0985
 5407TIP3   OH237855   5.114   4.497   1.057  0.0365 -0.6626  0.0342
 5407TIP3    H137856   5.133   4.417   1.008 -1.2771 -1.1405  0.2591
 5407TIP3    H237857   5.116   4.470   1.149  0.3601 -0.2599  0.1470
 5408TIP3   OH237858   6.049   4.771   1.200  0.0753 -0.1223  0.0829
 5408TIP3    H137859   6.025   4.841   1.139  1.3232 -1.8611 -2.6301
 5408TIP3    H237860   6.134   4.798   1.236  1.1415 -0.6520 -1.8682
 5409TIP3   OH237861   6.422   1.439   2.019  0.5786  0.1261  0.2375
 5409TIP3    H137862   6.447   1.353   2.055 -1.1322 -1.0496 -1.2029
 5409TIP3    H237863   6.488   1.456   1.952  0.3989 -0.5415 -0.1234
 5410TIP3   OH237864   6.049   1.554   7.124  0.4275 -0.2511  0.5790
 5410TIP3    H137865   6.098   1.626   7.084 -0.8455 -0.8635 -2.3047
 5410TIP3    H237866   6.112   1.482   7.129  1.6979  0.8926  3.4455
 5411TIP3   OH237867   3.448   5.165   1.546 -0.4698 -0.4440 -0.8691
 5411TIP3    H137868   3.358   5.170   1.514 -0.0682 -1.4490 -2.2898
 5411TIP3    H237869   3.450   5.085   1.599 -0.5285 -0.1459 -0.4134
 5412TIP3   OH237870   6.637   2.357   5.945  0.2700 -0.1051  0.0316
 5412TIP3    H137871   6.719   2.383   5.988 -0.2868  2.2997 -0.2203
 5412TIP3    H237872   6.654   2.269   5.913  2.0782 -0.4286  1.6753
 5413TIP3   OH237873   1.366   3.284   1.075 -0.2188  0.6645 -0.3253
 5413TIP3    H137874   1.445   3.337   1.074 -0.5357  1.1528 -1.7633
 5413TIP3    H237875   1.303   3.334   1.023 -0.5445 -1.0912 -1.7005
 5414TIP3   OH237876   0.283   4.675   8.202 -0.3988 -0.1676  0.4266
 5414TIP3    H137877   0.308   4.733   8.273 -0.4101  2.3446 -1.4782
 5414TIP3    H237878   0.362   4.625   8.182  0.5053  1.2628  0.2873
 5415TIP3   OH237879   5.603   6.425   0.391 -0.4317  0.1112 -0.1263
 5415TIP3    H137880   5.567   6.460   0.472  0.4438  2.7115 -0.7498
 5415TIP3    H237881   5.527   6.405   0.337 -0.9826  0.3104  0.5609
 5416TIP3   OH237882   2.341   4.365   0.086 -0.3164 -0.2883  0.0476
 5416TIP3    H137883   2.345   4.279   0.043  1.5042  0.1878 -0.8542
 5416TIP3    H237884   2.248   4.382   0.096 -0.7440 -1.7910 -0.9709
 5417TIP3   OH237885   3.383   2.434   1.457 -0.0930 -0.3610 -0.2575
 5417TIP3    H137886   3.352   2.462   1.371  0.0495 -1.2336 -0.6041
 5417TIP3    H237887   3.458   2.377   1.438 -0.1950 -0.7358  0.4386
 5418TIP3   OH237888   5.494   5.736   0.003 -0.0991  0.1283  0.3235
 5418TIP3    H137889   5.575   5.784   0.019 -0.8356  0.8566  2.0310
 5418TIP3    H237890   5.424   5.798   0.024 -1.1701 -0.2015 -1.9134
 5419TIP3   OH237891   3.888   2.878   6.943 -0.2272  0.5062  0.6682
 5419TIP3    H137892   3.854   2.935   7.012  0.5095 -0.4255  1.8462
 5419TIP3    H237893   3.974   2.915   6.922 -0.7744  1.2520 -0.3484
 5420TIP3   OH237894   6.397   1.917   0.623  0.0213 -0.0260  1.0531
 5420TIP3    H137895   6.484   1.887   0.598  0.3572 -1.0558  3.1834
 5420TIP3    H237896   6.352   1.838   0.654 -0.7318  0.8781  2.4054
 5421TIP3   OH237897   0.057   6.637   8.586 -0.3584  0.2518  0.2024
 5421TIP3    H137898   0.100   6.710   8.542 -1.0939  0.3797 -0.3302
 5421TIP3    H237899   0.117   6.563   8.575  0.9282  1.0072  1.7074
 5422TIP3   OH237900   6.330   5.290   7.679 -0.0763  0.2877  0.4601
 5422TIP3    H137901   6.357   5.199   7.684 -0.6127 -0.0379 -1.8099
 5422TIP3    H237902   6.366   5.330   7.759  0.3108 -1.8330  1.3991
 5423TIP3   OH237903   5.645   0.997   0.883  0.2248  0.4119 -0.3261
 5423TIP3    H137904   5.635   1.090   0.903 -0.9427 -0.0461  1.4009
 5423TIP3    H237905   5.559   0.959   0.902  1.2287 -1.3496  0.9913
 5424TIP3   OH237906   2.902   4.018   1.417 -0.2014 -0.2792 -0.2673
 5424TIP3    H137907   2.870   4.072   1.489 -1.4663 -1.6979  0.2927
 5424TIP3    H237908   2.923   4.080   1.347 -2.2050  0.9035  0.1085
 5425TIP3   OH237909   4.739   4.104   7.321 -1.0680 -0.1990 -0.5244
 5425TIP3    H137910   4.736   4.136   7.231  0.0638 -0.2251 -0.5900
 5425TIP3    H237911   4.805   4.034   7.319 -0.3598  0.4181  0.5098
 5426TIP3   OH237912   3.286   3.105   7.589 -0.2202 -0.4103  0.2432
 5426TIP3    H137913   3.238   3.028   7.559 -1.4805  0.7667 -0.8802
 5426TIP3    H237914   3.346   3.126   7.517 -0.3234  0.0102  0.2750
 5427TIP3   OH237915   5.149   2.823   6.063  0.2626 -0.1435 -0.3254
 5427TIP3    H137916   5.066   2.867   6.048 -1.4703 -2.3406  1.9781
 5427TIP3    H237917   5.154   2.756   5.995 -0.0257 -0.2466 -0.2430
 5428TIP3   OH237918   2.936   5.300   1.011  0.0173 -0.2272  0.1997
 5428TIP3    H137919   2.997   5.362   1.052 -1.0781 -0.0448  1.6251
 5428TIP3    H237920   2.991   5.225   0.987  1.2714  1.0395 -1.0800
 5429TIP3   OH237921   1.429   4.324   0.789  0.1421 -0.8171 -0.0608
 5429TIP3    H137922   1.512   4.364   0.816 -0.3273  0.5095 -0.4599
 5429TIP3    H237923   1.364   4.364   0.847 -0.4115 -0.5993 -0.8181
 5430TIP3   OH237924   1.013   4.783   6.872 -0.0084  0.8681 -0.6508
 5430TIP3    H137925   1.033   4.701   6.917  1.5710  1.8016  0.4381
 5430TIP3    H237926   1.069   4.781   6.794 -2.3576 -0.5070 -2.4305
 5431TIP3   OH237927   4.040   5.942   7.730  0.1159  0.3556  0.5048
 5431TIP3    H137928   4.017   5.877   7.664  0.4811 -0.5519  1.2558
 5431TIP3    H237929   3.970   5.938   7.794  1.2902 -0.9965  1.7623
 5432TIP3   OH237930   2.685   1.312   8.508 -0.0498 -0.1127 -0.3346
 5432TIP3    H137931   2.673   1.272   8.594  2.1167  1.3818  0.7592
 5432TIP3    H237932   2.629   1.261   8.450  0.5284 -2.9692  1.4238
 5433TIP3   OH237933   3.399   6.785   6.884 -0.7835  0.2908  0.4092
 5433TIP3    H137934   3.352   6.869   6.888  2.4304  2.2301  0.8578
 5433TIP3    H237935   3.434   6.781   6.795  2.0187  1.2875  1.3723
 5434TIP3   OH237936   4.148   3.576   1.221  0.3246 -0.0591 -0.1233
 5434TIP3    H137937   4.118   3.497   1.175  0.9537 -0.7570  0.6116
 5434TIP3    H237938   4.132   3.648   1.160  1.9663 -1.0383 -1.8115
 5435TIP3   OH237939   5.334   5.079   7.140  0.2072  0.3874 -0.2131
 5435TIP3    H137940   5.372   5.055   7.225  0.7138  2.0408  0.0619
 5435TIP3    H237941   5.245   5.044   7.144  1.4640 -3.2688 -0.7453
 5436TIP3   OH237942   4.882   4.621   7.937  0.3463  0.1770  0.1909
 5436TIP3    H137943   4.906   4.528   7.940 -0.3023  0.0258  0.9796
 5436TIP3    H237944   4.959   4.665   7.902  0.9773 -0.5588  0.6404
 5437TIP3   OH237945   2.105   6.572   7.194 -0.0668  0.8372 -0.6451
 5437TIP3    H137946   2.125   6.535   7.280 -0.1626  0.5135 -0.7602
 5437TIP3    H237947   2.186   6.562   7.144 -0.3820 -0.1303 -0.9905
 5438TIP3   OH237948   0.767   0.512   0.796  0.3243 -0.0890 -0.5197
 5438TIP3    H137949   0.807   0.477   0.877  0.7054  1.3165 -0.0768
 5438TIP3    H237950   0.830   0.490   0.728  1.5636  1.4814  0.0688
 5439TIP3   OH237951   0.012   4.125   0.198 -0.8544  0.4521 -0.7892
 5439TIP3    H137952  -0.069   4.128   0.148 -1.7706 -0.3647  0.5821
 5439TIP3    H237953   0.031   4.031   0.207 -1.3030  0.5146  1.2601
 5440TIP3   OH237954   4.752   6.286   0.336 -0.9594 -0.5528  0.0385
 5440TIP3    H137955   4.745   6.341   0.414 -1.2586  0.1718 -0.4853
 5440TIP3    H237956   4.662   6.278   0.305 -0.5649  1.9615 -2.1085
 5441TIP3   OH237957   5.501   4.331   0.254  0.1662 -0.1377  0.6173
 5441TIP3    H137958   5.484   4.237   0.249  1.5868 -0.5057  1.9342
 5441TIP3    H237959   5.557   4.349   0.178  2.1506 -0.9362  1.8333
 5442TIP3   OH237960   5.059   6.338   7.532  0.3123  0.2929  0.4377
 5442TIP3    H137961   5.114   6.312   7.459  0.0718 -0.9188  0.6664
 5442TIP3    H237962   4.984   6.279   7.528 -1.2842  2.2829 -0.2121
 5443TIP3   OH237963   0.563   5.872   5.997  0.2616  0.1574  0.5101
 5443TIP3    H137964   0.498   5.906   6.058  0.0106  0.3456  0.1419
 5443TIP3    H237965   0.517   5.803   5.949  0.9214 -1.0912  1.6158
 5444TIP3   OH237966   6.527   1.761   6.650 -0.5710 -0.0711  0.4507
 5444TIP3    H137967   6.614   1.795   6.632 -1.0206  0.5483 -0.6631
 5444TIP3    H237968   6.472   1.839   6.658 -1.1671 -0.4723  0.3439
 5445TIP3   OH237969   4.534   5.157   7.759 -0.0356 -0.6071  1.1160
 5445TIP3    H137970   4.501   5.079   7.715  0.0814  0.4844 -1.0218
 5445TIP3    H237971   4.494   5.230   7.712  2.3457  0.6833  0.9550
 5446TIP3   OH237972   2.685   4.714   7.941 -0.8364  0.5820 -0.6232
 5446TIP3    H137973   2.681   4.624   7.972 -0.4626  1.0385  0.7965
 5446TIP3    H237974   2.638   4.765   8.007 -0.2500  1.5483 -0.9361
 5447TIP3   OH237975   3.709   6.523   1.256 -0.1163  0.6694 -0.0653
 5447TIP3    H137976   3.773   6.455   1.236 -1.8097 -1.3210  0.9275
 5447TIP3    H237977   3.751   6.577   1.323  0.6894 -0.2915  0.2156
 5448TIP3   OH237978   6.004   3.054   0.482 -0.4207  0.0922  0.4154
 5448TIP3    H137979   5.933   3.006   0.524 -0.5855  1.0711  1.3189
 5448TIP3    H237980   6.076   2.991   0.476 -1.0376 -0.6249  0.3869
 5449TIP3   OH237981   5.528   6.158   1.033 -0.1508 -0.3053 -0.8166
 5449TIP3    H137982   5.480   6.241   1.033 -1.5174 -1.0389  0.3377
 5449TIP3    H237983   5.508   6.120   0.948 -1.1060 -0.2798 -0.6226
 5450TIP3   OH237984   2.903   3.007   7.858 -0.4051  0.3453 -0.7913
 5450TIP3    H137985   2.862   3.018   7.772  0.7582  0.6372 -1.3445
 5450TIP3    H237986   2.976   3.070   7.857  0.3918 -0.5374 -0.0945
 5451TIP3   OH237987   1.736   6.055   5.941  0.3064  0.0828 -0.0316
 5451TIP3    H137988   1.788   5.981   5.910  0.5571 -0.6388  1.9091
 5451TIP3    H237989   1.774   6.131   5.897 -1.0213 -1.0049 -3.3653
 5452TIP3   OH237990   5.662   0.579   0.120 -0.2383  0.1602 -0.2712
 5452TIP3    H137991   5.743   0.532   0.138  0.3172  0.7920 -1.0509
 5452TIP3    H237992   5.677   0.667   0.157 -0.6179  0.2363 -0.2982
 5453TIP3   OH237993   1.430   1.238   1.731 -0.4582  0.3153 -0.0948
 5453TIP3    H137994   1.371   1.164   1.746 -0.2522  0.6752  3.4096
 5453TIP3    H237995   1.515   1.207   1.764 -0.0001  1.5722 -0.0449
 5454TIP3   OH237996   3.278   1.826   8.461  0.5250 -0.0501 -0.0325
 5454TIP3    H137997   3.362   1.848   8.501  0.2381  0.4311  0.3111
 5454TIP3    H237998   3.281   1.731   8.450  0.5511 -0.2216  1.2903
 5455TIP3   OH237999   0.179   1.055   5.930 -0.3901  0.3781  0.2795
 5455TIP3    H138000   0.154   1.056   6.022 -0.1231  0.0433  0.3570
 5455TIP3    H238001   0.139   1.134   5.893 -0.8020  0.3236  0.5984
 5456TIP3   OH238002   0.040   2.185   6.847 -0.0538 -0.2078  0.4545
 5456TIP3    H138003  -0.030   2.174   6.782  0.5924 -1.2922 -0.0890
 5456TIP3    H238004   0.010   2.135   6.923 -0.2277 -0.0104  0.5162
 5457TIP3   OH238005   6.358   6.821   7.641 -0.1477 -0.1674 -0.0029
 5457TIP3    H138006   6.267   6.792   7.651  0.2450 -1.3377  0.3719
 5457TIP3    H238007   6.373   6.878   7.717 -0.5973  0.1071 -0.1191
 5458TIP3   OH238008   3.163   6.083   7.159 -1.0856 -0.3841  0.0814
 5458TIP3    H138009   3.105   6.133   7.216 -2.7870 -0.1768 -1.7151
 5458TIP3    H238010   3.133   5.992   7.169 -2.5584 -0.1530 -1.6502
 5459TIP3   OH238011   3.278   0.205   7.735 -0.2520  0.1721  0.2626
 5459TIP3    H138012   3.233   0.254   7.666  0.4393  1.6503  0.8286
 5459TIP3    H238013   3.367   0.196   7.703 -0.0987  0.2621  0.6668
 5460TIP3   OH238014   1.457   5.272   0.908  0.3986 -0.2246  0.4396
 5460TIP3    H138015   1.500   5.333   0.849  0.3205 -0.5694  0.0226
 5460TIP3    H238016   1.369   5.308   0.920  0.6556  0.2485  0.9494
 5461TIP3   OH238017   3.662   2.249   6.402  0.3686  0.3328  0.2720
 5461TIP3    H138018   3.570   2.276   6.404  0.8807  2.3013  2.1610
 5461TIP3    H238019   3.706   2.317   6.351  0.7073 -1.0456 -1.3504
 5462TIP3   OH238020   3.304   0.484   7.324 -0.3982  0.0873  0.3746
 5462TIP3    H138021   3.362   0.546   7.369  0.6615  0.2054 -1.0792
 5462TIP3    H238022   3.258   0.537   7.259 -0.8216 -0.3494  0.3087
 5463TIP3   OH238023   3.013   2.417   0.418  0.7974  0.1799 -0.5322
 5463TIP3    H138024   3.017   2.385   0.328  1.6701 -0.1436 -0.3911
 5463TIP3    H238025   2.921   2.438   0.432  0.7196  0.6377 -1.6361
 5464TIP3   OH238026   6.680   2.817   8.528  0.0911 -0.2639  0.1807
 5464TIP3    H138027   6.624   2.849   8.457  0.7219  1.0349  0.2420
 5464TIP3    H238028   6.728   2.894   8.558  0.0289 -0.8284  1.8680
 5465TIP3   OH238029   4.294   6.069   7.765 -0.1252  0.3269  0.0614
 5465TIP3    H138030   4.207   6.036   7.744  0.2025 -0.3651 -0.2557
 5465TIP3    H238031   4.353   5.999   7.737  0.5840  1.1338 -0.5134
 5466TIP3   OH238032   6.523   0.692   1.380  0.6154 -0.4420  0.1491
 5466TIP3    H138033   6.552   0.655   1.463 -1.6552 -0.1879  1.1306
 5466TIP3    H238034   6.588   0.759   1.359  1.8660 -1.3336  1.0790
 5467TIP3   OH238035   2.856   0.506   8.570 -0.1608  0.2724 -0.5892
 5467TIP3    H138036   2.851   0.598   8.544 -0.7824  0.8993  1.5768
 5467TIP3    H238037   2.949   0.484   8.561  0.3482  1.7150  0.6987
 5468TIP3   OH238038   2.441   4.859   0.049 -0.4387  0.7128 -0.2272
 5468TIP3    H138039   2.519   4.806   0.033  0.2600  1.4974  0.4920
 5468TIP3    H238040   2.471   4.949   0.041 -0.6929  1.1103  2.2943
 5469TIP3   OH238041   0.609   2.259   1.838 -0.5232  0.0866  0.2237
 5469TIP3    H138042   0.662   2.184   1.866 -1.0347 -0.1237  0.6274
 5469TIP3    H238043   0.626   2.266   1.744 -0.3531 -0.4387  0.2122
 5470TIP3   OH238044   3.183   4.797   0.364 -0.0972 -0.3069 -0.2110
 5470TIP3    H138045   3.131   4.867   0.324  0.5721 -0.9450 -2.3447
 5470TIP3    H238046   3.262   4.841   0.396 -0.4771  0.1633  0.1067
 5471TIP3   OH238047   6.546   3.723   6.793 -0.0012 -0.2059  0.3608
 5471TIP3    H138048   6.626   3.673   6.806  0.2495 -0.0454 -0.4940
 5471TIP3    H238049   6.574   3.802   6.747 -0.6715 -0.2223 -0.0938
 5472TIP3   OH238050   4.140   1.470   8.330  0.0738  0.1783 -0.0863
 5472TIP3    H138051   4.177   1.456   8.417  2.0719 -2.3400 -1.1944
 5472TIP3    H238052   4.215   1.465   8.271 -1.4470 -0.2032 -2.1140
 5473TIP3   OH238053   5.757   3.435   0.075 -0.1140  0.3454 -0.2871
 5473TIP3    H138054   5.752   3.531   0.069  0.9096  0.5066  0.9444
 5473TIP3    H238055   5.797   3.419   0.161 -2.8952 -1.2647  0.8346
 5474TIP3   OH238056   6.326   5.979   0.013 -0.3339 -0.1856  0.2798
 5474TIP3    H138057   6.290   6.023  -0.064  1.8034 -1.3292 -1.5147
 5474TIP3    H238058   6.321   5.886  -0.008  2.3002 -0.4519  0.4635
 5475TIP3   OH238059   0.513   3.102   6.937  0.4364 -0.6726  0.1970
 5475TIP3    H138060   0.548   3.131   7.021  0.3299 -0.1983  0.0787
 5475TIP3    H238061   0.553   3.016   6.923  1.7832 -0.0259 -0.0737
 5476TIP3   OH238062   2.012   3.776   0.691  0.2472 -0.3480 -0.3274
 5476TIP3    H138063   2.070   3.852   0.695  0.0727 -0.1685 -1.0543
 5476TIP3    H238064   2.071   3.702   0.677  0.4921 -0.4726  1.1614
 5477TIP3   OH238065   1.438   3.637   8.445 -0.0383 -0.1910 -0.0448
 5477TIP3    H138066   1.396   3.691   8.378  0.3696  0.8413  0.5084
 5477TIP3    H238067   1.532   3.644   8.426  0.1648  1.1008  1.3412
 5478TIP3   OH238068   6.206   5.229   0.788  0.3978 -0.8765  0.2623
 5478TIP3    H138069   6.241   5.266   0.869  1.0322  0.1067 -0.4431
 5478TIP3    H238070   6.175   5.142   0.813 -2.5285  0.5930  2.3376
 5479TIP3   OH238071   5.399   0.612   6.179 -0.0894  0.8321 -0.5994
 5479TIP3    H138072   5.414   0.519   6.194 -0.0319  0.9382  0.0531
 5479TIP3    H238073   5.304   0.621   6.171 -0.0882  0.7046 -0.7427
 5480TIP3   OH238074   2.093   5.014   0.885  0.4936  0.8491  0.4224
 5480TIP3    H138075   2.081   4.962   0.964  2.5117  0.3237  0.4342
 5480TIP3    H238076   2.086   4.950   0.814  0.4411  1.0138  0.2788
 5481TIP3   OH238077   2.862   4.663   0.450  0.0263 -0.2220  0.6161
 5481TIP3    H138078   2.845   4.757   0.460  0.2562 -0.1527  0.3639
 5481TIP3    H238079   2.893   4.654   0.360 -0.1176 -0.5594  0.5987
 5482TIP3   OH238080   3.446   6.656   7.867  0.4980  0.1904  0.2871
 5482TIP3    H138081   3.445   6.750   7.853  0.1551  0.1261 -0.1289
 5482TIP3    H238082   3.488   6.620   7.788 -0.8006 -0.1216 -0.2800
 5483TIP3   OH238083   2.226   6.492   8.481 -0.2270  0.2170 -0.4870
 5483TIP3    H138084   2.263   6.519   8.565 -0.9752 -0.3248  0.0280
 5483TIP3    H238085   2.284   6.530   8.416 -0.4096  1.8277  0.2399
 5484TIP3   OH238086   0.859   5.187   0.570 -0.2241  0.0496  0.1931
 5484TIP3    H138087   0.914   5.262   0.546  0.1240  0.1828  1.3212
 5484TIP3    H238088   0.839   5.201   0.663 -0.7962 -0.8616  0.2224
 5485TIP3   OH238089   2.289   3.083   6.296 -0.0462 -0.6558  0.8089
 5485TIP3    H138090   2.376   3.061   6.263  0.0870  0.9917 -0.0846
 5485TIP3    H238091   2.229   3.029   6.244  0.2136  1.3225 -1.7505
 5486TIP3   OH238092   2.194   3.369   0.395  0.0410 -0.2389 -0.3205
 5486TIP3    H138093   2.109   3.330   0.372 -0.0683 -0.4044  0.3566
 5486TIP3    H238094   2.254   3.294   0.400  0.5741  0.0058 -2.2174
 5487TIP3   OH238095   5.849   1.846   0.069  0.0948  0.0865 -0.4432
 5487TIP3    H138096   5.810   1.761   0.050 -0.1856  0.0667  0.2145
 5487TIP3    H238097   5.903   1.865  -0.008 -0.3735 -0.3707 -0.8886
 5488TIP3   OH238098   5.236   5.870   0.770 -0.0022  0.5135  0.1494
 5488TIP3    H138099   5.212   5.815   0.845  1.2488 -1.3669 -0.7517
 5488TIP3    H238100   5.154   5.909   0.742 -0.6464  0.5319  1.9339
 5489TIP3   OH238101   2.937   2.783   7.032  0.4633  0.2220  0.8874
 5489TIP3    H138102   2.996   2.709   7.021 -0.3094 -0.2882  0.0077
 5489TIP3    H238103   2.981   2.856   6.989  0.6826 -0.0246  0.6930
 5490TIP3   OH238104   1.417   5.486   7.453  0.1085  0.1356  0.1267
 5490TIP3    H138105   1.498   5.449   7.416 -0.1562 -2.4395  1.8442
 5490TIP3    H238106   1.432   5.484   7.548 -0.8960  2.4192  0.3879
 5491TIP3   OH238107   6.338   4.030   6.743 -0.9148 -0.2462 -0.2649
 5491TIP3    H138108   6.419   4.002   6.701  0.3990  1.3934  1.0835
 5491TIP3    H238109   6.295   4.086   6.678 -0.7351 -0.7084 -0.7899
 5492TIP3   OH238110   1.269   2.412   6.631 -0.4350 -0.1975  0.0657
 5492TIP3    H138111   1.223   2.353   6.571  0.3247 -0.5336 -0.2061
 5492TIP3    H238112   1.352   2.430   6.587 -0.2978  0.3772  0.5517
 5493TIP3   OH238113   6.463   6.400   7.436  0.2637  0.1583 -0.0827
 5493TIP3    H138114   6.485   6.466   7.501  0.6020  1.3334 -1.3328
 5493TIP3    H238115   6.546   6.357   7.416  0.2425  0.1041 -0.0546
 5494TIP3   OH238116   6.828   5.214   1.040  0.4945  0.2930  0.5462
 5494TIP3    H138117   6.791   5.166   0.966  0.3466  1.3157 -0.0717
 5494TIP3    H238118   6.865   5.146   1.097  0.7292 -0.5126 -0.5278
 5495TIP3   OH238119   0.932   2.655   0.748 -0.0892  0.0489  0.4046
 5495TIP3    H138120   0.910   2.615   0.664 -0.6488 -0.2387  0.6796
 5495TIP3    H238121   1.015   2.700   0.733 -0.5134  0.5557 -0.4738
 5496TIP3   OH238122   5.334   6.826   7.783  0.0537 -0.4144 -0.0528
 5496TIP3    H138123   5.323   6.758   7.850 -0.1088 -0.1571  0.1877
 5496TIP3    H238124   5.245   6.845   7.754  0.2181 -1.4960 -1.3435
 5497TIP3   OH238125   5.798   2.485   6.766 -0.4655 -0.3474 -0.2725
 5497TIP3    H138126   5.783   2.576   6.791 -2.5487 -0.5781 -0.5018
 5497TIP3    H238127   5.767   2.478   6.676  1.9131 -0.7772 -1.1173
 5498TIP3   OH238128   2.225   5.700   0.112 -0.1076  0.2069 -0.1387
 5498TIP3    H138129   2.289   5.639   0.149  1.0440 -0.1803 -2.5169
 5498TIP3    H238130   2.155   5.644   0.078 -0.7034  0.4830  0.6103
 5499TIP3   OH238131   4.145   1.472   7.951 -0.5678  0.5160  0.3528
 5499TIP3    H138132   4.072   1.490   7.891  0.8634  2.0575 -1.0588
 5499TIP3    H238133   4.150   1.377   7.954 -0.3634  0.3271 -2.5553
 5500TIP3   OH238134   3.480   6.784   7.188  0.1073  0.9212 -0.2723
 5500TIP3    H138135   3.422   6.785   7.112 -1.4249 -0.1537  0.8094
 5500TIP3    H238136   3.530   6.703   7.179 -1.5563 -0.2955  0.8467
 5501TIP3   OH238137   4.028   3.549   5.946  0.1560  0.5649  0.0014
 5501TIP3    H138138   3.968   3.614   5.982 -0.4220 -0.2172  0.5115
 5501TIP3    H238139   3.989   3.525   5.861 -0.0945  0.2843  0.1923
 5502TIP3   OH238140   3.673   1.475   8.685 -0.3378  0.7571 -0.4797
 5502TIP3    H138141   3.747   1.523   8.648 -0.3785  0.2425 -1.2620
 5502TIP3    H238142   3.638   1.425   8.611 -0.3692 -0.3746  0.2708
 5503TIP3   OH238143   0.415   1.561   0.356 -0.7790 -0.0331 -0.5615
 5503TIP3    H138144   0.507   1.555   0.332 -0.6195 -2.2661  0.3589
 5503TIP3    H238145   0.368   1.528   0.279 -0.6802 -0.7393 -0.3239
 5504TIP3   OH238146   2.813   2.871   8.308  0.5862  0.2893  0.2391
 5504TIP3    H138147   2.780   2.929   8.239 -0.1046 -1.1091 -0.6616
 5504TIP3    H238148   2.857   2.929   8.370  0.7417  1.6572 -1.0972
 5505TIP3   OH238149   5.116   0.657   8.646  0.6177  0.3344 -0.9726
 5505TIP3    H138150   5.198   0.655   8.596  0.5318  2.2737 -1.2867
 5505TIP3    H238151   5.058   0.713   8.594 -0.7704 -0.6610 -0.5347
 5506TIP3   OH238152   2.390   2.406   0.917  0.1569 -0.4776  0.1148
 5506TIP3    H138153   2.484   2.411   0.935  0.3061 -2.2895  0.0371
 5506TIP3    H238154   2.348   2.430   0.999  0.6568  0.5389  0.0975
 5507TIP3   OH238155   5.415   3.140   1.704 -0.5714 -0.6170 -0.2990
 5507TIP3    H138156   5.341   3.179   1.658 -0.0230  0.2257 -0.5001
 5507TIP3    H238157   5.390   3.141   1.796 -0.9189 -0.6032 -0.3919
 5508TIP3   OH238158   5.602   4.685   7.404  0.0949 -0.1358  0.8089
 5508TIP3    H138159   5.595   4.594   7.376 -2.9648  0.8439 -2.2329
 5508TIP3    H238160   5.538   4.694   7.474  0.6816 -0.3719  1.3862
 5509TIP3   OH238161   6.029   0.069   6.656 -0.3491 -0.1646  0.1721
 5509TIP3    H138162   6.023  -0.001   6.721 -0.9358 -0.5211 -0.2506
 5509TIP3    H238163   6.067   0.026   6.579 -2.1690 -0.4238 -0.6202
 5510TIP3   OH238164   2.003   0.208   0.563  0.0692  0.1095  0.3693
 5510TIP3    H138165   1.999   0.287   0.616 -1.1418  0.4639 -0.2038
 5510TIP3    H238166   1.982   0.137   0.624  2.4095  0.0461  1.1655
 5511TIP3   OH238167   5.139   4.412   0.011 -0.0520  0.0886 -0.1094
 5511TIP3    H138168   5.194   4.334  -0.000  0.5733  0.4393  0.4566
 5511TIP3    H238169   5.103   4.428  -0.076  1.9371  0.7303 -0.8866
 5512TIP3   OH238170   3.596   1.888   8.297  0.0484 -0.6824 -0.2109
 5512TIP3    H138171   3.586   1.793   8.292  0.2742 -0.6741 -0.7965
 5512TIP3    H238172   3.573   1.909   8.388 -1.1859 -1.1521 -0.3916
 5513TIP3   OH238173   4.523   4.219   0.118 -0.3571  0.6091 -0.6252
 5513TIP3    H138174   4.590   4.275   0.079 -0.8514  2.4943  1.0634
 5513TIP3    H238175   4.440   4.252   0.082 -0.6702  1.1579  0.5580
 5514TIP3   OH238176   5.343   3.390   1.799  0.2846 -1.1173  0.0309
 5514TIP3    H138177   5.280   3.363   1.732 -0.8281  0.6398  0.2870
 5514TIP3    H238178   5.348   3.315   1.858 -2.0949 -1.1155  0.3464
 5515TIP3   OH238179   4.636   4.062   0.351  0.2355 -0.1684  0.1474
 5515TIP3    H138180   4.636   4.136   0.290  1.4824  0.0195  0.3530
 5515TIP3    H238181   4.604   3.988   0.299  0.9533  0.0701 -0.6490
 5516TIP3   OH238182   0.757   6.379   7.991  0.1664  0.1442  0.7218
 5516TIP3    H138183   0.846   6.413   7.986 -0.2126  1.1798  0.8641
 5516TIP3    H238184   0.710   6.423   7.920 -0.8129  1.4123  2.1036
 5517TIP3   OH238185   0.710   4.257   6.052  0.0078 -0.1447 -0.1937
 5517TIP3    H138186   0.714   4.274   6.146  1.0469  2.1290 -0.5796
 5517TIP3    H238187   0.617   4.241   6.035 -0.7255  2.4831  0.8096
 5518TIP3   OH238188   0.175   1.456   1.658 -0.0001  0.2720  0.0338
 5518TIP3    H138189   0.102   1.518   1.665 -0.7230 -0.1427 -2.5858
 5518TIP3    H238190   0.180   1.415   1.744 -3.4040 -0.2070  0.1553
 5519TIP3   OH238191   4.210   3.150   6.082 -0.1358  0.6845  0.1794
 5519TIP3    H138192   4.264   3.156   6.003  0.4448  0.5059  0.5538
 5519TIP3    H238193   4.122   3.175   6.053  0.4700  2.7160 -0.1066
 5520TIP3   OH238194   3.471   3.059   6.414  0.0963  0.5400  0.3093
 5520TIP3    H138195   3.475   3.154   6.398  0.4382  0.2901 -1.2655
 5520TIP3    H238196   3.401   3.049   6.478 -2.7222  1.5773 -2.3570
 5521TIP3   OH238197   2.952   2.340   6.872 -0.0121 -0.8394  0.0866
 5521TIP3    H138198   3.000   2.262   6.900  1.3298  0.1930  0.8045
 5521TIP3    H238199   3.009   2.413   6.898 -1.3616  0.3855 -0.2979
 5522TIP3   OH238200   4.052   4.142   6.683  0.4458 -1.0451  0.2524
 5522TIP3    H138201   3.991   4.070   6.697 -1.6759  0.6739  0.2958
 5522TIP3    H238202   4.025   4.182   6.600  1.3323 -0.0917  0.3975
 5523TIP3   OH238203   2.067   1.876   6.589  0.1350  0.2652 -0.2793
 5523TIP3    H138204   2.018   1.952   6.558  1.0210  1.5969  1.4080
 5523TIP3    H238205   2.052   1.809   6.522 -0.7303  1.8830 -1.7958
 5524TIP3   OH238206   1.226   6.306   0.412 -0.4679 -0.1416  0.0732
 5524TIP3    H138207   1.312   6.266   0.426 -0.6021 -0.4445  0.0546
 5524TIP3    H238208   1.222   6.324   0.319 -0.4430 -0.1768  0.0652
 5525TIP3   OH238209   2.404   6.691   7.999  0.2027 -0.0804  0.2904
 5525TIP3    H138210   2.449   6.648   8.072  0.7751  0.2060  0.1127
 5525TIP3    H238211   2.326   6.730   8.039  1.0736  1.0275  0.9848
 5526TIP3   OH238212   1.221   3.971   7.559 -0.3041 -0.5685 -0.1325
 5526TIP3    H138213   1.177   3.947   7.640 -0.6303 -0.2344 -0.2097
 5526TIP3    H238214   1.309   3.998   7.587 -0.3754 -0.5704  0.0966
 5527TIP3   OH238215   1.617   5.158   0.461  0.2504 -0.0574 -0.2504
 5527TIP3    H138216   1.544   5.127   0.514  0.0509 -0.0015 -0.4895
 5527TIP3    H238217   1.659   5.079   0.428  0.5783 -0.1013  0.2606
 5528TIP3   OH238218   3.648   4.468   7.999 -0.0030 -0.4652 -0.2013
 5528TIP3    H138219   3.726   4.421   7.969  0.1927 -0.7769  0.7631
 5528TIP3    H238220   3.639   4.443   8.091 -0.4649  0.6183  0.0666
 5529TIP3   OH238221   1.721   6.149   7.304  0.2071 -0.1246 -0.0725
 5529TIP3    H138222   1.632   6.114   7.304  0.1309  0.0227  1.0935
 5529TIP3    H238223   1.721   6.213   7.375  1.4929 -0.7825  0.5447
 5530TIP3   OH238224   2.000   4.863   8.445 -0.4385  0.2685 -0.1319
 5530TIP3    H138225   1.986   4.808   8.368 -0.9804  0.3093 -0.0721
 5530TIP3    H238226   2.086   4.902   8.433 -1.2881  1.7878 -1.6589
 5531TIP3   OH238227   5.023   6.420   2.431  0.5678 -0.2583 -0.9286
 5531TIP3    H138228   5.101   6.423   2.376  1.6356 -0.1293  0.5391
 5531TIP3    H238229   4.977   6.502   2.413  1.2646  0.0979 -1.1197
 5532TIP3   OH238230   3.137   4.576   8.656 -0.1938  0.1286 -0.3964
 5532TIP3    H138231   3.157   4.669   8.662  0.6745 -0.0575 -0.2046
 5532TIP3    H238232   3.049   4.572   8.617  0.6357  0.9854 -2.5058
 5533TIP3   OH238233   4.633   0.728   0.102  0.2468  0.3965 -0.1184
 5533TIP3    H138234   4.618   0.813   0.145  2.5909 -0.0084  1.7316
 5533TIP3    H238235   4.552   0.679   0.118  0.0586  1.1972  1.6546
 5534TIP3   OH238236   6.394   3.005   0.267 -0.1497  0.0825 -0.1271
 5534TIP3    H138237   6.434   2.981   0.183  0.8825  0.2936  0.2860
 5534TIP3    H238238   6.330   3.072   0.244 -1.7359 -1.6767 -1.0486
 5535TIP3   OH238239   0.997   0.553   8.720 -0.3647 -0.5728  0.0074
 5535TIP3    H138240   1.028   0.618   8.657  1.1935  1.2492  2.4561
 5535TIP3    H238241   1.011   0.469   8.676  2.8057  0.4700 -1.2942
 5536TIP3   OH238242   1.463   6.760   0.538  0.2564  0.2105 -0.1399
 5536TIP3    H138243   1.558   6.757   0.527  0.8379  1.0190  3.5999
 5536TIP3    H238244   1.437   6.668   0.546  1.4980  0.0198  3.1900
 5537TIP3   OH238245   0.363   0.995   7.578  0.3519  0.0765 -0.2344
 5537TIP3    H138246   0.316   1.059   7.524  2.4804  1.5363 -0.4954
 5537TIP3    H238247   0.416   0.945   7.515  1.1902  0.3117  0.2601
 5538TIP3   OH238248   6.732   2.375   2.216  0.3404 -0.4554  0.3064
 5538TIP3    H138249   6.716   2.421   2.298 -0.5462 -1.1920  0.5661
 5538TIP3    H238250   6.749   2.285   2.242 -1.7281 -1.1033 -0.3888
 5539TIP3   OH238251   5.293   5.466   0.563  0.1522 -0.5292  0.1746
 5539TIP3    H138252   5.288   5.438   0.654  0.3910 -1.7520 -0.1778
 5539TIP3    H238253   5.381   5.503   0.554 -0.4073  1.0590  0.8201
 5540TIP3   OH238254   5.083   2.780   7.170  0.1520  0.5865 -0.0942
 5540TIP3    H138255   5.019   2.708   7.170 -0.2195  0.9112 -0.1111
 5540TIP3    H238256   5.147   2.755   7.103  0.3388 -0.0000  0.2962
 5541TIP3   OH238257   0.137   0.702   7.411 -0.0493 -0.1232  0.6133
 5541TIP3    H138258   0.198   0.775   7.421 -0.9859  0.6984  0.5677
 5541TIP3    H238259   0.122   0.696   7.316  1.9520 -2.0575  0.3405
 5542TIP3   OH238260   1.145   5.498   7.321  0.1143  0.2304  0.1836
 5542TIP3    H138261   1.231   5.537   7.339  0.1541  0.2596 -0.0560
 5542TIP3    H238262   1.085   5.541   7.382 -0.1263  1.7869 -1.0844
 5543TIP3   OH238263   5.499   5.308   7.586 -0.2097 -0.9380 -0.0728
 5543TIP3    H138264   5.486   5.372   7.516  1.7456 -1.2483 -0.7945
 5543TIP3    H238265   5.451   5.344   7.660 -0.5743  0.4922 -0.9604
 5544TIP3   OH238266   2.143   4.822   7.965 -0.0215  0.4786  0.0337
 5544TIP3    H138267   2.061   4.833   7.917  1.7872  1.7692 -3.0654
 5544TIP3    H238268   2.152   4.902   8.017  0.0137  1.1142 -0.9241
 5545TIP3   OH238269   1.184   3.492   6.703 -0.0917  0.7681 -0.0731
 5545TIP3    H138270   1.116   3.526   6.760 -0.3303 -0.3833  0.3400
 5545TIP3    H238271   1.221   3.418   6.750 -0.7259 -0.6222 -1.6464
 5546TIP3   OH238272   1.087   0.905   0.295 -0.0641  0.3775 -0.5870
 5546TIP3    H138273   0.998   0.937   0.282 -0.3053 -0.4504 -1.0510
 5546TIP3    H238274   1.086   0.864   0.382 -0.1149  0.4357 -0.5606
 5547TIP3   OH238275   2.650   5.142   7.714 -0.0961  0.2009  0.2497
 5547TIP3    H138276   2.635   5.124   7.621  1.2261  2.1530 -0.4144
 5547TIP3    H238277   2.563   5.145   7.753 -0.6109 -3.3073 -0.2857
 5548TIP3   OH238278   6.057   1.415   0.052  0.0427  0.2059 -0.9342
 5548TIP3    H138279   6.042   1.390  -0.039 -0.6081  1.8847 -1.3411
 5548TIP3    H238280   6.103   1.499   0.046 -0.5878  0.6600  0.2679
 5549TIP3   OH238281   3.605   0.402   0.783 -0.3703  0.4201 -0.6066
 5549TIP3    H138282   3.628   0.323   0.831  0.1183  1.1972  0.4856
 5549TIP3    H238283   3.510   0.410   0.794 -0.7398 -0.9880 -2.3032
 5550TIP3   OH238284   3.038   0.297   1.271 -0.4343 -0.0238 -0.2062
 5550TIP3    H138285   2.981   0.282   1.346  0.3759  0.3782  0.5024
 5550TIP3    H238286   3.015   0.385   1.241 -1.7808 -0.7156 -1.3684
 5551TIP3   OH238287   5.468   6.181   0.128 -0.2523  0.4811  0.4371
 5551TIP3    H138288   5.480   6.227   0.046  0.3736 -1.3549 -0.5531
 5551TIP3    H238289   5.437   6.248   0.189 -0.0756  2.0184 -1.0976
 5552TIP3   OH238290   5.100   5.456   7.128 -0.2562 -0.6018 -0.3408
 5552TIP3    H138291   5.018   5.424   7.164 -1.3019  2.4855  0.3557
 5552TIP3    H238292   5.075   5.502   7.048  1.0181 -0.8688 -0.9205
 5553TIP3   OH238293   6.059   2.555   6.329  0.3661 -0.2561 -0.3712
 5553TIP3    H138294   6.101   2.638   6.306  1.1294 -0.3328  0.7006
 5553TIP3    H238295   5.967   2.567   6.302  0.8086  0.3129 -1.7388
 5554TIP3   OH238296   0.162   5.800   7.047  0.2920 -0.4332 -0.9357
 5554TIP3    H138297   0.243   5.752   7.060  2.4579  2.4559 -2.5928
 5554TIP3    H238298   0.134   5.825   7.135  2.4259  0.2606 -0.3858
 5555TIP3   OH238299   6.223   5.877   8.211  0.3782 -0.1850  0.3597
 5555TIP3    H138300   6.259   5.879   8.123  0.7437 -0.9257  0.4831
 5555TIP3    H238301   6.299   5.874   8.269  0.1618  1.0436  0.7468
 5556TIP3   OH238302   5.290   1.835   8.348 -0.0882  0.0306  0.1515
 5556TIP3    H138303   5.372   1.804   8.388 -0.0236 -1.0722 -0.7747
 5556TIP3    H238304   5.319   1.899   8.282 -0.1766  1.6214  1.5812
 5557TIP3   OH238305   3.678   0.174   8.430 -0.3913 -0.1933 -0.2518
 5557TIP3    H138306   3.751   0.202   8.375  0.1467  1.0211  1.0317
 5557TIP3    H238307   3.710   0.096   8.475 -0.1825 -0.1196 -0.2714
 5558TIP3   OH238308   3.401   1.833   1.635  0.1827  0.0228 -0.1553
 5558TIP3    H138309   3.491   1.803   1.619  0.0740  0.4142 -1.6461
 5558TIP3    H238310   3.349   1.788   1.569 -0.7177 -0.0824  0.5995
 5559TIP3   OH238311   2.832   5.299   8.094 -0.2302  0.5860  0.6423
 5559TIP3    H138312   2.745   5.322   8.126 -0.6299  3.5163 -2.0332
 5559TIP3    H238313   2.824   5.208   8.066 -2.0441  0.4044  1.5974
 5560TIP3   OH238314   5.462   2.461   7.272 -0.1291  0.3224 -0.3456
 5560TIP3    H138315   5.554   2.443   7.288 -0.4515 -1.0388  0.1252
 5560TIP3    H238316   5.459   2.552   7.245  1.2657  0.6045  0.3994
 5561TIP3   OH238317   0.486   2.695   0.044  0.3881  0.0379  0.4914
 5561TIP3    H138318   0.473   2.784   0.079  0.2247  0.4262 -0.5228
 5561TIP3    H238319   0.404   2.650   0.064 -0.2631  0.6834 -0.6055
 5562TIP3   OH238320   2.644   3.131   6.697  0.2646  0.5907  0.5434
 5562TIP3    H138321   2.571   3.096   6.647 -1.0521  0.9893  2.1187
 5562TIP3    H238322   2.696   3.179   6.632 -1.6153  1.4750 -0.3961
 5563TIP3   OH238323   4.570   4.375   7.382  0.1110  0.3066  0.2457
 5563TIP3    H138324   4.605   4.287   7.391  0.3002  0.3780  0.2143
 5563TIP3    H238325   4.642   4.433   7.407  0.1801  0.4673 -0.3068
 5564TIP3   OH238326   5.978   4.386   7.512 -0.7690  0.2694  0.5963
 5564TIP3    H138327   5.897   4.352   7.473 -0.4418 -0.1754  0.2927
 5564TIP3    H238328   5.949   4.456   7.570 -1.4169 -0.2384  0.8958
 5565TIP3   OH238329   2.413   3.315   0.666 -0.4575  0.1894  0.4392
 5565TIP3    H138330   2.469   3.277   0.599 -0.7757  1.6547 -0.7129
 5565TIP3    H238331   2.438   3.408   0.669 -1.6632  0.5272  1.0656
 5566TIP3   OH238332   3.427   5.158   0.247  0.5060  0.4495 -1.1332
 5566TIP3    H138333   3.511   5.197   0.221  0.8698  0.7023  0.3696
 5566TIP3    H238334   3.431   5.154   0.342 -0.4551 -1.2137 -1.1362
 5567TIP3   OH238335   1.557   0.083   7.326  0.0217 -0.0429  0.3532
 5567TIP3    H138336   1.628   0.136   7.290 -0.4760  0.0107 -0.5819
 5567TIP3    H238337   1.601   0.011   7.371  0.7648  1.6457  2.5561
 5568TIP3   OH238338   3.070   3.617   5.791 -0.2324 -0.0348  0.0908
 5568TIP3    H138339   3.153   3.647   5.830 -0.1827  0.6300 -0.5122
 5568TIP3    H238340   3.066   3.524   5.813  1.1693 -0.3171 -0.7410
 5569TIP3   OH238341   3.763   0.371   8.708  0.1275  0.2102 -0.5184
 5569TIP3    H138342   3.674   0.336   8.711  0.2352 -0.1841 -1.4719
 5569TIP3    H238343   3.787   0.384   8.800 -1.8376  2.7522 -0.2443
 5570TIP3   OH238344   2.151   0.624   8.632 -0.0572 -0.0223 -0.4545
 5570TIP3    H138345   2.246   0.614   8.645 -0.1959 -2.1583 -0.7021
 5570TIP3    H238346   2.118   0.534   8.628 -2.1528  0.6788 -0.0638
 5571TIP3   OH238347   5.809   4.767   0.255 -0.2796 -0.1790  0.3611
 5571TIP3    H138348   5.852   4.696   0.303  3.2406  1.3968 -0.1681
 5571TIP3    H238349   5.798   4.733   0.166 -0.6000 -0.7514  0.6122
 5572TIP3   OH238350   3.350   0.831   8.196  0.2789 -0.1374 -0.7308
 5572TIP3    H138351   3.340   0.885   8.275 -1.2428 -0.8937 -0.3773
 5572TIP3    H238352   3.364   0.742   8.229 -1.5173 -0.6534 -1.2896
 5573TIP3   OH238353   5.154   1.691   1.129 -0.3516 -0.1889 -0.0040
 5573TIP3    H138354   5.110   1.723   1.051 -0.0488 -1.1488 -0.5839
 5573TIP3    H238355   5.095   1.713   1.201 -0.1399  1.6684 -0.3658
 5574TIP3   OH238356   0.061   2.234   8.576 -0.0813 -0.2485  0.3857
 5574TIP3    H138357   0.053   2.141   8.552  1.6417 -0.4212  0.3056
 5574TIP3    H238358   0.149   2.241   8.614 -0.8429  1.0261  2.0227
 5575TIP3   OH238359   2.699   1.955   0.874  0.2997 -0.3743  0.7783
 5575TIP3    H138360   2.763   1.897   0.915 -0.6965 -2.2606 -0.2015
 5575TIP3    H238361   2.645   1.986   0.947  0.7481 -0.8086  1.3020
 5576TIP3   OH238362   6.683   3.413   0.342 -0.0764  0.1502 -0.1811
 5576TIP3    H138363   6.756   3.424   0.402 -0.2685 -1.3461  0.3819
 5576TIP3    H238364   6.607   3.397   0.399 -0.5612  0.2361 -0.7867
 5577TIP3   OH238365   1.224   5.760   6.160 -0.1030  0.2024  0.0636
 5577TIP3    H138366   1.172   5.715   6.094 -1.1678 -0.7959  1.5485
 5577TIP3    H238367   1.278   5.822   6.109 -2.1589  0.7466 -1.5748
 5578TIP3   OH238368   2.146   2.723   0.787 -0.2146 -1.3359  0.2311
 5578TIP3    H138369   2.079   2.732   0.719  0.3989 -1.9126 -0.4623
 5578TIP3    H238370   2.187   2.638   0.770  1.8894 -0.2513 -0.4491
 5579TIP3   OH238371   2.865   4.746   6.077 -0.3757 -0.1658  0.4913
 5579TIP3    H138372   2.948   4.789   6.055 -0.1954 -0.0309  1.3970
 5579TIP3    H238373   2.801   4.817   6.080 -0.7853 -0.4234 -1.3916
 5580TIP3   OH238374   4.874   5.657   8.108 -0.3497 -0.2979  0.2893
 5580TIP3    H138375   4.786   5.665   8.145  0.2751 -1.2949  2.1248
 5580TIP3    H238376   4.916   5.589   8.161  2.2890  1.7427  1.0153
 5581TIP3   OH238377   4.531   3.943   8.030  0.0570  0.1739  0.1575
 5581TIP3    H138378   4.555   3.864   7.983 -0.1323  0.1150  0.1638
 5581TIP3    H238379   4.442   3.928   8.061  0.1977  0.1905  0.5762
 5582TIP3   OH238380   2.079   5.328   0.441  0.2792 -0.0821  0.1560
 5582TIP3    H138381   2.086   5.402   0.502 -0.3096  0.8021 -0.8286
 5582TIP3    H238382   1.998   5.345   0.392 -0.6828 -2.1436  0.9031
 5583TIP3   OH238383   6.005   2.206   8.715 -0.0094 -0.1252  0.1960
 5583TIP3    H138384   5.932   2.186   8.774 -0.2765 -0.4821 -0.2499
 5583TIP3    H238385   6.081   2.211   8.773 -0.6408  2.0825  0.9443
 5584TIP3   OH238386   6.615   0.869   8.172 -0.0756  0.8125 -0.5793
 5584TIP3    H138387   6.544   0.810   8.199  0.0550  1.0911  0.3781
 5584TIP3    H238388   6.692   0.813   8.165 -0.0914  0.7558 -0.2912
 5585TIP3   OH238389   3.106   6.840   0.081  0.1774 -0.1528  0.5855
 5585TIP3    H138390   3.195   6.834   0.117  0.7343 -0.0885 -0.7207
 5585TIP3    H238391   3.077   6.749   0.075  0.2715 -0.1948  0.7469
 5586TIP3   OH238392   2.215   3.351   8.076 -0.0192  0.3186  0.4225
 5586TIP3    H138393   2.205   3.438   8.036 -0.1452 -0.3713 -1.1115
 5586TIP3    H238394   2.300   3.354   8.119 -0.0315  1.2087  0.4041
 5587TIP3   OH238395   4.840   3.035   1.417 -0.1578  0.0182  0.3192
 5587TIP3    H138396   4.874   3.001   1.500 -0.2469 -0.5818  0.1130
 5587TIP3    H238397   4.796   2.960   1.377  0.6002  0.0796 -0.6472
 5588TIP3   OH238398   1.721   0.455   0.732  0.7739  0.4467  0.0928
 5588TIP3    H138399   1.723   0.368   0.692  0.1137  0.7634 -0.6685
 5588TIP3    H238400   1.759   0.512   0.665  3.2755  0.4598  1.4353
 5589TIP3   OH238401   3.104   2.833   6.626  0.0647 -0.0261  0.0101
 5589TIP3    H138402   3.090   2.927   6.634  1.9686  0.3427 -0.5819
 5589TIP3    H238403   3.186   2.816   6.671  0.6206 -1.1045 -1.3225
 5590TIP3   OH238404   2.139   3.509   6.679 -0.3687  0.1518 -0.0454
 5590TIP3    H138405   2.145   3.542   6.769 -0.8453  2.4910 -0.8087
 5590TIP3    H238406   2.228   3.519   6.644  0.4737 -3.0552  0.7924
 5591TIP3   OH238407   1.705   2.034   6.543  0.5958  0.2911  0.4953
 5591TIP3    H138408   1.679   1.942   6.539  0.9883  0.2080 -0.6341
 5591TIP3    H238409   1.794   2.035   6.508  1.2233  0.8996  2.0445
 5592TIP3   OH238410   3.765   4.034   8.096 -0.4696  0.1325 -0.0452
 5592TIP3    H138411   3.734   4.051   8.185 -0.7384  0.2988 -0.1696
 5592TIP3    H238412   3.848   3.988   8.108 -1.0251 -0.8163  0.2911
 5593TIP3   OH238413   1.740   2.000   0.740  0.2844  0.1783 -0.2272
 5593TIP3    H138414   1.776   1.993   0.828 -0.9844  0.4136  0.3286
 5593TIP3    H238415   1.731   1.910   0.710  1.2825  0.1156 -0.3622
 5594TIP3   OH238416   5.282   2.735   6.959 -0.0401  0.6830 -0.4019
 5594TIP3    H138417   5.361   2.766   7.004  0.5485 -0.6936 -0.4272
 5594TIP3    H238418   5.314   2.698   6.877 -0.2934 -2.2504  0.6790
 5595TIP3   OH238419   1.502   5.407   5.964  0.6482  0.1822 -0.5411
 5595TIP3    H138420   1.446   5.475   5.928  1.0749 -0.4711 -2.5674
 5595TIP3    H238421   1.563   5.385   5.893  1.7541 -0.9719  0.6961
 5596TIP3   OH238422   4.526   4.401   8.374 -0.0402 -0.8368  0.2991
 5596TIP3    H138423   4.461   4.335   8.351 -1.0507  0.0465  0.5285
 5596TIP3    H238424   4.603   4.351   8.401  0.5156 -1.9443 -2.8922
 5597TIP3   OH238425   4.461   6.687   8.064  0.0896 -0.1136  0.0279
 5597TIP3    H138426   4.483   6.597   8.039 -0.6236 -0.0779 -0.7547
 5597TIP3    H238427   4.546   6.731   8.071  0.3552 -0.2256 -1.9994
 5598TIP3   OH238428   0.668   6.316   1.476  0.3324  0.1290  0.4345
 5598TIP3    H138429   0.739   6.365   1.435  1.7125 -1.6192  0.6005
 5598TIP3    H238430   0.632   6.376   1.541  1.0428  1.3730 -0.2772
 5599TIP3   OH238431   1.736   2.848   0.605 -0.0194  0.0420  0.1161
 5599TIP3    H138432   1.719   2.904   0.681 -1.5094  1.1758 -0.9880
 5599TIP3    H238433   1.700   2.897   0.531  0.1038 -1.6731 -1.1330
 5600TIP3   OH238434   5.086   6.594   0.868 -0.0815  0.1395 -0.0262
 5600TIP3    H138435   5.064   6.640   0.949 -1.2257  0.0025 -0.2484
 5600TIP3    H238436   5.112   6.506   0.897 -1.1726 -0.1378  0.1530
 5601TIP3   OH238437   4.241   3.043   7.161  0.8344  0.5017  0.5337
 5601TIP3    H138438   4.205   3.028   7.074  0.9489 -0.9891  0.7284
 5601TIP3    H238439   4.195   3.122   7.192 -2.0089 -1.0203  0.5814
 5602TIP3   OH238440   0.936   0.705   7.884  0.2859  0.1190 -0.5072
 5602TIP3    H138441   0.997   0.631   7.890 -0.5190 -0.8148 -2.7284
 5602TIP3    H238442   0.957   0.746   7.800 -0.9742  0.8633 -0.4785
 5603TIP3   OH238443   6.265   1.238   0.896 -0.1018 -0.0295 -0.0074
 5603TIP3    H138444   6.177   1.201   0.903 -0.1491  0.1533  0.3997
 5603TIP3    H238445   6.298   1.239   0.986  0.5771 -0.7328 -0.2415
 5604TIP3   OH238446   5.446   2.654   0.812  0.2409 -0.0307  0.1604
 5604TIP3    H138447   5.368   2.600   0.821  0.8241 -0.5803  3.2099
 5604TIP3    H238448   5.413   2.744   0.813 -0.4091 -0.2597  1.3696
 5605TIP3   OH238449   3.307   1.259   1.824  0.6594 -0.3302  0.7818
 5605TIP3    H138450   3.365   1.190   1.792  0.6646  0.5040 -1.1929
 5605TIP3    H238451   3.326   1.265   1.918  1.4280 -2.2384  0.7965
 5606TIP3   OH238452   5.919   0.901   8.006 -0.0300 -0.4273 -0.3512
 5606TIP3    H138453   5.977   0.949   7.946  1.3031 -1.1355  0.3337
 5606TIP3    H238454   5.857   0.967   8.038  2.4835  1.2014  1.4939
 5607TIP3   OH238455   3.462   5.882   7.205 -0.0888  0.1865 -0.3570
 5607TIP3    H138456   3.533   5.930   7.247 -0.2853 -0.7133  1.0704
 5607TIP3    H238457   3.447   5.928   7.122  1.0219  1.3854  0.0830
 5608TIP3   OH238458   3.901   4.892   6.424 -0.8336 -0.4703  0.2094
 5608TIP3    H138459   3.896   4.839   6.345 -0.7345 -0.2358  0.0421
 5608TIP3    H238460   3.955   4.968   6.399  0.7322 -1.2632  0.9951
 5609TIP3   OH238461   1.647   0.797   6.693  0.5560  0.1021 -0.2806
 5609TIP3    H138462   1.714   0.814   6.627  2.8593  1.4755  2.2092
 5609TIP3    H238463   1.604   0.882   6.707 -0.9601 -0.5093 -1.0178
 5610TIP3   OH238464   3.440   6.564   0.235 -0.1120 -0.0650  0.3432
 5610TIP3    H138465   3.498   6.541   0.163  0.8846 -0.8951  1.3762
 5610TIP3    H238466   3.460   6.656   0.253  0.9273 -0.3393  0.6914
 5611TIP3   OH238467   0.858   1.892   7.671 -0.1680  0.0544  0.4889
 5611TIP3    H138468   0.792   1.897   7.740 -0.2732 -0.3128  0.4148
 5611TIP3    H238469   0.826   1.823   7.612 -1.6015  2.2493 -1.5111
 5612TIP3   OH238470   5.976   3.482   1.828  0.4759 -0.1006  0.1329
 5612TIP3    H138471   6.044   3.476   1.761  2.7767  2.0117  2.0779
 5612TIP3    H238472   5.991   3.406   1.883 -0.5901 -1.1415 -0.9673
 5613TIP3   OH238473   6.362   0.131   6.632 -0.6697  0.2774 -0.4822
 5613TIP3    H138474   6.445   0.179   6.635 -0.1483 -0.4446 -2.0656
 5613TIP3    H238475   6.345   0.121   6.538 -1.0748 -2.0784 -0.1927
 5614TIP3   OH238476   3.247   3.415   0.684  0.5315 -0.3353 -0.2549
 5614TIP3    H138477   3.263   3.409   0.590  1.8606 -0.7191 -0.0173
 5614TIP3    H238478   3.330   3.389   0.724  0.2930  0.7776  1.0171
 5615TIP3   OH238479   3.517   3.333   7.607 -0.8278 -0.2589  0.4457
 5615TIP3    H138480   3.560   3.374   7.531 -1.3910 -0.0860  0.2185
 5615TIP3    H238481   3.425   3.326   7.582 -0.6085 -2.6102  0.0756
 5616TIP3   OH238482   1.336   2.406   0.388 -0.0180  0.1404  0.2121
 5616TIP3    H138483   1.365   2.476   0.446  0.0767 -1.2170  1.8874
 5616TIP3    H238484   1.405   2.400   0.321  0.6036  0.7912  0.7789
 5617TIP3   OH238485   1.620   6.600   1.353 -0.3979  0.1800  0.5878
 5617TIP3    H138486   1.661   6.514   1.366 -1.6762 -0.5113  0.1941
 5617TIP3    H238487   1.656   6.631   1.270 -2.6911 -1.7199 -1.2834
 5618TIP3   OH238488   0.526   4.773   0.981  0.6436  0.1450 -0.2051
 5618TIP3    H138489   0.605   4.764   1.034 -0.9355 -0.9295  2.1095
 5618TIP3    H238490   0.490   4.858   1.004 -0.0033 -0.2874  0.4005
 5619TIP3   OH238491   3.098   1.802   7.125  0.3079  0.0626  0.2146
 5619TIP3    H138492   3.185   1.816   7.164  1.0917 -0.5236 -1.2305
 5619TIP3    H238493   3.040   1.858   7.176  1.4577  0.1817  1.4735
 5620TIP3   OH238494   3.678   0.031   6.978 -0.0303  0.6287  0.2812
 5620TIP3    H138495   3.617  -0.039   6.953  0.4744  0.3961 -0.3464
 5620TIP3    H238496   3.653   0.105   6.923  1.0583  0.1277 -0.9598
 5621TIP3   OH238497   1.505   4.172   6.812 -0.5429  0.0687 -0.6720
 5621TIP3    H138498   1.520   4.084   6.847  0.2837 -0.1921 -1.6641
 5621TIP3    H238499   1.513   4.163   6.717 -0.5226  1.2078 -0.7978
 5622TIP3   OH238500   6.402   2.074   7.734  0.2087  0.0858  0.1103
 5622TIP3    H138501   6.460   2.077   7.811  0.8179  1.1516 -0.3587
 5622TIP3    H238502   6.434   2.145   7.678 -0.9345  0.0441 -0.6233
 5623TIP3   OH238503   4.999   0.035   1.782 -0.3024  0.4224 -0.1749
 5623TIP3    H138504   5.084   0.026   1.738 -1.3756  0.0096 -2.2575
 5623TIP3    H238505   5.003  -0.027   1.855  1.0193  0.1068 -0.4921
 5624TIP3   OH238506   5.789   2.102   0.142 -0.0250 -0.0442  0.0239
 5624TIP3    H138507   5.760   2.081   0.230 -1.1589  2.0107  0.1995
 5624TIP3    H238508   5.787   2.019   0.095 -2.8094 -0.6395  1.0175
 5625TIP3   OH238509   3.877   1.705   0.085  0.2996 -0.3373 -0.4849
 5625TIP3    H138510   3.926   1.623   0.092  1.0044  0.0251 -1.0900
 5625TIP3    H238511   3.882   1.728  -0.008  2.8601  2.0450  0.1502
 5626TIP3   OH238512   3.360   4.080   0.828  0.2711 -0.2502 -0.4868
 5626TIP3    H138513   3.333   4.095   0.919 -0.1530 -0.5028 -0.5668
 5626TIP3    H238514   3.438   4.026   0.835  0.8584  0.6106 -0.2442
 5627TIP3   OH238515   5.223   5.930   0.315 -0.1319 -0.3713  0.1880
 5627TIP3    H138516   5.306   5.956   0.355 -0.1020  1.1838 -0.8104
 5627TIP3    H238517   5.205   5.843   0.351  3.1864 -1.8984 -1.4703
 5628TIP3   OH238518   2.826   5.203   0.760 -0.0644  0.0570 -0.0312
 5628TIP3    H138519   2.794   5.238   0.843  0.1326  1.1806 -0.4140
 5628TIP3    H238520   2.782   5.118   0.751 -2.4793  1.2385 -0.2389
 5629TIP3   OH238521   6.690   5.480   6.798  0.1432 -0.1242  0.1706
 5629TIP3    H138522   6.781   5.487   6.769  0.1843 -1.2015  0.0105
 5629TIP3    H238523   6.688   5.522   6.884  0.4314  1.3757 -0.5248
 5630TIP3   OH238524   0.357   0.591   0.734  0.4833 -0.4655 -0.1242
 5630TIP3    H138525   0.326   0.675   0.699  1.5269 -0.6457 -1.5696
 5630TIP3    H238526   0.370   0.607   0.827  0.4898  0.9328 -0.3420
 5631TIP3   OH238527   1.960   5.051   7.532 -0.4559  0.0009 -0.3625
 5631TIP3    H138528   1.977   4.958   7.516  2.2602  0.7150 -2.3969
 5631TIP3    H238529   1.983   5.094   7.450 -0.1728  2.6101  0.9724
 5632TIP3   OH238530   5.144   5.570   7.359  0.3888 -0.0394 -0.4725
 5632TIP3    H138531   5.076   5.543   7.420  0.2264  2.4619  0.5605
 5632TIP3    H238532   5.112   5.542   7.273 -0.9951 -0.6118  0.2034
 5633TIP3   OH238533   1.860   0.266   0.064  0.2361  0.1848 -0.3738
 5633TIP3    H138534   1.920   0.290  -0.006 -0.6636 -0.7154 -1.4917
 5633TIP3    H238535   1.914   0.265   0.143  1.1218  1.9236 -0.9050
 5634TIP3   OH238536   3.657   4.065   8.620  0.2113 -0.1900  0.0033
 5634TIP3    H138537   3.683   4.076   8.712 -0.0862  1.8022 -0.1026
 5634TIP3    H238538   3.735   4.031   8.577  0.7964  0.1787  0.7431
 5635TIP3   OH238539   2.740   1.089   8.679  0.4619  0.5591 -0.9036
 5635TIP3    H138540   2.772   1.040   8.755 -1.5591 -0.9808 -0.9682
 5635TIP3    H238541   2.819   1.126   8.639  1.6254  1.2075  1.7688
 5636TIP3   OH238542   3.623   5.540   0.351  0.2247  0.2272  0.1824
 5636TIP3    H138543   3.589   5.475   0.413  3.1758 -2.9650 -1.1713
 5636TIP3    H238544   3.660   5.609   0.406 -1.2334 -0.2107  1.7872
 5637TIP3   OH238545   2.266   0.273   0.389  0.3962  0.1236  0.2525
 5637TIP3    H138546   2.226   0.231   0.465  1.2359 -0.4965  0.3702
 5637TIP3    H238547   2.300   0.356   0.424  0.7297 -0.1326  0.5476
 5638TIP3   OH238548   0.780   5.906   0.872 -0.4425 -0.2811  0.5614
 5638TIP3    H138549   0.809   5.881   0.960  1.3139 -0.2853  0.0182
 5638TIP3    H238550   0.744   5.994   0.884 -0.4530 -0.3799  1.3300
 5639TIP3   OH238551   0.813   4.584   7.849 -0.4288  0.4755 -0.1060
 5639TIP3    H138552   0.883   4.636   7.890 -0.7547  0.9959 -0.1950
 5639TIP3    H238553   0.857   4.534   7.781 -0.1679  0.9201 -0.2676
 5640TIP3   OH238554   4.708   3.023   6.498  0.1048 -0.2118  0.0069
 5640TIP3    H138555   4.770   2.989   6.563  1.0988  0.0600 -0.7605
 5640TIP3    H238556   4.642   3.069   6.549 -0.0343 -1.3979  0.9129
 5641TIP3   OH238557   3.257   6.727   6.198  0.1328  0.0323  0.8237
 5641TIP3    H138558   3.166   6.740   6.224 -0.6953 -0.4495 -1.5904
 5641TIP3    H238559   3.307   6.779   6.260 -1.8655  1.2502  1.5189
 5642TIP3   OH238560   4.500   2.223   7.823  0.3552 -0.0452 -0.2707
 5642TIP3    H138561   4.451   2.271   7.891 -0.6754 -0.7676 -0.4813
 5642TIP3    H238562   4.583   2.201   7.865  0.0982  0.3210  0.4498
 5643TIP3   OH238563   1.800   0.249   6.624  0.0601 -0.4494  0.5564
 5643TIP3    H138564   1.854   0.230   6.700 -1.4326 -0.2859  1.7093
 5643TIP3    H238565   1.757   0.332   6.645  0.3446  0.0854 -0.8842
 5644TIP3   OH238566   5.484   1.303   0.023  0.0855  0.0355  0.1932
 5644TIP3    H138567   5.450   1.261   0.102 -0.9106  0.9858  0.2841
 5644TIP3    H238568   5.408   1.317  -0.033  0.4404  1.3626  0.0030
 5645TIP3   OH238569   3.117   1.685   0.568  0.6677  0.2708 -0.1113
 5645TIP3    H138570   3.118   1.605   0.516  1.3949 -0.1877  0.5877
 5645TIP3    H238571   3.030   1.686   0.608  0.9551 -0.6648  0.5941
 5646TIP3   OH238572   5.752   2.318   6.981  0.5849 -0.0173  0.1640
 5646TIP3    H138573   5.794   2.235   7.001 -0.9142 -1.1605 -1.2432
 5646TIP3    H238574   5.784   2.341   6.894  0.3636  0.4772  0.2081
 5647TIP3   OH238575   6.688   2.254   8.275 -0.0476 -0.4720  0.0452
 5647TIP3    H138576   6.782   2.254   8.295 -0.2354 -0.5155  0.9644
 5647TIP3    H238577   6.648   2.208   8.348 -0.6730 -1.5572 -0.9383
 5648TIP3   OH238578   3.919   4.301   8.250  0.2638  0.1050  0.6019
 5648TIP3    H138579   3.974   4.316   8.173 -0.0147  1.7768  0.6793
 5648TIP3    H238580   3.869   4.382   8.259 -1.8263 -1.1465  0.8677
 5649TIP3   OH238581   6.194   2.633   0.721  0.2384  0.3321 -0.0505
 5649TIP3    H138582   6.128   2.578   0.680 -0.7886 -0.1791  2.1809
 5649TIP3    H238583   6.271   2.623   0.665 -0.5644 -1.6887 -0.8680
 5650TIP3   OH238584   6.538   5.529   0.844  0.5126  0.0561 -0.0222
 5650TIP3    H138585   6.621   5.543   0.798  1.3917 -1.3220  1.0413
 5650TIP3    H238586   6.556   5.455   0.903 -1.3715 -0.0295  0.5053
 5651TIP3   OH238587   5.378   3.363   6.877  0.1582  0.5385 -0.0662
 5651TIP3    H138588   5.442   3.431   6.859 -0.7695  1.7961  1.1660
 5651TIP3    H238589   5.298   3.393   6.834 -0.6555  1.0203  1.6762
 5652TIP3   OH238590   4.488   4.063   0.864 -0.1068 -0.2388  0.0631
 5652TIP3    H138591   4.393   4.060   0.872 -0.1866 -3.3534 -0.9099
 5652TIP3    H238592   4.503   4.086   0.772  0.0484 -0.8212 -0.0587
 5653TIP3   OH238593   3.746   5.040   0.274 -0.1246 -0.4412 -0.6401
 5653TIP3    H138594   3.781   5.125   0.244 -0.8188 -0.3307 -1.1723
 5653TIP3    H238595   3.823   4.991   0.302  0.2100  0.6831  0.5101
 5654TIP3   OH238596   3.671   6.336   0.258  0.1669  0.0629 -0.5089
 5654TIP3    H138597   3.746   6.373   0.213 -0.5197  0.4282 -1.3894
 5654TIP3    H238598   3.655   6.395   0.331  0.6913  0.0200 -0.3562
 5655TIP3   OH238599   1.070   0.570   8.318  0.0274 -0.3489 -0.0877
 5655TIP3    H138600   1.103   0.617   8.394  0.1095  1.2529 -1.0820
 5655TIP3    H238601   0.975   0.582   8.322  0.1486  1.1889 -1.1196
 5656TIP3   OH238602   6.364   4.329   0.416  0.3038 -0.2203 -0.2124
 5656TIP3    H138603   6.308   4.399   0.383  1.9991  0.4189 -1.8985
 5656TIP3    H238604   6.356   4.259   0.350 -1.1447 -1.5806  1.3033
 5657TIP3   OH238605   3.237   3.955   0.306 -0.5067 -0.2005  0.0388
 5657TIP3    H138606   3.222   3.964   0.400  1.1516  0.4758  0.2762
 5657TIP3    H238607   3.201   4.035   0.268  1.3922  0.9413  0.4848
 5658TIP3   OH238608   5.108   5.925   6.219  0.2781 -0.0439 -0.3252
 5658TIP3    H138609   5.164   5.847   6.218  2.3778  1.3194  1.1657
 5658TIP3    H238610   5.048   5.911   6.292  2.4037  0.7542  1.7118
 5659TIP3   OH238611   6.499   3.656   7.958 -0.0522  0.3271  0.9156
 5659TIP3    H138612   6.493   3.645   7.863 -0.2957  0.2359  0.9400
 5659TIP3    H238613   6.584   3.698   7.972 -0.0704  0.4562  0.6470
 5660TIP3   OH238614   5.599   4.369   0.497 -0.6586  0.0616  0.7377
 5660TIP3    H138615   5.680   4.399   0.455 -1.6043  0.7395 -0.6388
 5660TIP3    H238616   5.532   4.374   0.429 -1.8148 -0.8102  1.7595
 5661TIP3   OH238617   4.227   0.226   2.391 -0.1661  0.2324  0.5679
 5661TIP3    H138618   4.163   0.242   2.323  0.1241  0.3120  0.3095
 5661TIP3    H238619   4.263   0.313   2.411 -0.2662  0.2122  0.8365
 5662TIP3   OH238620   4.100   4.063   6.061 -0.6271 -0.3559 -0.1029
 5662TIP3    H138621   4.022   4.008   6.059 -0.7532 -0.1976  0.3160
 5662TIP3    H238622   4.116   4.086   5.970 -1.8910  0.7620 -0.0743
 5663TIP3   OH238623   3.160   0.961   1.205 -0.5717 -0.4073  0.4805
 5663TIP3    H138624   3.083   1.005   1.240  0.5354  0.9660  1.2736
 5663TIP3    H238625   3.124   0.892   1.148 -2.3675 -0.1904  1.2798
 5664TIP3   OH238626   5.060   6.241   1.227  0.5148 -0.1324  0.1529
 5664TIP3    H138627   4.986   6.182   1.240 -0.2773  0.6308 -0.6920
 5664TIP3    H238628   5.125   6.214   1.292  0.4845 -2.4028 -0.6952
 5665TIP3   OH238629   3.421   6.041   7.742 -0.9730  0.2162 -0.5296
 5665TIP3    H138630   3.492   5.977   7.753 -0.2936  1.1374  0.7988
 5665TIP3    H238631   3.350   5.992   7.703 -1.2996 -1.9852  2.4876
 5666TIP3   OH238632   3.523   0.305   1.314  0.0187  0.0761  0.0123
 5666TIP3    H138633   3.540   0.213   1.293  0.8046  0.2961 -0.3426
 5666TIP3    H238634   3.610   0.344   1.321 -0.2935  0.6672  0.7450
 5667TIP3   OH238635   1.592   4.939   1.636  0.1564 -0.1291 -0.0225
 5667TIP3    H138636   1.549   4.981   1.710  0.9774 -0.0418  0.4217
 5667TIP3    H238637   1.561   4.849   1.637  1.3144 -0.5493  1.3791
 5668TIP3   OH238638   3.120   6.567   2.242 -0.2208 -0.3597 -0.3323
 5668TIP3    H138639   3.030   6.592   2.264 -0.1366  0.3442 -0.7281
 5668TIP3    H238640   3.118   6.472   2.236 -0.9708 -0.3427 -0.4538
 5669TIP3   OH238641   5.776   3.703   8.755  0.0072 -0.3824 -0.7866
 5669TIP3    H138642   5.822   3.747   8.827 -0.1397 -1.1275 -0.2337
 5669TIP3    H238643   5.829   3.723   8.677  0.0924  0.5347 -0.5014
 5670TIP3   OH238644   3.602   5.276   0.878 -0.4197 -0.2997 -0.5723
 5670TIP3    H138645   3.588   5.183   0.861  1.9552 -1.2810  1.9445
 5670TIP3    H238646   3.611   5.316   0.792 -1.8278 -2.3168 -1.7277
 5671TIP3   OH238647   2.833   4.426   0.022  0.6717  0.0644 -0.1691
 5671TIP3    H138648   2.877   4.361  -0.032  0.0533  0.6452 -1.4037
 5671TIP3    H238649   2.745   4.434  -0.016  0.8916  1.9593 -0.3841
 5672TIP3   OH238650   2.077   0.124   7.257  0.2262 -0.1135 -0.0943
 5672TIP3    H138651   2.148   0.065   7.281  0.1076  0.1329  0.9340
 5672TIP3    H238652   2.118   0.192   7.204  0.6432 -0.2899  0.0018
 5673TIP3   OH238653   0.989   6.636   1.066  0.4208  0.6999 -0.9711
 5673TIP3    H138654   0.940   6.564   1.025 -0.5632  1.9859 -2.1479
 5673TIP3    H238655   0.930   6.711   1.060  1.7600  1.8242 -0.5428
 5674TIP3   OH238656   5.018   3.963   7.860 -0.4988  0.2355 -0.0800
 5674TIP3    H138657   4.941   4.014   7.885 -1.6120 -0.5720 -1.6733
 5674TIP3    H238658   4.986   3.873   7.854  0.9014 -0.3285  0.5273
 5675TIP3   OH238659   1.775   6.024   8.351  0.0256 -0.4706  0.3729
 5675TIP3    H138660   1.782   6.098   8.412  2.7138 -0.5546  0.2450
 5675TIP3    H238661   1.773   5.947   8.408 -0.9268 -0.4149  0.4347
 5676TIP3   OH238662   1.473   6.071   7.407 -0.3313  0.4922  0.2812
 5676TIP3    H138663   1.397   6.065   7.464  0.1085  0.1521  0.8388
 5676TIP3    H238664   1.463   5.997   7.346 -0.2406  0.1943  0.6194
 5677TIP3   OH238665   5.840   5.805   0.578  0.6215 -0.3161  0.2593
 5677TIP3    H138666   5.858   5.760   0.495  1.4910 -1.9838  1.2807
 5677TIP3    H238667   5.746   5.818   0.579  0.5188 -0.8829 -0.7077
 5678TIP3   OH238668   2.395   1.971   7.499 -0.2263 -0.1703  0.1601
 5678TIP3    H138669   2.327   2.038   7.509  0.0402 -0.1358  2.1606
 5678TIP3    H238670   2.358   1.892   7.539  0.5248 -0.4242  0.3775
 5679TIP3   OH238671   1.670   3.464   8.650 -0.1657  0.1587  0.7060
 5679TIP3    H138672   1.676   3.544   8.598 -1.0082  0.2537  0.7503
 5679TIP3    H238673   1.744   3.411   8.619  0.1316  0.7552  0.3572
 5680TIP3   OH238674   6.442   4.467   1.975  0.3311 -0.8438 -0.3850
 5680TIP3    H138675   6.391   4.524   1.919  2.7011  0.8758 -0.9373
 5680TIP3    H238676   6.533   4.493   1.960  1.4189 -3.6534  0.6139
 5681TIP3   OH238677   6.093   0.436   8.161 -0.0651 -0.5369 -0.3563
 5681TIP3    H138678   6.067   0.513   8.111  0.9366  0.9769  1.3212
 5681TIP3    H238679   6.150   0.387   8.102 -0.5830  0.0876 -1.3968
 5682TIP3   OH238680   3.064   0.790   0.978 -0.7108 -0.6438  0.4092
 5682TIP3    H138681   3.045   0.859   0.913  0.4880  0.1546  0.8779
 5682TIP3    H238682   3.129   0.735   0.935  0.4043  0.1278  1.0526
 5683TIP3   OH238683   5.033   2.871   0.537 -0.6902  0.0367  0.3949
 5683TIP3    H138684   4.942   2.846   0.518 -0.9246  0.9032  0.2992
 5683TIP3    H238685   5.063   2.912   0.456 -0.0902 -0.5560  0.3103
 5684TIP3   OH238686   3.549   0.250   1.937 -0.1938  0.4937 -0.1359
 5684TIP3    H138687   3.461   0.221   1.915 -0.9046  1.1914  1.6255
 5684TIP3    H238688   3.559   0.334   1.893 -0.9273  1.0436  0.7239
 5685TIP3   OH238689   3.169   3.857   1.722  0.0320 -0.0979 -0.3619
 5685TIP3    H138690   3.259   3.878   1.749  0.4991 -1.4339 -0.8321
 5685TIP3    H238691   3.120   3.853   1.804  0.4529  0.3667 -0.0796
 5686TIP3   OH238692   0.187   4.637   0.039  0.3810  0.1330 -0.1020
 5686TIP3    H138693   0.157   4.560   0.086  1.3338 -0.1661  0.0257
 5686TIP3    H238694   0.281   4.640   0.054  0.1778  2.1793  1.1798
 5687TIP3   OH238695   2.903   0.941   0.405  0.1604 -0.0187 -0.2089
 5687TIP3    H138696   2.897   0.852   0.439 -1.6368 -0.4584 -1.5299
 5687TIP3    H238697   2.885   0.997   0.480 -1.2326 -0.8763  0.1214
 5688TIP3   OH238698   5.493   5.101   7.901 -0.0065  0.0001 -0.0985
 5688TIP3    H138699   5.426   5.033   7.906  1.0437 -1.0442  0.2683
 5688TIP3    H238700   5.448   5.181   7.930 -0.9834 -0.7474  0.5167
 5689TIP3   OH238701   6.219   0.026   8.593 -0.1437 -0.4059  0.2397
 5689TIP3    H138702   6.129   0.030   8.560  0.1430  0.3648 -0.4705
 5689TIP3    H238703   6.274   0.035   8.515  0.5527  1.1826  0.8787
 5690TIP3   OH238704   2.975   4.571   0.195 -0.3216 -0.0902  0.2972
 5690TIP3    H138705   2.927   4.500   0.154  0.6574 -1.6016  1.6295
 5690TIP3    H238706   3.017   4.617   0.123  0.5870 -2.0697 -0.4932
 5691TIP3   OH238707   6.693   2.274   0.746 -0.6075  0.2528  0.6605
 5691TIP3    H138708   6.683   2.207   0.813 -1.2803  0.5575  0.8718
 5691TIP3    H238709   6.774   2.250   0.700 -0.5011 -0.3351  1.1414
 5692TIP3   OH238710   0.816   4.768   2.011  0.0125  0.3318  0.3399
 5692TIP3    H138711   0.859   4.836   1.959 -0.9741  0.8618  0.1839
 5692TIP3    H238712   0.819   4.801   2.101  0.5137  0.0603  0.4213
 5693TIP3   OH238713   1.804   5.760   8.116 -0.0489  0.8184  0.6199
 5693TIP3    H138714   1.785   5.753   8.210  2.1173 -1.2212  1.0052
 5693TIP3    H238715   1.795   5.671   8.083  0.2666  1.3203 -0.9041
 5694TIP3   OH238716   5.261   5.716   1.267 -0.0012 -0.4670 -0.4675
 5694TIP3    H138717   5.334   5.773   1.241  0.8073 -1.6411 -0.8484
 5694TIP3    H238718   5.220   5.762   1.340  1.7720 -0.2511  0.4447
 5695TIP3   OH238719   3.283   4.610   7.852  0.2070 -0.0923  0.1955
 5695TIP3    H138720   3.269   4.556   7.929 -0.5352 -0.0630  0.0851
 5695TIP3    H238721   3.378   4.609   7.839  0.3176 -0.2838  0.9698
 5696TIP3   OH238722   0.824   0.840   6.837 -0.1296  0.0958 -0.0194
 5696TIP3    H138723   0.861   0.923   6.808  0.3854 -0.4334 -0.9403
 5696TIP3    H238724   0.764   0.863   6.908  0.0476  1.2373 -0.2287
 5697TIP3   OH238725   0.934   0.568   1.633  0.2880  0.0813  0.3295
 5697TIP3    H138726   0.884   0.503   1.682  0.4052  1.6750  2.7538
 5697TIP3    H238727   0.869   0.637   1.613  0.9139  0.9638  1.2245
 5698TIP3   OH238728   4.130   5.074   8.346 -0.2376  0.0332  0.3605
 5698TIP3    H138729   4.155   5.164   8.327 -0.6114  0.3100  1.1204
 5698TIP3    H238730   4.129   5.030   8.261  2.7727 -0.0130  0.2488
 5699TIP3   OH238731   4.281   1.858   7.619  0.2451 -0.2769  0.4277
 5699TIP3    H138732   4.321   1.778   7.587 -1.2343 -0.5158 -0.9511
 5699TIP3    H238733   4.351   1.923   7.618  0.8535 -0.9273 -0.9375
 5700TIP3   OH238734   0.097   3.389   2.251  0.5928 -0.6176 -0.1054
 5700TIP3    H138735   0.176   3.443   2.261  1.3857 -1.1304 -2.8436
 5700TIP3    H238736   0.025   3.451   2.251  1.0530 -0.0323  1.3170
 5701TIP3   OH238737   3.038   2.189   7.575  0.4249 -0.6586  0.1108
 5701TIP3    H138738   3.110   2.222   7.629 -3.4139  3.9389  3.3435
 5701TIP3    H238739   3.012   2.107   7.617  2.6081 -1.5333 -0.1248
 5702TIP3   OH238740   0.151   6.168   0.647 -0.6993  0.2861  0.2436
 5702TIP3    H138741   0.196   6.152   0.729  0.7445  1.9302 -0.1721
 5702TIP3    H238742   0.099   6.247   0.662  2.1710  2.6734 -1.2402
 5703TIP3   OH238743   2.837   6.317   1.628 -0.4063 -0.1938 -0.3034
 5703TIP3    H138744   2.758   6.264   1.639 -0.6693  0.1556 -0.4981
 5703TIP3    H238745   2.812   6.404   1.660  0.1538 -0.2954  0.4313
 5704TIP3   OH238746   2.447   2.784   8.745 -0.2544 -0.0461 -0.0832
 5704TIP3    H138747   2.447   2.732   8.825  0.3993  1.4471  0.9553
 5704TIP3    H238748   2.365   2.762   8.701  0.4527 -2.6853 -0.2616
 5705TIP3   OH238749   0.513   0.657   0.972  0.5007  0.4822 -0.3095
 5705TIP3    H138750   0.591   0.624   1.017 -0.3886  1.2821  1.9313
 5705TIP3    H238751   0.534   0.748   0.951  0.4066  0.5093 -0.2853
 5706TIP3   OH238752   0.401   6.837   1.782 -0.5894  0.1389 -0.3653
 5706TIP3    H138753   0.354   6.920   1.774  0.2625  0.8984  1.8477
 5706TIP3    H238754   0.478   6.847   1.725 -0.7494  0.6498 -0.4986
 5707TIP3   OH238755   3.101   0.076   8.373  0.1520  0.3235 -0.6859
 5707TIP3    H138756   3.038   0.006   8.389 -1.0610  1.3262 -0.8793
 5707TIP3    H238757   3.140   0.094   8.458 -0.2783  0.0986 -0.4415
 5708TIP3   OH238758   4.498   2.014   7.651  0.0141  0.0835  0.2656
 5708TIP3    H138759   4.586   2.027   7.615  0.2131 -0.2490  0.6158
 5708TIP3    H238760   4.491   2.078   7.722  1.3213 -2.1396  2.5632
 5709TIP3   OH238761   0.859   5.813   8.728  0.1721 -0.4957 -0.3557
 5709TIP3    H138762   0.857   5.719   8.708  0.3984 -0.3464 -1.1462
 5709TIP3    H238763   0.804   5.823   8.805 -0.8473 -1.1144 -0.9820
 5710TIP3   OH238764   3.662   1.685   0.962  0.0782 -0.0169 -0.2373
 5710TIP3    H138765   3.624   1.760   0.917  0.1681  0.9595  1.2543
 5710TIP3    H238766   3.596   1.616   0.954  0.1006  0.1091 -1.8344
 5711TIP3   OH238767   4.853   2.184   1.879  0.0660 -0.4929 -0.1812
 5711TIP3    H138768   4.804   2.254   1.923  1.2879  0.2130  0.1012
 5711TIP3    H238769   4.921   2.160   1.941  0.7066 -0.7465 -0.9663
 5712TIP3   OH238770   6.612   2.721   0.059  0.0773  0.4105 -0.2828
 5712TIP3    H138771   6.655   2.699  -0.024  1.8212  1.6248  0.2523
 5712TIP3    H238772   6.552   2.792   0.036 -1.0648 -0.6990 -0.8668
 5713TIP3   OH238773   3.125   5.337   7.699  0.3421  0.0047  0.6829
 5713TIP3    H138774   3.034   5.341   7.669  0.0372  0.2365  1.6031
 5713TIP3    H238775   3.119   5.340   7.794  1.4496  3.3027  0.7646
 5714TIP3   OH238776   0.202   3.068   7.274 -0.1393  0.0960 -0.5188
 5714TIP3    H138777   0.200   3.081   7.369 -1.3216  2.1481 -0.7579
 5714TIP3    H238778   0.228   2.977   7.263  0.8774  0.0448  1.7434
 5715TIP3   OH238779   3.082   5.036   0.267  0.3512  0.2181  0.5905
 5715TIP3    H138780   3.065   5.122   0.229  0.9990 -0.6277 -1.8422
 5715TIP3    H238781   3.144   5.052   0.338 -0.7769  1.8891  1.2500
 5716TIP3   OH238782   0.077   6.755   6.291  0.1473  1.1258  0.1341
 5716TIP3    H138783   0.154   6.811   6.278  0.4407  0.7467  0.2084
 5716TIP3    H238784   0.040   6.785   6.374  1.4218 -0.0391  1.1884
 5717TIP3   OH238785   2.542   1.562   1.600  0.1513  0.2575  0.3281
 5717TIP3    H138786   2.629   1.549   1.562 -0.2324 -0.1635 -0.4282
 5717TIP3    H238787   2.557   1.623   1.673  0.7423  1.8892 -1.0918
 5718TIP3   OH238788   4.135   0.150   1.606 -0.6634 -0.1234 -0.8002
 5718TIP3    H138789   4.135   0.193   1.521  0.3761 -0.5010 -1.0073
 5718TIP3    H238790   4.082   0.207   1.662 -0.4052  0.7306 -1.4046
 5719TIP3   OH238791   0.750   0.554   1.110 -0.2053 -0.5853  0.2048
 5719TIP3    H138792   0.801   0.600   1.177 -0.8057  2.6615 -1.3245
 5719TIP3    H238793   0.693   0.495   1.158 -0.3893  1.3675  2.5860
 5720TIP3   OH238794   1.764   4.954   8.564  0.2430  0.1801 -0.5454
 5720TIP3    H138795   1.691   4.946   8.503  0.0036 -1.7004 -0.0589
 5720TIP3    H238796   1.842   4.949   8.509  0.0675  1.9338 -1.0350
 5721TIP3   OH238797   3.525   3.309   7.091  0.2071  0.2029  0.1772
 5721TIP3    H138798   3.593   3.355   7.042 -0.6676  1.2816 -0.0578
 5721TIP3    H238799   3.533   3.342   7.181  0.1138  0.1935  0.1894
 5722TIP3   OH238800   6.392   0.991   1.369 -0.0620 -0.1712 -0.0258
 5722TIP3    H138801   6.452   0.947   1.429 -0.3552  0.3781  0.6763
 5722TIP3    H238802   6.307   0.987   1.412 -0.1157  0.9989  0.0162
 5723TIP3   OH238803   2.650   6.808   6.640  0.1331 -0.1260  0.2492
 5723TIP3    H138804   2.700   6.874   6.592  0.8498 -0.1258  0.9588
 5723TIP3    H238805   2.605   6.857   6.708 -2.3687  0.1402 -1.4946
 5724TIP3   OH238806   3.075   3.788   0.170  0.1009  0.3735 -0.3497
 5724TIP3    H138807   3.128   3.845   0.226  0.4224 -0.3417  0.0816
 5724TIP3    H238808   2.993   3.776   0.219 -1.1196  2.6665 -1.6572
 5725TIP3   OH238809   2.831   6.051   0.051  0.2746  0.1218 -0.0736
 5725TIP3    H138810   2.851   6.121   0.113  0.9256  1.0380 -1.2744
 5725TIP3    H238811   2.742   6.070   0.021 -0.5143 -1.0145  1.4404
 5726TIP3   OH238812   5.388   3.443   6.480  0.1841  0.8201 -0.4558
 5726TIP3    H138813   5.432   3.469   6.561  0.2101  1.1120 -0.5616
 5726TIP3    H238814   5.458   3.436   6.416  0.2209  0.1456 -0.3471
 5727TIP3   OH238815   1.139   2.456   0.739  0.2694  0.0636 -0.0405
 5727TIP3    H138816   1.135   2.526   0.674 -0.5691 -0.4567 -0.5822
 5727TIP3    H238817   1.179   2.383   0.692  2.7265  0.6319  0.9985
 5728TIP3   OH238818   2.259   0.551   1.372 -0.6499 -0.0281 -0.2624
 5728TIP3    H138819   2.309   0.593   1.442 -0.6329  0.0333 -0.3103
 5728TIP3    H238820   2.277   0.606   1.295  0.5678 -0.9660 -0.6700
 5729TIP3   OH238821   5.054   5.042   1.506  0.8462  0.4155  0.2116
 5729TIP3    H138822   5.030   5.102   1.435  1.4529 -0.1239 -0.4612
 5729TIP3    H238823   5.144   5.016   1.486  0.8262 -0.1869  0.8720
 5730TIP3   OH238824   1.880   1.862   0.437 -0.0058  0.0978 -0.3981
 5730TIP3    H138825   1.891   1.778   0.480  0.7384 -0.2862 -1.3132
 5730TIP3    H238826   1.787   1.866   0.416 -0.1275 -0.2948  0.0611
 5731TIP3   OH238827   6.549   5.706   6.943  0.0681  0.2131  0.1980
 5731TIP3    H138828   6.493   5.783   6.945  0.0274  0.2471 -1.2810
 5731TIP3    H238829   6.494   5.635   6.977 -0.4422  0.5011 -0.0166
 5732TIP3   OH238830   3.356   1.279   1.309 -0.6158 -0.1731 -0.0822
 5732TIP3    H138831   3.317   1.323   1.384  0.2123  1.2247 -0.4350
 5732TIP3    H238832   3.384   1.194   1.343  2.2882  1.4359  2.0020
 5733TIP3   OH238833   5.238   6.213   1.440  0.0379 -0.4993  0.1049
 5733TIP3    H138834   5.316   6.158   1.447 -0.2140 -0.7191  1.7289
 5733TIP3    H238835   5.272   6.302   1.436  0.4112 -0.6840 -1.2168
 5734TIP3   OH238836   0.224   1.972   1.634  0.2982  0.1399  0.2761
 5734TIP3    H138837   0.313   1.955   1.603 -0.1073  0.6227 -1.2184
 5734TIP3    H238838   0.167   1.932   1.569 -0.5905  1.1464  0.3983
 5735TIP3   OH238839   6.069   4.592   8.063  0.0304  0.1867  0.1949
 5735TIP3    H138840   6.043   4.604   8.155  0.0693  3.3846 -0.0980
 5735TIP3    H238841   6.164   4.603   8.064  0.0975 -0.3194 -0.1909
 5736TIP3   OH238842   3.486   4.683   6.813 -1.0386 -0.0001 -0.5485
 5736TIP3    H138843   3.553   4.750   6.827 -2.4270  1.5153 -0.8433
 5736TIP3    H238844   3.527   4.619   6.754  1.3278 -1.0199  2.0131
 5737TIP3   OH238845   5.413   2.536   1.685  0.8520 -0.0461  0.7712
 5737TIP3    H138846   5.467   2.569   1.757 -1.7191  1.4641  2.1661
 5737TIP3    H238847   5.338   2.497   1.729 -0.6667  0.6852 -1.0776
 5738TIP3   OH238848   5.074   6.309   0.446  0.1829 -0.2212  0.0486
 5738TIP3    H138849   5.003   6.259   0.406 -0.2241 -0.8749  1.5307
 5738TIP3    H238850   5.143   6.310   0.379 -0.6595 -0.8245 -0.8589
 5739TIP3   OH238851   0.815   2.078   8.321 -0.5503  0.7097  0.6991
 5739TIP3    H138852   0.903   2.068   8.358 -0.5341 -1.0451  0.2705
 5739TIP3    H238853   0.793   2.170   8.336  0.6330  0.7590  2.4127
 5740TIP3   OH238854   4.203   2.541   8.613 -0.6210 -0.1763  0.0376
 5740TIP3    H138855   4.161   2.519   8.530 -1.2129  1.0486 -0.0044
 5740TIP3    H238856   4.265   2.610   8.591 -0.6829  0.0583  0.5825
 5741TIP3   OH238857   4.101   5.167   1.591  0.1910  0.2364  0.5025
 5741TIP3    H138858   4.033   5.100   1.581  0.5052  0.2580 -2.4520
 5741TIP3    H238859   4.055   5.250   1.575  0.8484  0.2560 -1.4610
 5742TIP3   OH238860   3.573   2.330   7.782  0.6447  0.1717 -0.0497
 5742TIP3    H138861   3.644   2.368   7.731  1.7592  0.0627  1.3456
 5742TIP3    H238862   3.578   2.375   7.867  1.0228 -1.9476  1.1134
 5743TIP3   OH238863   1.725   6.340   1.352 -0.2503 -0.1056 -0.1931
 5743TIP3    H138864   1.768   6.255   1.340 -1.8290 -1.0306  0.4894
 5743TIP3    H238865   1.683   6.334   1.437 -0.4382  1.3648 -0.1551
 5744TIP3   OH238866   1.722   1.193   7.383 -0.1515  0.7116 -0.1968
 5744TIP3    H138867   1.700   1.264   7.444 -2.6109  2.4554 -2.8175
 5744TIP3    H238868   1.792   1.230   7.329  0.4627  0.0476  0.1355
 5745TIP3   OH238869   2.934   0.583   7.210 -0.4061 -0.4176  0.1256
 5745TIP3    H138870   2.852   0.628   7.231  0.0810  0.6121 -0.0892
 5745TIP3    H238871   2.908   0.497   7.179 -1.4823  0.2890 -0.9915
 5746TIP3   OH238872   1.923   4.181   8.292 -0.0455 -0.2077  0.2299
 5746TIP3    H138873   1.994   4.196   8.230 -2.4947  0.3155 -2.6420
 5746TIP3    H238874   1.880   4.101   8.261 -0.9116 -0.3826  1.7586
 5747TIP3   OH238875   0.604   1.122   7.652  0.4257  0.1722  0.7688
 5747TIP3    H138876   0.520   1.087   7.625  1.1074 -0.6113 -0.4547
 5747TIP3    H238877   0.625   1.076   7.733  0.7604 -1.4535 -0.1939
 5748TIP3   OH238878   0.522   6.541   7.222  0.0975  1.3394 -0.3090
 5748TIP3    H138879   0.433   6.568   7.246  0.3461  1.5543  0.4151
 5748TIP3    H238880   0.579   6.601   7.271  0.6695 -0.5641  1.5270
 5749TIP3   OH238881   4.164   5.071   8.064 -0.3004 -0.7528  0.1800
 5749TIP3    H138882   4.251   5.099   8.038 -0.8040 -0.3178 -1.1060
 5749TIP3    H238883   4.106   5.108   7.998 -1.5485 -0.4299  1.3916
 5750TIP3   OH238884   4.498   1.498   7.260  0.2003 -0.4506  0.1092
 5750TIP3    H138885   4.492   1.408   7.229 -1.3543 -0.3568  0.0271
 5750TIP3    H238886   4.409   1.520   7.288  0.8229  0.6326  1.3816
 5751TIP3   OH238887   2.149   6.254   0.972 -0.2213  0.2550  0.2313
 5751TIP3    H138888   2.146   6.256   1.068  0.8002 -2.0846  0.3809
 5751TIP3    H238889   2.115   6.167   0.950  0.9207  0.2083 -1.4403
 5752TIP3   OH238890   1.197   0.458   6.632 -0.6940 -0.2226 -0.3606
 5752TIP3    H138891   1.188   0.367   6.659 -0.3077 -0.3921 -0.7869
 5752TIP3    H238892   1.277   0.488   6.675 -0.8856 -0.0435 -0.1224
 5753TIP3   OH238893   5.167   1.484   0.047 -0.6889 -0.1208 -0.2092
 5753TIP3    H138894   5.112   1.477  -0.031 -0.4031 -0.7640 -0.3595
 5753TIP3    H238895   5.144   1.408   0.100  0.1871 -0.5142 -0.3692
 5754TIP3   OH238896   1.919   5.763   1.245  0.0270 -0.4845  0.0335
 5754TIP3    H138897   1.886   5.673   1.240 -0.2549 -0.3590 -0.4440
 5754TIP3    H238898   1.865   5.804   1.313 -0.7942 -0.2975 -0.7067
 5755TIP3   OH238899   3.919   3.181   6.022 -0.2112 -0.1181 -0.1190
 5755TIP3    H138900   3.866   3.253   6.056 -2.8823 -1.1088 -1.8793
 5755TIP3    H238901   3.901   3.108   6.081  0.7464  0.0253  0.3721
 5756TIP3   OH238902   0.483   4.130   7.112  0.1692 -0.0574 -0.2889
 5756TIP3    H138903   0.499   4.220   7.085 -2.0093  0.6262  0.4871
 5756TIP3    H238904   0.446   4.138   7.200  0.1772 -1.7226 -0.1089
 5757TIP3   OH238905   4.984   3.125   8.431  0.3263 -0.7284  0.3803
 5757TIP3    H138906   4.938   3.149   8.351  0.8207 -0.3126  0.2144
 5757TIP3    H238907   5.037   3.049   8.407 -0.0268 -1.0124  0.4889
 5758TIP3   OH238908   5.931   6.467   0.534  0.0159  0.0109 -0.1531
 5758TIP3    H138909   5.908   6.400   0.598  0.1293  0.0778 -0.0412
 5758TIP3    H238910   5.854   6.476   0.479 -1.2042  1.9745  1.7155
 5759TIP3   OH238911   4.596   3.880   7.241 -0.6516  0.1519  0.3345
 5759TIP3    H138912   4.646   3.921   7.312 -0.9879 -0.1873  0.7675
 5759TIP3    H238913   4.504   3.891   7.266 -0.8933  1.9137 -1.0663
 5760TIP3   OH238914   2.020   2.823   1.026  0.4497  0.0496 -0.1498
 5760TIP3    H138915   2.065   2.770   1.091  1.2247  0.9799  0.0931
 5760TIP3    H238916   2.066   2.805   0.944  0.0695 -0.4057 -0.2697
 5761TIP3   OH238917   3.717   5.893   1.238  0.4029 -0.0344 -0.0794
 5761TIP3    H138918   3.801   5.849   1.248 -0.3379 -1.2594  1.3600
 5761TIP3    H238919   3.654   5.821   1.225 -0.4236  0.8445 -1.0857
 5762TIP3   OH238920   4.384   3.008   8.474  0.1188 -0.4296 -0.0161
 5762TIP3    H138921   4.438   2.943   8.518  0.0815 -0.7950 -0.5040
 5762TIP3    H238922   4.425   3.019   8.389  1.6905  2.1410  0.9657
 5763TIP3   OH238923   4.756   5.140   8.428 -0.3621 -0.1959 -0.6248
 5763TIP3    H138924   4.766   5.045   8.417 -2.2254 -0.9068  2.5271
 5763TIP3    H238925   4.831   5.167   8.481  1.1072  0.5504 -2.9098
 5764TIP3   OH238926   5.123   5.483   8.207  0.0583 -0.2645 -0.2378
 5764TIP3    H138927   5.136   5.391   8.185 -0.7890 -0.4234 -0.1208
 5764TIP3    H238928   5.058   5.482   8.277 -0.3741  0.4455 -0.6092
 5765TIP3   OH238929   0.012   1.966   8.566  0.1888  0.0494 -0.1262
 5765TIP3    H138930   0.029   1.892   8.624 -1.8715 -1.2998 -1.0916
 5765TIP3    H238931   0.073   1.955   8.494 -0.4296 -1.0656 -0.5117
 5766TIP3   OH238932   1.564   4.164   0.599  0.2148  0.1090  0.1876
 5766TIP3    H138933   1.537   4.125   0.516  0.6080 -0.1718  0.1897
 5766TIP3    H238934   1.490   4.220   0.624 -0.0044  0.0124 -0.2307
 5767TIP3   OH238935   0.460   2.884   8.505 -0.0601  0.0327  0.3285
 5767TIP3    H138936   0.406   2.953   8.544 -1.2676 -0.2605 -0.7829
 5767TIP3    H238937   0.479   2.915   8.416 -1.2394 -1.3751 -0.4443
 5768TIP3   OH238938   5.981   2.489   8.671  0.0311 -0.0485  0.1607
 5768TIP3    H138939   5.994   2.395   8.680 -1.2067 -0.2874 -0.4160
 5768TIP3    H238940   6.022   2.526   8.750 -0.9135 -1.2007  1.2336
 5769TIP3   OH238941   0.318   3.784   6.857 -0.4010 -0.3549  0.0707
 5769TIP3    H138942   0.301   3.698   6.819  0.3278  0.0060 -1.1279
 5769TIP3    H238943   0.412   3.796   6.850 -0.5347  0.7106 -0.1530
 5770TIP3   OH238944   1.308   0.910   8.160  0.0476 -0.1149 -0.3315
 5770TIP3    H138945   1.388   0.858   8.169  0.4271  0.6463  0.8682
 5770TIP3    H238946   1.237   0.849   8.180  0.4007 -0.5015 -0.2589
 5771TIP3   OH238947   0.895   3.254   0.077  0.2909  0.3426 -0.1041
 5771TIP3    H138948   0.833   3.203   0.025 -1.0707  0.3521  1.4487
 5771TIP3    H238949   0.978   3.248   0.028 -0.7466 -0.2259 -1.8705
 5772TIP3   OH238950   5.954   1.060   7.311 -0.2300 -0.9194  0.1593
 5772TIP3    H138951   6.015   1.071   7.238  1.8086  0.7565  2.0052
 5772TIP3    H238952   5.874   1.028   7.269  1.0612 -0.7624 -2.7035
 5773TIP3   OH238953   4.658   0.415   0.184 -0.5954 -0.0582  0.1510
 5773TIP3    H138954   4.747   0.384   0.198 -0.2948  0.0857 -1.2440
 5773TIP3    H238955   4.664   0.472   0.107 -2.0248 -0.8020 -0.5610
 5774TIP3   OH238956   3.696   1.840   8.043 -0.7053  0.3858 -0.5502
 5774TIP3    H138957   3.743   1.903   8.098 -1.1990  0.0977  0.2262
 5774TIP3    H238958   3.628   1.804   8.101  0.6323 -2.1414 -0.3817
 5775TIP3   OH238959   3.918   1.343   1.511 -0.2701 -0.3241  0.8446
 5775TIP3    H138960   3.931   1.370   1.602 -1.2939 -1.2232  1.2689
 5775TIP3    H238961   3.954   1.416   1.460  1.3945 -0.3318  1.9482
 5776TIP3   OH238962   1.277   1.611   1.934 -0.4457  0.0308  0.0769
 5776TIP3    H138963   1.281   1.566   2.019 -1.5306 -1.8867 -0.8224
 5776TIP3    H238964   1.207   1.675   1.945 -0.6377 -0.2593  0.6249
 5777TIP3   OH238965   5.515   4.554   7.929  0.6907  0.3618  0.5365
 5777TIP3    H138966   5.546   4.530   7.841  0.0341 -2.0746  0.8893
 5777TIP3    H238967   5.556   4.639   7.946  1.1787  0.7200 -1.9361
 5778TIP3   OH238968   3.257   4.332   7.087 -0.0724 -0.0025 -0.8244
 5778TIP3    H138969   3.198   4.404   7.063  1.1178  0.8869 -1.2005
 5778TIP3    H238970   3.320   4.328   7.015  2.3532  1.3327  1.0526
 5779TIP3   OH238971   2.831   6.082   0.640  0.1121 -0.0041  0.2194
 5779TIP3    H138972   2.784   6.000   0.653 -0.6552  0.3764 -0.0934
 5779TIP3    H238973   2.764   6.144   0.611  0.8913  0.4197 -0.7440
 5780TIP3   OH238974   3.793   6.152   8.136  0.0972  0.8308 -0.6272
 5780TIP3    H138975   3.770   6.235   8.094  0.4342  0.9929 -0.5003
 5780TIP3    H238976   3.875   6.171   8.182  0.3707  0.3275 -0.8989
 5781TIP3   OH238977   1.880   1.641   5.995 -0.0330  0.3320  0.0967
 5781TIP3    H138978   1.887   1.550   5.964  0.9220  0.4263  0.0040
 5781TIP3    H238979   1.803   1.675   5.949  1.3591  0.4777 -2.2947
 5782TIP3   OH238980   1.711   2.740   6.834 -0.4314 -0.0458 -0.2008
 5782TIP3    H138981   1.778   2.703   6.892  1.6406  1.0494 -1.7553
 5782TIP3    H238982   1.704   2.832   6.861  0.3828  0.4155 -1.4717
 5783TIP3   OH238983   2.040   4.792   7.516 -0.6729 -0.2508  0.4041
 5783TIP3    H138984   2.026   4.727   7.584 -0.2415  0.0330  0.7713
 5783TIP3    H238985   1.959   4.791   7.465 -1.2145 -0.0791  1.2398
 5784TIP3   OH238986   2.712   1.942   6.651 -0.4253  0.2932  0.3340
 5784TIP3    H138987   2.705   1.851   6.677 -1.0540 -0.1034 -1.0896
 5784TIP3    H238988   2.693   1.942   6.557 -0.5785  1.8986  0.3202
 5785TIP3   OH238989   4.252   3.946   7.633 -0.4071  0.4103 -0.4091
 5785TIP3    H138990   4.210   3.885   7.693 -2.6108 -0.2962 -2.5626
 5785TIP3    H238991   4.229   4.033   7.667 -1.2998  0.0281 -0.0169
 5786TIP3   OH238992   6.216   6.795   7.001 -0.3450 -0.3931 -0.5197
 5786TIP3    H138993   6.157   6.759   6.935  0.6669  0.1192 -1.7573
 5786TIP3    H238994   6.209   6.890   6.990 -0.3495 -0.2883  0.2989
 5787TIP3   OH238995   3.475   4.942   7.829  0.0910 -0.1859 -0.3164
 5787TIP3    H138996   3.531   4.881   7.877 -0.3079 -1.1248 -1.0237
 5787TIP3    H238997   3.528   5.022   7.824  0.5716 -0.4122  0.7253
 5788TIP3   OH238998   5.607   6.437   8.350  0.3465  0.4274  0.4594
 5788TIP3    H138999   5.642   6.457   8.263 -0.2449 -0.3414  0.0370
 5788TIP3    H239000   5.632   6.346   8.365 -0.6696  0.1605  0.5434
 5789TIP3   OH239001   4.914   3.851   1.787 -0.1004  0.0802  0.1014
 5789TIP3    H139002   4.833   3.828   1.833 -0.3227 -0.4003 -0.5180
 5789TIP3    H239003   4.976   3.874   1.857 -0.9829  1.1975  0.5549
 5790TIP3   OH239004   4.664   1.071   6.788 -0.3653  0.1770  0.2431
 5790TIP3    H139005   4.734   1.038   6.843  0.5914  1.8210  0.0581
 5790TIP3    H239006   4.638   0.995   6.735  2.1856 -0.1699 -0.6265
 5791TIP3   OH239007   0.805   6.732   7.668 -0.6345  0.1135  0.0937
 5791TIP3    H139008   0.770   6.668   7.606  0.4180  0.2919 -0.6985
 5791TIP3    H239009   0.795   6.816   7.623 -0.1309  0.2769  0.2903
 5792TIP3   OH239010   1.230   0.129   7.978 -0.6985 -0.3138 -0.1975
 5792TIP3    H139011   1.236   0.179   7.897 -0.2416 -0.3825 -0.2104
 5792TIP3    H239012   1.292   0.172   8.038 -1.4289  0.0680  0.2987
 5793TIP3   OH239013   2.820   3.882   0.560  0.8483 -0.1442  0.5504
 5793TIP3    H139014   2.815   3.821   0.633 -0.1859 -0.2979  0.3739
 5793TIP3    H239015   2.881   3.950   0.589  1.4006 -0.8484  1.0569
 5794TIP3   OH239016   5.408   1.206   0.274  0.3516  0.5526 -0.6871
 5794TIP3    H139017   5.332   1.147   0.280  0.4815  0.4207 -0.3215
 5794TIP3    H239018   5.466   1.177   0.344  0.3429  1.2298 -0.3968
 5795TIP3   OH239019   0.256   4.295   7.758  0.2112  0.3414  0.8448
 5795TIP3    H139020   0.317   4.258   7.694  0.0627 -1.1675  1.5295
 5795TIP3    H239021   0.295   4.274   7.843 -0.5397  0.6268  1.2659
 5796TIP3   OH239022   4.067   3.677   6.932  0.0808  0.6083  0.1141
 5796TIP3    H139023   4.026   3.761   6.952 -0.4218  0.3165  0.3329
 5796TIP3    H239024   4.061   3.669   6.837  1.5961  1.5531 -0.0938
 5797TIP3   OH239025   5.437   6.275   8.058 -0.4786  0.1281  0.3144
 5797TIP3    H139026   5.425   6.184   8.087  0.9110 -0.0682  0.3608
 5797TIP3    H239027   5.500   6.311   8.120  0.3315  0.5883 -0.7488
 5798TIP3   OH239028   5.084   0.737   8.238  0.2060  0.2708 -0.1148
 5798TIP3    H139029   5.137   0.798   8.291 -0.5816  0.3464  0.6189
 5798TIP3    H239030   4.996   0.774   8.241  0.5014  1.5452 -3.4122
 5799TIP3   OH239031   0.315   2.702   0.421 -0.3985 -0.0445  0.3714
 5799TIP3    H139032   0.402   2.698   0.382 -0.3844 -0.5301  0.4479
 5799TIP3    H239033   0.303   2.795   0.443 -0.3185  0.2006 -0.5650
 5800TIP3   OH239034   0.534   5.506   6.786  0.3901  0.1811  0.2239
 5800TIP3    H139035   0.509   5.440   6.851  0.7729  0.9648  1.1894
 5800TIP3    H239036   0.625   5.528   6.808 -0.2463  2.2819  1.0496
 5801TIP3   OH239037   0.515   0.070   0.160 -0.3042  0.4141  0.5911
 5801TIP3    H139038   0.503   0.162   0.135 -1.5776 -0.0738 -0.7608
 5801TIP3    H239039   0.603   0.067   0.198  0.6142  1.8366 -1.2165
 5802TIP3   OH239040   6.087   2.457   1.614  0.0293  0.1690  0.2404
 5802TIP3    H139041   6.145   2.383   1.632 -0.8233 -0.6292 -0.1653
 5802TIP3    H239042   6.030   2.462   1.692  1.3519  1.6954  1.1711
 5803TIP3   OH239043   4.343   2.316   0.165 -0.5961  0.4369 -0.0164
 5803TIP3    H139044   4.399   2.392   0.149  1.1041 -0.6116  0.6776
 5803TIP3    H239045   4.283   2.345   0.234  0.2109  1.0735  0.4392
 5804TIP3   OH239046   2.709   5.522   7.439  0.5114  0.8075  0.1583
 5804TIP3    H139047   2.643   5.586   7.413  2.4530  2.4906 -0.8388
 5804TIP3    H239048   2.791   5.554   7.403  1.9019 -1.3237  1.1544
 5805TIP3   OH239049   6.569   3.930   7.877  0.3502 -0.0645  0.2722
 5805TIP3    H139050   6.565   3.870   7.803 -0.0607  4.1167 -3.5628
 5805TIP3    H239051   6.658   3.966   7.873 -0.0113  0.9739  1.1672
 5806TIP3   OH239052   2.440   3.575   7.534  0.2353  0.4609 -0.2074
 5806TIP3    H139053   2.535   3.572   7.522  0.3648 -1.9112  0.8339
 5806TIP3    H239054   2.405   3.580   7.445  1.3287  0.4591 -0.6556
 5807TIP3   OH239055   3.298   4.406   6.089  0.2778  0.5710  0.1770
 5807TIP3    H139056   3.287   4.424   5.995 -0.5326  1.7189  0.4674
 5807TIP3    H239057   3.234   4.338   6.109  0.4867  0.2892 -0.1201
 5808TIP3   OH239058   0.264   1.310   0.435 -0.0798 -0.7568  0.2054
 5808TIP3    H139059   0.244   1.300   0.342 -1.4956 -0.4760  0.4588
 5808TIP3    H239060   0.332   1.377   0.438  2.3075 -2.9444 -0.8070
 5809TIP3   OH239061   6.097   2.919   7.983  0.0655  0.4340  0.0452
 5809TIP3    H139062   6.126   2.828   7.968 -1.3347 -0.4682  2.3151
 5809TIP3    H239063   6.132   2.941   8.069  1.4422  2.5678 -1.0033
 5810TIP3   OH239064   0.422   4.525   1.656 -0.2935  0.4358  0.8521
 5810TIP3    H139065   0.333   4.491   1.645 -0.1395  0.4130 -0.3996
 5810TIP3    H239066   0.469   4.493   1.580  1.0557 -0.3717  1.9904
 5811TIP3   OH239067   4.761   0.289   0.882 -0.0190  0.2623  0.5443
 5811TIP3    H139068   4.744   0.360   0.944  1.0352  1.0625 -0.0299
 5811TIP3    H239069   4.855   0.293   0.867 -0.3997  1.0160 -2.1341
 5812TIP3   OH239070   0.079   2.096   8.026  0.1753  0.9096  0.2269
 5812TIP3    H139071   0.139   2.118   7.954  1.6534 -0.0965  1.0903
 5812TIP3    H239072   0.058   2.004   8.012  1.1600  0.4556  1.5010
 5813TIP3   OH239073   5.581   5.370   8.537  0.4927  0.2261 -0.0125
 5813TIP3    H139074   5.506   5.374   8.477  1.2060 -2.3065 -1.2207
 5813TIP3    H239075   5.553   5.310   8.606  0.5249  1.2989  0.9560
 5814TIP3   OH239076   0.437   0.980   6.184  0.0899 -0.1783  0.6079
 5814TIP3    H139077   0.497   1.051   6.161  0.5132 -0.8653 -0.5387
 5814TIP3    H239078   0.350   1.019   6.180  0.1720 -0.0982 -1.8055
 5815TIP3   OH239079   1.716   4.701   7.160  0.3737 -0.4579  0.2579
 5815TIP3    H139080   1.664   4.627   7.192  1.1526 -1.1511 -0.0479
 5815TIP3    H239081   1.684   4.776   7.210 -1.0360 -0.8320 -0.0409
 5816TIP3   OH239082   5.514   1.138   0.551 -0.2027 -0.3677  0.4237
 5816TIP3    H139083   5.578   1.114   0.484 -0.5722 -0.1106 -0.0205
 5816TIP3    H239084   5.567   1.150   0.630  0.4570  0.8915 -0.1720
 5817TIP3   OH239085   6.645   4.238   0.102 -0.0618  0.0547 -0.5993
 5817TIP3    H139086   6.664   4.282   0.019  1.8994  0.9465  0.2614
 5817TIP3    H239087   6.606   4.306   0.157  0.9191  0.1516 -0.0014
 5818TIP3   OH239088   1.328   3.962   1.923 -0.2220 -0.0394  0.1417
 5818TIP3    H139089   1.404   3.969   1.981  0.2009  0.7410 -0.4779
 5818TIP3    H239090   1.319   3.868   1.907 -0.3790 -0.2709  1.4859
 5819TIP3   OH239091   3.477   2.596   0.599  0.1971 -0.2328 -0.1173
 5819TIP3    H139092   3.571   2.606   0.617  0.3560  0.9865 -1.4898
 5819TIP3    H239093   3.472   2.526   0.534  0.1269 -0.4296  0.0969
 5820TIP3   OH239094   4.835   5.886   1.975 -0.4976 -0.1526 -0.1502
 5820TIP3    H139095   4.806   5.880   2.066 -0.8635 -0.3663 -0.2788
 5820TIP3    H239096   4.917   5.838   1.973  1.2638  2.5473  0.7768
 5821TIP3   OH239097   2.443   6.616   0.192  0.3984 -0.2146 -0.2911
 5821TIP3    H139098   2.418   6.531   0.228 -0.6242  0.4139  0.5494
 5821TIP3    H239099   2.379   6.677   0.228  1.3801  0.9936 -0.5163
 5822TIP3   OH239100   6.303   1.165   1.899  0.2558  0.0159 -0.6897
 5822TIP3    H139101   6.382   1.165   1.953 -0.4694  2.1878  0.5070
 5822TIP3    H239102   6.311   1.088   1.843  1.8550 -1.3994  1.3670
 5823TIP3   OH239103   4.950   0.535   2.146 -0.2168  0.1660  0.0593
 5823TIP3    H139104   4.868   0.487   2.156 -0.4767  0.9879  2.2873
 5823TIP3    H239105   4.926   0.613   2.096 -0.6159 -0.0041 -0.0192
 5824TIP3   OH239106   6.662   5.090   6.256  0.0997  0.2406  0.5052
 5824TIP3    H139107   6.649   5.178   6.291 -0.9151  2.3374 -4.3268
 5824TIP3    H239108   6.575   5.061   6.230  0.6474 -1.5211  0.5156
 5825TIP3   OH239109   6.159   4.519   6.500  0.5512  0.3446  0.6095
 5825TIP3    H139110   6.213   4.546   6.426  2.5826  0.1935  1.9826
 5825TIP3    H239111   6.070   4.519   6.465  1.3700  0.9102 -1.6428
 5826TIP3   OH239112   4.775   2.242   6.201 -0.1704 -0.0441 -0.4938
 5826TIP3    H139113   4.743   2.165   6.156 -0.1892  0.4018 -1.2618
 5826TIP3    H239114   4.870   2.231   6.204 -0.3418 -1.6257  2.2592
 5827TIP3   OH239115   3.832   3.886   1.380 -0.3059  0.0139 -0.1251
 5827TIP3    H139116   3.925   3.905   1.388 -0.3325  0.0226  0.1892
 5827TIP3    H239117   3.803   3.870   1.470 -0.8640  1.2191 -0.0652
 5828TIP3   OH239118   1.255   4.609   7.302 -0.0211 -0.6753 -0.0731
 5828TIP3    H139119   1.297   4.693   7.286  0.9838 -0.8839  1.2652
 5828TIP3    H239120   1.162   4.629   7.308 -0.2769 -0.2765 -3.6382
 5829TIP3   OH239121   5.212   4.871   0.454 -0.2802 -0.3904 -0.1549
 5829TIP3    H139122   5.118   4.855   0.461 -0.3948 -0.7946 -2.1733
 5829TIP3    H239123   5.247   4.845   0.540 -2.2123  1.6695  1.4036
 5830TIP3   OH239124   3.870   3.845   7.921  0.0871  0.2953 -0.1412
 5830TIP3    H139125   3.786   3.857   7.966  0.3613 -0.7402  0.7047
 5830TIP3    H239126   3.880   3.751   7.912  0.8894  0.4224 -0.7757
 5831TIP3   OH239127   1.619   6.334   8.194 -0.3943  0.2033 -0.1732
 5831TIP3    H139128   1.708   6.339   8.226  0.0844 -1.1544 -1.1614
 5831TIP3    H239129   1.584   6.423   8.203  0.7750  0.5784  0.9457
 5832TIP3   OH239130   5.190   0.407   1.991  0.4623  0.0952  0.1192
 5832TIP3    H139131   5.130   0.481   1.995 -0.0578 -0.3484  0.4982
 5832TIP3    H239132   5.274   0.443   2.021 -0.4698 -0.1854  3.4397
 5833TIP3   OH239133   5.812   4.245   7.773 -0.3654  0.1671  0.2365
 5833TIP3    H139134   5.843   4.242   7.682 -0.5422  0.9360  0.1484
 5833TIP3    H239135   5.718   4.227   7.767 -0.1322 -1.2768  0.4219
 5834TIP3   OH239136   3.713   2.879   5.959  0.0477 -0.5059 -0.1305
 5834TIP3    H139137   3.625   2.888   5.995  0.0792  0.8210 -0.3602
 5834TIP3    H239138   3.710   2.924   5.875  0.5892 -1.6340 -0.7879
 5835TIP3   OH239139   2.180   3.424   8.679  0.3107  0.1702 -0.1355
 5835TIP3    H139140   2.157   3.501   8.626 -1.4640 -0.7973 -0.8954
 5835TIP3    H239141   2.200   3.458   8.765 -2.6199  1.3848  0.1688
 5836TIP3   OH239142   4.184   3.990   8.570  0.0845  0.0587 -0.3072
 5836TIP3    H139143   4.200   4.084   8.581 -0.7080  0.5928 -3.0428
 5836TIP3    H239144   4.251   3.961   8.508 -0.0242 -1.1088  0.0818
 5837TIP3   OH239145   6.857   2.486   8.665  0.3744  0.3416 -0.0091
 5837TIP3    H139146   6.789   2.493   8.598 -0.3790  1.0673  0.8065
 5837TIP3    H239147   6.868   2.391   8.677 -2.3395  0.1032  1.6029
 5838TIP3   OH239148   1.776   4.164   1.043  0.8812 -0.1563  0.7448
 5838TIP3    H139149   1.849   4.104   1.025  0.5544 -0.8000  1.4965
 5838TIP3    H239150   1.815   4.251   1.037  1.0362 -0.3279 -1.8557
 5839TIP3   OH239151   6.379   0.976   1.079 -0.1652  0.3550 -0.2115
 5839TIP3    H139152   6.298   0.926   1.089 -0.6010  0.8041 -1.2943
 5839TIP3    H239153   6.411   0.989   1.168 -0.2691 -1.4549  0.1345
 5840TIP3   OH239154   0.080   4.035   7.347 -0.2886 -0.3725  0.4727
 5840TIP3    H139155   0.043   4.119   7.373  2.3692  0.4010  2.1707
 5840TIP3    H239156   0.087   4.040   7.251 -2.7081  0.1145  0.2482
 5841TIP3   OH239157   1.623   2.617   1.507 -0.0880 -0.0802 -0.4683
 5841TIP3    H139158   1.582   2.670   1.574  0.4859 -0.7030  0.3905
 5841TIP3    H239159   1.717   2.624   1.524  0.0442 -0.5447 -0.9658
 5842TIP3   OH239160   0.259   6.373   7.433 -0.0956 -0.1329  0.4225
 5842TIP3    H139161   0.287   6.421   7.510  0.0944  1.3128 -0.5065
 5842TIP3    H239162   0.167   6.397   7.422  0.3408  1.1641 -0.8041
 5843TIP3   OH239163   5.170   5.898   1.519  0.6297 -0.3532 -0.3070
 5843TIP3    H139164   5.173   5.991   1.542 -0.0533 -0.6615  1.1197
 5843TIP3    H239165   5.247   5.860   1.563 -0.1015 -0.7697  0.6384
 5844TIP3   OH239166   1.409   4.049   1.292  0.1675 -0.0021  0.4754
 5844TIP3    H139167   1.456   4.114   1.241 -0.2564 -1.7273 -2.2932
 5844TIP3    H239168   1.410   4.084   1.382  1.7392  2.7268 -0.4854
 5845TIP3   OH239169   1.830   0.225   7.088  0.1571  0.3830 -0.1730
 5845TIP3    H139170   1.891   0.221   7.161 -1.3393  0.4627  1.1502
 5845TIP3    H239171   1.805   0.317   7.084  0.1062  0.3473 -0.6765
 5846TIP3   OH239172   2.514   6.123   7.129 -0.6914 -0.2071 -0.2770
 5846TIP3    H139173   2.536   6.174   7.051  1.1418  0.0618  0.3603
 5846TIP3    H239174   2.491   6.189   7.195  0.9994 -0.1947  0.3441
 5847TIP3   OH239175   0.300   2.964   0.501 -0.1159  0.3142 -0.1321
 5847TIP3    H139176   0.301   3.004   0.588  0.6182 -0.5952  0.2956
 5847TIP3    H239177   0.307   3.037   0.440  2.1758  0.8238  0.6418
 5848TIP3   OH239178   4.478   1.601   8.565  0.1191 -0.8986 -0.3026
 5848TIP3    H139179   4.523   1.601   8.649 -1.5246  1.9355  0.7209
 5848TIP3    H239180   4.504   1.683   8.524 -2.5834  0.0063 -0.4369
 5849TIP3   OH239181   0.963   4.048   1.451  0.3666 -0.4606 -0.3923
 5849TIP3    H139182   1.016   4.123   1.476 -0.6416  0.1422 -0.0178
 5849TIP3    H239183   0.979   3.983   1.520 -2.2623  1.1182  1.9232
 5850TIP3   OH239184   6.799   4.297   0.542 -0.4517 -0.6734 -0.1573
 5850TIP3    H139185   6.855   4.305   0.619 -1.6931  1.6061  0.5863
 5850TIP3    H239186   6.823   4.372   0.487 -2.1038 -0.1770 -0.2436
 5851TIP3   OH239187   6.269   4.803   7.594 -0.2544 -0.5154  0.1449
 5851TIP3    H139188   6.341   4.834   7.540  0.6928  0.4277  1.8695
 5851TIP3    H239189   6.235   4.726   7.547  3.8383 -2.9519  0.6573
 5852TIP3   OH239190   2.423   3.830   6.727 -0.2715 -0.0822 -0.1313
 5852TIP3    H139191   2.509   3.860   6.754  0.5885 -1.5323 -1.1007
 5852TIP3    H239192   2.363   3.861   6.795  0.8210  1.9327 -0.0210
 5853TIP3   OH239193   1.240   0.429   0.869 -0.5335 -0.1328 -0.3093
 5853TIP3    H139194   1.162   0.378   0.845  0.4623 -0.5737 -2.9190
 5853TIP3    H239195   1.242   0.501   0.806  0.7666  0.3050  0.2033
 5854TIP3   OH239196   2.355   2.324   0.172  0.6542 -0.5731  0.4140
 5854TIP3    H139197   2.447   2.305   0.155  0.2829 -1.3165 -0.9458
 5854TIP3    H239198   2.313   2.316   0.087 -0.3983  1.5259  0.6626
 5855TIP3   OH239199   0.345   6.245   7.925 -0.3118  0.0211 -0.2213
 5855TIP3    H139200   0.303   6.320   7.884 -2.6718 -1.5633 -0.9480
 5855TIP3    H239201   0.300   6.235   8.010  0.4530 -0.1687  0.1702
 5856TIP3   OH239202   2.314   5.648   0.727  0.4097 -0.3999 -0.9402
 5856TIP3    H139203   2.250   5.662   0.797  3.2846  0.1423  1.8006
 5856TIP3    H239204   2.277   5.692   0.651 -3.2437 -1.6606 -0.0807
 5857TIP3   OH239205   2.684   5.673   8.003  0.1074 -0.2527 -0.5993
 5857TIP3    H139206   2.717   5.619   7.931  1.8323  0.9000 -0.7224
 5857TIP3    H239207   2.716   5.629   8.082 -1.3445 -1.2281 -0.5184
 5858TIP3   OH239208   4.064   4.367   6.864 -0.2342  0.0031  0.7577
 5858TIP3    H139209   4.150   4.345   6.900  0.5214  1.9068  0.2299
 5858TIP3    H239210   4.040   4.291   6.810  0.9675 -0.6680  1.1330
 5859TIP3   OH239211   4.982   3.291   0.603 -0.1275 -0.5926  0.1634
 5859TIP3    H139212   4.922   3.260   0.671  0.0039 -0.7426  0.2116
 5859TIP3    H239213   4.988   3.385   0.617  0.8958 -0.7833  1.1767
 5860TIP3   OH239214   3.957   0.619   1.192 -0.2290  0.2264 -0.4011
 5860TIP3    H139215   4.050   0.638   1.202  0.1976 -2.0844  0.7627
 5860TIP3    H239216   3.953   0.558   1.118 -0.6629 -0.4601  0.1734
 5861TIP3   OH239217   2.033   0.427   7.987 -0.3107 -0.2579  0.4130
 5861TIP3    H139218   2.065   0.340   7.965 -1.0635 -0.1202 -1.4135
 5861TIP3    H239219   2.109   0.472   8.024  0.4960 -1.2058 -0.0381
 5862TIP3   OH239220   3.071   1.322   1.166  0.3574  0.2808 -0.4014
 5862TIP3    H139221   3.143   1.285   1.217  1.1025  0.3292 -1.3791
 5862TIP3    H239222   2.993   1.277   1.198  0.7810  0.4081  0.8545
 5863TIP3   OH239223   6.335   3.689   1.350 -0.3970 -0.6125 -0.5212
 5863TIP3    H139224   6.310   3.741   1.274 -0.3897 -1.1851 -0.9193
 5863TIP3    H239225   6.413   3.733   1.384  0.7461 -1.4160 -1.9717
 5864TIP3   OH239226   1.900   4.189   8.650  0.1548  0.2777  0.3007
 5864TIP3    H139227   1.923   4.145   8.732  3.3748  1.3792  0.1028
 5864TIP3    H239228   1.950   4.270   8.651  0.3903  0.2693 -2.8133
 5865TIP3   OH239229   3.849   6.493   0.962  0.5017 -0.3641  0.3209
 5865TIP3    H139230   3.811   6.416   1.003  1.0572 -0.6636  0.2847
 5865TIP3    H239231   3.838   6.562   1.027 -3.0249  0.4301 -0.8815
 5866TIP3   OH239232   3.811   3.292   6.933 -0.4682 -0.1067 -0.1259
 5866TIP3    H139233   3.785   3.384   6.941 -0.8517 -0.0477 -1.6569
 5866TIP3    H239234   3.902   3.289   6.963 -1.2045  0.2749  2.3245
 5867TIP3   OH239235   2.681   0.990   1.542 -0.1412 -0.0249 -0.1182
 5867TIP3    H139236   2.608   0.945   1.584 -1.8599  1.7870 -1.0090
 5867TIP3    H239237   2.726   1.034   1.614 -1.9836  1.5889  0.1100
 5868TIP3   OH239238   1.846   2.872   1.296  0.6033  0.6688  0.2443
 5868TIP3    H139239   1.888   2.860   1.211  0.0910 -0.1351  0.0973
 5868TIP3    H239240   1.912   2.846   1.360  0.6145  0.1925  0.0435
 5869TIP3   OH239241   0.833   4.664   0.010  0.5824  0.4850  0.2463
 5869TIP3    H139242   0.780   4.735   0.047  0.1451  0.0700  0.4289
 5869TIP3    H239243   0.880   4.628   0.084 -0.4075 -0.4443  0.4524
 5870TIP3   OH239244   4.514   5.562   7.160  0.2823 -0.3809 -0.2241
 5870TIP3    H139245   4.585   5.589   7.102  0.0206 -0.0583 -0.4048
 5870TIP3    H239246   4.461   5.503   7.107 -0.3446  0.4585 -0.5615
 5871TIP3   OH239247   4.723   6.454   7.490  0.0555  0.9075 -0.6239
 5871TIP3    H139248   4.794   6.515   7.471 -0.5975  2.0052  0.3347
 5871TIP3    H239249   4.721   6.395   7.415  2.2815  0.5380 -0.4684
 5872TIP3   OH239250   5.044   1.345   6.300  0.1416  0.1032  0.4190
 5872TIP3    H139251   5.096   1.386   6.370  0.1738  0.9573 -0.0907
 5872TIP3    H239252   5.091   1.265   6.279  0.6298  0.2960  0.7619
 5873TIP3   OH239253   4.355   2.300   7.088 -0.0548 -0.2704  0.3549
 5873TIP3    H139254   4.413   2.243   7.138  0.0837 -0.7901 -0.3822
 5873TIP3    H239255   4.373   2.388   7.121  1.1913 -0.4150  0.0959
 5874TIP3   OH239256   3.114   2.760   1.607  0.5048 -0.1135  0.0090
 5874TIP3    H139257   3.194   2.764   1.660 -0.1511  1.2352  0.9341
 5874TIP3    H239258   3.146   2.766   1.517  1.7415 -3.7248  0.0319
 5875TIP3   OH239259   6.519   4.423   8.130 -0.4553 -0.2237 -0.1203
 5875TIP3    H139260   6.473   4.456   8.053  0.2737  1.3303  0.0738
 5875TIP3    H239261   6.485   4.475   8.203 -0.4965 -1.0711  0.4879
 5876TIP3   OH239262   0.281   6.153   0.219  0.3002  0.6100 -0.0012
 5876TIP3    H139263   0.309   6.169   0.129 -1.3049 -0.3556 -0.7139
 5876TIP3    H239264   0.295   6.059   0.231  0.0177  0.6401  0.5776
 5877TIP3   OH239265   3.681   0.915   0.787 -0.6759 -0.3502 -0.0071
 5877TIP3    H139266   3.611   0.859   0.755 -0.9068 -0.5566  0.8274
 5877TIP3    H239267   3.758   0.890   0.736 -0.8633 -1.1784  0.1054
 5878TIP3   OH239268   3.365   2.098   1.577  0.2451 -0.2985  0.4731
 5878TIP3    H139269   3.345   2.006   1.591  0.6567 -0.1969  1.8474
 5878TIP3    H239270   3.453   2.099   1.540 -0.4250 -0.5167 -1.2177
 5879TIP3   OH239271   3.982   6.146   1.210 -0.0267  0.5724  0.0693
 5879TIP3    H139272   3.972   6.233   1.249  0.7099  1.0760 -0.8330
 5879TIP3    H239273   4.062   6.111   1.249 -0.4549  0.1809  0.6189
 5880TIP3   OH239274   6.350   1.012   8.609  0.0140  0.9931 -0.1397
 5880TIP3    H139275   6.271   1.027   8.660 -0.6005 -0.3259 -0.6694
 5880TIP3    H239276   6.407   0.962   8.667  0.7007  2.3447  0.4165
 5881TIP3   OH239277   2.387   6.410   0.513  0.0333  0.5308  0.6300
 5881TIP3    H139278   2.426   6.342   0.568 -0.9896  0.7476  1.6813
 5881TIP3    H239279   2.342   6.362   0.444  0.4898  0.2033  0.5545
 5882TIP3   OH239280   4.355   5.614   0.024 -0.2433  0.2230 -0.3557
 5882TIP3    H139281   4.344   5.657   0.109 -3.8579 -0.0911 -0.5047
 5882TIP3    H239282   4.363   5.687  -0.038  0.3699  0.4856  0.0151
 5883TIP3   OH239283   0.564   4.188   8.331  0.2073 -0.1379 -0.0640
 5883TIP3    H139284   0.594   4.155   8.247 -1.7000  1.5630 -1.5250
 5883TIP3    H239285   0.642   4.225   8.372  0.7347  1.5875 -2.4368
 5884TIP3   OH239286   6.565   5.472   7.767  0.3813 -0.0975 -0.0827
 5884TIP3    H139287   6.559   5.498   7.675 -0.6689  2.1276  0.5564
 5884TIP3    H239288   6.608   5.387   7.764  1.1115  0.2612 -2.5777
 5885TIP3   OH239289   6.138   1.554   6.340  0.5049  0.1577 -0.5929
 5885TIP3    H139290   6.212   1.611   6.359  0.4355 -0.0966  0.5531
 5885TIP3    H239291   6.171   1.491   6.276  0.7431  1.1220 -1.4399
 5886TIP3   OH239292   4.935   3.271   7.338 -0.0735  0.2296 -0.5386
 5886TIP3    H139293   5.028   3.247   7.332  0.2931  0.5220  2.2772
 5886TIP3    H239294   4.902   3.262   7.249  2.7765  0.6205 -1.7636
 5887TIP3   OH239295   6.318   5.085   8.516 -0.6750  0.3087  0.4018
 5887TIP3    H139296   6.234   5.099   8.471 -0.8966 -1.0852  0.3345
 5887TIP3    H239297   6.294   5.068   8.607 -0.4034  0.6552  0.5392
 5888TIP3   OH239298   4.937   6.185   2.223 -0.4424 -0.6674 -0.5260
 5888TIP3    H139299   4.980   6.103   2.249 -2.2664 -0.7160  3.0014
 5888TIP3    H239300   4.990   6.254   2.263 -0.4629 -0.3052 -1.1086
 5889TIP3   OH239301   3.464   3.125   8.284 -0.2401  0.0911  0.4251
 5889TIP3    H139302   3.460   3.130   8.189 -1.7662 -1.9746  0.2972
 5889TIP3    H239303   3.557   3.126   8.305  0.3017 -2.3984 -1.3842
 5890TIP3   OH239304   1.938   4.054   0.145 -0.8998 -0.1546  0.0210
 5890TIP3    H139305   1.977   4.114   0.208 -0.1040 -0.6749  0.0454
 5890TIP3    H239306   1.888   3.992   0.198 -1.8845  0.5923 -0.0197
 5891TIP3   OH239307   4.705   5.907   0.904  0.3718  0.5985  0.4206
 5891TIP3    H139308   4.719   5.848   0.978  0.8748  1.1617  0.7829
 5891TIP3    H239309   4.676   5.850   0.833 -0.2898  0.0728  1.0942
 5892TIP3   OH239310   6.190   6.552   8.743  0.5159 -0.0462 -0.0035
 5892TIP3    H139311   6.189   6.538   8.648 -1.4886  1.0896 -0.2114
 5892TIP3    H239312   6.225   6.471   8.779  0.2196 -0.9521 -1.6683
 5893TIP3   OH239313   5.239   2.417   0.063  0.1216  0.5143  0.1811
 5893TIP3    H139314   5.326   2.380   0.047 -0.9879 -1.4707 -1.7114
 5893TIP3    H239315   5.255   2.491   0.123  2.9596 -0.3601  0.6326
 5894TIP3   OH239316   6.748   0.572   7.421  0.3496 -0.7727 -0.2098
 5894TIP3    H139317   6.843   0.580   7.431  0.1804 -0.4249  1.3407
 5894TIP3    H239318   6.712   0.607   7.502 -1.0680 -1.8149 -0.3484
 5895TIP3   OH239319   3.681   5.924   0.771  0.6565 -0.1967  0.1632
 5895TIP3    H139320   3.655   5.887   0.855  1.5210 -1.4635 -0.0934
 5895TIP3    H239321   3.761   5.973   0.790 -0.5072  1.6815  0.5100
 5896TIP3   OH239322   2.518   2.714   0.254  0.3641  0.1590  0.3059
 5896TIP3    H139323   2.466   2.656   0.310 -0.6769 -0.6227 -1.4070
 5896TIP3    H239324   2.606   2.678   0.258 -0.1505 -1.2214 -0.2787
 5897TIP3   OH239325   4.302   6.340   7.108  0.0603  0.2322  0.2362
 5897TIP3    H139326   4.292   6.428   7.074  0.3289 -0.2384 -1.0970
 5897TIP3    H239327   4.355   6.351   7.187  3.9117  0.8806 -2.1812
 5898TIP3   OH239328   5.787   0.152   1.491  0.1148  0.0479 -0.2674
 5898TIP3    H139329   5.762   0.221   1.553  2.0428  1.3358 -0.8178
 5898TIP3    H239330   5.860   0.107   1.533 -0.4084 -0.9603 -0.4046
 5899TIP3   OH239331   6.725   4.084   1.705 -0.0309 -0.3217  0.9868
 5899TIP3    H139332   6.697   3.998   1.737 -0.4348 -1.0984 -1.2647
 5899TIP3    H239333   6.814   4.069   1.674 -0.9663 -0.6503 -1.7511
 5900TIP3   OH239334   0.950   1.300   7.269  0.2992  0.1963 -0.0558
 5900TIP3    H139335   0.898   1.381   7.265 -0.5114 -0.2964  0.2880
 5900TIP3    H239336   0.977   1.294   7.360  2.1822  1.1796 -0.5026
 5901TIP3   OH239337   0.564   3.882   6.990  0.0690 -0.8695  0.1442
 5901TIP3    H139338   0.542   3.942   7.062 -0.8060  0.7264 -1.3699
 5901TIP3    H239339   0.630   3.929   6.939 -1.1478 -0.8389 -1.4789
 5902TIP3   OH239340   2.853   5.481   0.207 -0.6207  0.0609  0.2659
 5902TIP3    H139341   2.790   5.513   0.272 -1.5647 -1.4991  0.1705
 5902TIP3    H239342   2.917   5.552   0.199 -0.7773  0.5392  2.4760
 5903TIP3   OH239343   2.386   2.837   0.806 -0.4175  0.7124  0.5383
 5903TIP3    H139344   2.294   2.813   0.798 -0.3156  0.2908  0.5673
 5903TIP3    H239345   2.421   2.826   0.717  0.1154 -1.3767  0.9483
 5904TIP3   OH239346   3.658   0.311   7.462 -0.1313  0.2673  0.3643
 5904TIP3    H139347   3.749   0.335   7.479 -0.9655  2.9851  1.6128
 5904TIP3    H239348   3.656   0.286   7.369  1.4267  2.8538 -0.4545
 5905TIP3   OH239349   4.883   4.899   8.409  0.1283 -0.6691 -0.0244
 5905TIP3    H139350   4.875   4.810   8.374  0.9565 -0.9768  0.5315
 5905TIP3    H239351   4.960   4.895   8.466 -1.0323 -0.1345  1.6485
 5906TIP3   OH239352   4.877   1.519   1.179 -0.3695 -0.5766  0.1627
 5906TIP3    H139353   4.846   1.601   1.219  1.5899  1.3076 -1.8383
 5906TIP3    H239354   4.946   1.489   1.238 -0.2859 -0.0862  0.3241
 5907TIP3   OH239355   6.451   2.654   0.615 -0.0615  0.2430 -0.4272
 5907TIP3    H139356   6.433   2.734   0.565 -0.4667  0.5157  0.1439
 5907TIP3    H239357   6.531   2.673   0.663 -0.4182  0.4859  0.0770
 5908TIP3   OH239358   6.327   6.497   7.922  0.1752  0.4454 -0.3439
 5908TIP3    H139359   6.389   6.567   7.904  0.1341  0.9098  1.1616
 5908TIP3    H239360   6.340   6.434   7.851 -0.4056  2.3561 -2.2489
 5909TIP3   OH239361   5.209   3.711   5.943  0.7840  0.0277 -0.4171
 5909TIP3    H139362   5.188   3.678   5.855  2.0753 -0.4193 -0.5738
 5909TIP3    H239363   5.290   3.761   5.931  0.8746  0.1146  0.4937
 5910TIP3   OH239364   6.460   5.824   8.396 -0.3027  0.0379  0.3528
 5910TIP3    H139365   6.478   5.913   8.424 -2.2819  1.0238 -1.2693
 5910TIP3    H239366   6.544   5.792   8.363  0.3291  1.4675  0.5161
 5911TIP3   OH239367   6.269   0.499   0.201  0.2054 -0.1244  0.1477
 5911TIP3    H139368   6.207   0.503   0.273  0.6079 -1.3695  0.5917
 5911TIP3    H239369   6.278   0.589   0.171 -2.7834 -0.0334 -0.7765
 5912TIP3   OH239370   5.586   5.275   0.937  0.8888  0.1035  0.3549
 5912TIP3    H139371   5.544   5.333   1.000  1.4184  0.1381  0.6810
 5912TIP3    H239372   5.513   5.238   0.887  0.3613 -0.8750  1.7829
 5913TIP3   OH239373   4.221   0.065   1.039  0.8837 -0.0462  0.4850
 5913TIP3    H139374   4.248   0.151   1.071  1.6006  0.0648 -0.3943
 5913TIP3    H239375   4.251   0.004   1.106  1.2128  0.3044  0.6606
 5914TIP3   OH239376   0.863   2.338   6.979  0.4694 -0.1357 -0.3000
 5914TIP3    H139377   0.796   2.364   6.915 -0.0517 -1.6070 -0.4113
 5914TIP3    H239378   0.929   2.406   6.974 -0.5237  0.8214 -0.9606
 5915TIP3   OH239379   1.455   6.394   8.624 -0.2073  0.5655 -0.8103
 5915TIP3    H139380   1.468   6.321   8.564 -1.6024  0.5784 -1.1746
 5915TIP3    H239381   1.518   6.378   8.695  1.1757  0.3289 -2.0454
 5916TIP3   OH239382   6.488   4.228   7.406 -0.3614  0.2917 -0.7172
 5916TIP3    H139383   6.416   4.165   7.409 -0.8631  0.8759 -0.3994
 5916TIP3    H239384   6.548   4.192   7.341 -2.0616  1.0034 -2.8010
 5917TIP3   OH239385   2.709   4.576   7.341 -0.4417  0.1188  0.1174
 5917TIP3    H139386   2.750   4.555   7.257  2.7512  3.5305  0.5901
 5917TIP3    H239387   2.712   4.671   7.346 -1.0239  0.0692  3.8895
 5918TIP3   OH239388   1.914   5.160   6.859  0.4122  0.4249  0.2647
 5918TIP3    H139389   1.987   5.221   6.846  0.9075 -0.0384  0.7994
 5918TIP3    H239390   1.893   5.130   6.771  2.9043 -1.7301  0.2609
 5919TIP3   OH239391   1.683   4.379   6.841 -0.3726  0.2130 -0.3006
 5919TIP3    H139392   1.651   4.463   6.808 -1.5310 -0.0441  0.0998
 5919TIP3    H239393   1.607   4.321   6.835  0.9479 -1.4276 -2.5871
 5920TIP3   OH239394   6.387   1.581   7.361 -1.1060  0.0736  0.1600
 5920TIP3    H139395   6.388   1.508   7.422 -1.5844  0.8534  1.1155
 5920TIP3    H239396   6.392   1.540   7.274  2.3086 -0.9891  0.6940
 5921TIP3   OH239397   0.446   5.991   0.994  0.0273 -0.3367  0.0024
 5921TIP3    H139398   0.436   5.994   1.089  1.6128 -1.7211  0.2726
 5921TIP3    H239399   0.426   5.900   0.971 -3.0201  0.5720 -1.4113
 5922TIP3   OH239400   3.900   2.825   7.357  0.3091  0.4400 -0.3966
 5922TIP3    H139401   3.831   2.877   7.316  0.8116  1.0376 -0.5041
 5922TIP3    H239402   3.856   2.779   7.429 -0.3060  0.3917 -0.7970
 5923TIP3   OH239403   5.814   6.653   7.979 -0.1930 -0.3103  0.2504
 5923TIP3    H139404   5.778   6.689   7.898 -0.9103 -0.6172  0.4267
 5923TIP3    H239405   5.898   6.616   7.954  0.2000  0.7685 -0.0951
 5924TIP3   OH239406   5.013   2.522   8.712 -0.4573 -0.0374 -0.3329
 5924TIP3    H139407   5.078   2.463   8.750 -0.9507 -0.2524  0.2125
 5924TIP3    H239408   4.961   2.467   8.654 -0.0757  0.1620 -0.8677
 5925TIP3   OH239409   6.700   6.715   0.406 -0.7154  0.3155  0.1877
 5925TIP3    H139410   6.652   6.742   0.484  0.1672  1.7783  0.2644
 5925TIP3    H239411   6.784   6.682   0.440 -1.6665 -2.5130  0.0823
 5926TIP3   OH239412   3.451   5.179   6.922 -1.0396 -0.0041  0.0817
 5926TIP3    H139413   3.428   5.189   6.830  3.1217 -0.7275 -1.2247
 5926TIP3    H239414   3.446   5.268   6.957 -1.3748  0.5065 -1.1985
 5927TIP3   OH239415   4.006   2.867   6.085 -0.1312 -0.2778  0.6409
 5927TIP3    H139416   3.937   2.823   6.035  1.0176 -2.1241  0.5652
 5927TIP3    H239417   4.087   2.844   6.039  0.6076  1.3466  1.0592
 5928TIP3   OH239418   4.664   4.501   6.905 -0.4732 -1.0154 -0.2962
 5928TIP3    H139419   4.751   4.533   6.931 -0.5296  0.1043 -1.4080
 5928TIP3    H239420   4.603   4.564   6.942 -0.9433 -2.3910  1.4232
 5929TIP3   OH239421   4.048   3.410   7.072 -0.4628  0.3403 -0.2020
 5929TIP3    H139422   4.100   3.472   7.021  1.3825 -0.5194  0.5519
 5929TIP3    H239423   3.981   3.464   7.114 -0.9261  1.3151 -2.0929
 5930TIP3   OH239424   0.436   5.297   6.632 -0.0562 -0.2248  0.1870
 5930TIP3    H139425   0.470   5.382   6.659  0.2315 -0.1421 -0.4190
 5930TIP3    H239426   0.376   5.317   6.560 -0.1294 -0.5170  0.1645
 5931TIP3   OH239427   2.213   2.918   7.999 -0.2209 -0.4953 -0.3022
 5931TIP3    H139428   2.218   2.826   7.973  0.0823  0.3222 -3.4906
 5931TIP3    H239429   2.305   2.946   8.003 -0.1765 -0.7586  2.7808
 5932TIP3   OH239430   0.938   5.571   7.052  0.1082 -0.1537 -0.1260
 5932TIP3    H139431   1.029   5.541   7.053  0.2143  0.1637 -0.2114
 5932TIP3    H239432   0.935   5.642   7.116 -0.4339 -1.1848  1.0255
 5933TIP3   OH239433   3.821   3.654   0.647  0.7410  0.5540  0.2218
 5933TIP3    H139434   3.861   3.710   0.580  2.1458 -0.4176  0.1879
 5933TIP3    H239435   3.729   3.649   0.623  0.8954  1.6007 -0.6536
 5934TIP3   OH239436   6.283   3.917   8.657 -0.3568 -0.1862 -0.3580
 5934TIP3    H139437   6.343   3.934   8.730 -0.4391 -0.6737 -0.1760
 5934TIP3    H239438   6.294   3.993   8.599  0.1529 -0.0908 -0.1390
 5935TIP3   OH239439   2.802   6.294   1.085 -0.7764  0.8473  0.2062
 5935TIP3    H139440   2.891   6.261   1.072 -0.5034  1.4683  0.4591
 5935TIP3    H239441   2.767   6.306   0.997 -1.3022 -1.1801  0.0822
 5936TIP3   OH239442   2.655   1.916   0.212  0.6394 -0.4612  0.8587
 5936TIP3    H139443   2.738   1.870   0.199  1.2629  1.1830 -1.6447
 5936TIP3    H239444   2.633   1.952   0.126 -2.2698 -0.1313  1.6371
 5937TIP3   OH239445   1.923   1.553   0.835 -0.2548 -0.3938  0.1569
 5937TIP3    H139446   2.017   1.560   0.817  0.1567 -2.1092  1.4585
 5937TIP3    H239447   1.917   1.503   0.916 -2.3323 -2.3047 -1.0542
 5938TIP3   OH239448   0.793   2.684   1.128  0.0285  0.3537 -0.3670
 5938TIP3    H139449   0.859   2.733   1.079  1.2681  1.8215  2.5177
 5938TIP3    H239450   0.733   2.751   1.160 -1.6897 -0.7385 -1.1580
 5939TIP3   OH239451   3.552   4.881   0.165 -0.0065  0.6897  0.0632
 5939TIP3    H139452   3.611   4.950   0.196 -0.5886  1.1378  0.1894
 5939TIP3    H239453   3.520   4.839   0.245  1.9117 -1.1032 -0.0291
 5940TIP3   OH239454   2.305   3.321   7.136  0.1039 -0.4978  0.0932
 5940TIP3    H139455   2.337   3.410   7.152 -1.6372  0.5687 -1.8259
 5940TIP3    H239456   2.262   3.296   7.218 -1.3625  1.3765 -0.0376
 5941TIP3   OH239457   1.714   4.321   1.397 -0.2136 -0.2293  0.6978
 5941TIP3    H139458   1.725   4.389   1.331  2.1051 -1.6894 -0.5544
 5941TIP3    H239459   1.632   4.343   1.440 -0.5119  2.2521 -0.9172
 5942TIP3   OH239460   3.238   1.921   1.330  0.2269 -0.1334  0.0966
 5942TIP3    H139461   3.153   1.935   1.371  1.0902  0.6972  1.7211
 5942TIP3    H239462   3.237   1.975   1.252 -0.3083  0.8641  0.7754
 5943TIP3   OH239463   0.750   1.472   6.195 -0.2484  0.2292 -0.2482
 5943TIP3    H139464   0.699   1.535   6.144  0.7543 -0.4327 -2.1711
 5943TIP3    H239465   0.816   1.525   6.239 -2.3329  1.0769  2.1433
 5944TIP3   OH239466   0.580   3.008   6.018  0.5291 -0.5450 -0.1596
 5944TIP3    H139467   0.487   3.002   5.993  0.0954  0.4823  1.1026
 5944TIP3    H239468   0.579   3.042   6.107  2.1485  1.9019 -0.9563
 5945TIP3   OH239469   0.816   4.034   8.428  0.1084 -0.4896 -0.2913
 5945TIP3    H139470   0.752   3.963   8.420 -0.7477  0.0801  1.0418
 5945TIP3    H239471   0.800   4.070   8.515  0.0995  1.7194 -1.1400
 5946TIP3   OH239472   2.857   3.702   7.116  0.5242  0.0472  0.4318
 5946TIP3    H139473   2.808   3.680   7.037  1.6609  1.4012 -0.6995
 5946TIP3    H239474   2.939   3.653   7.107  1.5421  1.7941 -0.3219
 5947TIP3   OH239475   6.189   1.454   1.891  0.1301 -0.9474 -0.0659
 5947TIP3    H139476   6.260   1.477   1.951 -0.4714  0.6461  0.0847
 5947TIP3    H239477   6.174   1.361   1.906  2.2106 -1.3534 -0.1387
 5948TIP3   OH239478   4.067   3.829   5.737  0.4357  0.5580 -0.0375
 5948TIP3    H139479   4.118   3.840   5.817  1.9277 -1.8292 -0.5459
 5948TIP3    H239480   4.115   3.763   5.687 -2.2911 -0.5900 -1.3452
 5949TIP3   OH239481   1.579   0.782   8.105 -0.2771  0.2381  0.5645
 5949TIP3    H139482   1.527   0.766   8.026 -1.9750  0.5757  1.5749
 5949TIP3    H239483   1.624   0.865   8.088 -0.5775  0.2741 -0.0760
 5950TIP3   OH239484   4.384   3.371   7.640 -0.0250  0.0808 -0.3420
 5950TIP3    H139485   4.410   3.316   7.565 -1.3204 -1.6271  0.3931
 5950TIP3    H239486   4.293   3.394   7.623  0.1608  1.0424 -0.0634
 5951TIP3   OH239487   0.238   3.158   6.889 -0.2298 -0.1261  0.2070
 5951TIP3    H139488   0.239   3.254   6.894  0.0793 -0.1203  0.0552
 5951TIP3    H239489   0.330   3.133   6.888 -0.2765 -0.3342 -1.3261
 5952TIP3   OH239490   4.485   0.953   2.192  0.4421  0.1021 -0.3850
 5952TIP3    H139491   4.536   1.000   2.258  1.8305  0.2113 -1.4732
 5952TIP3    H239492   4.468   1.018   2.124  0.9992 -0.5567 -1.1722
 5953TIP3   OH239493   1.293   0.949   7.162  0.2788  0.2667 -0.0080
 5953TIP3    H139494   1.381   0.984   7.175  0.4811 -0.1642 -0.2037
 5953TIP3    H239495   1.271   0.972   7.072  0.1175  0.5320  0.0982
 5954TIP3   OH239496   6.726   3.540   2.268 -0.4782  0.0308 -0.1221
 5954TIP3    H139497   6.681   3.603   2.211 -0.6410 -0.8099 -0.9589
 5954TIP3    H239498   6.695   3.560   2.356 -0.9665  0.7340 -0.4426
 5955TIP3   OH239499   4.419   5.883   7.613 -0.3634  0.1770 -0.3899
 5955TIP3    H139500   4.405   5.789   7.618  1.3028 -0.1848 -1.5866
 5955TIP3    H239501   4.432   5.901   7.520  2.9901  0.9354  0.0605
 5956TIP3   OH239502   3.979   0.923   1.194  0.3413  0.2304 -0.9293
 5956TIP3    H139503   4.062   0.911   1.241  1.1809  0.0941 -2.3769
 5956TIP3    H239504   3.942   1.004   1.230  0.4499 -0.3725  0.6300
 5957TIP3   OH239505   2.688   2.672   8.166 -0.5960  0.4358  1.1979
 5957TIP3    H139506   2.606   2.658   8.213  0.3395  0.7847  2.9885
 5957TIP3    H239507   2.721   2.755   8.198 -0.5524  1.3906 -1.1042
 5958TIP3   OH239508   4.357   0.673   1.736 -0.4924 -0.8399  0.1066
 5958TIP3    H139509   4.371   0.651   1.644 -1.3150 -0.4705 -0.1162
 5958TIP3    H239510   4.342   0.768   1.735 -2.0282 -1.0617  0.4272
 5959TIP3   OH239511   0.964   2.382   6.591  0.5437  0.0848 -0.3295
 5959TIP3    H139512   0.933   2.306   6.543  0.7595  0.0202 -0.3658
 5959TIP3    H239513   0.961   2.454   6.527  0.2822  0.1192 -0.2778
 5960TIP3   OH239514   4.565   6.616   7.660 -0.3949  0.2247 -0.1294
 5960TIP3    H139515   4.620   6.650   7.731  0.8941 -0.5036 -0.7462
 5960TIP3    H239516   4.622   6.558   7.611 -2.4160 -2.8523  0.8182
 5961TIP3   OH239517   3.914   1.928   6.516 -0.2011 -0.0616 -0.2410
 5961TIP3    H139518   3.963   1.972   6.446 -1.8148 -0.0674 -1.4386
 5961TIP3    H239519   3.926   1.835   6.498  0.5209 -0.0830  0.3309
 5962TIP3   OH239520   3.717   3.013   6.516  0.3749  0.1512 -0.3192
 5962TIP3    H139521   3.622   3.012   6.505  0.4020  0.2742 -0.6027
 5962TIP3    H239522   3.751   2.993   6.429  0.6054 -1.1874  0.0647
 5963TIP3   OH239523   0.085   6.668   7.997  0.8283 -0.0386 -0.3174
 5963TIP3    H139524  -0.001   6.703   7.972 -0.0951 -0.1169  2.3637
 5963TIP3    H239525   0.148   6.716   7.943 -0.8216  0.7904 -1.5961
 5964TIP3   OH239526   6.215   5.093   6.950  0.2186 -0.2709 -0.1850
 5964TIP3    H139527   6.227   5.015   6.895  0.7179 -0.5057  0.2568
 5964TIP3    H239528   6.179   5.158   6.890 -1.6940 -1.2864 -0.2453
 5965TIP3   OH239529   2.015   2.096   7.214  0.0423  0.4217  0.3599
 5965TIP3    H139530   1.952   2.065   7.280  0.9867  0.4061  1.2830
 5965TIP3    H239531   1.978   2.067   7.131 -1.2522  0.5512  0.8562
 5966TIP3   OH239532   1.915   6.521   0.573 -0.1374 -0.3024 -0.5162
 5966TIP3    H139533   1.999   6.536   0.529  0.2508 -0.0343  0.2965
 5966TIP3    H239534   1.936   6.459   0.643 -0.3692  0.6347  0.4187
 5967TIP3   OH239535   2.115   5.325   8.353 -0.2250 -0.0376 -0.4784
 5967TIP3    H139536   2.073   5.241   8.335 -1.0710  0.2406  0.1551
 5967TIP3    H239537   2.192   5.326   8.297 -2.0225  0.2285 -3.1238
 5968TIP3   OH239538   0.787   3.648   0.609  0.7188 -0.0562 -0.2572
 5968TIP3    H139539   0.832   3.731   0.626  1.6187 -0.3416 -1.1671
 5968TIP3    H239540   0.736   3.632   0.689  1.8481  0.5263  0.6153
 5969TIP3   OH239541   1.567   2.173   1.413 -0.1392 -0.2053  0.5003
 5969TIP3    H139542   1.621   2.100   1.383 -0.1687  0.7366 -2.0889
 5969TIP3    H239543   1.477   2.139   1.412  0.0867 -0.9410  2.1244
 5970TIP3   OH239544   3.098   6.214   0.989  0.4338  0.1985  0.4337
 5970TIP3    H139545   3.110   6.165   1.071 -0.1980  0.7127  0.8500
 5970TIP3    H239546   3.081   6.147   0.923  0.8362 -0.2174  0.7459
 5971TIP3   OH239547   2.206   4.543   8.524  0.5505 -0.9521  0.0476
 5971TIP3    H139548   2.289   4.586   8.507  0.3982 -1.0223 -0.9055
 5971TIP3    H239549   2.174   4.516   8.438 -0.4900 -0.8653  0.3837
 5972TIP3   OH239550   5.793   0.141   7.240 -0.1464 -0.1312 -0.5632
 5972TIP3    H139551   5.802   0.080   7.167  1.5286 -1.3315  0.5839
 5972TIP3    H239552   5.856   0.111   7.305 -1.4542  0.9984  1.3336
 5973TIP3   OH239553   4.927   2.449   0.570 -0.3269  0.7158 -0.1814
 5973TIP3    H139554   4.862   2.474   0.504 -0.5436  0.7535  0.0453
 5973TIP3    H239555   4.959   2.532   0.604  3.0006  0.9480 -3.2781
 5974TIP3   OH239556   4.816   4.403   8.160 -0.4430  0.4883 -0.0167
 5974TIP3    H139557   4.730   4.361   8.159 -0.2514  0.0917 -0.1768
 5974TIP3    H239558   4.847   4.396   8.070  0.4790 -0.9019  0.3820
 5975TIP3   OH239559   4.700   4.737   1.973 -0.0847  0.2580  0.2135
 5975TIP3    H139560   4.789   4.770   1.976  0.2582 -0.5090 -0.8135
 5975TIP3    H239561   4.703   4.654   2.021  0.5849 -1.4535 -2.5208
 5976TIP3   OH239562   3.649   0.942   6.388 -0.5945  0.3200  0.1894
 5976TIP3    H139563   3.578   0.955   6.325 -0.4711  2.7765  0.4710
 5976TIP3    H239564   3.727   0.935   6.334 -0.6516  1.1380 -0.0205
 5977TIP3   OH239565   5.674   0.854   8.528  0.0979  0.5029  0.3011
 5977TIP3    H139566   5.656   0.911   8.453  0.7795  2.0930  1.2922
 5977TIP3    H239567   5.753   0.806   8.502 -1.0827 -0.8571 -0.9739
 5978TIP3   OH239568   2.963   2.369   0.984  0.3903  0.2368 -0.0677
 5978TIP3    H139569   2.887   2.347   0.931 -0.8683  1.6457  1.0553
 5978TIP3    H239570   3.010   2.434   0.932 -0.4736  1.1200  0.2369
 5979TIP3   OH239571   1.458   4.696   0.795 -0.1253  0.3061  0.6671
 5979TIP3    H139572   1.484   4.606   0.813 -0.6513  0.4070  2.0015
 5979TIP3    H239573   1.525   4.750   0.837  0.3558  0.5548 -0.3823
 5980TIP3   OH239574   3.696   4.648   7.437 -0.0388 -0.2346  0.5677
 5980TIP3    H139575   3.638   4.617   7.507 -0.5524 -0.3456  0.1035
 5980TIP3    H239576   3.661   4.607   7.358  0.3685  0.1081  0.2079
 5981TIP3   OH239577   4.694   6.040   0.561 -0.2908 -0.0083 -0.0423
 5981TIP3    H139578   4.759   6.050   0.491 -0.2078 -1.3123 -0.1893
 5981TIP3    H239579   4.665   5.949   0.553 -0.5563 -0.0674  1.3913
 5982TIP3   OH239580   2.856   1.148   1.203 -0.5198 -0.2313 -0.8868
 5982TIP3    H139581   2.875   1.056   1.223 -0.7655 -0.3392 -1.1442
 5982TIP3    H239582   2.778   1.168   1.254 -0.1058  0.0176 -0.3475
 5983TIP3   OH239583   3.478   3.494   8.261  0.2988 -0.3091 -0.2899
 5983TIP3    H139584   3.476   3.421   8.323  0.7911  0.2013  0.3531
 5983TIP3    H239585   3.567   3.529   8.269  0.5041 -0.4908 -1.6109
 5984TIP3   OH239586   5.145   1.665   0.684 -0.7434  0.0686  0.6460
 5984TIP3    H139587   5.098   1.741   0.650 -0.9834 -0.4992 -0.3306
 5984TIP3    H239588   5.096   1.638   0.761 -2.2513 -0.6945 -0.5209
 5985TIP3   OH239589   2.521   1.480   0.695 -0.0688 -0.1542  0.0191
 5985TIP3    H139590   2.447   1.490   0.634 -1.7613  1.5207  2.1989
 5985TIP3    H239591   2.546   1.570   0.717  1.8256 -0.7209  0.3019
 5986TIP3   OH239592   4.346   1.240   7.709 -0.0428 -0.2535 -0.0926
 5986TIP3    H139593   4.255   1.230   7.737 -0.0546 -0.4621 -0.2028
 5986TIP3    H239594   4.370   1.154   7.674  0.4769 -0.4722  0.7594
 5987TIP3   OH239595   6.686   6.449   0.336 -0.1602  0.5055 -0.0173
 5987TIP3    H139596   6.745   6.510   0.381  0.3810 -2.4168  3.7447
 5987TIP3    H239597   6.598   6.479   0.358  0.1032 -0.4195  2.6360
 5988TIP3   OH239598   0.177   4.861   6.934 -0.2081 -0.2991  0.1599
 5988TIP3    H139599   0.268   4.877   6.908  0.1544 -1.8724  0.3476
 5988TIP3    H239600   0.131   4.940   6.910  1.2243  0.5464  0.0725
 5989TIP3   OH239601   4.883   0.127   8.531  0.0228 -0.0574  0.7786
 5989TIP3    H139602   4.928   0.207   8.504 -0.3422 -0.0871  0.0673
 5989TIP3    H239603   4.894   0.124   8.626 -1.1202  1.5647  0.9951
 5990TIP3   OH239604   5.966   2.195   7.366  0.2667 -0.2354 -0.3095
 5990TIP3    H139605   5.893   2.166   7.313 -0.5317  0.5702  0.3109
 5990TIP3    H239606   6.025   2.120   7.371 -1.2917 -1.4600  0.5208
 5991TIP3   OH239607   2.151   0.298   7.715 -0.5254 -0.5044 -0.0938
 5991TIP3    H139608   2.197   0.308   7.631 -0.5614 -0.4123 -0.1026
 5991TIP3    H239609   2.098   0.219   7.704 -0.9994 -0.1546 -0.3743
 5992TIP3   OH239610   1.695   0.869   1.039 -0.2089 -0.0834 -0.0059
 5992TIP3    H139611   1.772   0.827   1.076  0.7565  0.7059 -1.0482
 5992TIP3    H239612   1.692   0.955   1.079 -0.3678  0.0035 -0.1993
 5993TIP3   OH239613   3.872   2.192   2.414  0.3369  0.2465  0.2770
 5993TIP3    H139614   3.797   2.179   2.473 -0.0752 -0.0712 -0.2991
 5993TIP3    H239615   3.904   2.103   2.397 -0.3302  0.2133 -0.9473
 5994TIP3   OH239616   5.754   2.469   1.411  0.0968 -0.0273  0.0243
 5994TIP3    H139617   5.796   2.400   1.359 -0.9472  1.0175 -2.3589
 5994TIP3    H239618   5.661   2.450   1.407 -0.0272  0.1216  1.5415
 5995TIP3   OH239619   0.020   2.341   0.186 -0.4599  0.3882  0.2090
 5995TIP3    H139620  -0.067   2.368   0.215 -0.2546 -0.6451  1.9149
 5995TIP3    H239621   0.075   2.418   0.202 -0.7760  0.5426  0.5861
 5996TIP3   OH239622   4.064   3.058   6.289  0.0441 -0.4334 -0.3966
 5996TIP3    H139623   4.104   3.129   6.339 -1.0657 -0.2846  0.3085
 5996TIP3    H239624   4.098   3.070   6.200 -0.6729  1.4458 -0.4801
 5997TIP3   OH239625   6.822   5.015   7.315 -0.3444 -0.4931 -0.5354
 5997TIP3    H139626   6.750   5.025   7.253 -0.6994  0.9660  0.0665
 5997TIP3    H239627   6.800   5.074   7.387  0.9747 -0.7429  0.1026
 5998TIP3   OH239628   4.395   1.163   0.337  1.1512 -0.1271  0.2002
 5998TIP3    H139629   4.306   1.182   0.366  1.3652 -1.6420  2.0454
 5998TIP3    H239630   4.439   1.129   0.415  2.8072 -1.1605 -1.1125
 5999TIP3   OH239631   1.777   2.491   7.413  0.5507 -0.4836 -0.0229
 5999TIP3    H139632   1.693   2.471   7.371 -1.1195  1.1474  2.2986
 5999TIP3    H239633   1.802   2.409   7.456  0.5296 -1.1624 -1.2323
 6000TIP3   OH239634   0.299   5.035   7.881  0.6475  0.6274  0.3077
 6000TIP3    H139635   0.247   4.985   7.944  1.1759 -0.5264 -0.1530
 6000TIP3    H239636   0.389   5.028   7.912  0.6655  1.7858  0.5524
 6001TIP3   OH239637   4.514   4.526   7.752 -0.1755  0.0759 -0.1907
 6001TIP3    H139638   4.563   4.588   7.806  0.5117  0.0561 -0.7805
 6001TIP3    H239639   4.436   4.574   7.725 -0.0909  0.3794  0.0938
 6002TIP3   OH239640   0.085   2.868   1.234  0.0838 -0.3786 -0.1538
 6002TIP3    H139641   0.054   2.777   1.244 -3.7389  0.2986 -3.2732
 6002TIP3    H239642   0.095   2.879   1.139  0.1722  2.5302  0.1196
 6003TIP3   OH239643   3.131   6.209   7.658  0.2694 -0.4649  0.4944
 6003TIP3    H139644   3.171   6.131   7.620  0.8983  0.7777 -1.5801
 6003TIP3    H239645   3.037   6.197   7.646  0.3594 -0.9403  0.2703
 6004TIP3   OH239646   2.970   4.289   7.874 -0.2434  0.5135  0.7031
 6004TIP3    H139647   2.922   4.356   7.922 -1.2480 -0.2491  0.8024
 6004TIP3    H239648   2.990   4.330   7.789 -0.4773  1.0785  0.9190
 6005TIP3   OH239649   3.580   1.366   0.241 -0.1494  0.0297  0.6425
 6005TIP3    H139650   3.618   1.453   0.230 -0.8587  0.2131 -0.6291
 6005TIP3    H239651   3.655   1.308   0.254  0.3803  0.7163  0.7279
 6006TIP3   OH239652   3.510   1.400   6.738 -0.3580 -0.4165  0.1113
 6006TIP3    H139653   3.520   1.320   6.790  1.5107  1.1502  2.3595
 6006TIP3    H239654   3.417   1.421   6.745 -0.8163 -2.1673 -0.2160
 6007TIP3   OH239655   3.350   5.163   6.663 -0.4810  0.0579 -0.0501
 6007TIP3    H139656   3.255   5.157   6.658 -0.5543  1.5895 -1.6001
 6007TIP3    H239657   3.382   5.113   6.588  0.0703 -1.7542  1.3109
 6008TIP3   OH239658   6.860   3.070   0.455 -0.3493  0.6042 -0.3436
 6008TIP3    H139659   6.815   3.010   0.394 -0.5936  0.2002  0.2228
 6008TIP3    H239660   6.820   3.155   0.439  0.1328  0.6681 -1.2962
 6009TIP3   OH239661   0.760   1.504   1.734 -0.0453 -0.5778  0.0430
 6009TIP3    H139662   0.818   1.569   1.774 -0.3775  1.7663 -2.8841
 6009TIP3    H239663   0.818   1.432   1.708  1.3205  0.8885 -1.1729
 6010TIP3   OH239664   0.545   5.420   7.761 -0.8356 -0.2253  0.5610
 6010TIP3    H139665   0.541   5.374   7.845 -1.2983 -0.5113  0.3816
 6010TIP3    H239666   0.557   5.351   7.696 -1.3086 -0.0765  0.3108
 6011TIP3   OH239667   5.040   1.410   6.700  0.1448  0.1254  0.1296
 6011TIP3    H139668   4.979   1.480   6.726 -1.7344 -0.7064 -1.6927
 6011TIP3    H239669   5.124   1.435   6.739 -0.9459  2.2710  1.2876
 6012TIP3   OH239670   6.164   3.564   0.589  0.0628 -1.0842  0.1763
 6012TIP3    H139671   6.157   3.519   0.673 -0.6178 -0.1696  0.6291
 6012TIP3    H239672   6.254   3.597   0.587 -0.6962  1.3106  1.8504
 6013TIP3   OH239673   6.654   5.512   8.311  0.2170 -0.5228  0.4250
 6013TIP3    H139674   6.644   5.607   8.312 -1.7256 -0.6526  2.2655
 6013TIP3    H239675   6.623   5.485   8.225 -0.2986  0.4348  0.2960
 6014TIP3   OH239676   3.563   0.598   6.609 -0.4104 -0.0160 -0.0737
 6014TIP3    H139677   3.505   0.546   6.553 -0.8187  0.0981  0.2317
 6014TIP3    H239678   3.626   0.637   6.549 -0.0378 -0.9321 -0.3013
 6015TIP3   OH239679   0.240   5.095   1.724 -0.4135  0.0406  0.6958
 6015TIP3    H139680   0.238   5.060   1.813  0.3264 -0.1997  0.6208
 6015TIP3    H239681   0.311   5.158   1.724  0.9184 -1.3861 -0.2334
 6016TIP3   OH239682   2.561   2.841   6.411  0.1617 -0.5504 -0.4331
 6016TIP3    H139683   2.542   2.920   6.461  0.5484  0.2179 -1.4798
 6016TIP3    H239684   2.561   2.869   6.320 -0.4808 -1.9209 -0.8820
 6017TIP3   OH239685   5.814   3.036   7.019  0.9768 -0.0808 -0.6747
 6017TIP3    H139686   5.817   2.953   7.067  0.5629 -1.6080 -3.1129
 6017TIP3    H239687   5.903   3.048   6.985  1.0706  0.5676 -0.2217
 6018TIP3   OH239688   0.196   3.556   7.452  0.2428 -0.5592  0.1505
 6018TIP3    H139689   0.263   3.620   7.426 -0.8153  0.5346  0.0594
 6018TIP3    H239690   0.116   3.585   7.408 -1.2021  0.2994  3.0802
 6019TIP3   OH239691   1.415   3.293   0.651 -0.5598  0.4106  0.1636
 6019TIP3    H139692   1.406   3.371   0.706 -1.9300  1.6412 -1.7060
 6019TIP3    H239693   1.509   3.275   0.652 -0.4168  0.9814  2.0354
 6020TIP3   OH239694   3.153   3.221   7.298  0.4676 -0.1760  0.3961
 6020TIP3    H139695   3.158   3.315   7.315 -1.2924 -0.3143  1.9529
 6020TIP3    H239696   3.237   3.187   7.328  0.5066  0.6942  1.3314
 6021TIP3   OH239697   6.345   1.604   8.210  0.0686 -0.0591 -0.5273
 6021TIP3    H139698   6.298   1.648   8.280 -0.6702  1.3156 -1.8255
 6021TIP3    H239699   6.437   1.612   8.234  0.0280  2.7841 -0.9403
 6022TIP3   OH239700   0.316   4.701   6.022  0.0889  0.0208  0.1825
 6022TIP3    H139701   0.408   4.676   6.027 -0.1315 -0.5863  1.9720
 6022TIP3    H239702   0.297   4.740   6.107 -1.5901 -0.9826  0.3255
 6023TIP3   OH239703   1.469   2.644   1.284 -0.1093  0.0862  0.3415
 6023TIP3    H139704   1.524   2.662   1.208 -0.9364 -0.4824 -0.4117
 6023TIP3    H239705   1.531   2.619   1.353  0.7557  1.8987  0.2692
 6024TIP3   OH239706   0.458   2.047   6.977  0.2145 -0.4094  0.4210
 6024TIP3    H139707   0.539   2.089   7.007  0.6883 -0.3901 -0.8068
 6024TIP3    H239708   0.430   2.101   6.902 -1.0427 -0.3146  0.9427
 6025TIP3   OH239709   0.113   5.422   0.087 -0.1513  0.4281 -0.1402
 6025TIP3    H139710   0.146   5.449   0.000  0.7918  0.3105  0.1638
 6025TIP3    H239711   0.190   5.384   0.130 -0.7043  0.1594  0.6183
 6026TIP3   OH239712   2.169   2.302   8.703 -0.4583  0.0593  0.3542
 6026TIP3    H139713   2.105   2.271   8.767  0.0251  1.3464  1.4961
 6026TIP3    H239714   2.178   2.229   8.641 -1.7230 -0.8018  1.1421
 6027TIP3   OH239715   3.552   3.403   5.878  0.3613  0.0088  0.3902
 6027TIP3    H139716   3.606   3.452   5.816  1.6776 -2.3574 -0.4702
 6027TIP3    H239717   3.608   3.390   5.954 -0.2991  0.6113  0.9870
 6028TIP3   OH239718   0.916   3.210   7.433 -1.0079  0.4124  0.2540
 6028TIP3    H139719   0.874   3.199   7.518 -1.3025 -0.5163 -0.0069
 6028TIP3    H239720   0.935   3.121   7.403  1.9421  0.7635  0.7446
 6029TIP3   OH239721   5.831   5.509   7.190 -0.5906 -1.1586  0.2027
 6029TIP3    H139722   5.808   5.421   7.159 -2.5434 -0.9636  0.9476
 6029TIP3    H239723   5.873   5.494   7.275  0.2397 -1.4286 -0.2486
 6030TIP3   OH239724   6.535   0.257   1.318 -0.1477  0.6331 -0.2672
 6030TIP3    H139725   6.515   0.314   1.244  1.7512  1.1646 -0.4143
 6030TIP3    H239726   6.587   0.186   1.280 -0.8763 -0.1815  0.2354
 6031TIP3   OH239727   0.956   6.049   7.833 -0.3344  0.9847  0.5833
 6031TIP3    H139728   0.982   6.113   7.767  0.7597  0.6113  0.6273
 6031TIP3    H239729   0.971   6.094   7.917  1.7794  0.2638  0.6686
 6032TIP3   OH239730   1.101   0.556   6.384  0.3506 -0.2038  0.0329
 6032TIP3    H139731   1.072   0.465   6.373 -3.6109  0.7073  1.3163
 6032TIP3    H239732   1.136   0.559   6.473  1.6665 -0.6616 -0.4413
 6033TIP3   OH239733   3.944   5.062   6.660 -0.1347  0.1634 -0.0586
 6033TIP3    H139734   3.910   5.009   6.588  0.1219 -1.2368  0.8191
 6033TIP3    H239735   4.038   5.066   6.644 -0.2611  1.2384 -0.6648
 6034TIP3   OH239736   3.983   3.113   0.608 -0.2974 -0.6554 -0.1402
 6034TIP3    H139737   3.974   3.208   0.614 -0.3665 -0.6782  0.1437
 6034TIP3    H239738   3.893   3.080   0.606 -0.3942 -0.9115  3.1917
 6035TIP3   OH239739   4.694   6.811   8.105 -0.3784  1.0380  0.2890
 6035TIP3    H139740   4.721   6.870   8.175  0.8335  1.9892 -0.9283
 6035TIP3    H239741   4.776   6.785   8.062 -0.7945 -2.0397  1.1178
 6036TIP3   OH239742   0.499   3.243   1.874 -0.1596  0.1599  0.8434
 6036TIP3    H139743   0.413   3.204   1.889 -0.9905  2.1004  1.3987
 6036TIP3    H239744   0.520   3.288   1.956  1.5232 -0.4650  0.8061
 6037TIP3   OH239745   4.113   4.880   6.999 -0.1929  0.4058 -0.3927
 6037TIP3    H139746   4.044   4.944   6.981 -1.1882 -0.8867 -1.3682
 6037TIP3    H239747   4.066   4.802   7.029  1.0615  0.5063  2.1314
 6038TIP3   OH239748   2.026   3.878   0.942  0.1069 -0.3043 -0.1014
 6038TIP3    H139749   2.051   3.785   0.940 -0.4519 -0.4615  0.0055
 6038TIP3    H239750   1.989   3.895   0.855 -0.6158 -0.4197  0.1808
 6039TIP3   OH239751   4.628   6.272   1.726 -0.2026 -0.6058 -0.2406
 6039TIP3    H139752   4.616   6.351   1.778 -1.4850 -0.0170 -1.3614
 6039TIP3    H239753   4.625   6.201   1.790  0.1831  0.1964  0.6939
 6040TIP3   OH239754   5.475   1.352   6.413  0.1265  0.6672  0.0704
 6040TIP3    H139755   5.380   1.366   6.418 -0.0188  0.4066 -1.4395
 6040TIP3    H239756   5.511   1.410   6.480 -1.0537  1.3507  0.1527
 6041TIP3   OH239757   5.099   2.280   0.907  0.3064  0.0187 -0.6899
 6041TIP3    H139758   5.097   2.252   0.999  3.0740  1.1889 -0.1560
 6041TIP3    H239759   5.009   2.303   0.887 -1.4734 -4.9959  0.0690
 6042TIP3   OH239760   3.733   0.476   7.781 -0.1537  0.0385  0.3540
 6042TIP3    H139761   3.821   0.461   7.748  0.0427  0.3982  0.6947
 6042TIP3    H239762   3.716   0.402   7.840 -0.2603 -0.2706 -0.0632
 6043TIP3   OH239763   5.532   2.955   7.822  0.0181  0.3140  0.0179
 6043TIP3    H139764   5.566   2.895   7.888  1.0771  1.4093  0.4984
 6043TIP3    H239765   5.437   2.946   7.828  0.1546 -1.2611  0.1106
 6044TIP3   OH239766   5.432   0.875   0.974 -0.4841 -0.0820  0.2666
 6044TIP3    H139767   5.358   0.905   1.028 -1.4938  0.3873 -1.3268
 6044TIP3    H239768   5.451   0.788   1.008 -1.1365  0.1573  1.3322
 6045TIP3   OH239769   2.316   4.430   1.053 -0.1150 -0.1342  0.1160
 6045TIP3    H139770   2.369   4.505   1.025  0.8202 -0.5689  0.6762
 6045TIP3    H239771   2.289   4.388   0.971 -0.1443  0.4690 -0.1882
 6046TIP3   OH239772   5.977   3.775   7.582 -0.5986 -0.0088 -0.5012
 6046TIP3    H139773   6.022   3.727   7.513 -0.7934 -0.2676 -0.4527
 6046TIP3    H239774   5.915   3.711   7.619 -1.2651  0.4487 -0.8102
 6047TIP3   OH239775   4.654   2.896   8.139  0.5610 -0.2856 -0.3781
 6047TIP3    H139776   4.595   2.834   8.182  0.2175 -0.5497 -1.2052
 6047TIP3    H239777   4.631   2.890   8.046 -1.2200  2.8630 -0.2838
 6048TIP3   OH239778   5.314   0.464   8.316 -0.0392  0.1115  0.2145
 6048TIP3    H139779   5.402   0.436   8.343  0.9389  2.2910 -0.4564
 6048TIP3    H239780   5.306   0.553   8.351 -2.4001 -0.3505  1.0554
 6049TIP3   OH239781   5.607   1.869   6.797  0.2444  0.3935  0.1891
 6049TIP3    H139782   5.607   1.847   6.704  2.4758  0.7208  0.0414
 6049TIP3    H239783   5.696   1.903   6.813 -0.2184  0.7309  2.3442
 6050TIP3   OH239784   5.640   2.325   1.068 -0.1648 -0.5978  0.1431
 6050TIP3    H139785   5.681   2.290   0.989 -0.6996 -1.7688  0.3643
 6050TIP3    H239786   5.697   2.397   1.095 -0.0935 -0.0174 -1.4276
 6051TIP3   OH239787   5.881   1.948   6.871 -0.0788  0.2789 -0.3230
 6051TIP3    H139788   5.843   1.936   6.958 -0.7810  0.2235 -0.6290
 6051TIP3    H239789   5.971   1.976   6.887  0.5810 -2.0840  0.4400
 6052TIP3   OH239790   5.541   4.100   7.070 -0.3027 -0.0474  0.1636
 6052TIP3    H139791   5.492   4.182   7.070 -0.5086 -0.1235  2.0748
 6052TIP3    H239792   5.475   4.032   7.079 -0.1129 -0.4334 -1.1424
 6053TIP3   OH239793   3.994   4.607   8.309 -0.0100 -0.2350  0.2020
 6053TIP3    H139794   4.026   4.685   8.354  0.3891 -1.3588  1.9467
 6053TIP3    H239795   4.069   4.548   8.307 -0.4686 -0.8079 -0.5915
 6054TIP3   OH239796   1.735   4.729   1.447 -0.4396  0.0645 -0.0894
 6054TIP3    H139797   1.721   4.822   1.429 -0.6901  0.0278 -0.0818
 6054TIP3    H239798   1.669   4.707   1.513  1.0927  0.4362  1.6558
 6055TIP3   OH239799   6.452   2.790   5.997 -0.1259 -0.1962  0.5260
 6055TIP3    H139800   6.528   2.831   5.956 -1.0196 -0.8054 -1.8795
 6055TIP3    H239801   6.466   2.696   5.985 -0.0365 -0.4708  2.4196
 6056TIP3   OH239802   5.843   0.556   7.055 -0.3049  0.3933 -0.1670
 6056TIP3    H139803   5.848   0.461   7.061 -0.1768  0.4288  0.2658
 6056TIP3    H239804   5.927   0.583   7.017  0.4350  0.4834  1.4507
 6057TIP3   OH239805   0.878   6.559   7.371 -0.1846  0.0487  0.6470
 6057TIP3    H139806   0.802   6.603   7.408 -0.4824 -0.1696  0.2892
 6057TIP3    H239807   0.933   6.630   7.337 -0.6778  0.1407  0.0437
 6058TIP3   OH239808   0.689   5.808   0.641 -0.5632 -0.0245  0.0122
 6058TIP3    H139809   0.731   5.869   0.581 -0.1394 -0.3337 -0.0128
 6058TIP3    H239810   0.732   5.825   0.726 -1.0720  0.3260  0.2054
 6059TIP3   OH239811   0.206   5.548   8.605 -0.1768 -0.8393 -0.5116
 6059TIP3    H139812   0.233   5.499   8.528  1.4540 -0.9771  0.1062
 6059TIP3    H239813   0.281   5.603   8.626 -1.1754  0.3568  0.0734
 6060TIP3   OH239814   1.637   5.636   0.970 -0.4068 -0.0538 -0.3758
 6060TIP3    H139815   1.634   5.578   1.046 -1.9790 -0.5514 -0.7653
 6060TIP3    H239816   1.556   5.687   0.975  0.9976  2.2911  0.0397
 6061TIP3   OH239817   3.072   1.877   6.633  0.4304  0.2777 -0.0218
 6061TIP3    H139818   3.167   1.869   6.630  0.8041  2.5479  2.3851
 6061TIP3    H239819   3.047   1.839   6.717 -0.7734  0.0294 -0.4693
 6062TIP3   OH239820   6.621   4.491   6.195  0.0768 -0.3098  0.0095
 6062TIP3    H139821   6.547   4.440   6.231  0.8576  0.4908  3.0579
 6062TIP3    H239822   6.581   4.547   6.129 -1.3181 -2.6267 -1.2644
 6063TIP3   OH239823   5.538   4.728   6.781  0.5413 -0.2131 -0.4758
 6063TIP3    H139824   5.484   4.651   6.762  1.8297 -0.7138 -2.3344
 6063TIP3    H239825   5.486   4.778   6.844 -0.0513 -2.9211  1.3798
 6064TIP3   OH239826   1.425   0.292   8.095 -0.0877  0.5400  0.7150
 6064TIP3    H139827   1.371   0.331   8.164  0.0221 -0.2161  1.2407
 6064TIP3    H239828   1.514   0.319   8.117  0.2264 -1.4332  2.1264
 6065TIP3   OH239829   0.699   2.421   0.789 -0.4840  0.1304 -0.6153
 6065TIP3    H139830   0.608   2.394   0.799 -0.0993 -1.3797 -0.9786
 6065TIP3    H239831   0.698   2.516   0.804 -2.1773  0.2123 -1.0971
 6066TIP3   OH239832   0.151   0.988   8.735  0.3740  0.3024  0.0976
 6066TIP3    H139833   0.241   0.981   8.767  0.3148  1.4835  0.5719
 6066TIP3    H239834   0.150   1.069   8.684 -0.2624 -0.0641 -0.5039
 6067TIP3   OH239835   3.706   1.892   5.881 -0.1026 -0.2955  0.0363
 6067TIP3    H139836   3.651   1.882   5.959  0.9438 -3.4293  0.5162
 6067TIP3    H239837   3.782   1.942   5.912 -1.1465  1.3213  0.1350
 6068TIP3   OH239838   3.777   1.201   8.684 -0.5313 -0.5208 -0.0225
 6068TIP3    H139839   3.766   1.139   8.756 -0.3343 -1.0207 -0.4180
 6068TIP3    H239840   3.745   1.284   8.719  1.4634 -0.2482  1.3715
 6069TIP3   OH239841   5.689   3.559   2.410 -0.1228  0.3520 -0.1669
 6069TIP3    H139842   5.729   3.524   2.331 -0.4082  1.1947 -0.7070
 6069TIP3    H239843   5.675   3.652   2.390 -3.6509 -0.1275 -0.6043
 6070TIP3   OH239844   0.435   4.812   1.709  0.3671 -0.1330  0.3820
 6070TIP3    H139845   0.394   4.743   1.761 -2.1657  1.1443  0.2457
 6070TIP3    H239846   0.458   4.880   1.772 -1.8883  1.0305  0.0620
 6071TIP3   OH239847   1.611   5.117   6.180 -0.5446  0.1776 -0.3579
 6071TIP3    H139848   1.518   5.121   6.156 -0.4086 -0.5666 -1.0276
 6071TIP3    H239849   1.615   5.050   6.248 -0.5375  0.4332 -0.1027
 6072TIP3   OH239850   3.949   1.643   8.250  0.0083  0.5664 -0.1645
 6072TIP3    H139851   3.867   1.602   8.222 -0.5646  2.1523 -0.9148
 6072TIP3    H239852   4.002   1.570   8.282 -0.7762 -0.8301 -1.8648
 6073TIP3   OH239853   0.107   5.884   0.611 -0.2560  0.0130  0.2285
 6073TIP3    H139854   0.128   5.977   0.603  0.6234 -0.1390  0.6974
 6073TIP3    H239855   0.011   5.881   0.606 -0.3740  1.0670  1.3710
 6074TIP3   OH239856   3.812   2.322   8.203  0.4015 -0.5040 -0.1041
 6074TIP3    H139857   3.792   2.375   8.126  0.5871  0.4083  0.4607
 6074TIP3    H239858   3.727   2.312   8.247  0.7071  1.2890  0.9928
 6075TIP3   OH239859   5.610   2.322   0.159  0.0560  0.2487 -0.0430
 6075TIP3    H139860   5.543   2.296   0.223 -1.0922  0.1998 -1.2192
 6075TIP3    H239861   5.674   2.251   0.160  0.1033  0.2926  1.1060
 6076TIP3   OH239862   1.995   4.498   6.650  0.1721  0.0898 -0.2459
 6076TIP3    H139863   2.044   4.500   6.568 -0.4930  0.9500 -0.6408
 6076TIP3    H239864   1.905   4.477   6.624  0.6103 -3.4522  0.6558
 6077TIP3   OH239865   1.949   1.361   8.566  0.3959 -0.1580  0.4164
 6077TIP3    H139866   2.020   1.400   8.619 -0.4332  1.5616  0.3417
 6077TIP3    H239867   1.882   1.339   8.631  0.9022 -1.6097  0.4657
 6078TIP3   OH239868   4.872   1.632   6.774 -0.0494 -1.0126 -0.1992
 6078TIP3    H139869   4.795   1.616   6.829  0.1011  0.9748  0.6730
 6078TIP3    H239870   4.844   1.698   6.711  0.6971 -0.9015 -0.4320
 6079TIP3   OH239871   4.951   1.542   7.383  0.2462  0.0754  0.3062
 6079TIP3    H139872   4.914   1.462   7.422 -1.7194  0.8072  0.0597
 6079TIP3    H239873   4.960   1.521   7.290 -0.2062  0.1203  0.2516
 6080TIP3   OH239874   2.774   6.121   8.454  0.3296  0.1973  0.4628
 6080TIP3    H139875   2.752   6.122   8.361 -2.4988  0.0487  1.0463
 6080TIP3    H239876   2.836   6.049   8.464  1.8372  1.1266 -1.4727
 6081TIP3   OH239877   0.830   0.082   1.472  0.0362  0.4647 -0.3124
 6081TIP3    H139878   0.771   0.055   1.402  0.5164  1.1817 -1.0043
 6081TIP3    H239879   0.915   0.045   1.448  0.6259  2.2083 -1.0857
 6082TIP3   OH239880   5.220   1.506   7.901 -0.4617 -0.0389  0.2988
 6082TIP3    H139881   5.308   1.538   7.880 -0.8901  1.1018  0.2202
 6082TIP3    H239882   5.223   1.490   7.996  0.3225 -1.6347  0.0554
 6083TIP3   OH239883   4.587   5.066   1.142  0.3646  0.2676 -0.6537
 6083TIP3    H139884   4.504   5.024   1.162  0.3444  0.2644 -0.7453
 6083TIP3    H239885   4.567   5.160   1.138  0.4995  0.3295  0.0103
 6084TIP3   OH239886   1.167   1.877   7.561  0.6556 -0.0576  0.4166
 6084TIP3    H139887   1.091   1.885   7.618 -0.6460  0.5721 -1.3334
 6084TIP3    H239888   1.240   1.911   7.613 -0.9577  3.2775  0.7627
 6085TIP3   OH239889   4.920   2.510   2.190  0.5121  0.6838  0.0909
 6085TIP3    H139890   4.991   2.538   2.247 -0.0289  0.6884  0.7722
 6085TIP3    H239891   4.910   2.417   2.208  0.6460  0.5859 -0.3377
 6086TIP3   OH239892   4.278   1.921   6.956 -0.2680  0.3399 -0.2101
 6086TIP3    H139893   4.221   1.845   6.961 -0.9829  0.8299 -0.7599
 6086TIP3    H239894   4.351   1.900   7.015  0.1122 -1.2393 -1.1610
 6087TIP3   OH239895   0.089   3.965   6.096  0.0688 -0.2090  0.6799
 6087TIP3    H139896   0.032   3.907   6.046  0.9944 -0.6305  0.0771
 6087TIP3    H239897   0.175   3.954   6.056  0.0496  2.5682 -0.2855
 6088TIP3   OH239898   4.748   4.761   6.198  0.8761 -0.2447  0.7625
 6088TIP3    H139899   4.773   4.681   6.245  0.9433  0.8369  2.6726
 6088TIP3    H239900   4.657   4.747   6.173  1.1119 -1.2023  0.4017
 6089TIP3   OH239901   2.521   2.071   2.045 -0.4565 -0.6959  0.4525
 6089TIP3    H139902   2.526   2.162   2.075 -2.7951  0.8636 -3.1502
 6089TIP3    H239903   2.550   2.075   1.954 -1.2075 -3.4789  0.0128
 6090TIP3   OH239904   3.737   4.048   1.750 -0.2079 -0.2325  0.7302
 6090TIP3    H139905   3.679   4.074   1.678 -0.1238 -0.0630  0.7244
 6090TIP3    H239906   3.813   4.009   1.706  0.9211  1.9434  0.6088
 6091TIP3   OH239907   0.120   6.041   8.002  0.1705 -0.1700  0.2497
 6091TIP3    H139908   0.157   6.082   8.080 -0.0922  0.9215 -0.1781
 6091TIP3    H239909   0.191   5.988   7.966  0.5300 -0.0623  0.7949
 6092TIP3   OH239910   0.008   5.705   1.992 -0.5643 -0.3075 -0.3529
 6092TIP3    H139911   0.050   5.634   1.944  1.2838  0.4162  0.0681
 6092TIP3    H239912  -0.049   5.748   1.928 -1.0439 -1.6157 -0.8344
 6093TIP3   OH239913   0.655   0.653   7.982  0.1087 -0.3407 -0.5929
 6093TIP3    H139914   0.622   0.569   7.948  0.0458 -0.4664 -0.2285
 6093TIP3    H239915   0.747   0.655   7.956  0.5025 -1.1910  0.6234
 6094TIP3   OH239916   4.489   3.571   0.360 -0.3708 -0.2997 -0.8145
 6094TIP3    H139917   4.474   3.655   0.404  1.0045 -0.7771  0.6635
 6094TIP3    H239918   4.481   3.506   0.430 -2.4669 -1.5647 -2.1176
 6095TIP3   OH239919   2.103   0.011   1.488  0.3187 -0.3588  0.1814
 6095TIP3    H139920   2.186  -0.024   1.455 -0.3348 -0.8075 -1.0424
 6095TIP3    H239921   2.088  -0.037   1.570  1.5605  0.1681  0.7379
 6096TIP3   OH239922   0.513   4.746   0.262  0.0610  0.1715  0.1878
 6096TIP3    H139923   0.504   4.695   0.342 -0.1740  0.8931  0.6364
 6096TIP3    H239924   0.477   4.832   0.284  0.4027  0.5212 -0.5582
 6097TIP3   OH239925   5.661   5.513   0.066 -0.1127 -0.1287 -0.1905
 6097TIP3    H139926   5.613   5.571   0.006 -0.6101  1.0372  1.2566
 6097TIP3    H239927   5.601   5.441   0.084  0.0422 -0.4857 -1.0766
 6098TIP3   OH239928   3.533   1.930   6.436  0.5632  0.2602 -0.5383
 6098TIP3    H139929   3.600   1.914   6.370  1.2650 -0.9567  0.4117
 6098TIP3    H239930   3.485   2.007   6.404  0.5787 -0.5457 -2.6588
 6099TIP3   OH239931   3.248   1.875   0.753 -0.4602  0.2501 -0.4709
 6099TIP3    H139932   3.228   1.819   0.678 -0.4664 -1.0674  0.4850
 6099TIP3    H239933   3.175   1.937   0.757 -2.3541 -1.9304  0.5507
 6100TIP3   OH239934   5.877   0.985   7.716  0.3632 -0.3342 -0.1718
 6100TIP3    H139935   5.964   0.957   7.744  1.6548  2.0260 -1.5511
 6100TIP3    H239936   5.866   0.947   7.629  0.4457  0.2074 -0.4188
 6101TIP3   OH239937   1.204   0.584   0.415 -0.0265 -0.4388  0.0179
 6101TIP3    H139938   1.138   0.542   0.359 -1.9308 -0.5703  2.2264
 6101TIP3    H239939   1.270   0.516   0.429  0.0197 -0.6889 -1.2925
 6102TIP3   OH239940   3.865   4.305   0.472  0.5911 -0.0786  0.1872
 6102TIP3    H139941   3.804   4.378   0.483  0.0797 -0.5889  0.7082
 6102TIP3    H239942   3.889   4.279   0.561  1.1956 -0.2020 -0.0045
 6103TIP3   OH239943   4.553   1.785   0.327  0.1368  0.1887 -0.1790
 6103TIP3    H139944   4.566   1.874   0.292 -1.5300  0.7777  0.5849
 6103TIP3    H239945   4.503   1.799   0.408  0.6047 -1.4060  0.4126
 6104TIP3   OH239946   1.548   1.704   7.026 -0.3868 -0.9321  1.0413
 6104TIP3    H139947   1.460   1.670   7.042 -1.2888  0.9171  0.2591
 6104TIP3    H239948   1.542   1.797   7.046  1.1448 -0.5877  0.0315
 6105TIP3   OH239949   0.328   1.260   6.130 -0.4668 -0.3173 -0.1774
 6105TIP3    H139950   0.249   1.208   6.120 -0.5916 -0.5918  1.8013
 6105TIP3    H239951   0.380   1.241   6.052 -1.2685 -2.0495 -0.3243
 6106TIP3   OH239952   4.593   6.445   7.046  0.4884 -0.1566  0.3401
 6106TIP3    H139953   4.626   6.391   7.117  1.3295  1.0144  0.8689
 6106TIP3    H239954   4.523   6.498   7.086  2.4055  2.0790  0.9198
 6107TIP3   OH239955   3.512   5.012   0.839 -0.2515  0.1314  0.7321
 6107TIP3    H139956   3.475   4.924   0.849  0.6057 -0.2246  0.8485
 6107TIP3    H239957   3.534   5.019   0.747  0.1520  0.0328  0.8206
 6108TIP3   OH239958   0.536   3.659   0.194 -0.1179  0.1327  0.1002
 6108TIP3    H139959   0.490   3.638   0.275  0.6349  0.4927  0.6291
 6108TIP3    H239960   0.580   3.742   0.211  0.6334 -0.1437 -0.4337
 6109TIP3   OH239961   4.563   6.509   0.561 -0.2470  0.2356 -0.1226
 6109TIP3    H139962   4.617   6.580   0.594 -0.7928  1.2635 -1.3501
 6109TIP3    H239963   4.593   6.431   0.608  0.8521  1.1449  0.7197
 6110TIP3   OH239964   1.015   6.219   8.028  0.0590  0.2284  0.1082
 6110TIP3    H139965   0.974   6.238   8.112 -1.2695 -1.6973 -0.0264
 6110TIP3    H239966   1.108   6.235   8.043 -0.4373  2.7148  1.0487
 6111TIP3   OH239967   0.776   0.929   7.297 -0.4560  0.4030 -0.9282
 6111TIP3    H139968   0.756   1.008   7.247  3.3592  2.5454  0.5158
 6111TIP3    H239969   0.849   0.888   7.249  1.1163  0.7444  1.0427
 6112TIP3   OH239970   0.703   2.716   8.241 -0.2518 -0.5877  0.4883
 6112TIP3    H139971   0.716   2.719   8.335  0.2192  0.4645  0.4023
 6112TIP3    H239972   0.613   2.685   8.230 -0.3922 -0.4707  1.2850
 6113TIP3   OH239973   2.869   3.399   0.439 -0.0426 -0.4650  0.6131
 6113TIP3    H139974   2.820   3.421   0.359 -0.2934  0.8270  1.0985
 6113TIP3    H239975   2.935   3.336   0.410  0.3156  0.4884 -0.7632
 6114TIP3   OH239976   4.143   5.813   1.438  0.1064  0.0890  0.3861
 6114TIP3    H139977   4.117   5.817   1.530  1.0320 -0.0410  0.6629
 6114TIP3    H239978   4.239   5.818   1.440  0.3679 -2.9069 -0.3755
 6115TIP3   OH239979   6.034   4.298   8.299  0.1878  0.2843  0.0664
 6115TIP3    H139980   6.042   4.393   8.300  0.0703  0.3624  3.0937
 6115TIP3    H239981   6.040   4.274   8.207 -0.7858  3.2883 -0.8868
 6116TIP3   OH239982   0.362   4.782   8.448  0.1883  0.4630  0.4964
 6116TIP3    H139983   0.318   4.835   8.515  1.9972  2.6719  0.0852
 6116TIP3    H239984   0.433   4.738   8.496 -0.8470 -1.0786  0.6886
 6117TIP3   OH239985   0.128   1.258   7.240 -0.2625 -0.4735  0.4956
 6117TIP3    H139986   0.111   1.306   7.159 -0.6942 -0.0997  0.8018
 6117TIP3    H239987   0.045   1.262   7.288 -0.1904 -1.1942  0.7010
 6118TIP3   OH239988   1.755   5.338   8.416 -0.0990  0.1214 -0.0800
 6118TIP3    H139989   1.685   5.328   8.479 -0.6283  2.1565 -0.2656
 6118TIP3    H239990   1.802   5.255   8.418 -1.8043 -0.8662  0.8849
 6119TIP3   OH239991   1.016   0.295   8.602  0.1919 -0.1636 -0.3042
 6119TIP3    H139992   1.107   0.266   8.599  0.0667 -0.5306 -0.5796
 6119TIP3    H239993   0.966   0.215   8.616 -0.1548 -0.0887 -1.0957
 6120TIP3   OH239994   3.818   5.399   0.957  0.7449  0.3997 -0.0489
 6120TIP3    H139995   3.881   5.328   0.945  0.4507  0.1852 -0.3707
 6120TIP3    H239996   3.733   5.358   0.938  0.3190  0.2470  1.9283
 6121TIP3   OH239997   2.440   0.780   7.408  0.4898  0.0443 -0.1078
 6121TIP3    H139998   2.526   0.794   7.447  0.2712  1.8067 -0.1813
 6121TIP3    H239999   2.445   0.823   7.322 -0.5091  0.3358 -0.0387
 6122TIP3   OH240000   4.741   5.645   1.045 -0.7075 -0.3755  0.4481
 6122TIP3    H140001   4.832   5.619   1.055 -0.6235  0.5260  2.7292
 6122TIP3    H240002   4.696   5.602   1.118 -1.3576  2.0645  1.6010
 6123TIP3   OH240003   5.682   6.700   1.245  0.5398 -0.0175  0.9384
 6123TIP3    H140004   5.687   6.695   1.150 -0.4913 -0.5121  0.9014
 6123TIP3    H240005   5.751   6.763   1.269  0.5107  0.4570 -0.1544
 6124TIP3   OH240006   4.592   6.606   1.025 -0.2639  0.4411 -0.2814
 6124TIP3    H140007   4.652   6.536   1.001  1.8005  2.4303 -1.2857
 6124TIP3    H240008   4.620   6.681   0.972 -1.2924  2.5051  1.9165
 6125TIP3   OH240009   5.208   2.712   1.164  0.7046  0.1582 -0.4434
 6125TIP3    H140010   5.191   2.645   1.231 -3.3513  1.0533 -0.3189
 6125TIP3    H240011   5.191   2.668   1.081 -1.1705  0.7222 -0.4033
 6126TIP3   OH240012   2.697   0.590   7.335 -0.0868 -0.0670  0.4241
 6126TIP3    H140013   2.679   0.660   7.398 -2.3820  1.6947 -1.9354
 6126TIP3    H240014   2.699   0.510   7.387 -0.2668  1.4417  2.8884
 6127TIP3   OH240015   5.522   4.227   7.686  0.0527 -0.1718 -0.3720
 6127TIP3    H140016   5.522   4.149   7.630 -0.8934 -0.7881  0.4373
 6127TIP3    H240017   5.483   4.197   7.768 -1.4972  1.4379 -0.4572
 6128TIP3   OH240018   3.150   6.337   1.885  0.0504  0.1789  0.2097
 6128TIP3    H140019   3.150   6.333   1.790 -0.2693 -0.5072  0.2361
 6128TIP3    H240020   3.204   6.263   1.913 -2.4197 -1.5738  0.6137
 6129TIP3   OH240021   6.419   6.831   1.888 -0.1151  0.1780  0.2585
 6129TIP3    H140022   6.347   6.848   1.828 -0.3511 -0.7997  0.2525
 6129TIP3    H240023   6.496   6.821   1.831 -0.1239  0.4239  0.2050
 6130TIP3   OH240024   0.499   0.577   7.605  1.0837 -0.5167  0.1718
 6130TIP3    H140025   0.574   0.546   7.554  0.6651 -0.2081 -0.6526
 6130TIP3    H240026   0.456   0.641   7.548  0.4428 -0.3705  0.8033
 6131TIP3   OH240027   1.526   2.647   5.994  0.3528  0.1562  0.2466
 6131TIP3    H140028   1.495   2.725   6.041  0.3556  0.6484 -0.5336
 6131TIP3    H240029   1.463   2.579   6.016  0.5754  0.2679  1.2611
 6132TIP3   OH240030   0.465   1.008   0.458 -0.4181  0.3659  0.2873
 6132TIP3    H140031   0.550   1.009   0.502  0.9948 -0.6359 -2.2100
 6132TIP3    H240032   0.454   1.097   0.423  0.4593  0.0726 -0.7999
 6133TIP3   OH240033   2.547   0.783   0.115  0.1317 -0.4356  0.9874
 6133TIP3    H140034   2.594   0.726   0.176  1.2039  1.0609  1.6148
 6133TIP3    H240035   2.604   0.859   0.105 -0.6610 -0.0473 -0.8488
 6134TIP3   OH240036   2.164   3.286   7.377 -0.5382  0.4912 -0.4757
 6134TIP3    H140037   2.173   3.319   7.467 -2.3134 -1.6962  0.6131
 6134TIP3    H240038   2.075   3.251   7.374 -0.0700 -0.6686 -2.7194
 6135TIP3   OH240039   1.453   5.072   0.726 -0.0186  0.0722  0.0157
 6135TIP3    H140040   1.541   5.039   0.742  0.1815  0.3654 -0.4760
 6135TIP3    H240041   1.445   5.148   0.785 -0.1462 -0.2771  0.4605
 6136TIP3   OH240042   3.123   2.092   0.130  0.2621  0.5992  0.3062
 6136TIP3    H140043   3.117   2.040   0.051 -1.7300  0.7159  0.3231
 6136TIP3    H240044   3.132   2.028   0.201  1.4596  0.4714  0.0547
 6137TIP3   OH240045   3.024   1.467   7.298 -0.3605  0.0613  0.1717
 6137TIP3    H140046   2.994   1.476   7.207 -1.5450 -1.8095  0.3244
 6137TIP3    H240047   3.119   1.477   7.293 -0.4884  0.8485 -1.1316
 6138TIP3   OH240048   2.148   2.325   0.424  0.1993  0.0207 -0.6155
 6138TIP3    H140049   2.200   2.256   0.466 -0.9983 -3.1729 -3.8399
 6138TIP3    H240050   2.058   2.306   0.450 -0.1446  0.4474 -1.4516
 6139TIP3   OH240051   3.152   6.349   1.623 -0.4943 -0.4399 -0.0472
 6139TIP3    H140052   3.110   6.435   1.615  0.0172 -0.2118 -0.3588
 6139TIP3    H240053   3.080   6.287   1.626 -0.8470 -0.1884 -1.9898
 6140TIP3   OH240054   1.852   5.739   7.759  0.0709 -0.4882  0.2148
 6140TIP3    H140055   1.855   5.813   7.819 -0.7430 -0.7770  0.6209
 6140TIP3    H240056   1.897   5.771   7.680 -0.0360  0.3440  0.4788
 6141TIP3   OH240057   6.619   2.314   0.324 -0.6648  0.4842 -0.1369
 6141TIP3    H140058   6.589   2.364   0.248 -0.2888 -1.7861 -1.8950
 6141TIP3    H240059   6.620   2.223   0.294  0.4691 -0.3961  2.3006
 6142TIP3   OH240060   3.263   5.833   8.617 -0.6045  0.1099 -0.1487
 6142TIP3    H140061   3.224   5.909   8.661 -0.0253  0.1917  0.2311
 6142TIP3    H240062   3.250   5.851   8.524 -1.0136  0.3822 -0.0422
 6143TIP3   OH240063   3.562   4.572   7.171 -0.5259 -0.1820 -0.3392
 6143TIP3    H140064   3.471   4.569   7.200  0.5459 -2.1956  3.5531
 6143TIP3    H240065   3.574   4.491   7.121 -0.5737 -0.6442  0.3807
 6144TIP3   OH240066   3.731   4.498   0.238  0.3397 -0.1292  0.3791
 6144TIP3    H140067   3.748   4.416   0.192  2.8786  1.0232 -1.0098
 6144TIP3    H240068   3.639   4.517   0.222 -0.1665 -2.4068  0.3046
 6145TIP3   OH240069   2.704   3.258   0.610  0.1113 -0.0351  0.8271
 6145TIP3    H140070   2.760   3.326   0.572 -0.4249  0.0298  0.1234
 6145TIP3    H240071   2.719   3.264   0.704  2.6522 -1.1845  0.6013
 6146TIP3   OH240072   3.278   4.821   8.143  0.1236 -0.6708  0.2308
 6146TIP3    H140073   3.270   4.855   8.232 -1.7378 -1.1109  0.2905
 6146TIP3    H240074   3.252   4.729   8.151 -1.5718 -0.3451 -0.9597
 6147TIP3   OH240075   0.551   0.387   7.157 -0.0875 -0.0021 -0.0031
 6147TIP3    H140076   0.605   0.308   7.148  1.0776  0.7111  0.4766
 6147TIP3    H240077   0.513   0.401   7.070  0.4329 -0.5677 -0.3282
 6148TIP3   OH240078   3.502   4.037   1.872  0.2487  0.3137 -0.0227
 6148TIP3    H140079   3.589   4.053   1.837  0.6441  0.4523  0.9768
 6148TIP3    H240080   3.481   3.947   1.848  1.1621 -0.1106  0.7132
 6149TIP3   OH240081   5.115   1.423   1.005 -0.1007  0.3454 -0.3732
 6149TIP3    H140082   5.065   1.502   0.982  1.1956  1.5920  0.8562
 6149TIP3    H240083   5.151   1.441   1.092 -1.5255 -2.5384  0.9394
 6150TIP3   OH240084   0.613   4.353   0.207  0.3717  0.5888 -0.1884
 6150TIP3    H140085   0.578   4.410   0.275 -0.4947  0.9136 -0.8818
 6150TIP3    H240086   0.571   4.268   0.223 -0.7642  0.9691 -0.9985
 6151TIP3   OH240087   1.052   2.784   7.496  0.3066  0.1500  0.1706
 6151TIP3    H140088   1.136   2.830   7.489  0.9146 -0.8860  0.4778
 6151TIP3    H240089   0.998   2.823   7.427  1.9906 -1.1661 -2.0209
 6152TIP3   OH240090   5.941   2.545   7.981 -0.2571  0.4271 -0.0325
 6152TIP3    H140091   5.908   2.591   7.904 -1.0053 -0.1195 -0.0398
 6152TIP3    H240092   5.865   2.530   8.036  0.0430 -0.3964  0.1845
 6153TIP3   OH240093   3.245   4.340   0.741  0.0491 -0.2426 -0.2417
 6153TIP3    H140094   3.155   4.356   0.713 -0.0814  0.0354  0.3366
 6153TIP3    H240095   3.281   4.281   0.674  0.3544  1.9076 -2.0795
 6154TIP3   OH240096   4.499   4.209   6.283  0.6540  0.0028  0.5596
 6154TIP3    H140097   4.522   4.245   6.197  2.0473 -2.6315 -0.2689
 6154TIP3    H240098   4.569   4.239   6.341  1.0104 -0.1753  0.2266
 6155TIP3   OH240099   4.047   6.788   0.838  1.2648 -0.0489 -0.1537
 6155TIP3    H140100   4.099   6.860   0.873  1.3089  0.2854 -0.9060
 6155TIP3    H240101   4.112   6.724   0.807  1.2409 -0.7948  1.2315
 6156TIP3   OH240102   2.399   0.214   1.383  0.0610  0.0186  0.2237
 6156TIP3    H140103   2.474   0.269   1.361 -0.3966  0.0629 -1.3871
 6156TIP3    H240104   2.379   0.167   1.302 -0.0475 -1.9543  1.3339
 6157TIP3   OH240105   4.486   5.802   0.541 -0.0985 -0.2463  0.1740
 6157TIP3    H140106   4.554   5.742   0.509 -0.1989 -0.9957  1.2941
 6157TIP3    H240107   4.421   5.745   0.581 -0.7919  0.5436  0.1951
 6158TIP3   OH240108   0.029   1.838   1.498  0.1818  0.2067  0.4255
 6158TIP3    H140109   0.070   1.855   1.413  2.8592  1.5307  1.8666
 6158TIP3    H240110  -0.043   1.901   1.503 -0.4002 -0.3019 -1.0587
 6159TIP3   OH240111   3.094   0.753   8.349  0.4732 -0.0385  0.3288
 6159TIP3    H140112   3.037   0.776   8.422  0.7249  0.4431  0.3733
 6159TIP3    H240113   3.142   0.676   8.379 -0.6242 -0.8500  0.0449
 6160TIP3   OH240114   3.294   3.479   6.421  0.1577 -0.5015  0.0801
 6160TIP3    H140115   3.247   3.558   6.448  0.5678  0.1760 -1.1230
 6160TIP3    H240116   3.226   3.412   6.413 -0.3100 -0.0635  0.3156
 6161TIP3   OH240117   5.671   2.462   2.458  0.2139  0.7624 -0.3315
 6161TIP3    H140118   5.764   2.463   2.435  0.0921  1.2732 -0.8564
 6161TIP3    H240119   5.636   2.541   2.417 -0.3251  0.9223  0.4150
 6162TIP3   OH240120   2.516   0.610   8.214  0.0508  0.6994 -0.4179
 6162TIP3    H140121   2.587   0.616   8.149  0.2912  2.4758 -0.0410
 6162TIP3    H240122   2.492   0.518   8.214  1.8323  0.1864 -1.1348
 6163TIP3   OH240123   2.908   2.272   7.933  0.0631  0.2142  0.1358
 6163TIP3    H140124   2.920   2.350   7.986  0.9668 -0.7470  1.3892
 6163TIP3    H240125   2.971   2.209   7.967 -2.2765 -1.9162  0.8074
 6164TIP3   OH240126   5.804   6.771   1.014  0.3669 -0.0120 -0.4644
 6164TIP3    H140127   5.874   6.801   1.072  0.8615  1.9847 -1.9805
 6164TIP3    H240128   5.841   6.695   0.970  0.9895  0.0678 -0.0985
 6165TIP3   OH240129   4.526   0.361   6.514 -0.4422 -1.0280  0.2236
 6165TIP3    H140130   4.612   0.325   6.535  0.0658  0.5064  1.0034
 6165TIP3    H240131   4.479   0.290   6.472  2.1711 -1.1389 -2.9051
 6166TIP3   OH240132   1.356   2.161   1.169  0.4695 -0.0610 -0.4450
 6166TIP3    H140133   1.336   2.131   1.257  1.3512 -1.7010 -0.7569
 6166TIP3    H240134   1.271   2.166   1.125 -0.0499  1.4767  0.6700
 6167TIP3   OH240135   0.666   5.777   8.396 -0.6760 -0.5074  0.0094
 6167TIP3    H140136   0.725   5.826   8.339 -3.7198  2.1584 -1.1320
 6167TIP3    H240137   0.640   5.701   8.343 -0.7798  0.0481 -0.7521
 6168TIP3   OH240138   3.319   1.703   7.968 -0.0792  0.2107 -0.0993
 6168TIP3    H140139   3.234   1.747   7.962 -0.4356 -0.0729  2.0651
 6168TIP3    H240140   3.299   1.610   7.965  0.1693  0.1425  0.3688
 6169TIP3   OH240141   1.424   0.500   6.822 -0.6642  0.5509 -0.1347
 6169TIP3    H140142   1.409   0.571   6.884 -1.6582  1.3328 -1.2156
 6169TIP3    H240143   1.403   0.420   6.870 -1.3351  1.1363  0.5605
 6170TIP3   OH240144   2.111   2.614   0.186  0.8452 -0.0862 -0.5488
 6170TIP3    H140145   2.144   2.579   0.103  1.6533 -0.8412  0.0662
 6170TIP3    H240146   2.189   2.649   0.230  0.6880 -1.0395  0.5353
 6171TIP3   OH240147   5.134   5.986   7.240 -0.1024  0.1240  0.5805
 6171TIP3    H140148   5.093   5.935   7.311 -0.8311  0.7199  0.5956
 6171TIP3    H240149   5.192   5.923   7.196 -0.5092 -0.5517  0.9930
 6172TIP3   OH240150   5.844   0.798   6.282 -0.2610 -0.2143  0.4311
 6172TIP3    H140151   5.854   0.710   6.245 -1.3326 -0.1500 -0.0395
 6172TIP3    H240152   5.930   0.839   6.270 -0.4610 -0.3138 -1.6813
 6173TIP3   OH240153   5.376   2.166   1.552  0.1960  0.3420  0.2990
 6173TIP3    H140154   5.338   2.177   1.464  1.2565 -0.5899 -0.2940
 6173TIP3    H240155   5.451   2.226   1.554  2.3311 -2.1279 -0.7669
 6174TIP3   OH240156   6.437   2.228   1.531 -0.1344  0.3929  0.6640
 6174TIP3    H140157   6.392   2.175   1.597  1.7972 -1.9537  0.1943
 6174TIP3    H240158   6.380   2.223   1.454 -0.0197 -1.0114  0.6443
 6175TIP3   OH240159   5.814   6.394   7.674  0.1174  0.6041 -0.5446
 6175TIP3    H140160   5.879   6.405   7.743 -0.4110  0.8022 -0.0645
 6175TIP3    H240161   5.834   6.309   7.636 -0.5587 -0.2760  0.9428
 6176TIP3   OH240162   3.567   5.186   8.164  0.2208 -0.5220 -0.4632
 6176TIP3    H140163   3.625   5.262   8.161  0.6123 -0.7094  1.4698
 6176TIP3    H240164   3.626   5.110   8.158 -0.0537 -0.7047 -0.9698
 6177TIP3   OH240165   0.305   2.567   1.262 -0.7807 -0.1972 -0.1798
 6177TIP3    H140166   0.336   2.573   1.353  1.8613  0.7452 -1.0521
 6177TIP3    H240167   0.214   2.594   1.266 -0.5066  0.5864  2.1035
 6178TIP3   OH240168   0.213   3.501   7.043 -0.5119 -0.6690 -0.0355
 6178TIP3    H140169   0.298   3.546   7.041 -2.3727  3.3264 -1.2424
 6178TIP3    H240170   0.226   3.427   7.101  3.7754 -0.2872 -0.1835
 6179TIP3   OH240171   3.488   6.863   0.883 -0.3204  0.2206 -0.4824
 6179TIP3    H140172   3.513   6.773   0.901  1.4973  0.5529 -1.0988
 6179TIP3    H240173   3.392   6.864   0.891 -0.2197 -1.2833  1.4800
 6180TIP3   OH240174   2.746   4.200   1.556 -0.3086  0.6631 -0.5274
 6180TIP3    H140175   2.775   4.289   1.538  0.9228  0.3012 -0.4700
 6180TIP3    H240176   2.749   4.192   1.651  0.2307  0.3759 -0.5604
 6181TIP3   OH240177   3.794   2.709   8.102  0.7941 -0.2110 -0.1768
 6181TIP3    H140178   3.762   2.641   8.042 -1.0722  0.2340  0.2485
 6181TIP3    H240179   3.888   2.713   8.085  0.3529  0.0207 -3.2188
 6182TIP3   OH240180   4.797   6.564   6.555 -0.1973  0.0758 -0.2205
 6182TIP3    H140181   4.813   6.540   6.646  1.9904  1.1830 -0.2195
 6182TIP3    H240182   4.881   6.549   6.512 -0.5347  1.6672 -1.5390
 6183TIP3   OH240183   6.541   2.940   8.313  0.0340  0.2983 -0.4273
 6183TIP3    H140184   6.624   2.930   8.266 -0.0383 -0.5738 -0.3692
 6183TIP3    H240185   6.538   3.033   8.336  0.0571  0.7665 -2.1830
 6184TIP3   OH240186   1.108   1.315   0.858  0.4567 -0.1999  0.1545
 6184TIP3    H140187   1.165   1.362   0.919 -0.6603 -0.1984  1.2665
 6184TIP3    H240188   1.048   1.266   0.915 -0.5804 -0.2694 -0.9541
 6185TIP3   OH240189   3.975   0.470   0.885 -0.5725  0.2658 -0.1808
 6185TIP3    H140190   4.063   0.509   0.886 -0.0740 -0.7969  0.9918
 6185TIP3    H240191   3.918   0.540   0.852  0.7410  0.8845 -1.2417
 6186TIP3   OH240192   2.299   3.936   0.977 -0.1150  0.4945 -0.5903
 6186TIP3    H140193   2.203   3.932   0.977 -0.1406 -1.3562  1.8996
 6186TIP3    H240194   2.323   3.937   1.070  2.3118 -0.5065 -1.1217
 6187TIP3   OH240195   0.668   5.353   0.363  0.0841 -0.0264 -0.0555
 6187TIP3    H140196   0.723   5.383   0.290  1.3321 -1.8366  0.0805
 6187TIP3    H240197   0.690   5.413   0.434  0.7453  0.2129 -0.4470
 6188TIP3   OH240198   4.982   3.387   8.059 -0.0981  0.4718  0.7843
 6188TIP3    H140199   4.934   3.468   8.042  0.5534  0.8173  0.5899
 6188TIP3    H240200   5.059   3.414   8.108  1.3704  0.2972 -1.2988
 6189TIP3   OH240201   0.096   1.122   0.569  0.4524  0.3214  0.0239
 6189TIP3    H140202   0.154   1.167   0.507 -0.4212 -1.4116 -2.2342
 6189TIP3    H240203   0.082   1.185   0.639  0.7595  2.8473 -2.0142
 6190TIP3   OH240204   6.219   1.449   5.937  0.0698  0.0022  0.3611
 6190TIP3    H140205   6.187   1.380   5.879  0.8589 -0.1822  0.1285
 6190TIP3    H240206   6.231   1.406   6.022  0.8376 -0.2297  0.1434
 6191TIP3   OH240207   1.054   4.951   7.727  0.1866 -0.2114 -0.3943
 6191TIP3    H140208   1.099   4.932   7.644  1.5615  0.0771  0.2601
 6191TIP3    H240209   0.964   4.970   7.701  0.2986 -1.3322 -1.6987
 6192TIP3   OH240210   1.554   1.797   0.184 -0.5224 -0.0736  0.3001
 6192TIP3    H140211   1.512   1.868   0.136 -1.5032 -0.5140  0.4793
 6192TIP3    H240212   1.538   1.719   0.131  0.5955 -0.1677  0.0768
 6193TIP3   OH240213   4.586   5.159   7.130  0.2266  0.5294  0.1714
 6193TIP3    H140214   4.505   5.148   7.180  0.9491  0.3912  1.3391
 6193TIP3    H240215   4.561   5.216   7.057 -1.3860 -1.1020 -0.6551
 6194TIP3   OH240216   2.852   0.603   1.053 -0.3475 -0.0295 -0.2522
 6194TIP3    H140217   2.916   0.674   1.050  0.7230 -0.9665 -0.1935
 6194TIP3    H240218   2.853   0.573   1.144  1.2811 -1.9064 -0.8140
 6195TIP3   OH240219   0.020   1.531   0.171  0.2785 -0.2642 -0.0229
 6195TIP3    H140220  -0.068   1.536   0.134 -0.5099 -0.5421  1.6875
 6195TIP3    H240221   0.051   1.622   0.171 -0.4423 -0.0120  0.3250
 6196TIP3   OH240222   3.961   4.424   8.672  0.4881 -0.2827 -0.1842
 6196TIP3    H140223   3.878   4.447   8.629  0.3811 -0.6968 -0.2016
 6196TIP3    H240224   4.027   4.437   8.604  0.5516  0.9117  0.0875
 6197TIP3   OH240225   1.698   0.452   6.787 -0.1029  0.2789  0.5860
 6197TIP3    H140226   1.615   0.408   6.773  1.0851 -2.2311  0.8342
 6197TIP3    H240227   1.680   0.517   6.855 -1.7888 -0.4582  0.8850
 6198TIP3   OH240228   1.122   5.107   6.846  0.1327 -0.0705 -0.1876
 6198TIP3    H140229   1.097   5.104   6.754 -0.5201 -0.0246 -0.0148
 6198TIP3    H240230   1.218   5.109   6.845  0.1221  0.9633 -0.9025
 6199TIP3   OH240231   4.312   0.397   7.239 -0.2667 -0.3460 -0.0057
 6199TIP3    H140232   4.229   0.355   7.261 -1.3592  1.2086 -0.9315
 6199TIP3    H240233   4.291   0.490   7.236  1.4457  0.0525 -0.6171
 6200TIP3   OH240234   5.236   3.868   2.284 -0.3922 -0.3252 -0.5042
 6200TIP3    H140235   5.288   3.888   2.206 -1.4257  0.8254 -0.9190
 6200TIP3    H240236   5.296   3.819   2.340  1.3729  1.5076 -0.6757
 6201TIP3   OH240237   4.813   1.944   0.102 -0.0587  0.3771  0.1929
 6201TIP3    H140238   4.759   2.008   0.149  0.3071 -0.6502  2.1160
 6201TIP3    H240239   4.883   1.923   0.163  1.9325  0.8323 -1.8349
 6202TIP3   OH240240   5.588   3.853   7.350 -0.1667 -0.4019 -0.0090
 6202TIP3    H140241   5.660   3.791   7.362  0.8896  0.9302  0.8526
 6202TIP3    H240242   5.518   3.800   7.312  0.7661 -2.0633  0.4357
 6203TIP3   OH240243   4.819   3.230   2.213 -0.6335  0.2651  0.2294
 6203TIP3    H140244   4.728   3.218   2.186 -0.6307  0.4805  0.1227
 6203TIP3    H240245   4.870   3.213   2.134 -0.3789 -2.7229  0.9377
 6204TIP3   OH240246   0.938   2.721   7.073  0.5196 -0.4988  0.0197
 6204TIP3    H140247   0.910   2.692   7.159  1.8376 -1.5122  0.1325
 6204TIP3    H240248   0.969   2.810   7.086  1.3585 -0.8911  0.7405
 6205TIP3   OH240249   1.607   6.162   7.948 -0.3593 -0.3806  0.0961
 6205TIP3    H140250   1.644   6.248   7.966  1.1301 -0.4408 -2.3510
 6205TIP3    H240251   1.529   6.179   7.895 -0.1532 -0.5328 -0.2576
 6206TIP3   OH240252   1.213   1.032   6.922  0.0235 -0.4067 -0.3451
 6206TIP3    H140253   1.168   1.116   6.923  2.6362  1.0742  0.6047
 6206TIP3    H240254   1.269   1.035   6.844  0.7914 -0.8971  0.1726
 6207TIP3   OH240255   3.775   4.647   1.315 -0.1101 -0.1519 -0.2026
 6207TIP3    H140256   3.758   4.690   1.399  0.7576 -0.9197  0.4070
 6207TIP3    H240257   3.710   4.683   1.255 -0.6817  0.5011  0.7734
 6208TIP3   OH240258   0.737   2.090   7.397  0.8637 -0.4324 -0.4068
 6208TIP3    H140259   0.782   2.160   7.349  0.9296  0.1265  0.4526
 6208TIP3    H240260   0.783   2.010   7.370 -0.7080 -0.5052 -3.2471
 6209TIP3   OH240261   5.598   2.933   0.272  0.2978 -0.1656 -0.1756
 6209TIP3    H140262   5.509   2.967   0.277  0.9062  2.1351 -2.5098
 6209TIP3    H240263   5.596   2.852   0.322 -3.7474 -1.5299 -2.1084
 6210TIP3   OH240264   0.338   6.870   8.232  0.4834 -0.2046  0.3259
 6210TIP3    H140265   0.411   6.904   8.284 -0.0303 -0.0537  0.9765
 6210TIP3    H240266   0.379   6.824   8.159  1.2262 -0.2052  0.7310
 6211TIP3   OH240267   4.296   6.341   5.853 -0.1708  0.1728  0.1148
 6211TIP3    H140268   4.321   6.422   5.809 -1.3627  0.5376  0.0917
 6211TIP3    H240269   4.262   6.369   5.938 -1.3498 -0.2166 -0.2103
 6212TIP3   OH240270   4.287   3.674   7.131 -0.0600  0.4529  0.6105
 6212TIP3    H140271   4.276   3.750   7.189 -1.1487  0.3222  0.5959
 6212TIP3    H240272   4.217   3.683   7.066 -0.0242 -0.4035  0.4434
 6213TIP3   OH240273   2.811   3.769   8.154  0.0696  0.5951  0.1163
 6213TIP3    H140274   2.750   3.843   8.150 -0.6153  0.0263  0.0800
 6213TIP3    H240275   2.897   3.811   8.169 -0.6096  1.2972  2.5759
 6214TIP3   OH240276   2.869   1.677   0.700  0.0972 -0.6823 -0.1919
 6214TIP3    H140277   2.879   1.699   0.793 -0.5528  0.5062 -0.3911
 6214TIP3    H240278   2.780   1.704   0.679  0.5194 -0.1809 -1.3703
 6215TIP3   OH240279   1.327   1.627   7.771 -0.1400 -0.4998  0.3119
 6215TIP3    H140280   1.352   1.570   7.698 -0.1822 -0.2776  0.1239
 6215TIP3    H240281   1.360   1.713   7.747 -0.9641 -0.2230  0.1155
 6216TIP3   OH240282   1.858   4.879   0.522  0.3388 -0.2755 -0.3299
 6216TIP3    H140283   1.770   4.867   0.485  0.6509 -1.5872 -0.6808
 6216TIP3    H240284   1.899   4.793   0.516  1.5371  0.2386  0.1572
 6217TIP3   OH240285   3.048   0.386   0.639  0.0047  0.3871  0.0761
 6217TIP3    H140286   2.982   0.398   0.708  2.3386  2.4390  2.1719
 6217TIP3    H240287   3.051   0.471   0.594 -0.4719 -0.4866 -1.6736
 6218TIP3   OH240288   4.008   2.886   6.522  0.2549 -0.6322 -0.4746
 6218TIP3    H140289   4.037   2.967   6.480  0.8193  0.5138  1.9936
 6218TIP3    H240290   3.912   2.894   6.526  0.3665  0.4180  0.6416
 6219TIP3   OH240291   0.709   3.438   1.139 -0.8763 -0.5389  0.3831
 6219TIP3    H140292   0.620   3.427   1.174 -1.4993  0.1683 -0.9084
 6219TIP3    H240293   0.710   3.385   1.059 -0.1432 -0.4912  0.3545
 6220TIP3   OH240294   5.311   2.664   0.197 -0.1973  0.0286 -0.3647
 6220TIP3    H140295   5.325   2.715   0.117 -0.4483  0.4856 -0.1197
 6220TIP3    H240296   5.398   2.637   0.225 -0.0094  0.8052 -0.1833
 6221TIP3   OH240297   2.840   1.037   1.762  0.4100 -0.3063 -0.7836
 6221TIP3    H140298   2.805   1.023   1.850  0.9907 -2.1533 -0.8106
 6221TIP3    H240299   2.933   1.018   1.770  0.8902  1.5054 -1.3994
 6222TIP3   OH240300   4.704   2.710   1.652  0.4635 -0.2094 -0.0495
 6222TIP3    H140301   4.723   2.627   1.695  2.0353 -1.1952 -2.4386
 6222TIP3    H240302   4.613   2.729   1.674  0.8187 -1.2335  2.5902
 6223TIP3   OH240303   3.333   0.961   1.424  0.2474  0.5884 -0.6204
 6223TIP3    H140304   3.275   0.953   1.349  0.5756 -1.1482 -0.7235
 6223TIP3    H240305   3.414   0.919   1.396  0.2688 -0.3750  0.7968
 6224TIP3   OH240306   2.480   5.712   8.591  0.5590 -0.2212 -0.1861
 6224TIP3    H140307   2.420   5.680   8.523 -0.8242  1.9469 -0.0871
 6224TIP3    H240308   2.428   5.711   8.671  1.6702 -1.1998  0.5477
 6225TIP3   OH240309   3.674   3.650   7.457  0.1956  0.1396  0.1889
 6225TIP3    H140310   3.660   3.659   7.552  0.2671  1.0105  0.1282
 6225TIP3    H240311   3.659   3.738   7.423 -0.5377 -0.3167 -0.7130
 6226TIP3   OH240312   0.901   2.066   0.991 -0.8104  0.4852 -0.5185
 6226TIP3    H140313   0.979   2.120   0.994  0.9672 -1.9359 -0.6443
 6226TIP3    H240314   0.900   2.029   0.903 -1.5790 -0.2441 -0.2242
 6227TIP3   OH240315   3.907   1.130   1.357 -0.1530 -0.2674 -0.0793
 6227TIP3    H140316   3.952   1.187   1.420  0.0190  0.6423 -0.9962
 6227TIP3    H240317   3.821   1.171   1.345 -0.7877 -1.3189  0.7396
 6228TIP3   OH240318   3.454   6.423   6.061 -0.4091 -0.0214  0.1705
 6228TIP3    H140319   3.398   6.428   5.984 -2.1213  2.1034  1.4540
 6228TIP3    H240320   3.500   6.507   6.064 -0.9322  0.2517  1.8397
 6229TIP3   OH240321   2.822   5.398   6.462 -0.2955  0.5600  0.3475
 6229TIP3    H140322   2.733   5.401   6.497 -0.4151 -1.2805  0.3126
 6229TIP3    H240323   2.831   5.308   6.430  1.4560  0.8315  0.0247
 6230TIP3   OH240324   0.595   6.688   8.368 -0.1276  0.4995 -0.0108
 6230TIP3    H140325   0.595   6.782   8.351  0.2037  0.3122 -1.0721
 6230TIP3    H240326   0.617   6.648   8.285 -0.0995 -0.5231  0.4725
 6231TIP3   OH240327   4.970   2.637   1.849  0.4409  0.6016 -0.3665
 6231TIP3    H140328   4.877   2.619   1.838  0.2296  1.6851 -0.5059
 6231TIP3    H240329   5.003   2.563   1.899 -0.3595 -0.1234 -0.8857
 6232TIP3   OH240330   4.232   0.944   6.627  0.0728  0.5459  0.2053
 6232TIP3    H140331   4.319   0.954   6.588  0.7591 -0.2738  1.4207
 6232TIP3    H240332   4.174   0.925   6.554  1.4674 -1.9226 -0.3922
 6233TIP3   OH240333   4.937   2.544   8.355 -0.2152 -0.0880  0.6037
 6233TIP3    H140334   4.867   2.508   8.409  0.3750 -1.5769  0.4259
 6233TIP3    H240335   4.913   2.636   8.342 -1.9469 -0.4810  0.8216
 6234TIP3   OH240336   2.983   3.891   1.190 -0.1130 -0.8050 -0.0795
 6234TIP3    H140337   2.973   3.925   1.278 -0.2167  0.8045 -0.6778
 6234TIP3    H240338   2.992   3.969   1.135  4.2650 -1.7473 -1.0582
 6235TIP3   OH240339   5.943   2.561   7.041  0.7738  0.5413 -0.0723
 6235TIP3    H140340   6.005   2.504   7.087  1.1143  1.1243  0.2175
 6235TIP3    H240341   5.881   2.502   6.999 -0.4136 -0.0419  2.2960
 6236TIP3   OH240342   5.280   4.848   0.926 -0.3200  0.3210  0.3465
 6236TIP3    H140343   5.263   4.770   0.873  1.3234 -0.7638  1.3103
 6236TIP3    H240344   5.361   4.884   0.891  0.2740  0.1385  1.4673
 6237TIP3   OH240345   3.674   3.917   5.874  0.0275 -0.0995  0.5917
 6237TIP3    H140346   3.741   3.944   5.812  0.5933  0.2181  1.3293
 6237TIP3    H240347   3.619   3.994   5.886 -0.6120 -0.4228 -0.1754
 6238TIP3   OH240348   4.735   0.573   1.648 -0.0093 -0.2778 -0.5482
 6238TIP3    H140349   4.692   0.582   1.733  1.0201 -0.5550  0.0079
 6238TIP3    H240350   4.784   0.492   1.654  0.8261  0.1773 -1.0663
 6239TIP3   OH240351   5.074   3.526   0.376 -0.0901  0.1885  0.5355
 6239TIP3    H140352   5.162   3.488   0.369  0.2679  0.7479  1.6858
 6239TIP3    H240353   5.072   3.593   0.307  0.4462  0.2709  0.5910
 6240TIP3   OH240354   2.637   2.613   6.827 -0.7210  0.0810  0.4898
 6240TIP3    H140355   2.692   2.691   6.833  0.3545 -0.7516  2.3184
 6240TIP3    H240356   2.681   2.558   6.762 -0.8303  0.4938  0.0633
 6241TIP3   OH240357   2.789   4.206   0.449  0.0120  0.2683 -0.1967
 6241TIP3    H140358   2.779   4.261   0.526 -0.5212 -0.9183  0.6067
 6241TIP3    H240359   2.762   4.262   0.376 -0.9372  0.9342  0.6444
 6242TIP3   OH240360   3.275   0.311   1.121 -0.6242  0.3197 -0.5473
 6242TIP3    H140361   3.212   0.303   1.193 -1.3369 -1.2806 -1.3005
 6242TIP3    H240362   3.360   0.295   1.162 -0.8702  0.7292  0.1531
 6243TIP3   OH240363   5.131   6.476   7.256  0.3964  0.1335 -0.3947
 6243TIP3    H140364   5.159   6.401   7.309 -0.1419  0.1810 -0.0312
 6243TIP3    H240365   5.206   6.535   7.257  1.1005 -0.7084 -1.2863
 6244TIP3   OH240366   3.325   1.410   0.733 -0.6302 -0.5460  0.6726
 6244TIP3    H140367   3.402   1.467   0.737 -1.4990  0.7908 -0.5812
 6244TIP3    H240368   3.355   1.333   0.686 -0.3226  0.5045 -0.9365
 6245TIP3   OH240369   5.651   4.055   7.521  0.2169  0.1063  0.5414
 6245TIP3    H140370   5.744   4.045   7.541  0.1969 -0.8467  0.2004
 6245TIP3    H240371   5.633   3.988   7.455 -0.3280  1.3738 -0.6750
 6246TIP3   OH240372   5.518   1.867   0.540 -0.0620 -0.0992  0.9598
 6246TIP3    H140373   5.494   1.943   0.594 -0.3070  0.5445 -0.0438
 6246TIP3    H240374   5.613   1.858   0.553  0.1462  1.0073  0.2980
 6247TIP3   OH240375   3.731   2.111   6.127  0.0807 -0.1298 -0.2888
 6247TIP3    H140376   3.723   2.183   6.190  0.3455  0.8616 -1.3554
 6247TIP3    H240377   3.763   2.152   6.047 -0.1467 -1.3798 -1.0557
 6248TIP3   OH240378   3.669   1.155   1.665  0.4478  0.9764 -0.1686
 6248TIP3    H140379   3.594   1.104   1.635  1.7044  0.2093 -2.2186
 6248TIP3    H240380   3.695   1.115   1.747  0.9520 -1.2858 -1.3631
 6249TIP3   OH240381   3.465   3.489   1.085 -0.3651 -0.0824 -0.5692
 6249TIP3    H140382   3.379   3.449   1.072 -0.3022 -1.0928  1.5910
 6249TIP3    H240383   3.446   3.582   1.099 -0.8029  0.2049 -2.7825
 6250TIP3   OH240384   3.856   6.577   6.956 -0.1865 -0.3424 -0.0586
 6250TIP3    H140385   3.817   6.603   7.039  0.2492  0.4870 -0.1008
 6250TIP3    H240386   3.837   6.650   6.897  0.9070 -0.1836 -0.2388
 6251TIP3   OH240387   4.539   2.568   0.669 -0.0722  0.4302  0.2038
 6251TIP3    H140388   4.459   2.574   0.721 -0.0346  1.0221  0.2058
 6251TIP3    H240389   4.568   2.659   0.659  0.7206  0.2041  0.3890
 6252TIP3   OH240390   1.060   5.891   6.990  0.0316 -0.4594  0.0518
 6252TIP3    H140391   0.979   5.849   7.019 -0.1155  0.2272  0.6685
 6252TIP3    H240392   1.032   5.973   6.950  0.2395 -1.3432 -2.0133
 6253TIP3   OH240393   4.571   0.904   7.532  0.1468  0.1400 -0.3025
 6253TIP3    H140394   4.647   0.861   7.572  0.6101  1.3565  0.1856
 6253TIP3    H240395   4.534   0.956   7.603  0.8048  2.1243 -1.3409
 6254TIP3   OH240396   0.908   1.556   7.729 -0.2344 -0.8682 -0.1796
 6254TIP3    H140397   0.821   1.518   7.745  0.3203 -2.5305 -0.9073
 6254TIP3    H240398   0.943   1.572   7.817 -1.2377 -0.2564  0.1243
 6255TIP3   OH240399   6.292   5.299   1.043 -0.0263  0.4562 -0.2565
 6255TIP3    H140400   6.227   5.256   1.099  0.2885 -1.2824 -1.1708
 6255TIP3    H240401   6.375   5.258   1.067  0.2939  0.5710 -1.1522
 6256TIP3   OH240402   6.146   6.612   0.474 -0.1414  0.3880 -0.1937
 6256TIP3    H140403   6.085   6.539   0.486 -0.1921  0.4742  0.0692
 6256TIP3    H240404   6.090   6.690   0.469 -0.1170  0.3671 -0.9027
 6257TIP3   OH240405   2.859   5.851   7.906 -0.1659  0.2061  0.0742
 6257TIP3    H140406   2.805   5.777   7.934  0.2740  0.2528  1.1059
 6257TIP3    H240407   2.800   5.906   7.856 -0.7227 -0.4160  0.0309
 6258TIP3   OH240408   2.012   1.385   6.215  0.2300  0.4900 -0.0189
 6258TIP3    H140409   1.982   1.437   6.289  1.6265  2.3083 -0.6477
 6258TIP3    H240410   2.089   1.339   6.248  0.7997  1.2320 -0.2711
 6259TIP3   OH240411   2.901   3.372   8.246  0.6908 -0.5798  0.2750
 6259TIP3    H140412   2.906   3.468   8.245  0.9012 -0.5843 -0.7805
 6259TIP3    H240413   2.874   3.349   8.157 -1.7388 -1.3942  1.1503
 6260TIP3   OH240414   3.828   6.374   6.183  0.5601 -0.1758  0.4861
 6260TIP3    H140415   3.852   6.451   6.132  0.5877 -0.2464  0.3919
 6260TIP3    H240416   3.910   6.344   6.221  0.2799  0.9154  2.0296
 6261TIP3   OH240417   0.254   0.882   1.129  0.0135  0.1308 -0.1562
 6261TIP3    H140418   0.342   0.845   1.139  0.6212  1.1725 -1.3125
 6261TIP3    H240419   0.257   0.964   1.178 -0.9541 -0.7266  1.4157
 6262TIP3   OH240420   1.776   6.559   7.251  0.3322  0.2311  0.0135
 6262TIP3    H140421   1.806   6.479   7.207  0.5249 -0.1023  0.7333
 6262TIP3    H240422   1.841   6.625   7.226 -1.2142  0.8941 -2.7283
 6263TIP3   OH240423   1.053   3.734   6.893  0.2296  0.0165 -0.0500
 6263TIP3    H140424   1.034   3.811   6.946 -0.3703  0.8943 -1.4722
 6263TIP3    H240425   1.149   3.730   6.889  0.2933  1.3803 -0.8498
 6264TIP3   OH240426   4.226   4.475   8.347 -0.1546  0.0622  0.0042
 6264TIP3    H140427   4.313   4.502   8.377 -0.2038 -0.6011  0.7837
 6264TIP3    H240428   4.236   4.462   8.253  1.0091 -1.5124  0.2995
 6265TIP3   OH240429   1.812   1.857   7.931 -0.2211 -0.0745 -0.0248
 6265TIP3    H140430   1.825   1.801   7.854 -1.4450 -0.1593 -0.1997
 6265TIP3    H240431   1.720   1.842   7.955  0.3929 -0.8093  2.0715
 6266TIP3   OH240432   4.178   1.474   0.344  0.7758 -1.1242 -0.7227
 6266TIP3    H140433   4.178   1.569   0.353  0.3771 -1.2924  1.9425
 6266TIP3    H240434   4.264   1.446   0.375 -0.1023 -1.7480  1.3072
 6267TIP3   OH240435   4.381   2.483   2.045  0.0842 -0.1001 -0.1009
 6267TIP3    H140436   4.291   2.513   2.035  0.6925  1.3446 -1.6636
 6267TIP3    H240437   4.406   2.513   2.132 -0.1687  1.7456 -0.6226
 6268TIP3   OH240438   6.007   0.976   1.141  1.0172 -0.1116 -0.2856
 6268TIP3    H140439   6.069   0.904   1.147 -0.1552 -1.4954 -2.9757
 6268TIP3    H240440   5.949   0.964   1.216  1.8991 -0.8867  0.2898
 6269TIP3   OH240441   4.958   2.304   0.261 -0.0440  0.5938 -0.1119
 6269TIP3    H140442   4.878   2.319   0.210  1.1216 -0.3389 -2.2900
 6269TIP3    H240443   5.003   2.389   0.260 -0.3662  0.7721  0.0329
 6270TIP3   OH240444   5.777   2.084   8.077  0.4795 -0.0151 -0.3045
 6270TIP3    H140445   5.780   2.127   8.162 -1.1838  1.5759 -0.9737
 6270TIP3    H240446   5.833   2.138   8.021 -0.1921  0.2812 -0.7150
 6271TIP3   OH240447   5.454   1.936   0.946 -0.0246 -0.9395 -0.4172
 6271TIP3    H140448   5.436   1.843   0.935 -0.2547 -0.9189 -0.2191
 6271TIP3    H240449   5.375   1.972   0.987  0.0393 -0.6470 -0.5458
 6272TIP3   OH240450   2.224   3.107   0.052  0.1865 -0.0199  0.1619
 6272TIP3    H140451   2.293   3.085   0.115 -0.7974 -0.2030  1.2127
 6272TIP3    H240452   2.258   3.075  -0.032  1.6540  0.4896  0.5288
 6273TIP3   OH240453   1.689   0.924   7.472 -0.0869  0.4929  0.0537
 6273TIP3    H140454   1.733   1.001   7.434 -0.3889  0.4881 -0.3121
 6273TIP3    H240455   1.688   0.942   7.566 -1.3726  1.5945 -0.1474
 6274TIP3   OH240456   4.758   1.062   8.623 -0.3211  0.1156  0.0014
 6274TIP3    H140457   4.663   1.053   8.615 -0.5496  0.3802  1.8629
 6274TIP3    H240458   4.771   1.145   8.668  0.8713  0.5826 -1.1263
 6275TIP3   OH240459   6.037   4.731   6.203  0.0138 -0.3776 -0.2785
 6275TIP3    H140460   5.950   4.694   6.218  0.6981 -3.5806 -3.0218
 6275TIP3    H240461   6.043   4.743   6.109  2.0774  1.2361 -0.0316
 6276TIP3   OH240462   6.585   3.718   7.690  0.3762 -0.4965 -0.7698
 6276TIP3    H140463   6.614   3.632   7.661  2.6528  0.6422 -2.0825
 6276TIP3    H240464   6.591   3.773   7.612 -2.2306  0.6497 -0.2734
 6277TIP3   OH240465   2.101   2.065   8.624  0.0294  0.2938  0.8092
 6277TIP3    H140466   2.094   1.974   8.597 -0.2019 -0.1145  2.1997
 6277TIP3    H240467   2.042   2.074   8.699  0.5247  1.4134  1.0981
 6278TIP3   OH240468   3.443   6.774   2.076  0.0474  0.6791 -0.0300
 6278TIP3    H140469   3.443   6.723   1.995  1.0315 -2.6144  1.8979
 6278TIP3    H240470   3.522   6.828   2.070  0.5670 -0.1537 -0.8697
 6279TIP3   OH240471   3.708   6.321   8.632 -0.2907 -0.4810 -0.1524
 6279TIP3    H140472   3.736   6.260   8.564  0.9199 -0.6463  0.4670
 6279TIP3    H240473   3.782   6.380   8.643 -0.9613  0.3245  0.1551
 6280TIP3   OH240474   2.002   6.313   8.449  1.0880 -0.1610 -0.1530
 6280TIP3    H140475   1.980   6.322   8.356 -1.2227 -2.3544  0.0849
 6280TIP3    H240476   2.080   6.368   8.460  0.5667  1.3671 -3.0226
 6281TIP3   OH240477   6.227   0.425   7.470  0.3019  0.4277 -0.3725
 6281TIP3    H140478   6.320   0.432   7.489  0.5715  0.8758 -1.7565
 6281TIP3    H240479   6.222   0.370   7.392 -0.5507  0.8246 -0.6112
 6282TIP3   OH240480   6.343   0.371   0.864  0.5663 -0.0406 -0.1076
 6282TIP3    H140481   6.361   0.297   0.923 -1.4896 -0.1661  0.4271
 6282TIP3    H240482   6.424   0.381   0.814  2.4529  0.0895  2.7443
 6283TIP3   OH240483   2.741   5.514   6.742 -0.0041 -0.2477 -0.3901
 6283TIP3    H140484   2.772   5.545   6.828  1.8345  0.2361 -1.1801
 6283TIP3    H240485   2.743   5.591   6.686 -1.9846 -0.3728 -0.7201
 6284TIP3   OH240486   2.995   5.651   8.307  0.0087 -0.2002 -0.2674
 6284TIP3    H140487   3.028   5.694   8.229 -1.1820 -0.8625 -1.1768
 6284TIP3    H240488   3.063   5.589   8.332  1.5009  1.7559  0.7381
 6285TIP3   OH240489   1.874   5.617   0.846  0.1575 -0.2069  0.0063
 6285TIP3    H140490   1.889   5.526   0.822  2.6183 -0.2137  1.2904
 6285TIP3    H240491   1.792   5.616   0.895  0.2537 -1.7762  0.1800
 6286TIP3   OH240492   0.188   0.333   0.693  0.7566 -0.3973 -0.9099
 6286TIP3    H140493   0.243   0.406   0.721 -0.0338 -0.1749  0.1510
 6286TIP3    H240494   0.124   0.373   0.634 -0.7387  0.1481  0.9874
 6287TIP3   OH240495   5.214   6.512   7.698  0.1381  0.5449 -0.3241
 6287TIP3    H140496   5.140   6.474   7.650  0.9197 -0.4260 -0.7769
 6287TIP3    H240497   5.274   6.439   7.712 -0.5479  0.4383  3.2211
 6288TIP3   OH240498   3.582   1.494   7.905 -0.4107  0.0187 -0.2084
 6288TIP3    H140499   3.564   1.456   7.991 -0.0256  0.5459  0.1087
 6288TIP3    H240500   3.533   1.575   7.904  0.0909  0.3287 -0.2326
 6289TIP3   OH240501   6.412   2.640   6.756 -0.6305 -0.0369  0.0563
 6289TIP3    H140502   6.480   2.684   6.705 -0.4650 -0.4226 -0.0596
 6289TIP3    H240503   6.335   2.639   6.699 -0.3404 -0.7916 -0.3331
 6290TIP3   OH240504   6.829   2.160   6.137  0.0872 -0.0589 -0.5783
 6290TIP3    H140505   6.889   2.086   6.148  0.1473 -0.1100 -1.2169
 6290TIP3    H240506   6.760   2.126   6.080 -0.3778  0.1019 -0.1183
 6291TIP3   OH240507   1.643   6.827   7.072 -0.5334 -0.1869  0.2400
 6291TIP3    H140508   1.637   6.885   7.147 -0.7855  0.5297 -0.3238
 6291TIP3    H240509   1.736   6.802   7.068 -0.2274  0.9439 -0.0747
 6292TIP3   OH240510   4.729   2.534   0.420  0.2526 -0.1772 -0.3247
 6292TIP3    H140511   4.646   2.527   0.466  0.4607  1.4273  0.3671
 6292TIP3    H240512   4.736   2.627   0.397  1.2588 -0.5121 -1.5169
 6293TIP3   OH240513   3.506   4.670   1.526 -0.6674  0.4778  0.2079
 6293TIP3    H140514   3.587   4.722   1.530 -0.7926  0.7915 -0.9455
 6293TIP3    H240515   3.535   4.585   1.495 -0.8246  0.7053 -0.5710
 6294TIP3   OH240516   4.986   0.397   8.718  0.1174  0.1872  0.1544
 6294TIP3    H140517   5.039   0.476   8.707  0.6232 -0.3129 -1.1897
 6294TIP3    H240518   4.897   0.424   8.697 -0.1803  0.9943  2.2636
 6295TIP3   OH240519   1.922   3.911   8.473 -0.7473  0.1798 -0.3356
 6295TIP3    H140520   1.891   3.954   8.394  2.1886  1.9484 -0.6470
 6295TIP3    H240521   1.924   3.980   8.539 -0.2098 -0.5250  0.4066
 6296TIP3   OH240522   4.074   0.737   0.435  0.0190  0.0603  0.6418
 6296TIP3    H140523   4.111   0.654   0.407  1.3157  0.5069  0.9619
 6296TIP3    H240524   4.125   0.803   0.387 -0.5897  0.6877  0.8407
 6297TIP3   OH240525   6.341   2.288   6.463 -0.6881 -0.2007  0.1468
 6297TIP3    H140526   6.300   2.248   6.540 -0.3930 -0.4808  0.1577
 6297TIP3    H240527   6.431   2.257   6.465 -0.4440  0.4726  0.1682
 6298TIP3   OH240528   1.108   6.804   7.586  0.3600 -0.4535  0.1264
 6298TIP3    H140529   1.135   6.750   7.661  0.0357 -1.1437 -0.2371
 6298TIP3    H240530   1.058   6.876   7.625 -0.3654 -1.1639  0.5396
 6299TIP3   OH240531   1.420   1.987   7.382 -0.0276  0.1613  0.0550
 6299TIP3    H140532   1.384   2.010   7.296  1.8052  0.2240 -0.7561
 6299TIP3    H240533   1.348   1.944   7.428 -1.2446  0.7094 -1.2667
 6300TIP3   OH240534   3.687   0.570   0.578  0.9514 -0.4690 -0.1274
 6300TIP3    H140535   3.665   0.522   0.657 -0.3309 -0.5298 -0.4931
 6300TIP3    H240536   3.623   0.541   0.513  0.8461  0.8828 -0.6771
 6301TIP3   OH240537   6.032   4.758   6.610  0.2782 -0.4533  0.8669
 6301TIP3    H140538   6.053   4.672   6.575 -1.6877  0.0698 -1.9760
 6301TIP3    H240539   5.957   4.742   6.668  0.3266 -0.7558  0.8481
 6302TIP3   OH240540   6.691   2.854   6.660  0.3070  0.6479 -0.0278
 6302TIP3    H140541   6.695   2.941   6.700  0.6584  0.4515  0.3790
 6302TIP3    H240542   6.752   2.859   6.586 -0.4368  1.0500 -0.6217
 6303TIP3   OH240543   3.396   3.834   8.489 -0.1755  0.2351 -0.5829
 6303TIP3    H140544   3.401   3.864   8.398 -1.9384  2.0784 -0.1475
 6303TIP3    H240545   3.453   3.757   8.493  0.6436  0.6540 -3.0136
 6304TIP3   OH240546   6.393   3.204   8.469 -0.2375 -0.4431 -0.8298
 6304TIP3    H140547   6.461   3.269   8.450  1.0536 -1.3588  0.4194
 6304TIP3    H240548   6.381   3.210   8.564  2.4069 -4.2251  0.0019
 6305TIP3   OH240549   2.495   0.197   0.853 -0.3055 -0.0780  0.3552
 6305TIP3    H140550   2.520   0.122   0.800  1.3256  1.4058 -1.1290
 6305TIP3    H240551   2.446   0.253   0.792 -1.0556  0.3215  1.2893
 6306TIP3   OH240552   2.969   6.169   7.323 -0.2164  0.4643 -0.3959
 6306TIP3    H140553   2.941   6.157   7.414  1.7782  0.9823  0.3303
 6306TIP3    H240554   2.896   6.215   7.282 -1.6604 -0.8354  0.6109
 6307TIP3   OH240555   4.930   4.857   0.505 -0.0349 -0.2322 -0.2434
 6307TIP3    H140556   4.869   4.824   0.571  0.7258  0.2337  0.7079
 6307TIP3    H240557   4.881   4.852   0.423 -1.3331  0.0916  0.4936
 6308TIP3   OH240558   5.679   1.110   0.322  0.0765 -0.7820 -0.5851
 6308TIP3    H140559   5.763   1.142   0.354 -0.5671  2.0974 -1.5401
 6308TIP3    H240560   5.700   1.070   0.237  0.4606  0.4000 -1.0705
 6309TIP3   OH240561   4.132   6.561   6.512 -0.3399 -0.2866  0.2822
 6309TIP3    H140562   4.189   6.489   6.483 -1.8999 -1.9109  1.0453
 6309TIP3    H240563   4.175   6.640   6.478  0.8488 -1.6360 -1.6098
 6310TIP3   OH240564   2.119   6.115   7.167  0.2745 -0.1041 -0.1481
 6310TIP3    H140565   2.180   6.137   7.237  1.4307 -3.3225  0.0584
 6310TIP3    H240566   2.147   6.168   7.092  0.7936  1.3528  1.0399
 6311TIP3   OH240567   3.093   3.109   6.646 -0.0545 -0.2045 -0.3808
 6311TIP3    H140568   3.064   3.174   6.710  1.8256  0.4360 -0.1325
 6311TIP3    H240569   3.081   3.151   6.561  0.4398  0.1680 -0.2642
 6312TIP3   OH240570   0.967   6.295   8.303 -0.1562  0.6296 -0.2529
 6312TIP3    H140571   0.994   6.383   8.330 -1.8620  0.6622  1.5419
 6312TIP3    H240572   0.892   6.275   8.358  0.5149 -2.1940 -0.2190
 6313TIP3   OH240573   1.792   6.315   7.087  0.1673 -0.4208 -0.7003
 6313TIP3    H140574   1.785   6.262   7.007 -2.3561  1.1727 -1.6642
 6313TIP3    H240575   1.783   6.252   7.158  0.6532 -1.6692 -1.7019
 6314TIP3   OH240576   3.142   0.672   1.404 -0.2624 -0.0710 -0.3840
 6314TIP3    H140577   3.228   0.645   1.373 -0.0085  0.1255  0.1549
 6314TIP3    H240578   3.158   0.750   1.457 -0.8237  0.2383 -0.6586
 6315TIP3   OH240579   2.919   0.339   7.070 -0.1653  0.3024  0.1327
 6315TIP3    H140580   2.996   0.285   7.084 -0.1691 -0.6890 -3.0072
 6315TIP3    H240581   2.846   0.277   7.065 -0.8128  1.0067  0.4743
 6316TIP3   OH240582   6.873   0.501   1.213 -0.4113  0.6701 -0.0102
 6316TIP3    H140583   6.779   0.481   1.207 -0.0829 -0.6503 -2.5700
 6316TIP3    H240584   6.900   0.466   1.298 -2.0901  0.3706  0.4326
 6317TIP3   OH240585   6.114   6.176   6.370 -0.4321  0.5263 -0.3913
 6317TIP3    H140586   6.151   6.133   6.447  0.2600  2.4141  0.3761
 6317TIP3    H240587   6.035   6.125   6.350 -0.4279 -0.2087  1.3354
 6318TIP3   OH240588   5.000   2.001   6.668  0.1261  0.4098 -0.3603
 6318TIP3    H140589   5.074   1.945   6.690  0.2138  0.8821  0.6266
 6318TIP3    H240590   5.032   2.055   6.595 -0.7688 -2.4175 -3.0539
 6319TIP3   OH240591   4.409   5.356   7.920 -0.4237  0.5439  0.1190
 6319TIP3    H140592   4.432   5.265   7.935 -2.7606  0.0540  1.1911
 6319TIP3    H240593   4.447   5.403   7.993  0.9157  0.4732 -0.5155
 6320TIP3   OH240594   2.868   0.163   0.229  0.3735  0.6890  0.7704
 6320TIP3    H140595   2.828   0.083   0.196  0.5519 -0.1325  2.4458
 6320TIP3    H240596   2.927   0.134   0.298 -1.0877  2.3710  2.8692
 6321TIP3   OH240597   2.163   4.329   2.139 -0.6749 -0.0117  0.6082
 6321TIP3    H140598   2.073   4.360   2.128 -0.6730  0.1562  1.0623
 6321TIP3    H240599   2.156   4.255   2.200 -0.4259  0.4450  1.2022
 6322TIP3   OH240600   1.994   1.400   7.909  0.3306  0.2476  1.2773
 6322TIP3    H140601   1.964   1.364   7.826  0.2071  2.6015  0.2144
 6322TIP3    H240602   1.916   1.439   7.949  0.4447 -0.6062  2.3816
 6323TIP3   OH240603   2.556   4.369   6.592 -0.3214 -0.1014  0.1764
 6323TIP3    H140604   2.601   4.373   6.508 -0.0485  0.9692  0.3595
 6323TIP3    H240605   2.463   4.371   6.569 -0.2641 -0.5775 -0.1229
 6324TIP3   OH240606   1.465   4.903   7.619  0.5821  0.3751 -0.7151
 6324TIP3    H140607   1.466   4.873   7.710  1.8424  0.3519 -0.7204
 6324TIP3    H240608   1.467   4.998   7.625 -1.3822  0.4446 -0.7177
 6325TIP3   OH240609   1.925   0.826   0.822 -0.1729 -0.2731 -0.1843
 6325TIP3    H140610   1.838   0.805   0.857 -0.8577  0.3053 -1.4649
 6325TIP3    H240611   1.925   0.922   0.816 -0.5158 -0.3633 -2.7190
 6326TIP3   OH240612   5.540   5.330   2.111  0.0503 -0.1496 -0.6231
 6326TIP3    H140613   5.528   5.425   2.121 -1.1030 -0.4676  2.1336
 6326TIP3    H240614   5.633   5.320   2.093  0.2729  1.5122 -0.5937
 6327TIP3   OH240615   5.645   0.114   8.388 -0.2124 -0.3908  0.4497
 6327TIP3    H140616   5.614   0.149   8.305 -0.1558  0.0241  0.5995
 6327TIP3    H240617   5.592   0.036   8.403  1.3121 -1.7990 -1.0831
 6328TIP3   OH240618   0.764   2.234   1.516 -0.6343 -0.1684  0.1610
 6328TIP3    H140619   0.750   2.144   1.545 -1.3103  0.0347  0.4794
 6328TIP3    H240620   0.685   2.280   1.543 -1.5599 -0.0693 -2.5107
 6329TIP3   OH240621   0.835   5.593   0.948  0.4542  0.0718 -0.6621
 6329TIP3    H140622   0.835   5.594   0.853 -1.7866  2.2955 -0.7453
 6329TIP3    H240623   0.888   5.668   0.974  1.5817 -0.8893 -0.1086
 6330TIP3   OH240624   4.803   4.016   0.561  0.3416 -0.7547  0.2100
 6330TIP3    H140625   4.825   3.925   0.541  1.6385  0.1679 -3.5272
 6330TIP3    H240626   4.730   4.036   0.501  0.8877  0.9509  0.0655
 6331TIP3   OH240627   5.957   1.845   0.912 -0.3696  0.0778 -0.8242
 6331TIP3    H140628   5.881   1.791   0.931  0.9638 -1.5633  0.1240
 6331TIP3    H240629   5.991   1.811   0.830 -0.3964  0.5213 -1.0243
 6332TIP3   OH240630   3.465   6.323   8.062 -0.2480 -0.0656  0.0130
 6332TIP3    H140631   3.428   6.236   8.077 -0.8364 -0.0649 -1.3191
 6332TIP3    H240632   3.484   6.325   7.969  1.8958  0.4265  0.4010
 6333TIP3   OH240633   0.815   6.060   6.816 -0.1523  0.3087 -0.5791
 6333TIP3    H140634   0.740   6.102   6.859 -0.9605  0.0441 -1.6648
 6333TIP3    H240635   0.889   6.118   6.835 -0.8497  1.1526 -0.3559
 6334TIP3   OH240636   1.403   6.086   0.416 -0.1461  0.1482  0.1152
 6334TIP3    H140637   1.362   6.065   0.500  0.6710  0.4723  0.5986
 6334TIP3    H240638   1.455   6.009   0.394 -1.4142 -0.4916 -0.7731
 6335TIP3   OH240639   4.916   0.598   0.666  0.4920 -0.0398  0.6661
 6335TIP3    H140640   4.862   0.628   0.593  0.0789 -1.0372  0.5385
 6335TIP3    H240641   4.948   0.678   0.707  2.1037  0.5732 -1.5799
 6336TIP3   OH240642   1.972   1.528   6.905 -0.0796 -0.2342 -1.1561
 6336TIP3    H140643   2.036   1.599   6.905 -0.2761 -0.0500 -1.5303
 6336TIP3    H240644   2.023   1.449   6.927  0.3498 -0.1509 -1.8191
 6337TIP3   OH240645   1.563   4.716   6.926  0.5225  0.5343 -0.1867
 6337TIP3    H140646   1.617   4.720   7.005 -0.4640  0.5034  0.5100
 6337TIP3    H240647   1.476   4.694   6.958 -0.2066  1.8875 -1.1560
 6338TIP3   OH240648   1.527   5.145   7.969 -0.2623  0.3592 -0.1151
 6338TIP3    H140649   1.498   5.226   7.926  1.0482  0.2429 -1.2950
 6338TIP3    H240650   1.469   5.077   7.934 -2.7159  0.9844  2.3859
 6339TIP3   OH240651   5.893   0.895   1.566 -0.4884  0.8947  0.0969
 6339TIP3    H140652   5.875   0.873   1.657  1.6308  0.6803  0.5004
 6339TIP3    H240653   5.806   0.905   1.527 -1.4912 -1.2985  1.5516
 6340TIP3   OH240654   6.095   5.778   0.161  0.2456  0.0275  0.0803
 6340TIP3    H140655   6.137   5.693   0.155  0.1923 -0.0771  1.1197
 6340TIP3    H240656   6.144   5.825   0.229  0.2020  0.7838 -0.3949
 6341TIP3   OH240657   0.330   6.655   1.503 -0.0538 -0.2902  0.2711
 6341TIP3    H140658   0.383   6.700   1.569  0.0448  0.1985 -0.1330
 6341TIP3    H240659   0.314   6.568   1.540 -0.6670  0.2299  1.3049
 6342TIP3   OH240660   6.771   0.996   0.775  0.6461  0.8712 -1.1422
 6342TIP3    H140661   6.757   0.970   0.866 -0.2531 -0.7231 -1.6941
 6342TIP3    H240662   6.686   0.981   0.733  1.3606  0.4827 -2.4885
 6343TIP3   OH240663   5.725   0.640   7.676 -0.4472  0.5218 -0.0058
 6343TIP3    H140664   5.725   0.721   7.625 -1.7472  1.4556  1.4064
 6343TIP3    H240665   5.683   0.576   7.619 -0.2809  1.0791 -0.7659
 6344TIP3   OH240666   0.600   5.831   6.907  0.5600 -0.7880  0.6303
 6344TIP3    H140667   0.616   5.837   7.001 -0.6511 -1.2876  0.8888
 6344TIP3    H240668   0.593   5.922   6.878 -0.4290 -0.6309  1.2926
 6345TIP3   OH240669   1.429   5.730   8.682  0.1597 -0.6031  0.5168
 6345TIP3    H140670   1.404   5.787   8.754 -1.6623 -1.0331  0.2572
 6345TIP3    H240671   1.364   5.746   8.614  0.0184 -2.4629  0.1605
 6346TIP3   OH240672   5.260   2.951   7.294  0.2424 -0.5415  0.3105
 6346TIP3    H140673   5.285   3.012   7.225  0.4420 -1.2260 -0.2240
 6346TIP3    H240674   5.215   2.880   7.249 -0.1639 -0.7062  0.9524
 6347TIP3   OH240675   6.247   0.268   8.027 -0.6351 -0.9393  0.1366
 6347TIP3    H140676   6.338   0.247   8.048 -0.2882  0.8032  0.5589
 6347TIP3    H240677   6.246   0.279   7.932  0.1589  1.2464  0.3264
 6348TIP3   OH240678   1.790   0.504   7.465 -0.3342 -0.1814  0.1430
 6348TIP3    H140679   1.817   0.476   7.377 -0.9247  0.3060 -0.2027
 6348TIP3    H240680   1.854   0.570   7.490 -1.5428  1.4546 -0.9497
 6349TIP3   OH240681   1.043   4.248   0.208 -0.5522  0.2898  0.5265
 6349TIP3    H140682   0.993   4.170   0.231 -0.2690 -0.3477 -0.8862
 6349TIP3    H240683   0.993   4.321   0.245 -1.1590 -0.5154  1.3184
 6350TIP3   OH240684   4.385   0.263   0.487  0.4672 -0.1586  0.5829
 6350TIP3    H140685   4.404   0.299   0.573 -1.0111  0.0831  0.8319
 6350TIP3    H240686   4.293   0.285   0.471  1.2928  1.9423 -2.1068
 6351TIP3   OH240687   0.515   0.351   0.083  0.2643  0.5038  0.4585
 6351TIP3    H140688   0.437   0.406   0.087 -0.1249  0.0361 -0.4677
 6351TIP3    H240689   0.587   0.412   0.067 -0.3768  0.6558 -2.4110
 6352TIP3   OH240690   6.083   2.850   6.822  0.2428 -0.1773  0.9208
 6352TIP3    H140691   6.149   2.781   6.823  0.1880 -0.2408  0.2875
 6352TIP3    H240692   6.131   2.928   6.850  0.5302 -0.2734  0.7067
 6353TIP3   OH240693   1.601   5.869   1.306 -0.4445 -0.2691 -0.4737
 6353TIP3    H140694   1.559   5.860   1.220  0.9929  2.0098 -1.5139
 6353TIP3    H240695   1.558   5.803   1.361 -2.6079 -0.6551 -2.4659
 6354TIP3   OH240696   1.093   3.397   7.596 -0.3760 -0.2843 -0.0766
 6354TIP3    H140697   1.053   3.363   7.516 -0.0946 -0.2382 -0.2363
 6354TIP3    H240698   1.179   3.428   7.569 -1.8050  3.7253 -0.6617
 6355TIP3   OH240699   0.685   4.947   0.471  0.0053 -0.6590  0.2266
 6355TIP3    H140700   0.674   5.036   0.504 -0.9673 -0.3152 -0.9818
 6355TIP3    H240701   0.598   4.921   0.440  0.4708 -1.6955 -0.2752
 6356TIP3   OH240702   3.502   5.690   8.602 -0.5168 -0.0826 -0.2213
 6356TIP3    H140703   3.421   5.738   8.618  0.1105  1.1210 -0.5604
 6356TIP3    H240704   3.559   5.713   8.675  0.2030  0.6378 -0.9878
 6357TIP3   OH240705   1.608   1.187   6.011  0.0499  0.7549 -0.1360
 6357TIP3    H140706   1.698   1.177   5.978  0.7024  1.8692  1.2132
 6357TIP3    H240707   1.612   1.262   6.070 -2.0060  1.4326 -0.7818
 6358TIP3   OH240708   0.455   4.166   1.923  0.5419  0.4742  0.3821
 6358TIP3    H140709   0.382   4.119   1.964  0.6299  0.5786  0.6650
 6358TIP3    H240710   0.425   4.257   1.917 -0.3316  0.0848 -1.8098
 6359TIP3   OH240711   3.733   2.403   0.340  0.4425  0.3710 -0.1609
 6359TIP3    H140712   3.713   2.487   0.298  0.0668 -0.0604 -0.8682
 6359TIP3    H240713   3.828   2.401   0.346  0.6794 -0.3401 -2.7434
 6360TIP3   OH240714   4.401   4.744   7.256  0.3216  0.2690 -0.5260
 6360TIP3    H140715   4.310   4.738   7.284 -0.5687  3.2586 -2.3953
 6360TIP3    H240716   4.448   4.775   7.333 -0.3507 -0.4884  0.2120
 6361TIP3   OH240717   1.946   6.430   6.721 -0.5787  0.2982 -0.0385
 6361TIP3    H140718   1.995   6.351   6.743  1.6024  1.5721 -0.0739
 6361TIP3    H240719   1.953   6.485   6.799 -0.7580  1.0769 -0.5567
 6362TIP3   OH240720   1.037   1.578   6.399  0.7971 -0.2250 -0.1806
 6362TIP3    H140721   1.127   1.562   6.368  1.5202  0.6411  1.3971
 6362TIP3    H240722   1.012   1.495   6.441  2.4536  0.7261  3.0089
 6363TIP3   OH240723   1.123   0.607   0.688 -1.0448 -0.4919 -0.2328
 6363TIP3    H140724   1.200   0.625   0.633  0.5849 -1.3915  1.6346
 6363TIP3    H240725   1.092   0.693   0.715  1.7320 -0.0988  2.0989
 6364TIP3   OH240726   3.296   4.599   7.273  0.3696  0.8689  0.4012
 6364TIP3    H140727   3.207   4.631   7.263  0.6296  1.6261  0.3618
 6364TIP3    H240728   3.299   4.563   7.362 -0.2680 -0.1744  0.0027
 6365TIP3   OH240729   1.841   3.120   6.729  0.7756  0.2459  0.8620
 6365TIP3    H140730   1.874   3.209   6.728  0.2736  0.4593  1.7866
 6365TIP3    H240731   1.906   3.071   6.780  0.5058  0.3250  1.2915
 6366TIP3   OH240732   3.152   0.275   6.584 -0.5841 -0.0658  0.3420
 6366TIP3    H140733   3.088   0.334   6.624  0.0726  1.0740 -0.2358
 6366TIP3    H240734   3.151   0.298   6.491 -0.3960 -1.0658  0.0827
 6367TIP3   OH240735   1.124   0.131   0.172 -0.8569 -0.4658  0.3467
 6367TIP3    H140736   1.180   0.206   0.151 -0.2251 -1.2247 -0.7443
 6367TIP3    H240737   1.157   0.101   0.257 -1.6547  0.9620  1.2123
 6368TIP3   OH240738   1.598   1.566   0.044  0.1062 -0.3355  0.5722
 6368TIP3    H140739   1.553   1.485   0.016 -2.3932  1.4277 -0.9592
 6368TIP3    H240740   1.669   1.576  -0.018  1.8544 -2.3806  2.0844
 6369TIP3   OH240741   0.980   2.547   7.354  0.2423  0.4634  0.5846
 6369TIP3    H140742   0.959   2.582   7.440  1.2776  1.0188  0.6328
 6369TIP3    H240743   0.931   2.465   7.348  0.8368 -0.0379  2.0793
 6370TIP3   OH240744   6.595   6.467   8.212  0.8271  0.1078  0.5682
 6370TIP3    H140745   6.600   6.510   8.126 -0.6676 -1.0159 -0.1364
 6370TIP3    H240746   6.635   6.529   8.272  2.5097  0.6573 -1.0298
 6371TIP3   OH240747   5.687   4.944   8.202  0.9577  0.2115 -0.0190
 6371TIP3    H140748   5.678   4.868   8.144  0.3324  1.2685 -1.3382
 6371TIP3    H240749   5.779   4.943   8.228  0.9465 -1.0285  0.0529
 6372TIP3   OH240750   3.016   5.402   0.725 -0.4549  0.3473 -0.0061
 6372TIP3    H140751   2.958   5.328   0.740  0.4339 -0.5216 -0.7286
 6372TIP3    H240752   3.104   5.366   0.737 -0.0262  1.4796  0.4281
 6373TIP3   OH240753   4.441   0.750   0.544  0.5628 -0.4853 -0.2129
 6373TIP3    H140754   4.375   0.715   0.604  1.7704  2.1883  2.9977
 6373TIP3    H240755   4.500   0.677   0.526 -1.3635 -2.0609 -0.4836
 6374TIP3   OH240756   4.454   3.099   6.646  0.0039 -0.4914 -0.6357
 6374TIP3    H140757   4.446   3.146   6.729 -0.0375 -1.5477 -0.0234
 6374TIP3    H240758   4.365   3.097   6.611  0.3556  1.9704 -1.8878
 6375TIP3   OH240759   5.518   0.461   7.054  0.1456  0.5032 -0.3266
 6375TIP3    H140760   5.432   0.440   7.018  0.4972  0.7643 -1.3669
 6375TIP3    H240761   5.529   0.401   7.128 -0.2696 -0.6328 -1.1623
 6376TIP3   OH240762   3.099   3.253   6.403 -0.7297 -0.2508  0.3658
 6376TIP3    H140763   3.092   3.174   6.350  0.2803 -0.1476  0.0582
 6376TIP3    H240764   3.058   3.321   6.351  0.6264 -0.0596 -0.5115
 6377TIP3   OH240765   0.578   6.568   7.839 -0.6025  0.3966 -0.4984
 6377TIP3    H140766   0.633   6.637   7.803 -1.4198  1.4079  0.1205
 6377TIP3    H240767   0.491   6.586   7.803 -1.0187  0.2590  0.4159
 6378TIP3   OH240768   4.670   4.777   6.761 -0.2387 -0.1896  0.4101
 6378TIP3    H140769   4.648   4.687   6.735  1.1840 -1.2143  2.4139
 6378TIP3    H240770   4.636   4.785   6.851  0.9386  0.7436  0.7987
 6379TIP3   OH240771   2.020   3.794   7.100  0.1924  0.1215 -0.2450
 6379TIP3    H140772   2.001   3.888   7.106  2.1600  0.5696 -0.3697
 6379TIP3    H240773   1.945   3.758   7.052 -0.1497  1.7874 -1.0568
 6380TIP3   OH240774   4.345   3.113   5.639 -0.5564  0.0430 -0.1636
 6380TIP3    H140775   4.287   3.050   5.597 -0.7117 -0.4011  0.6912
 6380TIP3    H240776   4.362   3.077   5.726 -1.2662  1.5421  0.6432
 6381TIP3   OH240777   3.381   2.170   6.611 -0.7960 -0.2244 -0.5683
 6381TIP3    H140778   3.351   2.178   6.520  0.9092  0.4823 -1.1199
 6381TIP3    H240779   3.455   2.108   6.606 -0.1220  0.4945  0.1720
 6382TIP3   OH240780   4.544   3.315   8.297  0.1497 -0.1421 -0.2125
 6382TIP3    H140781   4.489   3.269   8.234  0.1942 -0.8904  0.2774
 6382TIP3    H240782   4.483   3.358   8.356  0.1049  1.2340 -1.2196
 6383TIP3   OH240783   4.708   5.417   6.497  0.3148  0.4633 -0.2157
 6383TIP3    H140784   4.803   5.426   6.492  0.2849  2.2993  1.2823
 6383TIP3    H240785   4.693   5.323   6.497  2.0394  0.1308 -1.5598
 6384TIP3   OH240786   3.697   4.331   8.542 -0.5326  0.5946  0.0937
 6384TIP3    H140787   3.621   4.381   8.571 -0.8488  0.1844 -0.0076
 6384TIP3    H240788   3.699   4.255   8.600 -0.3477  0.4782 -0.0633
 6385TIP3   OH240789   5.700   6.270   0.807 -0.2882  0.8907 -0.1773
 6385TIP3    H140790   5.719   6.243   0.718  0.6291  1.9628 -0.3253
 6385TIP3    H240791   5.740   6.202   0.862 -0.6251  0.3720 -0.5686
 6386TIP3   OH240792   4.996   3.430   1.545  0.0059  0.9121 -0.6061
 6386TIP3    H140793   5.075   3.448   1.492  1.4949 -0.3722  1.0735
 6386TIP3    H240794   4.962   3.517   1.566 -0.8044  1.4858 -3.7902
 6387TIP3   OH240795   4.729   0.427   6.819  0.0220  0.0660  0.0298
 6387TIP3    H140796   4.741   0.516   6.784  2.8170 -0.8311 -1.6316
 6387TIP3    H240797   4.743   0.437   6.913  0.0832  1.4272 -0.0975
 6388TIP3   OH240798   6.628   2.542   7.676 -0.5733  0.1250 -0.2584
 6388TIP3    H140799   6.696   2.600   7.641 -2.9412  3.6785  0.4931
 6388TIP3    H240800   6.652   2.528   7.767  0.6474 -1.2617 -0.7414
 6389TIP3   OH240801   4.599   3.023   0.349 -0.1127  0.3310  0.1983
 6389TIP3    H140802   4.685   3.062   0.364  0.5762 -0.3073 -1.8360
 6389TIP3    H240803   4.593   3.012   0.254 -2.0452 -0.5473  0.3676
 6390TIP3   OH240804   4.747   2.048   1.037 -0.4297 -0.2788 -0.0660
 6390TIP3    H140805   4.675   2.001   0.995 -1.1449  0.1586  0.6344
 6390TIP3    H240806   4.824   1.996   1.016 -0.9595 -0.8258 -0.7361
 6391TIP3   OH240807   0.112   4.619   6.799 -0.0115 -0.0387 -0.3823
 6391TIP3    H140808   0.078   4.567   6.872 -0.7690  1.2137  0.2020
 6391TIP3    H240809   0.111   4.709   6.832 -2.1433  0.8411 -2.5013
 6392TIP3   OH240810   1.952   6.240   0.455 -0.2189  0.0500  0.5286
 6392TIP3    H140811   1.905   6.319   0.428 -3.0226 -0.8337  2.4019
 6392TIP3    H240812   2.005   6.217   0.379  0.8240  3.7384 -0.0522
 6393TIP3   OH240813   2.686   3.648   0.721 -0.5995 -0.4013 -0.0929
 6393TIP3    H140814   2.668   3.573   0.666  0.2153 -1.2936  0.8126
 6393TIP3    H240815   2.699   3.611   0.808  1.2685  0.6061  0.0994
 6394TIP3   OH240816   6.310   3.762   5.833 -0.1448  0.7593 -0.6203
 6394TIP3    H140817   6.257   3.698   5.880 -1.1080  2.4613  0.7292
 6394TIP3    H240818   6.386   3.713   5.802 -1.0178 -1.0848  0.0412
 6395TIP3   OH240819   4.311   5.305   7.665  0.3693 -0.0174 -0.3116
 6395TIP3    H140820   4.305   5.327   7.758 -0.7949 -0.0534 -0.3624
 6395TIP3    H240821   4.228   5.261   7.645  1.2273 -1.4085 -1.0066
 6396TIP3   OH240822   5.150   3.113   8.691 -0.4385 -0.2358  0.0768
 6396TIP3    H140823   5.236   3.089   8.726 -1.1314  0.0830  2.1026
 6396TIP3    H240824   5.123   3.037   8.639  0.2581 -1.1124  0.9624
 6397TIP3   OH240825   4.211   4.451   0.999 -0.2428  0.3153  0.2850
 6397TIP3    H140826   4.145   4.393   1.036  0.2277 -0.2493  0.2569
 6397TIP3    H240827   4.289   4.434   1.052  0.2811 -0.0821 -0.5903
 6398TIP3   OH240828   2.568   2.543   7.735 -0.6058 -0.1069 -0.2439
 6398TIP3    H140829   2.618   2.612   7.777 -0.3417 -0.6489  0.3577
 6398TIP3    H240830   2.586   2.465   7.788 -0.6677 -0.6996 -1.0732
 6399TIP3   OH240831   3.112   4.188   0.218  0.0137  0.1579  0.3445
 6399TIP3    H140832   3.157   4.226   0.143 -2.2652  1.3201 -0.5529
 6399TIP3    H240833   3.095   4.263   0.275  0.6110 -0.5140  1.4286
 6400TIP3   OH240834   4.072   4.406   7.609 -0.4690 -0.1855 -0.0155
 6400TIP3    H140835   4.039   4.316   7.616 -1.2735  0.0248 -0.8924
 6400TIP3    H240836   4.167   4.396   7.609 -0.5150 -0.8964  1.5013
 6401TIP3   OH240837   2.731   3.000   7.619 -0.0671  0.0749  0.4300
 6401TIP3    H140838   2.696   3.084   7.651 -0.9835  0.3311 -1.1405
 6401TIP3    H240839   2.653   2.949   7.598  0.5017 -0.8413  0.5022
 6402TIP3   OH240840   1.193   1.793   8.608  0.0974  0.0544  0.3128
 6402TIP3    H140841   1.217   1.881   8.578 -0.0396  0.3825  1.1203
 6402TIP3    H240842   1.167   1.746   8.529  0.5045  0.6374 -0.1717
 6403TIP3   OH240843   5.321   4.405   8.063 -0.0142  0.2510  0.0750
 6403TIP3    H140844   5.392   4.366   8.114 -0.3672 -0.4908  0.0111
 6403TIP3    H240845   5.366   4.462   8.000  0.5839 -0.8088 -0.4868
 6404TIP3   OH240846   1.061   2.799   6.510 -0.4179  0.7845 -0.0771
 6404TIP3    H140847   1.129   2.822   6.447 -1.3365  0.4072 -1.2450
 6404TIP3    H240848   1.049   2.878   6.563 -1.9578  2.3437 -2.5604
 6405TIP3   OH240849   5.955   6.143   7.807  0.2269  0.1384  0.3549
 6405TIP3    H140850   5.991   6.069   7.855  0.4261  1.7679  2.8900
 6405TIP3    H240851   5.893   6.184   7.868 -1.9958  0.4994 -1.9652
 6406TIP3   OH240852   4.193   1.752   0.304 -0.3365 -0.1554 -0.8019
 6406TIP3    H140853   4.231   1.837   0.323  0.4822 -0.5935 -0.4591
 6406TIP3    H240854   4.205   1.742   0.209 -1.0242  0.3781 -0.9604
 6407TIP3   OH240855   0.681   1.981   7.831 -0.5231  0.0006 -0.0048
 6407TIP3    H140856   0.652   2.037   7.903  0.5685 -0.0650  0.5070
 6407TIP3    H240857   0.601   1.959   7.783 -1.1560  0.7121  0.7113
 6408TIP3   OH240858   1.099   3.064   0.637 -0.6098 -0.3161  0.1714
 6408TIP3    H140859   1.052   3.001   0.583 -3.1884  1.4839  0.1229
 6408TIP3    H240860   1.127   3.014   0.714 -1.2045 -1.8202 -0.5513
 6409TIP3   OH240861   1.185   4.442   6.242 -0.3521  0.0237  0.1122
 6409TIP3    H140862   1.196   4.438   6.147 -2.0160 -1.2768 -0.0750
 6409TIP3    H240863   1.091   4.430   6.256 -0.4352  1.9803  1.8613
 6410TIP3   OH240864   3.437   1.620   7.105  0.2060 -0.2116  0.3934
 6410TIP3    H140865   3.403   1.702   7.142  1.6857  0.3709  0.5182
 6410TIP3    H240866   3.428   1.631   7.010  2.8806  1.3040  0.2255
 6411TIP3   OH240867   0.552   6.290   7.047 -0.2256 -0.0466  0.0935
 6411TIP3    H140868   0.633   6.321   7.087  0.5957 -2.1846  0.1665
 6411TIP3    H240869   0.510   6.370   7.014  1.4066  1.2128  0.9206
 6412TIP3   OH240870   3.693   5.164   7.834  0.3306 -0.0238 -0.9086
 6412TIP3    H140871   3.650   5.181   7.918 -0.9479 -0.2931 -1.4835
 6412TIP3    H240872   3.695   5.249   7.791 -1.7414 -0.3755 -1.8131
 6413TIP3   OH240873   3.802   4.788   7.048 -0.3232  0.3754 -0.3539
 6413TIP3    H140874   3.858   4.714   7.026 -1.5691 -1.1615  1.3714
 6413TIP3    H240875   3.763   4.814   6.965  3.3106  1.9705 -1.7801
 6414TIP3   OH240876   6.854   0.444   0.530  0.7701  0.2055  0.7062
 6414TIP3    H140877   6.935   0.477   0.490  1.1845 -1.8475 -0.2942
 6414TIP3    H240878   6.791   0.514   0.518  2.4246  1.9253  1.6436
 6415TIP3   OH240879   6.043   6.860   0.447 -0.0061  0.0495  0.4990
 6415TIP3    H140880   5.974   6.914   0.408 -1.2210  0.7718  3.3724
 6415TIP3    H240881   6.125   6.895   0.412 -0.9202  1.7164 -0.0691
 6416TIP3   OH240882   6.390   2.649   8.240  0.3312  0.1590 -0.4598
 6416TIP3    H140883   6.324   2.663   8.172  1.8528 -1.6869 -2.4460
 6416TIP3    H240884   6.473   2.645   8.193  1.9193  1.9654  1.8907
 6417TIP3   OH240885   2.193   1.065   8.445  0.1441 -0.1123 -0.4129
 6417TIP3    H140886   2.153   0.981   8.466  0.3240 -0.0739  0.0889
 6417TIP3    H240887   2.119   1.125   8.436  0.0965  0.0992  1.1377
 6418TIP3   OH240888   5.220   5.252   0.164  0.4544  0.0874  0.5202
 6418TIP3    H140889   5.138   5.296   0.140  0.3622  0.3541  1.2794
 6418TIP3    H240890   5.191   5.172   0.208  0.4790  1.5516  3.4569
 6419TIP3   OH240891   4.889   4.481   6.239 -0.2087  0.4578  0.0574
 6419TIP3    H140892   4.905   4.487   6.145  1.2332  0.5173  0.2784
 6419TIP3    H240893   4.901   4.389   6.260  0.5724  0.6138  0.3417
 6420TIP3   OH240894   0.654   6.635   1.162  0.0320 -0.1287  0.5222
 6420TIP3    H140895   0.685   6.641   1.253  0.6115  0.6245  0.2902
 6420TIP3    H240896   0.664   6.724   1.128  0.9641 -0.6570 -0.6451
 6421TIP3   OH240897   1.626   2.103   0.259 -0.0442 -0.0535  0.0265
 6421TIP3    H140898   1.571   2.112   0.337  0.0516  0.8907 -0.0109
 6421TIP3    H240899   1.626   2.009   0.241 -2.3281 -0.0252 -0.4533
 6422TIP3   OH240900   6.761   6.654   1.224 -0.4938  0.8174  0.1364
 6422TIP3    H140901   6.739   6.716   1.293  3.3867  0.7263  1.6735
 6422TIP3    H240902   6.852   6.631   1.240 -0.3250 -1.6210 -3.2501
 6423TIP3   OH240903   3.937   5.932   8.437  0.5473  0.1765  0.2093
 6423TIP3    H140904   3.955   5.914   8.530 -0.4467  0.5084  0.4768
 6423TIP3    H240905   3.862   5.990   8.438  0.7666  0.4945 -0.8070
 6424TIP3   OH240906   2.026   5.571   7.894  0.5667  0.2949 -0.0799
 6424TIP3    H140907   1.956   5.579   7.829  0.8924 -0.6269 -0.5705
 6424TIP3    H240908   2.006   5.489   7.940 -0.2688  1.4569  1.7566
 6425TIP3   OH240909   3.617   3.433   7.327 -0.0036 -0.2602  0.1356
 6425TIP3    H140910   3.660   3.357   7.367  1.2867  1.0296  1.3661
 6425TIP3    H240911   3.658   3.508   7.370 -0.7535  1.1594 -1.5160
 6426TIP3   OH240912   1.124   1.612   7.521  0.2625  0.5371  0.2006
 6426TIP3    H140913   1.148   1.703   7.537  1.2872  0.1657  0.9223
 6426TIP3    H240914   1.051   1.596   7.581  0.7680  0.5985  0.8463
 6427TIP3   OH240915   3.396   4.886   1.362 -0.6650  0.3851  0.2476
 6427TIP3    H140916   3.433   4.823   1.424  0.6754  2.0212  1.1786
 6427TIP3    H240917   3.303   4.888   1.383 -0.4459 -0.0582  1.3357
 6428TIP3   OH240918   4.047   5.494   6.984  0.2407 -0.4057 -0.0436
 6428TIP3    H140919   3.969   5.548   6.993 -0.0440 -0.7631 -0.3245
 6428TIP3    H240920   4.120   5.553   7.004 -0.0292  0.2144 -0.8252
 6429TIP3   OH240921   3.425   1.025   1.692 -1.0925  0.2915  0.3341
 6429TIP3    H140922   3.395   1.001   1.605 -0.1738 -0.2841  0.1591
 6429TIP3    H240923   3.409   0.947   1.745  0.3257 -0.1346  0.1682
 6430TIP3   OH240924   2.143   0.422   6.759  0.4276  0.1836 -0.2540
 6430TIP3    H140925   2.076   0.488   6.777  0.8328  1.1592 -2.0400
 6430TIP3    H240926   2.096   0.350   6.716  0.2061 -0.0850  0.4284
 6431TIP3   OH240927   5.925   3.555   7.134  0.1161 -0.3262 -0.0422
 6431TIP3    H140928   5.841   3.513   7.117  0.1453  0.1787 -1.6687
 6431TIP3    H240929   5.989   3.499   7.091  0.2587  0.8134 -1.3915
 6432TIP3   OH240930   5.326   5.672   7.095 -0.3835 -0.0710 -0.1092
 6432TIP3    H140931   5.315   5.578   7.082 -0.5348 -0.0681 -0.0065
 6432TIP3    H240932   5.257   5.712   7.042 -1.1760 -0.0695  0.8948
 6433TIP3   OH240933   2.569   3.791   0.251  0.0016 -0.1805 -0.5908
 6433TIP3    H140934   2.475   3.787   0.267  0.2515  0.7057  1.2813
 6433TIP3    H240935   2.589   3.884   0.242  1.0759 -0.1010  1.8516
 6434TIP3   OH240936   5.406   0.446   8.047  0.0647 -0.0886  0.7711
 6434TIP3    H140937   5.481   0.501   8.024  0.3372 -0.7413  0.0836
 6434TIP3    H240938   5.399   0.454   8.142  1.1323 -0.1784  0.8686
 6435TIP3   OH240939   4.014   1.105   7.630 -0.4575 -0.1641 -0.0866
 6435TIP3    H140940   3.936   1.158   7.645 -1.8295 -2.2635  0.5155
 6435TIP3    H240941   3.995   1.056   7.550 -0.1223 -1.3081  0.5165
 6436TIP3   OH240942   2.737   6.559   7.028 -0.0678 -0.3076  0.1339
 6436TIP3    H140943   2.799   6.622   7.065  0.0756 -0.1694 -0.3354
 6436TIP3    H240944   2.755   6.559   6.934  0.3032 -1.4484  0.1849
 6437TIP3   OH240945   4.368   0.355   0.778  0.1192 -0.3611 -0.3424
 6437TIP3    H140946   4.453   0.398   0.774  0.0165 -0.2476 -1.6783
 6437TIP3    H240947   4.308   0.422   0.812 -0.1162  0.7487 -2.7486
 6438TIP3   OH240948   3.126   6.097   1.248 -0.1907 -0.2024 -0.0325
 6438TIP3    H140949   3.075   6.029   1.205 -1.3521  0.5481  0.1300
 6438TIP3    H240950   3.076   6.119   1.327  0.4993  0.3897  0.2537
 6439TIP3   OH240951   1.692   0.238   0.582  0.3130 -0.0240  0.1604
 6439TIP3    H140952   1.748   0.177   0.630  1.2695 -0.1770 -1.0970
 6439TIP3    H240953   1.702   0.213   0.490 -0.7933  0.8063 -0.2185
 6440TIP3   OH240954   2.458   3.183   1.718 -0.0886  0.2667  0.3783
 6440TIP3    H140955   2.396   3.229   1.662 -2.3954 -0.6461  2.0281
 6440TIP3    H240956   2.492   3.251   1.777 -0.4046  0.5907  0.1885
 6441TIP3   OH240957   2.575   4.460   8.691  0.3354 -0.2684  0.1288
 6441TIP3    H140958   2.547   4.413   8.612  1.2543 -1.7032  0.6133
 6441TIP3    H240959   2.505   4.443   8.754 -0.3462  0.7874 -0.3168
 6442TIP3   OH240960   5.276   2.900   6.645 -0.1543  0.3365  0.6109
 6442TIP3    H140961   5.211   2.915   6.713 -0.7815  0.8184 -0.0736
 6442TIP3    H240962   5.230   2.850   6.578  0.9938 -1.9067  1.3748
 6443TIP3   OH240963   1.667   1.393   7.578 -0.0032  0.3420  0.3814
 6443TIP3    H140964   1.575   1.368   7.590  0.1015  1.0214  3.0152
 6443TIP3    H240965   1.667   1.489   7.579  0.6529  0.3636 -0.4638
 6444TIP3   OH240966   3.382   6.416   6.655 -0.0636 -1.1118 -0.6354
 6444TIP3    H140967   3.389   6.488   6.592 -0.4296 -0.0741  0.4699
 6444TIP3    H240968   3.472   6.401   6.683 -0.0614 -0.5804 -0.3398
 6445TIP3   OH240969   6.190   1.131   0.093 -0.4368 -0.2598  0.6062
 6445TIP3    H140970   6.119   1.159   0.034 -0.7793 -0.4635  0.9190
 6445TIP3    H240971   6.258   1.197   0.081  0.2742 -1.2502 -1.4061
 6446TIP3   OH240972   3.484   3.647   0.041 -0.1189  0.0046 -0.6075
 6446TIP3    H140973   3.395   3.621   0.018 -0.5437  2.5083 -2.1548
 6446TIP3    H240974   3.534   3.638  -0.041  0.4642  0.8699 -0.3595
 6447TIP3   OH240975   1.890   4.931   8.058  0.1332 -0.6515 -0.0006
 6447TIP3    H140976   1.864   4.928   7.965 -0.3060  0.6023  0.0672
 6447TIP3    H240977   1.885   4.840   8.087 -0.7518 -0.9182 -0.9387
 6448TIP3   OH240978   5.778   2.709   1.575  0.1187  0.0042 -0.4949
 6448TIP3    H140979   5.775   2.614   1.564  0.3263 -0.2099  1.0652
 6448TIP3    H240980   5.725   2.743   1.503 -0.4680 -1.3225 -0.7216
 6449TIP3   OH240981   3.161   2.865   7.533 -0.2962  0.2651 -0.4202
 6449TIP3    H140982   3.067   2.871   7.516 -0.3403  1.1068  0.0806
 6449TIP3    H240983   3.195   2.811   7.462 -1.2717 -0.6806 -0.1890
 6450TIP3   OH240984   2.732   1.633   7.258  0.5017 -0.5152 -0.2429
 6450TIP3    H140985   2.820   1.636   7.220  0.4845  1.8993 -0.2532
 6450TIP3    H240986   2.720   1.720   7.298 -2.4439 -0.1482 -1.6268
 6451TIP3   OH240987   5.495   1.948   8.714  0.1715  0.2664  0.3253
 6451TIP3    H140988   5.422   1.973   8.772  0.3167 -0.0399  0.6426
 6451TIP3    H240989   5.488   1.853   8.707  0.6299  0.2214  0.4802
 6452TIP3   OH240990   6.348   0.991   8.104 -0.0811 -0.5259 -0.2545
 6452TIP3    H140991   6.305   0.958   8.183  0.5801  0.6003  0.5943
 6452TIP3    H240992   6.442   0.984   8.123  0.0795  0.7787 -0.4964
 6453TIP3   OH240993   3.491   3.763   1.106  0.0296  0.6636 -0.1115
 6453TIP3    H140994   3.424   3.804   1.159 -0.8870 -1.1944  0.2499
 6453TIP3    H240995   3.567   3.821   1.115 -0.0069  0.4018  3.3609
 6454TIP3   OH240996   3.682   0.640   7.176 -0.3047  0.0102  0.2104
 6454TIP3    H140997   3.707   0.666   7.265 -0.6264  0.5483  0.1487
 6454TIP3    H240998   3.736   0.694   7.119 -1.5253  1.1470  0.0765
 6455TIP3   OH240999   3.874   3.714   5.567  0.1362 -0.5510  0.1967
 6455TIP3    H141000   3.924   3.762   5.632 -0.5438 -2.4397  2.2521
 6455TIP3    H241001   3.938   3.656   5.526  0.1865 -0.9124  0.7705
 6456TIP3   OH241002   2.146   0.322   1.454  0.1451  0.3501 -0.0003
 6456TIP3    H141003   2.168   0.411   1.425 -1.4845  0.3792 -1.2775
 6456TIP3    H241004   2.222   0.270   1.430  1.0954  1.3733  0.6996
 6457TIP3   OH241005   2.027   0.784   6.560 -0.4586  0.1810  0.3518
 6457TIP3    H141006   1.997   0.859   6.610  1.2916  0.9476  0.3337
 6457TIP3    H241007   2.089   0.820   6.497  0.6870 -1.2835  0.5568
 6458TIP3   OH241008   0.138   2.169   8.287  0.1374  0.3077 -0.2109
 6458TIP3    H141009   0.118   2.148   8.196 -2.0509  0.5225  0.1750
 6458TIP3    H241010   0.166   2.260   8.285 -0.7235  0.5703 -0.5785
 6459TIP3   OH241011   6.033   3.125   1.703 -0.2746 -0.7223  0.0982
 6459TIP3    H141012   6.020   3.062   1.774 -1.8950 -0.3855  0.1524
 6459TIP3    H241013   6.122   3.157   1.715 -1.2383  1.2154  3.5997
 6460TIP3   OH241014   4.427   5.100   8.022  0.4594 -0.1963  0.0251
 6460TIP3    H141015   4.482   5.029   7.990  1.0609 -0.1991  0.9940
 6460TIP3    H241016   4.465   5.122   8.108 -0.3871  0.5485  0.2225
 6461TIP3   OH241017   0.565   6.764   8.062 -0.2320  0.0624  0.3575
 6461TIP3    H141018   0.504   6.735   7.994  1.2690 -1.3993 -0.4439
 6461TIP3    H241019   0.635   6.698   8.060  0.2722  0.4469  2.7533
 6462TIP3   OH241020   2.955   2.405   7.355 -0.1711 -0.2622  0.6683
 6462TIP3    H141021   2.999   2.333   7.399  1.3750 -0.7295 -1.5047
 6462TIP3    H241022   2.908   2.364   7.282 -1.9584  0.5806  1.2815
 6463TIP3   OH241023   3.245   4.530   8.137 -0.0246  0.0587  0.7803
 6463TIP3    H141024   3.273   4.439   8.132  0.6951  0.2666  0.8375
 6463TIP3    H241025   3.218   4.542   8.228 -0.4935 -0.2003  0.6757
 6464TIP3   OH241026   6.701   5.775   8.298 -0.1727 -0.1822 -0.4500
 6464TIP3    H141027   6.717   5.802   8.208 -0.8294  0.6197 -0.3347
 6464TIP3    H241028   6.788   5.777   8.339  0.2609 -1.3802 -1.2639
 6465TIP3   OH241029   4.685   0.081   1.673  0.1070  0.1128  0.0528
 6465TIP3    H141030   4.667  -0.009   1.644 -0.5055  0.1215  0.3875
 6465TIP3    H241031   4.610   0.103   1.729 -1.0629  1.7373 -2.0051
 6466TIP3   OH241032   0.982   6.517   8.467  0.0812  0.1552 -0.5172
 6466TIP3    H141033   0.979   6.606   8.500  1.2576 -0.0936  0.3160
 6466TIP3    H241034   0.991   6.462   8.545  1.2265 -0.5522 -1.1071
 6467TIP3   OH241035   0.878   2.727   6.803  0.3059 -0.0199  0.4164
 6467TIP3    H141036   0.877   2.810   6.756 -0.6262 -0.3224 -0.1312
 6467TIP3    H241037   0.881   2.752   6.895 -0.6796  0.6492  0.2873
 6468TIP3   OH241038   6.532   3.408   6.704 -0.7219 -0.3049 -0.1344
 6468TIP3    H141039   6.586   3.458   6.643  1.9860 -0.6173  1.8077
 6468TIP3    H241040   6.494   3.473   6.762  0.3919 -0.2667  0.5764
 6469TIP3   OH241041   5.917   0.710   7.323  0.6113 -0.4929  0.4097
 6469TIP3    H141042   6.006   0.722   7.290  0.8145 -0.1640  1.0579
 6469TIP3    H241043   5.873   0.661   7.254  1.1523 -0.2317 -0.1385
 6470TIP3   OH241044   5.962   5.589   7.499 -0.5540 -0.1903  0.0875
 6470TIP3    H141045   5.981   5.670   7.546 -1.6589 -0.2966  0.7347
 6470TIP3    H241046   6.032   5.529   7.524  0.3819  0.6100 -0.5504
 6471TIP3   OH241047   1.192   2.212   7.118  0.4056 -0.2360 -0.3433
 6471TIP3    H141048   1.208   2.288   7.173  1.7172  0.1112 -1.1419
 6471TIP3    H241049   1.220   2.239   7.031 -1.5147 -0.8043 -1.1959
 6472TIP3   OH241050   5.995   3.445   0.786 -0.1964  0.4091  0.0371
 6472TIP3    H141051   5.909   3.413   0.760  0.2633 -1.1533  0.3423
 6472TIP3    H241052   6.056   3.398   0.730  0.6623 -1.1878  2.1734
 6473TIP3   OH241053   1.416   4.052   0.864 -0.2019 -0.5643  0.5974
 6473TIP3    H141054   1.321   4.052   0.877 -0.3439 -0.2477 -0.3525
 6473TIP3    H241055   1.435   4.138   0.826  0.4679 -0.6154  0.7960
 6474TIP3   OH241056   6.557   0.561   8.667 -0.0464  0.4632  0.2598
 6474TIP3    H141057   6.479   0.609   8.697 -0.5026  0.3829 -0.7491
 6474TIP3    H241058   6.620   0.630   8.645 -0.5489  0.6113 -0.7836
 6475TIP3   OH241059   1.173   3.826   7.845 -0.4581  0.1670 -0.0764
 6475TIP3    H141060   1.266   3.835   7.827 -0.3263 -1.1943 -0.1791
 6475TIP3    H241061   1.165   3.741   7.889 -1.3852  1.1560  1.8388
 6476TIP3   OH241062   6.471   0.620   8.165 -0.2205  0.2968 -0.2495
 6476TIP3    H141063   6.551   0.594   8.210 -0.7067 -2.6833 -0.8826
 6476TIP3    H241064   6.400   0.594   8.223 -0.7755  0.0060 -1.0344
 6477TIP3   OH241065   1.331   4.488   6.866  0.6433 -0.7753 -0.8902
 6477TIP3    H141066   1.383   4.447   6.935 -0.5608 -0.1830  0.4312
 6477TIP3    H241067   1.247   4.508   6.908  1.0001  2.6614 -1.4924
 6478TIP3   OH241068   1.427   1.109   5.854 -0.0984  0.3615  0.4260
 6478TIP3    H141069   1.456   1.124   5.944 -2.9270 -2.2436  1.9395
 6478TIP3    H241070   1.426   1.014   5.844 -3.5085  0.3714 -0.8934
 6479TIP3   OH241071   2.206   5.755   0.445 -0.3250  0.3285  0.2932
 6479TIP3    H141072   2.112   5.744   0.460 -0.0822 -1.7998  0.4671
 6479TIP3    H241073   2.225   5.698   0.371  0.7666  1.1269 -0.0585
 6480TIP3   OH241074   3.499   3.364   6.253 -0.4104  0.4360 -0.3954
 6480TIP3    H141075   3.479   3.420   6.328 -0.6556  2.4099 -1.8466
 6480TIP3    H241076   3.413   3.333   6.224 -0.1979 -1.7444  1.0907
 6481TIP3   OH241077   5.247   3.286   0.790  0.4570  0.3600  0.5946
 6481TIP3    H141078   5.221   3.365   0.837 -0.8419  0.1967  0.1844
 6481TIP3    H241079   5.196   3.216   0.831 -1.0136  0.2705 -1.2535
 6482TIP3   OH241080   4.891   2.953   7.293 -0.5325  0.1259 -0.0521
 6482TIP3    H141081   4.970   2.899   7.291 -1.5162 -1.3812  0.1290
 6482TIP3    H241082   4.854   2.939   7.380 -0.8574  1.0471 -0.0286
 6483TIP3   OH241083   2.400   1.183   1.462  0.6263  0.0094  0.1549
 6483TIP3    H141084   2.358   1.156   1.381 -0.2019  0.3388  0.4652
 6483TIP3    H241085   2.387   1.278   1.465  1.6584  0.1697  0.1128
 6484TIP3   OH241086   5.791   3.970   7.037 -0.7784  0.2492  0.0551
 6484TIP3    H141087   5.722   4.035   7.049 -0.6214  0.2864  0.7660
 6484TIP3    H241088   5.773   3.903   7.103  0.0670  0.4349  0.4816
 6485TIP3   OH241089   5.567   1.836   7.100  0.4746 -0.0806  0.1888
 6485TIP3    H141090   5.553   1.823   7.007  1.3454 -0.1649  0.0716
 6485TIP3    H241091   5.651   1.796   7.119  0.4442  0.1911  0.9555
 6486TIP3   OH241092   0.937   6.123   7.263  0.2007  0.3757  0.1674
 6486TIP3    H141093   0.921   6.069   7.186  1.2003  0.4513 -0.1103
 6486TIP3    H241094   0.906   6.210   7.238  0.8165  0.4711 -0.2730
 6487TIP3   OH241095   5.106   0.683   0.919 -0.5358  0.2059  0.8901
 6487TIP3    H141096   5.054   0.760   0.894 -0.2185  0.7829  1.9698
 6487TIP3    H241097   5.168   0.672   0.847  0.1136  1.6094  1.2067
 6488TIP3   OH241098   3.341   4.864   7.570  0.3990 -0.3847 -0.3423
 6488TIP3    H141099   3.400   4.926   7.527 -0.0100  0.3298  0.1087
 6488TIP3    H241100   3.397   4.816   7.631  0.3349  1.0570  0.8987
 6489TIP3   OH241101   5.209   0.963   8.358 -0.3004  0.4215 -0.1253
 6489TIP3    H141102   5.278   1.013   8.314  0.0262  0.1287  0.0461
 6489TIP3    H241103   5.243   0.948   8.447 -0.0685 -0.7115 -0.3820
 6490TIP3   OH241104   1.365   2.863   7.792  0.1672 -0.4037  0.1906
 6490TIP3    H141105   1.328   2.933   7.737 -0.0531 -0.6574  0.0117
 6490TIP3    H241106   1.423   2.908   7.853  0.1984 -0.0877 -0.0706
 6491TIP3   OH241107   1.351   3.966   7.240 -0.0994  0.0219  0.3220
 6491TIP3    H141108   1.324   3.874   7.244 -1.0803  0.3207  0.8908
 6491TIP3    H241109   1.278   4.014   7.279  0.4637  1.0349  0.1581
 6492TIP3   OH241110   1.514   3.682   0.221 -0.2935 -0.3625 -0.2816
 6492TIP3    H141111   1.449   3.714   0.284 -0.0134 -0.7770  0.2188
 6492TIP3    H241112   1.467   3.681   0.137 -0.7348 -0.0267 -0.0412
 6493TIP3   OH241113   0.168   5.486   0.483  0.3003 -0.0638 -0.1028
 6493TIP3    H141114   0.260   5.466   0.466  1.2137  1.9011  1.9907
 6493TIP3    H241115   0.137   5.414   0.538  0.5912 -0.6779 -0.7295
 6494TIP3   OH241116   4.632   3.402   0.626  0.2007 -0.7958  0.6767
 6494TIP3    H141117   4.667   3.324   0.670  0.5005 -0.6939  0.6178
 6494TIP3    H241118   4.708   3.443   0.585  0.3602  0.4936  2.1622
 6495TIP3   OH241119   6.443   4.569   7.360 -0.5261  0.1669  0.5923
 6495TIP3    H141120   6.510   4.523   7.410 -0.2162  0.2094  0.2166
 6495TIP3    H241121   6.366   4.569   7.418  0.2111  1.3809  1.5968
 6496TIP3   OH241122   4.101   3.026   1.398 -0.3141 -0.1813  0.3940
 6496TIP3    H141123   4.106   2.967   1.473  0.8376 -0.4350  0.1399
 6496TIP3    H241124   4.114   2.970   1.322 -1.4159  0.0848 -0.0115
 6497TIP3   OH241125   5.019   0.286   0.809 -0.4510 -0.1498 -0.6127
 6497TIP3    H141126   5.092   0.229   0.785  0.6122  0.8446  0.1420
 6497TIP3    H241127   5.036   0.367   0.761 -0.2329  0.6159  0.7219
 6498TIP3   OH241128   3.916   2.283   6.899 -1.0175 -0.5933 -0.2487
 6498TIP3    H141129   4.006   2.314   6.890 -0.1021 -3.0282 -0.3002
 6498TIP3    H241130   3.863   2.354   6.864  0.8244  1.1328  0.2680
 6499TIP3   OH241131   0.527   5.292   8.001  0.4793  0.2615  0.5477
 6499TIP3    H141132   0.486   5.212   8.035  1.5477 -0.4444  0.2302
 6499TIP3    H241133   0.620   5.282   8.023  0.7243  1.1414 -0.0378
 6500TIP3   OH241134   5.531   2.921   7.383  0.0412  0.2301  0.3183
 6500TIP3    H141135   5.513   2.839   7.429 -1.4999 -0.0968 -0.7983
 6500TIP3    H241136   5.447   2.946   7.344  1.3680 -0.1398 -3.2444
 6501TIP3   OH241137   4.216   2.346   7.902 -0.2998 -0.0765  0.0070
 6501TIP3    H141138   4.194   2.319   7.813  0.4116  0.2745 -0.2839
 6501TIP3    H241139   4.158   2.294   7.958 -0.2609 -0.8268 -0.6244
 6502TIP3   OH241140   3.701   5.415   8.184 -0.1483 -0.3480  0.1895
 6502TIP3    H141141   3.680   5.508   8.181  2.7587  0.3722 -0.1796
 6502TIP3    H241142   3.771   5.408   8.248 -0.2936 -2.2988  0.1971
 6503TIP3   OH241143   4.815   4.778   7.498 -0.1758  0.0922 -0.0532
 6503TIP3    H141144   4.833   4.851   7.440 -1.3584 -0.2740 -0.9322
 6503TIP3    H241145   4.841   4.700   7.448  2.3369 -0.0934  1.3706
 6504TIP3   OH241146   0.484   3.237   8.344 -0.0163  0.1830 -0.1732
 6504TIP3    H141147   0.569   3.281   8.339 -0.2228  0.5805 -0.1956
 6504TIP3    H241148   0.499   3.152   8.302  0.7006 -0.2637  0.9181
 6505TIP3   OH241149   5.301   3.569   8.617  0.3229  0.1517  0.0062
 6505TIP3    H141150   5.306   3.528   8.703 -1.3587  1.5799  0.8537
 6505TIP3    H241151   5.229   3.524   8.573 -0.5046  1.0910  0.3556
 6506TIP3   OH241152   2.295   1.154   7.125  0.1191  0.2066 -0.4596
 6506TIP3    H141153   2.366   1.138   7.187 -0.0143 -1.0510 -0.6095
 6506TIP3    H241154   2.241   1.076   7.129 -1.6603  1.4069  0.1377
 6507TIP3   OH241155   6.157   6.524   7.580 -0.4887  0.0964  0.3156
 6507TIP3    H141156   6.159   6.618   7.559  0.4759  0.1259  0.4941
 6507TIP3    H241157   6.066   6.498   7.564 -1.3015  1.5067  2.2542
 6508TIP3   OH241158   2.908   0.559   1.317  0.3256 -0.4169  0.1535
 6508TIP3    H141159   2.826   0.599   1.345 -1.3593 -2.5529 -1.3698
 6508TIP3    H241160   2.976   0.608   1.363 -1.5542  3.3492 -0.7211
 6509TIP3   OH241161   6.179   0.191   0.350 -0.2073  0.2064 -0.1368
 6509TIP3    H141162   6.168   0.286   0.357 -0.8673  0.0485  1.2929
 6509TIP3    H241163   6.269   0.176   0.378 -0.2767  0.3632  0.1746
 6510TIP3   OH241164   2.798   3.700   1.123  0.0816 -0.0815 -0.0644
 6510TIP3    H141165   2.838   3.786   1.118 -1.4016  0.6447  0.0594
 6510TIP3    H241166   2.832   3.653   1.047  1.5285  0.3076  0.3008
 6511TIP3   OH241167   3.827   2.538   6.786  0.0049  0.6293 -0.1784
 6511TIP3    H141168   3.859   2.623   6.756  0.3233  1.2472  1.7989
 6511TIP3    H241169   3.731   2.546   6.783  0.0286  1.3234  0.6744
 6512TIP3   OH241170   1.521   6.349   6.829  0.1906  0.4858 -0.3326
 6512TIP3    H141171   1.475   6.385   6.753 -0.2570  1.1060  0.2177
 6512TIP3    H241172   1.507   6.414   6.898 -1.0325 -0.9563  0.8383
 6513TIP3   OH241173   1.731   3.106   0.003 -0.3814 -0.4360  0.1531
 6513TIP3    H141174   1.798   3.175  -0.002 -0.0882 -0.5529  1.8697
 6513TIP3    H241175   1.780   3.024   0.003 -0.5782 -0.5560  0.4868
 6514TIP3   OH241176   2.435   2.887   2.458 -0.2731 -0.1797 -0.1620
 6514TIP3    H141177   2.376   2.899   2.384 -0.6095 -0.7955 -0.0019
 6514TIP3    H241178   2.484   2.968   2.463 -0.6900  0.1094 -0.6704
 6515TIP3   OH241179   4.646   5.756   7.887 -0.5397 -0.7278 -0.5017
 6515TIP3    H141180   4.571   5.806   7.919  0.7762  1.3779 -0.5897
 6515TIP3    H241181   4.706   5.752   7.962  0.2113 -0.4644 -1.0764
 6516TIP3   OH241182   2.355   2.401   6.469  0.3489 -0.0234  0.2599
 6516TIP3    H141183   2.342   2.437   6.381  1.1399 -1.5453 -0.5232
 6516TIP3    H241184   2.284   2.337   6.480  0.8787 -0.6187  0.2791
 6517TIP3   OH241185   4.278   1.660   6.421  0.1850 -0.5639 -0.0389
 6517TIP3    H141186   4.309   1.687   6.334  2.0752  1.2346  1.1015
 6517TIP3    H241187   4.333   1.585   6.443 -0.8618 -1.5411 -0.7138
 6518TIP3   OH241188   0.902   1.555   0.005 -0.2368  0.6036  0.2141
 6518TIP3    H141189   0.994   1.583   0.006 -0.6709  2.0555  1.3249
 6518TIP3    H241190   0.852   1.633   0.027 -1.6280 -0.6075  1.6056
 6519TIP3   OH241191   5.387   5.578   8.148  0.3608  0.5727  0.8128
 6519TIP3    H141192   5.294   5.571   8.170  0.3214 -0.0259  0.4737
 6519TIP3    H241193   5.389   5.636   8.071  0.0695 -0.9419 -0.3920
 6520TIP3   OH241194   5.820   1.145   6.651 -0.2830 -0.3601  0.3215
 6520TIP3    H141195   5.774   1.133   6.567 -0.0907  0.5634  0.0746
 6520TIP3    H241196   5.783   1.078   6.708 -0.7047 -0.7437 -0.3828
 6521TIP3   OH241197   2.675   2.034   7.453 -0.7920  0.3651  0.3197
 6521TIP3    H141198   2.581   2.016   7.455 -0.6474 -0.3739  0.5482
 6521TIP3    H241199   2.698   2.053   7.543 -0.5429 -0.4257  0.4315
 6522TIP3   OH241200   3.453   6.304   7.803  0.4475 -0.4825  0.0638
 6522TIP3    H141201   3.501   6.330   7.725 -0.2458  0.7053  0.0081
 6522TIP3    H241202   3.417   6.218   7.782  1.2950 -0.7180 -0.4483
 6523TIP3   OH241203   3.882   6.736   1.696  0.6698 -0.3689  0.3108
 6523TIP3    H141204   3.855   6.826   1.678 -1.1826 -0.5205  1.9421
 6523TIP3    H241205   3.918   6.739   1.785  0.6889 -1.2210  0.3415
 6524TIP3   OH241206   1.268   5.540   6.977  0.2327  0.8988  0.1724
 6524TIP3    H141207   1.332   5.473   7.002  0.9366  0.7538 -1.7981
 6524TIP3    H241208   1.221   5.502   6.903  1.7395  3.0671 -2.0852
 6525TIP3   OH241209   5.884   5.816   7.210 -0.2061 -0.4584  0.2236
 6525TIP3    H141210   5.803   5.766   7.200 -0.7036  0.4362 -0.3491
 6525TIP3    H241211   5.916   5.828   7.121  0.1192 -0.1055  0.3852
 6526TIP3   OH241212   6.439   2.526   5.968  0.1707 -0.2882 -0.3531
 6526TIP3    H141213   6.362   2.474   5.989  1.2910 -1.5077  0.8644
 6526TIP3    H241214   6.507   2.462   5.947  1.5782  0.6384  1.1618
 6527TIP3   OH241215   4.231   0.056   7.943  0.2745 -0.0573  0.0558
 6527TIP3    H141216   4.271   0.134   7.906  0.0937  0.1408  0.2742
 6527TIP3    H241217   4.225   0.073   8.037  3.1243 -1.6021  0.6200
 6528TIP3   OH241218   1.549   3.906   8.648 -0.3785 -0.2762  0.7024
 6528TIP3    H141219   1.476   3.935   8.594  0.7190 -1.2999 -1.4548
 6528TIP3    H241220   1.512   3.840   8.706 -1.3046 -0.2771  0.1279
 6529TIP3   OH241221   6.316   5.436   7.975  0.5446 -0.5110 -0.3949
 6529TIP3    H141222   6.383   5.434   8.044  0.1117  1.3813  0.1428
 6529TIP3    H241223   6.314   5.527   7.946 -1.9775 -0.4235 -0.1813
 6530TIP3   OH241224   3.499   4.138   5.914 -0.2509 -0.0378  0.2785
 6530TIP3    H141225   3.410   4.109   5.933 -0.6089 -0.3694 -1.6666
 6530TIP3    H241226   3.488   4.213   5.855  0.7474 -0.0419  0.0631
 6531TIP3   OH241227   5.707   2.555   7.471 -0.3125 -0.0374  0.0675
 6531TIP3    H141228   5.778   2.614   7.496  0.3017 -0.8009  0.1767
 6531TIP3    H241229   5.735   2.516   7.389 -0.7396 -0.1404 -0.0348
 6532TIP3   OH241230   3.870   3.519   7.251 -0.3470 -0.4049  0.4129
 6532TIP3    H141231   3.851   3.458   7.322 -2.8219  0.3874  0.5412
 6532TIP3    H241232   3.840   3.604   7.285 -1.5779 -0.0063 -1.5333
 6533TIP3   OH241233   5.246   5.383   1.291 -0.1368 -0.2077  0.0552
 6533TIP3    H141234   5.315   5.421   1.345  0.2062 -0.5338 -0.1485
 6533TIP3    H241235   5.290   5.315   1.240 -0.5731 -0.2985 -0.2071
 6534TIP3   OH241236   0.846   5.256   6.738 -0.3035 -0.6166 -0.2730
 6534TIP3    H141237   0.780   5.190   6.716  0.4253 -1.7891  0.9384
 6534TIP3    H241238   0.856   5.307   6.657 -2.1370 -0.8563 -0.7077
 6535TIP3   OH241239   3.707   1.811   1.552 -0.1115  0.3975 -0.0458
 6535TIP3    H141240   3.698   1.749   1.480 -0.3302  1.5372 -1.0491
 6535TIP3    H241241   3.752   1.886   1.513 -0.7558  1.2777  0.8456
 6536TIP3   OH241242   6.276   4.614   6.260  0.0135  0.4275 -0.4068
 6536TIP3    H141243   6.189   4.645   6.238  0.5183  1.8658 -0.4859
 6536TIP3    H241244   6.329   4.631   6.182  1.0574  2.5207  0.6652
 6537TIP3   OH241245   2.814   0.580   6.669  0.6975  0.3500 -0.0808
 6537TIP3    H141246   2.762   0.597   6.747  0.3770 -1.0843  0.0508
 6537TIP3    H241247   2.771   0.630   6.600  0.2667  0.6716  0.4124
 6538TIP3   OH241248   3.054   1.552   1.527 -0.4352 -0.0130 -0.0925
 6538TIP3    H141249   3.076   1.461   1.507 -1.8662 -0.0276 -1.8562
 6538TIP3    H241250   3.126   1.604   1.491 -0.8064 -0.3244 -1.3135
 6539TIP3   OH241251   2.744   0.159   8.203  0.5098 -0.2273 -0.4047
 6539TIP3    H141252   2.707   0.071   8.200  1.6044 -0.7368  0.2462
 6539TIP3    H241253   2.672   0.217   8.178 -1.1095 -1.0391  2.0393
 6540TIP3   OH241254   5.024   2.539   6.101 -0.4063 -0.4269 -0.2038
 6540TIP3    H141255   5.059   2.546   6.190 -0.5000 -0.4233 -0.1670
 6540TIP3    H241256   5.101   2.525   6.046 -0.5338 -3.2708  0.1820
 6541TIP3   OH241257   4.702   0.860   1.665 -0.2198  0.3808 -0.3942
 6541TIP3    H141258   4.719   0.772   1.633  1.3576  0.4372  0.1855
 6541TIP3    H241259   4.778   0.881   1.720 -0.7792  1.9218 -0.1427
 6542TIP3   OH241260   3.285   3.634   7.768  0.2029 -0.4416 -0.4523
 6542TIP3    H141261   3.265   3.561   7.708  1.2189 -0.3188 -0.9635
 6542TIP3    H241262   3.242   3.610   7.850  0.9837 -1.9012 -0.4340
 6543TIP3   OH241263   1.205   4.010   0.585 -0.0749 -0.2488 -0.3064
 6543TIP3    H141264   1.297   3.987   0.581 -0.4303 -1.9104  0.3644
 6543TIP3    H241265   1.175   3.980   0.671 -1.1295  0.7266 -0.2980
 6544TIP3   OH241266   3.933   4.559   0.717 -0.0598  0.5876  0.0040
 6544TIP3    H141267   3.856   4.554   0.661  0.6525 -1.9988 -0.8637
 6544TIP3    H241268   3.900   4.542   0.805 -0.7138  1.4420 -0.0612
 6545TIP3   OH241269   5.608   3.183   7.104  0.1231  0.0513  0.3116
 6545TIP3    H141270   5.524   3.160   7.065  0.4889  1.3541 -1.3681
 6545TIP3    H241271   5.668   3.114   7.076  0.2470  0.6655 -1.0431
 6546TIP3   OH241272   6.008   6.053   0.537 -0.5030 -0.1442  0.1175
 6546TIP3    H141273   5.943   5.984   0.548 -0.9865  0.4477  1.0128
 6546TIP3    H241274   6.051   6.060   0.622  0.8272 -0.5957 -0.4828
 6547TIP3   OH241275   5.005   1.942   0.910 -0.6039 -0.0613 -0.5850
 6547TIP3    H141276   4.998   1.940   0.814  0.8044 -1.4854 -0.7174
 6547TIP3    H241277   5.085   1.991   0.927  0.1545 -1.3468 -0.2702
 6548TIP3   OH241278   2.063   6.175   6.790 -0.1290 -0.0880 -0.5381
 6548TIP3    H141279   1.979   6.135   6.812 -0.1455 -0.4081 -1.1487
 6548TIP3    H241280   2.074   6.157   6.697 -0.1747  1.4195 -0.8600
 6549TIP3   OH241281   6.799   1.893   7.464 -0.3456 -0.2128 -0.3508
 6549TIP3    H141282   6.799   1.951   7.540 -0.7049  0.2108 -0.6681
 6549TIP3    H241283   6.711   1.854   7.464 -0.1596 -0.6428 -0.2311
 6550TIP3   OH241284   6.607   5.139   6.560  0.2052 -0.1596  0.5649
 6550TIP3    H141285   6.690   5.102   6.589 -0.3207 -2.8638 -1.0583
 6550TIP3    H241286   6.631   5.196   6.487  0.5805 -2.5585 -1.3036
 6551TIP3   OH241287   1.730   0.122   0.313 -0.3090 -0.2587  0.1501
 6551TIP3    H141288   1.728   0.031   0.345 -0.0307  0.9010  3.9472
 6551TIP3    H241289   1.822   0.138   0.293 -0.1359 -0.4561  0.7552
 6552TIP3   OH241290   1.233   6.794   8.392 -0.4634 -0.0771 -0.6638
 6552TIP3    H141291   1.253   6.700   8.395  0.4815  0.1414  1.2886
 6552TIP3    H241292   1.146   6.799   8.354 -0.2930 -1.6981 -1.3379
 6553TIP3   OH241293   1.643   5.209   6.925 -0.3346  0.0157 -0.0645
 6553TIP3    H141294   1.737   5.191   6.928 -0.1573  0.9179  0.0775
 6553TIP3    H241295   1.620   5.203   6.832 -0.4008 -1.4232  0.0194
 6554TIP3   OH241296   4.821   2.727   1.143  0.8458 -0.1914  0.2015
 6554TIP3    H141297   4.882   2.801   1.137 -0.7942  1.1081 -2.2751
 6554TIP3    H241298   4.763   2.749   1.216  0.8112  0.6291 -0.0690
 6555TIP3   OH241299   5.651   4.136   1.818  0.8118  0.6311  0.3867
 6555TIP3    H141300   5.738   4.153   1.853  0.8658  0.8711  0.1417
 6555TIP3    H241301   5.613   4.223   1.805  1.0417  0.5769 -0.7610
 6556TIP3   OH241302   2.292   6.573   6.971  0.1721 -0.1621 -0.2797
 6556TIP3    H141303   2.338   6.614   6.898 -0.3908  0.8253 -0.1079
 6556TIP3    H241304   2.276   6.483   6.943  0.9820 -0.1199 -0.8952
 6557TIP3   OH241305   0.783   4.263   6.908 -0.2040 -0.7296  0.0487
 6557TIP3    H141306   0.789   4.355   6.882  1.6999 -0.7473  0.2239
 6557TIP3    H241307   0.795   4.264   7.003 -1.2852 -1.0847  0.1937
 6558TIP3   OH241308   5.010   0.204   2.012  0.1566  0.4877  0.4011
 6558TIP3    H141309   5.077   0.269   1.993  0.7026 -0.3182 -0.5256
 6558TIP3    H241310   5.054   0.138   2.065 -0.2149  0.5121  0.7534
 6559TIP3   OH241311   1.189   2.372   7.383 -0.2308  0.6613 -0.1807
 6559TIP3    H141312   1.143   2.295   7.416  0.5548  1.1555  2.2863
 6559TIP3    H241313   1.125   2.443   7.391 -0.0373  0.7841  0.2675
 6560TIP3   OH241314   6.026   1.631   8.030  0.5205  0.4597 -0.2508
 6560TIP3    H141315   6.076   1.691   8.085 -2.6534  3.3058 -0.1030
 6560TIP3    H241316   6.035   1.666   7.942  1.1264 -0.7889 -0.7097
 6561TIP3   OH241317   1.611   4.911   8.340  0.1043 -0.1266  0.5482
 6561TIP3    H141318   1.519   4.887   8.331 -0.5671  2.2408  0.4452
 6561TIP3    H241319   1.620   4.990   8.286  2.9684 -1.9750 -2.0280
 6562TIP3   OH241320   1.196   4.090   6.185 -0.2711 -0.7707  0.3843
 6562TIP3    H141321   1.207   4.086   6.090  0.0188 -0.1651  0.3861
 6562TIP3    H241322   1.130   4.024   6.204  0.1829 -1.3924 -0.1590
 6563TIP3   OH241323   5.582   2.884   1.991  0.1603 -0.0789  0.3801
 6563TIP3    H141324   5.558   2.836   2.070 -0.0634 -1.1662 -0.3150
 6563TIP3    H241325   5.663   2.843   1.962 -0.1651 -0.2137 -0.3623
 6564TIP3   OH241326   1.766   2.894   0.927  0.1165 -0.3522  0.0191
 6564TIP3    H141327   1.757   2.989   0.922 -1.1674 -0.4579  0.0420
 6564TIP3    H241328   1.855   2.880   0.959  0.5892  0.8185 -0.7066
 6565TIP3   OH241329   6.721   5.339   0.650  0.3506 -0.0643 -0.1315
 6565TIP3    H141330   6.636   5.309   0.618  1.3838 -1.4541 -1.7491
 6565TIP3    H241331   6.731   5.427   0.616 -0.6439  0.3093  0.5108
 6566TIP3   OH241332   0.425   1.516   0.733 -0.0049  0.0359  1.0476
 6566TIP3    H141333   0.390   1.427   0.737 -1.3600  0.5015  0.2700
 6566TIP3    H241334   0.505   1.509   0.682 -0.2161 -0.7063  0.8177
 6567TIP3   OH241335   0.412   6.358   0.659  0.1195 -0.0904  0.3368
 6567TIP3    H141336   0.358   6.304   0.717 -1.4582  0.2270 -0.7740
 6567TIP3    H241337   0.411   6.445   0.699 -0.3348 -0.0505  0.2443
 6568TIP3   OH241338   4.884   3.783   0.801  0.4540 -0.5153  0.3361
 6568TIP3    H141339   4.801   3.738   0.815 -0.2524  0.8311  0.6477
 6568TIP3    H241340   4.891   3.792   0.706 -0.0764 -0.0686  0.3370
 6569TIP3   OH241341   0.963   4.318   7.425  0.6872 -0.4330 -0.2378
 6569TIP3    H141342   0.897   4.269   7.474  0.3953 -1.4974 -1.6265
 6569TIP3    H241343   0.964   4.277   7.338  2.0277  0.6120 -0.7558
 6570TIP3   OH241344   3.309   1.872   7.718  0.1514  0.9185 -0.0059
 6570TIP3    H141345   3.302   1.955   7.764  3.2635  1.4877 -0.3992
 6570TIP3    H241346   3.321   1.807   7.786 -0.4769  1.0144  0.2048
 6571TIP3   OH241347   2.059   0.346   8.608  0.4243  0.3550 -0.3486
 6571TIP3    H141348   2.141   0.302   8.587 -0.4254 -2.0787  1.1016
 6571TIP3    H241349   2.026   0.376   8.523  1.6363 -0.7207 -1.2408
 6572TIP3   OH241350   4.676   5.747   7.606 -0.1835 -0.1135  0.4203
 6572TIP3    H141351   4.584   5.721   7.611  0.5982 -3.1442  1.3518
 6572TIP3    H241352   4.703   5.757   7.698 -0.3692  4.5626  0.1963
 6573TIP3   OH241353   4.381   5.867   1.061  0.0706 -0.2072 -0.1214
 6573TIP3    H141354   4.456   5.919   1.089  0.7624 -1.0678 -0.3738
 6573TIP3    H241355   4.387   5.786   1.111 -0.9460 -0.1145  0.1864
 6574TIP3   OH241356   6.537   4.624   1.548  0.2278  0.3749  0.1629
 6574TIP3    H141357   6.577   4.659   1.627 -1.1057 -1.6534  1.8444
 6574TIP3    H241358   6.567   4.534   1.543  1.3612  0.8030 -2.4701
 6575TIP3   OH241359   2.476   6.735   7.577 -0.2991  0.9340  0.4440
 6575TIP3    H141360   2.404   6.732   7.641 -1.1459  0.9288 -0.4744
 6575TIP3    H241361   2.555   6.729   7.630 -0.9992 -0.2437  1.4108
 6576TIP3   OH241362   0.067   0.505   6.971  0.3142 -0.1634  0.4129
 6576TIP3    H141363   0.129   0.436   6.994  1.9378  0.8093 -0.8585
 6576TIP3    H241364   0.088   0.576   7.032 -0.0608 -0.1024  0.4699
 6577TIP3   OH241365   4.620   1.408   1.115  0.3525 -0.3456  0.1801
 6577TIP3    H141366   4.572   1.488   1.135  0.2500  0.0983 -1.6759
 6577TIP3    H241367   4.711   1.428   1.138  0.3796  0.4320 -0.5536
 6578TIP3   OH241368   3.617   5.818   7.744  0.4386 -0.0493 -0.3006
 6578TIP3    H141369   3.650   5.737   7.784  0.3207 -0.0843 -0.2752
 6578TIP3    H241370   3.626   5.804   7.650  0.4832 -0.0639 -0.2946
 6579TIP3   OH241371   3.514   3.639   0.799 -0.1206  0.2375 -0.0390
 6579TIP3    H141372   3.515   3.556   0.750 -4.1273 -1.3554  2.0766
 6579TIP3    H241373   3.545   3.615   0.887  1.5453  1.7744 -0.1494
 6580TIP3   OH241374   2.166   5.961   1.214 -0.3409 -0.0811 -0.5321
 6580TIP3    H141375   2.223   5.901   1.165 -0.0901 -1.0653  0.8895
 6580TIP3    H241376   2.082   5.914   1.221 -0.7117  0.5077 -0.9117
 6581TIP3   OH241377   0.221   2.564   0.026 -0.6208 -0.4485  0.0105
 6581TIP3    H141378   0.149   2.525  -0.023 -0.0883 -1.1625 -0.2263
 6581TIP3    H241379   0.179   2.618   0.092 -1.3676 -0.5862 -0.3434
 6582TIP3   OH241380   0.964   1.240   0.373  0.2660 -0.3761  0.2697
 6582TIP3    H141381   0.969   1.331   0.346 -0.7506 -0.0492  1.1075
 6582TIP3    H241382   1.025   1.233   0.447  2.6095 -1.1324 -1.6086
 6583TIP3   OH241383   5.012   6.396   8.453 -0.2009 -0.1295 -0.8888
 6583TIP3    H141384   5.017   6.326   8.388 -0.0067 -0.0945 -0.9106
 6583TIP3    H241385   5.025   6.476   8.403 -0.7201 -0.0521 -0.9094
 6584TIP3   OH241386   5.331   0.505   1.422  0.8515  0.3571 -0.6478
 6584TIP3    H141387   5.364   0.423   1.458 -0.4102  0.3675  0.5886
 6584TIP3    H241388   5.334   0.492   1.327 -1.8252 -2.2070 -0.5098
 6585TIP3   OH241389   3.753   3.109   0.223 -0.5294  0.0142 -0.3198
 6585TIP3    H141390   3.747   3.054   0.144 -0.1286 -0.7135  0.1450
 6585TIP3    H241391   3.842   3.143   0.222 -0.2006 -0.7811  0.3106
 6586TIP3   OH241392   6.027   3.955   6.926  0.2789  1.2245 -0.0569
 6586TIP3    H141393   6.020   4.037   6.878 -2.0757  1.4821  0.6048
 6586TIP3    H241394   5.941   3.944   6.968  0.5080 -1.5777 -0.1271
 6587TIP3   OH241395   1.611   2.664   7.714  0.6006  0.0445  0.5316
 6587TIP3    H141396   1.692   2.636   7.672  1.4062 -1.1710  2.7374
 6587TIP3    H241397   1.635   2.680   7.805 -1.0319  2.6630  0.6242
 6588TIP3   OH241398   5.975   3.214   8.531  0.7608 -0.0760 -0.1315
 6588TIP3    H141399   5.903   3.275   8.539 -0.1246 -1.1579  0.4554
 6588TIP3    H241400   6.044   3.263   8.485  0.6643  1.8344  1.6290
 6589TIP3   OH241401   4.619   5.538   0.628 -0.3892 -0.3789 -0.4845
 6589TIP3    H141402   4.607   5.550   0.534  0.1529  1.3470 -0.3699
 6589TIP3    H241403   4.703   5.579   0.648 -1.0347  0.3685  0.9191
 6590TIP3   OH241404   2.363   5.982   6.858 -0.3109 -0.2284  0.2822
 6590TIP3    H141405   2.417   5.962   6.782  1.0625 -0.1689  1.1874
 6590TIP3    H241406   2.408   6.055   6.901 -0.4866 -0.8759  1.6533
 6591TIP3   OH241407   3.615   1.672   2.512 -0.1191 -0.0215 -0.7254
 6591TIP3    H141408   3.541   1.689   2.570  0.9095 -1.1150  0.9996
 6591TIP3    H241409   3.648   1.758   2.488  0.3037  0.5129  1.5397
 6592TIP3   OH241410   1.877   2.035   7.751 -0.4513 -0.6430  0.1587
 6592TIP3    H141411   1.936   1.961   7.760 -1.0236 -1.0649  0.5332
 6592TIP3    H241412   1.807   2.018   7.814 -0.9286 -0.1122 -0.2116
 6593TIP3   OH241413   1.271   6.521   8.383 -0.7967  0.0306 -0.2823
 6593TIP3    H141414   1.332   6.448   8.383 -0.1207  0.5795 -0.3875
 6593TIP3    H241415   1.186   6.482   8.404 -0.2729 -0.6281  0.6931
 6594TIP3   OH241416   4.566   3.444   7.869 -0.1879 -0.1515  0.3263
 6594TIP3    H141417   4.538   3.536   7.867 -0.8382 -0.2919  1.7028
 6594TIP3    H241418   4.516   3.403   7.798  0.1790  0.5647 -0.3613
 6595TIP3   OH241419   6.495   4.587   6.748 -0.2416  0.9795 -0.2143
 6595TIP3    H141420   6.566   4.642   6.716  1.0222 -0.7085 -0.4705
 6595TIP3    H241421   6.429   4.590   6.678  0.3600  1.1826 -0.7837
 6596TIP3   OH241422   5.812   5.787   7.645 -0.0935  0.0107  0.0365
 6596TIP3    H141423   5.801   5.749   7.733  0.8891 -0.0933  0.1263
 6596TIP3    H241424   5.780   5.718   7.586 -0.3313 -0.0999  0.2862
 6597TIP3   OH241425   0.530   6.237   6.530 -0.5626 -0.5231  0.0466
 6597TIP3    H141426   0.619   6.227   6.496 -1.5041 -1.2183 -2.4938
 6597TIP3    H241427   0.537   6.302   6.600  2.0207 -1.0747  0.3937
 6598TIP3   OH241428   3.946   1.240   0.601 -0.1649  0.2363  0.2378
 6598TIP3    H141429   3.948   1.249   0.696  0.8431  0.1188  0.2366
 6598TIP3    H241430   3.994   1.316   0.568  1.0320 -0.6287 -0.0872
 6599TIP3   OH241431   4.991   1.594   2.575  0.2337  0.0016 -0.3094
 6599TIP3    H141432   4.954   1.647   2.646 -1.4920  2.1977 -2.6375
 6599TIP3    H241433   5.077   1.634   2.558 -0.5166  1.3260 -1.1969
 6600TIP3   OH241434   4.533   3.390   7.328 -0.0334  0.5668  0.0048
 6600TIP3    H141435   4.614   3.391   7.379 -0.7103  2.0493  1.1611
 6600TIP3    H241436   4.512   3.298   7.317  1.8314  0.1470 -0.3981
 6601TIP3   OH241437   6.676   3.953   6.081 -0.4561 -0.5444  0.4850
 6601TIP3    H141438   6.725   3.877   6.051  0.1431 -0.2251  0.6519
 6601TIP3    H241439   6.742   4.018   6.104 -0.9645  0.5307 -0.9258
 6602TIP3   OH241440   0.833   4.576   7.553  0.6217  0.2867  0.3592
 6602TIP3    H141441   0.775   4.593   7.479 -2.1533 -1.6829  1.9042
 6602TIP3    H241442   0.891   4.506   7.522 -1.4234 -1.5076  0.3314
 6603TIP3   OH241443   5.786   3.013   2.330 -0.1015 -0.4908 -0.1428
 6603TIP3    H141444   5.853   3.038   2.267 -0.6998 -0.7454 -0.8844
 6603TIP3    H241445   5.814   2.927   2.362  0.6002 -0.0362  0.5209
 6604TIP3   OH241446   2.828   1.132   0.603  0.3980 -0.6278 -0.4336
 6604TIP3    H141447   2.738   1.099   0.604  0.1103  0.0999  1.2644
 6604TIP3    H241448   2.821   1.221   0.568 -0.1088  0.6830  2.6744
 6605TIP3   OH241449   2.829   1.476   8.165  0.3096 -0.4028 -0.0412
 6605TIP3    H141450   2.885   1.403   8.190  2.9287  1.4797  0.0315
 6605TIP3    H241451   2.875   1.554   8.197 -1.8193  1.3703 -0.9926
 6606TIP3   OH241452   0.750   2.164   0.417 -1.2423 -0.1947  0.4614
 6606TIP3    H141453   0.822   2.225   0.437  0.2208 -1.1539 -1.5975
 6606TIP3    H241454   0.688   2.217   0.366 -0.7451 -0.0003  0.0456
 6607TIP3   OH241455   3.177   6.825   7.572 -0.2466 -0.4561 -0.3782
 6607TIP3    H141456   3.265   6.798   7.545  0.1322  0.4530 -0.1330
 6607TIP3    H241457   3.192   6.909   7.616 -1.1411 -0.7131  0.4348
 6608TIP3   OH241458   2.920   2.965   8.537 -0.6605  0.4666  0.4995
 6608TIP3    H141459   2.877   2.946   8.620  0.5263 -0.0333  1.0072
 6608TIP3    H241460   3.011   2.982   8.560 -0.4361  0.8746 -0.6384
 6609TIP3   OH241461   2.031   5.130   7.271  0.1332 -0.7730 -0.6618
 6609TIP3    H141462   1.953   5.103   7.223 -0.3096 -0.0289 -0.3874
 6609TIP3    H241463   2.039   5.224   7.253 -0.2123 -0.4069  0.9056
 6610TIP3   OH241464   2.647   4.089   1.287 -0.5156  0.5840 -0.2977
 6610TIP3    H141465   2.683   4.164   1.239  1.8080 -1.2211 -1.5923
 6610TIP3    H241466   2.701   4.083   1.365 -1.2440  0.7258  0.2248
 6611TIP3   OH241467   4.659   1.299   6.979 -0.0151 -0.2596  0.1497
 6611TIP3    H141468   4.675   1.329   7.068 -0.3724 -1.3347  0.5924
 6611TIP3    H241469   4.674   1.204   6.982  2.2801 -0.0298 -1.4754
 6612TIP3   OH241470   6.700   6.591   7.538 -0.6157  0.2453  0.6678
 6612TIP3    H141471   6.631   6.596   7.605  0.5676 -1.5526  2.1060
 6612TIP3    H241472   6.756   6.667   7.556 -1.3512  0.8499  0.4674
 6613TIP3   OH241473   1.317   3.769   6.792  0.0506 -0.1652 -0.0323
 6613TIP3    H141474   1.365   3.840   6.749 -1.2138 -0.1078 -1.4281
 6613TIP3    H241475   1.381   3.729   6.851  1.2963  0.9958 -0.5453
 6614TIP3   OH241476   4.587   2.775   7.554 -0.2360  0.5790  0.0225
 6614TIP3    H141477   4.513   2.714   7.549 -0.5669  0.8771  0.9798
 6614TIP3    H241478   4.661   2.720   7.580 -0.8286  0.7533  2.2931
 6615TIP3   OH241479   3.418   4.155   8.541 -0.4908 -0.1741 -0.4588
 6615TIP3    H141480   3.507   4.124   8.560 -0.0090  1.3228 -0.1086
 6615TIP3    H241481   3.361   4.097   8.591  0.3788 -0.3416  0.3624
 6616TIP3   OH241482   4.842   4.939   8.125  0.1225  0.6688 -0.2849
 6616TIP3    H141483   4.826   4.960   8.217 -1.0000  0.4898 -0.4211
 6616TIP3    H241484   4.828   4.844   8.119  2.3191  0.3008 -0.2378
 6617TIP3   OH241485   2.782   2.265   8.407 -0.0581  0.3214  0.4523
 6617TIP3    H141486   2.840   2.204   8.452 -0.4064 -1.7122 -1.6723
 6617TIP3    H241487   2.841   2.328   8.365  0.3986  0.3575  1.1395
 6618TIP3   OH241488   1.798   5.503   1.285  0.3286 -0.4581 -0.4254
 6618TIP3    H141489   1.807   5.453   1.203  2.1105  0.9724 -1.1730
 6618TIP3    H241490   1.845   5.451   1.350 -1.3305 -1.7426 -0.1939
 6619TIP3   OH241491   3.211   6.326   8.685 -0.2529  0.1040 -0.1213
 6619TIP3    H141492   3.163   6.245   8.665 -0.4488  0.1772  0.0573
 6619TIP3    H241493   3.162   6.366   8.756  0.7052 -0.3977  0.8547
 6620TIP3   OH241494   5.191   6.475   0.018  0.1432  0.1308 -0.4216
 6620TIP3    H141495   5.140   6.556   0.018  0.7652  0.6471 -3.1647
 6620TIP3    H241496   5.282   6.504   0.014  0.5147 -0.7591  0.9787
 6621TIP3   OH241497   5.562   0.850   7.993 -0.2618  0.4254 -0.2850
 6621TIP3    H141498   5.537   0.847   8.086 -0.8189  1.0310 -0.4060
 6621TIP3    H241499   5.556   0.759   7.964 -2.0271  0.4677 -0.1984
 6622TIP3   OH241500   1.135   5.137   8.715 -0.5040  0.0513 -0.5285
 6622TIP3    H141501   1.117   5.104   8.802  1.1715  0.0507 -0.1475
 6622TIP3    H241502   1.104   5.069   8.656 -1.8321  0.1411  0.0411
 6623TIP3   OH241503   4.519   6.014   6.467  0.2677  0.6614 -0.1336
 6623TIP3    H141504   4.437   6.015   6.518  1.1444  0.9398  1.3407
 6623TIP3    H241505   4.542   5.921   6.461 -0.4007  0.5417 -0.9911
 6624TIP3   OH241506   1.395   2.472   1.977  0.0273 -0.5428 -0.3193
 6624TIP3    H141507   1.459   2.410   2.011  0.9391  0.9107  0.7543
 6624TIP3    H241508   1.386   2.538   2.046 -2.7038 -0.7178 -0.4136
 6625TIP3   OH241509   2.037   6.659   8.741  0.0084 -0.4283 -0.0339
 6625TIP3    H141510   2.127   6.635   8.716  0.1913 -0.9364  1.0471
 6625TIP3    H241511   2.044   6.749   8.772  0.5269 -1.0444  1.7773
 6626TIP3   OH241512   2.093   3.544   6.394 -0.4940 -0.5034 -0.0678
 6626TIP3    H141513   2.028   3.613   6.385 -0.0552  0.2081  1.7295
 6626TIP3    H241514   2.104   3.533   6.489  2.9652  0.3755 -0.2064
 6627TIP3   OH241515   4.084   1.577   0.800  0.1986  0.3524 -0.4745
 6627TIP3    H141516   4.179   1.571   0.810  0.2949  0.6526 -1.1409
 6627TIP3    H241517   4.068   1.669   0.781 -0.2739  0.3879  0.0831
 6628TIP3   OH241518   0.066   2.093   0.641  0.1497 -0.3443 -0.4093
 6628TIP3    H141519   0.043   2.151   0.568 -1.2720 -1.6230 -1.0293
 6628TIP3    H241520   0.070   2.006   0.602  1.7254 -0.7571  0.6139
 6629TIP3   OH241521   3.077   6.414   7.350  0.6865  0.3483  0.1370
 6629TIP3    H141522   3.157   6.422   7.402  0.9423  1.1519 -0.3489
 6629TIP3    H241523   3.058   6.321   7.348 -0.4336  0.3977  3.3016
 6630TIP3   OH241524   0.520   1.122   7.248  0.0179  0.0213  0.2854
 6630TIP3    H141525   0.605   1.113   7.206 -0.5484 -1.4264 -0.6439
 6630TIP3    H241526   0.538   1.170   7.329  2.4396 -3.6884  2.2230
 6631TIP3   OH241527   3.181   5.534   7.141 -0.5108 -0.1540 -0.6436
 6631TIP3    H141528   3.089   5.512   7.125 -0.7050  0.1259  0.0571
 6631TIP3    H241529   3.191   5.529   7.236 -0.0667  0.8419 -0.6217
 6632TIP3   OH241530   0.199   6.435   7.805  0.0734 -0.3366 -0.8475
 6632TIP3    H141531   0.154   6.483   7.874 -1.1135  0.6347 -2.2393
 6632TIP3    H241532   0.221   6.501   7.739  2.3858 -1.0052 -0.8317
 6633TIP3   OH241533   3.390   1.689   6.572 -0.5749  0.0950 -0.1661
 6633TIP3    H141534   3.450   1.618   6.554 -0.9217  0.0755 -1.3078
 6633TIP3    H241535   3.444   1.768   6.573 -0.5359  0.0933 -1.3212
 6634TIP3   OH241536   5.134   1.745   6.747 -0.4498  0.1714  0.3702
 6634TIP3    H141537   5.055   1.701   6.776 -1.6280  0.8066 -1.6629
 6634TIP3    H241538   5.167   1.691   6.674  0.7508  0.1506  0.8998
 6635TIP3   OH241539   2.646   0.813   8.344  0.2367  0.0940 -0.2395
 6635TIP3    H141540   2.640   0.890   8.287 -2.3740  0.1688  0.0143
 6635TIP3    H241541   2.615   0.740   8.290 -1.4584  0.0222  0.7496
 6636TIP3   OH241542   3.520   1.344   7.690 -0.5546 -0.4092 -0.4515
 6636TIP3    H141543   3.499   1.374   7.779 -1.9383 -1.2430 -0.4823
 6636TIP3    H241544   3.602   1.296   7.700 -0.1814  0.3239  0.1904
 6637TIP3   OH241545   4.726   1.063   8.003 -0.5220 -0.0046  0.1098
 6637TIP3    H141546   4.683   1.142   8.038  0.3543  1.1751 -1.3619
 6637TIP3    H241547   4.819   1.080   8.014 -0.3302 -1.4174  0.9121
 6638TIP3   OH241548   6.680   4.693   8.058  0.1625 -0.3064  0.0998
 6638TIP3    H141549   6.640   4.778   8.041 -0.8556 -0.6744  0.5613
 6638TIP3    H241550   6.772   4.704   8.034  0.2697  1.2109  1.0889
 6639TIP3   OH241551   6.306   4.441   1.016 -0.0041 -0.0101 -0.2028
 6639TIP3    H141552   6.385   4.465   1.064  0.2808  0.7279 -1.0092
 6639TIP3    H241553   6.329   4.452   0.924 -1.0213  0.1298 -0.4588
 6640TIP3   OH241554   1.801   5.218   8.697 -0.3226 -0.5611  0.0534
 6640TIP3    H141555   1.826   5.133   8.661  3.0701  0.0102  0.7479
 6640TIP3    H241556   1.753   5.197   8.777 -1.1600 -1.7880 -0.7455
 6641TIP3   OH241557   6.817   3.053   8.560  0.2246 -0.1333 -0.0101
 6641TIP3    H141558   6.761   3.131   8.565 -0.3241 -0.5465  0.4658
 6641TIP3    H241559   6.852   3.043   8.648  0.8144 -0.0587 -0.2305
 6642TIP3   OH241560   5.949   4.178   6.793  0.1226  0.0190  0.7481
 6642TIP3    H141561   5.891   4.252   6.775  0.1079 -0.2143 -0.2199
 6642TIP3    H241562   5.994   4.162   6.709 -0.6600 -1.7411  0.6230
 6643TIP3   OH241563   4.055   5.489   1.526  0.6034 -0.0337 -0.2883
 6643TIP3    H141564   4.107   5.504   1.605  0.0639 -0.8434  0.2376
 6643TIP3    H241565   3.986   5.556   1.530  1.2242  0.6445 -0.6685
 6644TIP3   OH241566   0.249   4.909   8.714  0.0796 -0.0404  0.2990
 6644TIP3    H141567   0.233   4.816   8.729 -0.3351  0.2160  1.6714
 6644TIP3    H241568   0.165   4.943   8.683  0.0749 -0.0397  0.3122
 6645TIP3   OH241569   1.966   2.667   6.158  0.1439 -0.4005  0.2676
 6645TIP3    H141570   1.933   2.591   6.110  0.3106 -0.4559  0.2415
 6645TIP3    H241571   1.902   2.736   6.141  0.8152 -0.0669 -0.9895
 6646TIP3   OH241572   4.661   6.105   1.935 -0.2567  0.3457 -0.0390
 6646TIP3    H141573   4.731   6.048   1.965  0.0562  0.0572 -1.2553
 6646TIP3    H241574   4.587   6.086   1.993  0.5395  0.3826  1.0098
 6647TIP3   OH241575   5.712   0.828   0.497  0.0853 -0.0994  0.8755
 6647TIP3    H141576   5.617   0.824   0.487 -0.0179  1.1997  1.1594
 6647TIP3    H241577   5.727   0.900   0.558  1.2815  0.0223  0.4668
 6648TIP3   OH241578   2.051   4.714   8.664  0.2898  0.0467 -0.2232
 6648TIP3    H141579   1.999   4.757   8.596  0.5513 -1.1692 -1.2105
 6648TIP3    H241580   2.107   4.653   8.617  2.4271  1.0828  0.8291
 6649TIP3   OH241581   5.777   2.293   1.983 -0.5303 -0.3315 -0.3028
 6649TIP3    H141582   5.687   2.275   1.955 -0.1339  0.7590 -2.5568
 6649TIP3    H241583   5.775   2.384   2.012 -0.4434 -0.7845  1.2192
 6650TIP3   OH241584   6.832   4.580   0.403 -0.0615 -0.3501 -0.0110
 6650TIP3    H141585   6.877   4.660   0.375 -1.8992  0.4553 -0.8824
 6650TIP3    H241586   6.746   4.611   0.432 -0.8548 -2.0068 -0.4973
 6651TIP3   OH241587   5.069   6.703   7.521 -0.0602  0.1203  0.7240
 6651TIP3    H141588   5.124   6.627   7.536  0.2715  0.2366  0.1098
 6651TIP3    H241589   4.984   6.667   7.495 -0.2077 -0.0509  1.4098
 6652TIP3   OH241590   4.037   4.846   0.768 -0.7589  0.4666  0.0379
 6652TIP3    H141591   4.077   4.760   0.760 -1.7896  0.1286 -2.3273
 6652TIP3    H241592   3.943   4.829   0.773 -1.0534  1.4223 -1.4297
 6653TIP3   OH241593   0.455   6.082   7.243  0.6574  0.2527  0.2351
 6653TIP3    H141594   0.367   6.049   7.260  0.5630  0.6610  0.5622
 6653TIP3    H241595   0.444   6.146   7.173  0.5574  0.9409  0.8686
 6654TIP3   OH241596   0.178   3.303   2.015 -0.3816 -0.0232  0.0883
 6654TIP3    H141597   0.166   3.322   2.108  3.8862 -0.6402  0.9670
 6654TIP3    H241598   0.180   3.389   1.973 -2.1320  0.2703  0.5184
 6655TIP3   OH241599   2.366   0.439   5.960  0.2946  0.2884  0.1963
 6655TIP3    H141600   2.431   0.377   5.926 -0.7558 -1.9097  1.9134
 6655TIP3    H241601   2.298   0.384   5.998 -2.4232  2.4889 -1.1230
 6656TIP3   OH241602   3.936   4.882   1.056  0.0798 -0.4013 -0.1575
 6656TIP3    H141603   4.008   4.826   1.028 -1.0902 -1.1242 -1.9325
 6656TIP3    H241604   3.860   4.824   1.058 -1.1275  1.0121 -1.8352
 6657TIP3   OH241605   2.354   4.054   8.658 -0.1183  0.1285 -0.1056
 6657TIP3    H141606   2.302   4.006   8.722  0.2083 -0.2294 -0.1040
 6657TIP3    H241607   2.445   4.044   8.687 -0.0329  0.6243 -0.1899
 6658TIP3   OH241608   5.717   1.369   8.479 -0.1123  0.4100 -0.4309
 6658TIP3    H141609   5.717   1.283   8.520 -0.8590 -0.0608 -1.3785
 6658TIP3    H241610   5.714   1.351   8.385  0.7498  1.4660 -0.6843
 6659TIP3   OH241611   5.678   4.102   5.951  0.4680  0.3989 -0.8410
 6659TIP3    H141612   5.686   4.066   6.039 -0.8975  1.1416 -0.3808
 6659TIP3    H241613   5.738   4.050   5.898  1.5991  0.1904  0.5905
 6660TIP3   OH241614   4.024   1.628   6.518 -0.2335  0.3780 -0.7126
 6660TIP3    H141615   4.040   1.621   6.612 -0.2420 -0.0983 -0.7450
 6660TIP3    H241616   4.111   1.617   6.478 -0.5602 -2.1110 -0.8846
 6661TIP3   OH241617   0.725   5.496   8.488  0.2194 -0.3336 -0.0177
 6661TIP3    H141618   0.665   5.454   8.426 -0.6925  0.6302  0.1792
 6661TIP3    H241619   0.764   5.568   8.438  0.1560 -0.1064  0.2558
 6662TIP3   OH241620   2.505   1.092   8.393 -0.3446  0.0877 -0.3135
 6662TIP3    H141621   2.417   1.127   8.384 -0.0138  0.7749 -0.9239
 6662TIP3    H241622   2.495   1.016   8.451 -1.5548 -0.7370 -1.5651
 6663TIP3   OH241623   1.060   6.408   7.067  0.0504 -0.4646 -0.3376
 6663TIP3    H141624   1.085   6.481   7.010 -0.0239 -0.7001 -0.6710
 6663TIP3    H241625   1.142   6.361   7.082  0.3314  0.3558  0.8436
 6664TIP3   OH241626   4.898   4.397   1.275  0.2130  0.7717  0.0234
 6664TIP3    H141627   4.905   4.331   1.206 -0.7496  0.3672  0.2878
 6664TIP3    H241628   4.986   4.403   1.313 -0.1581 -2.0923  1.5563
 6665TIP3   OH241629   1.399   0.436   7.387  0.0686 -0.4558  0.6471
 6665TIP3    H141630   1.474   0.430   7.446  0.3260  0.6230  0.4447
 6665TIP3    H241631   1.435   0.417   7.300 -0.7180 -4.5041  0.9898
 6666TIP3   OH241632   6.326   3.882   6.984 -0.0863 -0.3561 -0.0465
 6666TIP3    H141633   6.314   3.898   6.890  0.5297 -0.6868 -0.1896
 6666TIP3    H241634   6.348   3.968   7.021  3.0642 -0.7269 -0.7816
 6667TIP3   OH241635   1.537   1.572   6.786 -0.0455  0.3582 -0.5084
 6667TIP3    H141636   1.493   1.633   6.726 -0.2086  0.3184 -0.4313
 6667TIP3    H241637   1.567   1.627   6.858  0.2857  0.4297 -0.6995
 6668TIP3   OH241638   0.278   4.449   6.393 -0.3821  0.4383 -0.7164
 6668TIP3    H141639   0.350   4.494   6.349  0.4321  1.8868  1.9203
 6668TIP3    H241640   0.301   4.356   6.387  2.6235  0.9040  1.3741
 6669TIP3   OH241641   4.230   5.737   7.160 -0.2081 -0.4812 -0.3725
 6669TIP3    H141642   4.197   5.801   7.096  1.3209  1.0812  0.3210
 6669TIP3    H241643   4.305   5.696   7.117 -0.4792 -0.9752 -0.3777
 6670TIP3   OH241644   6.529   6.152   6.730  0.2711  0.5102 -0.4290
 6670TIP3    H141645   6.511   6.059   6.739 -0.2241  0.4970 -1.3981
 6670TIP3    H241646   6.611   6.157   6.682  1.0545  0.5835  0.8799
 6671TIP3   OH241647   1.221   5.345   1.015  0.0148  0.0409  0.2169
 6671TIP3    H141648   1.247   5.338   1.107 -0.5402 -0.2806  0.3532
 6671TIP3    H241649   1.166   5.423   1.012  1.8058  1.3308 -0.2706
 6672TIP3   OH241650   2.632   5.135   6.620  0.3912 -0.2942  0.2280
 6672TIP3    H141651   2.697   5.131   6.550 -0.4391 -0.0549 -0.5748
 6672TIP3    H241652   2.682   5.162   6.698  1.7818 -2.8940  0.3505
 6673TIP3   OH241653   1.218   3.275   2.022 -0.0558 -0.1142 -0.1295
 6673TIP3    H141654   1.303   3.263   1.980  0.6967 -0.3931  1.4025
 6673TIP3    H241655   1.179   3.188   2.021  0.7735 -0.5498  1.3496
 6674TIP3   OH241656   3.020   2.046   0.715 -0.4007  0.2516 -0.2731
 6674TIP3    H141657   2.947   2.045   0.654  1.4325 -1.5802 -2.6503
 6674TIP3    H241658   3.067   2.127   0.694 -0.1233 -0.0634 -0.9020
 6675TIP3   OH241659   1.751   0.312   7.867 -0.1002 -0.1873  0.7418
 6675TIP3    H141660   1.779   0.391   7.819  1.2848 -0.3848  1.1966
 6675TIP3    H241661   1.725   0.251   7.798 -1.4720  0.7289  0.3848
 6676TIP3   OH241662   2.133   1.252   0.242  0.7556 -0.0560 -0.6052
 6676TIP3    H141663   2.131   1.347   0.236 -0.9909 -0.0596 -0.6597
 6676TIP3    H241664   2.100   1.222   0.157  0.0930 -0.6743 -0.1394
 6677TIP3   OH241665   1.543   1.256   7.896  0.2491  0.2771 -0.5151
 6677TIP3    H141666   1.497   1.187   7.944  0.1282  0.5477 -0.2428
 6677TIP3    H241667   1.530   1.232   7.804  1.0592 -0.6166 -0.4187
 6678TIP3   OH241668   1.060   4.576   6.538 -0.7139  0.1727  0.3942
 6678TIP3    H141669   1.015   4.659   6.528  0.0304  0.3146 -3.6380
 6678TIP3    H241670   1.024   4.521   6.468  0.9803 -1.8264  0.9881
 6679TIP3   OH241671   3.711   3.754   0.152 -0.4021  0.0591 -0.0232
 6679TIP3    H141672   3.642   3.813   0.184 -0.3580  0.5559 -0.8056
 6679TIP3    H241673   3.664   3.673   0.129 -0.4217 -0.3276  1.3256
 6680TIP3   OH241674   3.242   3.637   0.835  0.4638 -0.5074  0.1180
 6680TIP3    H141675   3.327   3.677   0.816  2.3499 -3.3693  1.8203
 6680TIP3    H241676   3.238   3.561   0.778 -0.9487 -0.4819  0.1458
 6681TIP3   OH241677   2.768   5.142   6.968  0.2287 -0.1996 -0.2377
 6681TIP3    H141678   2.821   5.131   7.047 -0.1433 -0.1581  0.0187
 6681TIP3    H241679   2.833   5.148   6.897  0.6654  1.8326  0.2827
 6682TIP3   OH241680   4.629   6.659   1.696  0.0070 -0.1609  0.3442
 6682TIP3    H141681   4.669   6.590   1.643 -0.2297  0.6602 -0.9542
 6682TIP3    H241682   4.680   6.659   1.777  2.0816  0.2282 -0.8897
 6683TIP3   OH241683   2.118   6.742   8.416  0.2720 -0.1774  0.4394
 6683TIP3    H141684   2.050   6.690   8.374  0.6415 -1.5146  1.4224
 6683TIP3    H241685   2.189   6.680   8.433  0.3581  0.4056  2.4725
 6684TIP3   OH241686   0.350   5.205   0.086 -0.6088  0.0120  0.0791
 6684TIP3    H141687   0.389   5.208   0.173 -0.8985  1.5329  0.1805
 6684TIP3    H241688   0.318   5.115   0.077 -0.0741 -0.3226  1.2989
 6685TIP3   OH241689   2.004   1.968   1.356 -0.4417  0.4588  0.3530
 6685TIP3    H141690   1.957   2.044   1.390  0.0919  0.7550  0.4378
 6685TIP3    H241691   2.077   2.005   1.306 -1.8387  0.0953 -2.1247
 6686TIP3   OH241692   3.924   0.951   6.253  0.0667  0.8294 -0.0416
 6686TIP3    H141693   3.880   1.016   6.198 -1.1236  1.2781  1.4007
 6686TIP3    H241694   3.943   0.996   6.335 -0.7629 -0.5965  0.9902
 6687TIP3   OH241695   5.612   4.320   0.760  0.3852  0.1797  0.0691
 6687TIP3    H141696   5.621   4.349   0.669  1.2794  2.6041  0.8612
 6687TIP3    H241697   5.698   4.334   0.798  0.4771 -2.2910  0.9676
 6688TIP3   OH241698   6.583   3.949   6.641 -0.3514 -0.3428  1.0511
 6688TIP3    H141699   6.652   3.910   6.587 -0.8896  0.7282 -0.4662
 6688TIP3    H241700   6.629   4.005   6.703  0.1420  0.9475 -0.4338
 6689TIP3   OH241701   5.699   2.492   8.145 -0.0250 -0.2583 -0.1247
 6689TIP3    H141702   5.626   2.456   8.095 -0.1818  0.5627 -0.4991
 6689TIP3    H241703   5.684   2.461   8.234 -0.7422 -0.2308 -0.2290
 6690TIP3   OH241704   5.188   5.046   7.542 -0.1094 -0.6501 -0.1698
 6690TIP3    H141705   5.259   5.014   7.486  0.2143 -1.3902  0.6355
 6690TIP3    H241706   5.215   5.134   7.568 -0.7610  0.1294 -1.9991
 6691TIP3   OH241707   2.569   3.205   2.416 -0.0987  0.1128  0.1447
 6691TIP3    H141708   2.660   3.198   2.387 -0.4842 -5.0809 -0.7814
 6691TIP3    H241709   2.520   3.226   2.337  0.1073  0.8279  0.2045
 6692TIP3   OH241710   5.652   5.722   1.272  0.6249  0.1026 -0.6404
 6692TIP3    H141711   5.660   5.648   1.333 -1.6190  0.3584  0.0814
 6692TIP3    H241712   5.724   5.781   1.295  1.4083 -1.0490 -0.0535
 6693TIP3   OH241713   3.393   5.525   7.386 -0.1722 -0.2925 -0.0344
 6693TIP3    H141714   3.458   5.476   7.437 -1.2058 -2.2856 -0.5669
 6693TIP3    H241715   3.438   5.546   7.304  0.2527 -0.4151  0.1622
 6694TIP3   OH241716   3.135   4.919   8.386 -0.5816 -0.1194 -0.0200
 6694TIP3    H141717   3.082   4.935   8.308  1.2182  2.8743 -0.7732
 6694TIP3    H241718   3.097   4.976   8.453 -0.0523 -0.1170  0.2832
 6695TIP3   OH241719   6.826   6.090   1.684  0.2188  0.0621 -0.5840
 6695TIP3    H141720   6.888   6.024   1.713 -1.8042 -1.8473 -0.3750
 6695TIP3    H241721   6.881   6.162   1.652  2.4974 -1.2288  0.2133
 6696TIP3   OH241722   1.820   5.907   1.530  0.5800 -0.3328  0.3617
 6696TIP3    H141723   1.798   5.964   1.604 -0.3228 -0.1747 -0.0172
 6696TIP3    H241724   1.738   5.862   1.509  0.3485  0.9160 -1.6606
 6697TIP3   OH241725   4.476   3.967   6.927 -0.1633 -0.4033 -0.1073
 6697TIP3    H141726   4.515   3.893   6.882 -0.4570 -0.7615  0.2249
 6697TIP3    H241727   4.396   3.986   6.878  0.7955  0.8418 -1.2799
 6698TIP3   OH241728   0.902   2.588   6.430  0.6214  0.6084 -0.1637
 6698TIP3    H141729   0.919   2.582   6.336  1.2122 -1.1163  0.0192
 6698TIP3    H241730   0.964   2.653   6.462  0.1159  1.5399 -1.0093
 6699TIP3   OH241731   0.057   4.421   6.630  0.4614  0.4274 -0.7005
 6699TIP3    H141732   0.111   4.486   6.675  2.7072 -0.7041 -1.5995
 6699TIP3    H241733   0.074   4.340   6.677 -0.4001  0.0183 -1.0799
 6700TIP3   OH241734   4.901   5.475   8.420  0.5180  0.2279 -0.4949
 6700TIP3    H141735   4.825   5.494   8.476  0.0405  1.1285 -1.4334
 6700TIP3    H241736   4.924   5.384   8.442 -0.0537  0.3477  0.6939
 6701TIP3   OH241737   2.724   1.106   0.910 -0.1724 -0.0270  0.7508
 6701TIP3    H141738   2.774   1.098   0.991  1.3645 -1.7453 -0.3132
 6701TIP3    H241739   2.777   1.062   0.843 -1.5107  1.0962 -1.1639
 6702TIP3   OH241740   0.102   4.656   7.728  0.3168 -0.2628 -0.0011
 6702TIP3    H141741   0.045   4.638   7.803  0.2678  0.5594  0.1738
 6702TIP3    H241742   0.042   4.663   7.654 -0.3768  4.0537  0.6953
 6703TIP3   OH241743   0.281   2.861   7.072  0.2426  0.1562  0.3696
 6703TIP3    H141744   0.201   2.909   7.050 -0.1562 -0.4712  0.3972
 6703TIP3    H241745   0.296   2.804   6.996 -0.2700 -0.9008  1.0254
 6704TIP3   OH241746   4.164   2.964   8.637  0.2347 -0.4362 -0.2698
 6704TIP3    H141747   4.090   2.939   8.581  0.0606  0.4052 -0.4260
 6704TIP3    H241748   4.236   2.979   8.576  0.1013  0.2780 -0.2634
 6705TIP3   OH241749   3.702   2.089   0.316 -0.4747 -0.2905  0.3098
 6705TIP3    H141750   3.683   2.144   0.241  0.7432  1.7151  1.3936
 6705TIP3    H241751   3.774   2.033   0.288 -2.2651 -2.0491 -1.0710
 6706TIP3   OH241752   5.509   6.871   8.679  0.7135  0.0378  0.1552
 6706TIP3    H141753   5.479   6.893   8.767  1.9154 -0.7883  0.8046
 6706TIP3    H241754   5.602   6.897   8.679  0.3928  1.3110 -1.3340
 6707TIP3   OH241755   3.459   6.074   8.384  0.5754 -0.1473  0.0241
 6707TIP3    H141756   3.453   6.089   8.479  1.3895 -0.9051  0.2182
 6707TIP3    H241757   3.387   6.013   8.365  0.6138 -0.2579  0.2232
 6708TIP3   OH241758   6.471   6.170   7.638  0.1974  0.2230 -0.1778
 6708TIP3    H141759   6.555   6.196   7.600  0.1889 -0.1559 -0.4649
 6708TIP3    H241760   6.475   6.074   7.641 -0.1892  0.2079 -0.1067
 6709TIP3   OH241761   5.534   2.222   8.324  0.8105 -0.0453 -0.0834
 6709TIP3    H141762   5.546   2.301   8.376 -0.4514 -0.6633  1.2361
 6709TIP3    H241763   5.609   2.167   8.346  1.8548  0.8645 -1.2380
 6710TIP3   OH241764   5.003   3.325   0.029 -0.4222  0.7176 -0.5256
 6710TIP3    H141765   5.051   3.370  -0.041  1.1408 -1.4332 -0.9489
 6710TIP3    H241766   5.042   3.238   0.032  0.0798  0.8959  3.5065
 6711TIP3   OH241767   3.467   0.589   8.268 -0.3250 -0.5317  0.4928
 6711TIP3    H141768   3.562   0.600   8.265 -0.3000 -0.7068  0.6384
 6711TIP3    H241769   3.451   0.503   8.229 -0.4557 -0.3414  0.1157
 6712TIP3   OH241770   2.493   0.548   6.781  0.0265  0.0499 -0.2094
 6712TIP3    H141771   2.405   0.580   6.760  0.1926 -0.0684 -1.1220
 6712TIP3    H241772   2.552   0.603   6.728  0.4819 -0.0816  0.1539
 6713TIP3   OH241773   1.003   1.175   0.073  0.0305  0.0353  0.1905
 6713TIP3    H141774   0.970   1.249   0.021  1.3852  0.7947  0.3673
 6713TIP3    H241775   0.944   1.171   0.148 -2.1074 -1.2145 -1.4211
 6714TIP3   OH241776   2.922   1.413   0.749 -0.1035  0.5477 -0.2165
 6714TIP3    H141777   2.859   1.358   0.701 -1.8178  1.1599  1.2342
 6714TIP3    H241778   2.899   1.503   0.724  0.6922  0.7455 -0.2423
 6715TIP3   OH241779   5.409   3.721   1.162  0.2154 -0.1540 -0.2645
 6715TIP3    H141780   5.389   3.631   1.136  0.1163 -0.3221  0.3718
 6715TIP3    H241781   5.403   3.720   1.257  0.5464  0.4515 -0.2344
 6716TIP3   OH241782   1.559   3.963   7.003 -0.0402 -0.5584 -0.2491
 6716TIP3    H141783   1.565   3.869   6.988  0.0261 -1.0140  2.2926
 6716TIP3    H241784   1.479   3.974   7.055 -0.8076  0.9972 -1.6482
 6717TIP3   OH241785   4.990   3.881   8.131  0.2808 -0.7872 -0.5032
 6717TIP3    H141786   5.059   3.922   8.079  0.6124 -1.4351 -0.5853
 6717TIP3    H241787   5.036   3.842   8.205 -0.2220  0.3859  0.4504
 6718TIP3   OH241788   3.889   3.651   8.471 -0.3405 -0.0827  0.1308
 6718TIP3    H141789   3.860   3.648   8.562  1.4965  1.9812  0.8548
 6718TIP3    H241790   3.960   3.586   8.467  1.5038  1.7485  1.0130
 6719TIP3   OH241791   4.197   5.556   1.754 -0.5110 -0.5092  0.3153
 6719TIP3    H141792   4.265   5.578   1.817  0.1210  0.8548 -0.7886
 6719TIP3    H241793   4.124   5.614   1.775 -0.8858 -1.1096  0.7173
 6720TIP3   OH241794   0.697   3.774   8.310 -0.2626 -0.1306 -0.0987
 6720TIP3    H141795   0.605   3.800   8.311 -0.1951  0.1041  0.0947
 6720TIP3    H241796   0.699   3.693   8.260 -0.5151  0.0840 -0.4542
 6721TIP3   OH241797   1.752   1.609   8.535  0.1632 -0.2409 -0.0334
 6721TIP3    H141798   1.666   1.651   8.529  1.3304  2.2850 -0.7898
 6721TIP3    H241799   1.746   1.533   8.478 -1.8651 -0.7327  0.7522
 6722TIP3   OH241800   5.948   2.074   1.909 -0.0288 -0.6344  0.1925
 6722TIP3    H141801   5.985   2.029   1.985 -1.2559  0.3420  1.4140
 6722TIP3    H241802   5.910   2.154   1.945 -0.7083 -0.1758 -1.4569
 6723TIP3   OH241803   5.818   5.309   6.247 -0.5334 -0.2827  0.0164
 6723TIP3    H141804   5.828   5.403   6.254  0.9619 -0.4259  0.0349
 6723TIP3    H241805   5.886   5.282   6.184 -0.1085 -1.4862  0.9574
 6724TIP3   OH241806   3.218   0.647   6.229 -0.0096 -0.0071 -0.4289
 6724TIP3    H141807   3.238   0.673   6.319 -0.8669 -0.3496 -0.1254
 6724TIP3    H241808   3.292   0.678   6.177  2.3374 -2.9366  0.8593
 6725TIP3   OH241809   0.782   5.323   7.382  0.0390  0.2170 -0.2941
 6725TIP3    H141810   0.863   5.309   7.430 -1.2939 -0.6064  1.8734
 6725TIP3    H241811   0.745   5.403   7.420  0.1677  1.0228 -1.7929
 6726TIP3   OH241812   2.681   3.733   1.383 -0.5198 -0.1888 -0.0681
 6726TIP3    H141813   2.624   3.810   1.390 -0.2222  0.1052 -0.7603
 6726TIP3    H241814   2.713   3.735   1.293  0.0656 -0.7172  0.1207
 6727TIP3   OH241815   1.231   0.093   0.854  0.5842 -0.2360  0.3956
 6727TIP3    H141816   1.318   0.123   0.828  1.4802 -0.8096  2.5010
 6727TIP3    H241817   1.216   0.015   0.800  0.7875  0.5848 -0.8959
 6728TIP3   OH241818   6.696   6.646   8.459  0.4453 -0.0363  0.0302
 6728TIP3    H141819   6.673   6.739   8.465  1.4158  0.2077  0.1971
 6728TIP3    H241820   6.785   6.642   8.493  0.3059 -1.0794  0.2956
 6729TIP3   OH241821   6.751   0.181   1.135 -0.7764  0.4573 -0.6247
 6729TIP3    H141822   6.761   0.239   1.059 -1.0612  0.5443 -0.5973
 6729TIP3    H241823   6.663   0.144   1.126 -1.5325  1.8623  0.6248
 6730TIP3   OH241824   6.262   5.984   0.382 -0.1236  0.0881 -0.0794
 6730TIP3    H141825   6.174   5.976   0.418  0.1779 -1.0606  0.4437
 6730TIP3    H241826   6.292   6.070   0.412 -1.3285  0.8269 -0.9090
 6731TIP3   OH241827   0.262   2.448   7.889  0.2827  0.0321  0.0355
 6731TIP3    H141828   0.185   2.489   7.928 -2.9336 -2.4294 -3.0423
 6731TIP3    H241829   0.312   2.521   7.853 -1.6508  1.6654  0.4612
 6732TIP3   OH241830   6.548   4.705   1.263  0.3300  0.2086 -0.0736
 6732TIP3    H141831   6.462   4.746   1.252  0.2384 -0.0447 -0.3111
 6732TIP3    H241832   6.551   4.679   1.355  0.1240  0.1529 -0.0832
 6733TIP3   OH241833   6.104   1.489   1.639  0.0343 -0.6968 -0.0890
 6733TIP3    H141834   6.142   1.509   1.725  0.6032 -0.0104 -0.4901
 6733TIP3    H241835   6.028   1.546   1.632 -1.5314 -2.5559  0.9998
 6734TIP3   OH241836   6.300   4.893   1.129  0.4219  0.2760 -0.0798
 6734TIP3    H141837   6.329   4.863   1.043 -3.5983 -0.4640 -1.3948
 6734TIP3    H241838   6.313   4.987   1.128  1.5402  0.1215 -1.0037
 6735TIP3   OH241839   2.005   0.900   8.133 -0.4677  0.3525  0.8453
 6735TIP3    H141840   2.006   0.840   8.207  0.8523  1.3091  1.6415
 6735TIP3    H241841   1.969   0.981   8.168 -1.3479  0.3342  0.0209
 6736TIP3   OH241842   0.086   2.841   7.813  0.2188  0.0191  0.3466
 6736TIP3    H141843   0.010   2.870   7.864 -1.3777  0.1362 -1.9671
 6736TIP3    H241844   0.162   2.866   7.867 -1.3035  1.9900  1.7225
 6737TIP3   OH241845   6.529   0.491   1.773 -0.5511  0.1696 -0.4625
 6737TIP3    H141846   6.520   0.441   1.854 -0.8988  0.5572 -0.2619
 6737TIP3    H241847   6.506   0.429   1.704  1.5312 -0.7431 -0.4337
 6738TIP3   OH241848   0.610   0.403   7.835  0.6512 -0.1827 -0.1869
 6738TIP3    H141849   0.667   0.344   7.786  0.8876 -0.5711  0.5249
 6738TIP3    H241850   0.539   0.423   7.775  1.1702 -0.2630 -0.8450
 6739TIP3   OH241851   2.155   4.558   6.441 -0.0247 -0.0864  0.3074
 6739TIP3    H141852   2.130   4.538   6.350  0.5749  0.5500 -0.0041
 6739TIP3    H241853   2.119   4.645   6.457 -0.3931 -0.3241  0.7938
 6740TIP3   OH241854   5.646   4.298   0.024 -0.0916  0.0097 -0.4602
 6740TIP3    H141855   5.732   4.321  -0.012 -0.1850  0.4507 -0.4069
 6740TIP3    H241856   5.602   4.252  -0.048  1.1496 -2.6403  0.3362
 6741TIP3   OH241857   5.760   1.424   0.529  0.0214 -0.1460 -0.8170
 6741TIP3    H141858   5.811   1.383   0.599  0.7635 -0.4155 -1.4987
 6741TIP3    H241859   5.799   1.391   0.449 -2.1260 -1.5134 -1.4033
 6742TIP3   OH241860   5.975   0.209   6.881  0.8905  0.4450  0.3098
 6742TIP3    H141861   6.013   0.169   6.803  1.8739 -2.3491  2.0537
 6742TIP3    H241862   6.049   0.249   6.926  0.0660  3.6484 -0.9092
 6743TIP3   OH241863   5.838   6.045   0.884 -0.4843 -0.3465 -0.6323
 6743TIP3    H141864   5.780   5.982   0.842 -1.2228  0.5847 -1.0218
 6743TIP3    H241865   5.900   5.990   0.934  0.6403 -1.5163 -3.1227
 6744TIP3   OH241866   2.169   1.321   6.965  0.7496 -0.4268  0.0692
 6744TIP3    H141867   2.094   1.264   6.948 -0.4848  1.2546 -0.3976
 6744TIP3    H241868   2.233   1.265   7.010 -1.2583 -1.5907  1.5962
 6745TIP3   OH241869   6.833   5.387   8.491 -0.5167  0.0705  0.2576
 6745TIP3    H141870   6.787   5.412   8.411  0.6401  0.7345 -0.2263
 6745TIP3    H241871   6.926   5.401   8.471 -0.1684 -0.2731  1.5318
 6746TIP3   OH241872   3.065   5.491   6.803  0.0663  0.1840  0.3149
 6746TIP3    H141873   3.141   5.445   6.839  0.6201  0.9947  0.2323
 6746TIP3    H241874   2.998   5.485   6.871  0.1398 -0.6754  0.3254
 6747TIP3   OH241875   2.065   1.870   1.870 -0.1079  0.6122  0.2264
 6747TIP3    H141876   2.099   1.840   1.955 -0.7441  0.1991  0.3407
 6747TIP3    H241877   2.133   1.929   1.837  0.4895  0.1928  0.6780
 6748TIP3   OH241878   6.262   0.691   7.718 -0.4479 -0.3186 -0.1174
 6748TIP3    H141879   6.279   0.696   7.624 -0.2407 -1.2406 -0.1352
 6748TIP3    H241880   6.170   0.666   7.724 -0.7312  0.6787 -0.0527
 6749TIP3   OH241881   5.053   5.406   7.902 -0.8165  0.1670 -0.5500
 6749TIP3    H141882   5.021   5.487   7.941 -0.4608  0.1038 -0.1317
 6749TIP3    H241883   5.084   5.354   7.975 -1.7601 -0.6802 -0.7214
 6750TIP3   OH241884   6.274   3.111   1.872  0.1524 -0.6092  0.5374
 6750TIP3    H141885   6.342   3.045   1.885  1.2650  0.1262 -1.1176
 6750TIP3    H241886   6.310   3.169   1.804 -1.8614  0.1972  0.0860
 6751TIP3   OH241887   5.776   1.772   0.551  0.0087 -1.5496 -0.0783
 6751TIP3    H141888   5.794   1.728   0.468 -0.0072 -1.8546  0.0777
 6751TIP3    H241889   5.854   1.756   0.605  0.2295 -0.9334 -0.2048
 6752TIP3   OH241890   4.681   5.722   8.596 -0.5839 -0.4491  0.0347
 6752TIP3    H141891   4.766   5.718   8.640 -0.8536 -0.1213  0.5883
 6752TIP3    H241892   4.657   5.630   8.582 -0.1383 -0.5432 -0.1290
 6753TIP3   OH241893   1.007   3.601   1.542  0.1883 -0.4631 -0.2106
 6753TIP3    H141894   1.012   3.546   1.620 -1.9252 -1.7558 -0.9110
 6753TIP3    H241895   0.953   3.551   1.480  0.8349  1.0186 -2.0890
 6754TIP3   OH241896   0.057   2.449   8.356  0.0051  0.0498  0.3562
 6754TIP3    H141897   0.040   2.393   8.431  0.5610 -0.0834  0.3830
 6754TIP3    H241898   0.124   2.510   8.387  0.9059 -0.5828 -0.3056
 6755TIP3   OH241899   4.575   2.135   7.106 -0.1045 -0.0979  0.8662
 6755TIP3    H141900   4.607   2.048   7.081 -1.3881 -0.0692 -1.0968
 6755TIP3    H241901   4.649   2.193   7.090 -0.1029 -0.4599 -0.6169
 6756TIP3   OH241902   6.578   1.857   1.016  0.2270  0.4188  0.8158
 6756TIP3    H141903   6.595   1.771   0.976  0.9815  0.4569  1.0402
 6756TIP3    H241904   6.493   1.847   1.059 -1.0650  0.6345 -1.5258
 6757TIP3   OH241905   6.285   2.070   0.059 -0.1625  0.6843  0.0534
 6757TIP3    H141906   6.278   2.052   0.153 -1.0733 -0.3899 -0.1919
 6757TIP3    H241907   6.285   2.166   0.053  0.8272  0.7796  1.1937
 6758TIP3   OH241908   5.181   2.139   7.999 -0.1921  0.0300 -0.0145
 6758TIP3    H141909   5.146   2.225   7.977  0.1057  0.4324  1.0183
 6758TIP3    H241910   5.186   2.093   7.916 -2.1388  0.3343 -0.3664
 6759TIP3   OH241911   6.524   3.124   1.491  0.0510  0.3964  0.1544
 6759TIP3    H141912   6.577   3.044   1.494  0.7467  0.8613  2.1692
 6759TIP3    H241913   6.584   3.191   1.457 -0.0856  0.3614 -0.1566
 6760TIP3   OH241914   4.825   3.450   2.362  0.6365  0.1136 -0.0798
 6760TIP3    H141915   4.751   3.493   2.318  1.5958  2.4440  0.4100
 6760TIP3    H241916   4.840   3.370   2.311 -1.6981 -0.0382 -0.6387
 6761TIP3   OH241917   4.404   6.827   0.444  0.8019  0.1624  0.3179
 6761TIP3    H141918   4.421   6.767   0.517  1.9099  1.3252  1.0483
 6761TIP3    H241919   4.352   6.775   0.382  0.6473 -1.1419  1.4976
 6762TIP3   OH241920   0.103   5.234   0.558 -0.4904 -0.2792  0.0796
 6762TIP3    H141921   0.066   5.170   0.498 -1.7128  1.5127 -1.1951
 6762TIP3    H241922   0.028   5.263   0.611 -0.0741  0.3887  0.3185
 6763TIP3   OH241923   2.422   4.206   0.665  0.1547  0.2477 -0.5082
 6763TIP3    H141924   2.430   4.118   0.627 -0.7085 -1.2899  2.4882
 6763TIP3    H241925   2.512   4.233   0.682  0.4207 -0.3799 -0.8666
 6764TIP3   OH241926   0.690   5.118   6.349 -0.0145  0.3374  0.3068
 6764TIP3    H141927   0.604   5.101   6.311 -0.0298  0.1603  0.4200
 6764TIP3    H241928   0.715   5.204   6.314 -1.5571  1.8344  2.5548
 6765TIP3   OH241929   5.816   0.463   0.786  0.6589  0.5839  0.2004
 6765TIP3    H141930   5.803   0.483   0.693 -2.0832  0.2140  0.4228
 6765TIP3    H241931   5.728   0.460   0.823  1.4669 -1.8769  2.2767
 6766TIP3   OH241932   2.855   3.168   2.310 -0.4837  0.2639 -0.1970
 6766TIP3    H141933   2.837   3.140   2.221  1.7345 -1.5938 -0.1617
 6766TIP3    H241934   2.905   3.095   2.349 -0.8264  1.2738  2.3531
 6767TIP3   OH241935   0.436   1.867   1.876 -0.1118 -0.9676  0.7922
 6767TIP3    H141936   0.389   1.921   1.813 -1.5403 -1.0781  1.7164
 6767TIP3    H241937   0.496   1.815   1.824 -1.3315 -1.1415 -0.4870
 6768TIP3   OH241938   0.976   0.923   0.550 -0.1617 -0.3001 -0.1999
 6768TIP3    H141939   1.001   1.015   0.555 -0.6558 -0.1735 -0.0478
 6768TIP3    H241940   1.003   0.886   0.634  1.1645 -0.5888 -0.7179
 6769TIP3   OH241941   4.476   0.151   8.065  0.1656 -0.0882 -0.0206
 6769TIP3    H141942   4.495   0.061   8.039  0.3731 -0.1349  0.2811
 6769TIP3    H241943   4.402   0.143   8.124  0.8204 -0.1740  0.8140
 6770TIP3   OH241944   2.162   4.114   7.277 -0.6594  0.1118  0.7244
 6770TIP3    H141945   2.213   4.040   7.244  0.6936  1.9243 -1.5718
 6770TIP3    H241946   2.189   4.123   7.369  1.3280 -0.4954  0.2433
 6771TIP3   OH241947   2.461   4.496   6.956  0.2199  0.3370 -0.2841
 6771TIP3    H141948   2.391   4.524   6.898 -0.1683 -0.7315 -0.3669
 6771TIP3    H241949   2.538   4.489   6.900  0.0089 -0.0237 -0.5366
 6772TIP3   OH241950   5.668   3.679   1.095 -0.1434  0.1856 -0.3017
 6772TIP3    H141951   5.587   3.716   1.127  0.1149  0.7208 -0.2502
 6772TIP3    H241952   5.724   3.755   1.077 -0.0465 -0.1176 -1.3780
 6773TIP3   OH241953   0.082   2.486   6.996  0.0879 -0.0000 -0.1902
 6773TIP3    H141954   0.008   2.440   6.957 -0.3719  0.3749  0.2280
 6773TIP3    H241955   0.089   2.567   6.945  2.2024 -1.3882 -2.3047
 6774TIP3   OH241956   4.626   1.349   6.683 -0.9237  0.7996 -0.0552
 6774TIP3    H141957   4.609   1.356   6.777  0.5000  0.0971  0.2838
 6774TIP3    H241958   4.641   1.255   6.668  0.4350  1.1043 -0.6894
 6775TIP3   OH241959   6.462   4.220   1.716 -0.5807  0.0481 -0.1031
 6775TIP3    H141960   6.547   4.182   1.694 -0.5795  0.9934 -1.9102
 6775TIP3    H241961   6.475   4.259   1.802  0.4117 -0.9789  0.2311
 6776TIP3   OH241962   6.116   2.872   8.261  0.3923 -0.6782 -0.2698
 6776TIP3    H141963   6.076   2.785   8.269 -0.8629  0.0435  1.6478
 6776TIP3    H241964   6.183   2.874   8.329 -1.8513  0.9969  2.0484
 6777TIP3   OH241965   1.306   4.378   1.357 -0.1358  0.5540 -0.2175
 6777TIP3    H141966   1.257   4.321   1.416  0.9710 -0.1963  0.0019
 6777TIP3    H241967   1.389   4.394   1.401  0.1537  1.1410 -0.9462
 6778TIP3   OH241968   5.252   2.709   8.690 -0.2131  0.3471 -0.5972
 6778TIP3    H141969   5.327   2.715   8.631  0.1760 -0.8688 -0.2561
 6778TIP3    H241970   5.206   2.629   8.663 -0.1441 -0.1189  0.5889
 6779TIP3   OH241971   1.830   6.096   1.326  0.6030 -0.2902 -0.1626
 6779TIP3    H141972   1.849   6.020   1.381 -0.4980 -0.4996 -0.0533
 6779TIP3    H241973   1.817   6.059   1.238  0.3825 -0.1953 -0.1702
 6780TIP3   OH241974   4.894   1.004   6.964  0.1702  0.0417  0.3260
 6780TIP3    H141975   4.960   0.938   6.982 -0.9545 -0.4749  3.0607
 6780TIP3    H241976   4.846   1.013   7.047 -2.1292  1.5461 -1.0647
 6781TIP3   OH241977   4.783   5.574   1.995 -0.2628  0.2071 -0.3235
 6781TIP3    H141978   4.870   5.612   2.004 -1.0572  2.5858 -1.8796
 6781TIP3    H241979   4.769   5.567   1.901 -1.6149 -0.4996 -0.0956
 6782TIP3   OH241980   2.287   2.049   7.200 -0.7186 -0.1504 -0.1680
 6782TIP3    H141981   2.310   2.052   7.293 -0.6555 -1.3806 -0.1335
 6782TIP3    H241982   2.201   2.089   7.195 -0.7303 -0.0923  0.4196
 6783TIP3   OH241983   1.586   2.462   7.201  0.2999  0.5194  0.1737
 6783TIP3    H141984   1.516   2.482   7.138  0.3008  0.7309  0.2371
 6783TIP3    H241985   1.662   2.440   7.147  0.2943  0.6770  0.1011
 6784TIP3   OH241986   6.143   5.707   0.948 -0.1590 -0.0668 -0.0475
 6784TIP3    H141987   6.205   5.658   1.001 -1.7296  1.8895  3.9717
 6784TIP3    H241988   6.075   5.643   0.926 -1.2694 -0.3419  3.5643
 6785TIP3   OH241989   2.259   2.574   8.679 -0.4677 -0.2168 -0.6389
 6785TIP3    H141990   2.234   2.481   8.683  2.9064 -1.2266  0.6789
 6785TIP3    H241991   2.351   2.573   8.654  0.2552  2.6467  1.3721
 6786TIP3   OH241992   1.228   1.320   0.173  0.1209 -0.2817  0.2933
 6786TIP3    H141993   1.276   1.269   0.107  2.9260  0.5072  1.5492
 6786TIP3    H241994   1.140   1.283   0.174  0.4958 -1.4948 -2.5845
 6787TIP3   OH241995   1.449   0.532   5.829  0.2575  0.3637 -0.2675
 6787TIP3    H141996   1.357   0.510   5.844 -0.1933  2.5812  0.5995
 6787TIP3    H241997   1.496   0.449   5.838 -1.7184 -0.9815 -1.6094
 6788TIP3   OH241998   0.261   2.208   7.492  0.1245 -0.3598  0.3123
 6788TIP3    H141999   0.207   2.287   7.484  0.2429 -0.2070  0.9489
 6788TIP3    H242000   0.323   2.214   7.420 -1.7157 -1.3521 -1.4415
 6789TIP3   OH242001   2.822   6.519   0.195  0.2387  0.3035  0.4766
 6789TIP3    H142002   2.840   6.424   0.194  2.1188  0.6064 -1.6733
 6789TIP3    H242003   2.792   6.536   0.285  0.7730 -2.1715  1.2086
 6790TIP3   OH242004   1.268   6.481   7.745  0.3295 -0.2223 -0.8824
 6790TIP3    H142005   1.215   6.470   7.666 -0.2081 -0.3083 -0.5128
 6790TIP3    H242006   1.231   6.558   7.788  0.2137 -0.5514 -0.3900
 6791TIP3   OH242007   5.841   2.969   7.686  0.1546 -0.2696 -0.7793
 6791TIP3    H142008   5.810   2.969   7.777 -0.7116 -0.9607 -1.0561
 6791TIP3    H242009   5.784   3.031   7.641 -0.6267 -1.2876 -1.2211
 6792TIP3   OH242010   4.686   1.903   6.996  0.4270  0.0401 -0.6093
 6792TIP3    H142011   4.677   1.887   6.902 -0.8703 -1.3662 -0.2824
 6792TIP3    H242012   4.733   1.826   7.029 -1.4631 -0.8160  0.2548
 6793TIP3   OH242013   6.709   3.154   6.767  0.1240  0.9026 -0.1539
 6793TIP3    H142014   6.767   3.159   6.691  1.1386  0.3293  0.5682
 6793TIP3    H242015   6.664   3.239   6.768 -0.9699  0.4136 -2.1924
 6794TIP3   OH242016   5.701   2.519   6.512  0.1906  0.0453  0.1486
 6794TIP3    H142017   5.727   2.590   6.453  2.8786 -1.3666 -0.5408
 6794TIP3    H242018   5.606   2.511   6.500 -0.0461  2.7320 -0.5502
 6795TIP3   OH242019   0.982   0.043   8.077  0.4533  0.1008  0.3358
 6795TIP3    H142020   1.072   0.073   8.091  0.9170 -1.0054 -0.1903
 6795TIP3    H242021   0.964  -0.014   8.151 -0.0381  0.7872  0.7543
 6796TIP3   OH242022   0.046   6.428   6.982  0.3793 -0.0397  0.3319
 6796TIP3    H142023  -0.014   6.489   7.024 -1.0243 -0.8123 -0.4674
 6796TIP3    H242024  -0.011   6.363   6.941  1.7903 -1.1444  0.0456
 6797TIP3   OH242025   5.460   0.736   8.225 -0.7039  0.1920  0.3443
 6797TIP3    H142026   5.550   0.705   8.232 -0.1416  1.6224 -0.2386
 6797TIP3    H242027   5.432   0.750   8.316  0.1717  1.1097  0.4865
 6798TIP3   OH242028   0.096   2.046   0.139 -0.9618 -0.4712 -0.3464
 6798TIP3    H142029   0.048   2.128   0.146 -1.0018 -0.4422 -0.9019
 6798TIP3    H242030   0.098   2.028   0.045  0.4760 -0.2460 -0.3806
 6799TIP3   OH242031   1.214   0.857   5.955  0.7546  0.1368 -0.1684
 6799TIP3    H142032   1.150   0.825   6.019  1.4164 -0.9905 -0.0342
 6799TIP3    H242033   1.177   0.939   5.924 -0.5881 -0.3025  0.1571
 6800TIP3   OH242034   6.396   4.748   0.409 -0.2255 -0.0750  0.0713
 6800TIP3    H142035   6.337   4.783   0.476  0.5192 -1.3863  1.4656
 6800TIP3    H242036   6.341   4.736   0.331 -1.2609  0.8226  0.6501
 6801TIP3   OH242037   1.833   0.101   7.383  0.1009 -0.5650 -0.1289
 6801TIP3    H142038   1.922   0.113   7.349  1.1040 -0.8161  2.2122
 6801TIP3    H242039   1.822   0.007   7.388  0.0573 -0.5336  0.4178
 6802TIP3   OH242040   4.420   4.532   1.250 -0.0742  0.4304  0.3835
 6802TIP3    H142041   4.449   4.539   1.340  0.8594 -0.9547  0.2210
 6802TIP3    H242042   4.499   4.544   1.197 -0.6008  1.1991 -0.2659
 6803TIP3   OH242043   6.680   6.576   7.249  0.3424  0.4819 -0.5664
 6803TIP3    H142044   6.637   6.591   7.333  1.9675  0.5526  0.2832
 6803TIP3    H242045   6.666   6.483   7.231 -1.2852  0.7740 -0.9924
 6804TIP3   OH242046   1.948   2.691   0.579  0.7686  0.3655 -0.0352
 6804TIP3    H142047   1.943   2.653   0.491  1.6715  2.0949 -0.8767
 6804TIP3    H242048   1.870   2.747   0.586 -0.1402 -0.9490  0.9039
 6805TIP3   OH242049   3.928   1.489   2.504 -0.0018  0.0913  1.0141
 6805TIP3    H142050   3.865   1.448   2.563 -1.8411 -0.4279 -1.1657
 6805TIP3    H242051   3.915   1.444   2.420  1.8266  1.4002 -0.0402
 6806TIP3   OH242052   4.395   5.673   7.969  0.4309  0.1226 -0.0785
 6806TIP3    H142053   4.464   5.651   7.906 -0.2474 -0.5565 -0.6083
 6806TIP3    H242054   4.318   5.689   7.914  0.2474  1.2556  0.4765
 6807TIP3   OH242055   3.534   3.381   0.701 -0.4563 -0.0473 -0.3908
 6807TIP3    H142056   3.555   3.322   0.629 -1.3081 -0.6873 -0.1311
 6807TIP3    H242057   3.578   3.343   0.777  0.6752  0.7797 -0.5978
 6808TIP3   OH242058   5.039   2.247   1.158 -0.2236  0.0515 -0.1149
 6808TIP3    H142059   4.980   2.317   1.133  0.5201  1.8701  2.7657
 6808TIP3    H242060   4.983   2.182   1.201 -0.4210  0.8922  0.9323
 6809TIP3   OH242061   3.838   2.892   6.295 -0.1103 -0.3163 -0.4472
 6809TIP3    H142062   3.859   2.806   6.258  0.1303  0.3498 -1.9248
 6809TIP3    H242063   3.921   2.941   6.290 -0.2227 -0.0064  0.4628
 6810TIP3   OH242064   5.119   1.387   1.686 -0.3173 -0.4140 -0.2185
 6810TIP3    H142065   5.092   1.295   1.692  0.9068 -0.8625 -1.0172
 6810TIP3    H242066   5.213   1.385   1.705 -0.0898  0.5317 -1.1651
 6811TIP3   OH242067   3.596   6.562   6.307  0.3435 -0.3001 -0.2866
 6811TIP3    H142068   3.585   6.617   6.229  0.0005 -0.8365 -0.6216
 6811TIP3    H242069   3.524   6.588   6.364  1.1194  0.7401  0.2524
 6812TIP3   OH242070   3.231   0.118   8.626  0.0474 -0.4585 -0.2580
 6812TIP3    H142071   3.189   0.072   8.698 -3.5574  1.6096 -0.7942
 6812TIP3    H242072   3.243   0.207   8.657  2.2956 -0.4648 -0.9056
 6813TIP3   OH242073   0.992   1.154   8.331  0.0009 -0.9128  0.1293
 6813TIP3    H142074   0.927   1.086   8.315  0.4817 -1.0334 -1.5022
 6813TIP3    H242075   1.028   1.133   8.417 -1.1544 -1.6205  0.4643
 6814TIP3   OH242076   6.323   0.059   7.237  0.2251  0.6689 -0.0529
 6814TIP3    H142077   6.331  -0.002   7.164 -1.3830 -1.6830  1.5679
 6814TIP3    H242078   6.405   0.051   7.285  1.0694  1.8249 -1.2261
 6815TIP3   OH242079   3.687   5.776   0.541  0.6497  0.7930 -0.3391
 6815TIP3    H142080   3.678   5.809   0.631  1.6663 -0.2036  0.1532
 6815TIP3    H242081   3.757   5.830   0.503  0.5590  0.8879 -0.3718
 6816TIP3   OH242082   3.912   0.076   7.131 -0.6742 -0.1886 -0.2500
 6816TIP3    H142083   3.846   0.079   7.061 -0.5509 -3.0061 -0.6026
 6816TIP3    H242084   3.872   0.025   7.201  0.5198 -0.5304  0.2187
 6817TIP3   OH242085   5.297   0.377   0.197  0.6308  0.1011 -0.1492
 6817TIP3    H142086   5.269   0.344   0.283 -1.4024 -0.0072 -0.8011
 6817TIP3    H242087   5.247   0.458   0.185  2.0983  0.9805 -0.5693
 6818TIP3   OH242088   2.514   5.316   1.443  0.2935  0.0445  0.3866
 6818TIP3    H142089   2.452   5.364   1.387 -2.1176 -2.2570  0.8417
 6818TIP3    H242090   2.589   5.374   1.452 -1.2913  2.5350 -1.2177
 6819TIP3   OH242091   6.609   4.187   0.871 -0.1732  0.1588  0.3199
 6819TIP3    H142092   6.694   4.150   0.897 -0.2050 -0.6624 -0.6658
 6819TIP3    H242093   6.546   4.146   0.929  0.0723  0.6833  0.9801
 6820TIP3   OH242094   2.435   6.457   1.630  0.0275 -0.2600  0.0093
 6820TIP3    H142095   2.347   6.434   1.601 -0.4821  0.2069  1.1241
 6820TIP3    H242096   2.474   6.504   1.557 -0.4666 -0.9027 -0.6753
 6821TIP3   OH242097   1.123   4.420   2.155  0.4877  0.1095 -0.5894
 6821TIP3    H142098   1.179   4.344   2.140 -2.1120 -1.9337 -0.6448
 6821TIP3    H242099   1.055   4.389   2.214 -0.5344  2.5060 -0.3759
 6822TIP3   OH242100   4.217   2.330   0.419  0.1812  0.4984 -0.9094
 6822TIP3    H142101   4.307   2.362   0.424  0.1741  0.3420  1.6177
 6822TIP3    H242102   4.182   2.342   0.508 -1.7081 -1.0942 -1.3543
 6823TIP3   OH242103   3.039   4.684   7.929  0.4349 -0.0534  0.3317
 6823TIP3    H142104   2.997   4.717   7.850  0.4707 -0.1736  0.2621
 6823TIP3    H242105   3.132   4.676   7.905  0.4944  0.1908  0.4775
 6824TIP3   OH242106   4.210   1.009   8.192 -0.2577  0.5527 -0.0676
 6824TIP3    H142107   4.128   0.963   8.175 -0.3336  1.1748 -1.5392
 6824TIP3    H242108   4.199   1.047   8.279 -0.3726 -1.7436  1.0012
 6825TIP3   OH242109   1.312   3.303   6.887  0.3610 -0.1334 -0.5039
 6825TIP3    H142110   1.252   3.353   6.942  1.1029 -0.2109  0.4145
 6825TIP3    H242111   1.374   3.368   6.853  0.2583 -0.1731 -0.7698
 6826TIP3   OH242112   3.685   0.873   7.797  0.1228 -0.0049 -0.7588
 6826TIP3    H142113   3.744   0.829   7.737 -0.7884 -4.1171  1.0481
 6826TIP3    H242114   3.600   0.872   7.753 -0.1635 -1.3088 -0.1966
 6827TIP3   OH242115   6.581   4.752   0.183 -0.3550 -0.6069  0.1713
 6827TIP3    H142116   6.523   4.752   0.107 -1.6615 -0.9861  1.1274
 6827TIP3    H242117   6.545   4.820   0.240 -0.3158 -1.3503  1.1080
 6828TIP3   OH242118   6.340   5.263   6.593 -0.0072 -0.6183  0.0031
 6828TIP3    H142119   6.345   5.341   6.538  2.3769  0.1866  1.2399
 6828TIP3    H242120   6.424   5.220   6.582  0.1152 -1.0276  2.1257
 6829TIP3   OH242121   2.590   1.870   1.507  0.0454 -0.2216  0.7446
 6829TIP3    H142122   2.553   1.834   1.588 -4.3762 -0.3672 -1.0550
 6829TIP3    H242123   2.638   1.797   1.468  1.5860 -0.3635  2.7786
 6830TIP3   OH242124   1.431   2.686   1.801  0.0859 -0.0338  0.2221
 6830TIP3    H142125   1.407   2.616   1.862 -2.2036 -0.6462 -1.2534
 6830TIP3    H242126   1.420   2.767   1.851 -0.8202 -0.5683  0.9257
 6831TIP3   OH242127   3.559   0.556   1.545  0.9281  0.3135  0.3960
 6831TIP3    H142128   3.631   0.592   1.493 -0.3816  2.4772 -0.1002
 6831TIP3    H242129   3.487   0.548   1.482 -0.2564  1.5569  1.5370
 6832TIP3   OH242130   5.296   3.907   8.118  0.2901 -0.3409 -0.2643
 6832TIP3    H142131   5.266   3.820   8.091 -0.0728  0.2982 -2.0060
 6832TIP3    H242132   5.366   3.889   8.181 -2.9656 -1.9146  3.3884
 6833TIP3   OH242133   5.367   1.164   6.625 -0.3664 -0.4701 -0.6202
 6833TIP3    H142134   5.454   1.183   6.661  0.4367 -1.1969 -2.0723
 6833TIP3    H242135   5.326   1.108   6.690  0.1850 -0.0047  0.1548
 6834TIP3   OH242136   4.198   4.102   5.793  0.1888 -0.5536  0.5077
 6834TIP3    H142137   4.275   4.132   5.841 -0.3985 -0.3982  1.3659
 6834TIP3    H242138   4.162   4.182   5.754 -1.2408 -0.0939  2.5993
 6835TIP3   OH242139   0.131   3.605   8.635  0.0814 -0.1350 -0.0414
 6835TIP3    H142140   0.212   3.645   8.603 -0.0780  1.7676  1.7667
 6835TIP3    H242141   0.143   3.600   8.730 -1.8885  0.0757  0.2456
 6836TIP3   OH242142   6.086   3.636   7.365 -0.1400 -0.4715 -0.2751
 6836TIP3    H142143   6.150   3.572   7.396 -0.8797 -1.1857 -0.1772
 6836TIP3    H242144   6.066   3.609   7.275  0.7045  0.5628 -0.7924
 6837TIP3   OH242145   4.506   0.991   1.429 -0.3814 -0.3356 -0.3014
 6837TIP3    H142146   4.569   1.062   1.417 -1.5399  0.8313  0.3729
 6837TIP3    H242147   4.538   0.944   1.507  0.0958 -0.2530 -0.4412
 6838TIP3   OH242148   4.053   5.159   8.615  0.1879  0.9376  0.3615
 6838TIP3    H142149   4.079   5.146   8.524  0.7775  2.6590  0.2454
 6838TIP3    H242150   3.958   5.153   8.614  0.2792 -2.1639  0.2214
 6839TIP3   OH242151   1.580   6.691   7.827 -0.1781  0.2773 -0.3136
 6839TIP3    H142152   1.566   6.773   7.873 -0.3018  0.0494  0.0628
 6839TIP3    H242153   1.537   6.702   7.743  2.5293  1.7991 -1.6268
 6840TIP3   OH242154   3.990   2.391   0.235 -0.5293  0.4255  0.0947
 6840TIP3    H142155   3.994   2.368   0.142 -0.9649  0.7014  0.0106
 6840TIP3    H242156   4.072   2.437   0.252 -0.7135  0.8915 -0.2883
 6841TIP3   OH242157   2.462   0.297   7.633 -0.3764 -0.1894 -0.9000
 6841TIP3    H142158   2.388   0.252   7.675  0.2768 -0.2909  0.1670
 6841TIP3    H242159   2.451   0.389   7.658 -1.0484  0.0943 -2.1146
 6842TIP3   OH242160   3.339   1.036   8.384  0.5504  0.1623 -0.1498
 6842TIP3    H142161   3.265   1.081   8.343  0.6402  0.1149 -0.3671
 6842TIP3    H242162   3.318   1.035   8.477  0.9557  1.4209 -0.0258
 6843TIP3   OH242163   4.427   1.748   1.574  0.1442 -0.0165  0.0200
 6843TIP3    H142164   4.403   1.786   1.658 -2.2842  0.0908 -0.6557
 6843TIP3    H242165   4.404   1.656   1.581  1.6613 -0.4253  0.0569
 6844TIP3   OH242166   4.598   6.424   1.950 -0.0473  0.7035 -0.1318
 6844TIP3    H142167   4.507   6.452   1.959 -0.1295  1.2084 -1.9528
 6844TIP3    H242168   4.647   6.506   1.947  0.4731  0.4330  0.8244
 6845TIP3   OH242169   4.518   0.683   1.234 -0.0180 -0.3473  0.0516
 6845TIP3    H142170   4.506   0.774   1.204 -0.6890 -0.3366  0.3266
 6845TIP3    H242171   4.529   0.691   1.329  1.5414 -0.4272 -0.0930
 6846TIP3   OH242172   5.037   4.985   0.779 -0.2022  0.1066  0.4935
 6846TIP3    H142173   5.113   4.928   0.788  0.6470  0.4642 -2.9792
 6846TIP3    H242174   5.007   4.970   0.689 -1.7456  2.9678  0.4216
 6847TIP3   OH242175   0.528   0.103   0.748 -0.2943 -0.6635  0.2591
 6847TIP3    H142176   0.618   0.085   0.772 -1.0485 -1.6444  2.6098
 6847TIP3    H242177   0.525   0.197   0.734  1.3550 -0.7831 -1.3483
 6848TIP3   OH242178   0.246   3.286   0.078  0.6028  0.2912  0.3080
 6848TIP3    H142179   0.277   3.338   0.004  2.2065  2.9323  2.6604
 6848TIP3    H242180   0.157   3.318   0.094  0.6865  0.5658  0.2331
 6849TIP3   OH242181   4.095   1.139   8.732  0.2774  0.2220 -0.0456
 6849TIP3    H142182   4.085   1.069   8.797 -1.3917 -0.2350 -0.7226
 6849TIP3    H242183   4.008   1.180   8.728  1.0432  1.9065 -0.1585
 6850TIP3   OH242184   4.063   5.875   8.685  0.4133  0.3740 -0.1267
 6850TIP3    H142185   4.138   5.935   8.692 -0.1822  1.1421 -0.1680
 6850TIP3    H242186   4.039   5.856   8.776  0.0743  0.8866 -0.1038
 6851TIP3   OH242187   1.510   1.028   6.307 -0.0970  0.0709 -0.2097
 6851TIP3    H142188   1.592   1.078   6.317  1.6500 -2.2413 -1.7964
 6851TIP3    H242189   1.487   1.002   6.396  1.3710  0.1194  0.2259
 6852TIP3   OH242190   6.653   1.843   0.565  0.0057  0.0436 -0.7052
 6852TIP3    H142191   6.687   1.763   0.605 -2.1271 -0.5514  0.0629
 6852TIP3    H242192   6.730   1.888   0.532  1.2969 -2.1927 -0.9180
 6853TIP3   OH242193   5.305   5.794   7.323 -1.2410  0.3893 -0.1741
 6853TIP3    H142194   5.287   5.745   7.243 -1.0227 -0.7216  0.4344
 6853TIP3    H242195   5.234   5.769   7.382 -0.8405  0.4046  0.3169
 6854TIP3   OH242196   0.455   3.344   6.791 -0.3884 -0.3297 -0.6499
 6854TIP3    H142197   0.514   3.375   6.723 -0.6301  0.4156 -0.5315
 6854TIP3    H242198   0.510   3.291   6.849 -0.2043 -1.0730 -1.4730
 6855TIP3   OH242199   4.703   3.569   8.259  0.1462  0.1600  0.2620
 6855TIP3    H142200   4.760   3.581   8.183 -0.1178  0.8202  0.1622
 6855TIP3    H242201   4.685   3.475   8.262 -0.0194  0.1609 -0.6172
 6856TIP3   OH242202   0.837   6.698   0.139  0.2098 -0.1305  0.0376
 6856TIP3    H142203   0.771   6.646   0.092 -1.9732 -0.4530  3.1853
 6856TIP3    H242204   0.807   6.788   0.131  0.9822  0.0729 -0.8090
 6857TIP3   OH242205   2.047   0.212   6.523 -0.1823  0.5166  0.2158
 6857TIP3    H142206   2.039   0.252   6.437  0.7758  3.0026  1.1837
 6857TIP3    H242207   1.957   0.204   6.554 -0.6993 -2.1187 -1.6296
 6858TIP3   OH242208   4.887   5.080   0.057  0.0027  0.4728  0.4713
 6858TIP3    H142209   4.943   5.095  -0.019 -0.7855  1.7932  0.1154
 6858TIP3    H242210   4.947   5.068   0.130  0.8064  2.9465  0.3029
 6859TIP3   OH242211   0.397   4.028   1.648 -0.0037  0.0724 -0.0945
 6859TIP3    H142212   0.405   3.969   1.573 -1.2716 -1.0006  0.5729
 6859TIP3    H242213   0.486   4.059   1.662  0.3892 -0.2645 -1.5863
 6860TIP3   OH242214   0.819   5.097   0.270  0.4171  0.1094 -0.0856
 6860TIP3    H142215   0.783   5.186   0.262 -2.1028 -0.7435  0.8792
 6860TIP3    H242216   0.846   5.090   0.361 -0.0085 -0.3208  0.0112
 6861TIP3   OH242217   1.504   4.838   7.325  0.1329  0.1690 -0.0163
 6861TIP3    H142218   1.483   4.837   7.419 -1.1262  1.9183 -0.2503
 6861TIP3    H242219   1.532   4.927   7.308  1.3796 -0.4062 -1.1331
 6862TIP3   OH242220   6.052   6.534   0.824 -0.4598 -0.0542 -0.1256
 6862TIP3    H142221   5.957   6.531   0.813 -0.4134 -2.4093 -0.4240
 6862TIP3    H242222   6.084   6.572   0.743 -1.1863  2.6403  0.7585
 6863TIP3   OH242223   0.416   6.380   1.971 -0.2052 -0.1449  0.2127
 6863TIP3    H142224   0.433   6.286   1.975  0.3657 -0.0348  0.5409
 6863TIP3    H242225   0.321   6.387   1.961 -0.1863 -0.7681 -0.4788
 6864TIP3   OH242226   3.507   0.810   1.261  0.2105 -0.4249  0.3848
 6864TIP3    H142227   3.502   0.716   1.241 -0.3564 -0.5521  1.0800
 6864TIP3    H242228   3.545   0.849   1.183  0.1291 -1.1931 -0.0504
 6865TIP3   OH242229   6.359   0.826   0.240 -0.4020 -0.5855  0.7376
 6865TIP3    H142230   6.382   0.909   0.283 -3.3714  0.4700  0.4766
 6865TIP3    H242231   6.420   0.819   0.166 -0.3433  1.5704  0.5357
 6866TIP3   OH242232   1.749   6.165   0.623 -0.7329  0.5347 -0.5365
 6866TIP3    H142233   1.826   6.152   0.567 -0.6693  1.4385 -0.6735
 6866TIP3    H242234   1.779   6.226   0.691 -1.4174  1.1778 -0.7932
 6867TIP3   OH242235   3.353   5.240   8.316  0.3934  0.8096  0.6245
 6867TIP3    H142236   3.447   5.239   8.297 -0.1016  0.1145 -2.3495
 6867TIP3    H242237   3.342   5.182   8.391  1.9996 -2.5338 -1.4728
 6868TIP3   OH242238   0.105   4.107   6.344 -0.0050 -0.3337  0.2685
 6868TIP3    H142239   0.135   4.062   6.422  4.3429  0.9569 -0.4182
 6868TIP3    H242240   0.083   4.037   6.283 -0.2887 -1.3847  1.5302
 6869TIP3   OH242241   0.163   0.500   6.215 -0.1500 -0.7491  0.1516
 6869TIP3    H142242   0.196   0.411   6.198 -0.1721 -0.5337 -1.1428
 6869TIP3    H242243   0.241   0.553   6.228 -0.0727 -0.7061 -0.4568
 6870TIP3   OH242244   4.000   6.796   0.307 -0.7705  0.4410  0.1370
 6870TIP3    H142245   4.005   6.701   0.314 -2.4951  0.4489  2.3806
 6870TIP3    H242246   4.045   6.828   0.384  0.3065  1.5165 -0.8947
 6871TIP3   OH242247   3.574   1.348   8.450 -0.0184  0.0583  0.0343
 6871TIP3    H142248   3.516   1.286   8.495 -1.6484  0.6951 -1.0899
 6871TIP3    H242249   3.602   1.301   8.372  3.3595 -1.3064  1.8736
 6872TIP3   OH242250   3.037   4.266   7.302 -0.1175 -0.0960  0.0885
 6872TIP3    H142251   3.113   4.232   7.349  0.2666 -1.1132 -1.2150
 6872TIP3    H242252   3.074   4.313   7.227 -0.7558  0.4267  0.0870
 6873TIP3   OH242253   1.019   5.406   0.509 -0.3619 -0.5258 -0.8534
 6873TIP3    H142254   1.061   5.409   0.423  0.2920  1.1816 -0.4965
 6873TIP3    H242255   1.092   5.400   0.571 -0.7882 -0.6592 -0.3597
 6874TIP3   OH242256   6.728   5.665   7.822 -0.1656 -0.3011 -0.0364
 6874TIP3    H142257   6.752   5.672   7.729  1.5524 -3.2915  0.0254
 6874TIP3    H242258   6.641   5.625   7.821 -0.8888  1.2390 -0.3212
 6875TIP3   OH242259   3.009   5.839   7.125 -0.3358 -0.2053  0.7920
 6875TIP3    H142260   3.035   5.848   7.033 -0.9189 -0.2493  0.6193
 6875TIP3    H242261   2.926   5.886   7.132  0.5362  1.2936  1.7054
 6876TIP3   OH242262   4.340   2.987   1.068 -0.4857 -0.2797 -0.0515
 6876TIP3    H142263   4.402   3.027   1.129  0.1523 -2.3058  0.7377
 6876TIP3    H242264   4.295   2.920   1.121  0.6358 -2.6559 -1.9185
 6877TIP3   OH242265   3.454   5.559   6.034 -0.2254 -0.0661 -0.1048
 6877TIP3    H142266   3.417   5.498   5.970  1.4392 -0.4994 -0.7018
 6877TIP3    H242267   3.414   5.643   6.012 -2.0957 -0.7839  0.3572
 6878TIP3   OH242268   4.021   5.192   7.823 -0.4162  0.4412 -0.4434
 6878TIP3    H142269   3.926   5.200   7.812 -0.5083 -1.1483 -1.0935
 6878TIP3    H242270   4.049   5.137   7.750  1.1782  1.7430 -0.8717
 6879TIP3   OH242271   0.051   3.931   1.338  0.0439  0.5660 -0.1150
 6879TIP3    H142272  -0.042   3.915   1.322 -0.3200  0.6652  1.6893
 6879TIP3    H242273   0.091   3.844   1.340 -0.3422  0.3931  0.8140
 6880TIP3   OH242274   5.332   0.712   7.023 -0.4012  0.0772  0.6700
 6880TIP3    H142275   5.335   0.629   6.975 -2.9417 -0.7651  1.7882
 6880TIP3    H242276   5.250   0.753   6.995 -0.0381  1.3768  1.4442
 6881TIP3   OH242277   3.907   1.089   7.961  0.0369 -0.1084 -0.4639
 6881TIP3    H142278   3.933   0.997   7.973  0.9230  0.1943 -0.0241
 6881TIP3    H242279   3.896   1.123   8.049  0.6435  0.4690 -0.6018
 6882TIP3   OH242280   0.802   6.033   0.514  0.2095 -0.1504 -0.9108
 6882TIP3    H142281   0.870   6.095   0.542  0.2037 -0.5403 -0.0173
 6882TIP3    H242282   0.723   6.086   0.507  0.0457 -0.1803  0.5441
 6883TIP3   OH242283   4.240   6.127   6.916 -0.0191 -0.4208  0.6414
 6883TIP3    H142284   4.179   6.065   6.955 -0.8691  0.5825  0.9344
 6883TIP3    H242285   4.241   6.201   6.977 -0.2804  0.5631 -0.5143
 6884TIP3   OH242286   0.773   5.169   0.873 -0.7261 -0.0559 -0.3871
 6884TIP3    H142287   0.762   5.158   0.968  0.0431 -1.9808 -0.4801
 6884TIP3    H242288   0.777   5.264   0.860 -2.1069  0.2977  1.3409
 6885TIP3   OH242289   0.329   6.503   0.416  0.0658  0.3338  0.0779
 6885TIP3    H142290   0.324   6.443   0.491  0.2258  1.6935  1.2133
 6885TIP3    H242291   0.401   6.563   0.437  0.4497  0.4508 -1.4072
 6886TIP3   OH242292   5.836   0.447   7.934  0.0136 -0.6943  0.2992
 6886TIP3    H142293   5.844   0.414   8.023 -1.4970  0.7552  1.0133
 6886TIP3    H242294   5.909   0.508   7.924  0.6027 -1.3856  0.2632
 6887TIP3   OH242295   4.442   5.034   0.813 -0.1870  0.0220  0.0803
 6887TIP3    H142296   4.422   5.010   0.903 -0.2180  1.2780  0.4205
 6887TIP3    H242297   4.376   5.098   0.789 -0.1642 -0.2796 -0.8357
 6888TIP3   OH242298   1.804   5.775   0.082  0.2160  0.1267 -0.2831
 6888TIP3    H142299   1.744   5.734   0.144 -1.7569  1.5396 -1.1465
 6888TIP3    H242300   1.890   5.739   0.104 -0.8358 -1.5343  1.3990
 6889TIP3   OH242301   2.650   3.772   8.509  0.0582 -0.0276  0.0188
 6889TIP3    H142302   2.613   3.853   8.476 -0.6928  0.7850  2.6251
 6889TIP3    H242303   2.722   3.799   8.566 -0.7956 -1.0613  1.6904
 6890TIP3   OH242304   0.702   4.919   6.803  0.2883  0.2575 -0.3351
 6890TIP3    H142305   0.694   4.997   6.748 -0.7356  0.3267 -0.0962
 6890TIP3    H242306   0.784   4.932   6.851  0.7445  0.6092 -1.1925
 6891TIP3   OH242307   6.451   1.564   6.489  0.4862 -0.3878 -0.1171
 6891TIP3    H142308   6.470   1.566   6.396  0.3049 -1.3833 -0.1849
 6891TIP3    H242309   6.483   1.648   6.522 -0.1679  0.2982 -1.1985
 6892TIP3   OH242310   0.553   0.634   0.502  0.1611  0.4069  0.4448
 6892TIP3    H142311   0.486   0.621   0.569  0.5084 -1.1511  0.5471
 6892TIP3    H242312   0.625   0.676   0.549  0.0989  0.0542  0.8649
 6893TIP3   OH242313   6.676   5.218   6.897 -0.1027 -0.1765 -0.1784
 6893TIP3    H142314   6.664   5.296   6.844  1.6373 -0.3440 -0.8577
 6893TIP3    H242315   6.688   5.251   6.986  1.3977  0.4073 -0.5710
 6894TIP3   OH242316   3.778   6.437   1.651  0.1115 -0.3661 -0.6987
 6894TIP3    H142317   3.739   6.413   1.734  1.2704 -0.8059 -0.2578
 6894TIP3    H242318   3.809   6.527   1.663  0.9256 -0.6734 -0.3851
 6895TIP3   OH242319   3.198   3.203   1.055 -0.2640  0.2464 -0.1998
 6895TIP3    H142320   3.130   3.167   0.999 -0.2928  0.2786 -0.1859
 6895TIP3    H242321   3.183   3.298   1.052  0.2313  0.3120 -0.7860
 6896TIP3   OH242322   2.793   4.858   8.379  0.0583  0.0881  0.3710
 6896TIP3    H142323   2.838   4.892   8.302  0.0263 -0.5940  0.0517
 6896TIP3    H242324   2.792   4.932   8.440  0.7258  0.4136  0.0025
 6897TIP3   OH242325   4.120   5.270   0.570  0.2707  0.5846 -0.4117
 6897TIP3    H142326   4.039   5.315   0.548 -0.1776  1.0379  1.9505
 6897TIP3    H242327   4.137   5.293   0.661  1.2039 -2.2798  0.2324
 6898TIP3   OH242328   4.356   6.689   7.464 -0.2696 -0.1718  0.0198
 6898TIP3    H142329   4.430   6.677   7.523  0.2363 -3.0758 -1.0769
 6898TIP3    H242330   4.280   6.691   7.521  0.3295 -1.4297  0.8932
 6899TIP3   OH242331   2.462   2.140   6.700 -0.4980 -0.0931 -0.1883
 6899TIP3    H142332   2.382   2.087   6.703 -0.0896 -1.0120 -2.9013
 6899TIP3    H242333   2.433   2.227   6.674 -0.7963  0.0778  0.6989
 6900TIP3   OH242334   3.924   5.469   0.547 -0.3415  0.2607  0.2308
 6900TIP3    H142335   3.971   5.495   0.468 -2.0165 -1.4486 -1.4328
 6900TIP3    H242336   3.920   5.549   0.599  2.3823  1.0061 -0.5365
 6901TIP3   OH242337   4.132   4.701   7.365  0.0398  0.2207  0.1252
 6901TIP3    H142338   4.115   4.715   7.458  0.3180 -0.0625  0.2191
 6901TIP3    H242339   4.066   4.755   7.320 -0.2613  0.1558  0.4843
 6902TIP3   OH242340   4.802   1.083   7.205  0.2834  0.6551  0.1203
 6902TIP3    H142341   4.763   1.162   7.242  0.6665  0.3945  1.1311
 6902TIP3    H242342   4.829   1.032   7.282  0.2553 -0.3459 -0.5193
 6903TIP3   OH242343   2.179   1.240   6.619  0.4152 -0.0751 -0.1165
 6903TIP3    H142344   2.225   1.178   6.676 -0.9709 -0.6248  0.4331
 6903TIP3    H242345   2.215   1.223   6.532 -1.3367 -3.1130 -0.3735
 6904TIP3   OH242346   2.879   0.785   8.520  0.0578  0.5274  0.0280
 6904TIP3    H142347   2.859   0.866   8.567  1.7979  0.3288  1.1954
 6904TIP3    H242348   2.822   0.787   8.443 -0.7756  2.2768  0.6460
 6905TIP3   OH242349   3.971   5.111   7.352  0.6556  0.5853 -0.2937
 6905TIP3    H142350   3.932   5.029   7.322 -0.0836  0.4051  1.0757
 6905TIP3    H242351   3.920   5.179   7.308 -0.9609  0.3431  1.1158
 6906TIP3   OH242352   2.357   3.036   8.560 -0.0423  0.2054  0.0295
 6906TIP3    H142353   2.450   3.016   8.570  0.2611  0.7564 -1.4047
 6906TIP3    H242354   2.354   3.103   8.492 -1.5788 -0.6080 -0.7638
 6907TIP3   OH242355   0.594   3.515   6.590  0.7395 -0.2122  0.2416
 6907TIP3    H142356   0.636   3.596   6.561  0.8901 -1.3020 -3.0063
 6907TIP3    H242357   0.501   3.538   6.599  0.7692  0.3558 -0.7268
 6908TIP3   OH242358   0.954   2.436   1.001 -0.0577  0.2422  0.2123
 6908TIP3    H142359   0.960   2.463   0.909 -1.5433  0.9710  0.3035
 6908TIP3    H242360   1.044   2.440   1.033  0.4954 -0.0705 -1.2126
 6909TIP3   OH242361   1.335   4.197   8.732 -0.3434 -0.2730 -0.0960
 6909TIP3    H142362   1.327   4.258   8.659 -1.9035 -0.2498  0.0564
 6909TIP3    H242363   1.429   4.182   8.741 -0.0452  0.7524 -1.2472
 6910TIP3   OH242364   2.197   3.257   6.561 -0.0268 -0.4191 -1.0649
 6910TIP3    H142365   2.234   3.213   6.638  1.1444  1.1350 -0.6899
 6910TIP3    H242366   2.156   3.336   6.597 -0.9217 -0.5031 -1.8733
 6911TIP3   OH242367   0.337   4.616   7.518  0.0791 -0.3809 -0.1411
 6911TIP3    H142368   0.307   4.707   7.514 -1.9739 -0.9482  0.6537
 6911TIP3    H242369   0.371   4.606   7.607  1.7051 -0.0254 -0.7027
 6912TIP3   OH242370   3.917   1.967   0.154 -0.4244  0.1160 -0.3934
 6912TIP3    H142371   3.901   1.874   0.135  2.4204 -0.3261 -1.1772
 6912TIP3    H242372   3.968   1.998   0.079  1.1859  1.5003  1.1609
 6913TIP3   OH242373   3.870   3.129   1.044  0.1654  0.1162  0.0253
 6913TIP3    H142374   3.936   3.190   1.013  0.9297 -1.1190 -0.8700
 6913TIP3    H242375   3.789   3.180   1.046  0.8011  1.1782 -0.5717
 6914TIP3   OH242376   2.790   2.256   5.875  0.7120  0.4613 -0.2368
 6914TIP3    H142377   2.825   2.339   5.909  0.8162 -0.5756  2.4130
 6914TIP3    H242378   2.867   2.200   5.866  0.5611  0.4288 -1.3750
 6915TIP3   OH242379   4.552   1.969   8.436  0.3460  0.8028 -0.6655
 6915TIP3    H142380   4.589   1.883   8.414  0.1205  0.9085 -1.4780
 6915TIP3    H242381   4.624   2.030   8.420  1.6332  0.5256  2.9867
 6916TIP3   OH242382   4.974   6.086   8.691  0.5318 -0.8859  0.0340
 6916TIP3    H142383   4.931   6.028   8.752  1.0716  0.5517  1.8734
 6916TIP3    H242384   5.036   6.030   8.644  0.2031 -2.0072  0.8961
 6917TIP3   OH242385   3.546   1.061   6.601 -0.4495 -0.4570  0.6684
 6917TIP3    H142386   3.460   1.094   6.575 -0.8806 -2.0025  0.0212
 6917TIP3    H242387   3.578   1.015   6.524  0.7374 -0.3686  1.0844
 6918TIP3   OH242388   6.083   3.480   8.445 -0.2953 -0.4414  0.1377
 6918TIP3    H142389   6.081   3.517   8.533 -1.4653  0.1253 -0.1024
 6918TIP3    H242390   6.117   3.551   8.390 -2.3123  0.2789 -0.2861
 6919TIP3   OH242391   2.031   2.235   8.251 -0.1781 -0.0691  0.8660
 6919TIP3    H142392   1.946   2.200   8.225 -0.7749  2.0480 -0.2668
 6919TIP3    H242393   2.026   2.328   8.229  1.9352  0.3885  2.0891
 6920TIP3   OH242394   0.131   4.089   1.614  0.0038 -0.0284 -0.7657
 6920TIP3    H142395   0.141   4.070   1.521  0.2396 -0.1001 -0.7278
 6920TIP3    H242396   0.213   4.058   1.653 -0.1974 -0.2272 -0.4990
 6921TIP3   OH242397   6.858   0.389   6.740  0.9498 -0.4837  0.0943
 6921TIP3    H142398   6.854   0.445   6.817  1.2745  1.3934 -1.2023
 6921TIP3    H242399   6.940   0.413   6.697  0.7052 -1.3943 -0.9186
 6922TIP3   OH242400   6.410   5.315   8.733  0.2150 -0.4247 -0.6069
 6922TIP3    H142401   6.434   5.341   8.644  1.8678  0.2002 -0.0172
 6922TIP3    H242402   6.494   5.305   8.778 -0.5882 -1.0329  0.8073
 6923TIP3   OH242403   3.216   3.691   6.633  0.3295 -0.7070 -0.3648
 6923TIP3    H142404   3.167   3.689   6.551 -1.1923 -0.0821  0.4852
 6923TIP3    H242405   3.156   3.731   6.696  0.4088 -3.5484  1.7103
 6924TIP3   OH242406   6.620   6.310   0.594  0.6156  0.5412  0.5330
 6924TIP3    H142407   6.679   6.327   0.521  1.2010 -1.9931  0.3141
 6924TIP3    H242408   6.554   6.251   0.557 -0.2593  0.8499  1.5607
 6925TIP3   OH242409   5.385   6.106   1.862 -0.5462  0.1483 -0.4700
 6925TIP3    H142410   5.454   6.040   1.856 -0.9245 -0.1046 -4.1566
 6925TIP3    H242411   5.418   6.181   1.814 -1.8746  0.9676 -0.1653
 6926TIP3   OH242412   0.733   5.231   8.598  0.3084  0.2587  0.1291
 6926TIP3    H142413   0.652   5.180   8.597 -0.5117  1.2439 -4.6402
 6926TIP3    H242414   0.711   5.309   8.650 -0.9331 -0.5990  0.9580
 6927TIP3   OH242415   2.539   1.302   8.156 -0.1968  0.1164 -0.5455
 6927TIP3    H142416   2.570   1.390   8.176 -0.9504  0.7337 -1.9329
 6927TIP3    H242417   2.449   1.301   8.189 -0.6940  0.3915 -1.8521
 6928TIP3   OH242418   1.931   1.004   8.645 -0.2533 -0.0315 -0.9511
 6928TIP3    H142419   1.996   1.019   8.713 -1.4156 -2.1875  0.7591
 6928TIP3    H242420   1.868   1.076   8.655 -0.7985 -0.6992  0.8174
 6929TIP3   OH242421   0.454   3.656   7.077 -0.0974 -0.2080  0.1334
 6929TIP3    H142422   0.499   3.740   7.068 -0.1503 -0.0640  1.0569
 6929TIP3    H242423   0.497   3.613   7.151 -0.2673 -0.8664 -0.1405
 6930TIP3   OH242424   3.256   4.850   8.629  0.5232  0.1521 -0.2313
 6930TIP3    H142425   3.225   4.937   8.653  0.0872  0.4483 -1.7908
 6930TIP3    H242426   3.236   4.842   8.536 -0.4738 -2.0551  0.1071
 6931TIP3   OH242427   2.718   3.611   7.954  0.2008  0.1841  0.3179
 6931TIP3    H142428   2.743   3.630   8.044  1.9311  0.2323 -0.1338
 6931TIP3    H242429   2.796   3.633   7.902 -1.2360  1.6592 -1.3790
 6932TIP3   OH242430   4.795   3.304   1.392  0.5142 -0.1138  0.0034
 6932TIP3    H142431   4.867   3.328   1.451  1.6663 -2.3793 -0.3570
 6932TIP3    H242432   4.798   3.209   1.389 -2.3096 -0.2647 -0.3426
 6933TIP3   OH242433   2.460   3.794   7.744 -0.2315 -0.1491 -0.2831
 6933TIP3    H142434   2.531   3.794   7.680  0.3881 -3.3928  0.2601
 6933TIP3    H242435   2.380   3.791   7.690  0.0998  0.8468 -0.8677
 6934TIP3   OH242436   1.996   0.406   0.742 -0.0080 -0.1402  0.1920
 6934TIP3    H142437   2.084   0.443   0.751  0.7656 -1.7665 -0.1510
 6934TIP3    H242438   1.954   0.420   0.827  0.8302  0.0846  0.5757
 6935TIP3   OH242439   0.487   2.063   0.873 -0.4689  0.2984 -0.2123
 6935TIP3    H142440   0.478   1.996   0.805 -1.3354  1.8476 -1.6845
 6935TIP3    H242441   0.575   2.098   0.861  0.2279 -0.9459  0.9713
 6936TIP3   OH242442   3.369   0.827   0.004  0.3396  0.5368 -0.5422
 6936TIP3    H142443   3.364   0.741   0.047 -3.1572  0.6299 -0.4699
 6936TIP3    H242444   3.383   0.888   0.077  2.1434  0.1476 -0.5164
 6937TIP3   OH242445   6.775   0.463   5.947  0.2378  0.4087  0.1813
 6937TIP3    H142446   6.821   0.388   5.987  0.6879 -0.0287 -1.0969
 6937TIP3    H242447   6.840   0.533   5.948  0.6827  0.0381 -0.8522
 6938TIP3   OH242448   1.560   4.658   6.220  0.2948  0.4295  0.0635
 6938TIP3    H142449   1.629   4.711   6.180 -0.1517  1.9846  1.2550
 6938TIP3    H242450   1.587   4.568   6.204  2.4172  0.9952  0.1703
 6939TIP3   OH242451   3.785   0.069   1.321  0.1274  0.6559  0.1194
 6939TIP3    H142452   3.845   0.005   1.283  0.5320 -0.1099  1.9330
 6939TIP3    H242453   3.824   0.154   1.300  1.7435  0.1762  1.0367
 6940TIP3   OH242454   4.491   1.781   7.997  0.0884  0.0451 -0.5166
 6940TIP3    H142455   4.547   1.821   8.064 -2.1728  0.5648  1.1808
 6940TIP3    H242456   4.451   1.856   7.952  0.5733 -0.3217 -1.5935
 6941TIP3   OH242457   5.269   0.864   6.482 -0.2824 -0.4067 -0.4726
 6941TIP3    H142458   5.340   0.809   6.449  0.3990  1.1514 -1.7595
 6941TIP3    H242459   5.205   0.802   6.517  1.4707 -1.8768  0.2826
 6942TIP3   OH242460   1.042   6.186   6.882 -0.1797 -0.0702 -0.2270
 6942TIP3    H142461   1.044   6.281   6.891 -0.0804 -0.0698 -0.2538
 6942TIP3    H242462   1.131   6.162   6.857 -0.2620 -0.1484 -0.4436
 6943TIP3   OH242463   6.099   0.466   0.416 -0.2705 -0.2884  0.0018
 6943TIP3    H142464   6.004   0.456   0.430 -0.1218 -0.1379  1.2738
 6943TIP3    H242465   6.135   0.474   0.505  0.7836  1.0147 -0.5049
 6944TIP3   OH242466   0.301   2.596   8.470 -0.5536  0.1734  0.0627
 6944TIP3    H142467   0.286   2.545   8.549 -1.4765  0.5704  0.1470
 6944TIP3    H242468   0.275   2.685   8.492  2.4997  1.0980  0.4170
 6945TIP3   OH242469   0.386   3.218   7.903  0.2604  0.2062 -0.1985
 6945TIP3    H142470   0.476   3.193   7.926  0.5676 -0.0605 -1.6453
 6945TIP3    H242471   0.367   3.292   7.961  0.8939 -0.5954  1.0983
 6946TIP3   OH242472   5.737   1.631   8.603  0.8620 -0.0150 -0.2117
 6946TIP3    H142473   5.699   1.621   8.690 -1.8970  0.2853 -1.3003
 6946TIP3    H242474   5.731   1.544   8.565 -1.3729  0.5609 -1.3369
 6947TIP3   OH242475   4.601   4.199   8.076  0.3404  0.3304  0.5448
 6947TIP3    H142476   4.509   4.223   8.089  0.2760  0.6726 -0.4500
 6947TIP3    H242477   4.603   4.105   8.090 -0.7470 -0.1996 -2.1328
 6948TIP3   OH242478   0.755   1.385   1.181 -0.1557 -0.1889  0.1278
 6948TIP3    H142479   0.847   1.375   1.203 -0.4334 -1.4555  0.8007
 6948TIP3    H242480   0.755   1.438   1.101  1.2679 -1.6446 -0.9152
 6949TIP3   OH242481   4.292   4.015   0.502 -0.2492  0.0088  0.4905
 6949TIP3    H142482   4.304   4.091   0.558 -1.5250  0.5144  0.1127
 6949TIP3    H242483   4.200   3.990   0.516 -0.1556 -0.7759 -0.2349
 6950TIP3   OH242484   0.192   6.129   7.567  0.4365  0.1534  0.4034
 6950TIP3    H142485   0.190   6.208   7.512 -1.0968 -1.2641 -1.7015
 6950TIP3    H242486   0.126   6.145   7.634  0.1400  0.6546 -0.0021
 6951TIP3   OH242487   6.712   2.541   8.144  0.4843 -0.4680  0.0458
 6951TIP3    H142488   6.805   2.560   8.139  0.7824 -1.8296  0.0727
 6951TIP3    H242489   6.700   2.498   8.228  0.0113 -1.1807 -0.3678
 6952TIP3   OH242490   1.523   0.539   0.365 -0.4048  0.5889  0.1328
 6952TIP3    H142491   1.512   0.605   0.433  0.2393 -0.2878  1.1319
 6952TIP3    H242492   1.509   0.456   0.411  1.0749 -0.0687 -0.5488
 6953TIP3   OH242493   0.976   2.375   8.330 -0.2324 -0.8168 -0.0601
 6953TIP3    H142494   0.883   2.375   8.308  0.0433 -2.1725 -1.4081
 6953TIP3    H242495   0.996   2.466   8.351 -1.2045  0.1401 -2.8146
 6954TIP3   OH242496   6.221   3.831   1.115 -0.7572  0.0768  0.0165
 6954TIP3    H142497   6.302   3.823   1.065 -0.1425  3.3617  0.2712
 6954TIP3    H242498   6.158   3.778   1.066  1.5061 -2.8991  0.0252
 6955TIP3   OH242499   1.075   3.279   8.608  0.3560  0.1092  0.5115
 6955TIP3    H142500   1.119   3.195   8.601 -1.8216 -1.1903  1.4980
 6955TIP3    H242501   1.040   3.295   8.521 -0.3791 -0.7132  0.6417
 6956TIP3   OH242502   0.653   1.482   6.698 -0.7014  0.1066 -0.5479
 6956TIP3    H142503   0.707   1.561   6.694 -1.5044  0.6888 -0.2014
 6956TIP3    H242504   0.652   1.449   6.608  0.6636 -0.2317 -0.4618
 6957TIP3   OH242505   5.434   1.355   5.997  0.1806 -0.2390  0.1571
 6957TIP3    H142506   5.409   1.268   6.027  1.3268 -0.1132  1.6051
 6957TIP3    H242507   5.383   1.416   6.051 -2.1639  0.0682 -2.2225
 6958TIP3   OH242508   2.164   4.876   1.162  0.4843 -0.0616 -0.3132
 6958TIP3    H142509   2.120   4.797   1.131 -1.3141  1.0466 -0.6997
 6958TIP3    H242510   2.109   4.908   1.234  1.2740  0.7581 -0.0539
 6959TIP3   OH242511   0.694   1.816   8.284 -0.4853  0.8710 -0.2252
 6959TIP3    H142512   0.764   1.753   8.265  1.0262  1.3895  2.9206
 6959TIP3    H242513   0.740   1.898   8.303 -1.7811  1.0765  2.5513
 6960TIP3   OH242514   5.842   5.361   0.361 -0.0701 -0.8157  0.6126
 6960TIP3    H142515   5.775   5.320   0.306 -0.6698 -1.0461  1.4805
 6960TIP3    H242516   5.920   5.365   0.306 -0.4712 -1.6217 -0.0324
 6961TIP3   OH242517   6.361   5.120   8.062  0.3324  0.3366 -0.1176
 6961TIP3    H142518   6.339   5.201   8.018 -1.3215  1.3730  2.3478
 6961TIP3    H242519   6.375   5.145   8.153 -1.3780 -2.2203  0.9847
 6962TIP3   OH242520   0.591   0.703   1.324 -0.1164 -0.1552 -0.3197
 6962TIP3    H142521   0.629   0.723   1.410  1.1624  0.9448 -1.1123
 6962TIP3    H242522   0.561   0.612   1.333 -1.0370  0.2755  1.6262
 6963TIP3   OH242523   0.410   5.715   0.950 -0.4965  0.2145 -0.4178
 6963TIP3    H142524   0.436   5.752   0.865 -0.6346  0.3967 -0.3819
 6963TIP3    H242525   0.409   5.621   0.936 -0.0925  0.2215 -0.4995
 6964TIP3   OH242526   1.019   2.851   8.556  0.0496  0.4943  0.1448
 6964TIP3    H142527   1.066   2.822   8.634  0.1022  1.5963  0.5360
 6964TIP3    H242528   0.935   2.882   8.588 -0.7767 -1.0049 -0.5008
 6965TIP3   OH242529   2.340   2.964   1.259 -0.1515 -0.3625  0.0132
 6965TIP3    H142530   2.354   2.995   1.348 -2.0620  1.0196 -0.0948
 6965TIP3    H242531   2.303   2.876   1.271 -0.1577 -0.2907  0.5694
 6966TIP3   OH242532   1.354   0.448   8.572  0.1408  0.1908  0.0203
 6966TIP3    H142533   1.315   0.407   8.495 -0.7564  0.0418  0.5346
 6966TIP3    H242534   1.425   0.389   8.597  0.9267  0.6262 -1.1149
 6967TIP3   OH242535   3.068   1.550   0.186 -0.3312 -0.2747  0.4206
 6967TIP3    H142536   3.151   1.591   0.210 -1.3011  1.1015  1.5720
 6967TIP3    H242537   3.051   1.488   0.256 -0.4269 -0.3321  0.3459
 6968TIP3   OH242538   3.390   5.756   1.063 -0.3847 -0.1588  0.1210
 6968TIP3    H142539   3.449   5.681   1.051  0.4592  0.7738 -2.0843
 6968TIP3    H242540   3.310   5.732   1.016 -0.0354  0.3837 -0.7661
 6969TIP3   OH242541   2.068   0.807   8.419 -0.1061  0.1477 -0.4261
 6969TIP3    H142542   2.151   0.805   8.371  0.5086  1.9904  0.4743
 6969TIP3    H242543   2.084   0.754   8.497  0.3132  0.6931 -0.1374
 6970TIP3   OH242544   0.582   2.184   7.600 -0.2881  0.0172 -0.3620
 6970TIP3    H142545   0.518   2.120   7.630 -0.3517  1.0078  1.7410
 6970TIP3    H242546   0.626   2.140   7.527 -0.5957 -2.2807  0.7376
 6971TIP3   OH242547   2.139   0.014   7.637  0.0688  0.2512  1.0180
 6971TIP3    H142548   2.183  -0.005   7.554 -0.1521  2.3046  0.3618
 6971TIP3    H242549   2.087  -0.064   7.655 -1.0187  0.2714 -1.5511
 6972TIP3   OH242550   3.955   5.750   1.249 -0.8930  0.4498 -0.4416
 6972TIP3    H142551   4.006   5.781   1.324 -1.7222  0.1841  0.2462
 6972TIP3    H242552   3.986   5.661   1.234 -1.2042  0.2555  0.0333
 6973TIP3   OH242553   5.336   4.623   7.064 -0.6227 -0.0320  0.2166
 6973TIP3    H142554   5.306   4.672   6.987  0.5067  1.5131  0.7298
 6973TIP3    H242555   5.361   4.690   7.127 -1.0600 -1.2802  1.7741
 6974TIP3   OH242556   2.912   3.831   6.715 -0.8258  0.0024  0.5137
 6974TIP3    H142557   2.989   3.856   6.766 -0.7842  0.8140  0.0589
 6974TIP3    H242558   2.838   3.865   6.764 -0.7559  1.3371 -0.2425
 6975TIP3   OH242559   6.096   5.517   0.303  0.5571  0.0798 -0.1410
 6975TIP3    H142560   6.143   5.477   0.376  0.4623  0.0139 -0.1154
 6975TIP3    H242561   6.026   5.568   0.344  3.0395  3.6261  0.1182
 6976TIP3   OH242562   4.090   3.264   7.295  0.4278  0.0588 -0.3837
 6976TIP3    H142563   4.073   3.318   7.217  0.7454 -0.4695 -0.8295
 6976TIP3    H242564   4.003   3.245   7.331  0.3488  1.8554  0.4813
 6977TIP3   OH242565   0.287   3.966   6.586 -0.0664 -0.3549  0.2181
 6977TIP3    H142566   0.198   3.940   6.610  0.1699 -1.0648  0.3466
 6977TIP3    H242567   0.342   3.895   6.619  0.3949 -0.7089 -1.2744
 6978TIP3   OH242568   6.208   1.802   1.698 -0.3080  0.2344  0.3290
 6978TIP3    H142569   6.156   1.790   1.618  1.0490 -4.8135 -0.1129
 6978TIP3    H242570   6.151   1.773   1.769  0.0576  0.1043  0.5711
 6979TIP3   OH242571   0.442   2.942   0.136 -0.5875 -0.3990  0.3161
 6979TIP3    H142572   0.397   2.967   0.055 -0.8003 -0.2328  0.4875
 6979TIP3    H242573   0.408   3.001   0.202  0.5901  0.3801  0.2592
 6980TIP3   OH242574   6.739   1.080   8.024 -0.5402  0.0734 -0.1538
 6980TIP3    H142575   6.829   1.060   8.053 -0.6780 -1.0486 -0.4389
 6980TIP3    H242576   6.685   1.016   8.070 -0.8908 -0.9845 -1.9418
 6981TIP3   OH242577   6.237   4.315   1.575 -0.1342 -0.1967  0.2754
 6981TIP3    H142578   6.257   4.338   1.484  0.9763 -0.6926  0.3760
 6981TIP3    H242579   6.323   4.300   1.616 -0.6142  0.0004  1.4024
 6982TIP3   OH242580   4.372   3.308   0.677 -0.1185 -0.0611 -0.3436
 6982TIP3    H142581   4.387   3.217   0.652 -0.2764  0.0160 -0.7274
 6982TIP3    H242582   4.458   3.350   0.671  0.1924 -0.4474  0.9834
 6983TIP3   OH242583   5.630   3.091   0.622 -0.3545  0.0835  0.0501
 6983TIP3    H142584   5.693   3.161   0.641 -0.0315  0.5436 -2.3318
 6983TIP3    H242585   5.568   3.094   0.695 -0.1798  2.7068  0.2052
 6984TIP3   OH242586   0.049   5.094   1.266  0.5524 -0.1647 -0.6618
 6984TIP3    H142587   0.062   5.186   1.289 -0.3605 -0.2038  0.0828
 6984TIP3    H242588  -0.031   5.069   1.313  1.9064 -1.9092  0.8860
 6985TIP3   OH242589   2.295   5.072   7.614 -0.1302 -0.5457 -0.5386
 6985TIP3    H142590   2.210   5.028   7.612 -0.3242 -0.1595 -1.1386
 6985TIP3    H242591   2.322   5.076   7.522  0.3098 -0.2445 -0.3996
 6986TIP3   OH242592   1.870   5.150   6.259  0.2963 -0.5491  0.3740
 6986TIP3    H142593   1.787   5.142   6.212  1.0075  0.8066 -1.1880
 6986TIP3    H242594   1.925   5.080   6.225  0.6236  0.0960 -0.4573
 6987TIP3   OH242595   1.533   0.076   7.918 -0.5195  0.0297  0.1858
 6987TIP3    H142596   1.532   0.153   7.975  0.1692 -0.2053  0.5312
 6987TIP3    H242597   1.594   0.098   7.848  0.4101 -0.5383  0.7915
 6988TIP3   OH242598   0.546   4.861   1.962 -0.0921 -0.3008 -0.3099
 6988TIP3    H142599   0.495   4.921   2.016 -0.6186  1.7839 -2.9164
 6988TIP3    H242600   0.631   4.904   1.954  0.1978 -0.9233 -0.5934
 6989TIP3   OH242601   6.339   5.479   6.826 -0.0923  0.4670  0.1170
 6989TIP3    H142602   6.426   5.439   6.817 -0.1352 -0.4128  2.8108
 6989TIP3    H242603   6.310   5.455   6.914 -3.3348  0.2596 -0.8548
 6990TIP3   OH242604   4.131   3.299   6.389  0.8384 -0.1051 -0.4894
 6990TIP3    H142605   4.148   3.359   6.316  1.5837 -1.8481 -1.8467
 6990TIP3    H242606   4.046   3.326   6.424  0.3894  0.7017 -2.1082
 6991TIP3   OH242607   6.837   4.645   1.006 -0.4520  0.5287  0.1895
 6991TIP3    H142608   6.859   4.554   1.023  2.0928  1.1298  0.5247
 6991TIP3    H242609   6.874   4.693   1.080 -1.2865  1.8950 -0.2436
 6992TIP3   OH242610   6.610   0.901   6.736  0.0454 -0.4374 -0.1264
 6992TIP3    H142611   6.631   0.869   6.823 -0.8954  0.8480  0.6131
 6992TIP3    H242612   6.694   0.925   6.698  0.3150  0.8951  1.2267
 6993TIP3   OH242613   3.021   0.348   8.341  0.0303  0.0988 -0.7283
 6993TIP3    H142614   3.014   0.256   8.367 -1.1876  0.6746  1.1527
 6993TIP3    H242615   3.107   0.376   8.374 -1.0529  0.5277  2.0121
 6994TIP3   OH242616   1.931   2.320   7.701  0.1570 -0.3440 -0.1797
 6994TIP3    H142617   2.020   2.344   7.725  0.4062 -0.0328 -1.3687
 6994TIP3    H242618   1.922   2.229   7.728  0.7759 -0.3275  0.0836
 6995TIP3   OH242619   1.223   6.558   1.426  0.5620 -0.0086 -0.0698
 6995TIP3    H142620   1.273   6.566   1.345 -0.9113 -0.5539 -1.0750
 6995TIP3    H242621   1.289   6.552   1.495  1.8417  0.8334 -1.1884
 6996TIP3   OH242622   5.074   5.451   0.012 -0.0706  0.1472 -0.0324
 6996TIP3    H142623   5.141   5.483   0.072 -1.5231  0.7116  1.3643
 6996TIP3    H242624   5.041   5.530  -0.032 -1.8940  0.3595  1.5560
 6997TIP3   OH242625   6.746   6.684   0.079  0.3630  0.4973  0.0157
 6997TIP3    H142626   6.787   6.676  -0.008 -0.9135 -3.3579 -0.4422
 6997TIP3    H242627   6.819   6.676   0.140  1.0128  0.7358 -0.7059
 6998TIP3   OH242628   0.093   4.787   1.191  0.6152 -0.1628  0.4786
 6998TIP3    H142629   0.186   4.789   1.214  0.8674 -1.5298 -0.3292
 6998TIP3    H242630   0.063   4.876   1.208  1.9206  0.1502  1.3382
 6999TIP3   OH242631   0.614   5.521   7.497  0.5415  0.5235  0.2328
 6999TIP3    H142632   0.605   5.525   7.592 -0.5556 -1.0246  0.2449
 6999TIP3    H242633   0.579   5.604   7.465  0.7397  0.9730  1.1773
 7000TIP3   OH242634   3.690   2.470   2.546 -0.4530 -0.7338 -0.2030
 7000TIP3    H142635   3.729   2.503   2.465 -1.1703 -1.3348 -0.8053
 7000TIP3    H242636   3.723   2.529   2.613 -1.7142  1.2854 -1.2508
 7001TIP3   OH242637   6.244   5.621   6.630 -0.5595 -0.1255 -0.5468
 7001TIP3    H142638   6.267   5.586   6.544 -2.5415  0.0995 -1.2093
 7001TIP3    H242639   6.289   5.564   6.692  1.5802  0.1933 -1.7038
 7002TIP3   OH242640   3.139   6.625   7.789 -0.1796  0.0770  0.1590
 7002TIP3    H142641   3.130   6.712   7.750 -0.6774  0.0266  0.1630
 7002TIP3    H242642   3.050   6.592   7.796  0.0214 -0.5035  0.0093
 7003TIP3   OH242643   4.937   4.335   6.764 -0.9259 -0.4242 -0.1949
 7003TIP3    H142644   4.922   4.317   6.857 -1.1162  0.7258  0.0110
 7003TIP3    H242645   4.914   4.254   6.719  1.2960 -1.7828  0.9411
 7004TIP3   OH242646   5.187   0.520   7.332 -0.2569 -0.0430  0.1918
 7004TIP3    H142647   5.239   0.599   7.350 -1.6513  0.9401  0.0594
 7004TIP3    H242648   5.187   0.513   7.237 -2.9436  1.8536 -0.0670
 7005TIP3   OH242649   2.037   5.589   8.354  0.4955  0.0524  0.2817
 7005TIP3    H142650   2.085   5.512   8.324 -0.6003 -0.5380 -0.0046
 7005TIP3    H242651   2.017   5.571   8.446  0.9213  0.3499  0.4332
 7006TIP3   OH242652   0.572   2.744   0.326 -0.1098 -0.0440 -0.2047
 7006TIP3    H142653   0.540   2.795   0.252  0.7988 -1.2674 -1.5065
 7006TIP3    H242654   0.598   2.660   0.288  2.1931 -0.0480  1.1391
 7007TIP3   OH242655   3.610   0.188   7.211 -0.0522  0.8609 -0.0227
 7007TIP3    H142656   3.648   0.215   7.127  0.1401  1.4956  0.2602
 7007TIP3    H242657   3.530   0.142   7.187  0.8796 -0.5094 -0.6349
 7008TIP3   OH242658   2.186   3.930   8.302 -0.3806 -0.3892  0.6578
 7008TIP3    H142659   2.148   3.899   8.220  0.1787 -0.2816  0.3558
 7008TIP3    H242660   2.123   3.904   8.369 -0.3701 -1.3435  0.3057
 7009TIP3   OH242661   6.458   5.106   0.317  0.0226 -0.1925  0.6052
 7009TIP3    H142662   6.371   5.066   0.326 -0.4840  0.0153 -2.5155
 7009TIP3    H242663   6.448   5.193   0.356 -0.5555 -0.8692  2.0587
 7010TIP3   OH242664   4.968   0.347   0.401 -0.7364  0.0919  0.3054
 7010TIP3    H142665   4.873   0.350   0.414 -0.7273 -0.8131  0.7134
 7010TIP3    H242666   4.979   0.323   0.309 -1.0069 -3.2976  1.0253
 7011TIP3   OH242667   4.891   2.890   7.600  0.5257  0.3699 -0.2015
 7011TIP3    H142668   4.907   2.796   7.598  1.8426  0.5641  0.2671
 7011TIP3    H242669   4.856   2.908   7.687  3.1716  0.6971  0.8851
 7012TIP3   OH242670   0.349   2.577   7.434 -0.4408  0.2243  0.0458
 7012TIP3    H142671   0.387   2.566   7.347 -0.1564 -0.8197  0.2822
 7012TIP3    H242672   0.256   2.596   7.418 -0.6579 -1.1530 -0.4884
 7013TIP3   OH242673   0.883   1.819   0.119 -0.4872  0.2520 -0.0960
 7013TIP3    H142674   0.795   1.816   0.156 -0.4831  0.1432 -0.0950
 7013TIP3    H242675   0.905   1.912   0.118 -0.6338  0.2866 -0.1726
 7014TIP3   OH242676   4.923   3.137   7.987  0.4604 -0.4769  0.3624
 7014TIP3    H142677   4.948   3.228   8.003  2.2003 -0.8447 -0.0723
 7014TIP3    H242678   4.853   3.120   8.049  0.7865  0.8648  1.1387
 7015TIP3   OH242679   4.391   5.433   0.336 -0.2940  0.1248  0.2271
 7015TIP3    H142680   4.346   5.487   0.400 -1.1213 -0.6510  0.3235
 7015TIP3    H242681   4.453   5.492   0.293 -0.6856  0.9661  0.8080
 7016TIP3   OH242682   5.016   3.658   7.415  0.2773  0.1576 -0.5757
 7016TIP3    H142683   5.078   3.591   7.445  1.4053  1.4231  0.0208
 7016TIP3    H242684   4.931   3.629   7.449  0.9878 -0.2116  0.9682
 7017TIP3   OH242685   0.157   5.547   1.830 -0.5789  0.0474 -0.6078
 7017TIP3    H142686   0.241   5.577   1.795 -1.0306  0.2883 -1.5483
 7017TIP3    H242687   0.095   5.562   1.758 -1.7782  1.5612  0.6488
 7018TIP3   OH242688   2.625   3.234   8.006 -0.1112  0.0455  0.5668
 7018TIP3    H142689   2.622   3.290   7.929  1.1036 -0.5830  0.0388
 7018TIP3    H242690   2.581   3.285   8.074 -1.2694  0.5763 -0.5317
 7019TIP3   OH242691   6.070   1.916   1.156 -0.4716  0.1879  0.1755
 7019TIP3    H142692   5.995   1.946   1.207 -1.4383  0.2556 -1.2545
 7019TIP3    H242693   6.033   1.888   1.072  1.3412  2.2352 -1.4032
 7020TIP3   OH242694   5.463   0.976   7.577 -1.0232 -0.9634 -0.3669
 7020TIP3    H142695   5.528   0.964   7.647 -1.4153 -0.2346  0.1416
 7020TIP3    H242696   5.512   1.015   7.505 -1.2596  1.7265  0.7959
 7021TIP3   OH242697   5.936   4.819   7.989  0.1600  0.3976 -0.1661
 7021TIP3    H142698   5.987   4.739   7.995 -2.1144 -1.2870 -1.4575
 7021TIP3    H242699   5.973   4.866   7.914  0.3944 -0.3269 -0.5070
 7022TIP3   OH242700   4.705   3.641   7.173 -0.2361  0.2803  0.4529
 7022TIP3    H142701   4.729   3.734   7.169 -1.0669  0.4678 -2.1832
 7022TIP3    H242702   4.643   3.635   7.246  0.7279  1.5340  1.4321
 7023TIP3   OH242703   3.569   2.246   8.628  0.4666 -0.2862  0.3475
 7023TIP3    H142704   3.564   2.329   8.676 -1.7306  0.0392 -0.3340
 7023TIP3    H242705   3.489   2.200   8.651  0.5029 -1.1744 -1.1555
 7024TIP3   OH242706   0.539   6.616   1.906 -0.3755 -0.5101  0.0928
 7024TIP3    H142707   0.514   6.527   1.929 -0.4668 -0.3408  0.6788
 7024TIP3    H242708   0.474   6.671   1.950 -2.1906 -0.2185 -2.7261
 7025TIP3   OH242709   1.726   2.596   8.449 -1.0674  0.3573  0.0847
 7025TIP3    H142710   1.787   2.655   8.494 -0.8505 -0.8106  1.3937
 7025TIP3    H242711   1.743   2.610   8.356  0.5066  0.7864  0.4048
 7026TIP3   OH242712   0.548   1.630   7.293  0.1329 -0.3618 -0.3661
 7026TIP3    H142713   0.528   1.704   7.349  1.3613 -0.5612  0.3599
 7026TIP3    H242714   0.485   1.563   7.318 -0.6765  0.2511 -0.7021
 7027TIP3   OH242715   1.021   4.835   0.256  0.2573  0.0831 -0.1160
 7027TIP3    H142716   1.005   4.925   0.283 -0.7261 -0.3288  0.7296
 7027TIP3    H242717   0.978   4.781   0.323 -1.7435 -0.9874 -2.1207
 7028TIP3   OH242718   1.045   2.050   6.527 -0.2514  0.0994 -0.3707
 7028TIP3    H142719   1.041   1.978   6.465  0.3539  1.1470 -1.6622
 7028TIP3    H242720   1.025   2.128   6.476  2.9000  1.3678  0.0541
 7029TIP3   OH242721   0.768   2.808   7.817  0.1640  0.5309 -0.5034
 7029TIP3    H142722   0.691   2.840   7.863  0.8454  0.3778  0.7898
 7029TIP3    H242723   0.754   2.834   7.726 -1.1369  0.9995 -0.1896
 7030TIP3   OH242724   0.478   3.748   1.225 -0.3804 -0.3065 -0.2774
 7030TIP3    H142725   0.561   3.772   1.185 -0.8880  1.4346 -0.4058
 7030TIP3    H242726   0.456   3.663   1.187  0.4109  0.0943 -1.6926
 7031TIP3   OH242727   0.460   1.843   2.161  0.3655  0.8840 -0.3544
 7031TIP3    H142728   0.444   1.869   2.070  1.0360  1.1896 -0.3854
 7031TIP3    H242729   0.374   1.850   2.203  0.4275  2.7707 -0.4576
 7032TIP3   OH242730   1.125   3.442   1.002 -0.1670 -0.1319  0.2553
 7032TIP3    H142731   1.057   3.378   0.979 -0.4289 -0.2270  1.2320
 7032TIP3    H242732   1.087   3.490   1.076  0.2688  0.7601 -0.0902
 7033TIP3   OH242733   6.625   4.204   1.341  0.2348 -0.0810 -0.2005
 7033TIP3    H142734   6.608   4.112   1.365  0.3505  0.0572  0.4176
 7033TIP3    H242735   6.694   4.199   1.274  0.5484 -0.4199  0.1458
 7034TIP3   OH242736   3.679   0.822   1.794  0.0006 -0.1865  0.1857
 7034TIP3    H142737   3.689   0.778   1.710 -0.2432  1.0545 -0.5077
 7034TIP3    H242738   3.750   0.886   1.797  0.6968 -0.9550  1.4289
 7035TIP3   OH242739   0.019   5.251   1.643  0.0504 -0.2663 -0.5640
 7035TIP3    H142740  -0.067   5.229   1.679  0.7892 -0.8690  0.8888
 7035TIP3    H242741   0.081   5.212   1.704  1.3783  1.5210 -0.6975
 7036TIP3   OH242742   5.200   3.943   1.120 -0.3419  0.7555 -0.3898
 7036TIP3    H142743   5.260   3.903   1.182 -1.6364 -1.0518 -0.2138
 7036TIP3    H242744   5.128   3.880   1.112 -1.7363  2.3712 -1.3276
 7037TIP3   OH242745   5.502   1.676   0.347  0.3810 -0.1446  0.2899
 7037TIP3    H142746   5.570   1.653   0.411 -0.7434  1.5814  2.1868
 7037TIP3    H242747   5.474   1.764   0.371 -1.2734 -0.0768 -1.5912
 7038TIP3   OH242748   1.206   1.718   8.075 -0.5201  0.0036 -0.3080
 7038TIP3    H142749   1.194   1.782   8.004  1.9607  2.1739  1.0375
 7038TIP3    H242750   1.290   1.677   8.055  1.0220  1.7615  2.0152
 7039TIP3   OH242751   1.412   5.080   6.814 -0.1702  0.2830 -0.2912
 7039TIP3    H142752   1.471   5.113   6.882 -1.0904 -1.4344  1.4323
 7039TIP3    H242753   1.449   4.995   6.789 -1.7500 -0.7496  0.7122
 7040TIP3   OH242754   4.016   6.572   8.358  0.2471 -0.0410  0.2092
 7040TIP3    H142755   4.085   6.590   8.294 -0.4394  0.9647 -0.2553
 7040TIP3    H242756   3.953   6.643   8.348 -0.0392 -0.0206  1.7892
 7041TIP3   OH242757   5.504   2.786   8.067 -0.3614  0.5126 -0.2043
 7041TIP3    H142758   5.468   2.816   8.150  0.3428 -2.2640  1.2312
 7041TIP3    H242759   5.586   2.742   8.090  1.0933  1.6826 -2.6818
 7042TIP3   OH242760   5.181   4.878   0.036 -0.6314  0.3729  0.3454
 7042TIP3    H142761   5.111   4.825   0.073  0.4257 -0.9915  0.4454
 7042TIP3    H242762   5.256   4.865   0.094 -0.1269  1.4266 -0.0262
 7043TIP3   OH242763   4.048   2.502   7.444 -0.7430  0.3271 -0.2093
 7043TIP3    H142764   4.048   2.433   7.378 -0.2346  0.4145 -0.3076
 7043TIP3    H242765   4.026   2.582   7.395 -2.0660  0.1288  0.0330
 7044TIP3   OH242766   1.519   3.559   1.550 -0.3771  0.2431 -0.4689
 7044TIP3    H142767   1.451   3.491   1.547  0.5021 -0.6285 -2.5227
 7044TIP3    H242768   1.473   3.637   1.580 -1.6748 -0.9488  0.8171
 7045TIP3   OH242769   0.407   5.414   1.028 -0.1275 -0.4241  0.0294
 7045TIP3    H142770   0.429   5.323   1.008  0.5956  0.1056 -1.8263
 7045TIP3    H242771   0.312   5.415   1.039 -0.3383 -1.1592 -1.5127
 7046TIP3   OH242772   6.702   5.909   0.562  0.4759 -0.1131 -0.1962
 7046TIP3    H142773   6.704   5.956   0.478 -2.1249 -0.2696 -0.4262
 7046TIP3    H242774   6.619   5.937   0.603  1.4145 -0.4581  2.0956
 7047TIP3   OH242775   4.509   3.991   7.720  0.1970  0.4541  0.4657
 7047TIP3    H142776   4.454   3.936   7.663  1.2247 -2.5319  2.1049
 7047TIP3    H242777   4.446   4.036   7.777 -0.6776  0.8533 -0.7610
 7048TIP3   OH242778   4.668   2.615   8.695  0.2715 -0.0217 -0.3190
 7048TIP3    H142779   4.669   2.563   8.614  0.5904 -0.2742 -0.1587
 7048TIP3    H242780   4.760   2.639   8.708  0.6759 -2.2028  1.3739
 7049TIP3   OH242781   4.165   5.405   8.717 -0.2030  0.7763  0.0668
 7049TIP3    H142782   4.137   5.316   8.698 -0.4611  1.2618 -2.2515
 7049TIP3    H242783   4.260   5.403   8.709 -0.0780  0.4573  1.4157
 7050TIP3   OH242784   5.345   1.434   1.806  0.1655 -0.4742 -0.2840
 7050TIP3    H142785   5.404   1.427   1.731  1.4614  0.9062  0.5353
 7050TIP3    H242786   5.390   1.495   1.866 -0.5497 -1.9048  1.8384
 7051TIP3   OH242787   6.676   6.314   7.212 -0.0443  0.1317 -0.1034
 7051TIP3    H142788   6.700   6.226   7.240 -0.7138  0.1435  0.5620
 7051TIP3    H242789   6.688   6.314   7.117  1.8047 -0.0707  0.1020
 7052TIP3   OH242790   1.086   4.086   6.944  0.0739 -0.0744  0.4410
 7052TIP3    H142791   1.077   4.177   6.973  2.1552  0.3058  0.0969
 7052TIP3    H242792   1.029   4.036   7.003 -0.2247  1.3169  1.3937
 7053TIP3   OH242793   2.439   6.229   1.326  0.3595  0.3677 -0.2011
 7053TIP3    H142794   2.426   6.179   1.406 -0.8745  1.6438  0.4477
 7053TIP3    H242795   2.527   6.205   1.296 -1.2913 -4.7743 -1.8734
 7054TIP3   OH242796   0.177   1.611   7.489 -0.1438 -0.1950  0.2501
 7054TIP3    H142797   0.231   1.544   7.448  0.6450 -0.5440  1.7910
 7054TIP3    H242798   0.087   1.580   7.477  0.0620 -0.3524 -1.0438
 7055TIP3   OH242799   5.079   2.189   7.108  0.0957  0.2041  0.6075
 7055TIP3    H142800   5.167   2.163   7.132  0.9687  0.7178 -1.7542
 7055TIP3    H242801   5.048   2.118   7.050  0.0726  1.3223 -0.8023
 7056TIP3   OH242802   3.803   1.953   8.622  0.1371  0.0545 -0.1477
 7056TIP3    H142803   3.841   2.029   8.665  0.0101 -0.3899  0.7834
 7056TIP3    H242804   3.874   1.917   8.568  0.6302  0.0116  0.5238
 7057TIP3   OH242805   2.056   4.264   8.084  0.0785 -0.4760  0.2167
 7057TIP3    H142806   2.050   4.359   8.078 -0.7540 -0.5296  0.1014
 7057TIP3    H242807   2.109   4.238   8.009 -1.7122 -0.2916 -1.1695
 7058TIP3   OH242808   4.437   3.620   8.572 -0.1509  0.2804 -0.5846
 7058TIP3    H142809   4.401   3.634   8.659  1.4218  2.8375 -0.2362
 7058TIP3    H242810   4.531   3.608   8.586 -0.1296 -1.4178 -1.8032
 7059TIP3   OH242811   6.029   3.051   8.755  0.6015  0.2776  0.3029
 7059TIP3    H142812   5.947   3.038   8.803  0.5681 -0.0589  0.1553
 7059TIP3    H242813   6.005   3.106   8.681  0.5800  0.4824  0.4600
 7060TIP3   OH242814   0.404   2.244   1.092  0.0524 -0.5363 -0.0595
 7060TIP3    H142815   0.339   2.312   1.105  0.5278 -0.0946  0.0633
 7060TIP3    H242816   0.406   2.229   0.998  0.8712  0.5599 -0.2321
 7061TIP3   OH242817   2.396   2.059   8.638  0.0913  0.6932  0.0850
 7061TIP3    H142818   2.301   2.069   8.629 -0.2753 -2.2892 -0.5533
 7061TIP3    H242819   2.429   2.069   8.549  0.3018  1.0775  0.2054
 7062TIP3   OH242820   5.835   5.632   0.329 -0.1397  0.1246 -0.0463
 7062TIP3    H142821   5.843   5.537   0.324  0.3026  0.1513  0.1424
 7062TIP3    H242822   5.847   5.662   0.238 -0.0029  0.0199 -0.0631
 7063TIP3   OH242823   3.234   6.080   0.662  0.7169  0.9271 -0.1542
 7063TIP3    H142824   3.323   6.084   0.697  0.5633 -0.0298  0.3616
 7063TIP3    H242825   3.237   6.135   0.583  1.2843  2.4114  0.8513
 7064TIP3   OH242826   1.922   1.290   7.666 -0.3675 -0.5334 -0.1695
 7064TIP3    H142827   1.841   1.309   7.619  0.1112 -1.2002 -1.3186
 7064TIP3    H242828   1.963   1.220   7.614  1.1415  0.0910  0.1522
 7065TIP3   OH242829   6.368   6.824   0.479 -0.0334  0.0129  0.5695
 7065TIP3    H142830   6.346   6.731   0.481  0.4447 -0.0938  1.1048
 7065TIP3    H242831   6.436   6.834   0.545  0.5219  0.5910 -0.0720
 7066TIP3   OH242832   0.508   6.759   6.935 -0.0565 -0.4549  0.3370
 7066TIP3    H142833   0.484   6.667   6.946 -0.3532 -0.1971  2.1062
 7066TIP3    H242834   0.601   6.761   6.955  0.5350 -0.7244 -2.1117
 7067TIP3   OH242835   3.022   6.665   8.095  0.3014 -0.4534  0.6244
 7067TIP3    H142836   3.077   6.699   8.166 -0.2576 -0.0166  0.8495
 7067TIP3    H242837   2.981   6.587   8.132 -1.3121  0.6938  1.3954
 7068TIP3   OH242838   1.698   6.030   1.756  0.0126 -0.3098 -0.0807
 7068TIP3    H142839   1.615   5.991   1.784  0.5321 -0.1791  1.7926
 7068TIP3    H242840   1.697   6.118   1.794  1.2993 -0.5556  0.5830
 7069TIP3   OH242841   2.138   1.624   1.440  0.3530  0.2153  0.2307
 7069TIP3    H142842   2.106   1.683   1.508  1.2358  1.7637 -0.6377
 7069TIP3    H242843   2.124   1.672   1.358  1.4589 -0.6085 -0.4741
 7070TIP3   OH242844   0.348   2.433   0.223  0.1726  0.4098  0.2605
 7070TIP3    H142845   0.296   2.511   0.241  0.4718  0.5851  0.3722
 7070TIP3    H242846   0.359   2.433   0.128 -0.6164 -0.0074  0.1611
 7071TIP3   OH242847   2.474   6.439   6.691  0.0441  0.5824  0.1334
 7071TIP3    H142848   2.440   6.501   6.755  2.1014  0.8268  1.0609
 7071TIP3    H242849   2.523   6.493   6.629  0.7387  0.0342  0.1929
 7072TIP3   OH242850   2.869   2.462   8.203 -0.0412 -0.0110  0.8944
 7072TIP3    H142851   2.802   2.522   8.171 -0.8275 -1.0950  0.4771
 7072TIP3    H242852   2.946   2.518   8.217 -0.0457  0.7378 -1.6095
 7073TIP3   OH242853   1.512   1.774   8.544 -0.1773 -0.4219 -0.0499
 7073TIP3    H142854   1.528   1.852   8.598 -0.3422 -0.1850 -0.3439
 7073TIP3    H242855   1.423   1.748   8.566 -1.2653  1.2289 -2.1334
 7074TIP3   OH242856   0.703   4.895   1.235 -0.5738  0.3957  0.4765
 7074TIP3    H142857   0.657   4.871   1.316 -0.8179  0.0764  0.2400
 7074TIP3    H242858   0.696   4.991   1.232  0.9858  0.5912  1.7664
 7075TIP3   OH242859   4.603   6.278   0.668 -0.0256 -0.0804  0.5548
 7075TIP3    H142860   4.634   6.192   0.639 -1.3016 -0.1896 -0.5662
 7075TIP3    H242861   4.508   6.270   0.672 -0.0945  0.8992  1.7633
 7076TIP3   OH242862   1.522   4.490   8.709  0.0826  0.2077  0.0117
 7076TIP3    H142863   1.536   4.447   8.625  0.7895 -1.3628  0.8730
 7076TIP3    H242864   1.607   4.485   8.753 -0.3627  0.6443  0.9608
 7077TIP3   OH242865   2.728   1.293   2.389  0.6252 -0.1853 -0.0236
 7077TIP3    H142866   2.723   1.389   2.394 -2.6334 -0.1010 -1.8506
 7077TIP3    H242867   2.756   1.266   2.476  0.6705  2.3980  0.8642
 7078TIP3   OH242868   4.932   5.617   0.382 -0.0864  0.2344  0.2470
 7078TIP3    H142869   4.949   5.537   0.431 -0.4407 -0.2381 -0.3854
 7078TIP3    H242870   5.018   5.660   0.376  0.1786 -0.2818  0.2775
 7079TIP3   OH242871   6.711   2.860   7.511 -0.1695  0.2921 -0.1639
 7079TIP3    H142872   6.682   2.880   7.421 -0.5061  0.4643 -0.0189
 7079TIP3    H242873   6.799   2.897   7.516 -0.4737  1.0340 -0.1571
 7080TIP3   OH242874   0.652   5.911   7.507  0.9439 -0.1537  0.2062
 7080TIP3    H142875   0.588   5.891   7.439 -0.1824 -0.9057  1.4243
 7080TIP3    H242876   0.680   5.825   7.539  0.4830  0.1679  1.5364
 7081TIP3   OH242877   1.823   2.278   0.185 -0.6617 -0.1358 -0.1989
 7081TIP3    H142878   1.912   2.243   0.191 -0.1313  0.5408 -2.9034
 7081TIP3    H242879   1.767   2.204   0.211  0.6385 -1.0533  0.0984
 7082TIP3   OH242880   2.484   6.755   0.847 -0.0025 -0.2297 -0.1463
 7082TIP3    H142881   2.423   6.756   0.773 -0.2792  1.2927  0.0716
 7082TIP3    H242882   2.430   6.731   0.922 -0.2603  0.7357 -0.0186
 7083TIP3   OH242883   3.573   4.889   7.198  0.3852 -0.2307  0.0361
 7083TIP3    H142884   3.568   4.794   7.189 -0.1781 -0.1692 -0.3335
 7083TIP3    H242885   3.618   4.918   7.119 -0.2507 -0.1147 -0.2888
 7084TIP3   OH242886   5.369   2.212   7.379  0.1289 -0.7759  0.1347
 7084TIP3    H142887   5.338   2.237   7.467  0.9118 -0.4590  0.3281
 7084TIP3    H242888   5.378   2.296   7.333  2.9877 -0.6040  0.8524
 7085TIP3   OH242889   2.629   6.165   0.398 -0.1991  0.2385 -0.4114
 7085TIP3    H142890   2.569   6.113   0.344 -1.0833  0.1439  0.6200
 7085TIP3    H242891   2.581   6.246   0.414  0.8023  1.0247 -1.2589
 7086TIP3   OH242892   5.271   2.483   7.665 -0.3253  0.6429  0.7955
 7086TIP3    H142893   5.310   2.396   7.678  0.1371  0.5620 -0.9272
 7086TIP3    H242894   5.182   2.465   7.636 -0.2564  0.7380  0.5191
 7087TIP3   OH242895   1.151   3.070   6.709  0.0947 -0.2842  0.1739
 7087TIP3    H142896   1.092   3.110   6.645  0.0017  0.3241  0.6382
 7087TIP3    H242897   1.238   3.099   6.683 -0.0678  1.1902  1.1879
 7088TIP3   OH242898   6.169   0.291   7.243  0.1662  0.6521 -0.2587
 7088TIP3    H142899   6.178   0.326   7.155 -0.2158 -1.6381 -1.2778
 7088TIP3    H242900   6.196   0.200   7.236 -0.1146  0.3398  1.9503
 7089TIP3   OH242901   6.527   1.028   0.337  0.7973  0.3836 -0.4128
 7089TIP3    H142902   6.612   1.070   0.347  0.1060  1.4410  1.5088
 7089TIP3    H242903   6.466   1.084   0.384 -0.7317 -1.0936 -0.5164
 7090TIP3   OH242904   0.000   0.718   0.101 -0.1786  0.3657  0.0632
 7090TIP3    H142905  -0.030   0.770   0.176  2.5742  0.5921  1.1165
 7090TIP3    H242906  -0.010   0.627   0.129 -0.0129  0.4386  0.3720
 7091TIP3   OH242907   3.371   5.467   1.694  0.4147  0.5172  0.8295
 7091TIP3    H142908   3.347   5.485   1.785 -0.7259 -1.2604  0.9244
 7091TIP3    H242909   3.364   5.372   1.685  2.0481  0.4934 -0.7136
 7092TIP3   OH242910   2.746   5.819   0.625  0.0959 -0.5506  0.2992
 7092TIP3    H142911   2.809   5.750   0.605 -0.6737 -1.2556  0.2593
 7092TIP3    H242912   2.669   5.797   0.574 -0.2061  0.2769  0.3879
 7093TIP3   OH242913   5.212   2.517   0.550  0.3792  0.2168 -0.1598
 7093TIP3    H142914   5.176   2.529   0.462 -0.7400  0.7480  0.3552
 7093TIP3    H242915   5.145   2.552   0.609  0.3536 -1.6572  1.0130
 7094TIP3   OH242916   4.822   0.413   7.096 -0.8939  0.5594 -0.1953
 7094TIP3    H142917   4.876   0.433   7.172 -0.4195 -0.2020 -0.3216
 7094TIP3    H242918   4.733   0.405   7.131 -0.3180 -2.7073  0.8628
 7095TIP3   OH242919   4.267   2.554   0.744  0.5280  0.0475  0.3987
 7095TIP3    H142920   4.249   2.460   0.738 -3.0485  0.4789  1.5807
 7095TIP3    H242921   4.245   2.576   0.834  0.4390  2.1528 -0.0975
 7096TIP3   OH242922   4.879   4.204   6.993  0.4648 -1.0241 -0.0126
 7096TIP3    H142923   4.902   4.243   7.077 -2.3570 -0.2038  0.4550
 7096TIP3    H242924   4.921   4.118   6.995  2.2878 -0.1922  1.2411
 7097TIP3   OH242925   3.865   3.451   1.098  0.0738  0.1564 -0.4413
 7097TIP3    H142926   3.913   3.382   1.144  0.7736  0.8562 -0.1015
 7097TIP3    H242927   3.928   3.487   1.036 -0.2936  0.4788 -0.6280
 7098TIP3   OH242928   3.988   0.215   8.689  0.6798 -0.5706 -0.1431
 7098TIP3    H142929   3.984   0.149   8.758 -0.9136  1.9597  2.3990
 7098TIP3    H242930   3.897   0.242   8.676  1.3589  2.1715  0.1096
 7099TIP3   OH242931   4.509   3.016   6.190  0.2078 -0.6862  0.4329
 7099TIP3    H142932   4.445   2.958   6.230  0.2458 -1.1595 -0.1833
 7099TIP3    H242933   4.555   2.962   6.126  1.5959 -0.4913  1.2311
 7100TIP3   OH242934   5.496   5.976   7.689  0.7661  0.2091  0.0203
 7100TIP3    H142935   5.522   5.982   7.781 -0.5648  1.7448  0.3458
 7100TIP3    H242936   5.547   6.043   7.645  0.8505 -0.0186 -0.2336
 7101TIP3   OH242937   6.428   5.035   7.710  0.4832  0.0448 -0.2290
 7101TIP3    H142938   6.495   4.972   7.681 -1.3400 -1.2317 -1.9449
 7101TIP3    H242939   6.345   4.990   7.695 -0.8049  1.7015  1.5189
 7102TIP3   OH242940   1.211   4.586   0.451 -0.0142 -0.9452 -0.2333
 7102TIP3    H142941   1.147   4.627   0.393 -0.5210 -0.6038  0.5507
 7102TIP3    H242942   1.259   4.660   0.489 -0.3080 -1.1080  0.4742
 7103TIP3   OH242943   0.619   3.288   7.158 -0.1177 -0.0726  0.4330
 7103TIP3    H142944   0.636   3.376   7.125 -0.4826  0.1278  0.7713
 7103TIP3    H242945   0.650   3.290   7.248 -0.1576 -0.2812  0.4524
 7104TIP3   OH242946   6.781   2.324   1.080 -0.0443  0.1270  0.3623
 7104TIP3    H142947   6.772   2.231   1.061 -0.0718 -0.0185  1.0777
 7104TIP3    H242948   6.775   2.331   1.175 -1.1239  0.9835  0.2505
 7105TIP3   OH242949   1.919   2.077   0.944  0.0899  0.1644 -0.1431
 7105TIP3    H142950   1.979   2.140   0.903  0.8183  0.6889  1.6183
 7105TIP3    H242951   1.900   2.115   1.030  0.3597 -1.8994  0.8860
 7106TIP3   OH242952   1.840   6.745   7.777 -0.1618  0.1109 -0.3864
 7106TIP3    H142953   1.748   6.729   7.799 -1.1338  2.1832 -2.5440
 7106TIP3    H242954   1.861   6.677   7.712 -0.1087 -0.4386  0.1964
 7107TIP3   OH242955   4.061   2.560   8.047  0.4058 -0.3911 -0.6519
 7107TIP3    H142956   4.132   2.501   8.025  1.1872  0.5657 -0.7608
 7107TIP3    H242957   4.080   2.640   7.997  1.4896  1.3870  2.3874
 7108TIP3   OH242958   5.245   2.424   8.187 -0.3497 -0.1618 -0.1335
 7108TIP3    H142959   5.184   2.408   8.115  0.5811 -1.7716 -0.6186
 7108TIP3    H242960   5.332   2.410   8.149  0.1528 -1.6737  1.3917
 7109TIP3   OH242961   3.456   3.046   1.392 -0.2063 -0.2049 -0.2732
 7109TIP3    H142962   3.455   3.070   1.484 -1.2445  0.2165 -0.3812
 7109TIP3    H242963   3.509   2.966   1.389  0.0158 -0.1060  0.6502
 7110TIP3   OH242964   5.377   1.089   1.402  0.4527 -0.2844  0.6222
 7110TIP3    H142965   5.398   1.152   1.470 -0.5112  0.5750  0.1608
 7110TIP3    H242966   5.447   1.097   1.338  0.2869  0.4068  0.5211
 7111TIP3   OH242967   6.844   3.198   6.150  0.1858  0.0581 -0.0610
 7111TIP3    H142968   6.869   3.107   6.166 -0.7556 -0.1043  0.5746
 7111TIP3    H242969   6.927   3.244   6.138  0.7874 -0.5261  1.5448
 7112TIP3   OH242970   2.775   6.744   7.955  0.2085  0.2847  0.2573
 7112TIP3    H142971   2.871   6.749   7.959  0.3491 -1.3655 -0.1658
 7112TIP3    H242972   2.748   6.726   8.045  0.3640  0.0553  0.2605
 7113TIP3   OH242973   0.949   0.638   7.279 -0.4717  0.0912  0.6152
 7113TIP3    H142974   0.907   0.711   7.323 -1.0780 -1.1997  2.3084
 7113TIP3    H242975   1.001   0.678   7.209  0.1692  2.2159  2.2230
 7114TIP3   OH242976   5.580   4.552   6.088 -0.4819  0.3617 -0.1067
 7114TIP3    H142977   5.569   4.496   6.011 -3.8688  3.1738 -1.9570
 7114TIP3    H242978   5.534   4.507   6.158  0.3210 -0.9683 -0.3969
 7115TIP3   OH242979   5.987   0.861   8.281  0.1189 -0.4562 -0.6441
 7115TIP3    H142980   6.019   0.851   8.191  1.3595 -0.5312 -0.2084
 7115TIP3    H242981   6.020   0.946   8.309 -2.1576  0.6196 -0.9917
 7116TIP3   OH242982   2.669   4.327   0.246 -0.0920  0.3111  0.3371
 7116TIP3    H142983   2.638   4.413   0.276 -0.5679 -0.4636  2.2509
 7116TIP3    H242984   2.739   4.347   0.184 -1.0520  2.0768 -0.2426
 7117TIP3   OH242985   1.978   2.612   1.234  0.0018  0.2382  0.3831
 7117TIP3    H142986   1.893   2.601   1.191 -0.2879  1.7027  0.5303
 7117TIP3    H242987   1.985   2.537   1.293 -1.6834  0.6327  1.1551
 7118TIP3   OH242988   5.346   3.023   8.120 -0.1639  0.1284  0.3053
 7118TIP3    H142989   5.342   2.948   8.061 -2.3085 -0.4004  1.0586
 7118TIP3    H242990   5.315   3.096   8.067  2.6511  0.7486 -0.6686
 7119TIP3   OH242991   0.048   2.707   6.867  0.1840  0.0671  0.0466
 7119TIP3    H142992  -0.014   2.778   6.850 -1.2116 -1.1374 -0.1040
 7119TIP3    H242993   0.080   2.682   6.781  1.5056  1.1803  0.1783
 7120TIP3   OH242994   4.743   3.843   8.410 -0.2835  0.1180 -0.9803
 7120TIP3    H142995   4.811   3.895   8.366 -0.7052 -0.5974 -2.5429
 7120TIP3    H242996   4.749   3.757   8.369 -0.8915 -0.5079  0.2033
 7121TIP3   OH242997   4.678   3.515   2.074 -0.2085  0.5917 -0.3511
 7121TIP3    H142998   4.608   3.524   2.009 -0.0662 -0.7657 -0.7192
 7121TIP3    H242999   4.697   3.421   2.076 -0.1861  0.5956  1.6190
 7122TIP3   OH243000   1.199   6.721   6.671 -0.4363 -0.3030 -0.3487
 7122TIP3    H143001   1.238   6.679   6.749 -0.0120 -0.1471 -0.4717
 7122TIP3    H243002   1.233   6.670   6.598 -0.7423 -0.3756 -0.4399
 7123TIP3   OH243003   2.166   1.907   0.904 -0.1847  0.3550  0.4760
 7123TIP3    H143004   2.209   1.938   0.825  2.0393 -0.8981  1.0973
 7123TIP3    H243005   2.073   1.920   0.888  0.2250  0.4859 -2.1651
 7124TIP3   OH243006   5.638   1.269   0.900  0.0853  0.6007 -0.4870
 7124TIP3    H143007   5.721   1.293   0.860  0.0888  1.1917 -0.1456
 7124TIP3    H243008   5.578   1.341   0.878  0.3029  1.3623  1.1915
 7125TIP3   OH243009   0.429   6.328   1.347 -0.4046 -0.3555  0.9709
 7125TIP3    H143010   0.480   6.336   1.428  1.9972 -0.3865 -0.4616
 7125TIP3    H243011   0.452   6.405   1.296 -1.4573 -0.6165  0.0702
 7126TIP3   OH243012   5.748   2.934   1.716 -0.6087  0.5008 -0.6400
 7126TIP3    H143013   5.774   2.856   1.667  0.1328 -0.0352  0.5722
 7126TIP3    H243014   5.764   2.912   1.808 -2.5417  1.2545 -0.0745
 7127TIP3   OH243015   4.537   6.059   1.246  0.5687  0.5554 -0.4577
 7127TIP3    H143016   4.555   6.085   1.337 -0.8986  0.9091 -0.2478
 7127TIP3    H243017   4.614   6.008   1.220  0.0436 -1.6102  1.8041
 7128TIP3   OH243018   6.476   6.117   6.375 -0.8003  0.3866  0.1920
 7128TIP3    H143019   6.462   6.203   6.414 -0.9009  0.8111 -0.7626
 7128TIP3    H243020   6.493   6.134   6.282  0.4718 -0.5215  0.2186
 7129TIP3   OH243021   6.423   4.198   2.122 -0.0730  0.4609  0.2717
 7129TIP3    H143022   6.480   4.132   2.084 -1.5788 -1.0736  0.5455
 7129TIP3    H243023   6.419   4.268   2.056 -0.1038 -0.6832 -0.9711
 7130TIP3   OH243024   2.991   6.738   6.281  0.3675  0.0886 -0.4443
 7130TIP3    H143025   2.925   6.808   6.283  0.3992  0.1213 -0.5246
 7130TIP3    H243026   2.941   6.658   6.266  0.4992  0.3290 -2.5499
 7131TIP3   OH243027   1.315   5.983   8.321 -0.2167  0.1220 -0.3353
 7131TIP3    H143028   1.401   5.970   8.280  0.7293  1.1208  1.2326
 7131TIP3    H243029   1.254   5.937   8.263  1.3149 -0.3217 -1.6829
 7132TIP3   OH243030   3.504   0.995   6.178 -0.4001  0.1307  0.1797
 7132TIP3    H143031   3.435   1.001   6.112  0.0533  0.8951 -0.2485
 7132TIP3    H243032   3.577   1.044   6.139 -0.5834  1.8501  1.8537
 7133TIP3   OH243033   3.124   5.093   8.680 -0.1428 -0.1511  0.2417
 7133TIP3    H143034   3.051   5.154   8.685 -0.3957 -0.3952 -0.3372
 7133TIP3    H243035   3.197   5.139   8.721 -0.3856  0.4542  0.0057
 7134TIP3   OH243036   1.401   4.926   1.080 -0.2421 -0.0516  0.0576
 7134TIP3    H143037   1.466   4.856   1.082  0.3956  0.5392  0.3914
 7134TIP3    H243038   1.444   4.997   1.032 -1.5044 -0.4739 -1.7990
 7135TIP3   OH243039   5.965   5.958   6.970  0.2362  0.0312 -0.1663
 7135TIP3    H143040   5.918   6.018   6.913  1.6192  1.2114 -0.1180
 7135TIP3    H243041   6.006   5.895   6.911 -1.8145 -1.3869 -0.1783
 7136TIP3   OH243042   6.356   2.128   8.307  0.1029  0.3763  0.3708
 7136TIP3    H143043   6.390   2.102   8.221 -2.4900 -1.1208 -0.2994
 7136TIP3    H243044   6.361   2.224   8.307  0.6179  0.3748 -1.2395
 7137TIP3   OH243045   1.911   2.906   0.028 -0.2184  0.1226  0.4545
 7137TIP3    H143046   1.875   2.840   0.087  1.8311 -2.3437 -0.8359
 7137TIP3    H243047   2.002   2.917   0.058  0.1847  0.5098 -0.8271
 7138TIP3   OH243048   2.451   1.298   6.833  0.4006 -0.2682 -0.0413
 7138TIP3    H143049   2.440   1.228   6.768 -1.7389  1.9595 -2.3126
 7138TIP3    H243050   2.368   1.297   6.881  0.2975  0.7289 -0.1836
 7139TIP3   OH243051   6.850   3.995   0.499  0.1151 -0.0556 -0.3163
 7139TIP3    H143052   6.889   4.074   0.535 -0.2723 -0.1871  0.4137
 7139TIP3    H243053   6.766   4.024   0.462 -0.7840 -0.3744  1.3953
 7140TIP3   OH243054   2.198   4.229   1.422 -0.0094  0.5196  0.1725
 7140TIP3    H143055   2.119   4.259   1.467  0.3050  1.2468  0.2523
 7140TIP3    H243056   2.255   4.305   1.421  0.2633  0.3128 -0.8603
 7141TIP3   OH243057   1.394   6.430   7.327  0.1352 -0.1653  0.0080
 7141TIP3    H143058   1.332   6.415   7.398 -0.8420  1.3610 -0.4726
 7141TIP3    H243059   1.373   6.363   7.262 -1.1296  0.4082 -0.2015
 7142TIP3   OH243060   5.274   2.419   1.270  0.1041  0.3030 -0.0891
 7142TIP3    H143061   5.253   2.338   1.223  2.8806 -0.7763  0.3658
 7142TIP3    H243062   5.190   2.446   1.309 -1.1337 -1.7213 -1.1573
 7143TIP3   OH243063   5.308   6.514   6.791  0.1787 -0.2990 -0.0283
 7143TIP3    H143064   5.372   6.541   6.856  0.1794  2.3898 -1.0182
 7143TIP3    H243065   5.351   6.528   6.707 -0.5429 -1.7406 -0.6881
 7144TIP3   OH243066   1.865   3.267   7.302  0.1552 -0.2931  0.2996
 7144TIP3    H143067   1.904   3.201   7.245  1.2178  1.0628 -0.6107
 7144TIP3    H243068   1.785   3.226   7.335  0.6104 -1.8996 -0.4836
 7145TIP3   OH243069   0.090   4.412   1.114 -0.6162 -0.4726  0.0718
 7145TIP3    H143070   0.157   4.441   1.176 -1.0593 -0.0306  0.3509
 7145TIP3    H243071   0.065   4.325   1.144  1.2172 -1.4970 -1.1689
 7146TIP3   OH243072   1.729   1.998   8.295 -0.4994 -0.0335 -0.2766
 7146TIP3    H143073   1.797   2.021   8.232 -0.1567 -0.4346 -0.0568
 7146TIP3    H243074   1.654   1.974   8.241 -0.8824  1.6222 -0.5099
 7147TIP3   OH243075   6.357   5.893   6.939  0.1979  0.5387 -0.0482
 7147TIP3    H143076   6.276   5.880   6.889 -1.0410  1.4904  1.6199
 7147TIP3    H243077   6.346   5.978   6.980  2.0115  0.6138  0.3326
 7148TIP3   OH243078   3.642   3.667   0.438  0.4643 -0.3007 -0.0726
 7148TIP3    H143079   3.725   3.647   0.394  0.0319 -1.2606 -0.4749
 7148TIP3    H243080   3.578   3.608   0.398 -0.3670  0.2466  0.4113
 7149TIP3   OH243081   3.676   0.986   2.117  0.1391 -0.6395  0.0185
 7149TIP3    H143082   3.723   1.069   2.107  1.0857 -1.1006  0.4958
 7149TIP3    H243083   3.609   1.004   2.184 -2.7721  0.9980 -3.0093
 7150TIP3   OH243084   4.987   1.633   6.371  0.6164  0.2090 -0.0665
 7150TIP3    H143085   4.925   1.658   6.441  0.3499 -2.7872  0.9131
 7150TIP3    H243086   5.069   1.676   6.395 -0.2836  1.8030  0.2893
 7151TIP3   OH243087   2.070   4.735   0.377  0.4058 -0.3523  0.0953
 7151TIP3    H143088   2.128   4.811   0.367  0.4753 -0.1684  1.6160
 7151TIP3    H243089   2.010   4.741   0.303 -0.6183  2.1395  1.0228
 7152TIP3   OH243090   4.393   6.562   1.849 -0.1528  0.3987 -0.2472
 7152TIP3    H143091   4.305   6.554   1.813 -0.5725 -0.0940  0.8642
 7152TIP3    H243092   4.443   6.607   1.780 -0.6641 -1.3687 -1.8384
 7153TIP3   OH243093   1.980   2.910   7.503 -0.3539  0.6862 -0.0178
 7153TIP3    H143094   2.047   2.888   7.568  0.4580 -0.9652 -1.3520
 7153TIP3    H243095   1.909   2.949   7.555  0.9700  1.0558  1.6253
 7154TIP3   OH243096   2.190   0.329   7.442 -0.2398 -0.0424 -0.5894
 7154TIP3    H143097   2.244   0.367   7.373 -1.4264  0.9245 -1.0154
 7154TIP3    H243098   2.121   0.282   7.396 -0.6889  0.0980 -0.0799
 7155TIP3   OH243099   0.796   1.814   7.307 -0.0077 -0.2827 -0.1730
 7155TIP3    H143100   0.764   1.804   7.397 -0.2871 -0.4858 -0.2920
 7155TIP3    H243101   0.747   1.749   7.257  2.1344 -2.1480  0.0135
 7156TIP3   OH243102   6.360   5.557   1.059 -0.1118 -0.4395  0.4288
 7156TIP3    H143103   6.322   5.469   1.053  0.7062 -0.7563 -0.2676
 7156TIP3    H243104   6.412   5.566   0.980  0.3039  0.4464  0.7934
 7157TIP3   OH243105   4.637   3.952   1.494  0.3127  0.2487 -0.0129
 7157TIP3    H143106   4.668   4.022   1.436 -2.9403  2.3869  0.5184
 7157TIP3    H243107   4.604   3.884   1.435  0.3338  0.7716 -0.6394
 7158TIP3   OH243108   2.598   3.198   7.470 -0.0104  0.0153  0.2400
 7158TIP3    H143109   2.550   3.137   7.413 -1.9927  0.5675  1.2011
 7158TIP3    H243110   2.629   3.266   7.411 -0.6375 -0.2365 -0.4004
 7159TIP3   OH243111   2.989   5.979   0.395  0.0148  0.4443 -0.5676
 7159TIP3    H143112   3.054   6.000   0.328 -0.9431  0.8067 -1.4096
 7159TIP3    H243113   2.995   6.051   0.458  0.8386  0.1588 -0.3042
 7160TIP3   OH243114   5.317   0.208   0.424 -0.0474 -0.9616  0.2828
 7160TIP3    H143115   5.230   0.205   0.464  0.3416  0.3459  1.3061
 7160TIP3    H243116   5.354   0.122   0.439  0.1991 -0.4470  3.0743
 7161TIP3   OH243117   0.390   5.398   7.291  0.2323 -0.1473  0.2937
 7161TIP3    H143118   0.302   5.383   7.325 -0.3860 -1.6482 -1.7555
 7161TIP3    H243119   0.448   5.386   7.367 -1.3029  1.1377  1.7333
 7162TIP3   OH243120   1.648   4.826   0.985  0.0275  0.5447 -0.2327
 7162TIP3    H143121   1.714   4.765   1.019 -0.8681 -0.5166 -0.3207
 7162TIP3    H243122   1.667   4.909   1.027  1.0442  0.0969  0.2073
 7163TIP3   OH243123   1.217   1.901   6.846 -0.3325 -0.3521 -0.0191
 7163TIP3    H143124   1.253   1.891   6.934  0.0290 -1.1850 -0.2526
 7163TIP3    H243125   1.158   1.976   6.852  2.1783  1.7425  0.1516
 7164TIP3   OH243126   3.088   5.717   0.428 -0.0066 -0.0005 -0.8415
 7164TIP3    H143127   3.049   5.804   0.418  1.0816  0.5512 -0.5111
 7164TIP3    H243128   3.022   5.666   0.474 -0.8641  0.5029 -1.4844
 7165TIP3   OH243129   5.536   5.923   6.835 -0.5140  0.3309  0.1015
 7165TIP3    H143130   5.584   5.887   6.910  0.4055 -2.0763 -1.5311
 7165TIP3    H243131   5.443   5.913   6.859 -0.4434  3.8842  2.7553
 7166TIP3   OH243132   3.633   3.271   8.750 -0.4474 -0.3723 -0.5436
 7166TIP3    H143133   3.608   3.186   8.786  2.0739 -0.6584  0.7978
 7166TIP3    H243134   3.728   3.276   8.764 -0.1907  1.8595 -2.3496
 7167TIP3   OH243135   6.684   0.928   1.480 -0.5812 -0.0191  0.0182
 7167TIP3    H143136   6.704   0.918   1.573 -1.3849  1.7001  0.4047
 7167TIP3    H243137   6.749   0.990   1.448 -0.4496 -0.4364 -0.5370
 7168TIP3   OH243138   5.785   5.223   2.117  0.4989 -0.3052 -0.1032
 7168TIP3    H143139   5.880   5.218   2.103  0.5088 -0.8622  0.1437
 7168TIP3    H243140   5.769   5.164   2.190  0.1738  1.0328  0.9512
 7169TIP3   OH243141   2.111   6.379   6.281 -0.0562  0.3926 -0.0176
 7169TIP3    H143142   2.068   6.417   6.358  0.2773  1.1381 -0.1915
 7169TIP3    H243143   2.200   6.414   6.284 -0.7391  2.5307 -2.1429
 7170TIP3   OH243144   0.628   5.406   6.271  0.3968  0.7070 -0.1859
 7170TIP3    H143145   0.591   5.471   6.212  0.4728  1.9939  1.1174
 7170TIP3    H243146   0.700   5.452   6.315 -0.0025 -0.0208  1.2832
 7171LIG     C143147   3.997   2.812   0.352  0.4849  0.7113  0.0051
 7171LIG     N143148   3.857   2.769   0.309 -0.0400  0.0696  0.0162
 7171LIG     C243149   3.833   2.677   0.215 -0.1331  0.4757 -0.2946
 7171LIG     N243150   3.705   2.648   0.197 -0.8026 -0.8944  0.4528
 7171LIG     C343151   3.638   2.728   0.282 -0.3014  0.2576  0.2095
 7171LIG     C443152   3.731   2.804   0.363 -0.2537  0.2689 -0.0050
 7171LIG     C543153   3.691   2.898   0.457 -0.4067 -1.0080 -0.1408
 7171LIG     O143154   3.769   2.962   0.528  0.0708  0.0960 -0.3661
 7171LIG     N343155   3.554   2.925   0.461 -0.1885 -0.2614 -0.5970
 7171LIG     C643156   3.455   2.847   0.385 -0.0609 -0.8200 -0.3558
 7171LIG     O243157   3.331   2.870   0.395  0.0138 -0.0238 -0.3492
 7171LIG     N443158   3.503   2.750   0.296 -0.4035  0.0820 -0.4420
 7171LIG     C743159   3.403   2.676   0.224 -0.6553  0.2403  0.1871
 7171LIG     C843160   3.502   3.021   0.559  0.6571  0.0016  0.3572
 7171LIG     H143161   4.034   2.879   0.271  0.2061 -0.0158 -0.7409
 7171LIG     H243162   4.074   2.732   0.349  0.1960  0.4516 -1.0755
 7171LIG     H343163   3.991   2.868   0.448 -3.3074  0.8775 -0.1608
 7171LIG     H443164   3.915   2.638   0.155 -0.7925  0.0231 -0.9221
 7171LIG     H543165   3.442   2.604   0.149  2.4543 -0.7456  2.5282
 7171LIG     H643166   3.338   2.747   0.169  0.1005  0.4719 -0.4397
 7171LIG     H743167   3.342   2.607   0.286 -1.3553  0.7217  0.0455
 7171LIG     H843168   3.564   3.113   0.548  1.9040 -0.5907  2.0521
 7171LIG     H943169   3.501   2.993   0.667  2.1269  3.1049  1.2897
 7171LIG    H1043170   3.397   3.052   0.540  0.0345 -1.7460  0.7601
   6.87306   6.87306   8.75541
